Setting SGE environment for SCC

     Program PWSCF v.5.3.0 (svn rev. 11974) starts on 21Jul2016 at 17:43:49 

     This program is part of the open-source Quantum ESPRESSO suite
     for quantum simulation of materials; please cite
         "P. Giannozzi et al., J. Phys.:Condens. Matter 21 395502 (2009);
          URL http://www.quantum-espresso.org", 
     in publications or presentations arising from this work. More details at
     http://www.quantum-espresso.org/quote

     Parallel version (MPI), running on    32 processors
     R & G space division:  proc/nbgrp/npool/nimage =      32
     Reading input from top.O1.Au62.d.3.0.phi.0.psi.90.in
Warning: card &CELL ignored
Warning: card / ignored

     Current dimensions of program PWSCF are:
     Max number of different atomic species (ntypx) = 10
     Max number of k-points (npk) =  40000
     Max angular momentum in pseudopotentials (lmaxx) =  3

     IMPORTANT: XC functional enforced from input :
     Exchange-correlation      = VDW-DF ( 1  4  4  0 1 0)
     Any further DFT definition will be discarded
     Please, verify this is what you really want


     Subspace diagonalization in iterative solution of the eigenvalue problem:
     one sub-group per k-point group (pool) will be used
     scalapack distributed-memory algorithm (size of sub-group:  4*  4 procs)

 
     Parallelization info
     --------------------
     sticks:   dense  smooth     PW     G-vecs:    dense   smooth      PW
     Min         578     289     74               118518    41891    5486
     Max         579     290     75               118533    41932    5497
     Sum       18505    9265   2385              3792731  1341081  175711
 

     Title: 
     top.O1.Au62.d.3.0.phi.0.psi.90.relax                                       


     bravais-lattice index     =            8
     lattice parameter (alat)  =      24.1233  a.u.
     unit-cell volume          =   28076.2361 (a.u.)^3
     number of atoms/cell      =           75
     number of atomic types    =            3
     number of electrons       =       800.00
     number of Kohn-Sham states=          480
     kinetic-energy cutoff     =      50.0000  Ry
     charge density cutoff     =     400.0000  Ry
     convergence threshold     =      1.0E-08
     mixing beta               =       0.7000
     number of iterations used =            8  plain     mixing
     Exchange-correlation      = VDW-DF ( 1  4  4  0 1 0)
     nstep                     =           50


     celldm(1)=  24.123277  celldm(2)=   1.000000  celldm(3)=   2.000000
     celldm(4)=   0.000000  celldm(5)=   0.000000  celldm(6)=   0.000000

     crystal axes: (cart. coord. in units of alat)
               a(1) = (   1.000000   0.000000   0.000000 )  
               a(2) = (   0.000000   1.000000   0.000000 )  
               a(3) = (   0.000000   0.000000   2.000000 )  

     reciprocal axes: (cart. coord. in units 2 pi/alat)
               b(1) = (  1.000000  0.000000  0.000000 )  
               b(2) = (  0.000000  1.000000  0.000000 )  
               b(3) = (  0.000000  0.000000  0.500000 )  


     PseudoPot. # 1 for Au read from file:
     ../../../pseudo/Au.pbe-nd-van.UPF
     MD5 check sum: 458681b50f36d87ef23c61b04bba420a
     Pseudo is Ultrasoft + core correction, Zval = 11.0
     Generated by new atomic code, or converted to UPF format
     Using radial grid of  985 points,  3 beta functions with: 
                l(1) =   1
                l(2) =   2
                l(3) =   2
     Q(r) pseudized with  8 coefficients,  rinner =    1.100   1.100   1.100
                                                       1.100   1.100

     PseudoPot. # 2 for H  read from file:
     ../../../pseudo/H.pbe-van_ak.UPF
     MD5 check sum: 403db7282739603aa925980fa9b8608d
     Pseudo is Ultrasoft, Zval =  1.0
     Generated by new atomic code, or converted to UPF format
     Using radial grid of  615 points,  1 beta functions with: 
                l(1) =   0
     Q(r) pseudized with  8 coefficients,  rinner =    0.800

     PseudoPot. # 3 for O  read from file:
     ../../../pseudo/O.pbe-van_ak.UPF
     MD5 check sum: 4b8c549914a63cae506c6ff22b5af4fe
     Pseudo is Ultrasoft, Zval =  6.0
     Generated by new atomic code, or converted to UPF format
     Using radial grid of  737 points,  4 beta functions with: 
                l(1) =   0
                l(2) =   0
                l(3) =   1
                l(4) =   1
     Q(r) pseudized with  8 coefficients,  rinner =    0.800   0.800   0.800


     vdW kernel table read from file vdW_kernel_table
     MD5 check sum: 48e77a2e26edf626eeb0eaa751ad5cac

     atomic species   valence    mass     pseudopotential
        Au            11.00   196.96657     Au( 1.00)
        H              1.00     1.01000     H ( 1.00)
        O              6.00    16.00000     O ( 1.00)

     No symmetry found



   Cartesian axes

     site n.     atom                  positions (alat units)
         1           O   tau(   1) = (   0.4998324   0.3332216   0.7343272  )
         2           H   tau(   2) = (   0.4527548   0.2877277   0.6951557  )
         3           H   tau(   3) = (   0.5454827   0.2853639   0.7723288  )
         4           Au  tau(   4) = (   0.0000000   0.0000000   0.0000000  )
         5           Au  tau(   5) = (   0.3332217   0.0000000   0.0000000  )
         6           Au  tau(   6) = (   0.6664435   0.0000000   0.0000000  )
         7           Au  tau(   7) = (   0.1666109   0.1666109   0.0000000  )
         8           Au  tau(   8) = (   0.4998326   0.1666109   0.0000000  )
         9           Au  tau(   9) = (   0.8330542   0.1666109   0.0000000  )
        10           Au  tau(  10) = (   0.0000000   0.3332217   0.0000000  )
        11           Au  tau(  11) = (   0.3332217   0.3332217   0.0000000  )
        12           Au  tau(  12) = (   0.6664435   0.3332217   0.0000000  )
        13           Au  tau(  13) = (   0.1666109   0.4998326   0.0000000  )
        14           Au  tau(  14) = (   0.4998326   0.4998326   0.0000000  )
        15           Au  tau(  15) = (   0.8330542   0.4998326   0.0000000  )
        16           Au  tau(  16) = (   0.0000000   0.6664435   0.0000000  )
        17           Au  tau(  17) = (   0.3332217   0.6664435   0.0000000  )
        18           Au  tau(  18) = (   0.6664435   0.6664435   0.0000000  )
        19           Au  tau(  19) = (   0.1666109   0.8330542   0.0000000  )
        20           Au  tau(  20) = (   0.4998326   0.8330542   0.0000000  )
        21           Au  tau(  21) = (   0.8330542   0.8330542   0.0000000  )
        22           Au  tau(  22) = (   0.1666109   0.0000000   0.1666109  )
        23           Au  tau(  23) = (   0.4998326   0.0000000   0.1666109  )
        24           Au  tau(  24) = (   0.8330542   0.0000000   0.1666109  )
        25           Au  tau(  25) = (   0.0000000   0.1666109   0.1666109  )
        26           Au  tau(  26) = (   0.3332217   0.1666109   0.1666109  )
        27           Au  tau(  27) = (   0.6664435   0.1666109   0.1666109  )
        28           Au  tau(  28) = (   0.1666109   0.3332217   0.1666109  )
        29           Au  tau(  29) = (   0.4998326   0.3332217   0.1666109  )
        30           Au  tau(  30) = (   0.8330542   0.3332217   0.1666109  )
        31           Au  tau(  31) = (   0.0000000   0.4998326   0.1666109  )
        32           Au  tau(  32) = (   0.3332217   0.4998326   0.1666109  )
        33           Au  tau(  33) = (   0.6664435   0.4998326   0.1666109  )
        34           Au  tau(  34) = (   0.1666109   0.6664435   0.1666109  )
        35           Au  tau(  35) = (   0.4998326   0.6664435   0.1666109  )
        36           Au  tau(  36) = (   0.8330542   0.6664435   0.1666109  )
        37           Au  tau(  37) = (   0.0000000   0.8330542   0.1666109  )
        38           Au  tau(  38) = (   0.3332217   0.8330542   0.1666109  )
        39           Au  tau(  39) = (   0.6664435   0.8330542   0.1666109  )
        40           Au  tau(  40) = (  -0.0000182  -0.0000182   0.3335478  )
        41           Au  tau(  41) = (   0.3332215  -0.0000181   0.3335472  )
        42           Au  tau(  42) = (   0.6664447  -0.0000183   0.3335481  )
        43           Au  tau(  43) = (  -0.0000181   0.3332215   0.3335472  )
        44           Au  tau(  44) = (   0.3332215   0.3332215   0.3335468  )
        45           Au  tau(  45) = (   0.6664445   0.3332215   0.3335478  )
        46           Au  tau(  46) = (  -0.0000183   0.6664447   0.3335481  )
        47           Au  tau(  47) = (   0.3332215   0.6664445   0.3335478  )
        48           Au  tau(  48) = (   0.6664446   0.6664446   0.3335486  )
        49           Au  tau(  49) = (   0.1666097   0.1666097   0.3335483  )
        50           Au  tau(  50) = (   0.4998320   0.1666098   0.3335477  )
        51           Au  tau(  51) = (   0.8330732   0.1666096   0.3335481  )
        52           Au  tau(  52) = (   0.1666098   0.4998320   0.3335477  )
        53           Au  tau(  53) = (   0.4998321   0.4998321   0.3335470  )
        54           Au  tau(  54) = (   0.8330730   0.4998322   0.3335474  )
        55           Au  tau(  55) = (   0.1666096   0.8330732   0.3335481  )
        56           Au  tau(  56) = (   0.4998322   0.8330730   0.3335474  )
        57           Au  tau(  57) = (   0.8330731   0.8330731   0.3335478  )
        58           Au  tau(  58) = (   0.1666104  -0.0000111   0.4993095  )
        59           Au  tau(  59) = (   0.4998323  -0.0000112   0.4993099  )
        60           Au  tau(  60) = (   0.8330661  -0.0000111   0.4993009  )
        61           Au  tau(  61) = (  -0.0000111   0.1666104   0.4993095  )
        62           Au  tau(  62) = (   0.3332214   0.1666106   0.4993185  )
        63           Au  tau(  63) = (   0.6664437   0.1666106   0.4993187  )
        64           Au  tau(  64) = (   0.1666106   0.3332214   0.4993185  )
        65           Au  tau(  65) = (   0.4998324   0.3332216   0.4993185  )
        66           Au  tau(  66) = (   0.8330659   0.3332215   0.4993103  )
        67           Au  tau(  67) = (  -0.0000112   0.4998323   0.4993099  )
        68           Au  tau(  68) = (   0.3332216   0.4998324   0.4993185  )
        69           Au  tau(  69) = (   0.6664436   0.4998325   0.4993187  )
        70           Au  tau(  70) = (   0.1666106   0.6664437   0.4993187  )
        71           Au  tau(  71) = (   0.4998325   0.6664436   0.4993187  )
        72           Au  tau(  72) = (   0.8330658   0.6664438   0.4993102  )
        73           Au  tau(  73) = (  -0.0000111   0.8330661   0.4993009  )
        74           Au  tau(  74) = (   0.3332215   0.8330659   0.4993103  )
        75           Au  tau(  75) = (   0.6664438   0.8330658   0.4993102  )

     number of k points=     6  Marzari-Vanderbilt smearing, width (Ry)=  0.0200
                       cart. coord. in units 2pi/alat
        k(    1) = (   0.2500000   0.2500000   0.0833333), wk =   0.3333333
        k(    2) = (   0.2500000   0.2500000  -0.2500000), wk =   0.3333333
        k(    3) = (  -0.2500000  -0.2500000   0.0833333), wk =   0.3333333
        k(    4) = (  -0.2500000   0.2500000  -0.0833333), wk =   0.3333333
        k(    5) = (   0.2500000  -0.2500000  -0.0833333), wk =   0.3333333
        k(    6) = (  -0.2500000   0.2500000   0.2500000), wk =   0.3333333

     Dense  grid:  3792731 G-vectors     FFT dimensions: ( 160, 160, 320)

     Smooth grid:  1341081 G-vectors     FFT dimensions: ( 120, 120, 225)

     Largest allocated arrays     est. size (Mb)     dimensions
        Kohn-Sham Wavefunctions        38.58 Mb     (    5267,  480)
        NL pseudopotentials            76.03 Mb     (    5267,  946)
        Each V/rho on FFT grid          3.91 Mb     (  256000)
        Each G-vector array             0.90 Mb     (  118520)
        G-vector shells                 0.08 Mb     (   10286)
     Largest temporary arrays     est. size (Mb)     dimensions
        Auxiliary wavefunctions       154.31 Mb     (    5267, 1920)
        Each subspace H/S matrix        3.52 Mb     (     480,  480)
        Each <psi_i|beta_j> matrix      6.93 Mb     (     946,  480)
        Arrays for rho mixing          31.25 Mb     (  256000,    8)

     Initial potential from superposition of free atoms
     Check: negative starting charge=   -1.945168

     starting charge  799.16392, renormalised to  800.00000

     negative rho (up, down):  1.947E+00 0.000E+00


     %%%%%%%%%%%%%%%%%%%%%%%%%%%%%%%%%%%%%%%%%%%%%%%%%%%%%%%%%%%%%%%%%%%%%%%%
     %                                                                      %
     % You are using vdW-DF, which was implemented by the Thonhauser group. %
     % Please cite the following two papers that made this development      %
     % possible and the two reviews that describe the various versions:     %
     %                                                                      %
     %   T. Thonhauser et al., PRL 115, 136402 (2015).                      %
     %   T. Thonhauser et al., PRB 76, 125112 (2007).                       %
     %   K. Berland et al., Rep. Prog. Phys. 78, 066501 (2015).             %
     %   D.C. Langreth et al., J. Phys.: Condens. Matter 21, 084203 (2009). %
     %                                                                      %
     %                                                                      %
     % If you are calculating the stress with vdW-DF, please also cite:     %
     %                                                                      %
     %   R. Sabatini et al., J. Phys.: Condens. Matter 24, 424209 (2012).   %
     %                                                                      %
     %%%%%%%%%%%%%%%%%%%%%%%%%%%%%%%%%%%%%%%%%%%%%%%%%%%%%%%%%%%%%%%%%%%%%%%%


     Starting wfc are  654 randomized atomic wfcs

     total cpu time spent up to now is       93.5 secs

     per-process dynamical memory:   493.6 Mb

     Self-consistent Calculation

     iteration #  1     ecut=    50.00 Ry     beta=0.70
     Davidson diagonalization with overlap
     ethr =  1.00E-02,  avg # of iterations =  3.0

     Threshold (ethr) on eigenvalues was too large:
     Diagonalizing with lowered threshold

     Davidson diagonalization with overlap
     ethr =  4.23E-04,  avg # of iterations =  2.0

     negative rho (up, down):  1.947E+00 0.000E+00

     total cpu time spent up to now is      532.7 secs

     total energy              =   -7423.02949965 Ry
     Harris-Foulkes estimate   =   -7426.07303994 Ry
     estimated scf accuracy    <       3.76023661 Ry

     iteration #  2     ecut=    50.00 Ry     beta=0.70
     Davidson diagonalization with overlap
     ethr =  4.70E-04,  avg # of iterations = 11.3

     negative rho (up, down):  1.942E+00 0.000E+00

     total cpu time spent up to now is     1168.3 secs

     total energy              =   -7415.05585651 Ry
     Harris-Foulkes estimate   =   -7432.66784839 Ry
     estimated scf accuracy    <      92.04103250 Ry

     iteration #  3     ecut=    50.00 Ry     beta=0.70
     Davidson diagonalization with overlap
     ethr =  4.70E-04,  avg # of iterations =  6.0

     negative rho (up, down):  1.953E+00 0.000E+00

     total cpu time spent up to now is     1576.0 secs

     total energy              =   -7424.26450823 Ry
     Harris-Foulkes estimate   =   -7425.86801631 Ry
     estimated scf accuracy    <       6.39273038 Ry

     iteration #  4     ecut=    50.00 Ry     beta=0.70
     Davidson diagonalization with overlap
     ethr =  4.70E-04,  avg # of iterations =  6.2

     negative rho (up, down):  1.956E+00 0.000E+00

     total cpu time spent up to now is     1835.1 secs

     total energy              =   -7424.76147337 Ry
     Harris-Foulkes estimate   =   -7425.73337164 Ry
     estimated scf accuracy    <       6.50719593 Ry

     iteration #  5     ecut=    50.00 Ry     beta=0.70
     Davidson diagonalization with overlap
     ethr =  4.70E-04,  avg # of iterations =  5.8

     negative rho (up, down):  1.964E+00 0.000E+00

     total cpu time spent up to now is     2089.2 secs

     total energy              =   -7425.17952871 Ry
     Harris-Foulkes estimate   =   -7425.47542198 Ry
     estimated scf accuracy    <       1.93733903 Ry

     iteration #  6     ecut=    50.00 Ry     beta=0.70
     Davidson diagonalization with overlap
     ethr =  2.42E-04,  avg # of iterations =  3.2

     negative rho (up, down):  1.967E+00 0.000E+00

     total cpu time spent up to now is     2301.8 secs

     total energy              =   -7425.27598568 Ry
     Harris-Foulkes estimate   =   -7425.32552276 Ry
     estimated scf accuracy    <       0.16535542 Ry

     iteration #  7     ecut=    50.00 Ry     beta=0.70
     Davidson diagonalization with overlap
     ethr =  2.07E-05,  avg # of iterations =  9.3

     negative rho (up, down):  1.970E+00 0.000E+00

     total cpu time spent up to now is     2578.1 secs

     total energy              =   -7425.27960658 Ry
     Harris-Foulkes estimate   =   -7425.32077294 Ry
     estimated scf accuracy    <       0.20583996 Ry

     iteration #  8     ecut=    50.00 Ry     beta=0.70
     Davidson diagonalization with overlap
     ethr =  2.07E-05,  avg # of iterations =  4.5

     negative rho (up, down):  1.971E+00 0.000E+00

     total cpu time spent up to now is     2812.2 secs

     total energy              =   -7425.28754709 Ry
     Harris-Foulkes estimate   =   -7425.30526117 Ry
     estimated scf accuracy    <       0.06815075 Ry

     iteration #  9     ecut=    50.00 Ry     beta=0.70
     Davidson diagonalization with overlap
     ethr =  8.52E-06,  avg # of iterations =  6.0

     negative rho (up, down):  1.972E+00 0.000E+00

     total cpu time spent up to now is     3056.3 secs

     total energy              =   -7425.29051086 Ry
     Harris-Foulkes estimate   =   -7425.29832073 Ry
     estimated scf accuracy    <       0.02446080 Ry

     iteration # 10     ecut=    50.00 Ry     beta=0.70
     Davidson diagonalization with overlap
     ethr =  3.06E-06,  avg # of iterations =  6.7

     negative rho (up, down):  1.973E+00 0.000E+00

     total cpu time spent up to now is     3303.4 secs

     total energy              =   -7425.29245904 Ry
     Harris-Foulkes estimate   =   -7425.29469725 Ry
     estimated scf accuracy    <       0.00609503 Ry

     iteration # 11     ecut=    50.00 Ry     beta=0.70
     Davidson diagonalization with overlap
     ethr =  7.62E-07,  avg # of iterations =  5.7

     negative rho (up, down):  1.973E+00 0.000E+00

     total cpu time spent up to now is     3531.5 secs

     total energy              =   -7425.29311190 Ry
     Harris-Foulkes estimate   =   -7425.29392138 Ry
     estimated scf accuracy    <       0.00253314 Ry

     iteration # 12     ecut=    50.00 Ry     beta=0.70
     Davidson diagonalization with overlap
     ethr =  3.17E-07,  avg # of iterations =  2.0

     negative rho (up, down):  1.974E+00 0.000E+00

     total cpu time spent up to now is     3730.2 secs

     total energy              =   -7425.29297723 Ry
     Harris-Foulkes estimate   =   -7425.29368498 Ry
     estimated scf accuracy    <       0.00189835 Ry

     iteration # 13     ecut=    50.00 Ry     beta=0.70
     Davidson diagonalization with overlap
     ethr =  2.37E-07,  avg # of iterations =  6.0

     negative rho (up, down):  1.974E+00 0.000E+00

     total cpu time spent up to now is     4035.2 secs

     total energy              =   -7425.29238971 Ry
     Harris-Foulkes estimate   =   -7425.29458126 Ry
     estimated scf accuracy    <       0.01173246 Ry

     iteration # 14     ecut=    50.00 Ry     beta=0.70
     Davidson diagonalization with overlap
     ethr =  2.37E-07,  avg # of iterations =  3.0

     negative rho (up, down):  1.974E+00 0.000E+00

     total cpu time spent up to now is     4277.0 secs

     total energy              =   -7425.29342304 Ry
     Harris-Foulkes estimate   =   -7425.29346526 Ry
     estimated scf accuracy    <       0.00012322 Ry

     iteration # 15     ecut=    50.00 Ry     beta=0.70
     Davidson diagonalization with overlap
     ethr =  1.54E-08,  avg # of iterations =  2.0

     negative rho (up, down):  1.974E+00 0.000E+00

     total cpu time spent up to now is     4498.3 secs

     total energy              =   -7425.29343672 Ry
     Harris-Foulkes estimate   =   -7425.29346845 Ry
     estimated scf accuracy    <       0.00016925 Ry

     iteration # 16     ecut=    50.00 Ry     beta=0.70
     Davidson diagonalization with overlap
     ethr =  1.54E-08,  avg # of iterations =  2.0

     negative rho (up, down):  1.974E+00 0.000E+00

     total cpu time spent up to now is     4694.6 secs

     total energy              =   -7425.29344895 Ry
     Harris-Foulkes estimate   =   -7425.29345724 Ry
     estimated scf accuracy    <       0.00004047 Ry

     iteration # 17     ecut=    50.00 Ry     beta=0.70
     Davidson diagonalization with overlap
     ethr =  5.06E-09,  avg # of iterations =  2.0

     negative rho (up, down):  1.974E+00 0.000E+00

     total cpu time spent up to now is     4897.9 secs

     total energy              =   -7425.29345196 Ry
     Harris-Foulkes estimate   =   -7425.29345664 Ry
     estimated scf accuracy    <       0.00002869 Ry

     iteration # 18     ecut=    50.00 Ry     beta=0.70
     Davidson diagonalization with overlap
     ethr =  3.59E-09,  avg # of iterations =  1.0

     negative rho (up, down):  1.974E+00 0.000E+00

     total cpu time spent up to now is     5097.3 secs

     total energy              =   -7425.29345353 Ry
     Harris-Foulkes estimate   =   -7425.29345488 Ry
     estimated scf accuracy    <       0.00000528 Ry

     iteration # 19     ecut=    50.00 Ry     beta=0.70
     Davidson diagonalization with overlap
     ethr =  6.60E-10,  avg # of iterations =  2.0

     negative rho (up, down):  1.974E+00 0.000E+00

     total cpu time spent up to now is     5295.7 secs

     total energy              =   -7425.29345409 Ry
     Harris-Foulkes estimate   =   -7425.29345459 Ry
     estimated scf accuracy    <       0.00000226 Ry

     iteration # 20     ecut=    50.00 Ry     beta=0.70
     Davidson diagonalization with overlap
     ethr =  2.82E-10,  avg # of iterations =  3.0

     negative rho (up, down):  1.974E+00 0.000E+00

     total cpu time spent up to now is     5497.8 secs

     total energy              =   -7425.29345432 Ry
     Harris-Foulkes estimate   =   -7425.29345439 Ry
     estimated scf accuracy    <       0.00000020 Ry

     iteration # 21     ecut=    50.00 Ry     beta=0.70
     Davidson diagonalization with overlap
     ethr =  2.48E-11,  avg # of iterations =  3.0

     negative rho (up, down):  1.974E+00 0.000E+00

     total cpu time spent up to now is     5747.0 secs

     total energy              =   -7425.29345433 Ry
     Harris-Foulkes estimate   =   -7425.29345439 Ry
     estimated scf accuracy    <       0.00000019 Ry

     iteration # 22     ecut=    50.00 Ry     beta=0.70
     Davidson diagonalization with overlap
     ethr =  2.35E-11,  avg # of iterations =  2.0

     negative rho (up, down):  1.974E+00 0.000E+00

     total cpu time spent up to now is     5956.1 secs

     total energy              =   -7425.29345434 Ry
     Harris-Foulkes estimate   =   -7425.29345438 Ry
     estimated scf accuracy    <       0.00000012 Ry

     iteration # 23     ecut=    50.00 Ry     beta=0.70
     Davidson diagonalization with overlap
     ethr =  1.54E-11,  avg # of iterations =  2.0

     negative rho (up, down):  1.974E+00 0.000E+00

     total cpu time spent up to now is     6151.6 secs

     total energy              =   -7425.29345435 Ry
     Harris-Foulkes estimate   =   -7425.29345437 Ry
     estimated scf accuracy    <       0.00000005 Ry

     iteration # 24     ecut=    50.00 Ry     beta=0.70
     Davidson diagonalization with overlap
     ethr =  6.77E-12,  avg # of iterations =  2.0

     negative rho (up, down):  1.974E+00 0.000E+00

     total cpu time spent up to now is     6353.1 secs

     total energy              =   -7425.29345435 Ry
     Harris-Foulkes estimate   =   -7425.29345437 Ry
     estimated scf accuracy    <       0.00000004 Ry

     iteration # 25     ecut=    50.00 Ry     beta=0.70
     Davidson diagonalization with overlap
     ethr =  5.45E-12,  avg # of iterations =  2.0

     negative rho (up, down):  1.974E+00 0.000E+00

     total cpu time spent up to now is     6549.2 secs

     End of self-consistent calculation

          k = 0.2500 0.2500 0.0833 (167653 PWs)   bands (ev):

   -19.6815  -7.5238  -6.8138  -6.2858  -6.2849  -5.8559  -5.4476  -5.3539
    -5.3533  -5.1577  -5.1574  -5.0410  -5.0397  -4.9612  -4.9386  -4.8653
    -4.7804  -4.7766  -4.7381  -4.7375  -4.5773  -4.5601  -4.5590  -4.5587
    -4.5517  -4.4962  -4.4960  -4.4843  -4.4839  -4.4471  -4.4353  -4.4344
    -4.3924  -4.3922  -4.3591  -4.3577  -4.3068  -4.3056  -4.2959  -4.2938
    -4.2881  -4.2751  -4.2750  -4.2347  -4.2159  -4.2157  -4.2087  -4.2084
    -4.1771  -4.1277  -4.1115  -4.1111  -4.1101  -4.1074  -4.0997  -4.0942
    -4.0941  -4.0932  -4.0307  -4.0287  -3.9796  -3.9786  -3.9670  -3.9411
    -3.9402  -3.9218  -3.9174  -3.9169  -3.9134  -3.9103  -3.8613  -3.8607
    -3.8483  -3.8477  -3.7623  -3.7427  -3.7411  -3.7362  -3.7114  -3.6985
    -3.6922  -3.6751  -3.6459  -3.6452  -3.6168  -3.6162  -3.5952  -3.5947
    -3.5820  -3.5812  -3.5263  -3.5259  -3.5084  -3.4920  -3.4815  -3.4797
    -3.4791  -3.4774  -3.4511  -3.4509  -3.4147  -3.4142  -3.3937  -3.3912
    -3.3602  -3.3580  -3.3414  -3.3135  -3.3128  -3.2760  -3.2754  -3.2399
    -3.2321  -3.2315  -3.2179  -3.2171  -3.2127  -3.2122  -3.1756  -3.1635
    -3.1238  -3.1233  -3.1148  -3.1060  -3.1053  -3.1038  -3.0796  -3.0793
    -3.0586  -3.0581  -3.0573  -3.0308  -3.0303  -3.0228  -3.0205  -3.0197
    -2.9836  -2.9806  -2.9452  -2.9439  -2.9436  -2.9409  -2.9399  -2.8606
    -2.8511  -2.8475  -2.8464  -2.8457  -2.8450  -2.8420  -2.8400  -2.8392
    -2.8390  -2.8295  -2.8217  -2.8063  -2.8039  -2.8022  -2.8012  -2.7871
    -2.7827  -2.7452  -2.7439  -2.7432  -2.7397  -2.7387  -2.7205  -2.7202
    -2.7121  -2.7118  -2.7089  -2.6506  -2.6502  -2.6448  -2.6442  -2.6416
    -2.6395  -2.6125  -2.5537  -2.5518  -2.5508  -2.5481  -2.5370  -2.5359
    -2.5326  -2.5206  -2.5191  -2.4856  -2.4824  -2.4757  -2.4744  -2.4729
    -2.4723  -2.4343  -2.4333  -2.4237  -2.4227  -2.4216  -2.4210  -2.3818
    -2.3685  -2.3586  -2.3045  -2.3036  -2.2871  -2.2858  -2.2815  -2.2788
    -2.2313  -2.2296  -2.2063  -2.1923  -2.1784  -2.1761  -2.1744  -2.1543
    -2.1527  -2.1431  -2.1394  -2.0930  -2.0868  -2.0754  -2.0708  -2.0701
    -2.0654  -2.0600  -2.0575  -2.0460  -2.0439  -2.0396  -2.0374  -2.0345
    -2.0334  -2.0235  -2.0223  -2.0099  -2.0042  -2.0028  -1.9974  -1.9942
    -1.9927  -1.9849  -1.9696  -1.9673  -1.9562  -1.9556  -1.9501  -1.9226
    -1.8956  -1.8785  -1.8621  -1.8427  -1.8260  -1.8253  -1.8149  -1.8111
    -1.7911  -1.7884  -1.7771  -1.7758  -1.7744  -1.7731  -1.7713  -1.7602
    -1.7383  -1.7378  -1.7279  -1.6924  -1.6858  -1.6535  -1.6485  -1.6051
    -1.6027  -1.5897  -1.5698  -1.5622  -1.5616  -1.5454  -1.5427  -1.5280
    -1.5259  -1.5220  -1.5214  -1.5200  -1.5197  -1.5172  -1.5109  -1.4969
    -1.4943  -1.4746  -1.4689  -1.4506  -1.4497  -1.4249  -1.4228  -1.4206
    -1.4196  -1.4150  -1.4078  -1.3927  -1.3877  -1.3769  -1.3678  -1.3552
    -1.3543  -1.3396  -1.3308  -1.3099  -1.3089  -1.3018  -1.2951  -1.2653
    -1.2637  -1.2562  -1.2538  -1.2484  -1.2413  -1.2267  -1.2255  -1.2148
    -1.2070  -1.2053  -1.1954  -1.1939  -1.1932  -1.1843  -1.1794  -1.1684
    -1.1674  -1.1599  -1.1598  -1.1477  -1.1436  -1.1374  -1.1329  -1.0974
    -1.0943  -1.0897  -1.0878  -1.0872  -1.0805  -1.0487  -1.0317  -1.0309
    -1.0302  -1.0279  -1.0265  -1.0207  -1.0185  -1.0053  -0.9987  -0.9693
    -0.9636  -0.9616  -0.9590  -0.9389  -0.9384  -0.9289  -0.8996  -0.8916
    -0.8643  -0.8635  -0.8364  -0.8361  -0.8325  -0.8321  -0.8305  -0.8262
    -0.8217  -0.8192  -0.8170  -0.8166  -0.7851  -0.7850  -0.7675  -0.7633
    -0.7617  -0.7608  -0.7595  -0.7439  -0.7407  -0.4664  -0.4541  -0.3995
    -0.3847  -0.3586  -0.1996  -0.1340  -0.1333  -0.0952   0.1850   0.1892
     0.5146   0.5236   0.6139   0.6147   0.6553   0.6564   0.7982   0.8065
     0.9233   0.9258   1.0158   1.6104   1.6284   1.6298   1.6666   1.6742
     1.7145   1.7258   1.7982   1.8039   2.0057   2.0068   2.2420   2.3198
     2.3254   2.3379   2.7147   2.7244   2.7911   2.7919   2.7993   2.8000
     2.9489   2.9515   2.9914   3.0929   3.0966   3.3251   3.3276   3.4602
     3.4875   3.4907   3.7578   3.7614   3.8727   3.8909   3.8919   3.9340
     3.9674   4.0767   4.0786   4.3130   4.3162   4.4021   4.4044   4.5268
     4.5284   4.5492   4.5626   4.6771   5.0031   5.3416   5.3589   5.4510
     5.4567   5.5190   5.6360   5.6388   5.6522   5.7025   5.7304   5.7543
     5.7574   5.8030   5.8081   5.8492   6.0136   6.0740   6.1101   6.1173
     6.1315   6.1365   6.1480   6.1491   6.1601   6.1611   6.1796   6.2178

          k = 0.2500 0.2500-0.2500 (167588 PWs)   bands (ev):

   -19.6815  -7.5238  -6.8138  -6.2858  -6.2849  -5.8559  -5.4476  -5.3539
    -5.3533  -5.1577  -5.1573  -5.0410  -5.0397  -4.9612  -4.9386  -4.8653
    -4.7804  -4.7766  -4.7381  -4.7375  -4.5773  -4.5601  -4.5590  -4.5587
    -4.5517  -4.4962  -4.4960  -4.4843  -4.4839  -4.4471  -4.4353  -4.4344
    -4.3924  -4.3922  -4.3591  -4.3577  -4.3068  -4.3056  -4.2959  -4.2938
    -4.2881  -4.2752  -4.2750  -4.2347  -4.2159  -4.2157  -4.2087  -4.2084
    -4.1771  -4.1277  -4.1115  -4.1111  -4.1101  -4.1074  -4.0997  -4.0942
    -4.0941  -4.0932  -4.0307  -4.0287  -3.9796  -3.9786  -3.9670  -3.9411
    -3.9402  -3.9218  -3.9174  -3.9169  -3.9134  -3.9103  -3.8613  -3.8607
    -3.8483  -3.8477  -3.7623  -3.7427  -3.7411  -3.7362  -3.7114  -3.6985
    -3.6922  -3.6751  -3.6459  -3.6452  -3.6168  -3.6162  -3.5952  -3.5947
    -3.5820  -3.5812  -3.5263  -3.5259  -3.5084  -3.4920  -3.4815  -3.4797
    -3.4791  -3.4774  -3.4511  -3.4509  -3.4147  -3.4142  -3.3937  -3.3912
    -3.3602  -3.3580  -3.3414  -3.3135  -3.3128  -3.2760  -3.2754  -3.2399
    -3.2321  -3.2315  -3.2178  -3.2171  -3.2127  -3.2122  -3.1757  -3.1635
    -3.1238  -3.1233  -3.1148  -3.1060  -3.1053  -3.1038  -3.0796  -3.0793
    -3.0586  -3.0581  -3.0573  -3.0308  -3.0303  -3.0228  -3.0205  -3.0196
    -2.9836  -2.9806  -2.9452  -2.9439  -2.9436  -2.9409  -2.9399  -2.8606
    -2.8511  -2.8475  -2.8463  -2.8457  -2.8450  -2.8420  -2.8399  -2.8392
    -2.8390  -2.8295  -2.8217  -2.8063  -2.8039  -2.8022  -2.8012  -2.7871
    -2.7827  -2.7452  -2.7439  -2.7432  -2.7397  -2.7387  -2.7205  -2.7202
    -2.7121  -2.7118  -2.7089  -2.6506  -2.6502  -2.6448  -2.6442  -2.6416
    -2.6395  -2.6125  -2.5536  -2.5518  -2.5508  -2.5481  -2.5370  -2.5359
    -2.5326  -2.5206  -2.5191  -2.4856  -2.4824  -2.4757  -2.4743  -2.4729
    -2.4723  -2.4343  -2.4333  -2.4237  -2.4227  -2.4216  -2.4210  -2.3818
    -2.3685  -2.3586  -2.3045  -2.3036  -2.2871  -2.2858  -2.2815  -2.2788
    -2.2313  -2.2296  -2.2063  -2.1923  -2.1784  -2.1761  -2.1744  -2.1543
    -2.1527  -2.1431  -2.1394  -2.0930  -2.0868  -2.0753  -2.0708  -2.0701
    -2.0654  -2.0600  -2.0575  -2.0460  -2.0439  -2.0397  -2.0374  -2.0345
    -2.0334  -2.0235  -2.0223  -2.0099  -2.0042  -2.0028  -1.9974  -1.9942
    -1.9927  -1.9849  -1.9696  -1.9673  -1.9562  -1.9556  -1.9501  -1.9226
    -1.8956  -1.8785  -1.8621  -1.8427  -1.8260  -1.8253  -1.8149  -1.8111
    -1.7911  -1.7884  -1.7771  -1.7758  -1.7744  -1.7731  -1.7713  -1.7602
    -1.7383  -1.7378  -1.7279  -1.6924  -1.6858  -1.6535  -1.6485  -1.6051
    -1.6027  -1.5897  -1.5698  -1.5622  -1.5616  -1.5454  -1.5427  -1.5280
    -1.5259  -1.5220  -1.5214  -1.5200  -1.5197  -1.5172  -1.5109  -1.4969
    -1.4943  -1.4746  -1.4689  -1.4506  -1.4497  -1.4249  -1.4228  -1.4205
    -1.4196  -1.4150  -1.4078  -1.3927  -1.3877  -1.3769  -1.3678  -1.3552
    -1.3543  -1.3395  -1.3308  -1.3099  -1.3089  -1.3018  -1.2951  -1.2653
    -1.2637  -1.2562  -1.2538  -1.2484  -1.2413  -1.2267  -1.2255  -1.2148
    -1.2070  -1.2053  -1.1954  -1.1939  -1.1932  -1.1843  -1.1794  -1.1685
    -1.1674  -1.1599  -1.1598  -1.1477  -1.1436  -1.1374  -1.1328  -1.0974
    -1.0943  -1.0897  -1.0877  -1.0872  -1.0805  -1.0487  -1.0317  -1.0309
    -1.0302  -1.0279  -1.0265  -1.0207  -1.0185  -1.0053  -0.9987  -0.9693
    -0.9636  -0.9616  -0.9590  -0.9389  -0.9384  -0.9289  -0.8996  -0.8916
    -0.8642  -0.8634  -0.8364  -0.8361  -0.8325  -0.8321  -0.8305  -0.8262
    -0.8217  -0.8192  -0.8170  -0.8166  -0.7852  -0.7850  -0.7675  -0.7633
    -0.7617  -0.7608  -0.7595  -0.7439  -0.7407  -0.4664  -0.4541  -0.3995
    -0.3847  -0.3586  -0.1996  -0.1340  -0.1333  -0.0952   0.1850   0.1892
     0.5146   0.5236   0.6139   0.6147   0.6553   0.6564   0.7982   0.8065
     0.9233   0.9258   1.0158   1.6104   1.6284   1.6298   1.6666   1.6742
     1.7145   1.7259   1.7982   1.8039   2.0057   2.0068   2.2420   2.3198
     2.3254   2.3379   2.7147   2.7244   2.7911   2.7919   2.7993   2.8000
     2.9489   2.9515   2.9914   3.0929   3.0966   3.3251   3.3276   3.4602
     3.4876   3.4907   3.7578   3.7614   3.8727   3.8909   3.8919   3.9341
     3.9674   4.0767   4.0786   4.3130   4.3162   4.4021   4.4044   4.5268
     4.5284   4.5492   4.5626   4.6771   4.9983   5.3401   5.3550   5.4486
     5.4561   5.5084   5.6375   5.6394   5.6790   5.7111   5.7477   5.7542
     5.7585   5.8030   5.8081   5.8489   6.0316   6.0779   6.0936   6.1180
     6.1333   6.1451   6.1495   6.1511   6.1599   6.1611   6.2029   6.2181

          k =-0.2500-0.2500 0.0833 (167653 PWs)   bands (ev):

   -19.6815  -7.5238  -6.8138  -6.2858  -6.2849  -5.8559  -5.4476  -5.3539
    -5.3533  -5.1577  -5.1574  -5.0410  -5.0397  -4.9612  -4.9386  -4.8653
    -4.7804  -4.7766  -4.7381  -4.7375  -4.5773  -4.5601  -4.5590  -4.5587
    -4.5517  -4.4962  -4.4960  -4.4843  -4.4839  -4.4471  -4.4353  -4.4344
    -4.3924  -4.3922  -4.3591  -4.3577  -4.3068  -4.3056  -4.2959  -4.2938
    -4.2881  -4.2751  -4.2750  -4.2347  -4.2159  -4.2157  -4.2087  -4.2084
    -4.1771  -4.1277  -4.1115  -4.1111  -4.1101  -4.1074  -4.0997  -4.0942
    -4.0941  -4.0932  -4.0307  -4.0287  -3.9796  -3.9786  -3.9670  -3.9411
    -3.9402  -3.9218  -3.9174  -3.9169  -3.9134  -3.9103  -3.8613  -3.8607
    -3.8483  -3.8477  -3.7623  -3.7427  -3.7411  -3.7362  -3.7114  -3.6985
    -3.6922  -3.6751  -3.6459  -3.6452  -3.6168  -3.6162  -3.5952  -3.5947
    -3.5820  -3.5812  -3.5263  -3.5259  -3.5084  -3.4920  -3.4815  -3.4797
    -3.4791  -3.4774  -3.4511  -3.4509  -3.4147  -3.4142  -3.3937  -3.3912
    -3.3602  -3.3580  -3.3414  -3.3135  -3.3128  -3.2760  -3.2754  -3.2399
    -3.2321  -3.2315  -3.2179  -3.2171  -3.2127  -3.2122  -3.1756  -3.1635
    -3.1238  -3.1233  -3.1148  -3.1060  -3.1053  -3.1038  -3.0796  -3.0793
    -3.0586  -3.0581  -3.0573  -3.0308  -3.0303  -3.0228  -3.0205  -3.0197
    -2.9836  -2.9806  -2.9452  -2.9439  -2.9436  -2.9409  -2.9399  -2.8606
    -2.8511  -2.8475  -2.8464  -2.8457  -2.8450  -2.8420  -2.8400  -2.8392
    -2.8390  -2.8295  -2.8217  -2.8063  -2.8039  -2.8022  -2.8012  -2.7871
    -2.7827  -2.7452  -2.7439  -2.7432  -2.7397  -2.7387  -2.7205  -2.7202
    -2.7121  -2.7118  -2.7089  -2.6506  -2.6502  -2.6448  -2.6442  -2.6416
    -2.6395  -2.6125  -2.5537  -2.5518  -2.5508  -2.5481  -2.5370  -2.5359
    -2.5326  -2.5206  -2.5191  -2.4856  -2.4824  -2.4757  -2.4744  -2.4729
    -2.4723  -2.4343  -2.4333  -2.4237  -2.4227  -2.4216  -2.4210  -2.3818
    -2.3685  -2.3586  -2.3045  -2.3036  -2.2871  -2.2858  -2.2815  -2.2788
    -2.2313  -2.2296  -2.2063  -2.1923  -2.1784  -2.1761  -2.1744  -2.1543
    -2.1527  -2.1431  -2.1394  -2.0930  -2.0868  -2.0754  -2.0708  -2.0701
    -2.0654  -2.0600  -2.0575  -2.0460  -2.0439  -2.0396  -2.0374  -2.0345
    -2.0334  -2.0235  -2.0223  -2.0099  -2.0042  -2.0028  -1.9974  -1.9942
    -1.9927  -1.9849  -1.9696  -1.9673  -1.9562  -1.9556  -1.9501  -1.9226
    -1.8956  -1.8785  -1.8621  -1.8427  -1.8260  -1.8253  -1.8149  -1.8111
    -1.7911  -1.7884  -1.7771  -1.7758  -1.7744  -1.7731  -1.7713  -1.7602
    -1.7383  -1.7378  -1.7279  -1.6924  -1.6858  -1.6535  -1.6485  -1.6051
    -1.6027  -1.5897  -1.5698  -1.5622  -1.5616  -1.5454  -1.5427  -1.5280
    -1.5259  -1.5220  -1.5214  -1.5200  -1.5197  -1.5172  -1.5109  -1.4969
    -1.4943  -1.4746  -1.4689  -1.4506  -1.4497  -1.4249  -1.4228  -1.4206
    -1.4196  -1.4150  -1.4078  -1.3927  -1.3877  -1.3769  -1.3678  -1.3552
    -1.3543  -1.3396  -1.3308  -1.3099  -1.3089  -1.3018  -1.2951  -1.2653
    -1.2637  -1.2562  -1.2538  -1.2484  -1.2413  -1.2267  -1.2255  -1.2148
    -1.2070  -1.2053  -1.1954  -1.1939  -1.1932  -1.1843  -1.1794  -1.1684
    -1.1674  -1.1599  -1.1598  -1.1477  -1.1436  -1.1374  -1.1329  -1.0974
    -1.0943  -1.0897  -1.0878  -1.0872  -1.0805  -1.0487  -1.0317  -1.0309
    -1.0302  -1.0279  -1.0265  -1.0207  -1.0185  -1.0053  -0.9987  -0.9693
    -0.9636  -0.9616  -0.9590  -0.9389  -0.9384  -0.9289  -0.8996  -0.8916
    -0.8643  -0.8635  -0.8364  -0.8361  -0.8325  -0.8321  -0.8305  -0.8262
    -0.8217  -0.8192  -0.8170  -0.8166  -0.7851  -0.7850  -0.7675  -0.7633
    -0.7617  -0.7608  -0.7595  -0.7439  -0.7407  -0.4664  -0.4541  -0.3995
    -0.3847  -0.3586  -0.1996  -0.1340  -0.1333  -0.0952   0.1850   0.1892
     0.5146   0.5236   0.6139   0.6147   0.6553   0.6564   0.7982   0.8065
     0.9233   0.9258   1.0158   1.6104   1.6284   1.6298   1.6666   1.6742
     1.7145   1.7258   1.7982   1.8039   2.0057   2.0068   2.2420   2.3198
     2.3254   2.3379   2.7147   2.7244   2.7911   2.7919   2.7993   2.8000
     2.9489   2.9515   2.9914   3.0929   3.0966   3.3251   3.3276   3.4602
     3.4875   3.4907   3.7578   3.7614   3.8727   3.8909   3.8919   3.9340
     3.9674   4.0767   4.0786   4.3130   4.3162   4.4021   4.4044   4.5268
     4.5284   4.5492   4.5626   4.6771   5.0029   5.3416   5.3600   5.4510
     5.4565   5.5150   5.6358   5.6389   5.6573   5.7031   5.7299   5.7543
     5.7574   5.8032   5.8081   5.8492   6.0154   6.0737   6.1078   6.1174
     6.1313   6.1364   6.1483   6.1493   6.1600   6.1611   6.1712   6.2147

          k =-0.2500 0.2500-0.0833 (167653 PWs)   bands (ev):

   -19.6815  -7.5238  -6.8137  -6.2862  -6.2845  -5.8558  -5.4476  -5.3543
    -5.3529  -5.1578  -5.1574  -5.0413  -5.0394  -4.9611  -4.9386  -4.8653
    -4.7805  -4.7765  -4.7381  -4.7374  -4.5774  -4.5602  -4.5593  -4.5582
    -4.5517  -4.4964  -4.4959  -4.4847  -4.4836  -4.4470  -4.4356  -4.4341
    -4.3925  -4.3922  -4.3589  -4.3578  -4.3069  -4.3052  -4.2961  -4.2937
    -4.2882  -4.2751  -4.2750  -4.2350  -4.2161  -4.2156  -4.2089  -4.2081
    -4.1773  -4.1279  -4.1119  -4.1108  -4.1095  -4.1077  -4.0997  -4.0943
    -4.0941  -4.0933  -4.0306  -4.0284  -3.9798  -3.9784  -3.9668  -3.9411
    -3.9404  -3.9215  -3.9172  -3.9171  -3.9142  -3.9102  -3.8617  -3.8607
    -3.8487  -3.8474  -3.7550  -3.7428  -3.7404  -3.7365  -3.7188  -3.6987
    -3.6922  -3.6751  -3.6462  -3.6445  -3.6172  -3.6160  -3.5961  -3.5947
    -3.5824  -3.5810  -3.5266  -3.5258  -3.5067  -3.4920  -3.4808  -3.4796
    -3.4791  -3.4778  -3.4518  -3.4507  -3.4145  -3.4141  -3.3938  -3.3915
    -3.3602  -3.3581  -3.3413  -3.3130  -3.3128  -3.2761  -3.2755  -3.2402
    -3.2321  -3.2315  -3.2184  -3.2172  -3.2126  -3.2122  -3.1756  -3.1635
    -3.1238  -3.1233  -3.1148  -3.1063  -3.1049  -3.1039  -3.0797  -3.0793
    -3.0588  -3.0580  -3.0571  -3.0306  -3.0302  -3.0228  -3.0203  -3.0197
    -2.9836  -2.9804  -2.9457  -2.9440  -2.9436  -2.9409  -2.9399  -2.8607
    -2.8511  -2.8475  -2.8463  -2.8458  -2.8448  -2.8417  -2.8403  -2.8393
    -2.8389  -2.8295  -2.8217  -2.8065  -2.8039  -2.8022  -2.8013  -2.7870
    -2.7824  -2.7453  -2.7438  -2.7433  -2.7399  -2.7387  -2.7209  -2.7200
    -2.7123  -2.7117  -2.7089  -2.6507  -2.6500  -2.6447  -2.6442  -2.6410
    -2.6398  -2.6124  -2.5540  -2.5515  -2.5509  -2.5481  -2.5370  -2.5356
    -2.5329  -2.5204  -2.5190  -2.4858  -2.4823  -2.4759  -2.4743  -2.4731
    -2.4723  -2.4348  -2.4332  -2.4237  -2.4228  -2.4217  -2.4208  -2.3822
    -2.3682  -2.3589  -2.3045  -2.3036  -2.2877  -2.2849  -2.2818  -2.2789
    -2.2319  -2.2294  -2.2063  -2.1927  -2.1775  -2.1767  -2.1744  -2.1545
    -2.1522  -2.1430  -2.1390  -2.0928  -2.0864  -2.0766  -2.0714  -2.0696
    -2.0628  -2.0599  -2.0586  -2.0453  -2.0440  -2.0397  -2.0378  -2.0347
    -2.0331  -2.0236  -2.0226  -2.0100  -2.0037  -2.0027  -1.9961  -1.9944
    -1.9925  -1.9854  -1.9695  -1.9671  -1.9561  -1.9555  -1.9505  -1.9220
    -1.8946  -1.8789  -1.8593  -1.8427  -1.8259  -1.8250  -1.8172  -1.8111
    -1.7917  -1.7864  -1.7793  -1.7754  -1.7744  -1.7736  -1.7720  -1.7613
    -1.7385  -1.7378  -1.7283  -1.6928  -1.6855  -1.6531  -1.6492  -1.6052
    -1.6023  -1.5899  -1.5700  -1.5622  -1.5615  -1.5450  -1.5430  -1.5269
    -1.5256  -1.5226  -1.5217  -1.5200  -1.5196  -1.5173  -1.5110  -1.4971
    -1.4943  -1.4741  -1.4690  -1.4512  -1.4502  -1.4243  -1.4234  -1.4207
    -1.4196  -1.4143  -1.4079  -1.3933  -1.3866  -1.3777  -1.3680  -1.3550
    -1.3542  -1.3396  -1.3308  -1.3106  -1.3085  -1.3017  -1.2949  -1.2650
    -1.2626  -1.2565  -1.2535  -1.2488  -1.2412  -1.2265  -1.2256  -1.2151
    -1.2072  -1.2052  -1.1952  -1.1940  -1.1936  -1.1847  -1.1797  -1.1682
    -1.1672  -1.1602  -1.1597  -1.1475  -1.1441  -1.1375  -1.1333  -1.0976
    -1.0935  -1.0891  -1.0878  -1.0872  -1.0809  -1.0488  -1.0325  -1.0305
    -1.0301  -1.0282  -1.0273  -1.0208  -1.0175  -1.0054  -0.9982  -0.9698
    -0.9634  -0.9617  -0.9587  -0.9390  -0.9381  -0.9289  -0.8999  -0.8918
    -0.8648  -0.8629  -0.8364  -0.8358  -0.8326  -0.8321  -0.8305  -0.8261
    -0.8218  -0.8192  -0.8174  -0.8162  -0.7855  -0.7846  -0.7689  -0.7636
    -0.7610  -0.7606  -0.7597  -0.7425  -0.7408  -0.4663  -0.4541  -0.4014
    -0.3822  -0.3587  -0.1990  -0.1341  -0.1328  -0.0960   0.1840   0.1903
     0.5125   0.5253   0.6138   0.6152   0.6539   0.6584   0.7965   0.8084
     0.9232   0.9256   1.0161   1.6102   1.6287   1.6296   1.6634   1.6742
     1.7096   1.7323   1.7972   1.8060   2.0045   2.0079   2.2410   2.3165
     2.3282   2.3377   2.7087   2.7278   2.7904   2.7935   2.7986   2.8008
     2.9502   2.9506   2.9896   3.0924   3.1027   3.3245   3.3331   3.4595
     3.4857   3.4916   3.7559   3.7646   3.8687   3.8912   3.8921   3.9294
     3.9732   4.0752   4.0801   4.3146   4.3156   4.3966   4.4077   4.5205
     4.5301   4.5442   4.5652   4.6773   5.0051   5.3309   5.3660   5.4527
     5.4594   5.5222   5.6371   5.6435   5.6540   5.7046   5.7191   5.7496
     5.7606   5.8072   5.8079   5.8523   6.0087   6.0799   6.1071   6.1214
     6.1312   6.1345   6.1438   6.1516   6.1538   6.1611   6.1801   6.2096

          k = 0.2500-0.2500-0.0833 (167653 PWs)   bands (ev):

   -19.6815  -7.5238  -6.8137  -6.2862  -6.2845  -5.8558  -5.4476  -5.3543
    -5.3529  -5.1578  -5.1574  -5.0413  -5.0394  -4.9611  -4.9386  -4.8653
    -4.7805  -4.7765  -4.7381  -4.7374  -4.5774  -4.5602  -4.5593  -4.5582
    -4.5517  -4.4964  -4.4959  -4.4847  -4.4836  -4.4470  -4.4356  -4.4341
    -4.3925  -4.3922  -4.3589  -4.3578  -4.3069  -4.3052  -4.2961  -4.2937
    -4.2882  -4.2751  -4.2750  -4.2350  -4.2161  -4.2156  -4.2089  -4.2081
    -4.1773  -4.1279  -4.1119  -4.1108  -4.1095  -4.1077  -4.0997  -4.0943
    -4.0941  -4.0933  -4.0306  -4.0284  -3.9798  -3.9784  -3.9668  -3.9411
    -3.9404  -3.9215  -3.9172  -3.9171  -3.9142  -3.9102  -3.8617  -3.8607
    -3.8487  -3.8474  -3.7550  -3.7428  -3.7404  -3.7365  -3.7188  -3.6987
    -3.6922  -3.6751  -3.6462  -3.6445  -3.6172  -3.6160  -3.5961  -3.5947
    -3.5824  -3.5810  -3.5266  -3.5258  -3.5067  -3.4920  -3.4808  -3.4796
    -3.4791  -3.4778  -3.4518  -3.4507  -3.4145  -3.4141  -3.3938  -3.3915
    -3.3602  -3.3581  -3.3413  -3.3130  -3.3128  -3.2761  -3.2755  -3.2402
    -3.2321  -3.2315  -3.2184  -3.2172  -3.2126  -3.2122  -3.1756  -3.1635
    -3.1238  -3.1233  -3.1148  -3.1063  -3.1049  -3.1039  -3.0797  -3.0793
    -3.0588  -3.0580  -3.0571  -3.0306  -3.0302  -3.0228  -3.0203  -3.0197
    -2.9836  -2.9804  -2.9457  -2.9440  -2.9436  -2.9409  -2.9399  -2.8607
    -2.8511  -2.8475  -2.8463  -2.8458  -2.8448  -2.8417  -2.8403  -2.8393
    -2.8389  -2.8295  -2.8217  -2.8065  -2.8039  -2.8022  -2.8013  -2.7870
    -2.7824  -2.7453  -2.7438  -2.7433  -2.7399  -2.7387  -2.7209  -2.7200
    -2.7123  -2.7117  -2.7089  -2.6507  -2.6500  -2.6447  -2.6442  -2.6410
    -2.6398  -2.6124  -2.5540  -2.5515  -2.5509  -2.5481  -2.5370  -2.5356
    -2.5329  -2.5204  -2.5190  -2.4858  -2.4823  -2.4759  -2.4743  -2.4731
    -2.4723  -2.4348  -2.4332  -2.4237  -2.4228  -2.4217  -2.4208  -2.3822
    -2.3682  -2.3589  -2.3045  -2.3036  -2.2877  -2.2849  -2.2818  -2.2789
    -2.2319  -2.2294  -2.2063  -2.1927  -2.1775  -2.1767  -2.1744  -2.1545
    -2.1522  -2.1430  -2.1390  -2.0928  -2.0864  -2.0766  -2.0714  -2.0696
    -2.0628  -2.0599  -2.0586  -2.0453  -2.0440  -2.0397  -2.0378  -2.0347
    -2.0331  -2.0236  -2.0226  -2.0100  -2.0037  -2.0027  -1.9961  -1.9944
    -1.9925  -1.9854  -1.9695  -1.9671  -1.9561  -1.9555  -1.9505  -1.9220
    -1.8946  -1.8789  -1.8593  -1.8427  -1.8259  -1.8250  -1.8172  -1.8111
    -1.7917  -1.7864  -1.7793  -1.7754  -1.7744  -1.7736  -1.7720  -1.7613
    -1.7385  -1.7378  -1.7283  -1.6928  -1.6855  -1.6531  -1.6492  -1.6052
    -1.6023  -1.5899  -1.5700  -1.5622  -1.5615  -1.5450  -1.5430  -1.5269
    -1.5256  -1.5226  -1.5217  -1.5200  -1.5196  -1.5173  -1.5110  -1.4971
    -1.4943  -1.4741  -1.4690  -1.4512  -1.4502  -1.4243  -1.4234  -1.4207
    -1.4196  -1.4143  -1.4079  -1.3933  -1.3866  -1.3777  -1.3680  -1.3550
    -1.3542  -1.3396  -1.3308  -1.3106  -1.3085  -1.3017  -1.2949  -1.2650
    -1.2626  -1.2565  -1.2535  -1.2488  -1.2412  -1.2265  -1.2256  -1.2151
    -1.2072  -1.2052  -1.1952  -1.1940  -1.1936  -1.1847  -1.1797  -1.1682
    -1.1672  -1.1602  -1.1597  -1.1475  -1.1441  -1.1375  -1.1333  -1.0976
    -1.0935  -1.0891  -1.0878  -1.0872  -1.0809  -1.0488  -1.0325  -1.0305
    -1.0301  -1.0282  -1.0273  -1.0208  -1.0175  -1.0054  -0.9982  -0.9698
    -0.9634  -0.9617  -0.9587  -0.9390  -0.9381  -0.9289  -0.8999  -0.8918
    -0.8648  -0.8629  -0.8364  -0.8358  -0.8326  -0.8321  -0.8305  -0.8261
    -0.8218  -0.8192  -0.8174  -0.8162  -0.7855  -0.7846  -0.7689  -0.7636
    -0.7610  -0.7606  -0.7597  -0.7425  -0.7408  -0.4663  -0.4541  -0.4014
    -0.3822  -0.3587  -0.1990  -0.1341  -0.1328  -0.0960   0.1840   0.1903
     0.5125   0.5253   0.6138   0.6152   0.6539   0.6584   0.7965   0.8084
     0.9232   0.9256   1.0161   1.6102   1.6287   1.6296   1.6634   1.6742
     1.7096   1.7323   1.7972   1.8060   2.0045   2.0079   2.2410   2.3165
     2.3282   2.3377   2.7087   2.7278   2.7904   2.7935   2.7986   2.8008
     2.9502   2.9506   2.9896   3.0924   3.1027   3.3245   3.3331   3.4595
     3.4857   3.4916   3.7559   3.7646   3.8687   3.8912   3.8921   3.9294
     3.9732   4.0752   4.0801   4.3146   4.3156   4.3966   4.4077   4.5205
     4.5301   4.5442   4.5652   4.6773   5.0052   5.3312   5.3654   5.4524
     5.4594   5.5222   5.6374   5.6435   5.6562   5.7033   5.7184   5.7491
     5.7606   5.8072   5.8079   5.8523   6.0086   6.0745   6.1066   6.1219
     6.1320   6.1350   6.1438   6.1515   6.1538   6.1611   6.1861   6.2175

          k =-0.2500 0.2500 0.2500 (167588 PWs)   bands (ev):

   -19.6815  -7.5238  -6.8137  -6.2862  -6.2845  -5.8558  -5.4476  -5.3543
    -5.3529  -5.1578  -5.1574  -5.0413  -5.0394  -4.9611  -4.9386  -4.8653
    -4.7805  -4.7765  -4.7381  -4.7374  -4.5774  -4.5602  -4.5593  -4.5582
    -4.5517  -4.4964  -4.4959  -4.4847  -4.4836  -4.4470  -4.4356  -4.4341
    -4.3925  -4.3922  -4.3589  -4.3578  -4.3069  -4.3052  -4.2961  -4.2937
    -4.2882  -4.2751  -4.2750  -4.2350  -4.2161  -4.2156  -4.2089  -4.2081
    -4.1773  -4.1279  -4.1119  -4.1108  -4.1095  -4.1077  -4.0997  -4.0943
    -4.0941  -4.0933  -4.0306  -4.0284  -3.9798  -3.9784  -3.9668  -3.9411
    -3.9404  -3.9215  -3.9172  -3.9171  -3.9142  -3.9102  -3.8617  -3.8607
    -3.8486  -3.8474  -3.7550  -3.7428  -3.7404  -3.7366  -3.7188  -3.6987
    -3.6922  -3.6751  -3.6462  -3.6445  -3.6172  -3.6160  -3.5961  -3.5947
    -3.5824  -3.5810  -3.5266  -3.5258  -3.5067  -3.4920  -3.4808  -3.4796
    -3.4790  -3.4778  -3.4518  -3.4507  -3.4145  -3.4140  -3.3938  -3.3915
    -3.3602  -3.3581  -3.3413  -3.3130  -3.3128  -3.2761  -3.2755  -3.2402
    -3.2321  -3.2315  -3.2184  -3.2172  -3.2126  -3.2122  -3.1756  -3.1636
    -3.1238  -3.1233  -3.1148  -3.1063  -3.1049  -3.1039  -3.0797  -3.0793
    -3.0588  -3.0580  -3.0571  -3.0306  -3.0302  -3.0228  -3.0203  -3.0197
    -2.9836  -2.9804  -2.9457  -2.9440  -2.9436  -2.9409  -2.9399  -2.8607
    -2.8511  -2.8475  -2.8463  -2.8458  -2.8448  -2.8417  -2.8403  -2.8393
    -2.8389  -2.8295  -2.8217  -2.8065  -2.8039  -2.8022  -2.8013  -2.7870
    -2.7824  -2.7453  -2.7438  -2.7433  -2.7399  -2.7387  -2.7209  -2.7200
    -2.7123  -2.7117  -2.7089  -2.6507  -2.6500  -2.6447  -2.6442  -2.6410
    -2.6398  -2.6124  -2.5540  -2.5515  -2.5509  -2.5481  -2.5370  -2.5356
    -2.5329  -2.5204  -2.5190  -2.4858  -2.4823  -2.4759  -2.4743  -2.4731
    -2.4723  -2.4348  -2.4332  -2.4237  -2.4228  -2.4217  -2.4208  -2.3822
    -2.3682  -2.3589  -2.3045  -2.3036  -2.2877  -2.2849  -2.2818  -2.2789
    -2.2319  -2.2294  -2.2063  -2.1927  -2.1775  -2.1767  -2.1744  -2.1545
    -2.1522  -2.1430  -2.1390  -2.0928  -2.0864  -2.0766  -2.0714  -2.0696
    -2.0628  -2.0599  -2.0586  -2.0453  -2.0440  -2.0397  -2.0378  -2.0347
    -2.0331  -2.0236  -2.0226  -2.0100  -2.0037  -2.0027  -1.9961  -1.9944
    -1.9925  -1.9854  -1.9695  -1.9671  -1.9561  -1.9555  -1.9505  -1.9220
    -1.8946  -1.8789  -1.8593  -1.8427  -1.8259  -1.8250  -1.8171  -1.8111
    -1.7917  -1.7864  -1.7793  -1.7754  -1.7744  -1.7736  -1.7720  -1.7613
    -1.7385  -1.7378  -1.7283  -1.6928  -1.6855  -1.6531  -1.6492  -1.6052
    -1.6023  -1.5899  -1.5700  -1.5622  -1.5615  -1.5450  -1.5430  -1.5269
    -1.5256  -1.5226  -1.5217  -1.5200  -1.5196  -1.5172  -1.5110  -1.4971
    -1.4943  -1.4741  -1.4690  -1.4512  -1.4502  -1.4243  -1.4234  -1.4207
    -1.4196  -1.4143  -1.4079  -1.3933  -1.3866  -1.3777  -1.3680  -1.3550
    -1.3543  -1.3396  -1.3308  -1.3106  -1.3085  -1.3017  -1.2949  -1.2650
    -1.2626  -1.2565  -1.2535  -1.2488  -1.2412  -1.2265  -1.2256  -1.2151
    -1.2072  -1.2052  -1.1952  -1.1940  -1.1936  -1.1847  -1.1797  -1.1682
    -1.1672  -1.1602  -1.1597  -1.1475  -1.1441  -1.1375  -1.1333  -1.0976
    -1.0935  -1.0891  -1.0878  -1.0872  -1.0809  -1.0487  -1.0325  -1.0305
    -1.0301  -1.0282  -1.0273  -1.0208  -1.0175  -1.0054  -0.9982  -0.9698
    -0.9634  -0.9618  -0.9587  -0.9390  -0.9381  -0.9289  -0.8999  -0.8918
    -0.8648  -0.8629  -0.8364  -0.8358  -0.8326  -0.8321  -0.8305  -0.8261
    -0.8218  -0.8192  -0.8174  -0.8162  -0.7855  -0.7846  -0.7689  -0.7636
    -0.7610  -0.7606  -0.7597  -0.7425  -0.7408  -0.4663  -0.4541  -0.4014
    -0.3822  -0.3587  -0.1990  -0.1341  -0.1328  -0.0960   0.1840   0.1903
     0.5125   0.5253   0.6138   0.6152   0.6540   0.6584   0.7965   0.8084
     0.9232   0.9256   1.0161   1.6102   1.6287   1.6296   1.6634   1.6742
     1.7096   1.7323   1.7972   1.8060   2.0045   2.0079   2.2410   2.3165
     2.3282   2.3377   2.7087   2.7278   2.7904   2.7935   2.7986   2.8008
     2.9502   2.9506   2.9896   3.0924   3.1027   3.3245   3.3331   3.4595
     3.4857   3.4916   3.7559   3.7646   3.8687   3.8912   3.8921   3.9294
     3.9733   4.0752   4.0801   4.3146   4.3156   4.3966   4.4077   4.5205
     4.5301   4.5442   4.5652   4.6774   5.0004   5.3294   5.3616   5.4510
     5.4576   5.5148   5.6375   5.6435   5.6766   5.7015   5.7446   5.7533
     5.7650   5.8072   5.8080   5.8523   6.0266   6.0720   6.1007   6.1187
     6.1287   6.1434   6.1516   6.1527   6.1598   6.1623   6.1953   6.2321

     the Fermi energy is     0.8751 ev

!    total energy              =   -7425.29345435 Ry
     Harris-Foulkes estimate   =   -7425.29345436 Ry
     estimated scf accuracy    <          6.6E-09 Ry

     The total energy is the sum of the following terms:

     one-electron contribution =  -48751.87536178 Ry
     hartree contribution      =   24926.95045251 Ry
     xc contribution           =   -3604.21904466 Ry
     ewald contribution        =   20003.85318275 Ry
     smearing contrib. (-TS)   =      -0.00268318 Ry

     convergence has been achieved in  25 iterations

     negative rho (up, down):  1.974E+00 0.000E+00

     Forces acting on atoms (Ry/au):

     atom    1 type  3   force =     0.00085441    0.00652579    0.00339467
     atom    2 type  2   force =    -0.00747267   -0.00557569    0.00156198
     atom    3 type  2   force =     0.00393433   -0.00240724    0.00093795
     atom    4 type  1   force =    -0.00025171   -0.00027059    0.00205343
     atom    5 type  1   force =    -0.00000149   -0.00024925    0.00200437
     atom    6 type  1   force =    -0.00005744   -0.00025799    0.00195475
     atom    7 type  1   force =     0.00001599   -0.00000171    0.00176433
     atom    8 type  1   force =     0.00000844   -0.00005812    0.00170549
     atom    9 type  1   force =     0.00026931    0.00006542    0.00188052
     atom   10 type  1   force =    -0.00028037    0.00000620    0.00211720
     atom   11 type  1   force =    -0.00006193    0.00000123    0.00165159
     atom   12 type  1   force =     0.00004633    0.00002151    0.00165015
     atom   13 type  1   force =    -0.00000885   -0.00004071    0.00173590
     atom   14 type  1   force =     0.00002872    0.00003482    0.00160437
     atom   15 type  1   force =     0.00027499   -0.00009676    0.00193311
     atom   16 type  1   force =    -0.00027681    0.00005918    0.00194468
     atom   17 type  1   force =     0.00003580    0.00000681    0.00166283
     atom   18 type  1   force =    -0.00008185   -0.00000505    0.00168924
     atom   19 type  1   force =     0.00000778    0.00028322    0.00184572
     atom   20 type  1   force =    -0.00000275    0.00027667    0.00210490
     atom   21 type  1   force =     0.00034862    0.00025595    0.00213868
     atom   22 type  1   force =    -0.00017144   -0.00050878   -0.00108590
     atom   23 type  1   force =     0.00000071   -0.00016025   -0.00104891
     atom   24 type  1   force =     0.00046078   -0.00043522   -0.00108209
     atom   25 type  1   force =    -0.00055319   -0.00013649   -0.00121375
     atom   26 type  1   force =     0.00002297    0.00006253   -0.00112477
     atom   27 type  1   force =     0.00009027    0.00006346   -0.00119454
     atom   28 type  1   force =     0.00030871    0.00001283   -0.00104701
     atom   29 type  1   force =     0.00005532    0.00010529   -0.00139198
     atom   30 type  1   force =     0.00025120   -0.00001320   -0.00109003
     atom   31 type  1   force =    -0.00047779    0.00010957   -0.00121601
     atom   32 type  1   force =     0.00010191    0.00003137   -0.00122977
     atom   33 type  1   force =    -0.00002413   -0.00000107   -0.00124827
     atom   34 type  1   force =    -0.00003696    0.00004726   -0.00112377
     atom   35 type  1   force =    -0.00002382   -0.00023177   -0.00110061
     atom   36 type  1   force =     0.00037740    0.00002496   -0.00118622
     atom   37 type  1   force =    -0.00040322    0.00046496   -0.00101774
     atom   38 type  1   force =    -0.00009647    0.00026149   -0.00121047
     atom   39 type  1   force =     0.00016086    0.00033599   -0.00122004
     atom   40 type  1   force =    -0.00030737   -0.00035692   -0.00005252
     atom   41 type  1   force =    -0.00004985   -0.00069312   -0.00032765
     atom   42 type  1   force =    -0.00000264   -0.00055887   -0.00016758
     atom   43 type  1   force =    -0.00031834    0.00000229    0.00004034
     atom   44 type  1   force =     0.00052595    0.00023898    0.00042076
     atom   45 type  1   force =    -0.00016019    0.00019327    0.00024942
     atom   46 type  1   force =    -0.00033619   -0.00002961    0.00005486
     atom   47 type  1   force =     0.00006677    0.00009838    0.00000815
     atom   48 type  1   force =    -0.00005315    0.00002251    0.00006593
     atom   49 type  1   force =    -0.00035728   -0.00007944   -0.00028831
     atom   50 type  1   force =     0.00019280    0.00039214    0.00014613
     atom   51 type  1   force =     0.00050433    0.00005405   -0.00017971
     atom   52 type  1   force =    -0.00017508   -0.00002497    0.00000691
     atom   53 type  1   force =     0.00014833   -0.00029526    0.00051433
     atom   54 type  1   force =     0.00037989   -0.00009001    0.00001308
     atom   55 type  1   force =    -0.00001042    0.00043584   -0.00001559
     atom   56 type  1   force =    -0.00004127    0.00040496    0.00004549
     atom   57 type  1   force =     0.00033195    0.00040874    0.00002697
     atom   58 type  1   force =     0.00003104   -0.00018882   -0.00067637
     atom   59 type  1   force =     0.00004440    0.00000843   -0.00030635
     atom   60 type  1   force =     0.00025696   -0.00025004   -0.00079453
     atom   61 type  1   force =    -0.00021762   -0.00002387   -0.00067214
     atom   62 type  1   force =    -0.00011100   -0.00007231    0.00016618
     atom   63 type  1   force =     0.00057357   -0.00080121   -0.00091291
     atom   64 type  1   force =     0.00017449   -0.00003869   -0.00027377
     atom   65 type  1   force =     0.00136967    0.00066122   -0.00768912
     atom   66 type  1   force =     0.00018257   -0.00005351   -0.00073638
     atom   67 type  1   force =    -0.00022693    0.00000326   -0.00071936
     atom   68 type  1   force =    -0.00056135    0.00029715   -0.00085331
     atom   69 type  1   force =     0.00074550    0.00073728   -0.00136944
     atom   70 type  1   force =    -0.00006076    0.00005237   -0.00055878
     atom   71 type  1   force =     0.00002759    0.00001532   -0.00070160
     atom   72 type  1   force =     0.00035513    0.00011888   -0.00065979
     atom   73 type  1   force =    -0.00031024    0.00020946   -0.00093125
     atom   74 type  1   force =    -0.00001666    0.00030301   -0.00068324
     atom   75 type  1   force =     0.00003343    0.00029252   -0.00069287

     Total force =     0.018289     Total SCF correction =     0.000443

     BFGS Geometry Optimization

     number of scf cycles    =   1
     number of bfgs steps    =   0

     energy   new            =   -7425.2934543520 Ry

     new trust radius        =       0.0094535153 bohr
     new conv_thr            =       0.0000000100 Ry


ATOMIC_POSITIONS (angstrom)
O        6.381056947   4.257189192   9.375841069
H        5.775681537   3.670033461   8.874828102
H        6.965434569   3.641535703   9.859651140
Au      -0.000133201  -0.000143192   0.001086628
Au       4.253737210  -0.000131898   0.001060667
Au       8.507445602  -0.000136520   0.001034411
Au       2.126877461   2.126868093   0.000933645
Au       6.380611464   2.126838245   0.000902508
Au      10.634486514   2.126903621   0.000995131
Au      -0.000148367   4.253741278   0.001120374
Au       4.253705229   4.253738652   0.000873985
Au       8.507500514   4.253749383   0.000873222
Au       2.126864316   6.380585456   0.000918597
Au       6.380622199   6.380625426   0.000848998
Au      10.634489516   6.380555798   0.001022957
Au      -0.000146481   8.507507316   0.001029082
Au       4.253756944   8.507479603   0.000879933
Au       8.507432686   8.507473326   0.000893905
Au       2.126873115  10.634493874   0.000976713
Au       6.380605543  10.634490407   0.001113866
Au      10.634528484  10.634479442   0.001131743
Au       2.126778275  -0.000269236   2.126294364
Au       6.380607375  -0.000084802   2.126313941
Au      10.634587835  -0.000230308   2.126296383
Au      -0.000292736   2.126796775   2.126226711
Au       4.253750155   2.126902091   2.126273797
Au       8.507523767   2.126902580   2.126236875
Au       2.127032362   4.253744788   2.126314945
Au       6.380636273   4.253793716   2.126132398
Au      10.634476929   4.253731015   2.126292182
Au      -0.000252837   6.380664981   2.126225515
Au       4.253791930   6.380623602   2.126218232
Au       8.507463231   6.380606431   2.126208444
Au       2.126849442   8.507501008   2.126274328
Au       6.380594396   8.507353350   2.126286581
Au      10.634543713   8.507489206   2.126241281
Au      -0.000213375  10.634590046   2.126330437
Au       4.253686952  10.634482373   2.126228448
Au       8.507561121  10.634521798   2.126223384
Au      -0.000394551  -0.000420771   4.257872466
Au       4.253708226  -0.000597235   4.257720033
Au       8.507490756  -0.000529236   4.257816086
Au      -0.000398907   4.253735819   4.257914763
Au       4.254013191   4.253861334   4.258110581
Au       8.507404455   4.253837986   4.258031961
Au      -0.000411402   8.507476481   4.257933797
Au       4.253771049   8.507541285   4.257904285
Au       8.507462845   8.507502880   4.257945215
Au       2.126665218   2.126812245   4.257754373
Au       6.380702044   2.127062571   4.257976378
Au      10.634853479   2.126880972   4.257808614
Au       2.126762415   6.380586801   4.257902705
Au       6.380679795   6.380445055   4.258162816
Au      10.634785128   6.380554160   4.257902336
Au       2.126846853  10.634817238   4.257895462
Au       6.380579951  10.634798392   4.257919487
Au      10.634760731  10.634801365   4.257915080
Au       2.126879542  -0.000241536   6.373571859
Au       6.380627191  -0.000137956   6.373772264
Au      10.634630852  -0.000274561   6.373399690
Au      -0.000256774   2.126850486   6.373574098
Au       4.253674593   2.126827303   6.374132468
Au       8.507782969   2.126441528   6.373564330
Au       2.126957903   4.253712858   6.373899653
Au       6.381329610   4.254085792   6.369975781
Au      10.634588955   4.253706198   6.373549508
Au      -0.000262502   6.380605420   6.373553708
Au       4.253438839   6.380762055   6.373593137
Au       8.507872947   6.380996029   6.373322609
Au       2.126833361   8.507507160   6.373751728
Au       6.380620474   8.507486553   6.373676014
Au      10.634679719   8.507543309   6.373589438
Au      -0.000306416  10.634605720   6.373327340
Au       4.253725696  10.634652690   6.373577629
Au       8.507498092  10.634646583   6.373571932



     Writing output data file 6510999.save
     Check: negative starting charge=   -1.945168
     NEW-OLD atomic charge density approx. for the potential
     Check: negative starting charge=   -1.944984

     negative rho (up, down):  1.973E+00 0.000E+00

     total cpu time spent up to now is     6602.2 secs

     per-process dynamical memory:   539.0 Mb

     Self-consistent Calculation

     iteration #  1     ecut=    50.00 Ry     beta=0.70
     Davidson diagonalization with overlap
     ethr =  1.00E-06,  avg # of iterations =  3.0

     Threshold (ethr) on eigenvalues was too large:
     Diagonalizing with lowered threshold

     Davidson diagonalization with overlap
     ethr =  1.02E-08,  avg # of iterations =  2.0

     negative rho (up, down):  1.973E+00 0.000E+00

     total cpu time spent up to now is     7134.9 secs

     total energy              =   -7425.29363598 Ry
     Harris-Foulkes estimate   =   -7425.29369588 Ry
     estimated scf accuracy    <       0.00008622 Ry

     iteration #  2     ecut=    50.00 Ry     beta=0.70
     Davidson diagonalization with overlap
     ethr =  1.08E-08,  avg # of iterations =  4.0

     negative rho (up, down):  1.973E+00 0.000E+00

     total cpu time spent up to now is     7401.9 secs

     total energy              =   -7425.29359399 Ry
     Harris-Foulkes estimate   =   -7425.29372480 Ry
     estimated scf accuracy    <       0.00037597 Ry

     iteration #  3     ecut=    50.00 Ry     beta=0.70
     Davidson diagonalization with overlap
     ethr =  1.08E-08,  avg # of iterations =  4.0

     negative rho (up, down):  1.973E+00 0.000E+00

     total cpu time spent up to now is     7668.9 secs

     total energy              =   -7425.29360368 Ry
     Harris-Foulkes estimate   =   -7425.29374067 Ry
     estimated scf accuracy    <       0.00104266 Ry

     iteration #  4     ecut=    50.00 Ry     beta=0.70
     Davidson diagonalization with overlap
     ethr =  1.08E-08,  avg # of iterations =  3.0

     negative rho (up, down):  1.973E+00 0.000E+00

     total cpu time spent up to now is     7901.4 secs

     total energy              =   -7425.29366151 Ry
     Harris-Foulkes estimate   =   -7425.29368639 Ry
     estimated scf accuracy    <       0.00014863 Ry

     iteration #  5     ecut=    50.00 Ry     beta=0.70
     Davidson diagonalization with overlap
     ethr =  1.08E-08,  avg # of iterations =  2.0

     negative rho (up, down):  1.973E+00 0.000E+00

     total cpu time spent up to now is     8103.1 secs

     total energy              =   -7425.29367395 Ry
     Harris-Foulkes estimate   =   -7425.29367598 Ry
     estimated scf accuracy    <       0.00000720 Ry

     iteration #  6     ecut=    50.00 Ry     beta=0.70
     Davidson diagonalization with overlap
     ethr =  9.01E-10,  avg # of iterations =  2.5

     negative rho (up, down):  1.973E+00 0.000E+00

     total cpu time spent up to now is     8349.1 secs

     total energy              =   -7425.29367379 Ry
     Harris-Foulkes estimate   =   -7425.29367695 Ry
     estimated scf accuracy    <       0.00001553 Ry

     iteration #  7     ecut=    50.00 Ry     beta=0.70
     Davidson diagonalization with overlap
     ethr =  9.01E-10,  avg # of iterations =  2.0

     negative rho (up, down):  1.973E+00 0.000E+00

     total cpu time spent up to now is     8552.8 secs

     total energy              =   -7425.29367518 Ry
     Harris-Foulkes estimate   =   -7425.29367567 Ry
     estimated scf accuracy    <       0.00000196 Ry

     iteration #  8     ecut=    50.00 Ry     beta=0.70
     Davidson diagonalization with overlap
     ethr =  2.45E-10,  avg # of iterations =  2.0

     negative rho (up, down):  1.973E+00 0.000E+00

     total cpu time spent up to now is     8759.2 secs

     total energy              =   -7425.29367542 Ry
     Harris-Foulkes estimate   =   -7425.29367551 Ry
     estimated scf accuracy    <       0.00000026 Ry

     iteration #  9     ecut=    50.00 Ry     beta=0.70
     Davidson diagonalization with overlap
     ethr =  3.26E-11,  avg # of iterations =  2.0

     negative rho (up, down):  1.973E+00 0.000E+00

     total cpu time spent up to now is     8975.3 secs

     total energy              =   -7425.29367547 Ry
     Harris-Foulkes estimate   =   -7425.29367549 Ry
     estimated scf accuracy    <       0.00000014 Ry

     iteration # 10     ecut=    50.00 Ry     beta=0.70
     Davidson diagonalization with overlap
     ethr =  1.69E-11,  avg # of iterations =  2.0

     negative rho (up, down):  1.973E+00 0.000E+00

     total cpu time spent up to now is     9176.0 secs

     total energy              =   -7425.29367548 Ry
     Harris-Foulkes estimate   =   -7425.29367549 Ry
     estimated scf accuracy    <       0.00000003 Ry

     iteration # 11     ecut=    50.00 Ry     beta=0.70
     Davidson diagonalization with overlap
     ethr =  3.99E-12,  avg # of iterations =  2.0

     negative rho (up, down):  1.973E+00 0.000E+00

     total cpu time spent up to now is     9393.1 secs

     total energy              =   -7425.29367548 Ry
     Harris-Foulkes estimate   =   -7425.29367549 Ry
     estimated scf accuracy    <       0.00000003 Ry

     iteration # 12     ecut=    50.00 Ry     beta=0.70
     Davidson diagonalization with overlap
     ethr =  3.81E-12,  avg # of iterations =  2.0

     negative rho (up, down):  1.973E+00 0.000E+00

     total cpu time spent up to now is     9595.7 secs

     End of self-consistent calculation

          k = 0.2500 0.2500 0.0833 (167653 PWs)   bands (ev):

   -19.6263  -7.4547  -6.8144  -6.2864  -6.2856  -5.8565  -5.4496  -5.3545
    -5.3540  -5.1583  -5.1578  -5.0429  -5.0416  -4.9616  -4.9399  -4.8660
    -4.7808  -4.7773  -4.7390  -4.7383  -4.5779  -4.5603  -4.5594  -4.5591
    -4.5526  -4.4968  -4.4965  -4.4850  -4.4846  -4.4474  -4.4368  -4.4358
    -4.3930  -4.3927  -4.3595  -4.3582  -4.3075  -4.3061  -4.2967  -4.2940
    -4.2888  -4.2757  -4.2755  -4.2354  -4.2162  -4.2160  -4.2093  -4.2090
    -4.1788  -4.1296  -4.1120  -4.1118  -4.1114  -4.1088  -4.1001  -4.0951
    -4.0950  -4.0939  -4.0320  -4.0298  -3.9810  -3.9798  -3.9688  -3.9426
    -3.9416  -3.9233  -3.9180  -3.9175  -3.9156  -3.9118  -3.8618  -3.8612
    -3.8489  -3.8482  -3.7655  -3.7439  -3.7425  -3.7373  -3.7145  -3.6990
    -3.6932  -3.6774  -3.6475  -3.6467  -3.6173  -3.6168  -3.5970  -3.5966
    -3.5836  -3.5825  -3.5271  -3.5268  -3.5096  -3.4946  -3.4835  -3.4803
    -3.4798  -3.4795  -3.4530  -3.4528  -3.4154  -3.4149  -3.3955  -3.3929
    -3.3622  -3.3598  -3.3413  -3.3156  -3.3147  -3.2765  -3.2758  -3.2401
    -3.2321  -3.2316  -3.2193  -3.2187  -3.2138  -3.2132  -3.1768  -3.1656
    -3.1254  -3.1248  -3.1153  -3.1071  -3.1062  -3.1050  -3.0807  -3.0804
    -3.0599  -3.0587  -3.0578  -3.0310  -3.0307  -3.0235  -3.0214  -3.0204
    -2.9839  -2.9812  -2.9458  -2.9445  -2.9436  -2.9420  -2.9411  -2.8611
    -2.8513  -2.8477  -2.8471  -2.8465  -2.8460  -2.8420  -2.8401  -2.8394
    -2.8392  -2.8300  -2.8221  -2.8061  -2.8045  -2.8028  -2.8019  -2.7873
    -2.7833  -2.7450  -2.7440  -2.7435  -2.7399  -2.7389  -2.7207  -2.7204
    -2.7126  -2.7121  -2.7092  -2.6516  -2.6512  -2.6459  -2.6453  -2.6425
    -2.6404  -2.6126  -2.5538  -2.5521  -2.5510  -2.5488  -2.5378  -2.5367
    -2.5338  -2.5206  -2.5190  -2.4858  -2.4828  -2.4758  -2.4747  -2.4730
    -2.4727  -2.4347  -2.4341  -2.4241  -2.4230  -2.4218  -2.4214  -2.3832
    -2.3686  -2.3594  -2.3056  -2.3046  -2.2870  -2.2861  -2.2826  -2.2805
    -2.2321  -2.2303  -2.2082  -2.1924  -2.1789  -2.1764  -2.1753  -2.1558
    -2.1543  -2.1449  -2.1379  -2.0928  -2.0869  -2.0759  -2.0715  -2.0708
    -2.0655  -2.0611  -2.0580  -2.0461  -2.0446  -2.0413  -2.0374  -2.0350
    -2.0338  -2.0237  -2.0225  -2.0093  -2.0043  -2.0026  -1.9975  -1.9948
    -1.9938  -1.9847  -1.9699  -1.9675  -1.9571  -1.9566  -1.9510  -1.9217
    -1.8942  -1.8779  -1.8603  -1.8443  -1.8262  -1.8254  -1.8141  -1.8103
    -1.7912  -1.7884  -1.7781  -1.7768  -1.7746  -1.7734  -1.7714  -1.7600
    -1.7386  -1.7382  -1.7276  -1.6928  -1.6859  -1.6537  -1.6486  -1.6049
    -1.6023  -1.5896  -1.5709  -1.5622  -1.5614  -1.5449  -1.5423  -1.5276
    -1.5255  -1.5221  -1.5216  -1.5201  -1.5198  -1.5173  -1.5109  -1.4973
    -1.4947  -1.4745  -1.4686  -1.4506  -1.4497  -1.4255  -1.4235  -1.4207
    -1.4196  -1.4158  -1.4077  -1.3925  -1.3875  -1.3768  -1.3677  -1.3549
    -1.3543  -1.3393  -1.3306  -1.3093  -1.3083  -1.3018  -1.2950  -1.2651
    -1.2634  -1.2563  -1.2537  -1.2484  -1.2412  -1.2260  -1.2248  -1.2146
    -1.2071  -1.2053  -1.1955  -1.1939  -1.1931  -1.1842  -1.1791  -1.1679
    -1.1670  -1.1599  -1.1597  -1.1476  -1.1433  -1.1375  -1.1326  -1.0973
    -1.0943  -1.0896  -1.0876  -1.0874  -1.0805  -1.0488  -1.0315  -1.0307
    -1.0302  -1.0280  -1.0267  -1.0204  -1.0184  -1.0055  -0.9986  -0.9689
    -0.9635  -0.9617  -0.9590  -0.9385  -0.9380  -0.9288  -0.8991  -0.8912
    -0.8642  -0.8633  -0.8360  -0.8356  -0.8322  -0.8320  -0.8305  -0.8264
    -0.8214  -0.8188  -0.8167  -0.8161  -0.7849  -0.7847  -0.7673  -0.7631
    -0.7616  -0.7605  -0.7593  -0.7437  -0.7405  -0.4664  -0.4550  -0.3992
    -0.3844  -0.3586  -0.2004  -0.1342  -0.1333  -0.0946   0.1851   0.1892
     0.5157   0.5248   0.6137   0.6145   0.6549   0.6559   0.7993   0.8077
     0.9232   0.9255   1.0166   1.6113   1.6282   1.6296   1.6661   1.6732
     1.7154   1.7266   1.7999   1.8058   2.0053   2.0064   2.2429   2.3211
     2.3270   2.3377   2.7157   2.7254   2.7908   2.7915   2.7992   2.7998
     2.9486   2.9512   2.9919   3.0937   3.0973   3.3263   3.3282   3.4596
     3.4891   3.4923   3.7588   3.7623   3.8732   3.8909   3.8919   3.9338
     3.9679   4.0760   4.0780   4.3127   4.3159   4.4017   4.4043   4.5281
     4.5291   4.5500   4.5634   4.6762   4.9981   5.3419   5.3593   5.4504
     5.4563   5.5186   5.6363   5.6394   5.6524   5.7026   5.7303   5.7542
     5.7573   5.8024   5.8077   5.8502   6.0129   6.0729   6.1102   6.1183
     6.1319   6.1366   6.1488   6.1499   6.1603   6.1613   6.1798   6.2179

          k = 0.2500 0.2500-0.2500 (167588 PWs)   bands (ev):

   -19.6263  -7.4547  -6.8144  -6.2864  -6.2856  -5.8565  -5.4496  -5.3545
    -5.3540  -5.1583  -5.1578  -5.0429  -5.0416  -4.9616  -4.9399  -4.8660
    -4.7808  -4.7773  -4.7390  -4.7383  -4.5779  -4.5603  -4.5594  -4.5591
    -4.5526  -4.4968  -4.4965  -4.4850  -4.4846  -4.4474  -4.4368  -4.4358
    -4.3930  -4.3927  -4.3595  -4.3582  -4.3075  -4.3061  -4.2967  -4.2940
    -4.2888  -4.2757  -4.2755  -4.2355  -4.2162  -4.2160  -4.2093  -4.2090
    -4.1788  -4.1296  -4.1120  -4.1118  -4.1114  -4.1088  -4.1001  -4.0951
    -4.0950  -4.0939  -4.0320  -4.0298  -3.9810  -3.9798  -3.9688  -3.9426
    -3.9416  -3.9233  -3.9180  -3.9175  -3.9155  -3.9118  -3.8618  -3.8612
    -3.8489  -3.8482  -3.7655  -3.7439  -3.7425  -3.7373  -3.7145  -3.6990
    -3.6932  -3.6774  -3.6475  -3.6467  -3.6173  -3.6168  -3.5970  -3.5966
    -3.5836  -3.5825  -3.5271  -3.5268  -3.5096  -3.4946  -3.4835  -3.4803
    -3.4798  -3.4795  -3.4530  -3.4528  -3.4153  -3.4149  -3.3954  -3.3929
    -3.3622  -3.3597  -3.3413  -3.3156  -3.3147  -3.2765  -3.2758  -3.2401
    -3.2321  -3.2316  -3.2193  -3.2187  -3.2138  -3.2132  -3.1768  -3.1656
    -3.1254  -3.1248  -3.1153  -3.1071  -3.1062  -3.1050  -3.0807  -3.0804
    -3.0599  -3.0587  -3.0578  -3.0310  -3.0307  -3.0234  -3.0214  -3.0204
    -2.9839  -2.9812  -2.9458  -2.9446  -2.9436  -2.9420  -2.9411  -2.8611
    -2.8513  -2.8477  -2.8471  -2.8464  -2.8460  -2.8420  -2.8401  -2.8394
    -2.8392  -2.8300  -2.8221  -2.8061  -2.8045  -2.8028  -2.8019  -2.7873
    -2.7833  -2.7450  -2.7440  -2.7435  -2.7399  -2.7389  -2.7207  -2.7204
    -2.7126  -2.7121  -2.7092  -2.6516  -2.6512  -2.6459  -2.6453  -2.6425
    -2.6404  -2.6126  -2.5538  -2.5521  -2.5510  -2.5488  -2.5378  -2.5367
    -2.5338  -2.5206  -2.5190  -2.4858  -2.4828  -2.4758  -2.4747  -2.4730
    -2.4727  -2.4347  -2.4341  -2.4241  -2.4230  -2.4218  -2.4214  -2.3832
    -2.3686  -2.3594  -2.3056  -2.3046  -2.2870  -2.2861  -2.2826  -2.2805
    -2.2321  -2.2303  -2.2082  -2.1924  -2.1789  -2.1764  -2.1753  -2.1558
    -2.1543  -2.1449  -2.1380  -2.0928  -2.0869  -2.0759  -2.0715  -2.0708
    -2.0655  -2.0611  -2.0580  -2.0461  -2.0446  -2.0413  -2.0374  -2.0350
    -2.0338  -2.0237  -2.0225  -2.0093  -2.0043  -2.0026  -1.9975  -1.9948
    -1.9938  -1.9847  -1.9699  -1.9675  -1.9571  -1.9566  -1.9510  -1.9217
    -1.8942  -1.8779  -1.8603  -1.8443  -1.8262  -1.8254  -1.8141  -1.8103
    -1.7912  -1.7884  -1.7781  -1.7768  -1.7746  -1.7733  -1.7714  -1.7600
    -1.7386  -1.7382  -1.7276  -1.6928  -1.6859  -1.6537  -1.6486  -1.6049
    -1.6023  -1.5896  -1.5709  -1.5623  -1.5614  -1.5450  -1.5423  -1.5276
    -1.5255  -1.5221  -1.5216  -1.5201  -1.5198  -1.5173  -1.5109  -1.4973
    -1.4947  -1.4745  -1.4686  -1.4506  -1.4497  -1.4255  -1.4235  -1.4207
    -1.4196  -1.4157  -1.4077  -1.3925  -1.3875  -1.3768  -1.3677  -1.3549
    -1.3543  -1.3393  -1.3306  -1.3093  -1.3083  -1.3018  -1.2950  -1.2651
    -1.2634  -1.2563  -1.2537  -1.2484  -1.2412  -1.2260  -1.2248  -1.2146
    -1.2071  -1.2053  -1.1955  -1.1939  -1.1931  -1.1842  -1.1791  -1.1679
    -1.1670  -1.1599  -1.1597  -1.1476  -1.1433  -1.1375  -1.1326  -1.0973
    -1.0944  -1.0896  -1.0876  -1.0874  -1.0805  -1.0488  -1.0315  -1.0307
    -1.0302  -1.0280  -1.0266  -1.0204  -1.0184  -1.0055  -0.9986  -0.9689
    -0.9635  -0.9617  -0.9590  -0.9385  -0.9380  -0.9288  -0.8992  -0.8912
    -0.8642  -0.8633  -0.8360  -0.8356  -0.8322  -0.8320  -0.8305  -0.8264
    -0.8214  -0.8188  -0.8167  -0.8161  -0.7849  -0.7847  -0.7673  -0.7631
    -0.7616  -0.7605  -0.7593  -0.7437  -0.7405  -0.4664  -0.4550  -0.3992
    -0.3844  -0.3586  -0.2004  -0.1342  -0.1333  -0.0946   0.1851   0.1892
     0.5157   0.5248   0.6137   0.6145   0.6549   0.6559   0.7993   0.8077
     0.9232   0.9255   1.0166   1.6113   1.6283   1.6296   1.6661   1.6732
     1.7154   1.7266   1.7999   1.8058   2.0053   2.0064   2.2429   2.3211
     2.3269   2.3377   2.7157   2.7254   2.7908   2.7915   2.7992   2.7998
     2.9486   2.9511   2.9919   3.0937   3.0973   3.3263   3.3282   3.4596
     3.4891   3.4923   3.7588   3.7623   3.8732   3.8909   3.8919   3.9338
     3.9680   4.0760   4.0780   4.3127   4.3159   4.4017   4.4043   4.5281
     4.5291   4.5500   4.5634   4.6763   4.9935   5.3404   5.3553   5.4479
     5.4557   5.5079   5.6380   5.6400   5.6790   5.7111   5.7478   5.7541
     5.7584   5.8025   5.8077   5.8499   6.0305   6.0774   6.0937   6.1191
     6.1333   6.1456   6.1503   6.1516   6.1601   6.1613   6.2031   6.2181

          k =-0.2500-0.2500 0.0833 (167653 PWs)   bands (ev):

   -19.6263  -7.4547  -6.8144  -6.2864  -6.2856  -5.8565  -5.4496  -5.3545
    -5.3540  -5.1583  -5.1578  -5.0429  -5.0416  -4.9616  -4.9399  -4.8660
    -4.7808  -4.7773  -4.7390  -4.7383  -4.5779  -4.5603  -4.5594  -4.5591
    -4.5526  -4.4968  -4.4965  -4.4850  -4.4846  -4.4474  -4.4368  -4.4358
    -4.3930  -4.3927  -4.3595  -4.3582  -4.3075  -4.3061  -4.2967  -4.2940
    -4.2888  -4.2757  -4.2755  -4.2354  -4.2162  -4.2160  -4.2093  -4.2090
    -4.1788  -4.1296  -4.1120  -4.1118  -4.1114  -4.1088  -4.1001  -4.0951
    -4.0950  -4.0939  -4.0320  -4.0298  -3.9810  -3.9798  -3.9688  -3.9426
    -3.9416  -3.9233  -3.9180  -3.9175  -3.9156  -3.9118  -3.8618  -3.8612
    -3.8489  -3.8482  -3.7655  -3.7439  -3.7425  -3.7373  -3.7145  -3.6990
    -3.6932  -3.6774  -3.6475  -3.6467  -3.6173  -3.6168  -3.5970  -3.5966
    -3.5836  -3.5825  -3.5271  -3.5268  -3.5096  -3.4946  -3.4835  -3.4803
    -3.4798  -3.4795  -3.4530  -3.4528  -3.4154  -3.4149  -3.3955  -3.3929
    -3.3622  -3.3598  -3.3413  -3.3156  -3.3147  -3.2765  -3.2758  -3.2401
    -3.2321  -3.2316  -3.2193  -3.2187  -3.2138  -3.2132  -3.1768  -3.1656
    -3.1254  -3.1248  -3.1153  -3.1071  -3.1062  -3.1050  -3.0807  -3.0804
    -3.0599  -3.0587  -3.0578  -3.0310  -3.0307  -3.0235  -3.0214  -3.0204
    -2.9839  -2.9812  -2.9458  -2.9445  -2.9436  -2.9420  -2.9411  -2.8611
    -2.8513  -2.8477  -2.8471  -2.8465  -2.8460  -2.8420  -2.8401  -2.8394
    -2.8392  -2.8300  -2.8221  -2.8061  -2.8045  -2.8028  -2.8019  -2.7873
    -2.7833  -2.7450  -2.7440  -2.7435  -2.7399  -2.7389  -2.7207  -2.7204
    -2.7126  -2.7121  -2.7092  -2.6516  -2.6512  -2.6459  -2.6453  -2.6425
    -2.6404  -2.6126  -2.5538  -2.5521  -2.5510  -2.5488  -2.5378  -2.5367
    -2.5338  -2.5206  -2.5190  -2.4858  -2.4828  -2.4758  -2.4747  -2.4730
    -2.4727  -2.4347  -2.4341  -2.4241  -2.4230  -2.4218  -2.4214  -2.3832
    -2.3686  -2.3594  -2.3056  -2.3046  -2.2870  -2.2861  -2.2826  -2.2805
    -2.2321  -2.2303  -2.2082  -2.1924  -2.1789  -2.1764  -2.1753  -2.1559
    -2.1543  -2.1449  -2.1379  -2.0928  -2.0869  -2.0759  -2.0715  -2.0708
    -2.0655  -2.0611  -2.0580  -2.0461  -2.0446  -2.0413  -2.0374  -2.0350
    -2.0338  -2.0237  -2.0225  -2.0093  -2.0043  -2.0026  -1.9975  -1.9948
    -1.9938  -1.9847  -1.9699  -1.9675  -1.9571  -1.9566  -1.9510  -1.9217
    -1.8942  -1.8779  -1.8603  -1.8443  -1.8262  -1.8254  -1.8141  -1.8103
    -1.7912  -1.7884  -1.7781  -1.7768  -1.7746  -1.7734  -1.7714  -1.7600
    -1.7386  -1.7382  -1.7276  -1.6928  -1.6859  -1.6537  -1.6486  -1.6049
    -1.6023  -1.5896  -1.5709  -1.5622  -1.5614  -1.5449  -1.5423  -1.5276
    -1.5255  -1.5221  -1.5216  -1.5201  -1.5198  -1.5173  -1.5109  -1.4973
    -1.4947  -1.4745  -1.4686  -1.4506  -1.4497  -1.4255  -1.4235  -1.4207
    -1.4196  -1.4158  -1.4077  -1.3925  -1.3875  -1.3768  -1.3677  -1.3549
    -1.3543  -1.3393  -1.3306  -1.3093  -1.3083  -1.3018  -1.2950  -1.2651
[...]
    -2.3294  -2.3145  -2.2649  -2.2627  -2.2553  -2.2387  -2.2365  -2.2349
    -2.1984  -2.1789  -2.1738  -2.1669  -2.1377  -2.1361  -2.1251  -2.1233
    -2.1131  -2.1108  -2.1036  -2.0567  -2.0332  -2.0303  -2.0266  -2.0252
    -2.0168  -2.0154  -2.0138  -1.9999  -1.9945  -1.9919  -1.9883  -1.9866
    -1.9807  -1.9753  -1.9709  -1.9697  -1.9509  -1.9485  -1.9473  -1.9458
    -1.9445  -1.9420  -1.9209  -1.9191  -1.9121  -1.9110  -1.9058  -1.8898
    -1.8470  -1.8165  -1.8098  -1.8020  -1.7721  -1.7697  -1.7565  -1.7544
    -1.7383  -1.7363  -1.7321  -1.7300  -1.7214  -1.7213  -1.7180  -1.7135
    -1.6945  -1.6862  -1.6795  -1.6417  -1.6365  -1.5986  -1.5959  -1.5490
    -1.5474  -1.5330  -1.5260  -1.5082  -1.5061  -1.4892  -1.4873  -1.4714
    -1.4708  -1.4695  -1.4691  -1.4679  -1.4652  -1.4638  -1.4588  -1.4450
    -1.4422  -1.4230  -1.4132  -1.3974  -1.3940  -1.3750  -1.3712  -1.3693
    -1.3681  -1.3651  -1.3543  -1.3382  -1.3337  -1.3203  -1.3159  -1.3010
    -1.3000  -1.2860  -1.2768  -1.2516  -1.2497  -1.2479  -1.2414  -1.2096
    -1.2053  -1.2013  -1.1980  -1.1930  -1.1825  -1.1669  -1.1656  -1.1585
    -1.1533  -1.1502  -1.1408  -1.1394  -1.1369  -1.1282  -1.1233  -1.1067
    -1.1044  -1.1040  -1.1011  -1.0931  -1.0895  -1.0837  -1.0760  -1.0405
    -1.0387  -1.0326  -1.0310  -1.0282  -1.0230  -0.9953  -0.9742  -0.9737
    -0.9733  -0.9718  -0.9714  -0.9612  -0.9579  -0.9506  -0.9406  -0.9140
    -0.9057  -0.9039  -0.8990  -0.8788  -0.8771  -0.8714  -0.8370  -0.8306
    -0.8084  -0.8068  -0.7779  -0.7772  -0.7740  -0.7739  -0.7732  -0.7729
    -0.7611  -0.7586  -0.7543  -0.7525  -0.7247  -0.7232  -0.7089  -0.7049
    -0.7016  -0.6997  -0.6987  -0.6810  -0.6759  -0.4097  -0.4067  -0.3403
    -0.3189  -0.3042  -0.1519  -0.0818  -0.0804  -0.0308   0.2466   0.2520
     0.5807   0.5968   0.6642   0.6661   0.7094   0.7137   0.8630   0.8798
     0.9734   0.9741   1.0854   1.6737   1.6792   1.6804   1.7169   1.7210
     1.7791   1.8012   1.8724   1.8851   2.0642   2.0673   2.3136   2.3853
     2.3863   2.4046   2.7871   2.8040   2.8459   2.8495   2.8509   2.8549
     2.9979   2.9982   3.0441   3.1646   3.1804   3.3907   3.3972   3.5127
     3.5597   3.5661   3.8319   3.8449   3.9357   3.9442   3.9458   3.9691
     4.0207   4.1284   4.1315   4.3685   4.3774   4.4430   4.4500   4.5875
     4.5947   4.6082   4.6342   4.6602   4.8889   5.3625   5.4048   5.4782
     5.5080   5.5346   5.6290   5.6837   5.7042   5.7171   5.7341   5.7995
     5.8081   5.8621   5.8643   5.9288   6.0194   6.0482   6.1174   6.1497
     6.1781   6.2010   6.2127   6.2165   6.2184   6.2226   6.2256   6.2370

          k =-0.2500 0.2500 0.2500 (167588 PWs)   bands (ev):

   -19.9367  -7.7334  -6.7819  -6.2537  -6.2525  -5.8229  -5.4132  -5.3211
    -5.3205  -5.1241  -5.1222  -5.0081  -5.0052  -4.9251  -4.9038  -4.8293
    -4.7439  -4.7405  -4.7025  -4.7020  -4.5365  -4.5236  -4.5223  -4.5200
    -4.5187  -4.4623  -4.4612  -4.4482  -4.4470  -4.4069  -4.4028  -4.3999
    -4.3569  -4.3564  -4.3218  -4.3213  -4.2665  -4.2648  -4.2550  -4.2521
    -4.2509  -4.2394  -4.2387  -4.1936  -4.1785  -4.1785  -4.1716  -4.1703
    -4.1438  -4.1089  -4.0873  -4.0727  -4.0714  -4.0699  -4.0654  -4.0599
    -4.0566  -4.0564  -4.0355  -3.9884  -3.9832  -3.9438  -3.9387  -3.9280
    -3.9014  -3.9008  -3.8814  -3.8800  -3.8777  -3.8749  -3.8684  -3.8235
    -3.8217  -3.8077  -3.8068  -3.7071  -3.7037  -3.7005  -3.6995  -3.6597
    -3.6455  -3.6410  -3.6106  -3.6088  -3.5787  -3.5765  -3.5575  -3.5571
    -3.5405  -3.5401  -3.4881  -3.4842  -3.4668  -3.4631  -3.4463  -3.4454
    -3.4431  -3.4396  -3.4146  -3.4137  -3.3756  -3.3747  -3.3558  -3.3550
    -3.3232  -3.3225  -3.2880  -3.2802  -3.2789  -3.2327  -3.2325  -3.1935
    -3.1866  -3.1839  -3.1815  -3.1768  -3.1745  -3.1676  -3.1327  -3.1292
    -3.0849  -3.0833  -3.0628  -3.0615  -3.0585  -3.0543  -3.0428  -3.0389
    -3.0165  -3.0155  -2.9978  -2.9868  -2.9864  -2.9788  -2.9781  -2.9777
    -2.9369  -2.9332  -2.9040  -2.9025  -2.9015  -2.9010  -2.8878  -2.8110
    -2.8079  -2.8048  -2.8039  -2.7959  -2.7952  -2.7928  -2.7920  -2.7909
    -2.7879  -2.7867  -2.7843  -2.7634  -2.7606  -2.7539  -2.7485  -2.7382
    -2.7375  -2.6993  -2.6981  -2.6906  -2.6879  -2.6855  -2.6774  -2.6768
    -2.6699  -2.6686  -2.6651  -2.6109  -2.6093  -2.6067  -2.6020  -2.5995
    -2.5960  -2.5605  -2.5093  -2.5043  -2.5028  -2.5013  -2.4978  -2.4927
    -2.4895  -2.4675  -2.4652  -2.4351  -2.4335  -2.4277  -2.4268  -2.4199
    -2.4187  -2.3875  -2.3843  -2.3791  -2.3783  -2.3704  -2.3682  -2.3493
    -2.3294  -2.3145  -2.2649  -2.2627  -2.2553  -2.2387  -2.2365  -2.2349
    -2.1984  -2.1789  -2.1738  -2.1669  -2.1377  -2.1361  -2.1251  -2.1233
    -2.1131  -2.1108  -2.1037  -2.0568  -2.0332  -2.0303  -2.0266  -2.0252
    -2.0168  -2.0154  -2.0138  -1.9999  -1.9945  -1.9919  -1.9883  -1.9866
    -1.9807  -1.9753  -1.9709  -1.9697  -1.9509  -1.9485  -1.9473  -1.9458
    -1.9445  -1.9420  -1.9209  -1.9191  -1.9121  -1.9110  -1.9058  -1.8898
    -1.8470  -1.8165  -1.8098  -1.8020  -1.7721  -1.7697  -1.7565  -1.7544
    -1.7383  -1.7363  -1.7320  -1.7300  -1.7214  -1.7213  -1.7180  -1.7134
    -1.6945  -1.6862  -1.6795  -1.6417  -1.6365  -1.5986  -1.5959  -1.5490
    -1.5474  -1.5330  -1.5260  -1.5082  -1.5062  -1.4892  -1.4874  -1.4714
    -1.4708  -1.4695  -1.4691  -1.4679  -1.4652  -1.4638  -1.4588  -1.4450
    -1.4422  -1.4230  -1.4132  -1.3974  -1.3940  -1.3750  -1.3712  -1.3693
    -1.3681  -1.3651  -1.3543  -1.3382  -1.3337  -1.3203  -1.3159  -1.3010
    -1.3000  -1.2860  -1.2768  -1.2516  -1.2497  -1.2479  -1.2414  -1.2096
    -1.2053  -1.2013  -1.1980  -1.1930  -1.1825  -1.1669  -1.1656  -1.1585
    -1.1533  -1.1502  -1.1408  -1.1394  -1.1368  -1.1282  -1.1233  -1.1067
    -1.1045  -1.1040  -1.1011  -1.0931  -1.0895  -1.0837  -1.0760  -1.0405
    -1.0387  -1.0326  -1.0310  -1.0282  -1.0230  -0.9953  -0.9742  -0.9737
    -0.9732  -0.9718  -0.9714  -0.9612  -0.9579  -0.9506  -0.9406  -0.9140
    -0.9057  -0.9039  -0.8990  -0.8788  -0.8771  -0.8714  -0.8370  -0.8306
    -0.8084  -0.8068  -0.7779  -0.7772  -0.7740  -0.7739  -0.7732  -0.7729
    -0.7611  -0.7587  -0.7543  -0.7525  -0.7247  -0.7232  -0.7089  -0.7049
    -0.7016  -0.6997  -0.6987  -0.6810  -0.6759  -0.4097  -0.4067  -0.3403
    -0.3189  -0.3042  -0.1519  -0.0818  -0.0804  -0.0308   0.2466   0.2520
     0.5807   0.5968   0.6642   0.6661   0.7094   0.7137   0.8630   0.8798
     0.9734   0.9741   1.0854   1.6737   1.6792   1.6804   1.7169   1.7210
     1.7791   1.8012   1.8724   1.8851   2.0642   2.0673   2.3136   2.3853
     2.3863   2.4046   2.7871   2.8040   2.8459   2.8495   2.8509   2.8549
     2.9979   2.9982   3.0441   3.1646   3.1804   3.3907   3.3972   3.5127
     3.5597   3.5661   3.8319   3.8449   3.9357   3.9442   3.9458   3.9692
     4.0208   4.1284   4.1315   4.3685   4.3774   4.4429   4.4500   4.5875
     4.5947   4.6082   4.6342   4.6599   4.8868   5.3617   5.3980   5.4649
     5.5069   5.5298   5.6400   5.7036   5.7159   5.7238   5.7541   5.7994
     5.8082   5.8622   5.8643   5.9287   6.0141   6.0611   6.0963   6.1838
     6.1875   6.2079   6.2156   6.2165   6.2196   6.2228   6.2265   6.2354

     the Fermi energy is     0.9341 ev

!    total energy              =   -7425.29925340 Ry
     Harris-Foulkes estimate   =   -7425.29925340 Ry
     estimated scf accuracy    <          6.8E-11 Ry

     The total energy is the sum of the following terms:

     one-electron contribution =  -48924.16596649 Ry
     hartree contribution      =   25014.47972132 Ry
     xc contribution           =   -3604.31526136 Ry
     ewald contribution        =   20088.70454781 Ry
     smearing contrib. (-TS)   =      -0.00229468 Ry

     convergence has been achieved in  17 iterations

     negative rho (up, down):  1.972E+00 0.000E+00

     Forces acting on atoms (Ry/au):

     atom    1 type  3   force =    -0.00008487   -0.00016890   -0.00048948
     atom    2 type  2   force =     0.00030922    0.00022685   -0.00036764
     atom    3 type  2   force =    -0.00022027    0.00009275   -0.00077528
     atom    4 type  1   force =     0.00003394   -0.00002031    0.00010940
     atom    5 type  1   force =     0.00006896    0.00005958    0.00013582
     atom    6 type  1   force =    -0.00004066    0.00006993    0.00032689
     atom    7 type  1   force =     0.00003604    0.00006293    0.00025416
     atom    8 type  1   force =     0.00011523    0.00009545    0.00026523
     atom    9 type  1   force =    -0.00002941    0.00008990    0.00029640
     atom   10 type  1   force =     0.00001308    0.00001795    0.00038184
     atom   11 type  1   force =     0.00009414   -0.00000920    0.00016520
     atom   12 type  1   force =    -0.00004394   -0.00000434    0.00033385
     atom   13 type  1   force =     0.00002787   -0.00003705    0.00023211
     atom   14 type  1   force =     0.00012473   -0.00004333    0.00023195
     atom   15 type  1   force =    -0.00003803   -0.00005510    0.00027110
     atom   16 type  1   force =     0.00002286    0.00010884    0.00016731
     atom   17 type  1   force =     0.00008183    0.00001274    0.00020435
     atom   18 type  1   force =    -0.00004682   -0.00002535    0.00037345
     atom   19 type  1   force =    -0.00003489    0.00000289    0.00012826
     atom   20 type  1   force =     0.00015104    0.00000554    0.00037669
     atom   21 type  1   force =     0.00009907   -0.00000256    0.00014472
     atom   22 type  1   force =     0.00017510    0.00027121   -0.00024670
     atom   23 type  1   force =     0.00025748    0.00011384   -0.00037008
     atom   24 type  1   force =    -0.00029071    0.00037681   -0.00009526
     atom   25 type  1   force =     0.00002691    0.00014533   -0.00005268
     atom   26 type  1   force =     0.00002553    0.00015069   -0.00016469
     atom   27 type  1   force =    -0.00008864    0.00010030   -0.00000410
     atom   28 type  1   force =     0.00001463   -0.00007540   -0.00030257
     atom   29 type  1   force =     0.00013114   -0.00014468    0.00018787
     atom   30 type  1   force =    -0.00010318   -0.00009857   -0.00032735
     atom   31 type  1   force =     0.00003125    0.00001775   -0.00003491
     atom   32 type  1   force =     0.00000377    0.00000539   -0.00018997
     atom   33 type  1   force =    -0.00006491    0.00005258   -0.00004772
     atom   34 type  1   force =     0.00023712   -0.00014450   -0.00001353
     atom   35 type  1   force =     0.00022707   -0.00000224   -0.00025854
     atom   36 type  1   force =    -0.00032399   -0.00024913    0.00014383
     atom   37 type  1   force =     0.00000927   -0.00016568   -0.00050100
     atom   38 type  1   force =     0.00004662   -0.00015173   -0.00011535
     atom   39 type  1   force =    -0.00007324   -0.00012414    0.00003968
     atom   40 type  1   force =    -0.00004000    0.00051361    0.00012606
     atom   41 type  1   force =    -0.00019655    0.00006226    0.00010836
     atom   42 type  1   force =     0.00017245    0.00013408   -0.00002957
     atom   43 type  1   force =     0.00001404   -0.00007632    0.00006774
     atom   44 type  1   force =    -0.00009065   -0.00019714   -0.00004935
     atom   45 type  1   force =    -0.00019660   -0.00017382   -0.00008593
     atom   46 type  1   force =    -0.00003630   -0.00035944   -0.00006360
     atom   47 type  1   force =    -0.00021418    0.00003127   -0.00005119
     atom   48 type  1   force =     0.00021787   -0.00002206   -0.00018328
     atom   49 type  1   force =    -0.00003335   -0.00007611   -0.00005679
     atom   50 type  1   force =     0.00006029    0.00007970   -0.00008796
     atom   51 type  1   force =    -0.00009625   -0.00011193    0.00000376
     atom   52 type  1   force =     0.00000208    0.00027574   -0.00006532
     atom   53 type  1   force =     0.00008611   -0.00002606   -0.00005324
     atom   54 type  1   force =    -0.00010977    0.00033465   -0.00000618
     atom   55 type  1   force =     0.00040796   -0.00020242    0.00004702
     atom   56 type  1   force =     0.00026093   -0.00015854    0.00006503
     atom   57 type  1   force =    -0.00045176   -0.00019760    0.00001746
     atom   58 type  1   force =    -0.00013142   -0.00014515   -0.00027052
     atom   59 type  1   force =     0.00002917   -0.00002058    0.00020123
     atom   60 type  1   force =     0.00013313    0.00000244   -0.00018982
     atom   61 type  1   force =    -0.00001445   -0.00001183   -0.00007332
     atom   62 type  1   force =    -0.00019413   -0.00012203   -0.00023647
     atom   63 type  1   force =    -0.00005550   -0.00002720   -0.00020780
     atom   64 type  1   force =    -0.00006435   -0.00005374    0.00017970
     atom   65 type  1   force =    -0.00023572   -0.00017306    0.00035036
     atom   66 type  1   force =    -0.00007319   -0.00003006    0.00028263
     atom   67 type  1   force =     0.00002705    0.00010879    0.00011454
     atom   68 type  1   force =    -0.00013744    0.00004811   -0.00005629
     atom   69 type  1   force =    -0.00012668   -0.00004285   -0.00001931
     atom   70 type  1   force =    -0.00003498    0.00016721   -0.00021391
     atom   71 type  1   force =     0.00005761   -0.00003586    0.00025504
     atom   72 type  1   force =     0.00007978    0.00006433   -0.00012468
     atom   73 type  1   force =    -0.00001071   -0.00003561   -0.00014699
     atom   74 type  1   force =    -0.00000654   -0.00005720    0.00001285
     atom   75 type  1   force =     0.00012172   -0.00002263    0.00002646

     Total force =     0.002634     Total SCF correction =     0.000045

     bfgs converged in  34 scf cycles and  33 bfgs steps
     (criteria: energy <  1.0E-04, force <  1.0E-03)

     End of BFGS Geometry Optimization

     Final energy   =   -7425.2992533992 Ry
Begin final coordinates

ATOMIC_POSITIONS (angstrom)
O        6.245558325   4.163657677   9.306159959
H        5.509562796   3.539485180   9.454722556
H        7.039377564   3.692718510   9.624365977
Au       0.000958442  -0.003467197   0.008347614
Au       4.253626566  -0.000110153   0.016164661
Au       8.508705567  -0.001065486   0.012263064
Au       2.128990093   2.127150533   0.014601698
Au       6.380590236   2.125503018   0.010465334
Au      10.637697306   2.125713495   0.011355970
Au       0.000671117   4.253507740   0.017481777
Au       4.253093782   4.254639867   0.010387471
Au       8.511190126   4.254691898   0.007063290
Au       2.128940818   6.380936163   0.013462790
Au       6.380575320   6.383747819   0.006803751
Au      10.638115493   6.382224216   0.011720644
Au       0.001365838   8.511048488   0.008820026
Au       4.253578001   8.507634673   0.012434543
Au       8.508567194   8.509101287   0.010126042
Au       2.125372025  10.636683895   0.009700666
Au       6.378966630  10.635886081   0.017132125
Au      10.639533078  10.637129834   0.007154946
Au       2.126692159  -0.002338242   2.123898045
Au       6.382117670   0.005922083   2.125941081
Au      10.641613609  -0.004313067   2.119988813
Au       0.001505165   2.124052916   2.118249335
Au       4.258733207   2.131212232   2.128032524
Au       8.510480191   2.129354871   2.122182714
Au       2.136961446   4.255890661   2.128587417
Au       6.384529659   4.258189376   2.117110733
Au      10.632559800   4.255518755   2.124342811
Au       0.002392593   6.384196719   2.118603497
Au       4.259169349   6.381030596   2.127612233
Au       8.509343405   6.382255819   2.122285423
Au       2.127177212   8.510784725   2.123301608
Au       6.381744871   8.501976989   2.126913388
Au      10.641494386   8.513255502   2.118453314
Au       0.001868660  10.638139048   2.125910321
Au       4.252357026  10.635977983   2.120582027
Au       8.511958230  10.636708522   2.116834427
Au       0.003876887  -0.002220441   4.251227950
Au       4.258309135  -0.001256746   4.244662645
Au       8.512224980  -0.002925349   4.242568194
Au       0.004949779   4.253716837   4.245782778
Au       4.269926171   4.257558501   4.263282394
Au       8.512946594   4.257003037   4.257210832
Au       0.003488887   8.513668598   4.250213848
Au       4.256616986   8.515863169   4.248093988
Au       8.513623262   8.517281420   4.244389734
Au       2.128006594   2.128129164   4.245750943
Au       6.389155103   2.135720142   4.258892024
Au      10.647450156   2.125710909   4.241867456
Au       2.127462901   6.380886850   4.247923732
Au       6.388790999   6.379185990   4.262579240
Au      10.648090394   6.383024596   4.242073399
Au       2.127365201  10.641169565   4.252824943
Au       6.382167911  10.642690923   4.245521688
Au      10.643341709  10.640670521   4.249001640
Au       2.129182038   0.001351730   6.368341024
Au       6.386262566   0.005562932   6.359643040
Au      10.644226540  -0.003385256   6.364478782
Au       0.005404455   2.125373946   6.362024221
Au       4.249252862   2.116494340   6.357995462
Au       8.534992669   2.113806311   6.357533597
Au       2.134809340   4.252488967   6.359288369
Au       6.403458356   4.259916546   6.360694040
Au      10.647694549   4.252549613   6.356099185
Au       0.004453483   6.381213504   6.357615164
Au       4.247413516   6.398425433   6.353251436
Au       8.537408245   6.400647811   6.352412756
Au       2.125194568   8.514721612   6.363365927
Au       6.386291430   8.519184017   6.352076257
Au      10.646931620   8.517960647   6.359895924
Au       0.003836662  10.641120191   6.367707949
Au       4.255177665  10.644514871   6.360895277
Au       8.512483769  10.643481127   6.357774093
End final coordinates



     Writing output data file 6510999.save
 
     init_run     :     90.04s CPU     92.37s WALL (       1 calls)
     electrons    : 122043.87s CPU 124352.68s WALL (      34 calls)
     update_pot   :    116.55s CPU    125.48s WALL (      33 calls)
     forces       :   1326.04s CPU   1353.19s WALL (      34 calls)

     Called by init_run:
     wfcinit      :     81.51s CPU     83.15s WALL (       1 calls)
     potinit      :      3.18s CPU      3.36s WALL (       1 calls)

     Called by electrons:
     c_bands      : 107505.02s CPU 109419.62s WALL (     615 calls)
     sum_band     :  12166.17s CPU  12406.78s WALL (     615 calls)
     v_of_rho     :   1396.36s CPU   1451.12s WALL (     616 calls)
     newd         :   1041.22s CPU   1140.90s WALL (     616 calls)
     mix_rho      :     33.70s CPU     34.15s WALL (     615 calls)

     Called by c_bands:
     init_us_2    :    289.80s CPU    293.30s WALL (    7590 calls)
     cegterg      : 105872.96s CPU 107761.80s WALL (    3690 calls)

     Called by sum_band:
     sum_band:bec :     28.30s CPU     28.44s WALL (    3690 calls)
     addusdens    :   1060.33s CPU   1176.73s WALL (     615 calls)

     Called by *egterg:
     h_psi        :  54187.91s CPU  54746.82s WALL (   12478 calls)
     s_psi        :   7859.14s CPU   7918.15s WALL (   12478 calls)
     g_psi        :     89.96s CPU     90.76s WALL (    8782 calls)
     cdiaghg      :   9525.48s CPU   9687.69s WALL (   12076 calls)

     Called by h_psi:
     add_vuspsi   :   7904.84s CPU   7963.76s WALL (   12478 calls)

     General routines
     calbec       :  15557.94s CPU  15692.17s WALL (   16984 calls)
     fft          :   1788.88s CPU   1811.08s WALL (   42759 calls)
     ffts         :     10.34s CPU     10.35s WALL (    1231 calls)
     fftw         :  38224.08s CPU  38660.21s WALL ( 9778310 calls)
     interpolate  :     35.12s CPU     35.39s WALL (    1231 calls)
     davcio       :      0.00s CPU      0.13s WALL (       6 calls)
 
     Parallel routines
     fft_scatter  :  27388.51s CPU  27691.07s WALL ( 9822300 calls)
 
     PWSCF        :     1d   10h20m CPU        1d   11h 0m WALL

 
   This run was terminated on:   4:44:14  23Jul2016            

=------------------------------------------------------------------------------=
   JOB DONE.
=------------------------------------------------------------------------------=
