Setting SGE environment for SCC

     Program PWSCF v.5.1.2 starts on 13Aug2015 at  0: 2:32 

     This program is part of the open-source Quantum ESPRESSO suite
     for quantum simulation of materials; please cite
         "P. Giannozzi et al., J. Phys.:Condens. Matter 21 395502 (2009);
          URL http://www.quantum-espresso.org", 
     in publications or presentations arising from this work. More details at
     http://www.quantum-espresso.org/quote

     Parallel version (MPI), running on    32 processors
     R & G space division:  proc/nbgrp/npool/nimage =      32
     Reading input from hollow.O1.Au5859.d.2.7.phi.0.psi.0.in
Warning: card &IONS ignored
Warning: card / ignored
Warning: card &CELL ignored
Warning: card / ignored

     Current dimensions of program PWSCF are:
     Max number of different atomic species (ntypx) = 10
     Max number of k-points (npk) =  40000
     Max angular momentum in pseudopotentials (lmaxx) =  3

     Subspace diagonalization in iterative solution of the eigenvalue problem:
     a serial algorithm will be used


     Parallelization info
     --------------------
     sticks:   dense  smooth     PW     G-vecs:    dense   smooth      PW
     Min         578     289     74               118518    41891    5486
     Max         579     290     75               118533    41932    5497
     Sum       18505    9265   2385              3792731  1341081  175711


     Title: 
     hollow.O1.Au5859.d.2.7.phi.0.psi.0                                         


     bravais-lattice index     =            8
     lattice parameter (alat)  =      24.1233  a.u.
     unit-cell volume          =   28076.2361 (a.u.)^3
     number of atoms/cell      =           75
     number of atomic types    =            3
     number of electrons       =       800.00
     number of Kohn-Sham states=          480
     kinetic-energy cutoff     =      50.0000  Ry
     charge density cutoff     =     400.0000  Ry
     convergence threshold     =      1.0E-08
     mixing beta               =       0.7000
     number of iterations used =            8  plain     mixing
     Exchange-correlation      =  SLA  PW   PBE  PBE ( 1  4  3  4 0 0)

     celldm(1)=  24.123277  celldm(2)=   1.000000  celldm(3)=   2.000000
     celldm(4)=   0.000000  celldm(5)=   0.000000  celldm(6)=   0.000000

     crystal axes: (cart. coord. in units of alat)
               a(1) = (   1.000000   0.000000   0.000000 )  
               a(2) = (   0.000000   1.000000   0.000000 )  
               a(3) = (   0.000000   0.000000   2.000000 )  

     reciprocal axes: (cart. coord. in units 2 pi/alat)
               b(1) = (  1.000000  0.000000  0.000000 )  
               b(2) = (  0.000000  1.000000  0.000000 )  
               b(3) = (  0.000000  0.000000  0.500000 )  


     PseudoPot. # 1 for Au read from file:
     /home/scc/andrejb/qe/pseudo/Au.pbe-nd-van.UPF
     MD5 check sum: 458681b50f36d87ef23c61b04bba420a
     Pseudo is Ultrasoft + core correction, Zval = 11.0
     Generated by new atomic code, or converted to UPF format
     Using radial grid of  985 points,  3 beta functions with: 
                l(1) =   1
                l(2) =   2
                l(3) =   2
     Q(r) pseudized with  8 coefficients,  rinner =    1.100   1.100   1.100
                                                       1.100   1.100

     PseudoPot. # 2 for H  read from file:
     /home/scc/andrejb/qe/pseudo/H.pbe-van_ak.UPF
     MD5 check sum: 403db7282739603aa925980fa9b8608d
     Pseudo is Ultrasoft, Zval =  1.0
     Generated by new atomic code, or converted to UPF format
     Using radial grid of  615 points,  1 beta functions with: 
                l(1) =   0
     Q(r) pseudized with  8 coefficients,  rinner =    0.800

     PseudoPot. # 3 for O  read from file:
     /home/scc/andrejb/qe/pseudo/O.pbe-van_ak.UPF
     MD5 check sum: 4b8c549914a63cae506c6ff22b5af4fe
     Pseudo is Ultrasoft, Zval =  6.0
     Generated by new atomic code, or converted to UPF format
     Using radial grid of  737 points,  4 beta functions with: 
                l(1) =   0
                l(2) =   0
                l(3) =   1
                l(4) =   1
     Q(r) pseudized with  8 coefficients,  rinner =    0.800   0.800   0.800


     atomic species   valence    mass     pseudopotential
        Au            11.00   196.96657     Au( 1.00)
        H              1.00     1.01000     H ( 1.00)
        O              6.00    16.00000     O ( 1.00)

     No symmetry found



   Cartesian axes

     site n.     atom                  positions (alat units)
         1           O   tau(   1) = (   0.1666051   0.1666105   0.9066623  )
         2           H   tau(   2) = (   0.1195275   0.1274390   0.9521562  )
         3           H   tau(   3) = (   0.2122554   0.2046122   0.9545200  )
         4           Au  tau(   4) = (   0.0000000   0.0000000   0.0000000  )
         5           Au  tau(   5) = (   0.3332217   0.0000000   0.0000000  )
         6           Au  tau(   6) = (   0.6664434   0.0000000   0.0000000  )
         7           Au  tau(   7) = (   0.1666109   0.1666109   0.0000000  )
         8           Au  tau(   8) = (   0.4998326   0.1666109   0.0000000  )
         9           Au  tau(   9) = (   0.8330542   0.1666109   0.0000000  )
        10           Au  tau(  10) = (   0.0000000   0.3332217   0.0000000  )
        11           Au  tau(  11) = (   0.3332217   0.3332217   0.0000000  )
        12           Au  tau(  12) = (   0.6664434   0.3332217   0.0000000  )
        13           Au  tau(  13) = (   0.1666109   0.4998326   0.0000000  )
        14           Au  tau(  14) = (   0.4998326   0.4998326   0.0000000  )
        15           Au  tau(  15) = (   0.8330542   0.4998326   0.0000000  )
        16           Au  tau(  16) = (   0.0000000   0.6664434   0.0000000  )
        17           Au  tau(  17) = (   0.3332217   0.6664434   0.0000000  )
        18           Au  tau(  18) = (   0.6664434   0.6664434   0.0000000  )
        19           Au  tau(  19) = (   0.1666109   0.8330542   0.0000000  )
        20           Au  tau(  20) = (   0.4998326   0.8330542   0.0000000  )
        21           Au  tau(  21) = (   0.8330542   0.8330542   0.0000000  )
        22           Au  tau(  22) = (   0.1666109   0.0000000   0.1666109  )
        23           Au  tau(  23) = (   0.4998326   0.0000000   0.1666109  )
        24           Au  tau(  24) = (   0.8330542   0.0000000   0.1666109  )
        25           Au  tau(  25) = (   0.0000000   0.1666109   0.1666109  )
        26           Au  tau(  26) = (   0.3332217   0.1666109   0.1666109  )
        27           Au  tau(  27) = (   0.6664434   0.1666109   0.1666109  )
        28           Au  tau(  28) = (   0.1666109   0.3332217   0.1666109  )
        29           Au  tau(  29) = (   0.4998326   0.3332217   0.1666109  )
        30           Au  tau(  30) = (   0.8330542   0.3332217   0.1666109  )
        31           Au  tau(  31) = (   0.0000000   0.4998326   0.1666109  )
        32           Au  tau(  32) = (   0.3332217   0.4998326   0.1666109  )
        33           Au  tau(  33) = (   0.6664434   0.4998326   0.1666109  )
        34           Au  tau(  34) = (   0.1666109   0.6664434   0.1666109  )
        35           Au  tau(  35) = (   0.4998326   0.6664434   0.1666109  )
        36           Au  tau(  36) = (   0.8330542   0.6664434   0.1666109  )
        37           Au  tau(  37) = (   0.0000000   0.8330542   0.1666109  )
        38           Au  tau(  38) = (   0.3332217   0.8330542   0.1666109  )
        39           Au  tau(  39) = (   0.6664434   0.8330542   0.1666109  )
        40           Au  tau(  40) = (  -0.0000182  -0.0000182   0.3335478  )
        41           Au  tau(  41) = (   0.3332215  -0.0000181   0.3335473  )
        42           Au  tau(  42) = (   0.6664447  -0.0000183   0.3335481  )
        43           Au  tau(  43) = (  -0.0000181   0.3332215   0.3335473  )
        44           Au  tau(  44) = (   0.3332215   0.3332215   0.3335468  )
        45           Au  tau(  45) = (   0.6664445   0.3332215   0.3335477  )
        46           Au  tau(  46) = (  -0.0000183   0.6664447   0.3335481  )
        47           Au  tau(  47) = (   0.3332215   0.6664445   0.3335477  )
        48           Au  tau(  48) = (   0.6664446   0.6664446   0.3335486  )
        49           Au  tau(  49) = (   0.1666097   0.1666097   0.3335483  )
        50           Au  tau(  50) = (   0.4998320   0.1666098   0.3335477  )
        51           Au  tau(  51) = (   0.8330732   0.1666096   0.3335480  )
        52           Au  tau(  52) = (   0.1666098   0.4998320   0.3335477  )
        53           Au  tau(  53) = (   0.4998322   0.4998322   0.3335470  )
        54           Au  tau(  54) = (   0.8330731   0.4998322   0.3335474  )
        55           Au  tau(  55) = (   0.1666096   0.8330732   0.3335480  )
        56           Au  tau(  56) = (   0.4998322   0.8330731   0.3335474  )
        57           Au  tau(  57) = (   0.8330731   0.8330731   0.3335478  )
        58           Au  tau(  58) = (   0.1666104  -0.0000111   0.4993095  )
        59           Au  tau(  59) = (   0.4998323  -0.0000112   0.4993099  )
        60           Au  tau(  60) = (   0.8330660  -0.0000111   0.4993009  )
        61           Au  tau(  61) = (  -0.0000111   0.1666104   0.4993095  )
        62           Au  tau(  62) = (   0.3332213   0.1666106   0.4993185  )
        63           Au  tau(  63) = (   0.6664437   0.1666106   0.4993187  )
        64           Au  tau(  64) = (   0.1666106   0.3332213   0.4993185  )
        65           Au  tau(  65) = (   0.4998324   0.3332216   0.4993185  )
        66           Au  tau(  66) = (   0.8330658   0.3332215   0.4993102  )
        67           Au  tau(  67) = (  -0.0000112   0.4998323   0.4993099  )
        68           Au  tau(  68) = (   0.3332216   0.4998324   0.4993185  )
        69           Au  tau(  69) = (   0.6664437   0.4998325   0.4993187  )
        70           Au  tau(  70) = (   0.1666106   0.6664437   0.4993187  )
        71           Au  tau(  71) = (   0.4998325   0.6664437   0.4993187  )
        72           Au  tau(  72) = (   0.8330658   0.6664438   0.4993102  )
        73           Au  tau(  73) = (  -0.0000111   0.8330660   0.4993009  )
        74           Au  tau(  74) = (   0.3332215   0.8330658   0.4993102  )
        75           Au  tau(  75) = (   0.6664438   0.8330658   0.4993102  )

     number of k points=     6  Marzari-Vanderbilt smearing, width (Ry)=  0.0200
                       cart. coord. in units 2pi/alat
        k(    1) = (   0.2500000   0.2500000   0.0833333), wk =   0.3333333
        k(    2) = (   0.2500000   0.2500000  -0.2500000), wk =   0.3333333
        k(    3) = (  -0.2500000  -0.2500000   0.0833333), wk =   0.3333333
        k(    4) = (  -0.2500000   0.2500000  -0.0833333), wk =   0.3333333
        k(    5) = (   0.2500000  -0.2500000  -0.0833333), wk =   0.3333333
        k(    6) = (  -0.2500000   0.2500000   0.2500000), wk =   0.3333333

     Dense  grid:  3792731 G-vectors     FFT dimensions: ( 160, 160, 320)

     Smooth grid:  1341081 G-vectors     FFT dimensions: ( 120, 120, 225)

     Largest allocated arrays     est. size (Mb)     dimensions
        Kohn-Sham Wavefunctions        38.58 Mb     (    5267,  480)
        NL pseudopotentials            76.03 Mb     (    5267,  946)
        Each V/rho on FFT grid          3.91 Mb     (  256000)
        Each G-vector array             0.90 Mb     (  118520)
        G-vector shells                 0.08 Mb     (   10286)
     Largest temporary arrays     est. size (Mb)     dimensions
        Auxiliary wavefunctions       154.31 Mb     (    5267, 1920)
        Each subspace H/S matrix       56.25 Mb     (    1920, 1920)
        Each <psi_i|beta_j> matrix      6.93 Mb     (     946,  480)
        Arrays for rho mixing          31.25 Mb     (  256000,    8)

     Initial potential from superposition of free atoms
     Check: negative starting charge=   -1.944608

     starting charge  799.16392, renormalised to  800.00000

     negative rho (up, down):  1.947E+00 0.000E+00
     Starting wfc are  654 randomized atomic wfcs

     total cpu time spent up to now is      113.2 secs

     Self-consistent Calculation

     iteration #  1     ecut=    50.00 Ry     beta=0.70
     Davidson diagonalization with overlap
     ethr =  1.00E-02,  avg # of iterations =  3.0

     Threshold (ethr) on eigenvalues was too large:
     Diagonalizing with lowered threshold

     Davidson diagonalization with overlap
     ethr =  5.01E-04,  avg # of iterations =  2.0

     negative rho (up, down):  1.932E+00 0.000E+00

     total cpu time spent up to now is      549.7 secs

     total energy              =   -7377.39635504 Ry
     Harris-Foulkes estimate   =   -7380.96447967 Ry
     estimated scf accuracy    <       4.52888259 Ry

     iteration #  2     ecut=    50.00 Ry     beta=0.70
     Davidson diagonalization with overlap
     ethr =  5.66E-04,  avg # of iterations = 11.3

     negative rho (up, down):  1.929E+00 0.000E+00

     total cpu time spent up to now is     1259.4 secs

     total energy              =   -7368.71117286 Ry
     Harris-Foulkes estimate   =   -7387.99298476 Ry
     estimated scf accuracy    <      99.25992744 Ry

     iteration #  3     ecut=    50.00 Ry     beta=0.70
     Davidson diagonalization with overlap
     ethr =  5.66E-04,  avg # of iterations =  6.0

     negative rho (up, down):  1.947E+00 0.000E+00

     total cpu time spent up to now is     1696.4 secs

     total energy              =   -7378.57866408 Ry
     Harris-Foulkes estimate   =   -7380.68357855 Ry
     estimated scf accuracy    <       8.32670962 Ry

     iteration #  4     ecut=    50.00 Ry     beta=0.70
     Davidson diagonalization with overlap
     ethr =  5.66E-04,  avg # of iterations =  6.8

     negative rho (up, down):  1.955E+00 0.000E+00

     total cpu time spent up to now is     1970.6 secs

     total energy              =   -7379.77116132 Ry
     Harris-Foulkes estimate   =   -7380.22086504 Ry
     estimated scf accuracy    <       1.31931506 Ry

     iteration #  5     ecut=    50.00 Ry     beta=0.70
     Davidson diagonalization with overlap
     ethr =  1.65E-04,  avg # of iterations =  7.8

     negative rho (up, down):  1.960E+00 0.000E+00

     total cpu time spent up to now is     2279.8 secs

     total energy              =   -7379.55241697 Ry
     Harris-Foulkes estimate   =   -7380.42003598 Ry
     estimated scf accuracy    <       7.78887435 Ry

     iteration #  6     ecut=    50.00 Ry     beta=0.70
     Davidson diagonalization with overlap
     ethr =  1.65E-04,  avg # of iterations =  5.7

     negative rho (up, down):  1.965E+00 0.000E+00

     total cpu time spent up to now is     2537.3 secs

     total energy              =   -7379.98028822 Ry
     Harris-Foulkes estimate   =   -7380.02112090 Ry
     estimated scf accuracy    <       0.17141720 Ry

     iteration #  7     ecut=    50.00 Ry     beta=0.70
     Davidson diagonalization with overlap
     ethr =  2.14E-05,  avg # of iterations = 11.0

     negative rho (up, down):  1.967E+00 0.000E+00

     total cpu time spent up to now is     2876.4 secs

     total energy              =   -7379.97634774 Ry
     Harris-Foulkes estimate   =   -7380.01189935 Ry
     estimated scf accuracy    <       0.16832775 Ry

     iteration #  8     ecut=    50.00 Ry     beta=0.70
     Davidson diagonalization with overlap
     ethr =  2.10E-05,  avg # of iterations =  3.2

     negative rho (up, down):  1.968E+00 0.000E+00

     total cpu time spent up to now is     3074.7 secs

     total energy              =   -7379.98033795 Ry
     Harris-Foulkes estimate   =   -7379.99874646 Ry
     estimated scf accuracy    <       0.07938327 Ry

     iteration #  9     ecut=    50.00 Ry     beta=0.70
     Davidson diagonalization with overlap
     ethr =  9.92E-06,  avg # of iterations = 12.0

     negative rho (up, down):  1.969E+00 0.000E+00

     total cpu time spent up to now is     3393.0 secs

     total energy              =   -7379.97850927 Ry
     Harris-Foulkes estimate   =   -7379.99042323 Ry
     estimated scf accuracy    <       0.04162960 Ry

     iteration # 10     ecut=    50.00 Ry     beta=0.70
     Davidson diagonalization with overlap
     ethr =  5.20E-06,  avg # of iterations =  9.7

     negative rho (up, down):  1.971E+00 0.000E+00

     total cpu time spent up to now is     3698.1 secs

     total energy              =   -7379.97838888 Ry
     Harris-Foulkes estimate   =   -7379.98375767 Ry
     estimated scf accuracy    <       0.01459732 Ry

     iteration # 11     ecut=    50.00 Ry     beta=0.70
     Davidson diagonalization with overlap
     ethr =  1.82E-06,  avg # of iterations = 10.7

     negative rho (up, down):  1.971E+00 0.000E+00

     total cpu time spent up to now is     4011.7 secs

     total energy              =   -7379.97872934 Ry
     Harris-Foulkes estimate   =   -7379.98063764 Ry
     estimated scf accuracy    <       0.00627960 Ry

     iteration # 12     ecut=    50.00 Ry     beta=0.70
     Davidson diagonalization with overlap
     ethr =  7.85E-07,  avg # of iterations =  7.0

     negative rho (up, down):  1.972E+00 0.000E+00

     total cpu time spent up to now is     4263.1 secs

     total energy              =   -7379.97784900 Ry
     Harris-Foulkes estimate   =   -7379.97940721 Ry
     estimated scf accuracy    <       0.00209757 Ry

     iteration # 13     ecut=    50.00 Ry     beta=0.70
     Davidson diagonalization with overlap
     ethr =  2.62E-07,  avg # of iterations = 12.3

     negative rho (up, down):  1.972E+00 0.000E+00

     total cpu time spent up to now is     4791.7 secs

     total energy              =   -7379.97620705 Ry
     Harris-Foulkes estimate   =   -7379.98096960 Ry
     estimated scf accuracy    <       0.02787839 Ry

     iteration # 14     ecut=    50.00 Ry     beta=0.70
     Davidson diagonalization with overlap
     ethr =  2.62E-07,  avg # of iterations =  3.5

     negative rho (up, down):  1.971E+00 0.000E+00

     total cpu time spent up to now is     5089.6 secs

     total energy              =   -7379.97844315 Ry
     Harris-Foulkes estimate   =   -7379.97860073 Ry
     estimated scf accuracy    <       0.00037341 Ry

     iteration # 15     ecut=    50.00 Ry     beta=0.70
     Davidson diagonalization with overlap
     ethr =  4.67E-08,  avg # of iterations =  3.0

     negative rho (up, down):  1.971E+00 0.000E+00

     total cpu time spent up to now is     5372.4 secs

     total energy              =   -7379.97833486 Ry
     Harris-Foulkes estimate   =   -7379.97874334 Ry
     estimated scf accuracy    <       0.00238309 Ry

     iteration # 16     ecut=    50.00 Ry     beta=0.70
     Davidson diagonalization with overlap
     ethr =  4.67E-08,  avg # of iterations =  2.0

     negative rho (up, down):  1.971E+00 0.000E+00

     total cpu time spent up to now is     5595.2 secs

     total energy              =   -7379.97851190 Ry
     Harris-Foulkes estimate   =   -7379.97858038 Ry
     estimated scf accuracy    <       0.00045534 Ry

     iteration # 17     ecut=    50.00 Ry     beta=0.70
     Davidson diagonalization with overlap
     ethr =  4.67E-08,  avg # of iterations =  1.0

     negative rho (up, down):  1.971E+00 0.000E+00

     total cpu time spent up to now is     5788.8 secs

     total energy              =   -7379.97854352 Ry
     Harris-Foulkes estimate   =   -7379.97856137 Ry
     estimated scf accuracy    <       0.00008321 Ry

     iteration # 18     ecut=    50.00 Ry     beta=0.70
     Davidson diagonalization with overlap
     ethr =  1.04E-08,  avg # of iterations =  2.0

     negative rho (up, down):  1.971E+00 0.000E+00

     total cpu time spent up to now is     5986.0 secs

     total energy              =   -7379.97854957 Ry
     Harris-Foulkes estimate   =   -7379.97855421 Ry
     estimated scf accuracy    <       0.00001381 Ry

     iteration # 19     ecut=    50.00 Ry     beta=0.70
     Davidson diagonalization with overlap
     ethr =  1.73E-09,  avg # of iterations =  3.0

     negative rho (up, down):  1.971E+00 0.000E+00

     total cpu time spent up to now is     6221.3 secs

     total energy              =   -7379.97855046 Ry
     Harris-Foulkes estimate   =   -7379.97855472 Ry
     estimated scf accuracy    <       0.00002159 Ry

     iteration # 20     ecut=    50.00 Ry     beta=0.70
     Davidson diagonalization with overlap
     ethr =  1.73E-09,  avg # of iterations =  2.0

     negative rho (up, down):  1.971E+00 0.000E+00

     total cpu time spent up to now is     6421.7 secs

     total energy              =   -7379.97855217 Ry
     Harris-Foulkes estimate   =   -7379.97855333 Ry
     estimated scf accuracy    <       0.00000461 Ry

     iteration # 21     ecut=    50.00 Ry     beta=0.70
     Davidson diagonalization with overlap
     ethr =  5.76E-10,  avg # of iterations =  2.0

     negative rho (up, down):  1.971E+00 0.000E+00

     total cpu time spent up to now is     6630.0 secs

     total energy              =   -7379.97855273 Ry
     Harris-Foulkes estimate   =   -7379.97855298 Ry
     estimated scf accuracy    <       0.00000090 Ry

     iteration # 22     ecut=    50.00 Ry     beta=0.70
     Davidson diagonalization with overlap
     ethr =  1.12E-10,  avg # of iterations =  2.0

     negative rho (up, down):  1.971E+00 0.000E+00

     total cpu time spent up to now is     6830.4 secs

     total energy              =   -7379.97855285 Ry
     Harris-Foulkes estimate   =   -7379.97855291 Ry
     estimated scf accuracy    <       0.00000015 Ry

     iteration # 23     ecut=    50.00 Ry     beta=0.70
     Davidson diagonalization with overlap
     ethr =  1.85E-11,  avg # of iterations =  3.0

     negative rho (up, down):  1.971E+00 0.000E+00

     total cpu time spent up to now is     7067.8 secs

     total energy              =   -7379.97855283 Ry
     Harris-Foulkes estimate   =   -7379.97855291 Ry
     estimated scf accuracy    <       0.00000032 Ry

     iteration # 24     ecut=    50.00 Ry     beta=0.70
     Davidson diagonalization with overlap
     ethr =  1.85E-11,  avg # of iterations =  3.0

     negative rho (up, down):  1.971E+00 0.000E+00

     total cpu time spent up to now is     7304.6 secs

     total energy              =   -7379.97855286 Ry
     Harris-Foulkes estimate   =   -7379.97855290 Ry
     estimated scf accuracy    <       0.00000023 Ry

     iteration # 25     ecut=    50.00 Ry     beta=0.70
     Davidson diagonalization with overlap
     ethr =  1.85E-11,  avg # of iterations =  2.0

     negative rho (up, down):  1.971E+00 0.000E+00

     total cpu time spent up to now is     7499.4 secs

     total energy              =   -7379.97855288 Ry
     Harris-Foulkes estimate   =   -7379.97855289 Ry
     estimated scf accuracy    <       0.00000002 Ry

     iteration # 26     ecut=    50.00 Ry     beta=0.70
     Davidson diagonalization with overlap
     ethr =  2.25E-12,  avg # of iterations =  3.0

     negative rho (up, down):  1.971E+00 0.000E+00

     total cpu time spent up to now is     7744.3 secs

     total energy              =   -7379.97855288 Ry
     Harris-Foulkes estimate   =   -7379.97855289 Ry
     estimated scf accuracy    <       0.00000005 Ry

     iteration # 27     ecut=    50.00 Ry     beta=0.70
     Davidson diagonalization with overlap
     ethr =  2.25E-12,  avg # of iterations =  2.0

     negative rho (up, down):  1.971E+00 0.000E+00

     total cpu time spent up to now is     7939.9 secs

     total energy              =   -7379.97855289 Ry
     Harris-Foulkes estimate   =   -7379.97855289 Ry
     estimated scf accuracy    <       0.00000002 Ry

     iteration # 28     ecut=    50.00 Ry     beta=0.70
     Davidson diagonalization with overlap
     ethr =  1.97E-12,  avg # of iterations =  1.0

     negative rho (up, down):  1.971E+00 0.000E+00

     total cpu time spent up to now is     8135.5 secs

     End of self-consistent calculation

          k = 0.2500 0.2500 0.0833 (167653 PWs)   bands (ev):

   -19.1934  -7.0063  -6.7800  -6.2498  -6.2496  -5.8115  -5.4080  -5.3094
    -5.3092  -5.0875  -5.0875  -4.9907  -4.9903  -4.8570  -4.8494  -4.7400
    -4.6514  -4.6475  -4.6263  -4.6261  -4.4451  -4.4439  -4.4437  -4.4171
    -4.4130  -4.4125  -4.4089  -4.3554  -4.3551  -4.3526  -4.3524  -4.2889
    -4.2604  -4.2603  -4.2037  -4.2003  -4.1991  -4.1631  -4.1628  -4.1490
    -4.1446  -4.1258  -4.1258  -4.0883  -4.0560  -4.0560  -4.0535  -4.0504
    -4.0503  -4.0200  -3.9897  -3.9895  -3.9601  -3.9599  -3.9560  -3.9559
    -3.9538  -3.9479  -3.9158  -3.9154  -3.8554  -3.8552  -3.8231  -3.7966
    -3.7900  -3.7863  -3.7860  -3.7638  -3.7637  -3.7519  -3.7016  -3.7015
    -3.6956  -3.6954  -3.6103  -3.6100  -3.5880  -3.5877  -3.5533  -3.5501
    -3.5382  -3.5120  -3.5120  -3.4677  -3.4675  -3.4651  -3.4649  -3.4404
    -3.4401  -3.3597  -3.3596  -3.3578  -3.3443  -3.3284  -3.3258  -3.3129
    -3.3128  -3.3056  -3.3055  -3.2627  -3.2627  -3.2398  -3.2396  -3.2045
    -3.2034  -3.2030  -3.1768  -3.1558  -3.1557  -3.1096  -3.1094  -3.0769
    -3.0494  -3.0489  -3.0484  -3.0477  -3.0439  -3.0438  -3.0161  -3.0075
    -2.9684  -2.9684  -2.9473  -2.9238  -2.9208  -2.9207  -2.9142  -2.9138
    -2.9097  -2.9097  -2.8746  -2.8735  -2.8735  -2.8681  -2.8681  -2.8631
    -2.8080  -2.8020  -2.7981  -2.7979  -2.7758  -2.7757  -2.7705  -2.6818
    -2.6712  -2.6711  -2.6617  -2.6614  -2.6555  -2.6543  -2.6532  -2.6455
    -2.6455  -2.6348  -2.6274  -2.6243  -2.6241  -2.6197  -2.6097  -2.6042
    -2.6023  -2.5801  -2.5695  -2.5692  -2.5535  -2.5535  -2.5364  -2.5364
    -2.5277  -2.5275  -2.5070  -2.4943  -2.4943  -2.4889  -2.4888  -2.4550
    -2.4526  -2.4525  -2.3944  -2.3912  -2.3763  -2.3761  -2.3656  -2.3610
    -2.3380  -2.3378  -2.3337  -2.3210  -2.3208  -2.3093  -2.3089  -2.2924
    -2.2921  -2.2652  -2.2652  -2.2550  -2.2549  -2.2451  -2.2450  -2.2278
    -2.2148  -2.1942  -2.1252  -2.1238  -2.1045  -2.1044  -2.0926  -2.0924
    -2.0425  -2.0421  -2.0271  -2.0075  -1.9950  -1.9950  -1.9768  -1.9585
    -1.9584  -1.9452  -1.9384  -1.9064  -1.9059  -1.9046  -1.8977  -1.8976
    -1.8899  -1.8897  -1.8692  -1.8629  -1.8524  -1.8523  -1.8518  -1.8518
    -1.8507  -1.8503  -1.8366  -1.8166  -1.8166  -1.8132  -1.8077  -1.7949
    -1.7947  -1.7905  -1.7903  -1.7846  -1.7826  -1.7485  -1.7482  -1.7036
    -1.6845  -1.6841  -1.6386  -1.6385  -1.6383  -1.6277  -1.6274  -1.6138
    -1.6134  -1.6061  -1.6058  -1.5956  -1.5953  -1.5751  -1.5750  -1.5381
    -1.5379  -1.5206  -1.4983  -1.4981  -1.4588  -1.4586  -1.4083  -1.4082
    -1.3872  -1.3625  -1.3612  -1.3607  -1.3550  -1.3543  -1.3345  -1.3343
    -1.3335  -1.3332  -1.3315  -1.3310  -1.3305  -1.3293  -1.3278  -1.3011
    -1.3010  -1.2681  -1.2667  -1.2667  -1.2451  -1.2450  -1.2401  -1.2399
    -1.2369  -1.2264  -1.1987  -1.1984  -1.1742  -1.1731  -1.1722  -1.1616
    -1.1525  -1.1413  -1.1410  -1.1119  -1.1117  -1.1048  -1.1047  -1.0663
    -1.0660  -1.0543  -1.0541  -1.0533  -1.0531  -1.0271  -1.0269  -1.0128
    -1.0055  -1.0053  -0.9936  -0.9932  -0.9917  -0.9914  -0.9805  -0.9704
    -0.9694  -0.9628  -0.9628  -0.9559  -0.9518  -0.9517  -0.9355  -0.8939
    -0.8929  -0.8911  -0.8889  -0.8860  -0.8859  -0.8567  -0.8565  -0.8428
    -0.8253  -0.8249  -0.8167  -0.8166  -0.8084  -0.8012  -0.8000  -0.7635
    -0.7633  -0.7520  -0.7520  -0.7317  -0.7316  -0.7162  -0.6920  -0.6840
    -0.6663  -0.6660  -0.6285  -0.6283  -0.6253  -0.6251  -0.6243  -0.6183
    -0.6174  -0.6172  -0.6133  -0.6106  -0.5775  -0.5774  -0.5762  -0.5762
    -0.5745  -0.5741  -0.5606  -0.5604  -0.5321  -0.2697  -0.2638  -0.2182
    -0.2171  -0.1866  -0.1279   0.0246   0.0248   0.0554   0.3401   0.3402
     0.6806   0.6816   0.7247   0.7247   0.7745   0.7751   0.9342   0.9346
     1.0627   1.0638   1.1777   1.6732   1.7158   1.7189   1.7562   1.7565
     1.8931   1.8953   1.9498   1.9501   2.1324   2.1326   2.4176   2.4439
     2.4454   2.4655   2.8999   2.9017   2.9232   2.9250   2.9404   2.9407
     3.0062   3.0068   3.1638   3.2845   3.2854   3.4694   3.4801   3.5812
     3.6531   3.6534   3.9529   3.9536   4.0100   4.0115   4.0116   4.1581
     4.1589   4.1785   4.1786   4.4539   4.4559   4.4921   4.4922   4.6056
     4.6111   4.6728   4.6747   4.9479   5.0376   5.5553   5.5560   5.6320
     5.6346   5.7627   5.7632   5.8188   5.8347   5.8353   5.8517   5.8520
     5.9386   5.9639   5.9792   6.1485   6.2508   6.2519   6.2623   6.2633
     6.2684   6.2776   6.2799   6.3435   6.4302   6.4377   6.4933   6.5430

          k = 0.2500 0.2500-0.2500 (167588 PWs)   bands (ev):

   -19.1934  -7.0063  -6.7800  -6.2498  -6.2496  -5.8115  -5.4080  -5.3094
    -5.3092  -5.0875  -5.0875  -4.9907  -4.9903  -4.8570  -4.8494  -4.7400
    -4.6514  -4.6475  -4.6262  -4.6261  -4.4451  -4.4439  -4.4437  -4.4171
    -4.4130  -4.4125  -4.4089  -4.3554  -4.3551  -4.3526  -4.3524  -4.2889
    -4.2604  -4.2603  -4.2037  -4.2003  -4.1991  -4.1631  -4.1628  -4.1490
    -4.1446  -4.1258  -4.1258  -4.0883  -4.0560  -4.0560  -4.0536  -4.0504
    -4.0503  -4.0200  -3.9897  -3.9895  -3.9601  -3.9599  -3.9560  -3.9559
    -3.9538  -3.9479  -3.9158  -3.9154  -3.8554  -3.8552  -3.8231  -3.7966
    -3.7900  -3.7863  -3.7860  -3.7638  -3.7637  -3.7519  -3.7016  -3.7015
    -3.6956  -3.6954  -3.6103  -3.6100  -3.5880  -3.5877  -3.5533  -3.5501
    -3.5382  -3.5120  -3.5120  -3.4677  -3.4675  -3.4651  -3.4649  -3.4404
    -3.4401  -3.3597  -3.3596  -3.3578  -3.3443  -3.3284  -3.3258  -3.3129
    -3.3128  -3.3056  -3.3055  -3.2627  -3.2627  -3.2398  -3.2396  -3.2045
    -3.2034  -3.2030  -3.1768  -3.1558  -3.1557  -3.1096  -3.1094  -3.0769
    -3.0494  -3.0489  -3.0484  -3.0477  -3.0438  -3.0438  -3.0161  -3.0075
    -2.9684  -2.9684  -2.9473  -2.9238  -2.9208  -2.9207  -2.9142  -2.9138
    -2.9098  -2.9097  -2.8746  -2.8735  -2.8735  -2.8681  -2.8680  -2.8631
    -2.8080  -2.8020  -2.7981  -2.7979  -2.7758  -2.7757  -2.7705  -2.6819
    -2.6713  -2.6711  -2.6617  -2.6614  -2.6555  -2.6543  -2.6532  -2.6455
    -2.6455  -2.6348  -2.6274  -2.6243  -2.6241  -2.6197  -2.6097  -2.6042
    -2.6023  -2.5801  -2.5695  -2.5692  -2.5535  -2.5535  -2.5364  -2.5364
    -2.5277  -2.5275  -2.5070  -2.4943  -2.4943  -2.4889  -2.4888  -2.4550
    -2.4526  -2.4525  -2.3944  -2.3912  -2.3763  -2.3761  -2.3656  -2.3610
    -2.3380  -2.3378  -2.3337  -2.3210  -2.3208  -2.3093  -2.3089  -2.2924
    -2.2921  -2.2652  -2.2652  -2.2550  -2.2549  -2.2451  -2.2450  -2.2278
    -2.2148  -2.1942  -2.1252  -2.1238  -2.1045  -2.1043  -2.0926  -2.0924
    -2.0425  -2.0421  -2.0271  -2.0076  -1.9950  -1.9950  -1.9768  -1.9585
    -1.9584  -1.9452  -1.9384  -1.9064  -1.9059  -1.9046  -1.8976  -1.8976
    -1.8899  -1.8897  -1.8692  -1.8629  -1.8524  -1.8523  -1.8518  -1.8518
    -1.8507  -1.8503  -1.8366  -1.8166  -1.8166  -1.8132  -1.8077  -1.7949
    -1.7947  -1.7905  -1.7903  -1.7846  -1.7826  -1.7485  -1.7481  -1.7036
    -1.6845  -1.6841  -1.6386  -1.6385  -1.6383  -1.6277  -1.6274  -1.6138
    -1.6134  -1.6061  -1.6058  -1.5956  -1.5953  -1.5751  -1.5750  -1.5381
    -1.5379  -1.5206  -1.4983  -1.4981  -1.4588  -1.4586  -1.4083  -1.4082
    -1.3872  -1.3625  -1.3612  -1.3607  -1.3551  -1.3543  -1.3345  -1.3343
    -1.3335  -1.3332  -1.3315  -1.3310  -1.3305  -1.3293  -1.3278  -1.3011
    -1.3010  -1.2681  -1.2667  -1.2667  -1.2451  -1.2450  -1.2401  -1.2399
    -1.2368  -1.2264  -1.1987  -1.1984  -1.1742  -1.1731  -1.1722  -1.1616
    -1.1525  -1.1413  -1.1410  -1.1119  -1.1117  -1.1048  -1.1047  -1.0663
    -1.0659  -1.0543  -1.0541  -1.0533  -1.0531  -1.0271  -1.0269  -1.0127
    -1.0055  -1.0053  -0.9936  -0.9932  -0.9917  -0.9914  -0.9805  -0.9704
    -0.9694  -0.9628  -0.9628  -0.9559  -0.9518  -0.9516  -0.9355  -0.8939
    -0.8929  -0.8911  -0.8889  -0.8860  -0.8859  -0.8567  -0.8565  -0.8428
    -0.8253  -0.8249  -0.8167  -0.8166  -0.8084  -0.8012  -0.8000  -0.7635
    -0.7633  -0.7520  -0.7520  -0.7317  -0.7316  -0.7162  -0.6920  -0.6840
    -0.6663  -0.6660  -0.6285  -0.6283  -0.6253  -0.6251  -0.6243  -0.6183
    -0.6174  -0.6172  -0.6133  -0.6106  -0.5775  -0.5774  -0.5762  -0.5762
    -0.5745  -0.5741  -0.5606  -0.5604  -0.5321  -0.2697  -0.2638  -0.2182
    -0.2171  -0.1866  -0.1279   0.0246   0.0248   0.0554   0.3401   0.3402
     0.6806   0.6816   0.7247   0.7247   0.7745   0.7751   0.9342   0.9346
     1.0627   1.0638   1.1777   1.6732   1.7158   1.7189   1.7562   1.7565
     1.8931   1.8953   1.9498   1.9501   2.1324   2.1326   2.4176   2.4439
     2.4454   2.4655   2.8999   2.9017   2.9232   2.9250   2.9404   2.9407
     3.0062   3.0068   3.1638   3.2845   3.2854   3.4694   3.4801   3.5812
     3.6531   3.6534   3.9529   3.9536   4.0100   4.0115   4.0116   4.1581
     4.1589   4.1786   4.1787   4.4539   4.4559   4.4921   4.4922   4.6056
     4.6111   4.6728   4.6747   4.9482   5.0344   5.5553   5.5560   5.6323
     5.6344   5.7627   5.7632   5.7911   5.8347   5.8353   5.8517   5.8520
     5.9483   5.9640   6.0694   6.0944   6.2508   6.2519   6.2623   6.2633
     6.2684   6.2780   6.3160   6.3630   6.4376   6.4395   6.5147   6.5588

          k =-0.2500-0.2500 0.0833 (167653 PWs)   bands (ev):

   -19.1934  -7.0063  -6.7800  -6.2498  -6.2496  -5.8115  -5.4080  -5.3094
    -5.3092  -5.0875  -5.0875  -4.9907  -4.9903  -4.8570  -4.8494  -4.7400
    -4.6514  -4.6475  -4.6263  -4.6261  -4.4451  -4.4439  -4.4437  -4.4171
    -4.4130  -4.4125  -4.4089  -4.3554  -4.3551  -4.3526  -4.3524  -4.2889
    -4.2604  -4.2603  -4.2037  -4.2003  -4.1991  -4.1631  -4.1628  -4.1490
    -4.1446  -4.1258  -4.1258  -4.0883  -4.0560  -4.0560  -4.0535  -4.0504
    -4.0503  -4.0200  -3.9897  -3.9895  -3.9601  -3.9599  -3.9560  -3.9559
    -3.9538  -3.9479  -3.9158  -3.9154  -3.8554  -3.8552  -3.8231  -3.7966
    -3.7900  -3.7863  -3.7860  -3.7638  -3.7637  -3.7519  -3.7016  -3.7015
    -3.6956  -3.6954  -3.6103  -3.6100  -3.5880  -3.5877  -3.5533  -3.5501
    -3.5382  -3.5120  -3.5120  -3.4677  -3.4675  -3.4651  -3.4649  -3.4404
    -3.4401  -3.3597  -3.3596  -3.3578  -3.3443  -3.3284  -3.3258  -3.3129
    -3.3128  -3.3056  -3.3055  -3.2627  -3.2627  -3.2398  -3.2396  -3.2045
    -3.2034  -3.2030  -3.1768  -3.1558  -3.1557  -3.1096  -3.1094  -3.0769
    -3.0494  -3.0489  -3.0484  -3.0477  -3.0439  -3.0438  -3.0161  -3.0075
    -2.9684  -2.9684  -2.9473  -2.9238  -2.9208  -2.9207  -2.9142  -2.9138
    -2.9097  -2.9097  -2.8746  -2.8735  -2.8735  -2.8681  -2.8681  -2.8631
    -2.8080  -2.8020  -2.7981  -2.7979  -2.7758  -2.7757  -2.7705  -2.6818
    -2.6712  -2.6711  -2.6617  -2.6614  -2.6555  -2.6543  -2.6532  -2.6455
    -2.6455  -2.6348  -2.6274  -2.6243  -2.6241  -2.6197  -2.6097  -2.6042
    -2.6023  -2.5801  -2.5695  -2.5692  -2.5535  -2.5535  -2.5364  -2.5364
    -2.5277  -2.5275  -2.5070  -2.4943  -2.4943  -2.4889  -2.4888  -2.4550
    -2.4526  -2.4525  -2.3944  -2.3912  -2.3763  -2.3761  -2.3656  -2.3610
    -2.3380  -2.3378  -2.3337  -2.3210  -2.3208  -2.3093  -2.3089  -2.2924
    -2.2921  -2.2652  -2.2652  -2.2550  -2.2549  -2.2451  -2.2450  -2.2278
    -2.2148  -2.1942  -2.1252  -2.1238  -2.1045  -2.1044  -2.0926  -2.0924
    -2.0425  -2.0421  -2.0271  -2.0075  -1.9950  -1.9950  -1.9768  -1.9585
    -1.9584  -1.9452  -1.9384  -1.9064  -1.9059  -1.9046  -1.8977  -1.8976
    -1.8899  -1.8897  -1.8692  -1.8629  -1.8524  -1.8523  -1.8518  -1.8518
    -1.8507  -1.8503  -1.8366  -1.8166  -1.8166  -1.8132  -1.8077  -1.7949
    -1.7947  -1.7905  -1.7903  -1.7846  -1.7826  -1.7485  -1.7482  -1.7036
    -1.6845  -1.6841  -1.6386  -1.6385  -1.6383  -1.6277  -1.6274  -1.6138
    -1.6134  -1.6061  -1.6058  -1.5956  -1.5953  -1.5751  -1.5750  -1.5381
    -1.5379  -1.5206  -1.4983  -1.4981  -1.4588  -1.4586  -1.4083  -1.4082
    -1.3872  -1.3625  -1.3612  -1.3607  -1.3550  -1.3543  -1.3345  -1.3343
    -1.3335  -1.3332  -1.3315  -1.3310  -1.3305  -1.3293  -1.3278  -1.3011
    -1.3010  -1.2681  -1.2667  -1.2667  -1.2451  -1.2450  -1.2401  -1.2399
    -1.2369  -1.2264  -1.1987  -1.1984  -1.1742  -1.1731  -1.1722  -1.1616
    -1.1525  -1.1413  -1.1410  -1.1119  -1.1117  -1.1048  -1.1047  -1.0663
    -1.0660  -1.0543  -1.0541  -1.0533  -1.0531  -1.0271  -1.0269  -1.0128
    -1.0055  -1.0053  -0.9936  -0.9932  -0.9917  -0.9914  -0.9805  -0.9704
    -0.9694  -0.9628  -0.9628  -0.9559  -0.9518  -0.9517  -0.9355  -0.8939
    -0.8929  -0.8911  -0.8889  -0.8860  -0.8859  -0.8567  -0.8565  -0.8428
    -0.8253  -0.8249  -0.8167  -0.8166  -0.8084  -0.8012  -0.8000  -0.7635
    -0.7633  -0.7520  -0.7520  -0.7317  -0.7316  -0.7162  -0.6920  -0.6840
    -0.6663  -0.6660  -0.6285  -0.6283  -0.6253  -0.6251  -0.6243  -0.6183
    -0.6174  -0.6172  -0.6133  -0.6106  -0.5775  -0.5774  -0.5762  -0.5762
    -0.5745  -0.5741  -0.5606  -0.5604  -0.5321  -0.2697  -0.2638  -0.2182
    -0.2171  -0.1866  -0.1279   0.0246   0.0248   0.0554   0.3401   0.3402
     0.6806   0.6816   0.7247   0.7247   0.7745   0.7751   0.9342   0.9346
     1.0627   1.0638   1.1777   1.6732   1.7158   1.7189   1.7562   1.7565
     1.8931   1.8953   1.9498   1.9501   2.1324   2.1326   2.4176   2.4439
     2.4454   2.4655   2.8999   2.9017   2.9232   2.9250   2.9404   2.9407
     3.0062   3.0068   3.1638   3.2845   3.2854   3.4694   3.4801   3.5812
     3.6531   3.6534   3.9529   3.9536   4.0100   4.0115   4.0116   4.1581
     4.1589   4.1785   4.1786   4.4539   4.4559   4.4921   4.4922   4.6056
     4.6111   4.6728   4.6747   4.9479   5.0376   5.5553   5.5560   5.6320
     5.6346   5.7627   5.7632   5.8179   5.8347   5.8353   5.8517   5.8520
     5.9394   5.9639   5.9801   6.1485   6.2508   6.2519   6.2623   6.2633
     6.2684   6.2775   6.2796   6.3435   6.4295   6.4377   6.4892   6.5470

          k =-0.2500 0.2500-0.0833 (167653 PWs)   bands (ev):

   -19.1934  -7.0063  -6.7800  -6.2499  -6.2495  -5.8115  -5.4080  -5.3095
    -5.3091  -5.0875  -5.0875  -4.9908  -4.9901  -4.8570  -4.8494  -4.7400
    -4.6514  -4.6475  -4.6262  -4.6261  -4.4451  -4.4440  -4.4437  -4.4171
    -4.4130  -4.4125  -4.4089  -4.3555  -4.3550  -4.3527  -4.3524  -4.2889
    -4.2604  -4.2603  -4.2037  -4.2003  -4.1991  -4.1631  -4.1627  -4.1490
    -4.1446  -4.1258  -4.1258  -4.0883  -4.0560  -4.0559  -4.0535  -4.0504
    -4.0503  -4.0200  -3.9897  -3.9894  -3.9601  -3.9599  -3.9560  -3.9559
    -3.9538  -3.9479  -3.9159  -3.9152  -3.8555  -3.8551  -3.8231  -3.7966
    -3.7900  -3.7864  -3.7859  -3.7638  -3.7637  -3.7519  -3.7016  -3.7015
    -3.6957  -3.6954  -3.6103  -3.6099  -3.5881  -3.5876  -3.5533  -3.5501
    -3.5382  -3.5120  -3.5120  -3.4678  -3.4675  -3.4651  -3.4649  -3.4404
    -3.4400  -3.3597  -3.3596  -3.3578  -3.3443  -3.3284  -3.3258  -3.3129
    -3.3127  -3.3056  -3.3054  -3.2628  -3.2627  -3.2398  -3.2395  -3.2045
    -3.2035  -3.2029  -3.1768  -3.1558  -3.1557  -3.1096  -3.1094  -3.0769
    -3.0494  -3.0489  -3.0484  -3.0477  -3.0439  -3.0437  -3.0161  -3.0075
    -2.9684  -2.9684  -2.9473  -2.9238  -2.9208  -2.9207  -2.9142  -2.9138
    -2.9098  -2.9097  -2.8746  -2.8735  -2.8735  -2.8682  -2.8680  -2.8631
    -2.8079  -2.8020  -2.7982  -2.7978  -2.7758  -2.7757  -2.7705  -2.6818
    -2.6713  -2.6710  -2.6617  -2.6614  -2.6556  -2.6540  -2.6534  -2.6456
    -2.6454  -2.6348  -2.6274  -2.6244  -2.6240  -2.6197  -2.6097  -2.6042
    -2.6023  -2.5801  -2.5696  -2.5692  -2.5535  -2.5535  -2.5364  -2.5364
    -2.5277  -2.5275  -2.5070  -2.4943  -2.4943  -2.4890  -2.4887  -2.4550
    -2.4526  -2.4525  -2.3943  -2.3912  -2.3763  -2.3762  -2.3656  -2.3610
    -2.3380  -2.3377  -2.3337  -2.3211  -2.3207  -2.3094  -2.3088  -2.2926
    -2.2920  -2.2652  -2.2652  -2.2551  -2.2548  -2.2452  -2.2449  -2.2278
    -2.2148  -2.1942  -2.1252  -2.1238  -2.1045  -2.1043  -2.0926  -2.0924
    -2.0427  -2.0420  -2.0271  -2.0075  -1.9951  -1.9949  -1.9768  -1.9585
    -1.9584  -1.9452  -1.9384  -1.9066  -1.9057  -1.9046  -1.8976  -1.8976
    -1.8900  -1.8897  -1.8692  -1.8629  -1.8525  -1.8522  -1.8519  -1.8517
    -1.8508  -1.8501  -1.8366  -1.8166  -1.8165  -1.8132  -1.8077  -1.7949
    -1.7946  -1.7905  -1.7902  -1.7846  -1.7826  -1.7486  -1.7480  -1.7036
    -1.6845  -1.6841  -1.6386  -1.6384  -1.6383  -1.6278  -1.6272  -1.6140
    -1.6132  -1.6062  -1.6057  -1.5957  -1.5952  -1.5751  -1.5750  -1.5382
    -1.5379  -1.5206  -1.4984  -1.4981  -1.4588  -1.4586  -1.4083  -1.4081
    -1.3872  -1.3625  -1.3613  -1.3607  -1.3550  -1.3543  -1.3347  -1.3342
    -1.3336  -1.3331  -1.3315  -1.3309  -1.3305  -1.3293  -1.3278  -1.3011
    -1.3010  -1.2681  -1.2667  -1.2667  -1.2451  -1.2450  -1.2402  -1.2398
    -1.2368  -1.2265  -1.1988  -1.1983  -1.1742  -1.1732  -1.1723  -1.1614
    -1.1525  -1.1413  -1.1409  -1.1120  -1.1116  -1.1049  -1.1047  -1.0664
    -1.0659  -1.0544  -1.0540  -1.0534  -1.0531  -1.0271  -1.0268  -1.0127
    -1.0056  -1.0053  -0.9937  -0.9930  -0.9918  -0.9914  -0.9805  -0.9704
    -0.9694  -0.9629  -0.9627  -0.9559  -0.9518  -0.9516  -0.9355  -0.8939
    -0.8929  -0.8911  -0.8889  -0.8860  -0.8859  -0.8567  -0.8564  -0.8428
    -0.8255  -0.8247  -0.8167  -0.8166  -0.8084  -0.8012  -0.8000  -0.7636
    -0.7632  -0.7520  -0.7520  -0.7318  -0.7316  -0.7162  -0.6920  -0.6840
    -0.6664  -0.6659  -0.6284  -0.6283  -0.6253  -0.6251  -0.6243  -0.6183
    -0.6174  -0.6171  -0.6133  -0.6106  -0.5776  -0.5774  -0.5763  -0.5761
    -0.5747  -0.5739  -0.5607  -0.5603  -0.5321  -0.2697  -0.2638  -0.2185
    -0.2167  -0.1866  -0.1280   0.0245   0.0249   0.0554   0.3401   0.3402
     0.6803   0.6820   0.7247   0.7247   0.7743   0.7752   0.9341   0.9346
     1.0627   1.0638   1.1778   1.6732   1.7158   1.7189   1.7562   1.7565
     1.8922   1.8962   1.9497   1.9502   2.1324   2.1326   2.4177   2.4435
     2.4458   2.4655   2.8991   2.9025   2.9232   2.9250   2.9403   2.9408
     3.0062   3.0068   3.1638   3.2843   3.2856   3.4694   3.4800   3.5812
     3.6530   3.6535   3.9527   3.9537   4.0098   4.0115   4.0118   4.1579
     4.1591   4.1762   4.1811   4.4539   4.4559   4.4919   4.4925   4.6057
     4.6111   4.6720   4.6756   4.9425   5.0422   5.5549   5.5562   5.6284
     5.6388   5.7625   5.7633   5.8338   5.8345   5.8359   5.8516   5.8520
     5.9486   5.9639   6.0138   6.0554   6.2503   6.2524   6.2622   6.2632
     6.2685   6.2777   6.2856   6.3118   6.4349   6.4373   6.5068   6.5581

          k = 0.2500-0.2500-0.0833 (167653 PWs)   bands (ev):

   -19.1934  -7.0063  -6.7800  -6.2499  -6.2495  -5.8115  -5.4080  -5.3095
    -5.3091  -5.0875  -5.0875  -4.9908  -4.9901  -4.8570  -4.8494  -4.7400
    -4.6514  -4.6475  -4.6262  -4.6261  -4.4451  -4.4440  -4.4437  -4.4171
    -4.4130  -4.4125  -4.4089  -4.3555  -4.3550  -4.3527  -4.3524  -4.2889
    -4.2604  -4.2603  -4.2037  -4.2003  -4.1991  -4.1631  -4.1627  -4.1490
    -4.1446  -4.1258  -4.1258  -4.0883  -4.0560  -4.0559  -4.0535  -4.0504
    -4.0503  -4.0200  -3.9897  -3.9894  -3.9601  -3.9599  -3.9560  -3.9559
    -3.9538  -3.9479  -3.9159  -3.9152  -3.8555  -3.8551  -3.8231  -3.7966
    -3.7900  -3.7864  -3.7859  -3.7638  -3.7637  -3.7519  -3.7016  -3.7015
    -3.6957  -3.6954  -3.6103  -3.6099  -3.5881  -3.5876  -3.5533  -3.5501
    -3.5382  -3.5120  -3.5120  -3.4678  -3.4675  -3.4651  -3.4649  -3.4404
    -3.4400  -3.3597  -3.3596  -3.3578  -3.3443  -3.3284  -3.3258  -3.3129
    -3.3127  -3.3056  -3.3054  -3.2628  -3.2627  -3.2398  -3.2395  -3.2045
    -3.2035  -3.2029  -3.1768  -3.1558  -3.1557  -3.1096  -3.1094  -3.0769
    -3.0494  -3.0489  -3.0484  -3.0477  -3.0439  -3.0437  -3.0161  -3.0075
    -2.9684  -2.9684  -2.9473  -2.9238  -2.9208  -2.9207  -2.9142  -2.9138
    -2.9098  -2.9097  -2.8746  -2.8735  -2.8735  -2.8682  -2.8680  -2.8631
    -2.8079  -2.8020  -2.7982  -2.7978  -2.7758  -2.7757  -2.7705  -2.6818
    -2.6713  -2.6710  -2.6617  -2.6614  -2.6556  -2.6540  -2.6534  -2.6456
    -2.6454  -2.6348  -2.6274  -2.6244  -2.6240  -2.6197  -2.6097  -2.6042
    -2.6023  -2.5801  -2.5696  -2.5692  -2.5535  -2.5535  -2.5364  -2.5364
    -2.5277  -2.5275  -2.5070  -2.4943  -2.4943  -2.4890  -2.4887  -2.4550
    -2.4526  -2.4525  -2.3943  -2.3912  -2.3763  -2.3762  -2.3656  -2.3610
    -2.3380  -2.3377  -2.3337  -2.3211  -2.3207  -2.3094  -2.3088  -2.2926
    -2.2920  -2.2652  -2.2652  -2.2551  -2.2548  -2.2452  -2.2449  -2.2278
    -2.2148  -2.1942  -2.1252  -2.1238  -2.1045  -2.1043  -2.0926  -2.0924
    -2.0427  -2.0420  -2.0271  -2.0075  -1.9951  -1.9949  -1.9768  -1.9585
    -1.9584  -1.9452  -1.9384  -1.9066  -1.9057  -1.9046  -1.8976  -1.8976
    -1.8900  -1.8897  -1.8692  -1.8629  -1.8525  -1.8522  -1.8519  -1.8517
    -1.8508  -1.8501  -1.8366  -1.8166  -1.8165  -1.8132  -1.8077  -1.7949
    -1.7946  -1.7905  -1.7902  -1.7846  -1.7826  -1.7486  -1.7480  -1.7036
    -1.6845  -1.6841  -1.6386  -1.6384  -1.6383  -1.6278  -1.6272  -1.6140
    -1.6132  -1.6062  -1.6057  -1.5957  -1.5952  -1.5751  -1.5750  -1.5382
    -1.5379  -1.5206  -1.4984  -1.4981  -1.4588  -1.4586  -1.4083  -1.4081
    -1.3872  -1.3625  -1.3613  -1.3607  -1.3550  -1.3543  -1.3347  -1.3342
    -1.3336  -1.3331  -1.3315  -1.3309  -1.3305  -1.3293  -1.3278  -1.3011
    -1.3010  -1.2681  -1.2667  -1.2667  -1.2451  -1.2450  -1.2402  -1.2398
    -1.2368  -1.2265  -1.1988  -1.1983  -1.1742  -1.1732  -1.1723  -1.1614
    -1.1525  -1.1413  -1.1409  -1.1120  -1.1116  -1.1049  -1.1047  -1.0664
    -1.0659  -1.0544  -1.0540  -1.0534  -1.0531  -1.0271  -1.0268  -1.0127
    -1.0056  -1.0053  -0.9937  -0.9930  -0.9918  -0.9914  -0.9805  -0.9704
    -0.9694  -0.9629  -0.9627  -0.9559  -0.9518  -0.9516  -0.9355  -0.8939
    -0.8929  -0.8911  -0.8889  -0.8860  -0.8859  -0.8567  -0.8564  -0.8428
    -0.8255  -0.8247  -0.8167  -0.8166  -0.8084  -0.8012  -0.8000  -0.7636
    -0.7632  -0.7520  -0.7520  -0.7318  -0.7316  -0.7162  -0.6920  -0.6840
    -0.6664  -0.6659  -0.6284  -0.6283  -0.6253  -0.6251  -0.6243  -0.6183
    -0.6174  -0.6171  -0.6133  -0.6106  -0.5776  -0.5774  -0.5763  -0.5761
    -0.5747  -0.5739  -0.5607  -0.5603  -0.5321  -0.2697  -0.2638  -0.2185
    -0.2167  -0.1866  -0.1280   0.0245   0.0249   0.0554   0.3401   0.3402
     0.6803   0.6820   0.7247   0.7247   0.7743   0.7752   0.9341   0.9346
     1.0627   1.0638   1.1778   1.6732   1.7158   1.7189   1.7562   1.7565
     1.8922   1.8962   1.9497   1.9502   2.1324   2.1326   2.4177   2.4435
     2.4458   2.4655   2.8991   2.9025   2.9232   2.9250   2.9403   2.9408
     3.0062   3.0068   3.1638   3.2843   3.2856   3.4694   3.4800   3.5812
     3.6530   3.6535   3.9527   3.9537   4.0098   4.0115   4.0118   4.1579
     4.1591   4.1762   4.1811   4.4539   4.4559   4.4919   4.4925   4.6057
     4.6111   4.6720   4.6756   4.9425   5.0422   5.5549   5.5562   5.6284
     5.6388   5.7625   5.7633   5.8337   5.8345   5.8359   5.8516   5.8520
     5.9486   5.9639   6.0142   6.0550   6.2503   6.2524   6.2622   6.2632
     6.2685   6.2777   6.2856   6.3118   6.4348   6.4374   6.5066   6.5584

          k =-0.2500 0.2500 0.2500 (167588 PWs)   bands (ev):

   -19.1934  -7.0063  -6.7800  -6.2499  -6.2495  -5.8115  -5.4080  -5.3095
    -5.3091  -5.0875  -5.0875  -4.9908  -4.9901  -4.8570  -4.8494  -4.7400
    -4.6514  -4.6475  -4.6262  -4.6261  -4.4451  -4.4440  -4.4437  -4.4171
    -4.4130  -4.4125  -4.4089  -4.3555  -4.3550  -4.3527  -4.3524  -4.2889
    -4.2604  -4.2603  -4.2037  -4.2003  -4.1991  -4.1631  -4.1627  -4.1490
    -4.1446  -4.1258  -4.1258  -4.0883  -4.0560  -4.0559  -4.0535  -4.0504
    -4.0503  -4.0200  -3.9897  -3.9894  -3.9601  -3.9599  -3.9560  -3.9559
    -3.9538  -3.9479  -3.9159  -3.9152  -3.8555  -3.8551  -3.8231  -3.7966
    -3.7900  -3.7864  -3.7859  -3.7638  -3.7637  -3.7519  -3.7016  -3.7015
    -3.6957  -3.6954  -3.6103  -3.6099  -3.5881  -3.5876  -3.5533  -3.5501
    -3.5382  -3.5120  -3.5120  -3.4678  -3.4675  -3.4651  -3.4649  -3.4404
    -3.4400  -3.3597  -3.3596  -3.3578  -3.3443  -3.3284  -3.3258  -3.3129
    -3.3127  -3.3056  -3.3054  -3.2627  -3.2627  -3.2398  -3.2395  -3.2045
    -3.2035  -3.2029  -3.1768  -3.1558  -3.1557  -3.1096  -3.1094  -3.0769
    -3.0494  -3.0489  -3.0484  -3.0477  -3.0439  -3.0437  -3.0161  -3.0075
    -2.9684  -2.9684  -2.9473  -2.9238  -2.9208  -2.9207  -2.9142  -2.9138
    -2.9098  -2.9097  -2.8746  -2.8735  -2.8735  -2.8682  -2.8680  -2.8631
    -2.8079  -2.8020  -2.7982  -2.7978  -2.7758  -2.7757  -2.7705  -2.6819
    -2.6713  -2.6710  -2.6617  -2.6614  -2.6556  -2.6540  -2.6534  -2.6456
    -2.6454  -2.6348  -2.6274  -2.6244  -2.6240  -2.6197  -2.6097  -2.6042
    -2.6023  -2.5801  -2.5696  -2.5692  -2.5535  -2.5535  -2.5364  -2.5364
    -2.5277  -2.5275  -2.5070  -2.4943  -2.4943  -2.4890  -2.4887  -2.4550
    -2.4526  -2.4525  -2.3944  -2.3912  -2.3762  -2.3761  -2.3656  -2.3610
    -2.3380  -2.3377  -2.3337  -2.3211  -2.3207  -2.3094  -2.3088  -2.2926
    -2.2920  -2.2652  -2.2652  -2.2551  -2.2548  -2.2452  -2.2449  -2.2278
    -2.2148  -2.1942  -2.1252  -2.1238  -2.1045  -2.1043  -2.0926  -2.0924
    -2.0427  -2.0420  -2.0271  -2.0076  -1.9951  -1.9949  -1.9768  -1.9585
    -1.9584  -1.9452  -1.9384  -1.9066  -1.9057  -1.9046  -1.8976  -1.8976
    -1.8900  -1.8897  -1.8692  -1.8629  -1.8525  -1.8522  -1.8519  -1.8517
    -1.8508  -1.8501  -1.8366  -1.8166  -1.8165  -1.8132  -1.8077  -1.7949
    -1.7946  -1.7905  -1.7902  -1.7846  -1.7826  -1.7486  -1.7480  -1.7036
    -1.6845  -1.6841  -1.6386  -1.6384  -1.6383  -1.6278  -1.6272  -1.6140
    -1.6132  -1.6062  -1.6057  -1.5957  -1.5952  -1.5751  -1.5750  -1.5382
    -1.5379  -1.5206  -1.4984  -1.4981  -1.4588  -1.4586  -1.4083  -1.4081
    -1.3872  -1.3625  -1.3613  -1.3607  -1.3551  -1.3543  -1.3347  -1.3342
    -1.3336  -1.3331  -1.3315  -1.3309  -1.3305  -1.3293  -1.3278  -1.3011
    -1.3010  -1.2681  -1.2667  -1.2667  -1.2451  -1.2450  -1.2402  -1.2398
    -1.2368  -1.2265  -1.1988  -1.1983  -1.1742  -1.1732  -1.1723  -1.1614
    -1.1525  -1.1413  -1.1409  -1.1120  -1.1116  -1.1049  -1.1047  -1.0664
    -1.0659  -1.0544  -1.0540  -1.0534  -1.0531  -1.0271  -1.0268  -1.0127
    -1.0056  -1.0053  -0.9937  -0.9930  -0.9918  -0.9914  -0.9805  -0.9704
    -0.9694  -0.9629  -0.9627  -0.9559  -0.9518  -0.9516  -0.9355  -0.8939
    -0.8929  -0.8911  -0.8889  -0.8860  -0.8859  -0.8567  -0.8564  -0.8428
    -0.8255  -0.8247  -0.8167  -0.8166  -0.8084  -0.8012  -0.8000  -0.7636
    -0.7632  -0.7520  -0.7520  -0.7317  -0.7316  -0.7162  -0.6920  -0.6840
    -0.6664  -0.6659  -0.6284  -0.6283  -0.6253  -0.6251  -0.6243  -0.6183
    -0.6174  -0.6171  -0.6133  -0.6106  -0.5776  -0.5774  -0.5763  -0.5761
    -0.5747  -0.5739  -0.5607  -0.5603  -0.5321  -0.2697  -0.2638  -0.2185
    -0.2167  -0.1866  -0.1279   0.0245   0.0249   0.0554   0.3401   0.3402
     0.6803   0.6820   0.7247   0.7247   0.7743   0.7752   0.9341   0.9346
     1.0627   1.0638   1.1778   1.6732   1.7158   1.7189   1.7562   1.7565
     1.8922   1.8962   1.9497   1.9502   2.1324   2.1326   2.4177   2.4435
     2.4458   2.4655   2.8991   2.9025   2.9232   2.9250   2.9403   2.9408
     3.0062   3.0068   3.1638   3.2843   3.2857   3.4694   3.4800   3.5812
     3.6530   3.6535   3.9527   3.9537   4.0098   4.0115   4.0118   4.1579
     4.1591   4.1763   4.1812   4.4539   4.4559   4.4919   4.4925   4.6057
     4.6111   4.6720   4.6756   4.9429   5.0389   5.5549   5.5562   5.6287
     5.6383   5.7625   5.7633   5.8169   5.8345   5.8354   5.8516   5.8521
     5.9509   5.9639   6.0141   6.1023   6.2503   6.2524   6.2622   6.2632
     6.2685   6.2779   6.3182   6.3750   6.4279   6.4442   6.4887   6.5594

     the Fermi energy is     1.0062 ev

!    total energy              =   -7379.97855289 Ry
     Harris-Foulkes estimate   =   -7379.97855289 Ry
     estimated scf accuracy    <          1.5E-09 Ry

     The total energy is the sum of the following terms:

     one-electron contribution =  -48242.16985225 Ry
     hartree contribution      =   24672.26019280 Ry
     xc contribution           =   -3556.23780846 Ry
     ewald contribution        =   19746.16788390 Ry
     smearing contrib. (-TS)   =       0.00103112 Ry

     convergence has been achieved in  28 iterations

     Writing output data file 3771056.save

     init_run     :    104.24s CPU    109.18s WALL (       1 calls)
     electrons    :   7702.60s CPU   8024.16s WALL (       1 calls)

     Called by init_run:
     wfcinit      :     81.75s CPU     86.29s WALL (       1 calls)
     potinit      :      3.54s CPU      3.64s WALL (       1 calls)

     Called by electrons:
     c_bands      :   6601.91s CPU   6864.61s WALL (      29 calls)
     sum_band     :    826.03s CPU    876.28s WALL (      29 calls)
     v_of_rho     :     20.43s CPU     21.98s WALL (      29 calls)
     newd         :    257.04s CPU    260.26s WALL (      29 calls)
     mix_rho      :      4.84s CPU      5.21s WALL (      29 calls)

     Called by c_bands:
     init_us_2    :      8.88s CPU      9.25s WALL (     354 calls)
     cegterg      :   6486.43s CPU   6745.45s WALL (     174 calls)

     Called by *egterg:
     h_psi        :   2638.03s CPU   2847.98s WALL (    1038 calls)
     s_psi        :    378.44s CPU    380.71s WALL (    1038 calls)
     g_psi        :      4.91s CPU      4.88s WALL (     858 calls)
     cdiaghg      :   1928.99s CPU   1935.05s WALL (    1026 calls)

     Called by h_psi:
     add_vuspsi   :    379.40s CPU    381.66s WALL (    1038 calls)

     General routines
     calbec       :    595.42s CPU    597.48s WALL (    1212 calls)
     fft          :     67.23s CPU     69.82s WALL (     464 calls)
     ffts         :      1.44s CPU      1.64s WALL (      58 calls)
     fftw         :   2070.33s CPU   2307.58s WALL (  476408 calls)
     interpolate  :      4.65s CPU      5.24s WALL (      58 calls)
     davcio       :      0.01s CPU      0.12s WALL (       6 calls)

     Parallel routines
     fft_scatter  :   1582.62s CPU   1773.60s WALL (  476930 calls)

     PWSCF        :     2h10m CPU        2h15m WALL


   This run was terminated on:   2:18:23  13Aug2015            

=------------------------------------------------------------------------------=
   JOB DONE.
=------------------------------------------------------------------------------=
