Setting SGE environment for SCC

     Program PWSCF v.5.1.2 starts on 13Aug2015 at  4:20:14 

     This program is part of the open-source Quantum ESPRESSO suite
     for quantum simulation of materials; please cite
         "P. Giannozzi et al., J. Phys.:Condens. Matter 21 395502 (2009);
          URL http://www.quantum-espresso.org", 
     in publications or presentations arising from this work. More details at
     http://www.quantum-espresso.org/quote

     Parallel version (MPI), running on    32 processors
     R & G space division:  proc/nbgrp/npool/nimage =      32
     Reading input from top.O1.Au62.d.3.4.phi.45.psi.180.in
Warning: card &IONS ignored
Warning: card / ignored
Warning: card &CELL ignored
Warning: card / ignored

     Current dimensions of program PWSCF are:
     Max number of different atomic species (ntypx) = 10
     Max number of k-points (npk) =  40000
     Max angular momentum in pseudopotentials (lmaxx) =  3

     Subspace diagonalization in iterative solution of the eigenvalue problem:
     a serial algorithm will be used


     Parallelization info
     --------------------
     sticks:   dense  smooth     PW     G-vecs:    dense   smooth      PW
     Min         578     289     74               118518    41891    5486
     Max         579     290     75               118533    41932    5497
     Sum       18505    9265   2385              3792731  1341081  175711


     Title: 
     top.O1.Au62.d.3.4.phi.45.psi.180                                           


     bravais-lattice index     =            8
     lattice parameter (alat)  =      24.1233  a.u.
     unit-cell volume          =   28076.2361 (a.u.)^3
     number of atoms/cell      =           75
     number of atomic types    =            3
     number of electrons       =       800.00
     number of Kohn-Sham states=          480
     kinetic-energy cutoff     =      50.0000  Ry
     charge density cutoff     =     400.0000  Ry
     convergence threshold     =      1.0E-08
     mixing beta               =       0.7000
     number of iterations used =            8  plain     mixing
     Exchange-correlation      =  SLA  PW   PBE  PBE ( 1  4  3  4 0 0)

     celldm(1)=  24.123277  celldm(2)=   1.000000  celldm(3)=   2.000000
     celldm(4)=   0.000000  celldm(5)=   0.000000  celldm(6)=   0.000000

     crystal axes: (cart. coord. in units of alat)
               a(1) = (   1.000000   0.000000   0.000000 )  
               a(2) = (   0.000000   1.000000   0.000000 )  
               a(3) = (   0.000000   0.000000   2.000000 )  

     reciprocal axes: (cart. coord. in units 2 pi/alat)
               b(1) = (  1.000000  0.000000  0.000000 )  
               b(2) = (  0.000000  1.000000  0.000000 )  
               b(3) = (  0.000000  0.000000  0.500000 )  


     PseudoPot. # 1 for Au read from file:
     /home/scc/andrejb/qe/pseudo/Au.pbe-nd-van.UPF
     MD5 check sum: 458681b50f36d87ef23c61b04bba420a
     Pseudo is Ultrasoft + core correction, Zval = 11.0
     Generated by new atomic code, or converted to UPF format
     Using radial grid of  985 points,  3 beta functions with: 
                l(1) =   1
                l(2) =   2
                l(3) =   2
     Q(r) pseudized with  8 coefficients,  rinner =    1.100   1.100   1.100
                                                       1.100   1.100

     PseudoPot. # 2 for H  read from file:
     /home/scc/andrejb/qe/pseudo/H.pbe-van_ak.UPF
     MD5 check sum: 403db7282739603aa925980fa9b8608d
     Pseudo is Ultrasoft, Zval =  1.0
     Generated by new atomic code, or converted to UPF format
     Using radial grid of  615 points,  1 beta functions with: 
                l(1) =   0
     Q(r) pseudized with  8 coefficients,  rinner =    0.800

     PseudoPot. # 3 for O  read from file:
     /home/scc/andrejb/qe/pseudo/O.pbe-van_ak.UPF
     MD5 check sum: 4b8c549914a63cae506c6ff22b5af4fe
     Pseudo is Ultrasoft, Zval =  6.0
     Generated by new atomic code, or converted to UPF format
     Using radial grid of  737 points,  4 beta functions with: 
                l(1) =   0
                l(2) =   0
                l(3) =   1
                l(4) =   1
     Q(r) pseudized with  8 coefficients,  rinner =    0.800   0.800   0.800


     atomic species   valence    mass     pseudopotential
        Au            11.00   196.96657     Au( 1.00)
        H              1.00     1.01000     H ( 1.00)
        O              6.00    16.00000     O ( 1.00)

     No symmetry found



   Cartesian axes

     site n.     atom                  positions (alat units)
         1           O   tau(   1) = (   0.4998324   0.3332216   0.7656616  )
         2           H   tau(   2) = (   0.4942419   0.3942089   0.7201677  )
         3           H   tau(   3) = (   0.5052408   0.2740707   0.7178040  )
         4           Au  tau(   4) = (   0.0000000   0.0000000   0.0000000  )
         5           Au  tau(   5) = (   0.3332217   0.0000000   0.0000000  )
         6           Au  tau(   6) = (   0.6664435   0.0000000   0.0000000  )
         7           Au  tau(   7) = (   0.1666109   0.1666109   0.0000000  )
         8           Au  tau(   8) = (   0.4998326   0.1666109   0.0000000  )
         9           Au  tau(   9) = (   0.8330542   0.1666109   0.0000000  )
        10           Au  tau(  10) = (   0.0000000   0.3332217   0.0000000  )
        11           Au  tau(  11) = (   0.3332217   0.3332217   0.0000000  )
        12           Au  tau(  12) = (   0.6664435   0.3332217   0.0000000  )
        13           Au  tau(  13) = (   0.1666109   0.4998326   0.0000000  )
        14           Au  tau(  14) = (   0.4998326   0.4998326   0.0000000  )
        15           Au  tau(  15) = (   0.8330542   0.4998326   0.0000000  )
        16           Au  tau(  16) = (   0.0000000   0.6664435   0.0000000  )
        17           Au  tau(  17) = (   0.3332217   0.6664435   0.0000000  )
        18           Au  tau(  18) = (   0.6664435   0.6664435   0.0000000  )
        19           Au  tau(  19) = (   0.1666109   0.8330542   0.0000000  )
        20           Au  tau(  20) = (   0.4998326   0.8330542   0.0000000  )
        21           Au  tau(  21) = (   0.8330542   0.8330542   0.0000000  )
        22           Au  tau(  22) = (   0.1666109   0.0000000   0.1666109  )
        23           Au  tau(  23) = (   0.4998326   0.0000000   0.1666109  )
        24           Au  tau(  24) = (   0.8330542   0.0000000   0.1666109  )
        25           Au  tau(  25) = (   0.0000000   0.1666109   0.1666109  )
        26           Au  tau(  26) = (   0.3332217   0.1666109   0.1666109  )
        27           Au  tau(  27) = (   0.6664435   0.1666109   0.1666109  )
        28           Au  tau(  28) = (   0.1666109   0.3332217   0.1666109  )
        29           Au  tau(  29) = (   0.4998326   0.3332217   0.1666109  )
        30           Au  tau(  30) = (   0.8330542   0.3332217   0.1666109  )
        31           Au  tau(  31) = (   0.0000000   0.4998326   0.1666109  )
        32           Au  tau(  32) = (   0.3332217   0.4998326   0.1666109  )
        33           Au  tau(  33) = (   0.6664435   0.4998326   0.1666109  )
        34           Au  tau(  34) = (   0.1666109   0.6664435   0.1666109  )
        35           Au  tau(  35) = (   0.4998326   0.6664435   0.1666109  )
        36           Au  tau(  36) = (   0.8330542   0.6664435   0.1666109  )
        37           Au  tau(  37) = (   0.0000000   0.8330542   0.1666109  )
        38           Au  tau(  38) = (   0.3332217   0.8330542   0.1666109  )
        39           Au  tau(  39) = (   0.6664435   0.8330542   0.1666109  )
        40           Au  tau(  40) = (  -0.0000182  -0.0000182   0.3335478  )
        41           Au  tau(  41) = (   0.3332215  -0.0000181   0.3335472  )
        42           Au  tau(  42) = (   0.6664447  -0.0000183   0.3335481  )
        43           Au  tau(  43) = (  -0.0000181   0.3332215   0.3335472  )
        44           Au  tau(  44) = (   0.3332215   0.3332215   0.3335468  )
        45           Au  tau(  45) = (   0.6664445   0.3332215   0.3335478  )
        46           Au  tau(  46) = (  -0.0000183   0.6664447   0.3335481  )
        47           Au  tau(  47) = (   0.3332215   0.6664445   0.3335478  )
        48           Au  tau(  48) = (   0.6664446   0.6664446   0.3335486  )
        49           Au  tau(  49) = (   0.1666097   0.1666097   0.3335483  )
        50           Au  tau(  50) = (   0.4998320   0.1666098   0.3335477  )
        51           Au  tau(  51) = (   0.8330732   0.1666096   0.3335481  )
        52           Au  tau(  52) = (   0.1666098   0.4998320   0.3335477  )
        53           Au  tau(  53) = (   0.4998321   0.4998321   0.3335470  )
        54           Au  tau(  54) = (   0.8330730   0.4998322   0.3335474  )
        55           Au  tau(  55) = (   0.1666096   0.8330732   0.3335481  )
        56           Au  tau(  56) = (   0.4998322   0.8330730   0.3335474  )
        57           Au  tau(  57) = (   0.8330731   0.8330731   0.3335478  )
        58           Au  tau(  58) = (   0.1666104  -0.0000111   0.4993095  )
        59           Au  tau(  59) = (   0.4998323  -0.0000112   0.4993099  )
        60           Au  tau(  60) = (   0.8330661  -0.0000111   0.4993009  )
        61           Au  tau(  61) = (  -0.0000111   0.1666104   0.4993095  )
        62           Au  tau(  62) = (   0.3332214   0.1666106   0.4993185  )
        63           Au  tau(  63) = (   0.6664437   0.1666106   0.4993187  )
        64           Au  tau(  64) = (   0.1666106   0.3332214   0.4993185  )
        65           Au  tau(  65) = (   0.4998324   0.3332216   0.4993185  )
        66           Au  tau(  66) = (   0.8330659   0.3332215   0.4993103  )
        67           Au  tau(  67) = (  -0.0000112   0.4998323   0.4993099  )
        68           Au  tau(  68) = (   0.3332216   0.4998324   0.4993185  )
        69           Au  tau(  69) = (   0.6664436   0.4998325   0.4993187  )
        70           Au  tau(  70) = (   0.1666106   0.6664437   0.4993187  )
        71           Au  tau(  71) = (   0.4998325   0.6664436   0.4993187  )
        72           Au  tau(  72) = (   0.8330658   0.6664438   0.4993102  )
        73           Au  tau(  73) = (  -0.0000111   0.8330661   0.4993009  )
        74           Au  tau(  74) = (   0.3332215   0.8330659   0.4993103  )
        75           Au  tau(  75) = (   0.6664438   0.8330658   0.4993102  )

     number of k points=     6  Marzari-Vanderbilt smearing, width (Ry)=  0.0200
                       cart. coord. in units 2pi/alat
        k(    1) = (   0.2500000   0.2500000   0.0833333), wk =   0.3333333
        k(    2) = (   0.2500000   0.2500000  -0.2500000), wk =   0.3333333
        k(    3) = (  -0.2500000  -0.2500000   0.0833333), wk =   0.3333333
        k(    4) = (  -0.2500000   0.2500000  -0.0833333), wk =   0.3333333
        k(    5) = (   0.2500000  -0.2500000  -0.0833333), wk =   0.3333333
        k(    6) = (  -0.2500000   0.2500000   0.2500000), wk =   0.3333333

     Dense  grid:  3792731 G-vectors     FFT dimensions: ( 160, 160, 320)

     Smooth grid:  1341081 G-vectors     FFT dimensions: ( 120, 120, 225)

     Largest allocated arrays     est. size (Mb)     dimensions
        Kohn-Sham Wavefunctions        38.58 Mb     (    5267,  480)
        NL pseudopotentials            76.03 Mb     (    5267,  946)
        Each V/rho on FFT grid          3.91 Mb     (  256000)
        Each G-vector array             0.90 Mb     (  118520)
        G-vector shells                 0.08 Mb     (   10286)
     Largest temporary arrays     est. size (Mb)     dimensions
        Auxiliary wavefunctions       154.31 Mb     (    5267, 1920)
        Each subspace H/S matrix       56.25 Mb     (    1920, 1920)
        Each <psi_i|beta_j> matrix      6.93 Mb     (     946,  480)
        Arrays for rho mixing          31.25 Mb     (  256000,    8)

     Initial potential from superposition of free atoms
     Check: negative starting charge=   -1.945213

     starting charge  799.16392, renormalised to  800.00000

     negative rho (up, down):  1.947E+00 0.000E+00
     Starting wfc are  654 randomized atomic wfcs

     total cpu time spent up to now is      117.6 secs

     Self-consistent Calculation

     iteration #  1     ecut=    50.00 Ry     beta=0.70
     Davidson diagonalization with overlap
     ethr =  1.00E-02,  avg # of iterations =  3.0

     Threshold (ethr) on eigenvalues was too large:
     Diagonalizing with lowered threshold

     Davidson diagonalization with overlap
     ethr =  4.90E-04,  avg # of iterations =  2.0

     negative rho (up, down):  1.932E+00 0.000E+00

     total cpu time spent up to now is      523.4 secs

     total energy              =   -7377.44542972 Ry
     Harris-Foulkes estimate   =   -7380.94076156 Ry
     estimated scf accuracy    <       4.44650956 Ry

     iteration #  2     ecut=    50.00 Ry     beta=0.70
     Davidson diagonalization with overlap
     ethr =  5.56E-04,  avg # of iterations = 11.3

     negative rho (up, down):  1.930E+00 0.000E+00

     total cpu time spent up to now is     1255.2 secs

     total energy              =   -7369.05824222 Ry
     Harris-Foulkes estimate   =   -7387.83846314 Ry
     estimated scf accuracy    <      96.25057932 Ry

     iteration #  3     ecut=    50.00 Ry     beta=0.70
     Davidson diagonalization with overlap
     ethr =  5.56E-04,  avg # of iterations =  6.0

     negative rho (up, down):  1.946E+00 0.000E+00

     total cpu time spent up to now is     1699.4 secs

     total energy              =   -7378.48055649 Ry
     Harris-Foulkes estimate   =   -7380.77171363 Ry
     estimated scf accuracy    <       9.32968957 Ry

     iteration #  4     ecut=    50.00 Ry     beta=0.70
     Davidson diagonalization with overlap
     ethr =  5.56E-04,  avg # of iterations =  6.0

     negative rho (up, down):  1.949E+00 0.000E+00

     total cpu time spent up to now is     1951.1 secs

     total energy              =   -7379.07019003 Ry
     Harris-Foulkes estimate   =   -7380.67904968 Ry
     estimated scf accuracy    <      10.68981310 Ry

     iteration #  5     ecut=    50.00 Ry     beta=0.70
     Davidson diagonalization with overlap
     ethr =  5.56E-04,  avg # of iterations =  5.5

     negative rho (up, down):  1.960E+00 0.000E+00

     total cpu time spent up to now is     2204.1 secs

     total energy              =   -7379.76265119 Ry
     Harris-Foulkes estimate   =   -7380.32346103 Ry
     estimated scf accuracy    <       3.95775694 Ry

     iteration #  6     ecut=    50.00 Ry     beta=0.70
     Davidson diagonalization with overlap
     ethr =  4.95E-04,  avg # of iterations =  2.3

     negative rho (up, down):  1.963E+00 0.000E+00

     total cpu time spent up to now is     2413.8 secs

     total energy              =   -7379.96233100 Ry
     Harris-Foulkes estimate   =   -7380.03325870 Ry
     estimated scf accuracy    <       0.24644067 Ry

     iteration #  7     ecut=    50.00 Ry     beta=0.70
     Davidson diagonalization with overlap
     ethr =  3.08E-05,  avg # of iterations =  6.3

     negative rho (up, down):  1.966E+00 0.000E+00

     total cpu time spent up to now is     2692.2 secs

     total energy              =   -7379.97039430 Ry
     Harris-Foulkes estimate   =   -7380.02873419 Ry
     estimated scf accuracy    <       0.32094419 Ry

     iteration #  8     ecut=    50.00 Ry     beta=0.70
     Davidson diagonalization with overlap
     ethr =  3.08E-05,  avg # of iterations =  3.0

     negative rho (up, down):  1.968E+00 0.000E+00

     total cpu time spent up to now is     2905.7 secs

     total energy              =   -7379.98245946 Ry
     Harris-Foulkes estimate   =   -7380.00366183 Ry
     estimated scf accuracy    <       0.08737370 Ry

     iteration #  9     ecut=    50.00 Ry     beta=0.70
     Davidson diagonalization with overlap
     c_bands:  3 eigenvalues not converged
     ethr =  1.09E-05,  avg # of iterations = 12.0

     negative rho (up, down):  1.969E+00 0.000E+00

     total cpu time spent up to now is     3229.4 secs

     total energy              =   -7379.98165360 Ry
     Harris-Foulkes estimate   =   -7379.99367811 Ry
     estimated scf accuracy    <       0.04009361 Ry

     iteration # 10     ecut=    50.00 Ry     beta=0.70
     Davidson diagonalization with overlap
     ethr =  5.01E-06,  avg # of iterations = 10.7

     negative rho (up, down):  1.969E+00 0.000E+00

     total cpu time spent up to now is     3546.4 secs

     total energy              =   -7379.98182404 Ry
     Harris-Foulkes estimate   =   -7379.98640093 Ry
     estimated scf accuracy    <       0.01349912 Ry

     iteration # 11     ecut=    50.00 Ry     beta=0.70
     Davidson diagonalization with overlap
     ethr =  1.69E-06,  avg # of iterations =  4.2

     negative rho (up, down):  1.971E+00 0.000E+00

     total cpu time spent up to now is     3787.2 secs

     total energy              =   -7379.98195775 Ry
     Harris-Foulkes estimate   =   -7379.98399047 Ry
     estimated scf accuracy    <       0.00647639 Ry

     iteration # 12     ecut=    50.00 Ry     beta=0.70
     Davidson diagonalization with overlap
     ethr =  8.10E-07,  avg # of iterations =  3.3

     negative rho (up, down):  1.971E+00 0.000E+00

     total cpu time spent up to now is     4003.5 secs

     total energy              =   -7379.98170430 Ry
     Harris-Foulkes estimate   =   -7379.98273060 Ry
     estimated scf accuracy    <       0.00165538 Ry

     iteration # 13     ecut=    50.00 Ry     beta=0.70
     Davidson diagonalization with overlap
     ethr =  2.07E-07,  avg # of iterations =  5.0

     negative rho (up, down):  1.971E+00 0.000E+00

     total cpu time spent up to now is     4343.6 secs

     total energy              =   -7379.98071243 Ry
     Harris-Foulkes estimate   =   -7379.98390920 Ry
     estimated scf accuracy    <       0.01647846 Ry

     iteration # 14     ecut=    50.00 Ry     beta=0.70
     Davidson diagonalization with overlap
     ethr =  2.07E-07,  avg # of iterations =  3.0

     negative rho (up, down):  1.971E+00 0.000E+00

     total cpu time spent up to now is     4608.9 secs

     total energy              =   -7379.98216303 Ry
     Harris-Foulkes estimate   =   -7379.98240591 Ry
     estimated scf accuracy    <       0.00098792 Ry

     iteration # 15     ecut=    50.00 Ry     beta=0.70
     Davidson diagonalization with overlap
     ethr =  1.23E-07,  avg # of iterations =  2.0

     negative rho (up, down):  1.971E+00 0.000E+00

     total cpu time spent up to now is     4808.3 secs

     total energy              =   -7379.98215561 Ry
     Harris-Foulkes estimate   =   -7379.98240410 Ry
     estimated scf accuracy    <       0.00134331 Ry

     iteration # 16     ecut=    50.00 Ry     beta=0.70
     Davidson diagonalization with overlap
     ethr =  1.23E-07,  avg # of iterations =  2.0

     negative rho (up, down):  1.971E+00 0.000E+00

     total cpu time spent up to now is     5004.6 secs

     total energy              =   -7379.98221038 Ry
     Harris-Foulkes estimate   =   -7379.98241406 Ry
     estimated scf accuracy    <       0.00163010 Ry

     iteration # 17     ecut=    50.00 Ry     beta=0.70
     Davidson diagonalization with overlap
     ethr =  1.23E-07,  avg # of iterations =  1.0

     negative rho (up, down):  1.971E+00 0.000E+00

     total cpu time spent up to now is     5185.8 secs

     total energy              =   -7379.98229315 Ry
     Harris-Foulkes estimate   =   -7379.98232100 Ry
     estimated scf accuracy    <       0.00011445 Ry

     iteration # 18     ecut=    50.00 Ry     beta=0.70
     Davidson diagonalization with overlap
     ethr =  1.43E-08,  avg # of iterations =  2.0

     negative rho (up, down):  1.971E+00 0.000E+00

     total cpu time spent up to now is     5385.9 secs

     total energy              =   -7379.98230702 Ry
     Harris-Foulkes estimate   =   -7379.98231458 Ry
     estimated scf accuracy    <       0.00003717 Ry

     iteration # 19     ecut=    50.00 Ry     beta=0.70
     Davidson diagonalization with overlap
     ethr =  4.65E-09,  avg # of iterations =  2.0

     negative rho (up, down):  1.971E+00 0.000E+00

     total cpu time spent up to now is     5582.3 secs

     total energy              =   -7379.98230944 Ry
     Harris-Foulkes estimate   =   -7379.98231279 Ry
     estimated scf accuracy    <       0.00001182 Ry

     iteration # 20     ecut=    50.00 Ry     beta=0.70
     Davidson diagonalization with overlap
     ethr =  1.48E-09,  avg # of iterations =  2.0

     negative rho (up, down):  1.971E+00 0.000E+00

     total cpu time spent up to now is     5779.9 secs

     total energy              =   -7379.98231083 Ry
     Harris-Foulkes estimate   =   -7379.98231189 Ry
     estimated scf accuracy    <       0.00000384 Ry

     iteration # 21     ecut=    50.00 Ry     beta=0.70
     Davidson diagonalization with overlap
     ethr =  4.80E-10,  avg # of iterations =  3.0

     negative rho (up, down):  1.971E+00 0.000E+00

     total cpu time spent up to now is     5986.1 secs

     total energy              =   -7379.98231131 Ry
     Harris-Foulkes estimate   =   -7379.98231149 Ry
     estimated scf accuracy    <       0.00000050 Ry

     iteration # 22     ecut=    50.00 Ry     beta=0.70
     Davidson diagonalization with overlap
     ethr =  6.24E-11,  avg # of iterations =  3.0

     negative rho (up, down):  1.971E+00 0.000E+00

     total cpu time spent up to now is     6223.9 secs

     total energy              =   -7379.98231139 Ry
     Harris-Foulkes estimate   =   -7379.98231150 Ry
     estimated scf accuracy    <       0.00000038 Ry

     iteration # 23     ecut=    50.00 Ry     beta=0.70
     Davidson diagonalization with overlap
     ethr =  4.72E-11,  avg # of iterations =  3.0

     negative rho (up, down):  1.971E+00 0.000E+00

     total cpu time spent up to now is     6436.8 secs

     total energy              =   -7379.98231141 Ry
     Harris-Foulkes estimate   =   -7379.98231147 Ry
     estimated scf accuracy    <       0.00000020 Ry

     iteration # 24     ecut=    50.00 Ry     beta=0.70
     Davidson diagonalization with overlap
     ethr =  2.47E-11,  avg # of iterations =  2.0

     negative rho (up, down):  1.971E+00 0.000E+00

     total cpu time spent up to now is     6634.0 secs

     total energy              =   -7379.98231143 Ry
     Harris-Foulkes estimate   =   -7379.98231146 Ry
     estimated scf accuracy    <       0.00000017 Ry

     iteration # 25     ecut=    50.00 Ry     beta=0.70
     Davidson diagonalization with overlap
     ethr =  2.11E-11,  avg # of iterations =  2.0

     negative rho (up, down):  1.971E+00 0.000E+00

     total cpu time spent up to now is     6828.6 secs

     total energy              =   -7379.98231144 Ry
     Harris-Foulkes estimate   =   -7379.98231145 Ry
     estimated scf accuracy    <       0.00000004 Ry

     iteration # 26     ecut=    50.00 Ry     beta=0.70
     Davidson diagonalization with overlap
     ethr =  4.48E-12,  avg # of iterations =  2.0

     negative rho (up, down):  1.971E+00 0.000E+00

     total cpu time spent up to now is     7023.6 secs

     total energy              =   -7379.98231144 Ry
     Harris-Foulkes estimate   =   -7379.98231145 Ry
     estimated scf accuracy    <       0.00000002 Ry

     iteration # 27     ecut=    50.00 Ry     beta=0.70
     Davidson diagonalization with overlap
     ethr =  2.38E-12,  avg # of iterations =  3.0

     negative rho (up, down):  1.971E+00 0.000E+00

     total cpu time spent up to now is     7253.1 secs

     total energy              =   -7379.98231144 Ry
     Harris-Foulkes estimate   =   -7379.98231145 Ry
     estimated scf accuracy    <       0.00000005 Ry

     iteration # 28     ecut=    50.00 Ry     beta=0.70
     Davidson diagonalization with overlap
     ethr =  2.38E-12,  avg # of iterations =  2.0

     negative rho (up, down):  1.971E+00 0.000E+00

     total cpu time spent up to now is     7459.4 secs

     total energy              =   -7379.98231145 Ry
     Harris-Foulkes estimate   =   -7379.98231145 Ry
     estimated scf accuracy    <       0.00000001 Ry

     iteration # 29     ecut=    50.00 Ry     beta=0.70
     Davidson diagonalization with overlap
     ethr =  1.32E-12,  avg # of iterations =  2.0

     negative rho (up, down):  1.971E+00 0.000E+00

     total cpu time spent up to now is     7654.8 secs

     End of self-consistent calculation

          k = 0.2500 0.2500 0.0833 (167653 PWs)   bands (ev):

   -19.0093  -6.9466  -6.8277  -6.4169  -6.4155  -5.9780  -5.5753  -5.4765
    -5.4751  -5.2540  -5.2540  -5.1593  -5.1560  -5.0239  -5.0158  -4.9065
    -4.8182  -4.8138  -4.7931  -4.7922  -4.6119  -4.6107  -4.6098  -4.5847
    -4.5796  -4.5787  -4.5744  -4.5237  -4.5210  -4.5194  -4.5185  -4.4553
    -4.4272  -4.4266  -4.3711  -4.3669  -4.3655  -4.3304  -4.3288  -4.3157
    -4.3107  -4.2924  -4.2920  -4.2564  -4.2230  -4.2224  -4.2198  -4.2166
    -4.2162  -4.1874  -4.1587  -4.1555  -4.1267  -4.1260  -4.1232  -4.1221
    -4.1208  -4.1139  -4.0840  -4.0811  -4.0236  -4.0211  -3.9898  -3.9654
    -3.9563  -3.9527  -3.9516  -3.9306  -3.9298  -3.9184  -3.8682  -3.8681
    -3.8626  -3.8617  -3.7786  -3.7759  -3.7562  -3.7536  -3.7199  -3.7196
    -3.7027  -3.6791  -3.6786  -3.6351  -3.6335  -3.6327  -3.6312  -3.6077
    -3.6061  -3.5273  -3.5262  -3.5257  -3.5096  -3.4957  -3.4924  -3.4798
    -3.4789  -3.4728  -3.4718  -3.4315  -3.4293  -3.4076  -3.4062  -3.3706
    -3.3692  -3.3437  -3.3228  -3.3223  -3.2768  -3.2756  -3.2474  -3.2262
    -3.2155  -3.2150  -3.2142  -3.2123  -3.2099  -3.1853  -3.1791  -3.1686
    -3.1351  -3.1307  -3.1095  -3.0899  -3.0869  -3.0829  -3.0797  -3.0781
    -3.0763  -3.0747  -3.0414  -3.0403  -3.0396  -3.0348  -3.0314  -3.0295
    -2.9737  -2.9695  -2.9639  -2.9632  -2.9427  -2.9421  -2.9371  -2.8479
    -2.8384  -2.8371  -2.8291  -2.8273  -2.8223  -2.8208  -2.8193  -2.8117
    -2.8115  -2.8014  -2.7939  -2.7901  -2.7860  -2.7852  -2.7755  -2.7716
    -2.7687  -2.7461  -2.7355  -2.7351  -2.7200  -2.7198  -2.7032  -2.7029
    -2.6943  -2.6936  -2.6734  -2.6611  -2.6609  -2.6563  -2.6530  -2.6208
    -2.6190  -2.6189  -2.5612  -2.5570  -2.5430  -2.5423  -2.5319  -2.5263
    -2.5054  -2.5043  -2.5002  -2.4888  -2.4871  -2.4767  -2.4750  -2.4599
    -2.4581  -2.4321  -2.4319  -2.4222  -2.4213  -2.4120  -2.4114  -2.3928
    -2.3815  -2.3590  -2.2928  -2.2907  -2.2716  -2.2705  -2.2592  -2.2581
    -2.2104  -2.2078  -2.1948  -2.1744  -2.1622  -2.1622  -2.1434  -2.1254
    -2.1247  -2.1119  -2.1033  -2.0790  -2.0742  -2.0711  -2.0618  -2.0616
    -2.0577  -2.0561  -2.0400  -2.0266  -2.0200  -2.0188  -2.0185  -2.0182
    -2.0174  -2.0158  -2.0032  -1.9832  -1.9829  -1.9796  -1.9747  -1.9622
    -1.9607  -1.9578  -1.9564  -1.9505  -1.9495  -1.9138  -1.9132  -1.8697
    -1.8511  -1.8504  -1.8058  -1.8055  -1.8047  -1.7969  -1.7932  -1.7823
    -1.7788  -1.7735  -1.7721  -1.7634  -1.7614  -1.7419  -1.7407  -1.7044
    -1.7041  -1.6870  -1.6651  -1.6646  -1.6266  -1.6242  -1.5748  -1.5745
    -1.5532  -1.5297  -1.5276  -1.5266  -1.5227  -1.5210  -1.5033  -1.5015
    -1.4999  -1.4993  -1.4980  -1.4977  -1.4960  -1.4950  -1.4935  -1.4684
    -1.4669  -1.4357  -1.4345  -1.4338  -1.4127  -1.4110  -1.4066  -1.4059
    -1.4037  -1.3912  -1.3658  -1.3637  -1.3408  -1.3386  -1.3382  -1.3195
    -1.3083  -1.3070  -1.2794  -1.2782  -1.2719  -1.2705  -1.2336  -1.2320
    -1.2211  -1.2207  -1.2201  -1.2192  -1.1942  -1.1929  -1.1798  -1.1730
    -1.1716  -1.1618  -1.1599  -1.1588  -1.1570  -1.1474  -1.1385  -1.1365
    -1.1295  -1.1290  -1.1228  -1.1192  -1.1179  -1.1023  -1.0631  -1.0592
    -1.0578  -1.0574  -1.0539  -1.0505  -1.0316  -1.0225  -1.0097  -0.9955
    -0.9909  -0.9843  -0.9829  -0.9750  -0.9693  -0.9664  -0.9608  -0.9296
    -0.9292  -0.9185  -0.9178  -0.8984  -0.8978  -0.8827  -0.8589  -0.8505
    -0.8335  -0.8320  -0.7954  -0.7948  -0.7921  -0.7903  -0.7895  -0.7853
    -0.7843  -0.7833  -0.7787  -0.7772  -0.7447  -0.7439  -0.7426  -0.7410
    -0.7391  -0.7373  -0.7274  -0.7263  -0.6987  -0.4398  -0.4275  -0.3822
    -0.3812  -0.3532  -0.2940  -0.1425  -0.1413  -0.1084   0.1738   0.1745
     0.5147   0.5170   0.5578   0.5584   0.6072   0.6094   0.7685   0.7693
     0.8955   0.8980   1.0134   1.5065   1.5453   1.5548   1.5894   1.5901
     1.7242   1.7331   1.7830   1.7846   1.9651   1.9663   2.2505   2.2764
     2.2806   2.2990   2.7295   2.7384   2.7566   2.7575   2.7731   2.7749
     2.8392   2.8401   2.9966   3.1163   3.1211   3.3069   3.3087   3.4138
     3.4850   3.4872   3.7841   3.7879   3.8404   3.8448   3.8458   3.9886
     3.9928   4.0006   4.0264   4.2862   4.2889   4.3245   4.3256   4.4386
     4.4426   4.5002   4.5115   4.7912   5.3841   5.3910   5.4418   5.4825
     5.5932   5.5967   5.6632   5.6672   5.6822   5.6857   5.7708   5.7934
     5.8189   5.9659   6.0695   6.0856   6.0914   6.0944   6.0999   6.1120
     6.1524   6.2146   6.2790   6.2860   6.3954   6.4250   6.4429   6.4484

          k = 0.2500 0.2500-0.2500 (167588 PWs)   bands (ev):

   -19.0093  -6.9466  -6.8277  -6.4169  -6.4155  -5.9780  -5.5753  -5.4765
    -5.4751  -5.2540  -5.2540  -5.1593  -5.1560  -5.0239  -5.0158  -4.9065
    -4.8182  -4.8138  -4.7931  -4.7922  -4.6119  -4.6107  -4.6098  -4.5847
    -4.5796  -4.5787  -4.5744  -4.5237  -4.5210  -4.5194  -4.5185  -4.4553
    -4.4272  -4.4266  -4.3711  -4.3669  -4.3655  -4.3304  -4.3288  -4.3157
    -4.3107  -4.2924  -4.2920  -4.2564  -4.2230  -4.2224  -4.2198  -4.2166
    -4.2162  -4.1874  -4.1587  -4.1555  -4.1267  -4.1260  -4.1232  -4.1221
    -4.1208  -4.1139  -4.0840  -4.0811  -4.0236  -4.0211  -3.9898  -3.9654
    -3.9563  -3.9527  -3.9516  -3.9306  -3.9298  -3.9184  -3.8682  -3.8681
    -3.8626  -3.8617  -3.7786  -3.7759  -3.7562  -3.7536  -3.7199  -3.7196
    -3.7027  -3.6791  -3.6786  -3.6351  -3.6335  -3.6327  -3.6312  -3.6077
    -3.6061  -3.5273  -3.5262  -3.5257  -3.5096  -3.4957  -3.4924  -3.4798
    -3.4789  -3.4728  -3.4718  -3.4315  -3.4293  -3.4076  -3.4062  -3.3706
    -3.3692  -3.3437  -3.3228  -3.3223  -3.2767  -3.2756  -3.2474  -3.2262
    -3.2155  -3.2150  -3.2142  -3.2123  -3.2099  -3.1853  -3.1791  -3.1686
    -3.1351  -3.1307  -3.1095  -3.0899  -3.0869  -3.0829  -3.0797  -3.0781
    -3.0763  -3.0747  -3.0414  -3.0402  -3.0396  -3.0348  -3.0314  -3.0295
    -2.9737  -2.9695  -2.9639  -2.9632  -2.9427  -2.9421  -2.9371  -2.8479
    -2.8384  -2.8371  -2.8291  -2.8273  -2.8223  -2.8208  -2.8193  -2.8117
    -2.8115  -2.8014  -2.7939  -2.7901  -2.7860  -2.7852  -2.7755  -2.7716
    -2.7687  -2.7461  -2.7355  -2.7351  -2.7200  -2.7198  -2.7032  -2.7029
    -2.6943  -2.6936  -2.6734  -2.6611  -2.6609  -2.6563  -2.6530  -2.6208
    -2.6190  -2.6189  -2.5612  -2.5570  -2.5430  -2.5423  -2.5319  -2.5263
    -2.5054  -2.5043  -2.5002  -2.4888  -2.4871  -2.4767  -2.4750  -2.4599
    -2.4581  -2.4321  -2.4319  -2.4222  -2.4213  -2.4120  -2.4114  -2.3928
    -2.3815  -2.3590  -2.2928  -2.2907  -2.2715  -2.2705  -2.2592  -2.2581
    -2.2103  -2.2078  -2.1948  -2.1744  -2.1622  -2.1621  -2.1434  -2.1254
    -2.1247  -2.1119  -2.1033  -2.0790  -2.0742  -2.0711  -2.0618  -2.0616
    -2.0577  -2.0561  -2.0400  -2.0266  -2.0200  -2.0188  -2.0185  -2.0182
    -2.0174  -2.0158  -2.0032  -1.9832  -1.9829  -1.9796  -1.9747  -1.9622
    -1.9607  -1.9578  -1.9564  -1.9505  -1.9495  -1.9138  -1.9132  -1.8697
    -1.8510  -1.8504  -1.8058  -1.8055  -1.8047  -1.7969  -1.7932  -1.7823
    -1.7788  -1.7735  -1.7721  -1.7634  -1.7614  -1.7419  -1.7407  -1.7044
    -1.7041  -1.6870  -1.6651  -1.6646  -1.6266  -1.6242  -1.5748  -1.5745
    -1.5532  -1.5297  -1.5276  -1.5266  -1.5227  -1.5210  -1.5033  -1.5015
    -1.4999  -1.4993  -1.4980  -1.4977  -1.4960  -1.4950  -1.4935  -1.4684
    -1.4669  -1.4357  -1.4345  -1.4338  -1.4127  -1.4110  -1.4066  -1.4059
    -1.4037  -1.3912  -1.3658  -1.3637  -1.3408  -1.3386  -1.3382  -1.3195
    -1.3083  -1.3069  -1.2794  -1.2782  -1.2719  -1.2705  -1.2336  -1.2320
    -1.2211  -1.2207  -1.2201  -1.2192  -1.1942  -1.1929  -1.1798  -1.1730
    -1.1716  -1.1618  -1.1599  -1.1588  -1.1570  -1.1474  -1.1385  -1.1365
    -1.1295  -1.1290  -1.1228  -1.1192  -1.1179  -1.1023  -1.0631  -1.0592
    -1.0578  -1.0574  -1.0539  -1.0505  -1.0316  -1.0225  -1.0097  -0.9954
    -0.9909  -0.9843  -0.9829  -0.9750  -0.9693  -0.9664  -0.9608  -0.9296
    -0.9292  -0.9185  -0.9178  -0.8984  -0.8978  -0.8827  -0.8589  -0.8505
    -0.8335  -0.8320  -0.7954  -0.7948  -0.7921  -0.7903  -0.7895  -0.7853
    -0.7843  -0.7833  -0.7787  -0.7772  -0.7447  -0.7439  -0.7426  -0.7410
    -0.7391  -0.7373  -0.7274  -0.7263  -0.6987  -0.4398  -0.4275  -0.3822
    -0.3812  -0.3532  -0.2940  -0.1425  -0.1413  -0.1084   0.1738   0.1745
     0.5147   0.5170   0.5578   0.5584   0.6072   0.6094   0.7685   0.7693
     0.8955   0.8980   1.0134   1.5065   1.5453   1.5548   1.5894   1.5901
     1.7242   1.7331   1.7830   1.7846   1.9651   1.9663   2.2505   2.2764
     2.2806   2.2990   2.7295   2.7384   2.7566   2.7575   2.7731   2.7749
     2.8392   2.8401   2.9966   3.1163   3.1211   3.3069   3.3087   3.4138
     3.4850   3.4872   3.7841   3.7879   3.8404   3.8448   3.8458   3.9886
     3.9928   4.0007   4.0264   4.2862   4.2889   4.3245   4.3256   4.4386
     4.4425   4.5002   4.5115   4.7912   5.3841   5.3910   5.4417   5.4826
     5.5932   5.5967   5.6629   5.6670   5.6822   5.6857   5.7451   5.7904
     5.7985   6.0551   6.0694   6.0895   6.0944   6.0991   6.1004   6.1120
     6.1626   6.1848   6.2782   6.2829   6.3832   6.4220   6.4294   6.4906

          k =-0.2500-0.2500 0.0833 (167653 PWs)   bands (ev):

   -19.0093  -6.9466  -6.8277  -6.4169  -6.4155  -5.9780  -5.5753  -5.4765
    -5.4751  -5.2540  -5.2540  -5.1593  -5.1560  -5.0239  -5.0158  -4.9065
    -4.8182  -4.8138  -4.7931  -4.7922  -4.6119  -4.6107  -4.6098  -4.5847
    -4.5796  -4.5787  -4.5744  -4.5237  -4.5210  -4.5194  -4.5185  -4.4553
    -4.4272  -4.4266  -4.3711  -4.3669  -4.3655  -4.3304  -4.3288  -4.3157
    -4.3107  -4.2924  -4.2920  -4.2564  -4.2230  -4.2224  -4.2198  -4.2166
    -4.2162  -4.1874  -4.1587  -4.1555  -4.1267  -4.1260  -4.1232  -4.1221
    -4.1208  -4.1139  -4.0840  -4.0811  -4.0236  -4.0211  -3.9898  -3.9654
    -3.9563  -3.9527  -3.9516  -3.9306  -3.9298  -3.9184  -3.8682  -3.8681
    -3.8626  -3.8617  -3.7786  -3.7759  -3.7562  -3.7536  -3.7199  -3.7196
    -3.7027  -3.6791  -3.6786  -3.6351  -3.6335  -3.6327  -3.6312  -3.6077
    -3.6061  -3.5273  -3.5262  -3.5257  -3.5096  -3.4957  -3.4924  -3.4798
    -3.4789  -3.4728  -3.4718  -3.4315  -3.4293  -3.4076  -3.4062  -3.3706
    -3.3692  -3.3437  -3.3228  -3.3223  -3.2768  -3.2756  -3.2474  -3.2262
    -3.2155  -3.2150  -3.2142  -3.2123  -3.2099  -3.1853  -3.1791  -3.1686
    -3.1351  -3.1307  -3.1095  -3.0899  -3.0869  -3.0829  -3.0797  -3.0781
    -3.0763  -3.0747  -3.0414  -3.0403  -3.0396  -3.0348  -3.0314  -3.0295
    -2.9737  -2.9695  -2.9639  -2.9632  -2.9427  -2.9421  -2.9371  -2.8479
    -2.8384  -2.8371  -2.8291  -2.8273  -2.8223  -2.8208  -2.8193  -2.8117
    -2.8115  -2.8014  -2.7939  -2.7901  -2.7860  -2.7852  -2.7755  -2.7716
    -2.7687  -2.7461  -2.7355  -2.7351  -2.7200  -2.7198  -2.7032  -2.7029
    -2.6943  -2.6936  -2.6734  -2.6611  -2.6609  -2.6563  -2.6530  -2.6208
    -2.6190  -2.6189  -2.5612  -2.5570  -2.5430  -2.5423  -2.5319  -2.5263
    -2.5054  -2.5043  -2.5002  -2.4888  -2.4871  -2.4767  -2.4750  -2.4599
    -2.4581  -2.4321  -2.4319  -2.4222  -2.4213  -2.4120  -2.4114  -2.3928
    -2.3815  -2.3590  -2.2928  -2.2907  -2.2716  -2.2705  -2.2592  -2.2581
    -2.2104  -2.2078  -2.1948  -2.1744  -2.1622  -2.1622  -2.1434  -2.1254
    -2.1247  -2.1119  -2.1033  -2.0790  -2.0742  -2.0711  -2.0618  -2.0616
    -2.0577  -2.0561  -2.0400  -2.0266  -2.0200  -2.0188  -2.0185  -2.0182
    -2.0174  -2.0158  -2.0032  -1.9832  -1.9829  -1.9796  -1.9747  -1.9622
    -1.9607  -1.9578  -1.9564  -1.9505  -1.9495  -1.9138  -1.9132  -1.8697
    -1.8511  -1.8504  -1.8058  -1.8055  -1.8047  -1.7969  -1.7932  -1.7823
    -1.7788  -1.7735  -1.7721  -1.7634  -1.7614  -1.7419  -1.7407  -1.7044
    -1.7041  -1.6870  -1.6651  -1.6646  -1.6266  -1.6242  -1.5748  -1.5745
    -1.5532  -1.5297  -1.5276  -1.5266  -1.5227  -1.5210  -1.5033  -1.5015
    -1.4999  -1.4993  -1.4980  -1.4977  -1.4960  -1.4950  -1.4935  -1.4684
    -1.4669  -1.4357  -1.4345  -1.4338  -1.4127  -1.4110  -1.4066  -1.4059
    -1.4037  -1.3912  -1.3658  -1.3637  -1.3408  -1.3386  -1.3382  -1.3195
    -1.3083  -1.3070  -1.2794  -1.2782  -1.2719  -1.2705  -1.2336  -1.2320
    -1.2211  -1.2207  -1.2201  -1.2192  -1.1942  -1.1929  -1.1798  -1.1730
    -1.1716  -1.1618  -1.1599  -1.1588  -1.1570  -1.1474  -1.1385  -1.1365
    -1.1295  -1.1290  -1.1228  -1.1192  -1.1179  -1.1023  -1.0631  -1.0592
    -1.0578  -1.0574  -1.0539  -1.0505  -1.0316  -1.0225  -1.0097  -0.9955
    -0.9909  -0.9843  -0.9829  -0.9750  -0.9693  -0.9664  -0.9608  -0.9296
    -0.9292  -0.9185  -0.9178  -0.8984  -0.8978  -0.8827  -0.8589  -0.8505
    -0.8335  -0.8320  -0.7954  -0.7948  -0.7921  -0.7903  -0.7895  -0.7853
    -0.7843  -0.7833  -0.7787  -0.7772  -0.7447  -0.7439  -0.7426  -0.7410
    -0.7391  -0.7373  -0.7274  -0.7263  -0.6987  -0.4398  -0.4275  -0.3822
    -0.3812  -0.3532  -0.2940  -0.1425  -0.1413  -0.1084   0.1738   0.1745
     0.5147   0.5170   0.5578   0.5584   0.6072   0.6094   0.7685   0.7693
     0.8955   0.8980   1.0134   1.5065   1.5453   1.5548   1.5894   1.5901
     1.7242   1.7331   1.7830   1.7846   1.9651   1.9663   2.2505   2.2764
     2.2806   2.2990   2.7295   2.7384   2.7566   2.7575   2.7731   2.7749
     2.8392   2.8401   2.9966   3.1163   3.1211   3.3069   3.3087   3.4138
     3.4850   3.4872   3.7841   3.7879   3.8404   3.8448   3.8458   3.9886
     3.9928   4.0006   4.0264   4.2862   4.2889   4.3245   4.3256   4.4386
     4.4426   4.5002   4.5115   4.7912   5.3841   5.3910   5.4418   5.4825
     5.5932   5.5967   5.6632   5.6672   5.6822   5.6857   5.7708   5.7934
     5.8189   5.9658   6.0695   6.0857   6.0914   6.0944   6.0999   6.1120
     6.1527   6.2145   6.2790   6.2860   6.3954   6.4249   6.4427   6.4485

          k =-0.2500 0.2500-0.0833 (167653 PWs)   bands (ev):

   -19.0093  -6.9466  -6.8277  -6.4170  -6.4153  -5.9780  -5.5753  -5.4766
    -5.4750  -5.2540  -5.2539  -5.1596  -5.1558  -5.0238  -5.0158  -4.9064
    -4.8182  -4.8138  -4.7932  -4.7922  -4.6119  -4.6108  -4.6097  -4.5847
    -4.5795  -4.5787  -4.5744  -4.5238  -4.5208  -4.5195  -4.5184  -4.4553
    -4.4272  -4.4266  -4.3710  -4.3669  -4.3655  -4.3307  -4.3287  -4.3157
    -4.3107  -4.2924  -4.2920  -4.2562  -4.2230  -4.2224  -4.2197  -4.2167
    -4.2161  -4.1872  -4.1591  -4.1554  -4.1268  -4.1259  -4.1232  -4.1220
    -4.1209  -4.1139  -4.0843  -4.0809  -4.0236  -4.0209  -3.9897  -3.9656
    -3.9562  -3.9529  -3.9515  -3.9307  -3.9298  -3.9184  -3.8681  -3.8681
    -3.8627  -3.8616  -3.7786  -3.7758  -3.7564  -3.7534  -3.7199  -3.7196
    -3.7027  -3.6791  -3.6786  -3.6352  -3.6333  -3.6328  -3.6311  -3.6078
    -3.6059  -3.5270  -3.5266  -3.5254  -3.5096  -3.4957  -3.4924  -3.4799
    -3.4788  -3.4729  -3.4717  -3.4316  -3.4293  -3.4076  -3.4061  -3.3707
    -3.3691  -3.3438  -3.3228  -3.3223  -3.2767  -3.2755  -3.2473  -3.2262
    -3.2154  -3.2152  -3.2141  -3.2124  -3.2099  -3.1853  -3.1794  -3.1685
    -3.1351  -3.1306  -3.1097  -3.0899  -3.0869  -3.0829  -3.0796  -3.0783
    -3.0763  -3.0746  -3.0414  -3.0402  -3.0396  -3.0349  -3.0313  -3.0294
    -2.9737  -2.9696  -2.9637  -2.9635  -2.9428  -2.9421  -2.9370  -2.8479
    -2.8386  -2.8370  -2.8293  -2.8271  -2.8223  -2.8207  -2.8194  -2.8118
    -2.8115  -2.8014  -2.7939  -2.7900  -2.7860  -2.7854  -2.7755  -2.7715
    -2.7687  -2.7460  -2.7357  -2.7350  -2.7200  -2.7198  -2.7032  -2.7028
    -2.6944  -2.6935  -2.6734  -2.6612  -2.6609  -2.6563  -2.6530  -2.6208
    -2.6190  -2.6188  -2.5612  -2.5570  -2.5429  -2.5422  -2.5319  -2.5262
    -2.5055  -2.5042  -2.5002  -2.4889  -2.4870  -2.4768  -2.4747  -2.4601
    -2.4578  -2.4321  -2.4319  -2.4221  -2.4212  -2.4121  -2.4113  -2.3929
    -2.3815  -2.3590  -2.2929  -2.2907  -2.2716  -2.2704  -2.2592  -2.2581
    -2.2106  -2.2076  -2.1949  -2.1743  -2.1622  -2.1621  -2.1434  -2.1255
    -2.1247  -2.1119  -2.1033  -2.0798  -2.0739  -2.0709  -2.0618  -2.0617
    -2.0578  -2.0560  -2.0403  -2.0266  -2.0201  -2.0188  -2.0184  -2.0182
    -2.0175  -2.0156  -2.0031  -1.9832  -1.9829  -1.9796  -1.9747  -1.9624
    -1.9605  -1.9579  -1.9563  -1.9505  -1.9495  -1.9137  -1.9134  -1.8697
    -1.8512  -1.8502  -1.8058  -1.8055  -1.8047  -1.7969  -1.7931  -1.7825
    -1.7787  -1.7735  -1.7720  -1.7635  -1.7613  -1.7419  -1.7407  -1.7045
    -1.7040  -1.6870  -1.6652  -1.6645  -1.6268  -1.6240  -1.5748  -1.5745
    -1.5532  -1.5297  -1.5277  -1.5266  -1.5226  -1.5211  -1.5036  -1.5013
    -1.4999  -1.4990  -1.4980  -1.4978  -1.4960  -1.4951  -1.4935  -1.4684
    -1.4668  -1.4359  -1.4345  -1.4336  -1.4127  -1.4109  -1.4068  -1.4058
    -1.4036  -1.3911  -1.3659  -1.3637  -1.3407  -1.3385  -1.3382  -1.3195
    -1.3085  -1.3068  -1.2795  -1.2781  -1.2720  -1.2705  -1.2337  -1.2320
    -1.2212  -1.2208  -1.2201  -1.2191  -1.1943  -1.1928  -1.1798  -1.1730
    -1.1715  -1.1616  -1.1600  -1.1590  -1.1568  -1.1474  -1.1384  -1.1365
    -1.1296  -1.1289  -1.1225  -1.1196  -1.1181  -1.1022  -1.0637  -1.0590
    -1.0579  -1.0574  -1.0541  -1.0506  -1.0326  -1.0223  -1.0097  -0.9950
    -0.9912  -0.9843  -0.9829  -0.9750  -0.9688  -0.9666  -0.9592  -0.9299
    -0.9291  -0.9185  -0.9179  -0.8985  -0.8977  -0.8827  -0.8588  -0.8504
    -0.8336  -0.8319  -0.7955  -0.7949  -0.7921  -0.7902  -0.7896  -0.7853
    -0.7845  -0.7832  -0.7787  -0.7772  -0.7448  -0.7436  -0.7425  -0.7409
    -0.7390  -0.7374  -0.7276  -0.7262  -0.6987  -0.4399  -0.4275  -0.3826
    -0.3806  -0.3532  -0.2944  -0.1428  -0.1411  -0.1086   0.1738   0.1746
     0.5140   0.5176   0.5576   0.5585   0.6067   0.6097   0.7677   0.7702
     0.8955   0.8980   1.0135   1.5065   1.5460   1.5548   1.5893   1.5902
     1.7225   1.7345   1.7825   1.7852   1.9646   1.9667   2.2508   2.2758
     2.2813   2.2989   2.7283   2.7397   2.7569   2.7575   2.7728   2.7751
     2.8390   2.8403   2.9963   3.1145   3.1223   3.3058   3.3088   3.4139
     3.4845   3.4879   3.7828   3.7888   3.8414   3.8450   3.8462   3.9879
     3.9929   3.9980   4.0288   4.2857   4.2892   4.3250   4.3254   4.4391
     4.4420   4.5007   4.5128   4.7925   5.3796   5.3914   5.4423   5.4858
     5.5919   5.5973   5.6645   5.6665   5.6809   5.6860   5.7715   5.7921
     5.8168   5.9635   6.0679   6.0851   6.0900   6.0957   6.0998   6.1123
     6.1488   6.2198   6.2775   6.2881   6.3965   6.4252   6.4400   6.4512

          k = 0.2500-0.2500-0.0833 (167653 PWs)   bands (ev):

   -19.0093  -6.9466  -6.8277  -6.4170  -6.4153  -5.9780  -5.5753  -5.4766
    -5.4750  -5.2540  -5.2539  -5.1596  -5.1558  -5.0238  -5.0158  -4.9064
    -4.8182  -4.8138  -4.7932  -4.7922  -4.6119  -4.6108  -4.6097  -4.5847
    -4.5795  -4.5787  -4.5744  -4.5238  -4.5208  -4.5195  -4.5184  -4.4553
    -4.4272  -4.4266  -4.3710  -4.3669  -4.3655  -4.3307  -4.3287  -4.3157
    -4.3107  -4.2924  -4.2920  -4.2562  -4.2230  -4.2224  -4.2197  -4.2167
    -4.2161  -4.1872  -4.1591  -4.1554  -4.1268  -4.1259  -4.1232  -4.1220
    -4.1209  -4.1139  -4.0843  -4.0809  -4.0236  -4.0209  -3.9897  -3.9656
    -3.9562  -3.9529  -3.9515  -3.9307  -3.9298  -3.9184  -3.8681  -3.8681
    -3.8627  -3.8616  -3.7786  -3.7758  -3.7564  -3.7534  -3.7199  -3.7196
    -3.7027  -3.6791  -3.6786  -3.6352  -3.6333  -3.6328  -3.6311  -3.6078
    -3.6059  -3.5270  -3.5266  -3.5254  -3.5096  -3.4957  -3.4924  -3.4799
    -3.4788  -3.4729  -3.4717  -3.4316  -3.4293  -3.4076  -3.4061  -3.3707
    -3.3691  -3.3438  -3.3228  -3.3223  -3.2767  -3.2755  -3.2473  -3.2262
    -3.2154  -3.2152  -3.2141  -3.2124  -3.2099  -3.1853  -3.1794  -3.1685
    -3.1351  -3.1306  -3.1097  -3.0899  -3.0869  -3.0829  -3.0796  -3.0783
    -3.0763  -3.0746  -3.0414  -3.0402  -3.0396  -3.0349  -3.0313  -3.0294
    -2.9737  -2.9696  -2.9637  -2.9635  -2.9428  -2.9421  -2.9370  -2.8479
    -2.8386  -2.8370  -2.8293  -2.8271  -2.8223  -2.8207  -2.8194  -2.8118
    -2.8115  -2.8014  -2.7939  -2.7900  -2.7860  -2.7854  -2.7755  -2.7715
    -2.7687  -2.7460  -2.7357  -2.7350  -2.7200  -2.7198  -2.7032  -2.7028
    -2.6944  -2.6935  -2.6734  -2.6612  -2.6609  -2.6563  -2.6530  -2.6208
    -2.6190  -2.6188  -2.5612  -2.5570  -2.5429  -2.5422  -2.5319  -2.5262
    -2.5055  -2.5042  -2.5002  -2.4889  -2.4870  -2.4768  -2.4747  -2.4601
    -2.4578  -2.4321  -2.4319  -2.4221  -2.4212  -2.4121  -2.4113  -2.3929
    -2.3815  -2.3590  -2.2929  -2.2907  -2.2716  -2.2704  -2.2592  -2.2581
    -2.2106  -2.2076  -2.1949  -2.1743  -2.1622  -2.1621  -2.1434  -2.1255
    -2.1247  -2.1119  -2.1033  -2.0798  -2.0739  -2.0709  -2.0618  -2.0617
    -2.0578  -2.0560  -2.0403  -2.0266  -2.0201  -2.0188  -2.0184  -2.0182
    -2.0175  -2.0156  -2.0031  -1.9832  -1.9829  -1.9796  -1.9747  -1.9624
    -1.9605  -1.9579  -1.9563  -1.9505  -1.9495  -1.9137  -1.9134  -1.8697
    -1.8512  -1.8502  -1.8058  -1.8055  -1.8047  -1.7969  -1.7931  -1.7825
    -1.7787  -1.7735  -1.7720  -1.7635  -1.7613  -1.7419  -1.7407  -1.7045
    -1.7040  -1.6870  -1.6652  -1.6645  -1.6268  -1.6240  -1.5748  -1.5745
    -1.5532  -1.5297  -1.5277  -1.5266  -1.5226  -1.5211  -1.5036  -1.5013
    -1.4999  -1.4990  -1.4980  -1.4978  -1.4960  -1.4951  -1.4935  -1.4684
    -1.4668  -1.4359  -1.4345  -1.4336  -1.4127  -1.4109  -1.4068  -1.4058
    -1.4036  -1.3911  -1.3659  -1.3637  -1.3407  -1.3385  -1.3382  -1.3195
    -1.3085  -1.3068  -1.2795  -1.2781  -1.2720  -1.2705  -1.2337  -1.2320
    -1.2212  -1.2208  -1.2201  -1.2191  -1.1943  -1.1928  -1.1798  -1.1730
    -1.1715  -1.1616  -1.1600  -1.1590  -1.1568  -1.1474  -1.1384  -1.1365
    -1.1296  -1.1289  -1.1225  -1.1196  -1.1181  -1.1022  -1.0637  -1.0590
    -1.0579  -1.0574  -1.0541  -1.0506  -1.0326  -1.0223  -1.0097  -0.9950
    -0.9912  -0.9843  -0.9829  -0.9750  -0.9688  -0.9666  -0.9592  -0.9299
    -0.9291  -0.9185  -0.9179  -0.8985  -0.8977  -0.8827  -0.8588  -0.8504
    -0.8336  -0.8319  -0.7955  -0.7949  -0.7921  -0.7902  -0.7896  -0.7853
    -0.7845  -0.7832  -0.7787  -0.7772  -0.7448  -0.7436  -0.7425  -0.7409
    -0.7390  -0.7374  -0.7276  -0.7262  -0.6987  -0.4399  -0.4275  -0.3826
    -0.3806  -0.3532  -0.2944  -0.1428  -0.1411  -0.1086   0.1738   0.1746
     0.5140   0.5176   0.5576   0.5585   0.6067   0.6097   0.7677   0.7702
     0.8955   0.8980   1.0135   1.5065   1.5460   1.5548   1.5893   1.5902
     1.7225   1.7345   1.7825   1.7852   1.9646   1.9667   2.2508   2.2758
     2.2813   2.2989   2.7283   2.7397   2.7569   2.7575   2.7728   2.7751
     2.8390   2.8403   2.9963   3.1145   3.1223   3.3058   3.3088   3.4139
     3.4845   3.4879   3.7828   3.7888   3.8414   3.8450   3.8462   3.9879
     3.9929   3.9980   4.0288   4.2857   4.2892   4.3250   4.3254   4.4391
     4.4420   4.5007   4.5128   4.7925   5.3796   5.3914   5.4423   5.4858
     5.5919   5.5973   5.6645   5.6665   5.6809   5.6860   5.7715   5.7922
     5.8168   5.9637   6.0679   6.0850   6.0900   6.0957   6.0998   6.1123
     6.1485   6.2199   6.2775   6.2881   6.3965   6.4253   6.4401   6.4512

          k =-0.2500 0.2500 0.2500 (167588 PWs)   bands (ev):

   -19.0093  -6.9466  -6.8277  -6.4170  -6.4153  -5.9780  -5.5753  -5.4766
    -5.4750  -5.2540  -5.2539  -5.1596  -5.1558  -5.0238  -5.0158  -4.9064
    -4.8182  -4.8138  -4.7932  -4.7922  -4.6119  -4.6108  -4.6097  -4.5847
    -4.5795  -4.5788  -4.5744  -4.5238  -4.5208  -4.5195  -4.5184  -4.4553
    -4.4272  -4.4266  -4.3710  -4.3669  -4.3655  -4.3306  -4.3287  -4.3157
    -4.3107  -4.2924  -4.2920  -4.2562  -4.2230  -4.2224  -4.2197  -4.2167
    -4.2161  -4.1872  -4.1591  -4.1553  -4.1268  -4.1259  -4.1232  -4.1220
    -4.1209  -4.1139  -4.0843  -4.0809  -4.0236  -4.0209  -3.9897  -3.9656
    -3.9562  -3.9529  -3.9515  -3.9307  -3.9297  -3.9184  -3.8681  -3.8681
    -3.8627  -3.8615  -3.7786  -3.7758  -3.7564  -3.7534  -3.7199  -3.7196
    -3.7027  -3.6791  -3.6786  -3.6352  -3.6333  -3.6328  -3.6311  -3.6077
    -3.6059  -3.5270  -3.5266  -3.5254  -3.5096  -3.4957  -3.4924  -3.4799
    -3.4788  -3.4729  -3.4717  -3.4316  -3.4293  -3.4076  -3.4061  -3.3707
    -3.3691  -3.3438  -3.3228  -3.3223  -3.2767  -3.2755  -3.2473  -3.2262
    -3.2154  -3.2152  -3.2141  -3.2124  -3.2099  -3.1853  -3.1794  -3.1685
    -3.1351  -3.1306  -3.1097  -3.0899  -3.0869  -3.0829  -3.0796  -3.0783
    -3.0763  -3.0746  -3.0414  -3.0402  -3.0396  -3.0349  -3.0313  -3.0294
    -2.9737  -2.9696  -2.9637  -2.9635  -2.9428  -2.9421  -2.9370  -2.8479
    -2.8386  -2.8370  -2.8293  -2.8271  -2.8223  -2.8207  -2.8194  -2.8118
    -2.8115  -2.8015  -2.7939  -2.7900  -2.7860  -2.7854  -2.7755  -2.7715
    -2.7686  -2.7460  -2.7357  -2.7350  -2.7200  -2.7198  -2.7032  -2.7028
    -2.6943  -2.6935  -2.6734  -2.6612  -2.6609  -2.6563  -2.6530  -2.6208
    -2.6190  -2.6188  -2.5612  -2.5570  -2.5429  -2.5422  -2.5319  -2.5262
    -2.5055  -2.5042  -2.5002  -2.4889  -2.4870  -2.4768  -2.4747  -2.4601
    -2.4578  -2.4321  -2.4319  -2.4221  -2.4212  -2.4121  -2.4113  -2.3929
    -2.3815  -2.3590  -2.2929  -2.2907  -2.2716  -2.2704  -2.2592  -2.2581
    -2.2106  -2.2076  -2.1949  -2.1743  -2.1622  -2.1621  -2.1434  -2.1255
    -2.1247  -2.1119  -2.1033  -2.0798  -2.0739  -2.0709  -2.0618  -2.0617
    -2.0578  -2.0560  -2.0403  -2.0266  -2.0201  -2.0188  -2.0184  -2.0182
    -2.0175  -2.0156  -2.0032  -1.9832  -1.9829  -1.9796  -1.9747  -1.9624
    -1.9605  -1.9579  -1.9563  -1.9505  -1.9495  -1.9136  -1.9134  -1.8697
    -1.8512  -1.8502  -1.8058  -1.8055  -1.8047  -1.7969  -1.7931  -1.7825
    -1.7787  -1.7735  -1.7720  -1.7635  -1.7613  -1.7419  -1.7407  -1.7045
    -1.7040  -1.6870  -1.6652  -1.6645  -1.6268  -1.6240  -1.5748  -1.5745
    -1.5532  -1.5297  -1.5277  -1.5266  -1.5226  -1.5211  -1.5036  -1.5013
    -1.4999  -1.4990  -1.4980  -1.4978  -1.4960  -1.4951  -1.4935  -1.4684
    -1.4668  -1.4359  -1.4345  -1.4336  -1.4127  -1.4109  -1.4068  -1.4058
    -1.4036  -1.3911  -1.3659  -1.3637  -1.3407  -1.3385  -1.3382  -1.3195
    -1.3085  -1.3068  -1.2795  -1.2781  -1.2720  -1.2705  -1.2337  -1.2320
    -1.2212  -1.2208  -1.2201  -1.2191  -1.1943  -1.1928  -1.1798  -1.1730
    -1.1715  -1.1616  -1.1600  -1.1589  -1.1568  -1.1474  -1.1384  -1.1366
    -1.1295  -1.1289  -1.1225  -1.1196  -1.1181  -1.1022  -1.0637  -1.0590
    -1.0579  -1.0574  -1.0541  -1.0506  -1.0326  -1.0223  -1.0097  -0.9950
    -0.9912  -0.9843  -0.9829  -0.9750  -0.9688  -0.9666  -0.9591  -0.9299
    -0.9291  -0.9185  -0.9179  -0.8985  -0.8976  -0.8827  -0.8588  -0.8504
    -0.8336  -0.8319  -0.7955  -0.7949  -0.7921  -0.7903  -0.7897  -0.7853
    -0.7845  -0.7832  -0.7787  -0.7771  -0.7448  -0.7436  -0.7425  -0.7409
    -0.7390  -0.7374  -0.7276  -0.7262  -0.6987  -0.4399  -0.4275  -0.3826
    -0.3806  -0.3532  -0.2944  -0.1428  -0.1411  -0.1086   0.1738   0.1746
     0.5140   0.5176   0.5576   0.5585   0.6067   0.6097   0.7677   0.7702
     0.8955   0.8980   1.0135   1.5065   1.5460   1.5548   1.5893   1.5902
     1.7225   1.7346   1.7825   1.7852   1.9647   1.9667   2.2508   2.2757
     2.2813   2.2989   2.7283   2.7397   2.7569   2.7575   2.7728   2.7751
     2.8390   2.8403   2.9963   3.1145   3.1223   3.3058   3.3088   3.4139
     3.4845   3.4879   3.7828   3.7888   3.8414   3.8450   3.8462   3.9879
     3.9929   3.9980   4.0288   4.2857   4.2892   4.3250   4.3254   4.4391
     4.4420   4.5007   4.5128   4.7926   5.3795   5.3914   5.4422   5.4859
     5.5919   5.5973   5.6641   5.6664   5.6809   5.6859   5.7454   5.7884
     5.7978   6.0446   6.0689   6.0890   6.0955   6.0996   6.1030   6.1124
     6.1643   6.1863   6.2755   6.2863   6.3850   6.4208   6.4309   6.4905

     the Fermi energy is     0.8402 ev

!    total energy              =   -7379.98231145 Ry
     Harris-Foulkes estimate   =   -7379.98231145 Ry
     estimated scf accuracy    <          1.9E-09 Ry

     The total energy is the sum of the following terms:

     one-electron contribution =  -48681.68787491 Ry
     hartree contribution      =   24887.22346861 Ry
     xc contribution           =   -3556.24925812 Ry
     ewald contribution        =   19970.73024390 Ry
     smearing contrib. (-TS)   =       0.00110908 Ry

     convergence has been achieved in  29 iterations

     Writing output data file 7992055.save

     init_run     :    110.92s CPU    117.17s WALL (       1 calls)
     electrons    :   7140.20s CPU   7537.76s WALL (       1 calls)

     Called by init_run:
     wfcinit      :     89.18s CPU     95.03s WALL (       1 calls)
     potinit      :      3.37s CPU      3.48s WALL (       1 calls)

     Called by electrons:
     c_bands      :   6146.47s CPU   6467.87s WALL (      30 calls)
     sum_band     :    755.07s CPU    824.84s WALL (      30 calls)
     v_of_rho     :     14.56s CPU     16.08s WALL (      30 calls)
     newd         :    227.56s CPU    231.54s WALL (      30 calls)
     mix_rho      :      2.57s CPU      2.99s WALL (      30 calls)

     Called by c_bands:
     init_us_2    :      8.96s CPU      9.27s WALL (     366 calls)
     cegterg      :   6018.54s CPU   6338.69s WALL (     180 calls)

     Called by *egterg:
     h_psi        :   2585.07s CPU   2865.56s WALL (     886 calls)
     s_psi        :    370.50s CPU    372.57s WALL (     886 calls)
     g_psi        :      4.83s CPU      4.82s WALL (     700 calls)
     cdiaghg      :   1624.85s CPU   1629.70s WALL (     874 calls)

     Called by h_psi:
     add_vuspsi   :    371.35s CPU    373.43s WALL (     886 calls)

     General routines
     calbec       :    609.38s CPU    611.63s WALL (    1066 calls)
     fft          :     32.43s CPU     34.95s WALL (     480 calls)
     ffts         :      1.26s CPU      1.47s WALL (      60 calls)
     fftw         :   1929.97s CPU   2239.36s WALL (  481474 calls)
     interpolate  :      3.13s CPU      3.70s WALL (      60 calls)
     davcio       :      0.00s CPU      0.12s WALL (       6 calls)

     Parallel routines
     fft_scatter  :   1396.08s CPU   1616.72s WALL (  482014 calls)

     PWSCF        :     2h 0m CPU        2h 7m WALL


   This run was terminated on:   6:28: 2  13Aug2015            

=------------------------------------------------------------------------------=
   JOB DONE.
=------------------------------------------------------------------------------=
