Setting SGE environment for SCC

     Program PWSCF v.5.1.2 starts on 13Aug2015 at  2:42:40 

     This program is part of the open-source Quantum ESPRESSO suite
     for quantum simulation of materials; please cite
         "P. Giannozzi et al., J. Phys.:Condens. Matter 21 395502 (2009);
          URL http://www.quantum-espresso.org", 
     in publications or presentations arising from this work. More details at
     http://www.quantum-espresso.org/quote

     Parallel version (MPI), running on    32 processors
     R & G space division:  proc/nbgrp/npool/nimage =      32
     Reading input from top.O1.Au62.d.3.4.phi.45.psi.0.in
Warning: card &IONS ignored
Warning: card / ignored
Warning: card &CELL ignored
Warning: card / ignored

     Current dimensions of program PWSCF are:
     Max number of different atomic species (ntypx) = 10
     Max number of k-points (npk) =  40000
     Max angular momentum in pseudopotentials (lmaxx) =  3

     Subspace diagonalization in iterative solution of the eigenvalue problem:
     a serial algorithm will be used


     Parallelization info
     --------------------
     sticks:   dense  smooth     PW     G-vecs:    dense   smooth      PW
     Min         578     289     74               118518    41891    5486
     Max         579     290     75               118533    41932    5497
     Sum       18505    9265   2385              3792731  1341081  175711


     Title: 
     top.O1.Au62.d.3.4.phi.45.psi.0                                             


     bravais-lattice index     =            8
     lattice parameter (alat)  =      24.1233  a.u.
     unit-cell volume          =   28076.2361 (a.u.)^3
     number of atoms/cell      =           75
     number of atomic types    =            3
     number of electrons       =       800.00
     number of Kohn-Sham states=          480
     kinetic-energy cutoff     =      50.0000  Ry
     charge density cutoff     =     400.0000  Ry
     convergence threshold     =      1.0E-08
     mixing beta               =       0.7000
     number of iterations used =            8  plain     mixing
     Exchange-correlation      =  SLA  PW   PBE  PBE ( 1  4  3  4 0 0)

     celldm(1)=  24.123277  celldm(2)=   1.000000  celldm(3)=   2.000000
     celldm(4)=   0.000000  celldm(5)=   0.000000  celldm(6)=   0.000000

     crystal axes: (cart. coord. in units of alat)
               a(1) = (   1.000000   0.000000   0.000000 )  
               a(2) = (   0.000000   1.000000   0.000000 )  
               a(3) = (   0.000000   0.000000   2.000000 )  

     reciprocal axes: (cart. coord. in units 2 pi/alat)
               b(1) = (  1.000000  0.000000  0.000000 )  
               b(2) = (  0.000000  1.000000  0.000000 )  
               b(3) = (  0.000000  0.000000  0.500000 )  


     PseudoPot. # 1 for Au read from file:
     /home/scc/andrejb/qe/pseudo/Au.pbe-nd-van.UPF
     MD5 check sum: 458681b50f36d87ef23c61b04bba420a
     Pseudo is Ultrasoft + core correction, Zval = 11.0
     Generated by new atomic code, or converted to UPF format
     Using radial grid of  985 points,  3 beta functions with: 
                l(1) =   1
                l(2) =   2
                l(3) =   2
     Q(r) pseudized with  8 coefficients,  rinner =    1.100   1.100   1.100
                                                       1.100   1.100

     PseudoPot. # 2 for H  read from file:
     /home/scc/andrejb/qe/pseudo/H.pbe-van_ak.UPF
     MD5 check sum: 403db7282739603aa925980fa9b8608d
     Pseudo is Ultrasoft, Zval =  1.0
     Generated by new atomic code, or converted to UPF format
     Using radial grid of  615 points,  1 beta functions with: 
                l(1) =   0
     Q(r) pseudized with  8 coefficients,  rinner =    0.800

     PseudoPot. # 3 for O  read from file:
     /home/scc/andrejb/qe/pseudo/O.pbe-van_ak.UPF
     MD5 check sum: 4b8c549914a63cae506c6ff22b5af4fe
     Pseudo is Ultrasoft, Zval =  6.0
     Generated by new atomic code, or converted to UPF format
     Using radial grid of  737 points,  4 beta functions with: 
                l(1) =   0
                l(2) =   0
                l(3) =   1
                l(4) =   1
     Q(r) pseudized with  8 coefficients,  rinner =    0.800   0.800   0.800


     atomic species   valence    mass     pseudopotential
        Au            11.00   196.96657     Au( 1.00)
        H              1.00     1.01000     H ( 1.00)
        O              6.00    16.00000     O ( 1.00)

     No symmetry found



   Cartesian axes

     site n.     atom                  positions (alat units)
         1           O   tau(   1) = (   0.4998324   0.3332216   0.7656616  )
         2           H   tau(   2) = (   0.4942419   0.2722342   0.8111555  )
         3           H   tau(   3) = (   0.5052408   0.3923724   0.8135193  )
         4           Au  tau(   4) = (   0.0000000   0.0000000   0.0000000  )
         5           Au  tau(   5) = (   0.3332217   0.0000000   0.0000000  )
         6           Au  tau(   6) = (   0.6664435   0.0000000   0.0000000  )
         7           Au  tau(   7) = (   0.1666109   0.1666109   0.0000000  )
         8           Au  tau(   8) = (   0.4998326   0.1666109   0.0000000  )
         9           Au  tau(   9) = (   0.8330542   0.1666109   0.0000000  )
        10           Au  tau(  10) = (   0.0000000   0.3332217   0.0000000  )
        11           Au  tau(  11) = (   0.3332217   0.3332217   0.0000000  )
        12           Au  tau(  12) = (   0.6664435   0.3332217   0.0000000  )
        13           Au  tau(  13) = (   0.1666109   0.4998326   0.0000000  )
        14           Au  tau(  14) = (   0.4998326   0.4998326   0.0000000  )
        15           Au  tau(  15) = (   0.8330542   0.4998326   0.0000000  )
        16           Au  tau(  16) = (   0.0000000   0.6664435   0.0000000  )
        17           Au  tau(  17) = (   0.3332217   0.6664435   0.0000000  )
        18           Au  tau(  18) = (   0.6664435   0.6664435   0.0000000  )
        19           Au  tau(  19) = (   0.1666109   0.8330542   0.0000000  )
        20           Au  tau(  20) = (   0.4998326   0.8330542   0.0000000  )
        21           Au  tau(  21) = (   0.8330542   0.8330542   0.0000000  )
        22           Au  tau(  22) = (   0.1666109   0.0000000   0.1666109  )
        23           Au  tau(  23) = (   0.4998326   0.0000000   0.1666109  )
        24           Au  tau(  24) = (   0.8330542   0.0000000   0.1666109  )
        25           Au  tau(  25) = (   0.0000000   0.1666109   0.1666109  )
        26           Au  tau(  26) = (   0.3332217   0.1666109   0.1666109  )
        27           Au  tau(  27) = (   0.6664435   0.1666109   0.1666109  )
        28           Au  tau(  28) = (   0.1666109   0.3332217   0.1666109  )
        29           Au  tau(  29) = (   0.4998326   0.3332217   0.1666109  )
        30           Au  tau(  30) = (   0.8330542   0.3332217   0.1666109  )
        31           Au  tau(  31) = (   0.0000000   0.4998326   0.1666109  )
        32           Au  tau(  32) = (   0.3332217   0.4998326   0.1666109  )
        33           Au  tau(  33) = (   0.6664435   0.4998326   0.1666109  )
        34           Au  tau(  34) = (   0.1666109   0.6664435   0.1666109  )
        35           Au  tau(  35) = (   0.4998326   0.6664435   0.1666109  )
        36           Au  tau(  36) = (   0.8330542   0.6664435   0.1666109  )
        37           Au  tau(  37) = (   0.0000000   0.8330542   0.1666109  )
        38           Au  tau(  38) = (   0.3332217   0.8330542   0.1666109  )
        39           Au  tau(  39) = (   0.6664435   0.8330542   0.1666109  )
        40           Au  tau(  40) = (  -0.0000182  -0.0000182   0.3335478  )
        41           Au  tau(  41) = (   0.3332215  -0.0000181   0.3335472  )
        42           Au  tau(  42) = (   0.6664447  -0.0000183   0.3335481  )
        43           Au  tau(  43) = (  -0.0000181   0.3332215   0.3335472  )
        44           Au  tau(  44) = (   0.3332215   0.3332215   0.3335468  )
        45           Au  tau(  45) = (   0.6664445   0.3332215   0.3335478  )
        46           Au  tau(  46) = (  -0.0000183   0.6664447   0.3335481  )
        47           Au  tau(  47) = (   0.3332215   0.6664445   0.3335478  )
        48           Au  tau(  48) = (   0.6664446   0.6664446   0.3335486  )
        49           Au  tau(  49) = (   0.1666097   0.1666097   0.3335483  )
        50           Au  tau(  50) = (   0.4998320   0.1666098   0.3335477  )
        51           Au  tau(  51) = (   0.8330732   0.1666096   0.3335481  )
        52           Au  tau(  52) = (   0.1666098   0.4998320   0.3335477  )
        53           Au  tau(  53) = (   0.4998321   0.4998321   0.3335470  )
        54           Au  tau(  54) = (   0.8330730   0.4998322   0.3335474  )
        55           Au  tau(  55) = (   0.1666096   0.8330732   0.3335481  )
        56           Au  tau(  56) = (   0.4998322   0.8330730   0.3335474  )
        57           Au  tau(  57) = (   0.8330731   0.8330731   0.3335478  )
        58           Au  tau(  58) = (   0.1666104  -0.0000111   0.4993095  )
        59           Au  tau(  59) = (   0.4998323  -0.0000112   0.4993099  )
        60           Au  tau(  60) = (   0.8330661  -0.0000111   0.4993009  )
        61           Au  tau(  61) = (  -0.0000111   0.1666104   0.4993095  )
        62           Au  tau(  62) = (   0.3332214   0.1666106   0.4993185  )
        63           Au  tau(  63) = (   0.6664437   0.1666106   0.4993187  )
        64           Au  tau(  64) = (   0.1666106   0.3332214   0.4993185  )
        65           Au  tau(  65) = (   0.4998324   0.3332216   0.4993185  )
        66           Au  tau(  66) = (   0.8330659   0.3332215   0.4993103  )
        67           Au  tau(  67) = (  -0.0000112   0.4998323   0.4993099  )
        68           Au  tau(  68) = (   0.3332216   0.4998324   0.4993185  )
        69           Au  tau(  69) = (   0.6664436   0.4998325   0.4993187  )
        70           Au  tau(  70) = (   0.1666106   0.6664437   0.4993187  )
        71           Au  tau(  71) = (   0.4998325   0.6664436   0.4993187  )
        72           Au  tau(  72) = (   0.8330658   0.6664438   0.4993102  )
        73           Au  tau(  73) = (  -0.0000111   0.8330661   0.4993009  )
        74           Au  tau(  74) = (   0.3332215   0.8330659   0.4993103  )
        75           Au  tau(  75) = (   0.6664438   0.8330658   0.4993102  )

     number of k points=     6  Marzari-Vanderbilt smearing, width (Ry)=  0.0200
                       cart. coord. in units 2pi/alat
        k(    1) = (   0.2500000   0.2500000   0.0833333), wk =   0.3333333
        k(    2) = (   0.2500000   0.2500000  -0.2500000), wk =   0.3333333
        k(    3) = (  -0.2500000  -0.2500000   0.0833333), wk =   0.3333333
        k(    4) = (  -0.2500000   0.2500000  -0.0833333), wk =   0.3333333
        k(    5) = (   0.2500000  -0.2500000  -0.0833333), wk =   0.3333333
        k(    6) = (  -0.2500000   0.2500000   0.2500000), wk =   0.3333333

     Dense  grid:  3792731 G-vectors     FFT dimensions: ( 160, 160, 320)

     Smooth grid:  1341081 G-vectors     FFT dimensions: ( 120, 120, 225)

     Largest allocated arrays     est. size (Mb)     dimensions
        Kohn-Sham Wavefunctions        38.58 Mb     (    5267,  480)
        NL pseudopotentials            76.03 Mb     (    5267,  946)
        Each V/rho on FFT grid          3.91 Mb     (  256000)
        Each G-vector array             0.90 Mb     (  118520)
        G-vector shells                 0.08 Mb     (   10286)
     Largest temporary arrays     est. size (Mb)     dimensions
        Auxiliary wavefunctions       154.31 Mb     (    5267, 1920)
        Each subspace H/S matrix       56.25 Mb     (    1920, 1920)
        Each <psi_i|beta_j> matrix      6.93 Mb     (     946,  480)
        Arrays for rho mixing          31.25 Mb     (  256000,    8)

     Initial potential from superposition of free atoms
     Check: negative starting charge=   -1.944981

     starting charge  799.16392, renormalised to  800.00000

     negative rho (up, down):  1.947E+00 0.000E+00
     Starting wfc are  654 randomized atomic wfcs

     total cpu time spent up to now is      153.8 secs

     Self-consistent Calculation

     iteration #  1     ecut=    50.00 Ry     beta=0.70
     Davidson diagonalization with overlap
     ethr =  1.00E-02,  avg # of iterations =  3.0

     Threshold (ethr) on eigenvalues was too large:
     Diagonalizing with lowered threshold

     Davidson diagonalization with overlap
     ethr =  5.00E-04,  avg # of iterations =  2.0

     negative rho (up, down):  1.932E+00 0.000E+00

     total cpu time spent up to now is      689.1 secs

     total energy              =   -7377.40139248 Ry
     Harris-Foulkes estimate   =   -7380.96586927 Ry
     estimated scf accuracy    <       4.52577367 Ry

     iteration #  2     ecut=    50.00 Ry     beta=0.70
     Davidson diagonalization with overlap
     ethr =  5.66E-04,  avg # of iterations = 11.3

     negative rho (up, down):  1.929E+00 0.000E+00

     total cpu time spent up to now is     1561.2 secs

     total energy              =   -7368.61231779 Ry
     Harris-Foulkes estimate   =   -7388.01232887 Ry
     estimated scf accuracy    <     100.29348365 Ry

     iteration #  3     ecut=    50.00 Ry     beta=0.70
     Davidson diagonalization with overlap
     ethr =  5.66E-04,  avg # of iterations =  6.0

     negative rho (up, down):  1.946E+00 0.000E+00

     total cpu time spent up to now is     2136.6 secs

     total energy              =   -7378.62600937 Ry
     Harris-Foulkes estimate   =   -7380.67055624 Ry
     estimated scf accuracy    <       8.01206184 Ry

     iteration #  4     ecut=    50.00 Ry     beta=0.70
     Davidson diagonalization with overlap
     ethr =  5.66E-04,  avg # of iterations =  5.3

     negative rho (up, down):  1.951E+00 0.000E+00

     total cpu time spent up to now is     2441.8 secs

     total energy              =   -7379.47935996 Ry
     Harris-Foulkes estimate   =   -7380.35391077 Ry
     estimated scf accuracy    <       3.94643130 Ry

     iteration #  5     ecut=    50.00 Ry     beta=0.70
     Davidson diagonalization with overlap
     ethr =  4.93E-04,  avg # of iterations =  6.5

     negative rho (up, down):  1.959E+00 0.000E+00

     total cpu time spent up to now is     2780.4 secs

     total energy              =   -7379.59383846 Ry
     Harris-Foulkes estimate   =   -7380.42909200 Ry
     estimated scf accuracy    <       7.06409543 Ry

     iteration #  6     ecut=    50.00 Ry     beta=0.70
     Davidson diagonalization with overlap
     ethr =  4.93E-04,  avg # of iterations =  5.0

     negative rho (up, down):  1.964E+00 0.000E+00

     total cpu time spent up to now is     3086.5 secs

     total energy              =   -7379.97129388 Ry
     Harris-Foulkes estimate   =   -7380.02247272 Ry
     estimated scf accuracy    <       0.16893660 Ry

     iteration #  7     ecut=    50.00 Ry     beta=0.70
     Davidson diagonalization with overlap
     ethr =  2.11E-05,  avg # of iterations = 13.2

     negative rho (up, down):  1.966E+00 0.000E+00

     total cpu time spent up to now is     3570.1 secs

     total energy              =   -7379.97547697 Ry
     Harris-Foulkes estimate   =   -7380.01433511 Ry
     estimated scf accuracy    <       0.17505241 Ry

     iteration #  8     ecut=    50.00 Ry     beta=0.70
     Davidson diagonalization with overlap
     ethr =  2.11E-05,  avg # of iterations =  3.0

     negative rho (up, down):  1.967E+00 0.000E+00

     total cpu time spent up to now is     3842.6 secs

     total energy              =   -7379.97883463 Ry
     Harris-Foulkes estimate   =   -7380.00001248 Ry
     estimated scf accuracy    <       0.09452884 Ry

     iteration #  9     ecut=    50.00 Ry     beta=0.70
     Davidson diagonalization with overlap
     ethr =  1.18E-05,  avg # of iterations =  7.5

     negative rho (up, down):  1.968E+00 0.000E+00

     total cpu time spent up to now is     4193.5 secs

     total energy              =   -7379.97950982 Ry
     Harris-Foulkes estimate   =   -7379.99285872 Ry
     estimated scf accuracy    <       0.05291673 Ry

     iteration # 10     ecut=    50.00 Ry     beta=0.70
     Davidson diagonalization with overlap
     ethr =  6.61E-06,  avg # of iterations =  6.3

     negative rho (up, down):  1.970E+00 0.000E+00

     total cpu time spent up to now is     4510.7 secs

     total energy              =   -7379.98114248 Ry
     Harris-Foulkes estimate   =   -7379.98586200 Ry
     estimated scf accuracy    <       0.01256503 Ry

     iteration # 11     ecut=    50.00 Ry     beta=0.70
     Davidson diagonalization with overlap
     ethr =  1.57E-06,  avg # of iterations = 10.7

     negative rho (up, down):  1.971E+00 0.000E+00

     total cpu time spent up to now is     4900.3 secs

     total energy              =   -7379.98184667 Ry
     Harris-Foulkes estimate   =   -7379.98340508 Ry
     estimated scf accuracy    <       0.00465358 Ry

     iteration # 12     ecut=    50.00 Ry     beta=0.70
     Davidson diagonalization with overlap
     ethr =  5.82E-07,  avg # of iterations =  3.7

     negative rho (up, down):  1.971E+00 0.000E+00

     total cpu time spent up to now is     5190.9 secs

     total energy              =   -7379.98157788 Ry
     Harris-Foulkes estimate   =   -7379.98250114 Ry
     estimated scf accuracy    <       0.00137660 Ry

     iteration # 13     ecut=    50.00 Ry     beta=0.70
     Davidson diagonalization with overlap
     ethr =  1.72E-07,  avg # of iterations = 12.0

     negative rho (up, down):  1.971E+00 0.000E+00

     total cpu time spent up to now is     5835.3 secs

     total energy              =   -7379.98068427 Ry
     Harris-Foulkes estimate   =   -7379.98350591 Ry
     estimated scf accuracy    <       0.01372812 Ry

     iteration # 14     ecut=    50.00 Ry     beta=0.70
     Davidson diagonalization with overlap
     ethr =  1.72E-07,  avg # of iterations =  3.2

     negative rho (up, down):  1.971E+00 0.000E+00

     total cpu time spent up to now is     6206.3 secs

     total energy              =   -7379.98188183 Ry
     Harris-Foulkes estimate   =   -7379.98222374 Ry
     estimated scf accuracy    <       0.00136526 Ry

     iteration # 15     ecut=    50.00 Ry     beta=0.70
     Davidson diagonalization with overlap
     ethr =  1.71E-07,  avg # of iterations =  2.0

     negative rho (up, down):  1.971E+00 0.000E+00

     total cpu time spent up to now is     6476.4 secs

     total energy              =   -7379.98167966 Ry
     Harris-Foulkes estimate   =   -7379.98245094 Ry
     estimated scf accuracy    <       0.00592325 Ry

     iteration # 16     ecut=    50.00 Ry     beta=0.70
     Davidson diagonalization with overlap
     ethr =  1.71E-07,  avg # of iterations =  2.0

     negative rho (up, down):  1.971E+00 0.000E+00

     total cpu time spent up to now is     6750.6 secs

     total energy              =   -7379.98201479 Ry
     Harris-Foulkes estimate   =   -7379.98217678 Ry
     estimated scf accuracy    <       0.00102330 Ry

     iteration # 17     ecut=    50.00 Ry     beta=0.70
     Davidson diagonalization with overlap
     ethr =  1.28E-07,  avg # of iterations =  1.7

     negative rho (up, down):  1.971E+00 0.000E+00

     total cpu time spent up to now is     7009.9 secs

     total energy              =   -7379.98207373 Ry
     Harris-Foulkes estimate   =   -7379.98211343 Ry
     estimated scf accuracy    <       0.00011983 Ry

     iteration # 18     ecut=    50.00 Ry     beta=0.70
     Davidson diagonalization with overlap
     ethr =  1.50E-08,  avg # of iterations =  3.0

     negative rho (up, down):  1.971E+00 0.000E+00

     total cpu time spent up to now is     7290.6 secs

     total energy              =   -7379.98208488 Ry
     Harris-Foulkes estimate   =   -7379.98211078 Ry
     estimated scf accuracy    <       0.00011449 Ry

     iteration # 19     ecut=    50.00 Ry     beta=0.70
     Davidson diagonalization with overlap
     ethr =  1.43E-08,  avg # of iterations =  2.0

     negative rho (up, down):  1.971E+00 0.000E+00

     total cpu time spent up to now is     7507.1 secs

     total energy              =   -7379.98209133 Ry
     Harris-Foulkes estimate   =   -7379.98210613 Ry
     estimated scf accuracy    <       0.00007152 Ry

     iteration # 20     ecut=    50.00 Ry     beta=0.70
     Davidson diagonalization with overlap
     ethr =  8.94E-09,  avg # of iterations =  2.0

     negative rho (up, down):  1.971E+00 0.000E+00

     total cpu time spent up to now is     7737.6 secs

     total energy              =   -7379.98209764 Ry
     Harris-Foulkes estimate   =   -7379.98210068 Ry
     estimated scf accuracy    <       0.00001113 Ry

     iteration # 21     ecut=    50.00 Ry     beta=0.70
     Davidson diagonalization with overlap
     ethr =  1.39E-09,  avg # of iterations =  2.0

     negative rho (up, down):  1.971E+00 0.000E+00

     total cpu time spent up to now is     7957.4 secs

     total energy              =   -7379.98209911 Ry
     Harris-Foulkes estimate   =   -7379.98209937 Ry
     estimated scf accuracy    <       0.00000060 Ry

     iteration # 22     ecut=    50.00 Ry     beta=0.70
     Davidson diagonalization with overlap
     ethr =  7.49E-11,  avg # of iterations =  4.0

     negative rho (up, down):  1.971E+00 0.000E+00

     total cpu time spent up to now is     8321.3 secs

     total energy              =   -7379.98209924 Ry
     Harris-Foulkes estimate   =   -7379.98209941 Ry
     estimated scf accuracy    <       0.00000050 Ry

     iteration # 23     ecut=    50.00 Ry     beta=0.70
     Davidson diagonalization with overlap
     ethr =  6.27E-11,  avg # of iterations =  3.0

     negative rho (up, down):  1.971E+00 0.000E+00

     total cpu time spent up to now is     8632.4 secs

     total energy              =   -7379.98209928 Ry
     Harris-Foulkes estimate   =   -7379.98209937 Ry
     estimated scf accuracy    <       0.00000031 Ry

     iteration # 24     ecut=    50.00 Ry     beta=0.70
     Davidson diagonalization with overlap
     ethr =  3.84E-11,  avg # of iterations =  2.0

     negative rho (up, down):  1.971E+00 0.000E+00

     total cpu time spent up to now is     8892.1 secs

     total energy              =   -7379.98209931 Ry
     Harris-Foulkes estimate   =   -7379.98209935 Ry
     estimated scf accuracy    <       0.00000022 Ry

     iteration # 25     ecut=    50.00 Ry     beta=0.70
     Davidson diagonalization with overlap
     ethr =  2.75E-11,  avg # of iterations =  3.0

     negative rho (up, down):  1.971E+00 0.000E+00

     total cpu time spent up to now is     9163.1 secs

     total energy              =   -7379.98209933 Ry
     Harris-Foulkes estimate   =   -7379.98209934 Ry
     estimated scf accuracy    <       0.00000003 Ry

     iteration # 26     ecut=    50.00 Ry     beta=0.70
     Davidson diagonalization with overlap
     ethr =  3.20E-12,  avg # of iterations =  3.0

     negative rho (up, down):  1.971E+00 0.000E+00

     total cpu time spent up to now is     9460.4 secs

     total energy              =   -7379.98209933 Ry
     Harris-Foulkes estimate   =   -7379.98209934 Ry
     estimated scf accuracy    <       0.00000004 Ry

     iteration # 27     ecut=    50.00 Ry     beta=0.70
     Davidson diagonalization with overlap
     ethr =  3.20E-12,  avg # of iterations =  2.0

     negative rho (up, down):  1.971E+00 0.000E+00

     total cpu time spent up to now is     9742.6 secs

     total energy              =   -7379.98209933 Ry
     Harris-Foulkes estimate   =   -7379.98209935 Ry
     estimated scf accuracy    <       0.00000010 Ry

     iteration # 28     ecut=    50.00 Ry     beta=0.70
     Davidson diagonalization with overlap
     ethr =  3.20E-12,  avg # of iterations =  2.0

     negative rho (up, down):  1.971E+00 0.000E+00

     total cpu time spent up to now is    10015.1 secs

     End of self-consistent calculation

          k = 0.2500 0.2500 0.0833 (167653 PWs)   bands (ev):

   -19.4360  -7.2405  -6.7431  -6.2134  -6.2121  -5.7746  -5.3714  -5.2729
    -5.2717  -5.0506  -5.0506  -4.9546  -4.9533  -4.8204  -4.8124  -4.7030
    -4.6144  -4.6105  -4.5895  -4.5893  -4.4083  -4.4074  -4.4063  -4.3800
    -4.3761  -4.3757  -4.3720  -4.3192  -4.3182  -4.3161  -4.3151  -4.2519
    -4.2235  -4.2234  -4.1674  -4.1634  -4.1621  -4.1267  -4.1255  -4.1120
    -4.1076  -4.0889  -4.0889  -4.0517  -4.0194  -4.0188  -4.0170  -4.0137
    -4.0130  -3.9837  -3.9536  -3.9531  -3.9235  -3.9226  -3.9191  -3.9191
    -3.9173  -3.9110  -3.8797  -3.8790  -3.8190  -3.8189  -3.7867  -3.7612
    -3.7528  -3.7497  -3.7495  -3.7275  -3.7269  -3.7150  -3.6653  -3.6646
    -3.6591  -3.6581  -3.5823  -3.5739  -3.5560  -3.5517  -3.5310  -3.5137
    -3.5135  -3.5000  -3.4751  -3.4725  -3.4312  -3.4293  -3.4284  -3.4264
    -3.4040  -3.4026  -3.3230  -3.3223  -3.3210  -3.3069  -3.2916  -3.2889
    -3.2762  -3.2756  -3.2689  -3.2682  -3.2259  -3.2248  -3.2032  -3.2026
    -3.1668  -3.1662  -3.1400  -3.1189  -3.1187  -3.0730  -3.0722  -3.0398
    -3.0126  -3.0120  -3.0113  -3.0106  -3.0071  -3.0063  -2.9795  -2.9705
    -2.9315  -2.9314  -2.9101  -2.8867  -2.8840  -2.8831  -2.8780  -2.8763
    -2.8729  -2.8728  -2.8378  -2.8366  -2.8366  -2.8312  -2.8310  -2.8262
    -2.7710  -2.7653  -2.7616  -2.7603  -2.7390  -2.7388  -2.7336  -2.6448
    -2.6347  -2.6339  -2.6253  -2.6239  -2.6186  -2.6176  -2.6161  -2.6087
    -2.6082  -2.5980  -2.5904  -2.5879  -2.5857  -2.5827  -2.5728  -2.5675
    -2.5653  -2.5430  -2.5332  -2.5316  -2.5167  -2.5163  -2.4996  -2.4996
    -2.4911  -2.4903  -2.4700  -2.4576  -2.4574  -2.4520  -2.4517  -2.4180
    -2.4158  -2.4155  -2.3574  -2.3542  -2.3394  -2.3388  -2.3290  -2.3239
    -2.3014  -2.3007  -2.2967  -2.2846  -2.2839  -2.2732  -2.2714  -2.2564
    -2.2543  -2.2285  -2.2284  -2.2186  -2.2177  -2.2086  -2.2078  -2.1906
    -2.1781  -2.1568  -2.0886  -2.0872  -2.0679  -2.0672  -2.0560  -2.0552
    -2.0066  -2.0046  -1.9906  -1.9707  -1.9585  -1.9581  -1.9399  -1.9219
    -1.9213  -1.9084  -1.9011  -1.8709  -1.8695  -1.8672  -1.8608  -1.8606
    -1.8533  -1.8530  -1.8330  -1.8259  -1.8161  -1.8156  -1.8152  -1.8149
    -1.8145  -1.8120  -1.7997  -1.7801  -1.7795  -1.7764  -1.7711  -1.7584
    -1.7575  -1.7540  -1.7532  -1.7475  -1.7458  -1.7125  -1.7099  -1.6663
    -1.6483  -1.6464  -1.6022  -1.6015  -1.6014  -1.5918  -1.5911  -1.5786
    -1.5773  -1.5704  -1.5692  -1.5592  -1.5591  -1.5388  -1.5379  -1.5017
    -1.5004  -1.4836  -1.4620  -1.4611  -1.4263  -1.4219  -1.4107  -1.3715
    -1.3697  -1.3499  -1.3257  -1.3243  -1.3238  -1.3181  -1.3164  -1.2984
    -1.2976  -1.2969  -1.2966  -1.2951  -1.2944  -1.2930  -1.2897  -1.2883
    -1.2639  -1.2635  -1.2316  -1.2300  -1.2292  -1.2083  -1.2080  -1.2037
    -1.2024  -1.2001  -1.1878  -1.1618  -1.1606  -1.1382  -1.1368  -1.1314
    -1.1158  -1.1049  -1.1031  -1.0753  -1.0746  -1.0682  -1.0670  -1.0300
    -1.0281  -1.0177  -1.0171  -1.0168  -1.0148  -0.9905  -0.9896  -0.9760
    -0.9690  -0.9682  -0.9574  -0.9560  -0.9541  -0.9538  -0.9436  -0.9334
    -0.9324  -0.9261  -0.9256  -0.9188  -0.9151  -0.9131  -0.8986  -0.8570
    -0.8558  -0.8545  -0.8522  -0.8490  -0.8479  -0.8196  -0.8188  -0.8060
    -0.7894  -0.7864  -0.7799  -0.7791  -0.7715  -0.7634  -0.7630  -0.7273
    -0.7251  -0.7151  -0.7148  -0.6950  -0.6944  -0.6793  -0.6552  -0.6470
    -0.6298  -0.6287  -0.5916  -0.5913  -0.5884  -0.5883  -0.5867  -0.5813
    -0.5807  -0.5801  -0.5763  -0.5737  -0.5411  -0.5405  -0.5399  -0.5392
    -0.5385  -0.5330  -0.5241  -0.5226  -0.4952  -0.2331  -0.2268  -0.1835
    -0.1757  -0.1495  -0.0912   0.0609   0.0622   0.0935   0.3763   0.3784
     0.7151   0.7220   0.7612   0.7619   0.8101   0.8131   0.9691   0.9745
     1.0996   1.1008   1.2149   1.7100   1.7520   1.7558   1.7931   1.7934
     1.9240   1.9362   1.9849   1.9904   2.1685   2.1703   2.4528   2.4780
     2.4865   2.5024   2.9316   2.9417   2.9598   2.9624   2.9765   2.9784
     3.0430   3.0436   3.1926   3.3173   3.3256   3.5061   3.5172   3.6179
     3.6883   3.6920   3.9869   3.9920   4.0450   4.0480   4.0502   4.1932
     4.1950   4.2003   4.2028   4.4907   4.4924   4.5273   4.5277   4.6417
     4.6475   4.7041   4.7159   4.9337   5.1004   5.5883   5.5930   5.6487
     5.6739   5.7967   5.8014   5.8161   5.8697   5.8723   5.8872   5.8887
     5.9460   5.9989   6.0124   6.1004   6.2836   6.2881   6.2919   6.2991
     6.3015   6.3034   6.3135   6.3366   6.4256   6.4513   6.4936   6.5618

          k = 0.2500 0.2500-0.2500 (167588 PWs)   bands (ev):

   -19.4360  -7.2405  -6.7431  -6.2134  -6.2121  -5.7746  -5.3714  -5.2729
    -5.2717  -5.0506  -5.0506  -4.9546  -4.9533  -4.8204  -4.8124  -4.7030
    -4.6144  -4.6105  -4.5895  -4.5893  -4.4083  -4.4074  -4.4063  -4.3800
    -4.3761  -4.3757  -4.3720  -4.3192  -4.3182  -4.3161  -4.3151  -4.2519
    -4.2235  -4.2234  -4.1674  -4.1634  -4.1621  -4.1267  -4.1255  -4.1120
    -4.1076  -4.0889  -4.0889  -4.0517  -4.0194  -4.0188  -4.0170  -4.0137
    -4.0130  -3.9837  -3.9536  -3.9531  -3.9235  -3.9226  -3.9191  -3.9191
    -3.9173  -3.9110  -3.8797  -3.8790  -3.8190  -3.8189  -3.7867  -3.7612
    -3.7528  -3.7497  -3.7495  -3.7275  -3.7269  -3.7150  -3.6653  -3.6646
    -3.6591  -3.6581  -3.5823  -3.5739  -3.5560  -3.5517  -3.5310  -3.5137
    -3.5135  -3.5000  -3.4751  -3.4725  -3.4312  -3.4293  -3.4284  -3.4264
    -3.4040  -3.4026  -3.3230  -3.3223  -3.3210  -3.3069  -3.2916  -3.2889
    -3.2762  -3.2756  -3.2689  -3.2682  -3.2259  -3.2248  -3.2032  -3.2026
    -3.1668  -3.1662  -3.1400  -3.1189  -3.1187  -3.0730  -3.0722  -3.0398
    -3.0126  -3.0120  -3.0113  -3.0106  -3.0071  -3.0063  -2.9795  -2.9705
    -2.9315  -2.9314  -2.9101  -2.8867  -2.8840  -2.8831  -2.8780  -2.8763
    -2.8729  -2.8728  -2.8378  -2.8366  -2.8366  -2.8312  -2.8310  -2.8262
    -2.7710  -2.7653  -2.7616  -2.7603  -2.7390  -2.7388  -2.7336  -2.6448
    -2.6347  -2.6339  -2.6253  -2.6239  -2.6186  -2.6176  -2.6161  -2.6087
    -2.6082  -2.5980  -2.5904  -2.5879  -2.5857  -2.5827  -2.5728  -2.5675
    -2.5653  -2.5430  -2.5332  -2.5316  -2.5167  -2.5163  -2.4996  -2.4996
    -2.4911  -2.4903  -2.4700  -2.4576  -2.4574  -2.4520  -2.4517  -2.4180
    -2.4158  -2.4155  -2.3574  -2.3542  -2.3394  -2.3388  -2.3290  -2.3239
    -2.3014  -2.3007  -2.2967  -2.2845  -2.2839  -2.2732  -2.2714  -2.2564
    -2.2543  -2.2285  -2.2284  -2.2186  -2.2177  -2.2086  -2.2078  -2.1906
    -2.1781  -2.1568  -2.0886  -2.0872  -2.0679  -2.0672  -2.0560  -2.0552
    -2.0066  -2.0046  -1.9906  -1.9707  -1.9585  -1.9581  -1.9399  -1.9219
    -1.9213  -1.9084  -1.9011  -1.8709  -1.8695  -1.8672  -1.8608  -1.8606
    -1.8533  -1.8530  -1.8330  -1.8259  -1.8161  -1.8156  -1.8152  -1.8149
    -1.8145  -1.8120  -1.7997  -1.7801  -1.7795  -1.7764  -1.7711  -1.7584
    -1.7575  -1.7540  -1.7532  -1.7475  -1.7458  -1.7124  -1.7099  -1.6664
    -1.6483  -1.6464  -1.6022  -1.6015  -1.6014  -1.5918  -1.5910  -1.5786
    -1.5773  -1.5704  -1.5692  -1.5592  -1.5591  -1.5388  -1.5379  -1.5017
    -1.5004  -1.4836  -1.4620  -1.4611  -1.4263  -1.4219  -1.4107  -1.3715
    -1.3697  -1.3499  -1.3257  -1.3243  -1.3238  -1.3181  -1.3164  -1.2984
    -1.2976  -1.2969  -1.2966  -1.2951  -1.2944  -1.2930  -1.2897  -1.2883
    -1.2639  -1.2635  -1.2316  -1.2300  -1.2292  -1.2083  -1.2080  -1.2037
    -1.2024  -1.2001  -1.1878  -1.1618  -1.1606  -1.1382  -1.1368  -1.1314
    -1.1158  -1.1049  -1.1031  -1.0754  -1.0746  -1.0682  -1.0670  -1.0300
    -1.0281  -1.0177  -1.0171  -1.0168  -1.0148  -0.9905  -0.9896  -0.9760
    -0.9690  -0.9682  -0.9574  -0.9560  -0.9541  -0.9538  -0.9436  -0.9334
    -0.9324  -0.9261  -0.9256  -0.9188  -0.9151  -0.9131  -0.8986  -0.8570
    -0.8558  -0.8545  -0.8522  -0.8490  -0.8479  -0.8196  -0.8188  -0.8060
    -0.7893  -0.7864  -0.7799  -0.7791  -0.7715  -0.7634  -0.7630  -0.7273
    -0.7251  -0.7151  -0.7148  -0.6950  -0.6944  -0.6793  -0.6552  -0.6470
    -0.6298  -0.6287  -0.5916  -0.5913  -0.5884  -0.5883  -0.5868  -0.5813
    -0.5807  -0.5801  -0.5763  -0.5737  -0.5411  -0.5405  -0.5399  -0.5392
    -0.5385  -0.5330  -0.5241  -0.5226  -0.4952  -0.2331  -0.2268  -0.1835
    -0.1757  -0.1495  -0.0912   0.0609   0.0622   0.0935   0.3763   0.3784
     0.7150   0.7220   0.7612   0.7619   0.8102   0.8131   0.9691   0.9745
     1.0996   1.1008   1.2149   1.7100   1.7520   1.7558   1.7931   1.7934
     1.9240   1.9362   1.9849   1.9904   2.1685   2.1703   2.4528   2.4780
     2.4865   2.5024   2.9316   2.9417   2.9598   2.9624   2.9765   2.9784
     3.0430   3.0436   3.1926   3.3173   3.3256   3.5061   3.5172   3.6179
     3.6883   3.6920   3.9869   3.9920   4.0450   4.0480   4.0502   4.1932
     4.1950   4.2004   4.2028   4.4907   4.4924   4.5273   4.5277   4.6417
     4.6475   4.7041   4.7159   4.9335   5.0980   5.5883   5.5929   5.6490
     5.6711   5.7899   5.7973   5.8036   5.8697   5.8728   5.8873   5.8888
     5.9743   5.9987   6.0367   6.1046   6.2825   6.2875   6.2929   6.2959
     6.3004   6.3033   6.3139   6.3941   6.4286   6.4776   6.5145   6.5660

          k =-0.2500-0.2500 0.0833 (167653 PWs)   bands (ev):

   -19.4360  -7.2405  -6.7431  -6.2134  -6.2121  -5.7746  -5.3714  -5.2729
    -5.2717  -5.0506  -5.0506  -4.9546  -4.9533  -4.8204  -4.8124  -4.7030
    -4.6144  -4.6105  -4.5895  -4.5893  -4.4083  -4.4074  -4.4063  -4.3800
    -4.3761  -4.3757  -4.3720  -4.3192  -4.3182  -4.3161  -4.3151  -4.2519
    -4.2235  -4.2234  -4.1674  -4.1634  -4.1621  -4.1267  -4.1255  -4.1120
    -4.1076  -4.0889  -4.0889  -4.0517  -4.0194  -4.0188  -4.0170  -4.0137
    -4.0130  -3.9837  -3.9536  -3.9531  -3.9235  -3.9226  -3.9191  -3.9191
    -3.9173  -3.9110  -3.8797  -3.8790  -3.8190  -3.8189  -3.7867  -3.7612
    -3.7528  -3.7497  -3.7495  -3.7275  -3.7269  -3.7150  -3.6653  -3.6646
    -3.6591  -3.6581  -3.5823  -3.5739  -3.5560  -3.5517  -3.5310  -3.5137
    -3.5135  -3.5000  -3.4751  -3.4725  -3.4312  -3.4293  -3.4284  -3.4264
    -3.4040  -3.4026  -3.3230  -3.3223  -3.3210  -3.3069  -3.2916  -3.2889
    -3.2762  -3.2756  -3.2689  -3.2682  -3.2259  -3.2248  -3.2032  -3.2026
    -3.1668  -3.1662  -3.1400  -3.1189  -3.1187  -3.0730  -3.0722  -3.0398
    -3.0126  -3.0120  -3.0113  -3.0106  -3.0071  -3.0063  -2.9795  -2.9705
    -2.9315  -2.9314  -2.9101  -2.8867  -2.8840  -2.8831  -2.8780  -2.8763
    -2.8729  -2.8728  -2.8378  -2.8366  -2.8366  -2.8312  -2.8310  -2.8262
    -2.7710  -2.7653  -2.7616  -2.7603  -2.7390  -2.7388  -2.7336  -2.6448
    -2.6347  -2.6339  -2.6253  -2.6239  -2.6186  -2.6176  -2.6161  -2.6087
    -2.6082  -2.5980  -2.5904  -2.5879  -2.5857  -2.5827  -2.5728  -2.5675
    -2.5653  -2.5430  -2.5332  -2.5316  -2.5167  -2.5163  -2.4996  -2.4996
    -2.4911  -2.4903  -2.4700  -2.4576  -2.4574  -2.4520  -2.4517  -2.4180
    -2.4158  -2.4155  -2.3574  -2.3542  -2.3394  -2.3388  -2.3290  -2.3239
    -2.3014  -2.3007  -2.2967  -2.2846  -2.2839  -2.2732  -2.2714  -2.2564
    -2.2543  -2.2285  -2.2284  -2.2186  -2.2177  -2.2086  -2.2078  -2.1906
    -2.1781  -2.1568  -2.0886  -2.0872  -2.0679  -2.0672  -2.0560  -2.0552
    -2.0066  -2.0046  -1.9906  -1.9707  -1.9585  -1.9581  -1.9399  -1.9219
    -1.9213  -1.9084  -1.9011  -1.8709  -1.8695  -1.8672  -1.8608  -1.8606
    -1.8533  -1.8530  -1.8330  -1.8259  -1.8161  -1.8156  -1.8152  -1.8149
    -1.8145  -1.8120  -1.7997  -1.7801  -1.7795  -1.7764  -1.7711  -1.7584
    -1.7575  -1.7540  -1.7532  -1.7475  -1.7458  -1.7125  -1.7099  -1.6663
    -1.6483  -1.6464  -1.6022  -1.6015  -1.6014  -1.5918  -1.5911  -1.5786
    -1.5773  -1.5704  -1.5692  -1.5592  -1.5591  -1.5388  -1.5379  -1.5017
    -1.5004  -1.4836  -1.4620  -1.4611  -1.4263  -1.4219  -1.4107  -1.3715
    -1.3697  -1.3499  -1.3257  -1.3243  -1.3238  -1.3181  -1.3164  -1.2984
    -1.2976  -1.2969  -1.2966  -1.2951  -1.2944  -1.2930  -1.2897  -1.2883
    -1.2639  -1.2635  -1.2316  -1.2300  -1.2292  -1.2083  -1.2080  -1.2037
    -1.2024  -1.2001  -1.1878  -1.1618  -1.1606  -1.1382  -1.1368  -1.1314
    -1.1158  -1.1049  -1.1031  -1.0753  -1.0746  -1.0682  -1.0670  -1.0300
    -1.0281  -1.0177  -1.0171  -1.0168  -1.0148  -0.9905  -0.9896  -0.9760
    -0.9690  -0.9682  -0.9574  -0.9560  -0.9541  -0.9538  -0.9436  -0.9334
    -0.9324  -0.9261  -0.9256  -0.9188  -0.9151  -0.9131  -0.8986  -0.8570
    -0.8558  -0.8545  -0.8522  -0.8490  -0.8479  -0.8196  -0.8188  -0.8060
    -0.7894  -0.7864  -0.7799  -0.7791  -0.7715  -0.7634  -0.7630  -0.7273
    -0.7251  -0.7151  -0.7148  -0.6950  -0.6944  -0.6793  -0.6552  -0.6470
    -0.6298  -0.6287  -0.5916  -0.5913  -0.5884  -0.5883  -0.5867  -0.5813
    -0.5807  -0.5801  -0.5763  -0.5737  -0.5411  -0.5405  -0.5399  -0.5392
    -0.5385  -0.5330  -0.5241  -0.5226  -0.4952  -0.2331  -0.2268  -0.1835
    -0.1757  -0.1495  -0.0912   0.0609   0.0622   0.0935   0.3763   0.3784
     0.7151   0.7220   0.7612   0.7619   0.8101   0.8131   0.9691   0.9745
     1.0996   1.1008   1.2149   1.7100   1.7520   1.7558   1.7931   1.7934
     1.9240   1.9362   1.9849   1.9904   2.1685   2.1703   2.4528   2.4780
     2.4865   2.5024   2.9316   2.9417   2.9598   2.9624   2.9765   2.9784
     3.0430   3.0436   3.1926   3.3173   3.3256   3.5061   3.5172   3.6179
     3.6883   3.6920   3.9869   3.9920   4.0450   4.0480   4.0502   4.1932
     4.1950   4.2003   4.2028   4.4907   4.4924   4.5273   4.5277   4.6417
     4.6475   4.7041   4.7159   4.9337   5.1004   5.5883   5.5930   5.6487
     5.6739   5.7967   5.8014   5.8155   5.8697   5.8723   5.8872   5.8887
     5.9469   5.9989   6.0127   6.1000   6.2836   6.2881   6.2919   6.2992
     6.3016   6.3035   6.3135   6.3365   6.4240   6.4516   6.4930   6.5629

          k =-0.2500 0.2500-0.0833 (167653 PWs)   bands (ev):

   -19.4360  -7.2405  -6.7431  -6.2135  -6.2120  -5.7746  -5.3714  -5.2730
    -5.2717  -5.0506  -5.0506  -4.9547  -4.9532  -4.8204  -4.8124  -4.7030
    -4.6144  -4.6105  -4.5895  -4.5893  -4.4083  -4.4074  -4.4062  -4.3800
    -4.3761  -4.3757  -4.3720  -4.3193  -4.3181  -4.3162  -4.3151  -4.2519
    -4.2235  -4.2234  -4.1674  -4.1634  -4.1621  -4.1268  -4.1254  -4.1120
    -4.1076  -4.0889  -4.0889  -4.0518  -4.0196  -4.0185  -4.0171  -4.0138
    -4.0129  -3.9837  -3.9535  -3.9532  -3.9236  -3.9225  -3.9192  -3.9191
    -3.9173  -3.9110  -3.8798  -3.8789  -3.8191  -3.8189  -3.7867  -3.7611
    -3.7528  -3.7498  -3.7494  -3.7275  -3.7269  -3.7150  -3.6653  -3.6646
    -3.6591  -3.6581  -3.5822  -3.5740  -3.5559  -3.5518  -3.5310  -3.5137
    -3.5135  -3.5000  -3.4751  -3.4725  -3.4313  -3.4293  -3.4285  -3.4263
    -3.4041  -3.4025  -3.3232  -3.3221  -3.3211  -3.3069  -3.2916  -3.2889
    -3.2762  -3.2755  -3.2689  -3.2682  -3.2259  -3.2248  -3.2032  -3.2026
    -3.1668  -3.1661  -3.1399  -3.1189  -3.1187  -3.0730  -3.0722  -3.0398
    -3.0125  -3.0123  -3.0109  -3.0108  -3.0071  -3.0063  -2.9795  -2.9705
    -2.9315  -2.9314  -2.9101  -2.8867  -2.8841  -2.8830  -2.8781  -2.8762
    -2.8729  -2.8728  -2.8378  -2.8366  -2.8365  -2.8312  -2.8310  -2.8262
    -2.7710  -2.7653  -2.7617  -2.7602  -2.7390  -2.7387  -2.7336  -2.6448
    -2.6348  -2.6338  -2.6254  -2.6238  -2.6184  -2.6179  -2.6160  -2.6088
    -2.6082  -2.5980  -2.5904  -2.5880  -2.5856  -2.5827  -2.5728  -2.5675
    -2.5653  -2.5430  -2.5333  -2.5315  -2.5168  -2.5163  -2.4996  -2.4995
    -2.4911  -2.4902  -2.4700  -2.4576  -2.4574  -2.4520  -2.4517  -2.4180
    -2.4158  -2.4154  -2.3574  -2.3542  -2.3394  -2.3388  -2.3290  -2.3239
    -2.3014  -2.3007  -2.2967  -2.2846  -2.2838  -2.2733  -2.2713  -2.2565
    -2.2543  -2.2285  -2.2284  -2.2186  -2.2176  -2.2086  -2.2078  -2.1906
    -2.1781  -2.1568  -2.0886  -2.0872  -2.0679  -2.0671  -2.0560  -2.0552
    -2.0067  -2.0045  -1.9907  -1.9707  -1.9586  -1.9581  -1.9399  -1.9219
    -1.9213  -1.9084  -1.9011  -1.8711  -1.8696  -1.8670  -1.8608  -1.8606
    -1.8534  -1.8529  -1.8330  -1.8260  -1.8162  -1.8156  -1.8152  -1.8148
    -1.8146  -1.8119  -1.7997  -1.7801  -1.7795  -1.7764  -1.7711  -1.7584
    -1.7574  -1.7541  -1.7531  -1.7475  -1.7458  -1.7125  -1.7098  -1.6663
    -1.6484  -1.6463  -1.6022  -1.6015  -1.6014  -1.5917  -1.5909  -1.5781
    -1.5773  -1.5705  -1.5695  -1.5592  -1.5589  -1.5387  -1.5380  -1.5018
    -1.5003  -1.4836  -1.4621  -1.4612  -1.4264  -1.4218  -1.4117  -1.3716
    -1.3694  -1.3498  -1.3256  -1.3244  -1.3238  -1.3180  -1.3167  -1.2985
    -1.2974  -1.2970  -1.2965  -1.2951  -1.2945  -1.2925  -1.2899  -1.2882
    -1.2640  -1.2636  -1.2316  -1.2300  -1.2293  -1.2084  -1.2080  -1.2038
    -1.2023  -1.1999  -1.1875  -1.1620  -1.1606  -1.1382  -1.1370  -1.1311
    -1.1158  -1.1050  -1.1030  -1.0754  -1.0746  -1.0682  -1.0669  -1.0302
    -1.0279  -1.0178  -1.0171  -1.0168  -1.0148  -0.9905  -0.9896  -0.9760
    -0.9691  -0.9681  -0.9575  -0.9560  -0.9540  -0.9537  -0.9437  -0.9333
    -0.9325  -0.9261  -0.9256  -0.9188  -0.9153  -0.9130  -0.8986  -0.8570
    -0.8558  -0.8543  -0.8521  -0.8490  -0.8479  -0.8198  -0.8188  -0.8060
    -0.7895  -0.7863  -0.7800  -0.7791  -0.7715  -0.7634  -0.7630  -0.7274
    -0.7250  -0.7151  -0.7148  -0.6950  -0.6944  -0.6793  -0.6552  -0.6471
    -0.6299  -0.6286  -0.5917  -0.5912  -0.5884  -0.5883  -0.5867  -0.5813
    -0.5808  -0.5800  -0.5763  -0.5737  -0.5411  -0.5404  -0.5399  -0.5392
    -0.5388  -0.5328  -0.5241  -0.5225  -0.4953  -0.2331  -0.2268  -0.1839
    -0.1754  -0.1495  -0.0911   0.0608   0.0623   0.0936   0.3762   0.3785
     0.7147   0.7223   0.7612   0.7620   0.8100   0.8133   0.9688   0.9748
     1.0996   1.1007   1.2150   1.7100   1.7518   1.7558   1.7931   1.7934
     1.9233   1.9368   1.9846   1.9907   2.1683   2.1704   2.4528   2.4776
     2.4868   2.5025   2.9310   2.9420   2.9598   2.9626   2.9764   2.9785
     3.0430   3.0436   3.1924   3.3168   3.3265   3.5060   3.5176   3.6178
     3.6881   3.6922   3.9865   3.9924   4.0448   4.0479   4.0503   4.1931
     4.1960   4.1999   4.2027   4.4907   4.4924   4.5273   4.5279   4.6416
     4.6477   4.7035   4.7157   4.9292   5.1048   5.5877   5.5931   5.6464
     5.6765   5.7964   5.8017   5.8197   5.8694   5.8723   5.8871   5.8889
     5.9507   5.9990   6.0147   6.0838   6.2833   6.2887   6.2925   6.2994
     6.3019   6.3037   6.3131   6.3321   6.4312   6.4505   6.4923   6.5642

          k = 0.2500-0.2500-0.0833 (167653 PWs)   bands (ev):

   -19.4360  -7.2405  -6.7431  -6.2135  -6.2120  -5.7746  -5.3714  -5.2730
    -5.2717  -5.0506  -5.0506  -4.9547  -4.9532  -4.8204  -4.8124  -4.7030
    -4.6144  -4.6105  -4.5895  -4.5893  -4.4083  -4.4074  -4.4062  -4.3800
    -4.3761  -4.3757  -4.3720  -4.3193  -4.3181  -4.3162  -4.3151  -4.2519
    -4.2235  -4.2234  -4.1674  -4.1634  -4.1621  -4.1268  -4.1254  -4.1120
    -4.1076  -4.0889  -4.0889  -4.0518  -4.0196  -4.0185  -4.0171  -4.0138
    -4.0129  -3.9837  -3.9535  -3.9532  -3.9236  -3.9225  -3.9192  -3.9191
    -3.9173  -3.9110  -3.8798  -3.8789  -3.8191  -3.8189  -3.7867  -3.7611
    -3.7528  -3.7498  -3.7494  -3.7275  -3.7269  -3.7150  -3.6653  -3.6646
    -3.6591  -3.6581  -3.5822  -3.5740  -3.5559  -3.5518  -3.5310  -3.5137
    -3.5135  -3.5000  -3.4751  -3.4725  -3.4313  -3.4293  -3.4285  -3.4263
    -3.4041  -3.4025  -3.3232  -3.3221  -3.3211  -3.3069  -3.2916  -3.2889
    -3.2762  -3.2755  -3.2689  -3.2682  -3.2259  -3.2248  -3.2032  -3.2026
    -3.1668  -3.1661  -3.1399  -3.1189  -3.1187  -3.0730  -3.0722  -3.0398
    -3.0125  -3.0123  -3.0109  -3.0108  -3.0071  -3.0063  -2.9795  -2.9705
    -2.9315  -2.9314  -2.9101  -2.8867  -2.8841  -2.8830  -2.8781  -2.8762
    -2.8729  -2.8728  -2.8378  -2.8366  -2.8365  -2.8312  -2.8310  -2.8262
    -2.7710  -2.7653  -2.7617  -2.7602  -2.7390  -2.7387  -2.7336  -2.6448
    -2.6348  -2.6338  -2.6254  -2.6238  -2.6184  -2.6179  -2.6160  -2.6088
    -2.6082  -2.5980  -2.5904  -2.5880  -2.5856  -2.5827  -2.5728  -2.5675
    -2.5653  -2.5430  -2.5333  -2.5315  -2.5168  -2.5163  -2.4996  -2.4995
    -2.4911  -2.4902  -2.4700  -2.4576  -2.4574  -2.4520  -2.4517  -2.4180
    -2.4158  -2.4154  -2.3574  -2.3542  -2.3394  -2.3388  -2.3290  -2.3239
    -2.3014  -2.3007  -2.2967  -2.2846  -2.2838  -2.2733  -2.2713  -2.2565
    -2.2543  -2.2285  -2.2284  -2.2186  -2.2176  -2.2086  -2.2078  -2.1906
    -2.1781  -2.1568  -2.0886  -2.0872  -2.0679  -2.0671  -2.0560  -2.0552
    -2.0067  -2.0045  -1.9907  -1.9707  -1.9586  -1.9581  -1.9399  -1.9219
    -1.9213  -1.9084  -1.9011  -1.8711  -1.8696  -1.8670  -1.8608  -1.8606
    -1.8534  -1.8529  -1.8330  -1.8260  -1.8162  -1.8156  -1.8152  -1.8148
    -1.8146  -1.8119  -1.7997  -1.7801  -1.7795  -1.7764  -1.7711  -1.7584
    -1.7574  -1.7541  -1.7531  -1.7475  -1.7458  -1.7125  -1.7098  -1.6663
    -1.6484  -1.6463  -1.6022  -1.6015  -1.6014  -1.5917  -1.5909  -1.5781
    -1.5773  -1.5705  -1.5695  -1.5592  -1.5589  -1.5387  -1.5380  -1.5018
    -1.5003  -1.4836  -1.4621  -1.4612  -1.4264  -1.4218  -1.4117  -1.3716
    -1.3694  -1.3498  -1.3256  -1.3244  -1.3238  -1.3180  -1.3167  -1.2985
    -1.2974  -1.2970  -1.2965  -1.2951  -1.2945  -1.2925  -1.2899  -1.2882
    -1.2640  -1.2636  -1.2316  -1.2300  -1.2293  -1.2084  -1.2080  -1.2038
    -1.2023  -1.1999  -1.1875  -1.1620  -1.1606  -1.1382  -1.1370  -1.1311
    -1.1158  -1.1050  -1.1030  -1.0754  -1.0746  -1.0682  -1.0669  -1.0302
    -1.0279  -1.0178  -1.0171  -1.0168  -1.0148  -0.9905  -0.9896  -0.9760
    -0.9691  -0.9681  -0.9575  -0.9560  -0.9540  -0.9537  -0.9437  -0.9333
    -0.9325  -0.9261  -0.9256  -0.9188  -0.9153  -0.9130  -0.8986  -0.8570
    -0.8558  -0.8543  -0.8521  -0.8490  -0.8479  -0.8198  -0.8188  -0.8060
    -0.7895  -0.7863  -0.7800  -0.7791  -0.7715  -0.7634  -0.7630  -0.7274
    -0.7250  -0.7151  -0.7148  -0.6950  -0.6944  -0.6793  -0.6552  -0.6471
    -0.6299  -0.6286  -0.5917  -0.5912  -0.5884  -0.5883  -0.5867  -0.5813
    -0.5808  -0.5800  -0.5763  -0.5737  -0.5411  -0.5404  -0.5399  -0.5392
    -0.5388  -0.5328  -0.5241  -0.5225  -0.4953  -0.2331  -0.2268  -0.1839
    -0.1754  -0.1495  -0.0911   0.0608   0.0623   0.0936   0.3762   0.3785
     0.7147   0.7223   0.7612   0.7620   0.8100   0.8133   0.9688   0.9748
     1.0996   1.1007   1.2150   1.7100   1.7518   1.7558   1.7931   1.7934
     1.9233   1.9368   1.9846   1.9907   2.1683   2.1704   2.4528   2.4776
     2.4868   2.5025   2.9310   2.9420   2.9598   2.9626   2.9764   2.9785
     3.0430   3.0436   3.1924   3.3168   3.3265   3.5060   3.5176   3.6178
     3.6881   3.6922   3.9865   3.9924   4.0448   4.0479   4.0503   4.1931
     4.1960   4.1999   4.2027   4.4907   4.4924   4.5273   4.5279   4.6416
     4.6477   4.7035   4.7157   4.9292   5.1048   5.5877   5.5931   5.6464
     5.6765   5.7965   5.8017   5.8202   5.8694   5.8723   5.8871   5.8889
     5.9500   5.9990   6.0143   6.0843   6.2833   6.2887   6.2926   6.2994
     6.3017   6.3037   6.3131   6.3322   6.4327   6.4499   6.4928   6.5636

          k =-0.2500 0.2500 0.2500 (167588 PWs)   bands (ev):

   -19.4360  -7.2405  -6.7431  -6.2135  -6.2120  -5.7746  -5.3714  -5.2730
    -5.2717  -5.0506  -5.0506  -4.9547  -4.9532  -4.8204  -4.8124  -4.7030
    -4.6144  -4.6105  -4.5895  -4.5893  -4.4083  -4.4074  -4.4062  -4.3800
    -4.3761  -4.3757  -4.3720  -4.3193  -4.3181  -4.3162  -4.3151  -4.2519
    -4.2235  -4.2234  -4.1674  -4.1634  -4.1622  -4.1268  -4.1254  -4.1120
    -4.1076  -4.0889  -4.0889  -4.0518  -4.0196  -4.0185  -4.0171  -4.0138
    -4.0129  -3.9837  -3.9535  -3.9532  -3.9236  -3.9225  -3.9192  -3.9191
    -3.9173  -3.9110  -3.8798  -3.8789  -3.8191  -3.8189  -3.7867  -3.7611
    -3.7528  -3.7498  -3.7494  -3.7275  -3.7269  -3.7150  -3.6653  -3.6646
    -3.6591  -3.6581  -3.5822  -3.5740  -3.5559  -3.5518  -3.5310  -3.5137
    -3.5135  -3.5000  -3.4751  -3.4725  -3.4313  -3.4293  -3.4285  -3.4263
    -3.4041  -3.4025  -3.3232  -3.3221  -3.3211  -3.3069  -3.2916  -3.2889
    -3.2762  -3.2755  -3.2689  -3.2682  -3.2259  -3.2248  -3.2032  -3.2026
    -3.1668  -3.1661  -3.1400  -3.1189  -3.1187  -3.0730  -3.0722  -3.0398
    -3.0125  -3.0123  -3.0109  -3.0108  -3.0071  -3.0063  -2.9795  -2.9705
    -2.9315  -2.9314  -2.9101  -2.8867  -2.8841  -2.8830  -2.8781  -2.8762
    -2.8729  -2.8728  -2.8378  -2.8366  -2.8365  -2.8311  -2.8310  -2.8262
    -2.7710  -2.7653  -2.7617  -2.7602  -2.7390  -2.7387  -2.7336  -2.6448
    -2.6348  -2.6338  -2.6254  -2.6238  -2.6184  -2.6179  -2.6160  -2.6088
    -2.6082  -2.5980  -2.5904  -2.5880  -2.5856  -2.5827  -2.5728  -2.5675
    -2.5653  -2.5430  -2.5333  -2.5315  -2.5168  -2.5163  -2.4996  -2.4995
    -2.4911  -2.4902  -2.4700  -2.4576  -2.4574  -2.4520  -2.4517  -2.4180
    -2.4158  -2.4154  -2.3574  -2.3542  -2.3394  -2.3388  -2.3290  -2.3239
    -2.3014  -2.3007  -2.2967  -2.2846  -2.2838  -2.2733  -2.2713  -2.2565
    -2.2543  -2.2285  -2.2284  -2.2187  -2.2176  -2.2086  -2.2078  -2.1906
    -2.1781  -2.1568  -2.0886  -2.0872  -2.0679  -2.0671  -2.0560  -2.0552
    -2.0067  -2.0045  -1.9907  -1.9707  -1.9586  -1.9581  -1.9399  -1.9219
    -1.9213  -1.9084  -1.9011  -1.8711  -1.8696  -1.8670  -1.8608  -1.8606
    -1.8534  -1.8529  -1.8330  -1.8260  -1.8162  -1.8156  -1.8152  -1.8148
    -1.8146  -1.8119  -1.7997  -1.7801  -1.7795  -1.7764  -1.7711  -1.7584
    -1.7574  -1.7541  -1.7531  -1.7475  -1.7458  -1.7125  -1.7098  -1.6664
    -1.6484  -1.6463  -1.6022  -1.6015  -1.6014  -1.5917  -1.5909  -1.5781
    -1.5773  -1.5705  -1.5695  -1.5592  -1.5589  -1.5387  -1.5380  -1.5017
    -1.5003  -1.4836  -1.4621  -1.4612  -1.4264  -1.4218  -1.4117  -1.3716
    -1.3694  -1.3498  -1.3256  -1.3244  -1.3238  -1.3180  -1.3167  -1.2985
    -1.2974  -1.2970  -1.2965  -1.2951  -1.2945  -1.2925  -1.2899  -1.2882
    -1.2640  -1.2636  -1.2316  -1.2300  -1.2293  -1.2084  -1.2080  -1.2038
    -1.2023  -1.1999  -1.1875  -1.1620  -1.1605  -1.1382  -1.1370  -1.1311
    -1.1158  -1.1050  -1.1030  -1.0754  -1.0746  -1.0682  -1.0669  -1.0302
    -1.0279  -1.0178  -1.0171  -1.0168  -1.0148  -0.9905  -0.9895  -0.9760
    -0.9691  -0.9681  -0.9575  -0.9560  -0.9540  -0.9537  -0.9437  -0.9333
    -0.9325  -0.9261  -0.9256  -0.9187  -0.9153  -0.9130  -0.8986  -0.8570
    -0.8558  -0.8543  -0.8521  -0.8490  -0.8479  -0.8198  -0.8188  -0.8060
    -0.7895  -0.7862  -0.7800  -0.7791  -0.7715  -0.7634  -0.7630  -0.7274
    -0.7250  -0.7151  -0.7148  -0.6950  -0.6944  -0.6793  -0.6552  -0.6471
    -0.6298  -0.6286  -0.5917  -0.5912  -0.5884  -0.5883  -0.5867  -0.5813
    -0.5808  -0.5800  -0.5763  -0.5737  -0.5411  -0.5404  -0.5399  -0.5392
    -0.5388  -0.5328  -0.5241  -0.5225  -0.4952  -0.2331  -0.2268  -0.1838
    -0.1754  -0.1495  -0.0911   0.0608   0.0623   0.0936   0.3762   0.3785
     0.7147   0.7223   0.7612   0.7620   0.8100   0.8133   0.9688   0.9748
     1.0996   1.1008   1.2150   1.7100   1.7519   1.7558   1.7931   1.7934
     1.9233   1.9368   1.9846   1.9907   2.1683   2.1704   2.4528   2.4776
     2.4868   2.5025   2.9310   2.9420   2.9598   2.9626   2.9765   2.9785
     3.0430   3.0436   3.1924   3.3168   3.3265   3.5060   3.5176   3.6178
     3.6881   3.6922   3.9866   3.9924   4.0448   4.0479   4.0503   4.1931
     4.1960   4.2000   4.2028   4.4907   4.4924   4.5273   4.5279   4.6416
     4.6477   4.7035   4.7157   4.9290   5.1023   5.5877   5.5931   5.6467
     5.6732   5.7935   5.7975   5.8061   5.8694   5.8727   5.8871   5.8890
     5.9749   5.9988   6.0259   6.1069   6.2821   6.2878   6.2926   6.2972
     6.3005   6.3034   6.3135   6.3949   6.4239   6.4806   6.5131   6.5673

     the Fermi energy is     1.0433 ev

!    total energy              =   -7379.98209933 Ry
     Harris-Foulkes estimate   =   -7379.98209934 Ry
     estimated scf accuracy    <          9.0E-09 Ry

     The total energy is the sum of the following terms:

     one-electron contribution =  -48618.60788210 Ry
     hartree contribution      =   24861.47280169 Ry
     xc contribution           =   -3556.24004718 Ry
     ewald contribution        =   19933.39198474 Ry
     smearing contrib. (-TS)   =       0.00104351 Ry

     convergence has been achieved in  28 iterations

     Writing output data file 3451068.save

     init_run     :    145.82s CPU    152.66s WALL (       1 calls)
     electrons    :   9448.82s CPU   9861.68s WALL (       1 calls)

     Called by init_run:
     wfcinit      :    114.49s CPU    120.93s WALL (       1 calls)
     potinit      :      3.57s CPU      3.67s WALL (       1 calls)

     Called by electrons:
     c_bands      :   7789.82s CPU   8126.63s WALL (      29 calls)
     sum_band     :   1198.04s CPU   1267.38s WALL (      29 calls)
     v_of_rho     :     19.09s CPU     20.63s WALL (      29 calls)
     newd         :    452.30s CPU    456.72s WALL (      29 calls)
     mix_rho      :      3.85s CPU      4.21s WALL (      29 calls)

     Called by c_bands:
     init_us_2    :     10.50s CPU     10.78s WALL (     354 calls)
     cegterg      :   7602.99s CPU   7938.44s WALL (     174 calls)

     Called by *egterg:
     h_psi        :   2979.11s CPU   3274.86s WALL (     974 calls)
     s_psi        :    380.88s CPU    382.92s WALL (     974 calls)
     g_psi        :      4.82s CPU      4.85s WALL (     794 calls)
     cdiaghg      :   2003.45s CPU   2009.52s WALL (     962 calls)

     Called by h_psi:
     add_vuspsi   :    382.92s CPU    384.81s WALL (     974 calls)

     General routines
     calbec       :    872.52s CPU    875.42s WALL (    1148 calls)
     fft          :    228.14s CPU    231.06s WALL (     464 calls)
     ffts         :      1.84s CPU      2.05s WALL (      58 calls)
     fftw         :   2279.27s CPU   2610.78s WALL (  474054 calls)
     interpolate  :      4.76s CPU      5.38s WALL (      58 calls)
     davcio       :      0.00s CPU      0.10s WALL (       6 calls)

     Parallel routines
     fft_scatter  :   1876.94s CPU   2166.70s WALL (  474576 calls)

     PWSCF        :     2h39m CPU        2h47m WALL


   This run was terminated on:   5:29:46  13Aug2015            

=------------------------------------------------------------------------------=
   JOB DONE.
=------------------------------------------------------------------------------=
