Setting SGE environment for SCC

     Program PWSCF v.5.1.2 starts on 13Aug2015 at  2:18:58 

     This program is part of the open-source Quantum ESPRESSO suite
     for quantum simulation of materials; please cite
         "P. Giannozzi et al., J. Phys.:Condens. Matter 21 395502 (2009);
          URL http://www.quantum-espresso.org", 
     in publications or presentations arising from this work. More details at
     http://www.quantum-espresso.org/quote

     Parallel version (MPI), running on    32 processors
     R & G space division:  proc/nbgrp/npool/nimage =      32
     Reading input from top.O1.Au62.d.3.4.phi.0.psi.180.in
Warning: card &IONS ignored
Warning: card / ignored
Warning: card &CELL ignored
Warning: card / ignored

     Current dimensions of program PWSCF are:
     Max number of different atomic species (ntypx) = 10
     Max number of k-points (npk) =  40000
     Max angular momentum in pseudopotentials (lmaxx) =  3

     Subspace diagonalization in iterative solution of the eigenvalue problem:
     a serial algorithm will be used


     Parallelization info
     --------------------
     sticks:   dense  smooth     PW     G-vecs:    dense   smooth      PW
     Min         578     289     74               118518    41891    5486
     Max         579     290     75               118533    41932    5497
     Sum       18505    9265   2385              3792731  1341081  175711


     Title: 
     top.O1.Au62.d.3.4.phi.0.psi.180                                            


     bravais-lattice index     =            8
     lattice parameter (alat)  =      24.1233  a.u.
     unit-cell volume          =   28076.2361 (a.u.)^3
     number of atoms/cell      =           75
     number of atomic types    =            3
     number of electrons       =       800.00
     number of Kohn-Sham states=          480
     kinetic-energy cutoff     =      50.0000  Ry
     charge density cutoff     =     400.0000  Ry
     convergence threshold     =      1.0E-08
     mixing beta               =       0.7000
     number of iterations used =            8  plain     mixing
     Exchange-correlation      =  SLA  PW   PBE  PBE ( 1  4  3  4 0 0)

     celldm(1)=  24.123277  celldm(2)=   1.000000  celldm(3)=   2.000000
     celldm(4)=   0.000000  celldm(5)=   0.000000  celldm(6)=   0.000000

     crystal axes: (cart. coord. in units of alat)
               a(1) = (   1.000000   0.000000   0.000000 )  
               a(2) = (   0.000000   1.000000   0.000000 )  
               a(3) = (   0.000000   0.000000   2.000000 )  

     reciprocal axes: (cart. coord. in units 2 pi/alat)
               b(1) = (  1.000000  0.000000  0.000000 )  
               b(2) = (  0.000000  1.000000  0.000000 )  
               b(3) = (  0.000000  0.000000  0.500000 )  


     PseudoPot. # 1 for Au read from file:
     /home/scc/andrejb/qe/pseudo/Au.pbe-nd-van.UPF
     MD5 check sum: 458681b50f36d87ef23c61b04bba420a
     Pseudo is Ultrasoft + core correction, Zval = 11.0
     Generated by new atomic code, or converted to UPF format
     Using radial grid of  985 points,  3 beta functions with: 
                l(1) =   1
                l(2) =   2
                l(3) =   2
     Q(r) pseudized with  8 coefficients,  rinner =    1.100   1.100   1.100
                                                       1.100   1.100

     PseudoPot. # 2 for H  read from file:
     /home/scc/andrejb/qe/pseudo/H.pbe-van_ak.UPF
     MD5 check sum: 403db7282739603aa925980fa9b8608d
     Pseudo is Ultrasoft, Zval =  1.0
     Generated by new atomic code, or converted to UPF format
     Using radial grid of  615 points,  1 beta functions with: 
                l(1) =   0
     Q(r) pseudized with  8 coefficients,  rinner =    0.800

     PseudoPot. # 3 for O  read from file:
     /home/scc/andrejb/qe/pseudo/O.pbe-van_ak.UPF
     MD5 check sum: 4b8c549914a63cae506c6ff22b5af4fe
     Pseudo is Ultrasoft, Zval =  6.0
     Generated by new atomic code, or converted to UPF format
     Using radial grid of  737 points,  4 beta functions with: 
                l(1) =   0
                l(2) =   0
                l(3) =   1
                l(4) =   1
     Q(r) pseudized with  8 coefficients,  rinner =    0.800   0.800   0.800


     atomic species   valence    mass     pseudopotential
        Au            11.00   196.96657     Au( 1.00)
        H              1.00     1.01000     H ( 1.00)
        O              6.00    16.00000     O ( 1.00)

     No symmetry found



   Cartesian axes

     site n.     atom                  positions (alat units)
         1           O   tau(   1) = (   0.4998324   0.3332216   0.7656616  )
         2           H   tau(   2) = (   0.4527548   0.3723930   0.7201677  )
         3           H   tau(   3) = (   0.5454827   0.2952199   0.7178040  )
         4           Au  tau(   4) = (   0.0000000   0.0000000   0.0000000  )
         5           Au  tau(   5) = (   0.3332217   0.0000000   0.0000000  )
         6           Au  tau(   6) = (   0.6664435   0.0000000   0.0000000  )
         7           Au  tau(   7) = (   0.1666109   0.1666109   0.0000000  )
         8           Au  tau(   8) = (   0.4998326   0.1666109   0.0000000  )
         9           Au  tau(   9) = (   0.8330542   0.1666109   0.0000000  )
        10           Au  tau(  10) = (   0.0000000   0.3332217   0.0000000  )
        11           Au  tau(  11) = (   0.3332217   0.3332217   0.0000000  )
        12           Au  tau(  12) = (   0.6664435   0.3332217   0.0000000  )
        13           Au  tau(  13) = (   0.1666109   0.4998326   0.0000000  )
        14           Au  tau(  14) = (   0.4998326   0.4998326   0.0000000  )
        15           Au  tau(  15) = (   0.8330542   0.4998326   0.0000000  )
        16           Au  tau(  16) = (   0.0000000   0.6664435   0.0000000  )
        17           Au  tau(  17) = (   0.3332217   0.6664435   0.0000000  )
        18           Au  tau(  18) = (   0.6664435   0.6664435   0.0000000  )
        19           Au  tau(  19) = (   0.1666109   0.8330542   0.0000000  )
        20           Au  tau(  20) = (   0.4998326   0.8330542   0.0000000  )
        21           Au  tau(  21) = (   0.8330542   0.8330542   0.0000000  )
        22           Au  tau(  22) = (   0.1666109   0.0000000   0.1666109  )
        23           Au  tau(  23) = (   0.4998326   0.0000000   0.1666109  )
        24           Au  tau(  24) = (   0.8330542   0.0000000   0.1666109  )
        25           Au  tau(  25) = (   0.0000000   0.1666109   0.1666109  )
        26           Au  tau(  26) = (   0.3332217   0.1666109   0.1666109  )
        27           Au  tau(  27) = (   0.6664435   0.1666109   0.1666109  )
        28           Au  tau(  28) = (   0.1666109   0.3332217   0.1666109  )
        29           Au  tau(  29) = (   0.4998326   0.3332217   0.1666109  )
        30           Au  tau(  30) = (   0.8330542   0.3332217   0.1666109  )
        31           Au  tau(  31) = (   0.0000000   0.4998326   0.1666109  )
        32           Au  tau(  32) = (   0.3332217   0.4998326   0.1666109  )
        33           Au  tau(  33) = (   0.6664435   0.4998326   0.1666109  )
        34           Au  tau(  34) = (   0.1666109   0.6664435   0.1666109  )
        35           Au  tau(  35) = (   0.4998326   0.6664435   0.1666109  )
        36           Au  tau(  36) = (   0.8330542   0.6664435   0.1666109  )
        37           Au  tau(  37) = (   0.0000000   0.8330542   0.1666109  )
        38           Au  tau(  38) = (   0.3332217   0.8330542   0.1666109  )
        39           Au  tau(  39) = (   0.6664435   0.8330542   0.1666109  )
        40           Au  tau(  40) = (  -0.0000182  -0.0000182   0.3335478  )
        41           Au  tau(  41) = (   0.3332215  -0.0000181   0.3335472  )
        42           Au  tau(  42) = (   0.6664447  -0.0000183   0.3335481  )
        43           Au  tau(  43) = (  -0.0000181   0.3332215   0.3335472  )
        44           Au  tau(  44) = (   0.3332215   0.3332215   0.3335468  )
        45           Au  tau(  45) = (   0.6664445   0.3332215   0.3335478  )
        46           Au  tau(  46) = (  -0.0000183   0.6664447   0.3335481  )
        47           Au  tau(  47) = (   0.3332215   0.6664445   0.3335478  )
        48           Au  tau(  48) = (   0.6664446   0.6664446   0.3335486  )
        49           Au  tau(  49) = (   0.1666097   0.1666097   0.3335483  )
        50           Au  tau(  50) = (   0.4998320   0.1666098   0.3335477  )
        51           Au  tau(  51) = (   0.8330732   0.1666096   0.3335481  )
        52           Au  tau(  52) = (   0.1666098   0.4998320   0.3335477  )
        53           Au  tau(  53) = (   0.4998321   0.4998321   0.3335470  )
        54           Au  tau(  54) = (   0.8330730   0.4998322   0.3335474  )
        55           Au  tau(  55) = (   0.1666096   0.8330732   0.3335481  )
        56           Au  tau(  56) = (   0.4998322   0.8330730   0.3335474  )
        57           Au  tau(  57) = (   0.8330731   0.8330731   0.3335478  )
        58           Au  tau(  58) = (   0.1666104  -0.0000111   0.4993095  )
        59           Au  tau(  59) = (   0.4998323  -0.0000112   0.4993099  )
        60           Au  tau(  60) = (   0.8330661  -0.0000111   0.4993009  )
        61           Au  tau(  61) = (  -0.0000111   0.1666104   0.4993095  )
        62           Au  tau(  62) = (   0.3332214   0.1666106   0.4993185  )
        63           Au  tau(  63) = (   0.6664437   0.1666106   0.4993187  )
        64           Au  tau(  64) = (   0.1666106   0.3332214   0.4993185  )
        65           Au  tau(  65) = (   0.4998324   0.3332216   0.4993185  )
        66           Au  tau(  66) = (   0.8330659   0.3332215   0.4993103  )
        67           Au  tau(  67) = (  -0.0000112   0.4998323   0.4993099  )
        68           Au  tau(  68) = (   0.3332216   0.4998324   0.4993185  )
        69           Au  tau(  69) = (   0.6664436   0.4998325   0.4993187  )
        70           Au  tau(  70) = (   0.1666106   0.6664437   0.4993187  )
        71           Au  tau(  71) = (   0.4998325   0.6664436   0.4993187  )
        72           Au  tau(  72) = (   0.8330658   0.6664438   0.4993102  )
        73           Au  tau(  73) = (  -0.0000111   0.8330661   0.4993009  )
        74           Au  tau(  74) = (   0.3332215   0.8330659   0.4993103  )
        75           Au  tau(  75) = (   0.6664438   0.8330658   0.4993102  )

     number of k points=     6  Marzari-Vanderbilt smearing, width (Ry)=  0.0200
                       cart. coord. in units 2pi/alat
        k(    1) = (   0.2500000   0.2500000   0.0833333), wk =   0.3333333
        k(    2) = (   0.2500000   0.2500000  -0.2500000), wk =   0.3333333
        k(    3) = (  -0.2500000  -0.2500000   0.0833333), wk =   0.3333333
        k(    4) = (  -0.2500000   0.2500000  -0.0833333), wk =   0.3333333
        k(    5) = (   0.2500000  -0.2500000  -0.0833333), wk =   0.3333333
        k(    6) = (  -0.2500000   0.2500000   0.2500000), wk =   0.3333333

     Dense  grid:  3792731 G-vectors     FFT dimensions: ( 160, 160, 320)

     Smooth grid:  1341081 G-vectors     FFT dimensions: ( 120, 120, 225)

     Largest allocated arrays     est. size (Mb)     dimensions
        Kohn-Sham Wavefunctions        38.58 Mb     (    5267,  480)
        NL pseudopotentials            76.03 Mb     (    5267,  946)
        Each V/rho on FFT grid          3.91 Mb     (  256000)
        Each G-vector array             0.90 Mb     (  118520)
        G-vector shells                 0.08 Mb     (   10286)
     Largest temporary arrays     est. size (Mb)     dimensions
        Auxiliary wavefunctions       154.31 Mb     (    5267, 1920)
        Each subspace H/S matrix       56.25 Mb     (    1920, 1920)
        Each <psi_i|beta_j> matrix      6.93 Mb     (     946,  480)
        Arrays for rho mixing          31.25 Mb     (  256000,    8)

     Initial potential from superposition of free atoms
     Check: negative starting charge=   -1.945210

     starting charge  799.16392, renormalised to  800.00000

     negative rho (up, down):  1.947E+00 0.000E+00
     Starting wfc are  654 randomized atomic wfcs

     total cpu time spent up to now is      138.3 secs

     Self-consistent Calculation

     iteration #  1     ecut=    50.00 Ry     beta=0.70
     Davidson diagonalization with overlap
     ethr =  1.00E-02,  avg # of iterations =  3.0

     Threshold (ethr) on eigenvalues was too large:
     Diagonalizing with lowered threshold

     Davidson diagonalization with overlap
     ethr =  4.90E-04,  avg # of iterations =  2.0

     negative rho (up, down):  1.932E+00 0.000E+00

     total cpu time spent up to now is      546.6 secs

     total energy              =   -7377.44640945 Ry
     Harris-Foulkes estimate   =   -7380.94065032 Ry
     estimated scf accuracy    <       4.44514897 Ry

     iteration #  2     ecut=    50.00 Ry     beta=0.70
     Davidson diagonalization with overlap
     ethr =  5.56E-04,  avg # of iterations = 11.3

     negative rho (up, down):  1.930E+00 0.000E+00

     total cpu time spent up to now is     1249.9 secs

     total energy              =   -7369.06075074 Ry
     Harris-Foulkes estimate   =   -7387.83635279 Ry
     estimated scf accuracy    <      96.23068882 Ry

     iteration #  3     ecut=    50.00 Ry     beta=0.70
     Davidson diagonalization with overlap
     ethr =  5.56E-04,  avg # of iterations =  6.0

     negative rho (up, down):  1.946E+00 0.000E+00

     total cpu time spent up to now is     1672.0 secs

     total energy              =   -7378.48067856 Ry
     Harris-Foulkes estimate   =   -7380.77239412 Ry
     estimated scf accuracy    <       9.33434402 Ry

     iteration #  4     ecut=    50.00 Ry     beta=0.70
     Davidson diagonalization with overlap
     ethr =  5.56E-04,  avg # of iterations =  6.2

     negative rho (up, down):  1.949E+00 0.000E+00

     total cpu time spent up to now is     1922.6 secs

     total energy              =   -7379.07012307 Ry
     Harris-Foulkes estimate   =   -7380.67931414 Ry
     estimated scf accuracy    <      10.69274022 Ry

     iteration #  5     ecut=    50.00 Ry     beta=0.70
     Davidson diagonalization with overlap
     ethr =  5.56E-04,  avg # of iterations =  5.7

     negative rho (up, down):  1.960E+00 0.000E+00

     total cpu time spent up to now is     2171.7 secs

     total energy              =   -7379.76261985 Ry
     Harris-Foulkes estimate   =   -7380.32365190 Ry
     estimated scf accuracy    <       3.95951735 Ry

     iteration #  6     ecut=    50.00 Ry     beta=0.70
     Davidson diagonalization with overlap
     ethr =  4.95E-04,  avg # of iterations =  2.7

     negative rho (up, down):  1.963E+00 0.000E+00

     total cpu time spent up to now is     2362.8 secs

     total energy              =   -7379.96240600 Ry
     Harris-Foulkes estimate   =   -7380.03326923 Ry
     estimated scf accuracy    <       0.24632269 Ry

     iteration #  7     ecut=    50.00 Ry     beta=0.70
     Davidson diagonalization with overlap
     ethr =  3.08E-05,  avg # of iterations =  6.3

     negative rho (up, down):  1.966E+00 0.000E+00

     total cpu time spent up to now is     2633.2 secs

     total energy              =   -7379.97050891 Ry
     Harris-Foulkes estimate   =   -7380.02877756 Ry
     estimated scf accuracy    <       0.32048759 Ry

     iteration #  8     ecut=    50.00 Ry     beta=0.70
     Davidson diagonalization with overlap
     ethr =  3.08E-05,  avg # of iterations =  3.0

     negative rho (up, down):  1.968E+00 0.000E+00

     total cpu time spent up to now is     2834.2 secs

     total energy              =   -7379.98255228 Ry
     Harris-Foulkes estimate   =   -7380.00375263 Ry
     estimated scf accuracy    <       0.08742404 Ry

     iteration #  9     ecut=    50.00 Ry     beta=0.70
     Davidson diagonalization with overlap
     ethr =  1.09E-05,  avg # of iterations = 10.0

     negative rho (up, down):  1.969E+00 0.000E+00

     total cpu time spent up to now is     3125.5 secs

     total energy              =   -7379.98175516 Ry
     Harris-Foulkes estimate   =   -7379.99377293 Ry
     estimated scf accuracy    <       0.04008307 Ry

     iteration # 10     ecut=    50.00 Ry     beta=0.70
     Davidson diagonalization with overlap
     ethr =  5.01E-06,  avg # of iterations =  9.8

     negative rho (up, down):  1.970E+00 0.000E+00

     total cpu time spent up to now is     3417.4 secs

     total energy              =   -7379.98192123 Ry
     Harris-Foulkes estimate   =   -7379.98649558 Ry
     estimated scf accuracy    <       0.01350721 Ry

     iteration # 11     ecut=    50.00 Ry     beta=0.70
     Davidson diagonalization with overlap
     ethr =  1.69E-06,  avg # of iterations =  6.8

     negative rho (up, down):  1.971E+00 0.000E+00

     total cpu time spent up to now is     3665.1 secs

     total energy              =   -7379.98205754 Ry
     Harris-Foulkes estimate   =   -7379.98408379 Ry
     estimated scf accuracy    <       0.00645651 Ry

     iteration # 12     ecut=    50.00 Ry     beta=0.70
     Davidson diagonalization with overlap
     ethr =  8.07E-07,  avg # of iterations =  5.8

     negative rho (up, down):  1.971E+00 0.000E+00

     total cpu time spent up to now is     3888.0 secs

     total energy              =   -7379.98192039 Ry
     Harris-Foulkes estimate   =   -7379.98280246 Ry
     estimated scf accuracy    <       0.00139870 Ry

     iteration # 13     ecut=    50.00 Ry     beta=0.70
     Davidson diagonalization with overlap
     ethr =  1.75E-07,  avg # of iterations =  4.7

     negative rho (up, down):  1.971E+00 0.000E+00

     total cpu time spent up to now is     4199.3 secs

     total energy              =   -7379.98150897 Ry
     Harris-Foulkes estimate   =   -7379.98331262 Ry
     estimated scf accuracy    <       0.00770958 Ry

     iteration # 14     ecut=    50.00 Ry     beta=0.70
     Davidson diagonalization with overlap
     ethr =  1.75E-07,  avg # of iterations =  3.0

     negative rho (up, down):  1.971E+00 0.000E+00

     total cpu time spent up to now is     4448.4 secs

     total energy              =   -7379.98232459 Ry
     Harris-Foulkes estimate   =   -7379.98243556 Ry
     estimated scf accuracy    <       0.00037901 Ry

     iteration # 15     ecut=    50.00 Ry     beta=0.70
     Davidson diagonalization with overlap
     ethr =  4.74E-08,  avg # of iterations =  2.8

     negative rho (up, down):  1.971E+00 0.000E+00

     total cpu time spent up to now is     4660.7 secs

     total energy              =   -7379.98230184 Ry
     Harris-Foulkes estimate   =   -7379.98248423 Ry
     estimated scf accuracy    <       0.00101836 Ry

     iteration # 16     ecut=    50.00 Ry     beta=0.70
     Davidson diagonalization with overlap
     ethr =  4.74E-08,  avg # of iterations =  2.0

     negative rho (up, down):  1.971E+00 0.000E+00

     total cpu time spent up to now is     4846.0 secs

     total energy              =   -7379.98233607 Ry
     Harris-Foulkes estimate   =   -7379.98246523 Ry
     estimated scf accuracy    <       0.00109813 Ry

     iteration # 17     ecut=    50.00 Ry     beta=0.70
     Davidson diagonalization with overlap
     ethr =  4.74E-08,  avg # of iterations =  1.0

     negative rho (up, down):  1.971E+00 0.000E+00

     total cpu time spent up to now is     5019.6 secs

     total energy              =   -7379.98239927 Ry
     Harris-Foulkes estimate   =   -7379.98240478 Ry
     estimated scf accuracy    <       0.00001680 Ry

     iteration # 18     ecut=    50.00 Ry     beta=0.70
     Davidson diagonalization with overlap
     ethr =  2.10E-09,  avg # of iterations =  3.0

     negative rho (up, down):  1.971E+00 0.000E+00

     total cpu time spent up to now is     5256.0 secs

     total energy              =   -7379.98240091 Ry
     Harris-Foulkes estimate   =   -7379.98240516 Ry
     estimated scf accuracy    <       0.00001412 Ry

     iteration # 19     ecut=    50.00 Ry     beta=0.70
     Davidson diagonalization with overlap
     ethr =  1.77E-09,  avg # of iterations =  2.0

     negative rho (up, down):  1.971E+00 0.000E+00

     total cpu time spent up to now is     5436.0 secs

     total energy              =   -7379.98240251 Ry
     Harris-Foulkes estimate   =   -7379.98240367 Ry
     estimated scf accuracy    <       0.00000385 Ry

     iteration # 20     ecut=    50.00 Ry     beta=0.70
     Davidson diagonalization with overlap
     ethr =  4.81E-10,  avg # of iterations =  2.0

     negative rho (up, down):  1.971E+00 0.000E+00

     total cpu time spent up to now is     5626.9 secs

     total energy              =   -7379.98240280 Ry
     Harris-Foulkes estimate   =   -7379.98240365 Ry
     estimated scf accuracy    <       0.00000433 Ry

     iteration # 21     ecut=    50.00 Ry     beta=0.70
     Davidson diagonalization with overlap
     ethr =  4.81E-10,  avg # of iterations =  2.0

     negative rho (up, down):  1.971E+00 0.000E+00

     total cpu time spent up to now is     5819.0 secs

     total energy              =   -7379.98240314 Ry
     Harris-Foulkes estimate   =   -7379.98240334 Ry
     estimated scf accuracy    <       0.00000068 Ry

     iteration # 22     ecut=    50.00 Ry     beta=0.70
     Davidson diagonalization with overlap
     ethr =  8.44E-11,  avg # of iterations =  3.0

     negative rho (up, down):  1.971E+00 0.000E+00

     total cpu time spent up to now is     6020.4 secs

     total energy              =   -7379.98240321 Ry
     Harris-Foulkes estimate   =   -7379.98240336 Ry
     estimated scf accuracy    <       0.00000061 Ry

     iteration # 23     ecut=    50.00 Ry     beta=0.70
     Davidson diagonalization with overlap
     ethr =  7.60E-11,  avg # of iterations =  3.0

     negative rho (up, down):  1.971E+00 0.000E+00

     total cpu time spent up to now is     6212.4 secs

     total energy              =   -7379.98240326 Ry
     Harris-Foulkes estimate   =   -7379.98240329 Ry
     estimated scf accuracy    <       0.00000007 Ry

     iteration # 24     ecut=    50.00 Ry     beta=0.70
     Davidson diagonalization with overlap
     ethr =  8.89E-12,  avg # of iterations =  3.0

     negative rho (up, down):  1.971E+00 0.000E+00

     total cpu time spent up to now is     6442.9 secs

     total energy              =   -7379.98240327 Ry
     Harris-Foulkes estimate   =   -7379.98240329 Ry
     estimated scf accuracy    <       0.00000013 Ry

     iteration # 25     ecut=    50.00 Ry     beta=0.70
     Davidson diagonalization with overlap
     ethr =  8.89E-12,  avg # of iterations =  2.0

     negative rho (up, down):  1.971E+00 0.000E+00

     total cpu time spent up to now is     6627.1 secs

     total energy              =   -7379.98240328 Ry
     Harris-Foulkes estimate   =   -7379.98240329 Ry
     estimated scf accuracy    <       0.00000002 Ry

     iteration # 26     ecut=    50.00 Ry     beta=0.70
     Davidson diagonalization with overlap
     ethr =  2.82E-12,  avg # of iterations =  2.0

     negative rho (up, down):  1.971E+00 0.000E+00

     total cpu time spent up to now is     6813.3 secs

     total energy              =   -7379.98240328 Ry
     Harris-Foulkes estimate   =   -7379.98240329 Ry
     estimated scf accuracy    <       0.00000002 Ry

     iteration # 27     ecut=    50.00 Ry     beta=0.70
     Davidson diagonalization with overlap
     ethr =  2.82E-12,  avg # of iterations =  3.0

     negative rho (up, down):  1.971E+00 0.000E+00

     total cpu time spent up to now is     7008.9 secs

     total energy              =   -7379.98240328 Ry
     Harris-Foulkes estimate   =   -7379.98240329 Ry
     estimated scf accuracy    <       0.00000007 Ry

     iteration # 28     ecut=    50.00 Ry     beta=0.70
     Davidson diagonalization with overlap
     ethr =  2.82E-12,  avg # of iterations =  2.0

     negative rho (up, down):  1.971E+00 0.000E+00

     total cpu time spent up to now is     7195.4 secs

     End of self-consistent calculation

          k = 0.2500 0.2500 0.0833 (167653 PWs)   bands (ev):

   -19.0054  -6.9470  -6.8236  -6.4170  -6.4163  -5.9785  -5.5758  -5.4766
    -5.4759  -5.2545  -5.2544  -5.1592  -5.1569  -5.0245  -5.0162  -4.9070
    -4.8187  -4.8142  -4.7934  -4.7928  -4.6124  -4.6109  -4.6106  -4.5852
    -4.5801  -4.5792  -4.5749  -4.5239  -4.5219  -4.5196  -4.5193  -4.4557
    -4.4276  -4.4271  -4.3716  -4.3673  -4.3660  -4.3304  -4.3296  -4.3161
    -4.3112  -4.2929  -4.2926  -4.2571  -4.2233  -4.2231  -4.2204  -4.2169
    -4.2168  -4.1881  -4.1583  -4.1562  -4.1270  -4.1267  -4.1235  -4.1226
    -4.1212  -4.1144  -4.0837  -4.0819  -4.0240  -4.0220  -3.9904  -3.9654
    -3.9568  -3.9531  -3.9521  -3.9310  -3.9304  -3.9189  -3.8687  -3.8686
    -3.8629  -3.8624  -3.7789  -3.7768  -3.7563  -3.7544  -3.7204  -3.7200
    -3.7032  -3.6796  -3.6791  -3.6354  -3.6343  -3.6330  -3.6318  -3.6079
    -3.6070  -3.5278  -3.5267  -3.5263  -3.5100  -3.4962  -3.4928  -3.4801
    -3.4796  -3.4731  -3.4723  -3.4319  -3.4299  -3.4078  -3.4068  -3.3708
    -3.3699  -3.3442  -3.3232  -3.3230  -3.2772  -3.2763  -3.2479  -3.2260
    -3.2160  -3.2155  -3.2148  -3.2126  -3.2105  -3.1851  -3.1788  -3.1690
    -3.1356  -3.1312  -3.1094  -3.0904  -3.0876  -3.0833  -3.0805  -3.0780
    -3.0768  -3.0753  -3.0419  -3.0407  -3.0403  -3.0353  -3.0320  -3.0300
    -2.9742  -2.9698  -2.9646  -2.9629  -2.9432  -2.9427  -2.9377  -2.8484
    -2.8387  -2.8378  -2.8291  -2.8281  -2.8227  -2.8214  -2.8196  -2.8122
    -2.8120  -2.8019  -2.7944  -2.7907  -2.7864  -2.7854  -2.7760  -2.7721
    -2.7692  -2.7466  -2.7360  -2.7355  -2.7204  -2.7203  -2.7036  -2.7034
    -2.6946  -2.6943  -2.6738  -2.6615  -2.6615  -2.6567  -2.6536  -2.6212
    -2.6195  -2.6194  -2.5616  -2.5575  -2.5435  -2.5428  -2.5324  -2.5269
    -2.5057  -2.5050  -2.5007  -2.4891  -2.4876  -2.4769  -2.4760  -2.4600
    -2.4591  -2.4327  -2.4324  -2.4227  -2.4221  -2.4123  -2.4120  -2.3932
    -2.3818  -2.3594  -2.2931  -2.2913  -2.2718  -2.2712  -2.2597  -2.2585
    -2.2103  -2.2088  -2.1950  -2.1749  -2.1628  -2.1626  -2.1440  -2.1257
    -2.1253  -2.1123  -2.1037  -2.0778  -2.0753  -2.0719  -2.0624  -2.0621
    -2.0580  -2.0568  -2.0400  -2.0271  -2.0202  -2.0194  -2.0193  -2.0188
    -2.0174  -2.0167  -2.0037  -1.9835  -1.9835  -1.9800  -1.9752  -1.9625
    -1.9615  -1.9581  -1.9572  -1.9510  -1.9500  -1.9146  -1.9134  -1.8702
    -1.8514  -1.8511  -1.8063  -1.8060  -1.8051  -1.7972  -1.7940  -1.7822
    -1.7796  -1.7740  -1.7728  -1.7636  -1.7621  -1.7424  -1.7412  -1.7048
    -1.7047  -1.6875  -1.6656  -1.6654  -1.6267  -1.6250  -1.5752  -1.5751
    -1.5538  -1.5305  -1.5281  -1.5272  -1.5230  -1.5215  -1.5032  -1.5022
    -1.5009  -1.5001  -1.4985  -1.4980  -1.4966  -1.4953  -1.4939  -1.4687
    -1.4675  -1.4357  -1.4350  -1.4347  -1.4132  -1.4117  -1.4068  -1.4067
    -1.4046  -1.3918  -1.3660  -1.3641  -1.3413  -1.3394  -1.3385  -1.3199
    -1.3084  -1.3078  -1.2799  -1.2790  -1.2721  -1.2711  -1.2336  -1.2327
    -1.2214  -1.2212  -1.2204  -1.2199  -1.1944  -1.1935  -1.1804  -1.1732
    -1.1722  -1.1625  -1.1605  -1.1590  -1.1579  -1.1479  -1.1389  -1.1369
    -1.1298  -1.1295  -1.1239  -1.1188  -1.1180  -1.1028  -1.0616  -1.0607
    -1.0580  -1.0579  -1.0539  -1.0509  -1.0278  -1.0244  -1.0103  -0.9969
    -0.9914  -0.9840  -0.9835  -0.9754  -0.9707  -0.9659  -0.9639  -0.9305
    -0.9292  -0.9190  -0.9179  -0.8987  -0.8985  -0.8832  -0.8596  -0.8510
    -0.8338  -0.8328  -0.7956  -0.7951  -0.7928  -0.7908  -0.7897  -0.7858
    -0.7844  -0.7840  -0.7791  -0.7777  -0.7455  -0.7446  -0.7433  -0.7415
    -0.7398  -0.7374  -0.7274  -0.7271  -0.6992  -0.4402  -0.4280  -0.3835
    -0.3813  -0.3536  -0.2937  -0.1423  -0.1421  -0.1086   0.1725   0.1745
     0.5150   0.5157   0.5573   0.5580   0.6080   0.6083   0.7669   0.7697
     0.8949   0.8974   1.0129   1.5064   1.5433   1.5543   1.5890   1.5894
     1.7273   1.7294   1.7828   1.7837   1.9649   1.9656   2.2490   2.2772
     2.2785   2.2987   2.7312   2.7353   2.7557   2.7571   2.7732   2.7740
     2.8390   2.8392   2.9965   3.1183   3.1194   3.3079   3.3082   3.4130
     3.4851   3.4855   3.7856   3.7862   3.8357   3.8437   3.8450   3.9887
     3.9920   4.0083   4.0207   4.2866   4.2876   4.3222   4.3263   4.4370
     4.4430   4.4972   4.5080   4.7875   5.3893   5.3895   5.4451   5.4755
     5.5952   5.5953   5.6609   5.6683   5.6843   5.6851   5.7685   5.7972
     5.8240   5.9709   6.0763   6.0836   6.0858   6.0955   6.0997   6.1116
     6.1674   6.2013   6.2714   6.2928   6.3943   6.4219   6.4423   6.4497

          k = 0.2500 0.2500-0.2500 (167588 PWs)   bands (ev):

   -19.0054  -6.9470  -6.8236  -6.4170  -6.4163  -5.9785  -5.5758  -5.4766
    -5.4759  -5.2545  -5.2544  -5.1592  -5.1569  -5.0245  -5.0162  -4.9070
    -4.8187  -4.8142  -4.7934  -4.7928  -4.6124  -4.6109  -4.6106  -4.5852
    -4.5801  -4.5792  -4.5749  -4.5239  -4.5219  -4.5196  -4.5193  -4.4557
    -4.4276  -4.4271  -4.3716  -4.3674  -4.3660  -4.3304  -4.3296  -4.3161
    -4.3112  -4.2929  -4.2926  -4.2571  -4.2233  -4.2231  -4.2204  -4.2169
    -4.2168  -4.1881  -4.1583  -4.1562  -4.1270  -4.1267  -4.1235  -4.1226
    -4.1213  -4.1144  -4.0837  -4.0819  -4.0240  -4.0220  -3.9904  -3.9654
    -3.9568  -3.9531  -3.9521  -3.9310  -3.9303  -3.9189  -3.8687  -3.8686
    -3.8629  -3.8624  -3.7789  -3.7768  -3.7563  -3.7544  -3.7204  -3.7200
    -3.7032  -3.6796  -3.6791  -3.6353  -3.6342  -3.6330  -3.6318  -3.6079
    -3.6070  -3.5278  -3.5267  -3.5263  -3.5100  -3.4962  -3.4928  -3.4801
    -3.4796  -3.4731  -3.4723  -3.4319  -3.4299  -3.4078  -3.4068  -3.3708
    -3.3699  -3.3442  -3.3232  -3.3230  -3.2772  -3.2763  -3.2479  -3.2259
    -3.2160  -3.2155  -3.2148  -3.2126  -3.2105  -3.1851  -3.1788  -3.1690
    -3.1356  -3.1312  -3.1094  -3.0904  -3.0876  -3.0833  -3.0805  -3.0780
    -3.0768  -3.0753  -3.0419  -3.0407  -3.0403  -3.0353  -3.0320  -3.0300
    -2.9742  -2.9698  -2.9646  -2.9629  -2.9432  -2.9427  -2.9377  -2.8484
    -2.8387  -2.8378  -2.8291  -2.8281  -2.8227  -2.8214  -2.8196  -2.8121
    -2.8120  -2.8019  -2.7944  -2.7907  -2.7864  -2.7854  -2.7760  -2.7721
    -2.7692  -2.7466  -2.7360  -2.7355  -2.7204  -2.7203  -2.7036  -2.7034
    -2.6946  -2.6943  -2.6738  -2.6615  -2.6615  -2.6567  -2.6536  -2.6212
    -2.6195  -2.6194  -2.5616  -2.5575  -2.5435  -2.5428  -2.5324  -2.5269
    -2.5057  -2.5050  -2.5007  -2.4891  -2.4876  -2.4769  -2.4760  -2.4600
    -2.4591  -2.4327  -2.4324  -2.4227  -2.4221  -2.4123  -2.4120  -2.3932
    -2.3818  -2.3594  -2.2931  -2.2913  -2.2718  -2.2712  -2.2597  -2.2585
    -2.2103  -2.2087  -2.1950  -2.1749  -2.1628  -2.1626  -2.1440  -2.1257
    -2.1253  -2.1123  -2.1037  -2.0778  -2.0753  -2.0719  -2.0624  -2.0621
    -2.0580  -2.0568  -2.0400  -2.0271  -2.0202  -2.0194  -2.0193  -2.0188
    -2.0174  -2.0167  -2.0037  -1.9835  -1.9835  -1.9800  -1.9752  -1.9625
    -1.9615  -1.9581  -1.9572  -1.9510  -1.9500  -1.9146  -1.9134  -1.8702
    -1.8514  -1.8511  -1.8063  -1.8060  -1.8051  -1.7972  -1.7940  -1.7822
    -1.7796  -1.7740  -1.7728  -1.7636  -1.7621  -1.7424  -1.7412  -1.7048
    -1.7047  -1.6875  -1.6655  -1.6654  -1.6267  -1.6251  -1.5752  -1.5751
    -1.5538  -1.5305  -1.5281  -1.5272  -1.5231  -1.5215  -1.5032  -1.5021
    -1.5009  -1.5001  -1.4985  -1.4980  -1.4966  -1.4953  -1.4939  -1.4687
    -1.4675  -1.4357  -1.4350  -1.4347  -1.4132  -1.4117  -1.4068  -1.4066
    -1.4046  -1.3918  -1.3660  -1.3641  -1.3413  -1.3394  -1.3385  -1.3199
    -1.3084  -1.3078  -1.2799  -1.2790  -1.2721  -1.2711  -1.2336  -1.2327
    -1.2214  -1.2212  -1.2204  -1.2199  -1.1944  -1.1935  -1.1804  -1.1732
    -1.1722  -1.1625  -1.1605  -1.1590  -1.1579  -1.1479  -1.1389  -1.1369
    -1.1298  -1.1295  -1.1239  -1.1188  -1.1180  -1.1028  -1.0616  -1.0607
    -1.0580  -1.0579  -1.0539  -1.0509  -1.0278  -1.0244  -1.0103  -0.9969
    -0.9914  -0.9840  -0.9835  -0.9754  -0.9707  -0.9659  -0.9639  -0.9305
    -0.9292  -0.9191  -0.9179  -0.8987  -0.8985  -0.8832  -0.8596  -0.8510
    -0.8338  -0.8327  -0.7956  -0.7951  -0.7928  -0.7908  -0.7897  -0.7858
    -0.7844  -0.7840  -0.7791  -0.7777  -0.7455  -0.7446  -0.7433  -0.7415
    -0.7398  -0.7374  -0.7274  -0.7271  -0.6992  -0.4402  -0.4280  -0.3835
    -0.3813  -0.3536  -0.2937  -0.1423  -0.1421  -0.1086   0.1725   0.1745
     0.5150   0.5157   0.5573   0.5580   0.6080   0.6083   0.7669   0.7697
     0.8949   0.8974   1.0129   1.5064   1.5433   1.5543   1.5890   1.5894
     1.7273   1.7294   1.7828   1.7837   1.9649   1.9656   2.2490   2.2772
     2.2785   2.2987   2.7312   2.7353   2.7557   2.7571   2.7732   2.7740
     2.8390   2.8392   2.9965   3.1183   3.1194   3.3079   3.3082   3.4130
     3.4851   3.4855   3.7856   3.7862   3.8357   3.8437   3.8450   3.9887
     3.9920   4.0083   4.0208   4.2866   4.2876   4.3222   4.3263   4.4370
     4.4430   4.4972   4.5080   4.7875   5.3893   5.3895   5.4449   5.4756
     5.5952   5.5953   5.6609   5.6682   5.6843   5.6851   5.7431   5.7964
     5.8000   6.0750   6.0785   6.0837   6.0863   6.0987   6.1009   6.1115
     6.1606   6.1786   6.2690   6.2917   6.3809   6.4223   6.4269   6.4936

          k =-0.2500-0.2500 0.0833 (167653 PWs)   bands (ev):

   -19.0054  -6.9470  -6.8236  -6.4170  -6.4163  -5.9785  -5.5758  -5.4766
    -5.4759  -5.2545  -5.2544  -5.1592  -5.1569  -5.0245  -5.0162  -4.9070
    -4.8187  -4.8142  -4.7934  -4.7928  -4.6124  -4.6109  -4.6106  -4.5852
    -4.5801  -4.5792  -4.5749  -4.5239  -4.5219  -4.5196  -4.5193  -4.4557
    -4.4276  -4.4271  -4.3716  -4.3673  -4.3660  -4.3304  -4.3296  -4.3161
    -4.3112  -4.2929  -4.2926  -4.2571  -4.2233  -4.2231  -4.2204  -4.2169
    -4.2168  -4.1881  -4.1583  -4.1562  -4.1270  -4.1267  -4.1235  -4.1226
    -4.1212  -4.1144  -4.0837  -4.0819  -4.0240  -4.0220  -3.9904  -3.9654
    -3.9568  -3.9531  -3.9521  -3.9310  -3.9304  -3.9189  -3.8687  -3.8686
    -3.8629  -3.8624  -3.7789  -3.7768  -3.7563  -3.7544  -3.7204  -3.7200
    -3.7032  -3.6796  -3.6791  -3.6354  -3.6343  -3.6330  -3.6318  -3.6079
    -3.6070  -3.5278  -3.5267  -3.5263  -3.5100  -3.4962  -3.4928  -3.4801
    -3.4796  -3.4731  -3.4723  -3.4319  -3.4299  -3.4078  -3.4068  -3.3708
    -3.3699  -3.3442  -3.3232  -3.3230  -3.2772  -3.2763  -3.2479  -3.2260
    -3.2160  -3.2155  -3.2148  -3.2126  -3.2105  -3.1851  -3.1788  -3.1690
    -3.1356  -3.1312  -3.1094  -3.0904  -3.0876  -3.0833  -3.0805  -3.0780
    -3.0768  -3.0753  -3.0419  -3.0407  -3.0403  -3.0353  -3.0320  -3.0300
    -2.9742  -2.9698  -2.9646  -2.9629  -2.9432  -2.9427  -2.9377  -2.8484
    -2.8387  -2.8378  -2.8291  -2.8281  -2.8227  -2.8214  -2.8196  -2.8122
    -2.8120  -2.8019  -2.7944  -2.7907  -2.7864  -2.7854  -2.7760  -2.7721
    -2.7692  -2.7466  -2.7360  -2.7355  -2.7204  -2.7203  -2.7036  -2.7034
    -2.6946  -2.6943  -2.6738  -2.6615  -2.6615  -2.6567  -2.6536  -2.6212
    -2.6195  -2.6194  -2.5616  -2.5575  -2.5435  -2.5428  -2.5324  -2.5269
    -2.5057  -2.5050  -2.5007  -2.4891  -2.4876  -2.4769  -2.4760  -2.4600
    -2.4591  -2.4327  -2.4324  -2.4227  -2.4221  -2.4123  -2.4120  -2.3932
    -2.3818  -2.3594  -2.2931  -2.2913  -2.2718  -2.2712  -2.2597  -2.2585
    -2.2103  -2.2088  -2.1950  -2.1749  -2.1628  -2.1626  -2.1440  -2.1257
    -2.1253  -2.1123  -2.1037  -2.0778  -2.0753  -2.0719  -2.0624  -2.0621
    -2.0580  -2.0568  -2.0400  -2.0271  -2.0202  -2.0194  -2.0193  -2.0188
    -2.0174  -2.0167  -2.0037  -1.9835  -1.9835  -1.9800  -1.9752  -1.9625
    -1.9615  -1.9581  -1.9572  -1.9510  -1.9500  -1.9146  -1.9134  -1.8702
    -1.8514  -1.8511  -1.8063  -1.8060  -1.8051  -1.7972  -1.7940  -1.7822
    -1.7796  -1.7740  -1.7728  -1.7636  -1.7621  -1.7424  -1.7412  -1.7048
    -1.7047  -1.6875  -1.6656  -1.6654  -1.6267  -1.6250  -1.5752  -1.5751
    -1.5538  -1.5305  -1.5281  -1.5272  -1.5230  -1.5215  -1.5032  -1.5022
    -1.5009  -1.5001  -1.4985  -1.4980  -1.4966  -1.4953  -1.4939  -1.4687
    -1.4675  -1.4357  -1.4350  -1.4347  -1.4132  -1.4117  -1.4068  -1.4067
    -1.4046  -1.3918  -1.3660  -1.3641  -1.3413  -1.3394  -1.3385  -1.3199
    -1.3084  -1.3078  -1.2799  -1.2790  -1.2721  -1.2711  -1.2336  -1.2327
    -1.2214  -1.2212  -1.2204  -1.2199  -1.1944  -1.1935  -1.1804  -1.1732
    -1.1722  -1.1625  -1.1605  -1.1590  -1.1579  -1.1479  -1.1389  -1.1369
    -1.1298  -1.1295  -1.1239  -1.1188  -1.1180  -1.1028  -1.0616  -1.0607
    -1.0580  -1.0579  -1.0539  -1.0509  -1.0278  -1.0244  -1.0103  -0.9969
    -0.9914  -0.9840  -0.9835  -0.9754  -0.9707  -0.9659  -0.9639  -0.9305
    -0.9292  -0.9190  -0.9179  -0.8987  -0.8985  -0.8832  -0.8596  -0.8510
    -0.8338  -0.8328  -0.7956  -0.7951  -0.7928  -0.7908  -0.7897  -0.7858
    -0.7844  -0.7840  -0.7791  -0.7777  -0.7455  -0.7446  -0.7433  -0.7415
    -0.7398  -0.7374  -0.7274  -0.7271  -0.6992  -0.4402  -0.4280  -0.3835
    -0.3813  -0.3536  -0.2937  -0.1423  -0.1421  -0.1086   0.1725   0.1745
     0.5150   0.5157   0.5573   0.5580   0.6080   0.6083   0.7669   0.7697
     0.8949   0.8974   1.0129   1.5064   1.5433   1.5543   1.5890   1.5894
     1.7273   1.7294   1.7828   1.7837   1.9649   1.9656   2.2490   2.2772
     2.2785   2.2987   2.7312   2.7353   2.7557   2.7571   2.7732   2.7740
     2.8390   2.8392   2.9965   3.1183   3.1194   3.3079   3.3082   3.4130
     3.4851   3.4855   3.7856   3.7862   3.8357   3.8437   3.8450   3.9887
     3.9920   4.0083   4.0207   4.2866   4.2876   4.3222   4.3263   4.4370
     4.4430   4.4972   4.5080   4.7875   5.3893   5.3895   5.4451   5.4755
     5.5952   5.5953   5.6609   5.6683   5.6843   5.6851   5.7685   5.7972
     5.8240   5.9709   6.0763   6.0836   6.0858   6.0955   6.0997   6.1116
     6.1673   6.2013   6.2714   6.2928   6.3943   6.4219   6.4424   6.4497

          k =-0.2500 0.2500-0.0833 (167653 PWs)   bands (ev):

   -19.0054  -6.9471  -6.8236  -6.4179  -6.4154  -5.9784  -5.5757  -5.4774
    -5.4751  -5.2545  -5.2544  -5.1607  -5.1558  -5.0242  -5.0163  -4.9069
    -4.8186  -4.8144  -4.7939  -4.7926  -4.6123  -4.6117  -4.6099  -4.5852
    -4.5800  -4.5792  -4.5749  -4.5246  -4.5208  -4.5203  -4.5186  -4.4558
    -4.4277  -4.4270  -4.3714  -4.3674  -4.3659  -4.3317  -4.3287  -4.3162
    -4.3112  -4.2929  -4.2925  -4.2565  -4.2238  -4.2227  -4.2200  -4.2174
    -4.2164  -4.1875  -4.1605  -4.1555  -4.1275  -4.1261  -4.1239  -4.1224
    -4.1214  -4.1143  -4.0855  -4.0809  -4.0242  -4.0210  -3.9901  -3.9666
    -3.9566  -3.9536  -3.9520  -3.9313  -3.9302  -3.9189  -3.8686  -3.8685
    -3.8634  -3.8618  -3.7792  -3.7758  -3.7573  -3.7535  -3.7203  -3.7199
    -3.7032  -3.6795  -3.6792  -3.6359  -3.6335  -3.6335  -3.6315  -3.6084
    -3.6060  -3.5273  -3.5272  -3.5257  -3.5102  -3.4961  -3.4930  -3.4806
    -3.4791  -3.4736  -3.4722  -3.4322  -3.4298  -3.4081  -3.4064  -3.3712
    -3.3694  -3.3443  -3.3234  -3.3226  -3.2773  -3.2757  -3.2475  -3.2264
    -3.2160  -3.2156  -3.2144  -3.2130  -3.2103  -3.1851  -3.1800  -3.1683
    -3.1356  -3.1308  -3.1104  -3.0903  -3.0872  -3.0834  -3.0796  -3.0791
    -3.0768  -3.0749  -3.0418  -3.0407  -3.0398  -3.0354  -3.0317  -3.0298
    -2.9742  -2.9702  -2.9646  -2.9639  -2.9434  -2.9425  -2.9374  -2.8484
    -2.8393  -2.8372  -2.8303  -2.8272  -2.8229  -2.8210  -2.8200  -2.8124
    -2.8118  -2.8020  -2.7943  -2.7903  -2.7864  -2.7861  -2.7760  -2.7720
    -2.7691  -2.7464  -2.7367  -2.7351  -2.7206  -2.7202  -2.7038  -2.7032
    -2.6950  -2.6938  -2.6738  -2.6618  -2.6613  -2.6568  -2.6534  -2.6214
    -2.6195  -2.6193  -2.5618  -2.5575  -2.5433  -2.5427  -2.5324  -2.5266
    -2.5063  -2.5045  -2.5007  -2.4895  -2.4875  -2.4776  -2.4747  -2.4611
    -2.4578  -2.4325  -2.4324  -2.4226  -2.4214  -2.4128  -2.4116  -2.3935
    -2.3821  -2.3595  -2.2935  -2.2910  -2.2724  -2.2707  -2.2597  -2.2586
    -2.2116  -2.2076  -2.1957  -2.1748  -2.1627  -2.1625  -2.1439  -2.1262
    -2.1250  -2.1123  -2.1038  -2.0822  -2.0737  -2.0709  -2.0622  -2.0621
    -2.0584  -2.0563  -2.0415  -2.0271  -2.0208  -2.0196  -2.0186  -2.0185
    -2.0182  -2.0155  -2.0036  -1.9838  -1.9833  -1.9802  -1.9751  -1.9631
    -1.9607  -1.9586  -1.9565  -1.9510  -1.9500  -1.9143  -1.9138  -1.8702
    -1.8521  -1.8502  -1.8065  -1.8057  -1.8052  -1.7975  -1.7932  -1.7835
    -1.7789  -1.7740  -1.7723  -1.7643  -1.7615  -1.7424  -1.7412  -1.7053
    -1.7042  -1.6874  -1.6658  -1.6647  -1.6276  -1.6241  -1.5753  -1.5749
    -1.5537  -1.5302  -1.5282  -1.5271  -1.5229  -1.5216  -1.5047  -1.5017
    -1.5000  -1.4990  -1.4988  -1.4982  -1.4967  -1.4957  -1.4939  -1.4691
    -1.4670  -1.4367  -1.4349  -1.4335  -1.4133  -1.4112  -1.4077  -1.4060
    -1.4038  -1.3912  -1.3667  -1.3642  -1.3406  -1.3390  -1.3389  -1.3199
    -1.3094  -1.3070  -1.2801  -1.2782  -1.2727  -1.2709  -1.2346  -1.2324
    -1.2218  -1.2215  -1.2206  -1.2194  -1.1951  -1.1931  -1.1803  -1.1736
    -1.1718  -1.1614  -1.1608  -1.1597  -1.1568  -1.1479  -1.1379  -1.1376
    -1.1302  -1.1294  -1.1222  -1.1212  -1.1190  -1.1026  -1.0650  -1.0589
    -1.0587  -1.0581  -1.0548  -1.0511  -1.0341  -1.0226  -1.0102  -0.9938
    -0.9930  -0.9846  -0.9835  -0.9755  -0.9686  -0.9671  -0.9540  -0.9313
    -0.9291  -0.9189  -0.9187  -0.8991  -0.8978  -0.8831  -0.8591  -0.8508
    -0.8344  -0.8321  -0.7962  -0.7955  -0.7924  -0.7907  -0.7903  -0.7857
    -0.7855  -0.7836  -0.7793  -0.7776  -0.7456  -0.7436  -0.7433  -0.7404
    -0.7398  -0.7381  -0.7286  -0.7265  -0.6991  -0.4404  -0.4280  -0.3843
    -0.3795  -0.3538  -0.2956  -0.1439  -0.1412  -0.1094   0.1727   0.1749
     0.5119   0.5185   0.5565   0.5584   0.6050   0.6098   0.7653   0.7717
     0.8950   0.8976   1.0133   1.5059   1.5471   1.5543   1.5887   1.5900
     1.7182   1.7372   1.7808   1.7860   1.9631   1.9670   2.2509   2.2738
     2.2822   2.2983   2.7248   2.7419   2.7571   2.7572   2.7716   2.7750
     2.8380   2.8402   2.9944   3.1099   3.1243   3.3017   3.3087   3.4135
     3.4829   3.4888   3.7789   3.7903   3.8415   3.8451   3.8465   3.9834
     3.9936   3.9943   4.0337   4.2840   4.2891   4.3230   4.3275   4.4397
     4.4402   4.5001   4.5151   4.7947   5.3664   5.3920   5.4453   5.4939
     5.5883   5.5989   5.6642   5.6695   5.6763   5.6865   5.7723   5.7904
     5.8125   5.9578   6.0624   6.0807   6.0886   6.0985   6.0992   6.1133
     6.1452   6.2295   6.2691   6.3000   6.3984   6.4241   6.4345   6.4581

          k = 0.2500-0.2500-0.0833 (167653 PWs)   bands (ev):

   -19.0054  -6.9471  -6.8236  -6.4179  -6.4154  -5.9784  -5.5757  -5.4774
    -5.4751  -5.2545  -5.2544  -5.1607  -5.1558  -5.0242  -5.0163  -4.9069
    -4.8186  -4.8144  -4.7939  -4.7926  -4.6123  -4.6117  -4.6099  -4.5852
    -4.5800  -4.5792  -4.5749  -4.5246  -4.5208  -4.5203  -4.5186  -4.4558
    -4.4277  -4.4270  -4.3714  -4.3674  -4.3659  -4.3317  -4.3287  -4.3162
    -4.3112  -4.2929  -4.2925  -4.2565  -4.2238  -4.2227  -4.2200  -4.2174
    -4.2164  -4.1875  -4.1605  -4.1555  -4.1275  -4.1261  -4.1239  -4.1224
    -4.1214  -4.1143  -4.0855  -4.0809  -4.0242  -4.0210  -3.9901  -3.9666
    -3.9566  -3.9536  -3.9520  -3.9313  -3.9302  -3.9189  -3.8686  -3.8685
    -3.8634  -3.8618  -3.7792  -3.7758  -3.7573  -3.7535  -3.7203  -3.7199
    -3.7032  -3.6795  -3.6792  -3.6359  -3.6335  -3.6335  -3.6315  -3.6084
    -3.6060  -3.5273  -3.5272  -3.5257  -3.5102  -3.4961  -3.4930  -3.4806
    -3.4791  -3.4736  -3.4722  -3.4322  -3.4298  -3.4081  -3.4064  -3.3712
    -3.3694  -3.3443  -3.3234  -3.3226  -3.2773  -3.2757  -3.2475  -3.2264
    -3.2160  -3.2156  -3.2144  -3.2130  -3.2103  -3.1851  -3.1800  -3.1683
    -3.1356  -3.1308  -3.1104  -3.0903  -3.0872  -3.0834  -3.0796  -3.0791
    -3.0768  -3.0749  -3.0418  -3.0407  -3.0398  -3.0354  -3.0317  -3.0298
    -2.9742  -2.9702  -2.9646  -2.9639  -2.9434  -2.9425  -2.9374  -2.8484
    -2.8393  -2.8372  -2.8303  -2.8272  -2.8229  -2.8210  -2.8200  -2.8124
    -2.8118  -2.8020  -2.7943  -2.7903  -2.7864  -2.7861  -2.7760  -2.7720
    -2.7691  -2.7464  -2.7367  -2.7351  -2.7206  -2.7202  -2.7038  -2.7032
    -2.6950  -2.6938  -2.6738  -2.6618  -2.6613  -2.6568  -2.6534  -2.6214
    -2.6195  -2.6193  -2.5618  -2.5575  -2.5433  -2.5427  -2.5324  -2.5266
    -2.5063  -2.5045  -2.5007  -2.4895  -2.4875  -2.4776  -2.4747  -2.4611
    -2.4578  -2.4325  -2.4324  -2.4226  -2.4214  -2.4128  -2.4116  -2.3935
    -2.3821  -2.3595  -2.2935  -2.2910  -2.2724  -2.2707  -2.2597  -2.2586
    -2.2116  -2.2076  -2.1957  -2.1748  -2.1627  -2.1625  -2.1439  -2.1262
    -2.1250  -2.1123  -2.1038  -2.0822  -2.0737  -2.0709  -2.0622  -2.0621
    -2.0584  -2.0563  -2.0415  -2.0271  -2.0208  -2.0196  -2.0186  -2.0185
    -2.0182  -2.0155  -2.0036  -1.9838  -1.9833  -1.9802  -1.9751  -1.9631
    -1.9607  -1.9586  -1.9565  -1.9510  -1.9500  -1.9143  -1.9138  -1.8702
    -1.8521  -1.8502  -1.8065  -1.8057  -1.8052  -1.7975  -1.7932  -1.7835
    -1.7789  -1.7740  -1.7723  -1.7643  -1.7615  -1.7424  -1.7412  -1.7053
    -1.7042  -1.6874  -1.6658  -1.6647  -1.6276  -1.6241  -1.5753  -1.5749
    -1.5537  -1.5302  -1.5282  -1.5271  -1.5229  -1.5216  -1.5047  -1.5017
    -1.5000  -1.4990  -1.4988  -1.4982  -1.4967  -1.4957  -1.4939  -1.4691
    -1.4670  -1.4367  -1.4349  -1.4335  -1.4133  -1.4112  -1.4077  -1.4060
    -1.4038  -1.3912  -1.3667  -1.3642  -1.3406  -1.3390  -1.3389  -1.3199
    -1.3094  -1.3070  -1.2801  -1.2782  -1.2727  -1.2709  -1.2346  -1.2324
    -1.2218  -1.2215  -1.2206  -1.2194  -1.1951  -1.1931  -1.1803  -1.1736
    -1.1718  -1.1614  -1.1608  -1.1597  -1.1568  -1.1479  -1.1379  -1.1376
    -1.1302  -1.1294  -1.1222  -1.1212  -1.1190  -1.1026  -1.0650  -1.0589
    -1.0587  -1.0581  -1.0548  -1.0511  -1.0341  -1.0226  -1.0102  -0.9938
    -0.9930  -0.9846  -0.9835  -0.9755  -0.9686  -0.9671  -0.9540  -0.9313
    -0.9291  -0.9189  -0.9187  -0.8991  -0.8978  -0.8831  -0.8591  -0.8508
    -0.8344  -0.8321  -0.7962  -0.7955  -0.7924  -0.7907  -0.7903  -0.7857
    -0.7855  -0.7836  -0.7793  -0.7776  -0.7456  -0.7436  -0.7433  -0.7404
    -0.7398  -0.7381  -0.7286  -0.7265  -0.6991  -0.4404  -0.4280  -0.3843
    -0.3795  -0.3538  -0.2956  -0.1439  -0.1412  -0.1094   0.1727   0.1749
     0.5119   0.5185   0.5565   0.5584   0.6050   0.6098   0.7653   0.7717
     0.8950   0.8976   1.0133   1.5059   1.5471   1.5543   1.5887   1.5900
     1.7182   1.7372   1.7808   1.7860   1.9631   1.9670   2.2509   2.2738
     2.2822   2.2983   2.7248   2.7419   2.7571   2.7572   2.7716   2.7750
     2.8380   2.8402   2.9944   3.1099   3.1243   3.3017   3.3087   3.4135
     3.4829   3.4888   3.7789   3.7903   3.8415   3.8451   3.8465   3.9834
     3.9936   3.9943   4.0337   4.2840   4.2891   4.3230   4.3275   4.4397
     4.4402   4.5001   4.5151   4.7947   5.3664   5.3920   5.4453   5.4939
     5.5883   5.5989   5.6642   5.6695   5.6763   5.6865   5.7723   5.7904
     5.8125   5.9582   6.0623   6.0807   6.0886   6.0985   6.0992   6.1133
     6.1449   6.2295   6.2691   6.3000   6.3984   6.4243   6.4346   6.4581

          k =-0.2500 0.2500 0.2500 (167588 PWs)   bands (ev):

   -19.0054  -6.9471  -6.8236  -6.4179  -6.4154  -5.9784  -5.5757  -5.4774
    -5.4751  -5.2545  -5.2544  -5.1607  -5.1558  -5.0242  -5.0163  -4.9069
    -4.8186  -4.8144  -4.7939  -4.7926  -4.6123  -4.6117  -4.6099  -4.5852
    -4.5800  -4.5792  -4.5749  -4.5246  -4.5208  -4.5203  -4.5186  -4.4558
    -4.4277  -4.4270  -4.3714  -4.3674  -4.3659  -4.3316  -4.3287  -4.3162
    -4.3112  -4.2929  -4.2925  -4.2565  -4.2238  -4.2227  -4.2200  -4.2174
    -4.2164  -4.1875  -4.1605  -4.1555  -4.1275  -4.1261  -4.1239  -4.1224
    -4.1214  -4.1143  -4.0855  -4.0809  -4.0242  -4.0210  -3.9901  -3.9666
    -3.9566  -3.9535  -3.9520  -3.9313  -3.9302  -3.9189  -3.8686  -3.8685
    -3.8634  -3.8618  -3.7792  -3.7758  -3.7573  -3.7535  -3.7203  -3.7199
    -3.7032  -3.6795  -3.6792  -3.6359  -3.6335  -3.6335  -3.6315  -3.6084
    -3.6060  -3.5273  -3.5272  -3.5257  -3.5102  -3.4961  -3.4930  -3.4806
    -3.4791  -3.4736  -3.4722  -3.4322  -3.4298  -3.4081  -3.4064  -3.3712
    -3.3694  -3.3443  -3.3234  -3.3226  -3.2773  -3.2757  -3.2475  -3.2264
    -3.2160  -3.2156  -3.2144  -3.2130  -3.2103  -3.1851  -3.1800  -3.1683
    -3.1356  -3.1308  -3.1104  -3.0903  -3.0872  -3.0834  -3.0796  -3.0791
    -3.0768  -3.0749  -3.0418  -3.0407  -3.0398  -3.0354  -3.0316  -3.0297
    -2.9742  -2.9702  -2.9646  -2.9639  -2.9434  -2.9425  -2.9374  -2.8484
    -2.8393  -2.8372  -2.8303  -2.8272  -2.8229  -2.8210  -2.8200  -2.8124
    -2.8118  -2.8020  -2.7943  -2.7903  -2.7865  -2.7861  -2.7759  -2.7720
    -2.7691  -2.7464  -2.7367  -2.7351  -2.7206  -2.7202  -2.7038  -2.7032
    -2.6950  -2.6938  -2.6738  -2.6618  -2.6613  -2.6568  -2.6534  -2.6214
    -2.6195  -2.6193  -2.5618  -2.5575  -2.5433  -2.5427  -2.5323  -2.5266
    -2.5063  -2.5045  -2.5007  -2.4895  -2.4875  -2.4776  -2.4747  -2.4611
    -2.4578  -2.4325  -2.4324  -2.4226  -2.4214  -2.4128  -2.4116  -2.3935
    -2.3821  -2.3595  -2.2936  -2.2910  -2.2724  -2.2707  -2.2597  -2.2586
    -2.2116  -2.2076  -2.1957  -2.1748  -2.1627  -2.1625  -2.1439  -2.1262
    -2.1250  -2.1123  -2.1038  -2.0822  -2.0737  -2.0709  -2.0622  -2.0621
    -2.0584  -2.0563  -2.0415  -2.0271  -2.0208  -2.0196  -2.0186  -2.0185
    -2.0182  -2.0155  -2.0036  -1.9838  -1.9833  -1.9802  -1.9751  -1.9631
    -1.9607  -1.9586  -1.9565  -1.9510  -1.9500  -1.9142  -1.9138  -1.8702
    -1.8521  -1.8502  -1.8065  -1.8057  -1.8052  -1.7975  -1.7932  -1.7835
    -1.7789  -1.7740  -1.7723  -1.7643  -1.7615  -1.7424  -1.7412  -1.7053
    -1.7042  -1.6874  -1.6658  -1.6647  -1.6276  -1.6241  -1.5753  -1.5749
    -1.5537  -1.5302  -1.5282  -1.5271  -1.5229  -1.5216  -1.5047  -1.5017
    -1.5000  -1.4990  -1.4988  -1.4982  -1.4967  -1.4957  -1.4939  -1.4691
    -1.4670  -1.4367  -1.4349  -1.4335  -1.4133  -1.4112  -1.4077  -1.4060
    -1.4038  -1.3912  -1.3667  -1.3642  -1.3406  -1.3390  -1.3389  -1.3199
    -1.3094  -1.3070  -1.2801  -1.2782  -1.2727  -1.2709  -1.2346  -1.2324
    -1.2218  -1.2215  -1.2206  -1.2194  -1.1951  -1.1931  -1.1803  -1.1736
    -1.1718  -1.1614  -1.1607  -1.1597  -1.1568  -1.1479  -1.1379  -1.1376
    -1.1302  -1.1294  -1.1222  -1.1212  -1.1190  -1.1026  -1.0650  -1.0589
    -1.0587  -1.0581  -1.0548  -1.0511  -1.0341  -1.0226  -1.0102  -0.9938
    -0.9930  -0.9846  -0.9835  -0.9755  -0.9686  -0.9671  -0.9540  -0.9313
    -0.9291  -0.9189  -0.9187  -0.8991  -0.8978  -0.8831  -0.8591  -0.8508
    -0.8344  -0.8321  -0.7962  -0.7955  -0.7924  -0.7907  -0.7903  -0.7857
    -0.7855  -0.7836  -0.7793  -0.7776  -0.7456  -0.7436  -0.7433  -0.7404
    -0.7398  -0.7381  -0.7286  -0.7265  -0.6991  -0.4404  -0.4280  -0.3843
    -0.3795  -0.3538  -0.2956  -0.1439  -0.1412  -0.1094   0.1727   0.1749
     0.5119   0.5185   0.5565   0.5584   0.6050   0.6099   0.7653   0.7717
     0.8950   0.8977   1.0133   1.5059   1.5471   1.5543   1.5887   1.5900
     1.7182   1.7372   1.7808   1.7860   1.9631   1.9670   2.2509   2.2738
     2.2822   2.2983   2.7248   2.7419   2.7571   2.7572   2.7716   2.7750
     2.8380   2.8402   2.9944   3.1099   3.1243   3.3017   3.3087   3.4135
     3.4829   3.4888   3.7789   3.7903   3.8415   3.8451   3.8465   3.9834
     3.9936   3.9943   4.0337   4.2839   4.2891   4.3230   4.3275   4.4397
     4.4402   4.5001   4.5151   4.7948   5.3663   5.3920   5.4453   5.4940
     5.5883   5.5989   5.6640   5.6695   5.6762   5.6865   5.7447   5.7860
     5.7962   6.0195   6.0709   6.0886   6.0985   6.0991   6.1087   6.1133
     6.1707   6.1848   6.2657   6.3003   6.3888   6.4185   6.4335   6.4898

     the Fermi energy is     0.8397 ev

!    total energy              =   -7379.98240328 Ry
     Harris-Foulkes estimate   =   -7379.98240328 Ry
     estimated scf accuracy    <          1.6E-09 Ry

     The total energy is the sum of the following terms:

     one-electron contribution =  -48681.66647369 Ry
     hartree contribution      =   24887.19808502 Ry
     xc contribution           =   -3556.24921981 Ry
     ewald contribution        =   19970.73409334 Ry
     smearing contrib. (-TS)   =       0.00111187 Ry

     convergence has been achieved in  28 iterations

     Writing output data file 7604258.save

     init_run     :    130.85s CPU    137.74s WALL (       1 calls)
     electrons    :   6674.87s CPU   7057.72s WALL (       1 calls)

     Called by init_run:
     wfcinit      :     76.74s CPU     83.14s WALL (       1 calls)
     potinit      :      3.20s CPU      3.32s WALL (       1 calls)

     Called by electrons:
     c_bands      :   5731.34s CPU   6041.19s WALL (      29 calls)
     sum_band     :    712.95s CPU    779.81s WALL (      29 calls)
     v_of_rho     :     12.95s CPU     14.48s WALL (      29 calls)
     newd         :    222.40s CPU    226.17s WALL (      29 calls)
     mix_rho      :      2.33s CPU      2.73s WALL (      29 calls)

     Called by c_bands:
     init_us_2    :      9.61s CPU      9.92s WALL (     354 calls)
     cegterg      :   5600.88s CPU   5909.61s WALL (     174 calls)

     Called by *egterg:
     h_psi        :   2169.55s CPU   2444.48s WALL (     895 calls)
     s_psi        :    372.25s CPU    374.18s WALL (     895 calls)
     g_psi        :      4.77s CPU      4.77s WALL (     715 calls)
     cdiaghg      :   1612.73s CPU   1617.59s WALL (     883 calls)

     Called by h_psi:
     add_vuspsi   :    374.35s CPU    376.43s WALL (     895 calls)

     General routines
     calbec       :    594.62s CPU    596.75s WALL (    1069 calls)
     fft          :     38.75s CPU     41.27s WALL (     464 calls)
     ffts         :      1.25s CPU      1.45s WALL (      58 calls)
     fftw         :   1492.72s CPU   1791.90s WALL (  470140 calls)
     interpolate  :      2.99s CPU      3.62s WALL (      58 calls)
     davcio       :      0.00s CPU      0.11s WALL (       6 calls)

     Parallel routines
     fft_scatter  :    984.55s CPU   1189.56s WALL (  470662 calls)

     PWSCF        :     1h53m CPU        2h 0m WALL


   This run was terminated on:   4:19:17  13Aug2015            

=------------------------------------------------------------------------------=
   JOB DONE.
=------------------------------------------------------------------------------=
