
     Program PWSCF v.5.1.2 starts on 13Aug2015 at  0: 2:25 

     This program is part of the open-source Quantum ESPRESSO suite
     for quantum simulation of materials; please cite
         "P. Giannozzi et al., J. Phys.:Condens. Matter 21 395502 (2009);
          URL http://www.quantum-espresso.org", 
     in publications or presentations arising from this work. More details at
     http://www.quantum-espresso.org/quote

     Parallel version (MPI), running on    32 processors
     R & G space division:  proc/nbgrp/npool/nimage =      32
     Reading input from top.O1.Au62.d.3.4.phi.0.psi.0.in
Warning: card &IONS ignored
Warning: card / ignored
Warning: card &CELL ignored
Warning: card / ignored

     Current dimensions of program PWSCF are:
     Max number of different atomic species (ntypx) = 10
     Max number of k-points (npk) =  40000
     Max angular momentum in pseudopotentials (lmaxx) =  3

     Subspace diagonalization in iterative solution of the eigenvalue problem:
     a serial algorithm will be used


     Parallelization info
     --------------------
     sticks:   dense  smooth     PW     G-vecs:    dense   smooth      PW
     Min         578     289     74               118518    41891    5486
     Max         579     290     75               118533    41932    5497
     Sum       18505    9265   2385              3792731  1341081  175711


     Title: 
     top.O1.Au62.d.3.4.phi.0.psi.0                                              


     bravais-lattice index     =            8
     lattice parameter (alat)  =      24.1233  a.u.
     unit-cell volume          =   28076.2361 (a.u.)^3
     number of atoms/cell      =           75
     number of atomic types    =            3
     number of electrons       =       800.00
     number of Kohn-Sham states=          480
     kinetic-energy cutoff     =      50.0000  Ry
     charge density cutoff     =     400.0000  Ry
     convergence threshold     =      1.0E-08
     mixing beta               =       0.7000
     number of iterations used =            8  plain     mixing
     Exchange-correlation      =  SLA  PW   PBE  PBE ( 1  4  3  4 0 0)

     celldm(1)=  24.123277  celldm(2)=   1.000000  celldm(3)=   2.000000
     celldm(4)=   0.000000  celldm(5)=   0.000000  celldm(6)=   0.000000

     crystal axes: (cart. coord. in units of alat)
               a(1) = (   1.000000   0.000000   0.000000 )  
               a(2) = (   0.000000   1.000000   0.000000 )  
               a(3) = (   0.000000   0.000000   2.000000 )  

     reciprocal axes: (cart. coord. in units 2 pi/alat)
               b(1) = (  1.000000  0.000000  0.000000 )  
               b(2) = (  0.000000  1.000000  0.000000 )  
               b(3) = (  0.000000  0.000000  0.500000 )  


     PseudoPot. # 1 for Au read from file:
     /home/scc/andrejb/qe/pseudo/Au.pbe-nd-van.UPF
     MD5 check sum: 458681b50f36d87ef23c61b04bba420a
     Pseudo is Ultrasoft + core correction, Zval = 11.0
     Generated by new atomic code, or converted to UPF format
     Using radial grid of  985 points,  3 beta functions with: 
                l(1) =   1
                l(2) =   2
                l(3) =   2
     Q(r) pseudized with  8 coefficients,  rinner =    1.100   1.100   1.100
                                                       1.100   1.100

     PseudoPot. # 2 for H  read from file:
     /home/scc/andrejb/qe/pseudo/H.pbe-van_ak.UPF
     MD5 check sum: 403db7282739603aa925980fa9b8608d
     Pseudo is Ultrasoft, Zval =  1.0
     Generated by new atomic code, or converted to UPF format
     Using radial grid of  615 points,  1 beta functions with: 
                l(1) =   0
     Q(r) pseudized with  8 coefficients,  rinner =    0.800

     PseudoPot. # 3 for O  read from file:
     /home/scc/andrejb/qe/pseudo/O.pbe-van_ak.UPF
     MD5 check sum: 4b8c549914a63cae506c6ff22b5af4fe
     Pseudo is Ultrasoft, Zval =  6.0
     Generated by new atomic code, or converted to UPF format
     Using radial grid of  737 points,  4 beta functions with: 
                l(1) =   0
                l(2) =   0
                l(3) =   1
                l(4) =   1
     Q(r) pseudized with  8 coefficients,  rinner =    0.800   0.800   0.800


     atomic species   valence    mass     pseudopotential
        Au            11.00   196.96657     Au( 1.00)
        H              1.00     1.01000     H ( 1.00)
        O              6.00    16.00000     O ( 1.00)

     No symmetry found



   Cartesian axes

     site n.     atom                  positions (alat units)
         1           O   tau(   1) = (   0.4998324   0.3332216   0.7656616  )
         2           H   tau(   2) = (   0.4527548   0.2940501   0.8111555  )
         3           H   tau(   3) = (   0.5454827   0.3712232   0.8135193  )
         4           Au  tau(   4) = (   0.0000000   0.0000000   0.0000000  )
         5           Au  tau(   5) = (   0.3332217   0.0000000   0.0000000  )
         6           Au  tau(   6) = (   0.6664435   0.0000000   0.0000000  )
         7           Au  tau(   7) = (   0.1666109   0.1666109   0.0000000  )
         8           Au  tau(   8) = (   0.4998326   0.1666109   0.0000000  )
         9           Au  tau(   9) = (   0.8330542   0.1666109   0.0000000  )
        10           Au  tau(  10) = (   0.0000000   0.3332217   0.0000000  )
        11           Au  tau(  11) = (   0.3332217   0.3332217   0.0000000  )
        12           Au  tau(  12) = (   0.6664435   0.3332217   0.0000000  )
        13           Au  tau(  13) = (   0.1666109   0.4998326   0.0000000  )
        14           Au  tau(  14) = (   0.4998326   0.4998326   0.0000000  )
        15           Au  tau(  15) = (   0.8330542   0.4998326   0.0000000  )
        16           Au  tau(  16) = (   0.0000000   0.6664435   0.0000000  )
        17           Au  tau(  17) = (   0.3332217   0.6664435   0.0000000  )
        18           Au  tau(  18) = (   0.6664435   0.6664435   0.0000000  )
        19           Au  tau(  19) = (   0.1666109   0.8330542   0.0000000  )
        20           Au  tau(  20) = (   0.4998326   0.8330542   0.0000000  )
        21           Au  tau(  21) = (   0.8330542   0.8330542   0.0000000  )
        22           Au  tau(  22) = (   0.1666109   0.0000000   0.1666109  )
        23           Au  tau(  23) = (   0.4998326   0.0000000   0.1666109  )
        24           Au  tau(  24) = (   0.8330542   0.0000000   0.1666109  )
        25           Au  tau(  25) = (   0.0000000   0.1666109   0.1666109  )
        26           Au  tau(  26) = (   0.3332217   0.1666109   0.1666109  )
        27           Au  tau(  27) = (   0.6664435   0.1666109   0.1666109  )
        28           Au  tau(  28) = (   0.1666109   0.3332217   0.1666109  )
        29           Au  tau(  29) = (   0.4998326   0.3332217   0.1666109  )
        30           Au  tau(  30) = (   0.8330542   0.3332217   0.1666109  )
        31           Au  tau(  31) = (   0.0000000   0.4998326   0.1666109  )
        32           Au  tau(  32) = (   0.3332217   0.4998326   0.1666109  )
        33           Au  tau(  33) = (   0.6664435   0.4998326   0.1666109  )
        34           Au  tau(  34) = (   0.1666109   0.6664435   0.1666109  )
        35           Au  tau(  35) = (   0.4998326   0.6664435   0.1666109  )
        36           Au  tau(  36) = (   0.8330542   0.6664435   0.1666109  )
        37           Au  tau(  37) = (   0.0000000   0.8330542   0.1666109  )
        38           Au  tau(  38) = (   0.3332217   0.8330542   0.1666109  )
        39           Au  tau(  39) = (   0.6664435   0.8330542   0.1666109  )
        40           Au  tau(  40) = (  -0.0000182  -0.0000182   0.3335478  )
        41           Au  tau(  41) = (   0.3332215  -0.0000181   0.3335472  )
        42           Au  tau(  42) = (   0.6664447  -0.0000183   0.3335481  )
        43           Au  tau(  43) = (  -0.0000181   0.3332215   0.3335472  )
        44           Au  tau(  44) = (   0.3332215   0.3332215   0.3335468  )
        45           Au  tau(  45) = (   0.6664445   0.3332215   0.3335478  )
        46           Au  tau(  46) = (  -0.0000183   0.6664447   0.3335481  )
        47           Au  tau(  47) = (   0.3332215   0.6664445   0.3335478  )
        48           Au  tau(  48) = (   0.6664446   0.6664446   0.3335486  )
        49           Au  tau(  49) = (   0.1666097   0.1666097   0.3335483  )
        50           Au  tau(  50) = (   0.4998320   0.1666098   0.3335477  )
        51           Au  tau(  51) = (   0.8330732   0.1666096   0.3335481  )
        52           Au  tau(  52) = (   0.1666098   0.4998320   0.3335477  )
        53           Au  tau(  53) = (   0.4998321   0.4998321   0.3335470  )
        54           Au  tau(  54) = (   0.8330730   0.4998322   0.3335474  )
        55           Au  tau(  55) = (   0.1666096   0.8330732   0.3335481  )
        56           Au  tau(  56) = (   0.4998322   0.8330730   0.3335474  )
        57           Au  tau(  57) = (   0.8330731   0.8330731   0.3335478  )
        58           Au  tau(  58) = (   0.1666104  -0.0000111   0.4993095  )
        59           Au  tau(  59) = (   0.4998323  -0.0000112   0.4993099  )
        60           Au  tau(  60) = (   0.8330661  -0.0000111   0.4993009  )
        61           Au  tau(  61) = (  -0.0000111   0.1666104   0.4993095  )
        62           Au  tau(  62) = (   0.3332214   0.1666106   0.4993185  )
        63           Au  tau(  63) = (   0.6664437   0.1666106   0.4993187  )
        64           Au  tau(  64) = (   0.1666106   0.3332214   0.4993185  )
        65           Au  tau(  65) = (   0.4998324   0.3332216   0.4993185  )
        66           Au  tau(  66) = (   0.8330659   0.3332215   0.4993103  )
        67           Au  tau(  67) = (  -0.0000112   0.4998323   0.4993099  )
        68           Au  tau(  68) = (   0.3332216   0.4998324   0.4993185  )
        69           Au  tau(  69) = (   0.6664436   0.4998325   0.4993187  )
        70           Au  tau(  70) = (   0.1666106   0.6664437   0.4993187  )
        71           Au  tau(  71) = (   0.4998325   0.6664436   0.4993187  )
        72           Au  tau(  72) = (   0.8330658   0.6664438   0.4993102  )
        73           Au  tau(  73) = (  -0.0000111   0.8330661   0.4993009  )
        74           Au  tau(  74) = (   0.3332215   0.8330659   0.4993103  )
        75           Au  tau(  75) = (   0.6664438   0.8330658   0.4993102  )

     number of k points=     6  Marzari-Vanderbilt smearing, width (Ry)=  0.0200
                       cart. coord. in units 2pi/alat
        k(    1) = (   0.2500000   0.2500000   0.0833333), wk =   0.3333333
        k(    2) = (   0.2500000   0.2500000  -0.2500000), wk =   0.3333333
        k(    3) = (  -0.2500000  -0.2500000   0.0833333), wk =   0.3333333
        k(    4) = (  -0.2500000   0.2500000  -0.0833333), wk =   0.3333333
        k(    5) = (   0.2500000  -0.2500000  -0.0833333), wk =   0.3333333
        k(    6) = (  -0.2500000   0.2500000   0.2500000), wk =   0.3333333

     Dense  grid:  3792731 G-vectors     FFT dimensions: ( 160, 160, 320)

     Smooth grid:  1341081 G-vectors     FFT dimensions: ( 120, 120, 225)

     Largest allocated arrays     est. size (Mb)     dimensions
        Kohn-Sham Wavefunctions        38.58 Mb     (    5267,  480)
        NL pseudopotentials            76.03 Mb     (    5267,  946)
        Each V/rho on FFT grid          3.91 Mb     (  256000)
        Each G-vector array             0.90 Mb     (  118520)
        G-vector shells                 0.08 Mb     (   10286)
     Largest temporary arrays     est. size (Mb)     dimensions
        Auxiliary wavefunctions       154.31 Mb     (    5267, 1920)
        Each subspace H/S matrix       56.25 Mb     (    1920, 1920)
        Each <psi_i|beta_j> matrix      6.93 Mb     (     946,  480)
        Arrays for rho mixing          31.25 Mb     (  256000,    8)

     Initial potential from superposition of free atoms
     Check: negative starting charge=   -1.944979

     starting charge  799.16392, renormalised to  800.00000

     negative rho (up, down):  1.947E+00 0.000E+00
     Starting wfc are  654 randomized atomic wfcs

     total cpu time spent up to now is      148.3 secs

     Self-consistent Calculation

     iteration #  1     ecut=    50.00 Ry     beta=0.70
     Davidson diagonalization with overlap
     ethr =  1.00E-02,  avg # of iterations =  3.0

     Threshold (ethr) on eigenvalues was too large:
     Diagonalizing with lowered threshold

     Davidson diagonalization with overlap
     ethr =  5.00E-04,  avg # of iterations =  2.0

     negative rho (up, down):  1.932E+00 0.000E+00

     total cpu time spent up to now is      690.9 secs

     total energy              =   -7377.40212013 Ry
     Harris-Foulkes estimate   =   -7380.96578264 Ry
     estimated scf accuracy    <       4.52476321 Ry

     iteration #  2     ecut=    50.00 Ry     beta=0.70
     Davidson diagonalization with overlap
     ethr =  5.66E-04,  avg # of iterations = 11.3

     negative rho (up, down):  1.929E+00 0.000E+00

     total cpu time spent up to now is     1445.2 secs

     total energy              =   -7368.61630045 Ry
     Harris-Foulkes estimate   =   -7388.00960000 Ry
     estimated scf accuracy    <     100.25003029 Ry

     iteration #  3     ecut=    50.00 Ry     beta=0.70
     Davidson diagonalization with overlap
     ethr =  5.66E-04,  avg # of iterations =  6.0

     negative rho (up, down):  1.946E+00 0.000E+00

     total cpu time spent up to now is     1966.1 secs

     total energy              =   -7378.62651667 Ry
     Harris-Foulkes estimate   =   -7380.67034755 Ry
     estimated scf accuracy    <       8.00959674 Ry

     iteration #  4     ecut=    50.00 Ry     beta=0.70
     Davidson diagonalization with overlap
     ethr =  5.66E-04,  avg # of iterations =  5.3

     negative rho (up, down):  1.951E+00 0.000E+00

     total cpu time spent up to now is     2261.8 secs

     total energy              =   -7379.47989200 Ry
     Harris-Foulkes estimate   =   -7380.35349592 Ry
     estimated scf accuracy    <       3.94017914 Ry

     iteration #  5     ecut=    50.00 Ry     beta=0.70
     Davidson diagonalization with overlap
     ethr =  4.93E-04,  avg # of iterations =  6.7

     negative rho (up, down):  1.959E+00 0.000E+00

     total cpu time spent up to now is     2591.2 secs

     total energy              =   -7379.59380579 Ry
     Harris-Foulkes estimate   =   -7380.42903056 Ry
     estimated scf accuracy    <       7.06412397 Ry

     iteration #  6     ecut=    50.00 Ry     beta=0.70
     Davidson diagonalization with overlap
     ethr =  4.93E-04,  avg # of iterations =  4.7

     negative rho (up, down):  1.964E+00 0.000E+00

     total cpu time spent up to now is     2883.1 secs

     total energy              =   -7379.97135693 Ry
     Harris-Foulkes estimate   =   -7380.02240106 Ry
     estimated scf accuracy    <       0.16842816 Ry

     iteration #  7     ecut=    50.00 Ry     beta=0.70
     Davidson diagonalization with overlap
     ethr =  2.11E-05,  avg # of iterations = 11.2

     negative rho (up, down):  1.966E+00 0.000E+00

     total cpu time spent up to now is     3302.9 secs

     total energy              =   -7379.97558582 Ry
     Harris-Foulkes estimate   =   -7380.01422790 Ry
     estimated scf accuracy    <       0.17370301 Ry

     iteration #  8     ecut=    50.00 Ry     beta=0.70
     Davidson diagonalization with overlap
     ethr =  2.11E-05,  avg # of iterations =  3.0

     negative rho (up, down):  1.967E+00 0.000E+00

     total cpu time spent up to now is     3571.6 secs

     total energy              =   -7379.97888398 Ry
     Harris-Foulkes estimate   =   -7379.99991678 Ry
     estimated scf accuracy    <       0.09360829 Ry

     iteration #  9     ecut=    50.00 Ry     beta=0.70
     Davidson diagonalization with overlap
     ethr =  1.17E-05,  avg # of iterations =  5.5

     negative rho (up, down):  1.968E+00 0.000E+00

     total cpu time spent up to now is     3870.2 secs

     total energy              =   -7379.97947958 Ry
     Harris-Foulkes estimate   =   -7379.99288366 Ry
     estimated scf accuracy    <       0.05343786 Ry

     iteration # 10     ecut=    50.00 Ry     beta=0.70
     Davidson diagonalization with overlap
     ethr =  6.68E-06,  avg # of iterations =  8.2

     negative rho (up, down):  1.970E+00 0.000E+00

     total cpu time spent up to now is     4184.1 secs

     total energy              =   -7379.98115121 Ry
     Harris-Foulkes estimate   =   -7379.98587133 Ry
     estimated scf accuracy    <       0.01259034 Ry

     iteration # 11     ecut=    50.00 Ry     beta=0.70
     Davidson diagonalization with overlap
     ethr =  1.57E-06,  avg # of iterations =  8.0

     negative rho (up, down):  1.971E+00 0.000E+00

     total cpu time spent up to now is     4518.2 secs

     total energy              =   -7379.98185682 Ry
     Harris-Foulkes estimate   =   -7379.98341403 Ry
     estimated scf accuracy    <       0.00464815 Ry

     iteration # 12     ecut=    50.00 Ry     beta=0.70
     Davidson diagonalization with overlap
     ethr =  5.81E-07,  avg # of iterations =  3.5

     negative rho (up, down):  1.971E+00 0.000E+00

     total cpu time spent up to now is     4773.2 secs

     total energy              =   -7379.98161931 Ry
     Harris-Foulkes estimate   =   -7379.98250416 Ry
     estimated scf accuracy    <       0.00130750 Ry

     iteration # 13     ecut=    50.00 Ry     beta=0.70
     Davidson diagonalization with overlap
     ethr =  1.63E-07,  avg # of iterations =  9.5

     negative rho (up, down):  1.971E+00 0.000E+00

     total cpu time spent up to now is     5253.7 secs

     total energy              =   -7379.98087543 Ry
     Harris-Foulkes estimate   =   -7379.98333478 Ry
     estimated scf accuracy    <       0.01144207 Ry

     iteration # 14     ecut=    50.00 Ry     beta=0.70
     Davidson diagonalization with overlap
     ethr =  1.63E-07,  avg # of iterations =  3.3

     negative rho (up, down):  1.971E+00 0.000E+00

     total cpu time spent up to now is     5592.9 secs

     total energy              =   -7379.98190191 Ry
     Harris-Foulkes estimate   =   -7379.98222001 Ry
     estimated scf accuracy    <       0.00127684 Ry

     iteration # 15     ecut=    50.00 Ry     beta=0.70
     Davidson diagonalization with overlap
     ethr =  1.60E-07,  avg # of iterations =  2.0

     negative rho (up, down):  1.971E+00 0.000E+00

     total cpu time spent up to now is     5850.3 secs

     total energy              =   -7379.98169619 Ry
     Harris-Foulkes estimate   =   -7379.98245639 Ry
     estimated scf accuracy    <       0.00585348 Ry

     iteration # 16     ecut=    50.00 Ry     beta=0.70
     Davidson diagonalization with overlap
     ethr =  1.60E-07,  avg # of iterations =  2.0

     negative rho (up, down):  1.971E+00 0.000E+00

     total cpu time spent up to now is     6084.2 secs

     total energy              =   -7379.98202658 Ry
     Harris-Foulkes estimate   =   -7379.98218212 Ry
     estimated scf accuracy    <       0.00099690 Ry

     iteration # 17     ecut=    50.00 Ry     beta=0.70
     Davidson diagonalization with overlap
     ethr =  1.25E-07,  avg # of iterations =  1.7

     negative rho (up, down):  1.971E+00 0.000E+00

     total cpu time spent up to now is     6350.1 secs

     total energy              =   -7379.98208505 Ry
     Harris-Foulkes estimate   =   -7379.98212003 Ry
     estimated scf accuracy    <       0.00010350 Ry

     iteration # 18     ecut=    50.00 Ry     beta=0.70
     Davidson diagonalization with overlap
     ethr =  1.29E-08,  avg # of iterations =  3.0

     negative rho (up, down):  1.971E+00 0.000E+00

     total cpu time spent up to now is     6634.4 secs

     total energy              =   -7379.98209462 Ry
     Harris-Foulkes estimate   =   -7379.98211838 Ry
     estimated scf accuracy    <       0.00010549 Ry

     iteration # 19     ecut=    50.00 Ry     beta=0.70
     Davidson diagonalization with overlap
     ethr =  1.29E-08,  avg # of iterations =  2.0

     negative rho (up, down):  1.971E+00 0.000E+00

     total cpu time spent up to now is     6892.8 secs

     total energy              =   -7379.98210068 Ry
     Harris-Foulkes estimate   =   -7379.98211374 Ry
     estimated scf accuracy    <       0.00006312 Ry

     iteration # 20     ecut=    50.00 Ry     beta=0.70
     Davidson diagonalization with overlap
     ethr =  7.89E-09,  avg # of iterations =  2.0

     negative rho (up, down):  1.971E+00 0.000E+00

     total cpu time spent up to now is     7146.0 secs

     total energy              =   -7379.98210627 Ry
     Harris-Foulkes estimate   =   -7379.98210898 Ry
     estimated scf accuracy    <       0.00000995 Ry

     iteration # 21     ecut=    50.00 Ry     beta=0.70
     Davidson diagonalization with overlap
     ethr =  1.24E-09,  avg # of iterations =  2.0

     negative rho (up, down):  1.971E+00 0.000E+00

     total cpu time spent up to now is     7406.4 secs

     total energy              =   -7379.98210759 Ry
     Harris-Foulkes estimate   =   -7379.98210784 Ry
     estimated scf accuracy    <       0.00000062 Ry

     iteration # 22     ecut=    50.00 Ry     beta=0.70
     Davidson diagonalization with overlap
     ethr =  7.71E-11,  avg # of iterations =  4.0

     negative rho (up, down):  1.971E+00 0.000E+00

     total cpu time spent up to now is     7746.6 secs

     total energy              =   -7379.98210771 Ry
     Harris-Foulkes estimate   =   -7379.98210787 Ry
     estimated scf accuracy    <       0.00000047 Ry

     iteration # 23     ecut=    50.00 Ry     beta=0.70
     Davidson diagonalization with overlap
     ethr =  5.90E-11,  avg # of iterations =  3.0

     negative rho (up, down):  1.971E+00 0.000E+00

     total cpu time spent up to now is     8035.8 secs

     total energy              =   -7379.98210775 Ry
     Harris-Foulkes estimate   =   -7379.98210783 Ry
     estimated scf accuracy    <       0.00000025 Ry

     iteration # 24     ecut=    50.00 Ry     beta=0.70
     Davidson diagonalization with overlap
     ethr =  3.12E-11,  avg # of iterations =  2.0

     negative rho (up, down):  1.971E+00 0.000E+00

     total cpu time spent up to now is     8298.0 secs

     total energy              =   -7379.98210778 Ry
     Harris-Foulkes estimate   =   -7379.98210782 Ry
     estimated scf accuracy    <       0.00000020 Ry

     iteration # 25     ecut=    50.00 Ry     beta=0.70
     Davidson diagonalization with overlap
     ethr =  2.55E-11,  avg # of iterations =  2.0

     negative rho (up, down):  1.971E+00 0.000E+00

     total cpu time spent up to now is     8535.8 secs

     total energy              =   -7379.98210780 Ry
     Harris-Foulkes estimate   =   -7379.98210780 Ry
     estimated scf accuracy    <       0.00000002 Ry

     iteration # 26     ecut=    50.00 Ry     beta=0.70
     Davidson diagonalization with overlap
     ethr =  2.53E-12,  avg # of iterations =  3.0

     negative rho (up, down):  1.971E+00 0.000E+00

     total cpu time spent up to now is     8822.9 secs

     total energy              =   -7379.98210780 Ry
     Harris-Foulkes estimate   =   -7379.98210781 Ry
     estimated scf accuracy    <       0.00000004 Ry

     iteration # 27     ecut=    50.00 Ry     beta=0.70
     Davidson diagonalization with overlap
     ethr =  2.53E-12,  avg # of iterations =  2.0

     negative rho (up, down):  1.971E+00 0.000E+00

     total cpu time spent up to now is     9075.8 secs

     total energy              =   -7379.98210780 Ry
     Harris-Foulkes estimate   =   -7379.98210781 Ry
     estimated scf accuracy    <       0.00000009 Ry

     iteration # 28     ecut=    50.00 Ry     beta=0.70
     Davidson diagonalization with overlap
     ethr =  2.53E-12,  avg # of iterations =  2.0

     negative rho (up, down):  1.971E+00 0.000E+00

     total cpu time spent up to now is     9339.0 secs

     total energy              =   -7379.98210780 Ry
     Harris-Foulkes estimate   =   -7379.98210781 Ry
     estimated scf accuracy    <       0.00000001 Ry

     iteration # 29     ecut=    50.00 Ry     beta=0.70
     Davidson diagonalization with overlap
     ethr =  1.26E-12,  avg # of iterations =  2.0

     negative rho (up, down):  1.971E+00 0.000E+00

     total cpu time spent up to now is     9560.2 secs

     End of self-consistent calculation

          k = 0.2500 0.2500 0.0833 (167653 PWs)   bands (ev):

   -19.4355  -7.2399  -6.7432  -6.2133  -6.2124  -5.7747  -5.3715  -5.2729
    -5.2720  -5.0507  -5.0506  -4.9544  -4.9536  -4.8205  -4.8125  -4.7031
    -4.6145  -4.6106  -4.5895  -4.5895  -4.4084  -4.4073  -4.4065  -4.3801
    -4.3761  -4.3758  -4.3721  -4.3191  -4.3185  -4.3160  -4.3153  -4.2519
    -4.2235  -4.2235  -4.1674  -4.1635  -4.1622  -4.1267  -4.1258  -4.1120
    -4.1077  -4.0890  -4.0889  -4.0518  -4.0194  -4.0189  -4.0170  -4.0137
    -4.0132  -3.9837  -3.9538  -3.9531  -3.9235  -3.9228  -3.9192  -3.9192
    -3.9173  -3.9111  -3.8796  -3.8794  -3.8192  -3.8189  -3.7867  -3.7613
    -3.7529  -3.7498  -3.7495  -3.7276  -3.7269  -3.7151  -3.6654  -3.6647
    -3.6590  -3.6583  -3.5824  -3.5738  -3.5562  -3.5516  -3.5309  -3.5137
    -3.5135  -3.5001  -3.4752  -3.4726  -3.4312  -3.4295  -3.4284  -3.4265
    -3.4039  -3.4028  -3.3231  -3.3224  -3.3211  -3.3070  -3.2916  -3.2890
    -3.2762  -3.2757  -3.2689  -3.2684  -3.2260  -3.2249  -3.2032  -3.2028
    -3.1668  -3.1663  -3.1400  -3.1189  -3.1189  -3.0729  -3.0724  -3.0399
    -3.0126  -3.0121  -3.0113  -3.0107  -3.0071  -3.0065  -2.9795  -2.9706
    -2.9316  -2.9315  -2.9102  -2.8868  -2.8840  -2.8832  -2.8779  -2.8766
    -2.8729  -2.8729  -2.8378  -2.8367  -2.8367  -2.8313  -2.8310  -2.8263
    -2.7711  -2.7654  -2.7615  -2.7605  -2.7390  -2.7389  -2.7337  -2.6449
    -2.6347  -2.6341  -2.6252  -2.6241  -2.6187  -2.6176  -2.6162  -2.6088
    -2.6084  -2.5981  -2.5905  -2.5879  -2.5859  -2.5828  -2.5729  -2.5676
    -2.5654  -2.5431  -2.5331  -2.5318  -2.5168  -2.5165  -2.4997  -2.4996
    -2.4911  -2.4904  -2.4701  -2.4576  -2.4575  -2.4522  -2.4517  -2.4181
    -2.4158  -2.4155  -2.3575  -2.3542  -2.3395  -2.3389  -2.3291  -2.3240
    -2.3014  -2.3009  -2.2968  -2.2845  -2.2840  -2.2731  -2.2717  -2.2562
    -2.2546  -2.2285  -2.2285  -2.2186  -2.2178  -2.2086  -2.2079  -2.1906
    -2.1781  -2.1568  -2.0887  -2.0873  -2.0679  -2.0674  -2.0561  -2.0552
    -2.0064  -2.0049  -1.9906  -1.9708  -1.9586  -1.9582  -1.9400  -1.9220
    -1.9215  -1.9085  -1.9012  -1.8707  -1.8694  -1.8676  -1.8609  -1.8607
    -1.8533  -1.8533  -1.8330  -1.8260  -1.8160  -1.8157  -1.8154  -1.8149
    -1.8145  -1.8123  -1.7998  -1.7802  -1.7796  -1.7765  -1.7713  -1.7583
    -1.7577  -1.7539  -1.7534  -1.7476  -1.7459  -1.7124  -1.7101  -1.6664
    -1.6482  -1.6467  -1.6022  -1.6016  -1.6015  -1.5925  -1.5912  -1.5799
    -1.5772  -1.5702  -1.5687  -1.5599  -1.5591  -1.5391  -1.5380  -1.5017
    -1.5005  -1.4837  -1.4620  -1.4609  -1.4263  -1.4220  -1.4084  -1.3712
    -1.3708  -1.3502  -1.3260  -1.3244  -1.3239  -1.3182  -1.3160  -1.2983
    -1.2976  -1.2972  -1.2966  -1.2949  -1.2944  -1.2939  -1.2892  -1.2887
    -1.2640  -1.2634  -1.2315  -1.2301  -1.2290  -1.2083  -1.2080  -1.2036
    -1.2026  -1.2004  -1.1885  -1.1613  -1.1610  -1.1383  -1.1364  -1.1321
    -1.1158  -1.1048  -1.1034  -1.0754  -1.0747  -1.0681  -1.0672  -1.0297
    -1.0286  -1.0176  -1.0172  -1.0168  -1.0150  -0.9904  -0.9898  -0.9760
    -0.9690  -0.9684  -0.9572  -0.9563  -0.9542  -0.9541  -0.9437  -0.9337
    -0.9324  -0.9261  -0.9257  -0.9189  -0.9148  -0.9132  -0.8986  -0.8571
    -0.8556  -0.8549  -0.8523  -0.8491  -0.8478  -0.8192  -0.8191  -0.8061
    -0.7891  -0.7869  -0.7799  -0.7792  -0.7715  -0.7635  -0.7631  -0.7272
    -0.7254  -0.7152  -0.7149  -0.6950  -0.6946  -0.6794  -0.6553  -0.6471
    -0.6297  -0.6289  -0.5916  -0.5914  -0.5885  -0.5884  -0.5868  -0.5814
    -0.5807  -0.5803  -0.5763  -0.5738  -0.5411  -0.5406  -0.5398  -0.5395
    -0.5379  -0.5336  -0.5240  -0.5229  -0.4953  -0.2332  -0.2269  -0.1828
    -0.1765  -0.1496  -0.0914   0.0610   0.0619   0.0934   0.3766   0.3780
     0.7157   0.7212   0.7613   0.7617   0.8104   0.8126   0.9699   0.9738
     1.0995   1.1007   1.2148   1.7098   1.7522   1.7557   1.7930   1.7934
     1.9255   1.9347   1.9854   1.9895   2.1687   2.1699   2.4528   2.4786
     2.4857   2.5023   2.9329   2.9409   2.9599   2.9619   2.9767   2.9781
     3.0428   3.0436   3.1930   3.3184   3.3235   3.5061   3.5162   3.6179
     3.6887   3.6916   3.9876   3.9909   4.0454   4.0480   4.0497   4.1913
     4.1937   4.1996   4.2056   4.4907   4.4922   4.5262   4.5282   4.6419
     4.6469   4.7056   4.7159   4.9437   5.0926   5.5894   5.5927   5.6540
     5.6664   5.7974   5.8005   5.8074   5.8703   5.8721   5.8875   5.8881
     5.9416   5.9986   6.0083   6.1336   6.2848   6.2862   6.2893   6.2992
     6.3016   6.3029   6.3143   6.3532   6.3995   6.4579   6.4888   6.5574

          k = 0.2500 0.2500-0.2500 (167588 PWs)   bands (ev):

   -19.4355  -7.2399  -6.7432  -6.2133  -6.2124  -5.7747  -5.3715  -5.2729
    -5.2720  -5.0507  -5.0506  -4.9544  -4.9536  -4.8205  -4.8125  -4.7031
    -4.6145  -4.6106  -4.5895  -4.5895  -4.4084  -4.4073  -4.4065  -4.3801
    -4.3761  -4.3758  -4.3721  -4.3191  -4.3185  -4.3160  -4.3153  -4.2519
    -4.2235  -4.2235  -4.1674  -4.1635  -4.1622  -4.1266  -4.1258  -4.1120
    -4.1077  -4.0890  -4.0889  -4.0518  -4.0194  -4.0189  -4.0170  -4.0137
    -4.0132  -3.9837  -3.9538  -3.9531  -3.9235  -3.9228  -3.9192  -3.9192
    -3.9173  -3.9111  -3.8796  -3.8794  -3.8192  -3.8189  -3.7867  -3.7613
    -3.7529  -3.7498  -3.7495  -3.7276  -3.7269  -3.7151  -3.6654  -3.6647
    -3.6590  -3.6583  -3.5824  -3.5738  -3.5562  -3.5516  -3.5309  -3.5137
    -3.5135  -3.5001  -3.4752  -3.4726  -3.4312  -3.4295  -3.4284  -3.4265
    -3.4039  -3.4028  -3.3231  -3.3224  -3.3211  -3.3070  -3.2916  -3.2890
    -3.2762  -3.2757  -3.2689  -3.2684  -3.2260  -3.2249  -3.2032  -3.2028
    -3.1667  -3.1663  -3.1400  -3.1189  -3.1189  -3.0729  -3.0724  -3.0399
    -3.0126  -3.0121  -3.0113  -3.0107  -3.0071  -3.0064  -2.9795  -2.9706
    -2.9316  -2.9315  -2.9102  -2.8868  -2.8840  -2.8832  -2.8779  -2.8766
    -2.8729  -2.8729  -2.8378  -2.8367  -2.8367  -2.8313  -2.8310  -2.8263
    -2.7711  -2.7654  -2.7616  -2.7605  -2.7390  -2.7389  -2.7337  -2.6449
    -2.6347  -2.6341  -2.6252  -2.6241  -2.6187  -2.6176  -2.6162  -2.6088
    -2.6083  -2.5981  -2.5905  -2.5879  -2.5858  -2.5828  -2.5729  -2.5676
    -2.5654  -2.5431  -2.5331  -2.5318  -2.5168  -2.5164  -2.4997  -2.4996
    -2.4911  -2.4904  -2.4701  -2.4576  -2.4575  -2.4522  -2.4517  -2.4181
    -2.4158  -2.4155  -2.3575  -2.3542  -2.3394  -2.3389  -2.3291  -2.3240
    -2.3014  -2.3009  -2.2968  -2.2845  -2.2840  -2.2731  -2.2717  -2.2562
    -2.2546  -2.2285  -2.2285  -2.2186  -2.2178  -2.2086  -2.2079  -2.1906
    -2.1781  -2.1568  -2.0887  -2.0873  -2.0679  -2.0673  -2.0561  -2.0552
    -2.0064  -2.0049  -1.9906  -1.9708  -1.9586  -1.9582  -1.9400  -1.9220
    -1.9215  -1.9085  -1.9012  -1.8707  -1.8694  -1.8676  -1.8609  -1.8607
    -1.8533  -1.8533  -1.8330  -1.8260  -1.8160  -1.8157  -1.8154  -1.8149
    -1.8145  -1.8123  -1.7998  -1.7802  -1.7796  -1.7765  -1.7713  -1.7583
    -1.7577  -1.7539  -1.7534  -1.7476  -1.7459  -1.7124  -1.7101  -1.6664
    -1.6482  -1.6467  -1.6022  -1.6016  -1.6015  -1.5925  -1.5912  -1.5799
    -1.5772  -1.5701  -1.5687  -1.5599  -1.5591  -1.5391  -1.5380  -1.5017
    -1.5005  -1.4837  -1.4620  -1.4609  -1.4263  -1.4220  -1.4084  -1.3712
    -1.3708  -1.3502  -1.3260  -1.3244  -1.3239  -1.3182  -1.3160  -1.2983
    -1.2976  -1.2972  -1.2966  -1.2949  -1.2944  -1.2939  -1.2892  -1.2887
    -1.2640  -1.2634  -1.2315  -1.2301  -1.2290  -1.2083  -1.2080  -1.2036
    -1.2026  -1.2004  -1.1885  -1.1613  -1.1610  -1.1383  -1.1364  -1.1321
    -1.1158  -1.1048  -1.1034  -1.0754  -1.0747  -1.0681  -1.0672  -1.0297
    -1.0286  -1.0176  -1.0172  -1.0167  -1.0150  -0.9904  -0.9898  -0.9760
    -0.9690  -0.9684  -0.9572  -0.9563  -0.9542  -0.9541  -0.9437  -0.9337
    -0.9324  -0.9261  -0.9257  -0.9189  -0.9148  -0.9132  -0.8986  -0.8571
    -0.8556  -0.8549  -0.8523  -0.8491  -0.8478  -0.8192  -0.8191  -0.8061
    -0.7891  -0.7869  -0.7799  -0.7792  -0.7715  -0.7635  -0.7631  -0.7272
    -0.7254  -0.7152  -0.7149  -0.6950  -0.6946  -0.6794  -0.6553  -0.6471
    -0.6297  -0.6289  -0.5916  -0.5914  -0.5885  -0.5884  -0.5868  -0.5814
    -0.5807  -0.5803  -0.5764  -0.5738  -0.5411  -0.5406  -0.5398  -0.5395
    -0.5379  -0.5336  -0.5240  -0.5229  -0.4953  -0.2332  -0.2269  -0.1828
    -0.1765  -0.1496  -0.0914   0.0610   0.0619   0.0934   0.3766   0.3780
     0.7157   0.7212   0.7613   0.7617   0.8104   0.8126   0.9699   0.9738
     1.0995   1.1007   1.2148   1.7098   1.7522   1.7557   1.7930   1.7934
     1.9255   1.9347   1.9854   1.9895   2.1687   2.1699   2.4528   2.4786
     2.4857   2.5023   2.9329   2.9409   2.9599   2.9619   2.9767   2.9781
     3.0428   3.0436   3.1930   3.3184   3.3235   3.5061   3.5162   3.6179
     3.6887   3.6916   3.9876   3.9909   4.0454   4.0480   4.0497   4.1914
     4.1937   4.1996   4.2056   4.4907   4.4922   4.5262   4.5282   4.6419
     4.6469   4.7056   4.7159   4.9435   5.0901   5.5894   5.5925   5.6543
     5.6647   5.7798   5.7974   5.8010   5.8703   5.8728   5.8875   5.8881
     5.9745   5.9986   6.0715   6.0861   6.2845   6.2852   6.2899   6.2971
     6.3003   6.3029   6.3143   6.3951   6.4497   6.4591   6.5131   6.5683

          k =-0.2500-0.2500 0.0833 (167653 PWs)   bands (ev):

   -19.4355  -7.2399  -6.7432  -6.2133  -6.2124  -5.7747  -5.3715  -5.2729
    -5.2720  -5.0507  -5.0506  -4.9544  -4.9536  -4.8205  -4.8125  -4.7031
    -4.6145  -4.6106  -4.5895  -4.5895  -4.4084  -4.4073  -4.4065  -4.3801
    -4.3761  -4.3758  -4.3721  -4.3191  -4.3185  -4.3160  -4.3153  -4.2519
    -4.2235  -4.2235  -4.1674  -4.1635  -4.1622  -4.1267  -4.1258  -4.1120
    -4.1077  -4.0890  -4.0889  -4.0518  -4.0194  -4.0189  -4.0170  -4.0137
    -4.0132  -3.9837  -3.9538  -3.9531  -3.9235  -3.9228  -3.9192  -3.9192
    -3.9173  -3.9111  -3.8796  -3.8794  -3.8192  -3.8189  -3.7867  -3.7613
    -3.7529  -3.7498  -3.7495  -3.7276  -3.7269  -3.7151  -3.6654  -3.6647
    -3.6590  -3.6583  -3.5824  -3.5738  -3.5562  -3.5516  -3.5309  -3.5137
    -3.5135  -3.5001  -3.4752  -3.4726  -3.4312  -3.4295  -3.4284  -3.4265
    -3.4039  -3.4028  -3.3231  -3.3224  -3.3211  -3.3070  -3.2916  -3.2890
    -3.2762  -3.2757  -3.2689  -3.2684  -3.2260  -3.2249  -3.2032  -3.2028
    -3.1668  -3.1663  -3.1400  -3.1189  -3.1189  -3.0729  -3.0724  -3.0399
    -3.0126  -3.0121  -3.0113  -3.0107  -3.0071  -3.0065  -2.9795  -2.9706
    -2.9316  -2.9315  -2.9102  -2.8868  -2.8840  -2.8832  -2.8779  -2.8766
    -2.8729  -2.8729  -2.8378  -2.8367  -2.8367  -2.8313  -2.8310  -2.8263
    -2.7711  -2.7654  -2.7615  -2.7605  -2.7390  -2.7389  -2.7337  -2.6449
    -2.6347  -2.6341  -2.6252  -2.6241  -2.6187  -2.6176  -2.6162  -2.6088
    -2.6084  -2.5981  -2.5905  -2.5879  -2.5859  -2.5828  -2.5729  -2.5676
    -2.5654  -2.5431  -2.5331  -2.5318  -2.5168  -2.5165  -2.4997  -2.4996
    -2.4911  -2.4904  -2.4701  -2.4576  -2.4575  -2.4522  -2.4517  -2.4181
    -2.4158  -2.4155  -2.3575  -2.3542  -2.3395  -2.3389  -2.3291  -2.3240
    -2.3014  -2.3009  -2.2968  -2.2845  -2.2840  -2.2731  -2.2717  -2.2562
    -2.2546  -2.2285  -2.2285  -2.2186  -2.2178  -2.2086  -2.2079  -2.1906
    -2.1781  -2.1568  -2.0887  -2.0873  -2.0679  -2.0674  -2.0561  -2.0552
    -2.0064  -2.0049  -1.9906  -1.9708  -1.9586  -1.9582  -1.9400  -1.9220
    -1.9215  -1.9085  -1.9012  -1.8707  -1.8694  -1.8676  -1.8609  -1.8607
    -1.8533  -1.8533  -1.8330  -1.8260  -1.8160  -1.8157  -1.8154  -1.8149
    -1.8145  -1.8123  -1.7998  -1.7802  -1.7796  -1.7765  -1.7713  -1.7583
    -1.7577  -1.7539  -1.7534  -1.7476  -1.7459  -1.7124  -1.7101  -1.6664
    -1.6482  -1.6467  -1.6022  -1.6016  -1.6015  -1.5925  -1.5912  -1.5799
    -1.5772  -1.5702  -1.5687  -1.5599  -1.5591  -1.5391  -1.5380  -1.5017
    -1.5005  -1.4837  -1.4620  -1.4609  -1.4263  -1.4220  -1.4084  -1.3712
    -1.3708  -1.3502  -1.3260  -1.3244  -1.3239  -1.3182  -1.3160  -1.2983
    -1.2976  -1.2972  -1.2966  -1.2949  -1.2944  -1.2939  -1.2892  -1.2887
    -1.2640  -1.2634  -1.2315  -1.2301  -1.2290  -1.2083  -1.2080  -1.2036
    -1.2026  -1.2004  -1.1885  -1.1613  -1.1610  -1.1383  -1.1364  -1.1321
    -1.1158  -1.1048  -1.1034  -1.0754  -1.0747  -1.0681  -1.0672  -1.0297
    -1.0286  -1.0176  -1.0172  -1.0168  -1.0150  -0.9904  -0.9898  -0.9760
    -0.9690  -0.9684  -0.9572  -0.9563  -0.9542  -0.9541  -0.9437  -0.9337
    -0.9324  -0.9261  -0.9257  -0.9189  -0.9148  -0.9132  -0.8986  -0.8571
    -0.8556  -0.8549  -0.8523  -0.8491  -0.8478  -0.8192  -0.8191  -0.8061
    -0.7891  -0.7869  -0.7799  -0.7792  -0.7715  -0.7635  -0.7631  -0.7272
    -0.7254  -0.7152  -0.7149  -0.6950  -0.6946  -0.6794  -0.6553  -0.6471
    -0.6297  -0.6289  -0.5916  -0.5914  -0.5885  -0.5884  -0.5868  -0.5814
    -0.5807  -0.5803  -0.5763  -0.5738  -0.5411  -0.5406  -0.5398  -0.5395
    -0.5379  -0.5336  -0.5240  -0.5229  -0.4953  -0.2332  -0.2269  -0.1828
    -0.1765  -0.1496  -0.0914   0.0610   0.0619   0.0934   0.3766   0.3780
     0.7157   0.7212   0.7613   0.7617   0.8104   0.8126   0.9699   0.9738
     1.0995   1.1007   1.2148   1.7098   1.7522   1.7557   1.7930   1.7934
     1.9255   1.9347   1.9854   1.9895   2.1687   2.1699   2.4528   2.4786
     2.4857   2.5023   2.9329   2.9409   2.9599   2.9619   2.9767   2.9781
     3.0428   3.0436   3.1930   3.3184   3.3235   3.5061   3.5162   3.6179
     3.6887   3.6916   3.9876   3.9909   4.0454   4.0480   4.0497   4.1913
     4.1937   4.1996   4.2056   4.4907   4.4922   4.5262   4.5282   4.6419
     4.6469   4.7056   4.7159   4.9437   5.0926   5.5894   5.5927   5.6540
     5.6665   5.7974   5.8005   5.8067   5.8703   5.8721   5.8875   5.8881
     5.9425   5.9986   6.0085   6.1336   6.2847   6.2861   6.2894   6.2992
     6.3017   6.3029   6.3143   6.3532   6.3972   6.4578   6.4880   6.5598

          k =-0.2500 0.2500-0.0833 (167653 PWs)   bands (ev):

   -19.4355  -7.2399  -6.7432  -6.2137  -6.2120  -5.7747  -5.3715  -5.2732
    -5.2716  -5.0507  -5.0506  -4.9550  -4.9530  -4.8205  -4.8125  -4.7031
    -4.6145  -4.6106  -4.5896  -4.5893  -4.4084  -4.4076  -4.4062  -4.3801
    -4.3762  -4.3758  -4.3720  -4.3195  -4.3180  -4.3164  -4.3150  -4.2519
    -4.2236  -4.2234  -4.1674  -4.1634  -4.1622  -4.1271  -4.1253  -4.1120
    -4.1077  -4.0890  -4.0890  -4.0518  -4.0198  -4.0185  -4.0172  -4.0140
    -4.0129  -3.9838  -3.9534  -3.9534  -3.9237  -3.9225  -3.9193  -3.9191
    -3.9173  -3.9111  -3.8801  -3.8788  -3.8193  -3.8188  -3.7868  -3.7612
    -3.7529  -3.7498  -3.7495  -3.7275  -3.7270  -3.7150  -3.6654  -3.6647
    -3.6593  -3.6581  -3.5821  -3.5742  -3.5557  -3.5520  -3.5309  -3.5138
    -3.5136  -3.5001  -3.4752  -3.4726  -3.4315  -3.4292  -3.4286  -3.4263
    -3.4043  -3.4025  -3.3233  -3.3221  -3.3212  -3.3070  -3.2917  -3.2890
    -3.2763  -3.2755  -3.2690  -3.2682  -3.2260  -3.2248  -3.2034  -3.2026
    -3.1670  -3.1661  -3.1400  -3.1190  -3.1187  -3.0732  -3.0722  -3.0399
    -3.0126  -3.0124  -3.0110  -3.0108  -3.0072  -3.0063  -2.9795  -2.9706
    -2.9316  -2.9315  -2.9102  -2.8868  -2.8842  -2.8830  -2.8784  -2.8761
    -2.8730  -2.8728  -2.8379  -2.8367  -2.8366  -2.8312  -2.8311  -2.8263
    -2.7711  -2.7653  -2.7619  -2.7602  -2.7391  -2.7388  -2.7337  -2.6449
    -2.6349  -2.6338  -2.6256  -2.6237  -2.6185  -2.6181  -2.6160  -2.6089
    -2.6082  -2.5981  -2.5905  -2.5881  -2.5856  -2.5828  -2.5728  -2.5676
    -2.5654  -2.5431  -2.5335  -2.5314  -2.5169  -2.5163  -2.4997  -2.4996
    -2.4913  -2.4902  -2.4701  -2.4576  -2.4574  -2.4520  -2.4519  -2.4181
    -2.4159  -2.4155  -2.3575  -2.3543  -2.3395  -2.3388  -2.3290  -2.3240
    -2.3015  -2.3007  -2.2968  -2.2848  -2.2838  -2.2736  -2.2712  -2.2568
    -2.2541  -2.2285  -2.2285  -2.2188  -2.2176  -2.2088  -2.2079  -2.1908
    -2.1782  -2.1569  -2.0887  -2.0873  -2.0681  -2.0671  -2.0560  -2.0554
    -2.0070  -2.0045  -1.9908  -1.9708  -1.9586  -1.9582  -1.9400  -1.9220
    -1.9213  -1.9085  -1.9012  -1.8714  -1.8698  -1.8667  -1.8608  -1.8606
    -1.8535  -1.8528  -1.8331  -1.8260  -1.8164  -1.8157  -1.8152  -1.8150
    -1.8145  -1.8117  -1.7998  -1.7802  -1.7796  -1.7765  -1.7711  -1.7587
    -1.7573  -1.7544  -1.7531  -1.7476  -1.7459  -1.7127  -1.7098  -1.6664
    -1.6487  -1.6461  -1.6023  -1.6016  -1.6015  -1.5917  -1.5904  -1.5777
    -1.5764  -1.5711  -1.5701  -1.5594  -1.5583  -1.5384  -1.5381  -1.5019
    -1.5004  -1.4836  -1.4621  -1.4616  -1.4264  -1.4214  -1.4137  -1.3717
    -1.3688  -1.3496  -1.3255  -1.3245  -1.3239  -1.3177  -1.3175  -1.2987
    -1.2977  -1.2970  -1.2962  -1.2954  -1.2947  -1.2914  -1.2908  -1.2879
    -1.2641  -1.2639  -1.2319  -1.2299  -1.2297  -1.2086  -1.2080  -1.2040
    -1.2023  -1.1997  -1.1869  -1.1625  -1.1605  -1.1381  -1.1376  -1.1306
    -1.1158  -1.1053  -1.1029  -1.0755  -1.0746  -1.0685  -1.0669  -1.0306
    -1.0275  -1.0180  -1.0171  -1.0170  -1.0148  -0.9907  -0.9895  -0.9761
    -0.9693  -0.9681  -0.9578  -0.9561  -0.9539  -0.9537  -0.9438  -0.9332
    -0.9327  -0.9263  -0.9257  -0.9186  -0.9158  -0.9130  -0.8987  -0.8572
    -0.8560  -0.8541  -0.8522  -0.8491  -0.8482  -0.8203  -0.8188  -0.8061
    -0.7899  -0.7859  -0.7802  -0.7791  -0.7715  -0.7634  -0.7631  -0.7277
    -0.7249  -0.7152  -0.7148  -0.6952  -0.6944  -0.6794  -0.6553  -0.6472
    -0.6300  -0.6286  -0.5918  -0.5913  -0.5885  -0.5884  -0.5868  -0.5814
    -0.5809  -0.5800  -0.5763  -0.5738  -0.5413  -0.5405  -0.5401  -0.5394
    -0.5391  -0.5324  -0.5243  -0.5223  -0.4953  -0.2332  -0.2269  -0.1847
    -0.1749  -0.1496  -0.0910   0.0606   0.0625   0.0936   0.3758   0.3787
     0.7140   0.7229   0.7609   0.7622   0.8096   0.8137   0.9680   0.9752
     1.0995   1.1006   1.2151   1.7101   1.7515   1.7557   1.7931   1.7932
     1.9216   1.9381   1.9840   1.9914   2.1680   2.1706   2.4528   2.4768
     2.4874   2.5025   2.9297   2.9425   2.9596   2.9630   2.9762   2.9787
     3.0431   3.0434   3.1918   3.3156   3.3283   3.5059   3.5181   3.6177
     3.6876   3.6925   3.9858   3.9931   4.0440   4.0477   4.0504   4.1928
     4.1970   4.1973   4.2056   4.4906   4.4925   4.5267   4.5287   4.6414
     4.6480   4.7021   4.7145   4.9197   5.1163   5.5865   5.5935   5.6410
     5.6811   5.7960   5.8023   5.8290   5.8686   5.8721   5.8868   5.8894
     5.9685   5.9997   6.0251   6.0346   6.2831   6.2897   6.2926   6.2998
     6.3031   6.3045   6.3122   6.3249   6.4412   6.4498   6.4890   6.5651

          k = 0.2500-0.2500-0.0833 (167653 PWs)   bands (ev):

   -19.4355  -7.2399  -6.7432  -6.2137  -6.2120  -5.7747  -5.3715  -5.2732
    -5.2716  -5.0507  -5.0506  -4.9550  -4.9530  -4.8205  -4.8125  -4.7031
    -4.6145  -4.6106  -4.5896  -4.5893  -4.4084  -4.4076  -4.4062  -4.3801
    -4.3762  -4.3758  -4.3720  -4.3195  -4.3180  -4.3164  -4.3150  -4.2519
    -4.2236  -4.2234  -4.1674  -4.1634  -4.1622  -4.1271  -4.1253  -4.1120
    -4.1077  -4.0890  -4.0890  -4.0518  -4.0198  -4.0185  -4.0172  -4.0140
    -4.0129  -3.9838  -3.9534  -3.9534  -3.9237  -3.9225  -3.9193  -3.9191
    -3.9173  -3.9111  -3.8801  -3.8788  -3.8193  -3.8188  -3.7868  -3.7612
    -3.7529  -3.7498  -3.7495  -3.7275  -3.7270  -3.7150  -3.6654  -3.6647
    -3.6593  -3.6581  -3.5821  -3.5742  -3.5557  -3.5520  -3.5309  -3.5138
    -3.5136  -3.5001  -3.4752  -3.4726  -3.4315  -3.4292  -3.4286  -3.4263
    -3.4043  -3.4025  -3.3233  -3.3221  -3.3212  -3.3070  -3.2917  -3.2890
    -3.2763  -3.2755  -3.2690  -3.2682  -3.2260  -3.2248  -3.2034  -3.2026
    -3.1670  -3.1661  -3.1400  -3.1190  -3.1187  -3.0732  -3.0722  -3.0399
    -3.0126  -3.0124  -3.0110  -3.0108  -3.0072  -3.0063  -2.9795  -2.9706
    -2.9316  -2.9315  -2.9102  -2.8868  -2.8842  -2.8830  -2.8784  -2.8761
    -2.8730  -2.8728  -2.8379  -2.8367  -2.8366  -2.8312  -2.8311  -2.8263
    -2.7711  -2.7653  -2.7619  -2.7602  -2.7391  -2.7388  -2.7337  -2.6449
    -2.6349  -2.6338  -2.6256  -2.6237  -2.6185  -2.6181  -2.6160  -2.6089
    -2.6082  -2.5981  -2.5905  -2.5881  -2.5856  -2.5828  -2.5728  -2.5676
    -2.5654  -2.5431  -2.5335  -2.5314  -2.5169  -2.5163  -2.4997  -2.4996
    -2.4913  -2.4902  -2.4701  -2.4576  -2.4574  -2.4520  -2.4519  -2.4181
    -2.4159  -2.4155  -2.3575  -2.3543  -2.3395  -2.3388  -2.3290  -2.3240
    -2.3015  -2.3007  -2.2968  -2.2848  -2.2838  -2.2736  -2.2712  -2.2568
    -2.2541  -2.2285  -2.2285  -2.2188  -2.2176  -2.2088  -2.2079  -2.1908
    -2.1782  -2.1569  -2.0887  -2.0873  -2.0681  -2.0671  -2.0560  -2.0554
    -2.0070  -2.0045  -1.9908  -1.9708  -1.9586  -1.9582  -1.9400  -1.9220
    -1.9213  -1.9085  -1.9012  -1.8714  -1.8698  -1.8667  -1.8608  -1.8606
    -1.8535  -1.8528  -1.8331  -1.8260  -1.8164  -1.8157  -1.8152  -1.8150
    -1.8145  -1.8117  -1.7998  -1.7802  -1.7796  -1.7765  -1.7711  -1.7587
    -1.7573  -1.7544  -1.7531  -1.7476  -1.7459  -1.7127  -1.7098  -1.6664
    -1.6487  -1.6461  -1.6023  -1.6016  -1.6015  -1.5917  -1.5904  -1.5777
    -1.5764  -1.5711  -1.5701  -1.5594  -1.5583  -1.5384  -1.5381  -1.5019
    -1.5004  -1.4836  -1.4621  -1.4616  -1.4264  -1.4214  -1.4137  -1.3717
    -1.3688  -1.3496  -1.3255  -1.3245  -1.3239  -1.3177  -1.3175  -1.2987
    -1.2977  -1.2970  -1.2962  -1.2954  -1.2947  -1.2914  -1.2908  -1.2879
    -1.2641  -1.2639  -1.2319  -1.2299  -1.2297  -1.2086  -1.2080  -1.2040
    -1.2023  -1.1997  -1.1869  -1.1625  -1.1605  -1.1381  -1.1376  -1.1306
    -1.1158  -1.1053  -1.1029  -1.0755  -1.0746  -1.0685  -1.0669  -1.0306
    -1.0275  -1.0180  -1.0171  -1.0170  -1.0148  -0.9907  -0.9895  -0.9761
    -0.9693  -0.9681  -0.9578  -0.9561  -0.9539  -0.9537  -0.9438  -0.9332
    -0.9327  -0.9263  -0.9257  -0.9186  -0.9158  -0.9130  -0.8987  -0.8572
    -0.8560  -0.8541  -0.8522  -0.8491  -0.8482  -0.8203  -0.8188  -0.8061
    -0.7899  -0.7859  -0.7802  -0.7791  -0.7715  -0.7634  -0.7631  -0.7277
    -0.7249  -0.7152  -0.7148  -0.6952  -0.6944  -0.6794  -0.6553  -0.6472
    -0.6300  -0.6286  -0.5918  -0.5913  -0.5885  -0.5884  -0.5868  -0.5814
    -0.5809  -0.5800  -0.5763  -0.5738  -0.5413  -0.5405  -0.5401  -0.5394
    -0.5391  -0.5324  -0.5243  -0.5223  -0.4953  -0.2332  -0.2269  -0.1847
    -0.1749  -0.1496  -0.0910   0.0606   0.0625   0.0936   0.3758   0.3787
     0.7140   0.7229   0.7609   0.7622   0.8096   0.8137   0.9680   0.9752
     1.0995   1.1006   1.2151   1.7101   1.7515   1.7557   1.7931   1.7932
     1.9216   1.9381   1.9840   1.9914   2.1680   2.1706   2.4528   2.4768
     2.4874   2.5025   2.9297   2.9425   2.9596   2.9630   2.9762   2.9787
     3.0431   3.0434   3.1918   3.3156   3.3283   3.5059   3.5181   3.6177
     3.6876   3.6925   3.9858   3.9931   4.0440   4.0477   4.0504   4.1928
     4.1970   4.1973   4.2056   4.4906   4.4925   4.5267   4.5287   4.6414
     4.6480   4.7021   4.7145   4.9197   5.1163   5.5865   5.5935   5.6410
     5.6812   5.7960   5.8024   5.8289   5.8686   5.8721   5.8868   5.8894
     5.9686   5.9997   6.0257   6.0339   6.2831   6.2897   6.2927   6.2998
     6.3032   6.3044   6.3121   6.3249   6.4409   6.4499   6.4892   6.5651

          k =-0.2500 0.2500 0.2500 (167588 PWs)   bands (ev):

   -19.4355  -7.2399  -6.7432  -6.2137  -6.2120  -5.7747  -5.3715  -5.2732
    -5.2716  -5.0507  -5.0506  -4.9550  -4.9530  -4.8205  -4.8125  -4.7031
    -4.6145  -4.6106  -4.5896  -4.5893  -4.4084  -4.4076  -4.4062  -4.3801
    -4.3762  -4.3758  -4.3721  -4.3195  -4.3180  -4.3164  -4.3150  -4.2519
    -4.2236  -4.2234  -4.1674  -4.1634  -4.1622  -4.1271  -4.1253  -4.1120
    -4.1077  -4.0890  -4.0890  -4.0518  -4.0198  -4.0185  -4.0172  -4.0140
    -4.0129  -3.9838  -3.9534  -3.9534  -3.9237  -3.9225  -3.9193  -3.9191
    -3.9173  -3.9111  -3.8801  -3.8788  -3.8193  -3.8188  -3.7868  -3.7612
    -3.7529  -3.7498  -3.7495  -3.7275  -3.7270  -3.7151  -3.6654  -3.6647
    -3.6593  -3.6581  -3.5821  -3.5742  -3.5557  -3.5520  -3.5309  -3.5138
    -3.5136  -3.5001  -3.4752  -3.4726  -3.4315  -3.4292  -3.4286  -3.4263
    -3.4043  -3.4025  -3.3233  -3.3221  -3.3212  -3.3070  -3.2917  -3.2890
    -3.2763  -3.2755  -3.2690  -3.2682  -3.2260  -3.2248  -3.2034  -3.2026
    -3.1670  -3.1661  -3.1400  -3.1190  -3.1187  -3.0732  -3.0722  -3.0399
    -3.0126  -3.0124  -3.0110  -3.0108  -3.0072  -3.0063  -2.9795  -2.9706
    -2.9316  -2.9315  -2.9102  -2.8868  -2.8842  -2.8830  -2.8784  -2.8761
    -2.8730  -2.8728  -2.8379  -2.8367  -2.8365  -2.8312  -2.8311  -2.8263
    -2.7711  -2.7653  -2.7619  -2.7602  -2.7391  -2.7388  -2.7337  -2.6449
    -2.6349  -2.6338  -2.6256  -2.6237  -2.6185  -2.6181  -2.6160  -2.6089
    -2.6082  -2.5981  -2.5905  -2.5881  -2.5856  -2.5828  -2.5728  -2.5676
    -2.5654  -2.5431  -2.5335  -2.5314  -2.5169  -2.5163  -2.4997  -2.4996
    -2.4913  -2.4902  -2.4701  -2.4576  -2.4574  -2.4520  -2.4518  -2.4181
    -2.4159  -2.4155  -2.3575  -2.3543  -2.3395  -2.3388  -2.3290  -2.3239
    -2.3015  -2.3007  -2.2968  -2.2848  -2.2838  -2.2736  -2.2712  -2.2568
    -2.2541  -2.2285  -2.2285  -2.2188  -2.2176  -2.2088  -2.2079  -2.1908
    -2.1782  -2.1569  -2.0887  -2.0873  -2.0681  -2.0671  -2.0560  -2.0554
    -2.0070  -2.0045  -1.9908  -1.9708  -1.9586  -1.9581  -1.9400  -1.9220
    -1.9213  -1.9085  -1.9012  -1.8714  -1.8698  -1.8667  -1.8608  -1.8606
    -1.8535  -1.8528  -1.8331  -1.8260  -1.8164  -1.8157  -1.8152  -1.8150
    -1.8145  -1.8117  -1.7998  -1.7802  -1.7796  -1.7765  -1.7711  -1.7587
    -1.7573  -1.7544  -1.7531  -1.7476  -1.7459  -1.7127  -1.7098  -1.6664
    -1.6487  -1.6461  -1.6023  -1.6016  -1.6015  -1.5917  -1.5904  -1.5777
    -1.5764  -1.5710  -1.5701  -1.5594  -1.5583  -1.5384  -1.5381  -1.5019
    -1.5004  -1.4837  -1.4621  -1.4616  -1.4264  -1.4214  -1.4137  -1.3717
    -1.3688  -1.3496  -1.3255  -1.3245  -1.3239  -1.3177  -1.3176  -1.2987
    -1.2977  -1.2970  -1.2962  -1.2954  -1.2947  -1.2914  -1.2908  -1.2879
    -1.2641  -1.2639  -1.2319  -1.2299  -1.2297  -1.2086  -1.2080  -1.2040
    -1.2023  -1.1997  -1.1869  -1.1625  -1.1605  -1.1381  -1.1377  -1.1306
    -1.1158  -1.1053  -1.1029  -1.0755  -1.0746  -1.0685  -1.0669  -1.0306
    -1.0275  -1.0180  -1.0171  -1.0170  -1.0147  -0.9907  -0.9895  -0.9761
    -0.9693  -0.9681  -0.9578  -0.9561  -0.9539  -0.9537  -0.9438  -0.9332
    -0.9327  -0.9263  -0.9257  -0.9186  -0.9158  -0.9130  -0.8987  -0.8572
    -0.8560  -0.8541  -0.8522  -0.8491  -0.8482  -0.8203  -0.8188  -0.8061
    -0.7899  -0.7859  -0.7802  -0.7791  -0.7715  -0.7634  -0.7631  -0.7277
    -0.7249  -0.7152  -0.7148  -0.6952  -0.6944  -0.6794  -0.6553  -0.6472
    -0.6300  -0.6286  -0.5918  -0.5913  -0.5885  -0.5884  -0.5868  -0.5814
    -0.5809  -0.5800  -0.5763  -0.5738  -0.5413  -0.5405  -0.5401  -0.5394
    -0.5391  -0.5324  -0.5243  -0.5223  -0.4953  -0.2332  -0.2269  -0.1847
    -0.1749  -0.1496  -0.0910   0.0606   0.0625   0.0936   0.3758   0.3787
     0.7140   0.7229   0.7609   0.7622   0.8096   0.8137   0.9680   0.9752
     1.0995   1.1006   1.2151   1.7101   1.7515   1.7557   1.7931   1.7932
     1.9216   1.9381   1.9840   1.9914   2.1680   2.1706   2.4528   2.4768
     2.4874   2.5025   2.9297   2.9425   2.9596   2.9630   2.9762   2.9787
     3.0431   3.0434   3.1918   3.3156   3.3283   3.5059   3.5181   3.6177
     3.6876   3.6925   3.9858   3.9931   4.0440   4.0477   4.0504   4.1928
     4.1971   4.1974   4.2057   4.4905   4.4925   4.5267   4.5287   4.6414
     4.6480   4.7021   4.7145   4.9194   5.1138   5.5865   5.5935   5.6413
     5.6770   5.7960   5.7994   5.8166   5.8686   5.8726   5.8868   5.8895
     5.9826   5.9979   6.0002   6.1078   6.2830   6.2854   6.2921   6.2996
     6.3022   6.3033   6.3122   6.4030   6.4107   6.4845   6.5074   6.5761

     the Fermi energy is     1.0432 ev

!    total energy              =   -7379.98210780 Ry
     Harris-Foulkes estimate   =   -7379.98210780 Ry
     estimated scf accuracy    <          2.6E-09 Ry

     The total energy is the sum of the following terms:

     one-electron contribution =  -48618.61140629 Ry
     hartree contribution      =   24861.47613054 Ry
     xc contribution           =   -3556.24015371 Ry
     ewald contribution        =   19933.39227815 Ry
     smearing contrib. (-TS)   =       0.00104350 Ry

     convergence has been achieved in  29 iterations

     Writing output data file 6816392.save

     init_run     :    138.99s CPU    147.05s WALL (       1 calls)
     electrons    :   8626.95s CPU   9412.47s WALL (       1 calls)

     Called by init_run:
     wfcinit      :    113.38s CPU    120.22s WALL (       1 calls)
     potinit      :      4.21s CPU      4.30s WALL (       1 calls)

     Called by electrons:
     c_bands      :   7132.33s CPU   7830.34s WALL (      30 calls)
     sum_band     :   1082.69s CPU   1161.92s WALL (      30 calls)
     v_of_rho     :     20.20s CPU     21.59s WALL (      30 calls)
     newd         :    396.40s CPU    402.17s WALL (      30 calls)
     mix_rho      :      3.86s CPU      4.22s WALL (      30 calls)

     Called by c_bands:
     init_us_2    :     14.08s CPU     14.40s WALL (     366 calls)
     cegterg      :   6880.93s CPU   7573.04s WALL (     180 calls)

     Called by *egterg:
     h_psi        :   2841.90s CPU   3225.49s WALL (     941 calls)
     s_psi        :    257.63s CPU    280.10s WALL (     941 calls)
     g_psi        :      5.75s CPU      5.76s WALL (     755 calls)
     cdiaghg      :   1341.46s CPU   1344.84s WALL (     929 calls)

     Called by h_psi:
     add_vuspsi   :    258.36s CPU    288.04s WALL (     941 calls)

     General routines
     calbec       :    962.55s CPU    965.37s WALL (    1121 calls)
     fft          :    140.55s CPU    142.99s WALL (     480 calls)
     ffts         :      2.35s CPU      2.58s WALL (      60 calls)
     fftw         :   1945.41s CPU   2332.00s WALL (  488782 calls)
     interpolate  :      5.45s CPU      6.12s WALL (      60 calls)
     davcio       :      0.01s CPU      0.17s WALL (       6 calls)

     Parallel routines
     fft_scatter  :   1486.72s CPU   1782.84s WALL (  489322 calls)

     PWSCF        :     2h26m CPU        2h39m WALL


   This run was terminated on:   2:42:11  13Aug2015            

=------------------------------------------------------------------------------=
   JOB DONE.
=------------------------------------------------------------------------------=
