
     Program PWSCF v.5.4.0 starts on 25Jan2017 at 18:22:13 

     This program is part of the open-source Quantum ESPRESSO suite
     for quantum simulation of materials; please cite
         "P. Giannozzi et al., J. Phys.:Condens. Matter 21 395502 (2009);
          URL http://www.quantum-espresso.org", 
     in publications or presentations arising from this work. More details at
     http://www.quantum-espresso.org/quote

     Parallel version (MPI), running on    48 processors
     K-points division:     npool     =       6
     R & G space division:  proc/nbgrp/npool/nimage =       8
     Reading input from hollow.O1.Au535758.d.0.0.phi.0.psi.90.in
Warning: card &CELL ignored
Warning: card / ignored

     Current dimensions of program PWSCF are:
     Max number of different atomic species (ntypx) = 10
     Max number of k-points (npk) =  40000
     Max angular momentum in pseudopotentials (lmaxx) =  3

     Subspace diagonalization in iterative solution of the eigenvalue problem:
     a serial algorithm will be used

 
     Parallelization info
     --------------------
     sticks:   dense  smooth     PW     G-vecs:    dense   smooth      PW
     Min        1783     893    233               387139   136875   18145
     Max        1784     894    234               387152   136900   18148
     Sum       14269    7147   1867              3097177  1095093  145167
 

     Title: 
     hollow.O1.Au535758.d.0.0.phi.0.psi.90                                      


     bravais-lattice index     =            4
     lattice parameter (alat)  =      22.7436  a.u.
     unit-cell volume          =   22924.1508 (a.u.)^3
     number of atoms/cell      =           67
     number of atomic types    =            3
     number of electrons       =       712.00
     number of Kohn-Sham states=          427
     kinetic-energy cutoff     =      50.0000  Ry
     charge density cutoff     =     400.0000  Ry
     convergence threshold     =      1.0E-08
     mixing beta               =       0.7000
     number of iterations used =            8  plain     mixing
     Exchange-correlation      =  SLA  PW   PBE  PBE ( 1  4  3  4 0 0)
     nstep                     =           50


     celldm(1)=  22.743643  celldm(2)=   0.000000  celldm(3)=   2.250000
     celldm(4)=   0.000000  celldm(5)=   0.000000  celldm(6)=   0.000000

     crystal axes: (cart. coord. in units of alat)
               a(1) = (   1.000000   0.000000   0.000000 )  
               a(2) = (  -0.500000   0.866025   0.000000 )  
               a(3) = (   0.000000   0.000000   2.250000 )  

     reciprocal axes: (cart. coord. in units 2 pi/alat)
               b(1) = (  1.000000  0.577350  0.000000 )  
               b(2) = (  0.000000  1.154701  0.000000 )  
               b(3) = (  0.000000  0.000000  0.444444 )  


     PseudoPot. # 1 for Au read from file:
     ../../../../pseudo/Au.pbe-nd-van.UPF
     MD5 check sum: 458681b50f36d87ef23c61b04bba420a
     Pseudo is Ultrasoft + core correction, Zval = 11.0
     Generated by new atomic code, or converted to UPF format
     Using radial grid of  985 points,  3 beta functions with: 
                l(1) =   1
                l(2) =   2
                l(3) =   2
     Q(r) pseudized with  8 coefficients,  rinner =    1.100   1.100   1.100
                                                       1.100   1.100

     PseudoPot. # 2 for H  read from file:
     ../../../../pseudo/H.pbe-van_ak.UPF
     MD5 check sum: 403db7282739603aa925980fa9b8608d
     Pseudo is Ultrasoft, Zval =  1.0
     Generated by new atomic code, or converted to UPF format
     Using radial grid of  615 points,  1 beta functions with: 
                l(1) =   0
     Q(r) pseudized with  8 coefficients,  rinner =    0.800

     PseudoPot. # 3 for O  read from file:
     ../../../../pseudo/O.pbe-van_ak.UPF
     MD5 check sum: 4b8c549914a63cae506c6ff22b5af4fe
     Pseudo is Ultrasoft, Zval =  6.0
     Generated by new atomic code, or converted to UPF format
     Using radial grid of  737 points,  4 beta functions with: 
                l(1) =   0
                l(2) =   0
                l(3) =   1
                l(4) =   1
     Q(r) pseudized with  8 coefficients,  rinner =    0.800   0.800   0.800


     atomic species   valence    mass     pseudopotential
        Au            11.00   196.96657     Au( 1.00)
        H              1.00     1.01000     H ( 1.00)
        O              6.00    16.00000     O ( 1.00)

     No symmetry found



   Cartesian axes

     site n.     atom                  positions (alat units)
         1           O   tau(   1) = (  -0.0208375   0.5411347   0.8373442  )
         2           H   tau(   2) = (  -0.0707709   0.4928811   0.7957966  )
         3           H   tau(   3) = (   0.0275819   0.4903739   0.8776511  )
         4           Au  tau(   4) = (   0.3540481   0.6132292   0.0000000  )
         5           Au  tau(   5) = (   0.4790062   0.3967954   0.0000000  )
         6           Au  tau(   6) = (   0.6039644   0.1803616   0.0000000  )
         7           Au  tau(   7) = (   0.7289225  -0.0360723   0.0000000  )
         8           Au  tau(   8) = (   0.1041318   0.6132292   0.0000000  )
         9           Au  tau(   9) = (   0.2290899   0.3967954   0.0000000  )
        10           Au  tau(  10) = (   0.3540481   0.1803616   0.0000000  )
        11           Au  tau(  11) = (   0.4790062  -0.0360723   0.0000000  )
        12           Au  tau(  12) = (  -0.1457845   0.6132292   0.0000000  )
        13           Au  tau(  13) = (  -0.0208264   0.3967954   0.0000000  )
        14           Au  tau(  14) = (   0.1041318   0.1803616   0.0000000  )
        15           Au  tau(  15) = (   0.2290899  -0.0360723   0.0000000  )
        16           Au  tau(  16) = (  -0.3957008   0.6132292   0.0000000  )
        17           Au  tau(  17) = (  -0.2707426   0.3967954   0.0000000  )
        18           Au  tau(  18) = (  -0.1457845   0.1803616   0.0000000  )
        19           Au  tau(  19) = (  -0.0208264  -0.0360723   0.0000000  )
        20           Au  tau(  20) = (   0.4790062   0.6853738   0.2040557  )
        21           Au  tau(  21) = (   0.6039644   0.4689400   0.2040557  )
        22           Au  tau(  22) = (   0.7289225   0.2525061   0.2040557  )
        23           Au  tau(  23) = (   0.8538806   0.0360723   0.2040557  )
        24           Au  tau(  24) = (   0.2290899   0.6853738   0.2040557  )
        25           Au  tau(  25) = (   0.3540481   0.4689400   0.2040557  )
        26           Au  tau(  26) = (   0.4790062   0.2525061   0.2040557  )
        27           Au  tau(  27) = (   0.6039644   0.0360723   0.2040557  )
        28           Au  tau(  28) = (  -0.0208264   0.6853738   0.2040557  )
        29           Au  tau(  29) = (   0.1041318   0.4689400   0.2040557  )
        30           Au  tau(  30) = (   0.2290899   0.2525061   0.2040557  )
        31           Au  tau(  31) = (   0.3540481   0.0360723   0.2040557  )
        32           Au  tau(  32) = (  -0.2707426   0.6853738   0.2040557  )
        33           Au  tau(  33) = (  -0.1457845   0.4689400   0.2040557  )
        34           Au  tau(  34) = (  -0.0208264   0.2525061   0.2040557  )
        35           Au  tau(  35) = (   0.1041318   0.0360723   0.2040557  )
        36           Au  tau(  36) = (   0.3541162   0.7576593   0.4066483  )
        37           Au  tau(  37) = (   0.4791000   0.5411421   0.4066695  )
        38           Au  tau(  38) = (   0.6040570   0.3246862   0.4066617  )
        39           Au  tau(  39) = (   0.7290270   0.1081684   0.4066529  )
        40           Au  tau(  40) = (   0.1041162   0.7576236   0.4066247  )
        41           Au  tau(  41) = (   0.2291001   0.5411063   0.4066455  )
        42           Au  tau(  42) = (   0.3540567   0.3246505   0.4066380  )
        43           Au  tau(  43) = (   0.4790276   0.1081324   0.4066292  )
        44           Au  tau(  44) = (  -0.1458201   0.7576104   0.4066224  )
        45           Au  tau(  45) = (  -0.0208365   0.5410930   0.4066438  )
        46           Au  tau(  46) = (   0.1041202   0.3246372   0.4066359  )
        47           Au  tau(  47) = (   0.2290908   0.1081193   0.4066273  )
        48           Au  tau(  48) = (  -0.3958167   0.7575791   0.4065812  )
        49           Au  tau(  49) = (  -0.2708328   0.5410617   0.4066025  )
        50           Au  tau(  50) = (  -0.1458763   0.3246061   0.4065947  )
        51           Au  tau(  51) = (  -0.0209056   0.1080882   0.4065858  )
        52           Au  tau(  52) = (   0.3541085   0.6133344   0.6129762  )
        53           Au  tau(  53) = (   0.4790780   0.3968269   0.6129968  )
        54           Au  tau(  54) = (   0.6040356   0.1803811   0.6129859  )
        55           Au  tau(  55) = (   0.7290165  -0.0361221   0.6129385  )
        56           Au  tau(  56) = (   0.1041243   0.6133091   0.6130022  )
        57           Au  tau(  57) = (   0.2290941   0.3968013   0.6130241  )
        58           Au  tau(  58) = (   0.3540515   0.1803552   0.6130121  )
        59           Au  tau(  59) = (   0.4790323  -0.0361475   0.6129659  )
        60           Au  tau(  60) = (  -0.1458030   0.6133014   0.6129980  )
        61           Au  tau(  61) = (  -0.0208339   0.3967936   0.6130188  )
        62           Au  tau(  62) = (   0.1041239   0.1803477   0.6130083  )
        63           Au  tau(  63) = (   0.2291046  -0.0361554   0.6129607  )
        64           Au  tau(  64) = (  -0.3957908   0.6132739   0.6129471  )
        65           Au  tau(  65) = (  -0.2708208   0.3967658   0.6129688  )
        66           Au  tau(  66) = (  -0.1458636   0.1803200   0.6129569  )
        67           Au  tau(  67) = (  -0.0208823  -0.0361826   0.6129110  )

     number of k points=    12  Marzari-Vanderbilt smearing, width (Ry)=  0.0200
                       cart. coord. in units 2pi/alat
        k(    1) = (   0.2500000   0.4330127   0.1111111), wk =   0.1666667
        k(    2) = (   0.2500000  -0.1443376   0.1111111), wk =   0.1666667
        k(    3) = (  -0.2500000  -0.4330127   0.1111111), wk =   0.1666667
        k(    4) = (  -0.2500000   0.4330127  -0.1111111), wk =   0.1666667
        k(    5) = (   0.2500000  -0.4330127  -0.1111111), wk =   0.1666667
        k(    6) = (   0.5000000   0.0000000   0.1111111), wk =   0.1666667
        k(    7) = (  -0.5000000   0.0000000   0.1111111), wk =   0.1666667
        k(    8) = (  -0.2500000   0.1443376   0.1111111), wk =   0.1666667
        k(    9) = (  -0.2500000  -0.1443376  -0.1111111), wk =   0.1666667
        k(   10) = (   0.2500000   0.1443376  -0.1111111), wk =   0.1666667
        k(   11) = (   0.0000000  -0.2886751   0.1111111), wk =   0.1666667
        k(   12) = (   0.0000000   0.2886751   0.1111111), wk =   0.1666667

     Dense  grid:  3097177 G-vectors     FFT dimensions: ( 150, 150, 360)

     Smooth grid:  1095093 G-vectors     FFT dimensions: ( 108, 108, 240)

     Largest allocated arrays     est. size (Mb)     dimensions
        Kohn-Sham Wavefunctions       111.53 Mb     (   17118,  427)
        NL pseudopotentials           219.93 Mb     (   17118,  842)
        Each V/rho on FFT grid         15.45 Mb     ( 1012500)
        Each G-vector array             2.95 Mb     (  387141)
        G-vector shells                 0.22 Mb     (   29038)
     Largest temporary arrays     est. size (Mb)     dimensions
        Auxiliary wavefunctions       446.13 Mb     (   17118, 1708)
        Each subspace H/S matrix       44.51 Mb     (    1708, 1708)
        Each <psi_i|beta_j> matrix      5.49 Mb     (     842,  427)
        Arrays for rho mixing         123.60 Mb     ( 1012500,    8)

     Initial potential from superposition of free atoms
     Check: negative starting charge=   -1.730336

     starting charge  711.25682, renormalised to  712.00000

     negative rho (up, down):  1.732E+00 0.000E+00
     Starting wfc are  582 randomized atomic wfcs

     total cpu time spent up to now is       72.8 secs

     per-process dynamical memory:   781.3 Mb

     Self-consistent Calculation

     iteration #  1     ecut=    50.00 Ry     beta=0.70
     Davidson diagonalization with overlap
     ethr =  1.00E-02,  avg # of iterations =  3.0

     Threshold (ethr) on eigenvalues was too large:
     Diagonalizing with lowered threshold

     Davidson diagonalization with overlap
     ethr =  4.23E-04,  avg # of iterations =  3.0

     negative rho (up, down):  1.713E+00 0.000E+00

     total cpu time spent up to now is      370.3 secs

     total energy              =   -6562.25919895 Ry
     Harris-Foulkes estimate   =   -6564.96997543 Ry
     estimated scf accuracy    <       3.49710078 Ry

     iteration #  2     ecut=    50.00 Ry     beta=0.70
     Davidson diagonalization with overlap
     ethr =  4.91E-04,  avg # of iterations = 11.5

     negative rho (up, down):  1.714E+00 0.000E+00

     total cpu time spent up to now is      731.9 secs

     total energy              =   -6555.25260698 Ry
     Harris-Foulkes estimate   =   -6570.72787773 Ry
     estimated scf accuracy    <      86.69477111 Ry

     iteration #  3     ecut=    50.00 Ry     beta=0.70
     Davidson diagonalization with overlap
     ethr =  4.91E-04,  avg # of iterations =  6.0

     negative rho (up, down):  1.730E+00 0.000E+00

     total cpu time spent up to now is      991.4 secs

     total energy              =   -6562.75129929 Ry
     Harris-Foulkes estimate   =   -6564.91611753 Ry
     estimated scf accuracy    <       8.98671612 Ry

     iteration #  4     ecut=    50.00 Ry     beta=0.70
     Davidson diagonalization with overlap
     ethr =  4.91E-04,  avg # of iterations =  6.2

     negative rho (up, down):  1.733E+00 0.000E+00

     total cpu time spent up to now is     1158.7 secs

     total energy              =   -6562.71460473 Ry
     Harris-Foulkes estimate   =   -6565.38173998 Ry
     estimated scf accuracy    <      27.82590176 Ry

     iteration #  5     ecut=    50.00 Ry     beta=0.70
     Davidson diagonalization with overlap
     ethr =  4.91E-04,  avg # of iterations =  6.1

     negative rho (up, down):  1.744E+00 0.000E+00

     total cpu time spent up to now is     1323.9 secs

     total energy              =   -6564.06724380 Ry
     Harris-Foulkes estimate   =   -6564.43705797 Ry
     estimated scf accuracy    <       2.28245701 Ry

     iteration #  6     ecut=    50.00 Ry     beta=0.70
     Davidson diagonalization with overlap
     ethr =  3.21E-04,  avg # of iterations =  3.1

     negative rho (up, down):  1.748E+00 0.000E+00

     total cpu time spent up to now is     1463.2 secs

     total energy              =   -6564.17940590 Ry
     Harris-Foulkes estimate   =   -6564.24433304 Ry
     estimated scf accuracy    <       0.20161048 Ry

     iteration #  7     ecut=    50.00 Ry     beta=0.70
     Davidson diagonalization with overlap
     ethr =  2.83E-05,  avg # of iterations =  9.2

     negative rho (up, down):  1.751E+00 0.000E+00

     total cpu time spent up to now is     1643.1 secs

     total energy              =   -6564.19556010 Ry
     Harris-Foulkes estimate   =   -6564.22537726 Ry
     estimated scf accuracy    <       0.12579294 Ry

     iteration #  8     ecut=    50.00 Ry     beta=0.70
     Davidson diagonalization with overlap
     ethr =  1.77E-05,  avg # of iterations =  4.7

     negative rho (up, down):  1.752E+00 0.000E+00

     total cpu time spent up to now is     1810.7 secs

     total energy              =   -6564.19755933 Ry
     Harris-Foulkes estimate   =   -6564.21398093 Ry
     estimated scf accuracy    <       0.05861961 Ry

     iteration #  9     ecut=    50.00 Ry     beta=0.70
     Davidson diagonalization with overlap
     ethr =  8.23E-06,  avg # of iterations =  9.4

     negative rho (up, down):  1.753E+00 0.000E+00

     total cpu time spent up to now is     1980.4 secs

     total energy              =   -6564.19919121 Ry
     Harris-Foulkes estimate   =   -6564.20574831 Ry
     estimated scf accuracy    <       0.01920700 Ry

     iteration # 10     ecut=    50.00 Ry     beta=0.70
     Davidson diagonalization with overlap
     ethr =  2.70E-06,  avg # of iterations =  7.2

     negative rho (up, down):  1.754E+00 0.000E+00

     total cpu time spent up to now is     2144.3 secs

     total energy              =   -6564.20014834 Ry
     Harris-Foulkes estimate   =   -6564.20269043 Ry
     estimated scf accuracy    <       0.00832365 Ry

     iteration # 11     ecut=    50.00 Ry     beta=0.70
     Davidson diagonalization with overlap
     ethr =  1.17E-06,  avg # of iterations =  3.7

     negative rho (up, down):  1.754E+00 0.000E+00

     total cpu time spent up to now is     2292.6 secs

     total energy              =   -6564.20075749 Ry
     Harris-Foulkes estimate   =   -6564.20171826 Ry
     estimated scf accuracy    <       0.00338507 Ry

     iteration # 12     ecut=    50.00 Ry     beta=0.70
     Davidson diagonalization with overlap
     ethr =  4.75E-07,  avg # of iterations =  2.0

     negative rho (up, down):  1.754E+00 0.000E+00

     total cpu time spent up to now is     2427.1 secs

     total energy              =   -6564.20107512 Ry
     Harris-Foulkes estimate   =   -6564.20123952 Ry
     estimated scf accuracy    <       0.00035458 Ry

     iteration # 13     ecut=    50.00 Ry     beta=0.70
     Davidson diagonalization with overlap
     ethr =  4.98E-08,  avg # of iterations =  3.0

     negative rho (up, down):  1.754E+00 0.000E+00

     total cpu time spent up to now is     2608.0 secs

     total energy              =   -6564.20102234 Ry
     Harris-Foulkes estimate   =   -6564.20132136 Ry
     estimated scf accuracy    <       0.00140416 Ry

     iteration # 14     ecut=    50.00 Ry     beta=0.70
     Davidson diagonalization with overlap
     ethr =  4.98E-08,  avg # of iterations =  2.5

     negative rho (up, down):  1.754E+00 0.000E+00

     total cpu time spent up to now is     2764.8 secs

     total energy              =   -6564.20115918 Ry
     Harris-Foulkes estimate   =   -6564.20118955 Ry
     estimated scf accuracy    <       0.00017137 Ry

     iteration # 15     ecut=    50.00 Ry     beta=0.70
     Davidson diagonalization with overlap
     ethr =  2.41E-08,  avg # of iterations =  2.0

     negative rho (up, down):  1.754E+00 0.000E+00

     total cpu time spent up to now is     2897.3 secs

     total energy              =   -6564.20117463 Ry
     Harris-Foulkes estimate   =   -6564.20117850 Ry
     estimated scf accuracy    <       0.00002594 Ry

     iteration # 16     ecut=    50.00 Ry     beta=0.70
     Davidson diagonalization with overlap
     ethr =  3.64E-09,  avg # of iterations =  3.0

     negative rho (up, down):  1.754E+00 0.000E+00

     total cpu time spent up to now is     3030.4 secs

     total energy              =   -6564.20117598 Ry
     Harris-Foulkes estimate   =   -6564.20117751 Ry
     estimated scf accuracy    <       0.00000378 Ry

     iteration # 17     ecut=    50.00 Ry     beta=0.70
     Davidson diagonalization with overlap
     ethr =  5.32E-10,  avg # of iterations =  3.0

     negative rho (up, down):  1.754E+00 0.000E+00

     total cpu time spent up to now is     3189.0 secs

     total energy              =   -6564.20117596 Ry
     Harris-Foulkes estimate   =   -6564.20117797 Ry
     estimated scf accuracy    <       0.00001170 Ry

     iteration # 18     ecut=    50.00 Ry     beta=0.70
     Davidson diagonalization with overlap
     ethr =  5.32E-10,  avg # of iterations =  2.0

     negative rho (up, down):  1.754E+00 0.000E+00

     total cpu time spent up to now is     3336.5 secs

     total energy              =   -6564.20117657 Ry
     Harris-Foulkes estimate   =   -6564.20117748 Ry
     estimated scf accuracy    <       0.00000420 Ry

     iteration # 19     ecut=    50.00 Ry     beta=0.70
     Davidson diagonalization with overlap
     ethr =  5.32E-10,  avg # of iterations =  2.0

     negative rho (up, down):  1.754E+00 0.000E+00

     total cpu time spent up to now is     3468.5 secs

     total energy              =   -6564.20117700 Ry
     Harris-Foulkes estimate   =   -6564.20117706 Ry
     estimated scf accuracy    <       0.00000025 Ry

     iteration # 20     ecut=    50.00 Ry     beta=0.70
     Davidson diagonalization with overlap
     ethr =  3.48E-11,  avg # of iterations =  3.0

     negative rho (up, down):  1.754E+00 0.000E+00

     total cpu time spent up to now is     3617.9 secs

     total energy              =   -6564.20117704 Ry
     Harris-Foulkes estimate   =   -6564.20117706 Ry
     estimated scf accuracy    <       0.00000005 Ry

     iteration # 21     ecut=    50.00 Ry     beta=0.70
     Davidson diagonalization with overlap
     ethr =  7.59E-12,  avg # of iterations =  3.0

     negative rho (up, down):  1.754E+00 0.000E+00

     total cpu time spent up to now is     3756.7 secs

     total energy              =   -6564.20117705 Ry
     Harris-Foulkes estimate   =   -6564.20117705 Ry
     estimated scf accuracy    <       0.00000002 Ry

     iteration # 22     ecut=    50.00 Ry     beta=0.70
     Davidson diagonalization with overlap
     ethr =  3.05E-12,  avg # of iterations =  2.0

     negative rho (up, down):  1.754E+00 0.000E+00

     total cpu time spent up to now is     3885.3 secs

     End of self-consistent calculation

          k = 0.2500 0.4330 0.1111 (136853 PWs)   bands (ev):

   -18.9261  -6.8077  -6.3481  -5.9493  -5.9482  -5.2730  -4.9255  -4.9253
    -4.8999  -4.8976  -4.4779  -4.4773  -4.3958  -4.3573  -4.3521  -4.3515
    -4.3114  -4.1938  -4.1929  -4.1484  -4.1025  -4.1020  -4.1010  -4.0998
    -4.0516  -4.0505  -4.0221  -4.0215  -4.0010  -3.9868  -3.9822  -3.9044
    -3.9037  -3.8858  -3.8851  -3.8425  -3.8412  -3.8409  -3.8198  -3.8196
    -3.8165  -3.7430  -3.7423  -3.6808  -3.6797  -3.6674  -3.6649  -3.6057
    -3.6019  -3.5724  -3.5723  -3.5345  -3.5252  -3.5222  -3.5028  -3.5002
    -3.4985  -3.4972  -3.4910  -3.4714  -3.4149  -3.4077  -3.4059  -3.3840
    -3.3500  -3.3226  -3.3213  -3.2693  -3.2667  -3.2457  -3.2409  -3.2125
    -3.1899  -3.1613  -3.1504  -3.1145  -3.1131  -3.0835  -3.0741  -3.0725
    -3.0485  -3.0253  -2.9988  -2.9956  -2.9779  -2.9764  -2.9719  -2.9710
    -2.9697  -2.9663  -2.9550  -2.9062  -2.8488  -2.8478  -2.8472  -2.8463
    -2.8413  -2.8214  -2.8205  -2.8010  -2.7264  -2.7255  -2.7244  -2.7188
    -2.6696  -2.6637  -2.6635  -2.6440  -2.6430  -2.5907  -2.5767  -2.5728
    -2.5708  -2.5310  -2.5292  -2.5276  -2.4880  -2.4871  -2.4348  -2.4095
    -2.4076  -2.4051  -2.4030  -2.3826  -2.3819  -2.3776  -2.3708  -2.3703
    -2.3346  -2.3018  -2.2995  -2.2933  -2.2915  -2.2903  -2.2896  -2.2889
    -2.2880  -2.2781  -2.2535  -2.2527  -2.2523  -2.2510  -2.2491  -2.2361
    -2.2333  -2.2313  -2.2057  -2.2034  -2.2015  -2.1805  -2.1781  -2.1613
    -2.1602  -2.1370  -2.1337  -2.1325  -2.1317  -2.1283  -2.1242  -2.1238
    -2.1230  -2.1096  -2.1084  -2.0954  -2.0889  -2.0882  -2.0075  -2.0067
    -1.9916  -1.9913  -1.9773  -1.9719  -1.9530  -1.9404  -1.9395  -1.9211
    -1.9060  -1.9020  -1.8988  -1.8914  -1.8704  -1.8659  -1.8606  -1.8604
    -1.8566  -1.8457  -1.8188  -1.7909  -1.7721  -1.7657  -1.7552  -1.7433
    -1.7411  -1.6810  -1.6802  -1.6700  -1.6665  -1.6011  -1.5999  -1.5588
    -1.5471  -1.5390  -1.5114  -1.5062  -1.4899  -1.4786  -1.4722  -1.4590
    -1.4575  -1.4554  -1.4399  -1.4354  -1.4024  -1.3993  -1.3977  -1.3929
    -1.3906  -1.3693  -1.3611  -1.3598  -1.3268  -1.3240  -1.3137  -1.3099
    -1.3077  -1.3041  -1.2835  -1.2663  -1.2561  -1.2557  -1.2519  -1.2476
    -1.2344  -1.1897  -1.1856  -1.1737  -1.1699  -1.1583  -1.1495  -1.1141
    -1.0695  -1.0619  -1.0202  -1.0163  -1.0157  -1.0129  -1.0110  -1.0071
    -0.9993  -0.9958  -0.9639  -0.9452  -0.9405  -0.9290  -0.9218  -0.9105
    -0.8992  -0.8950  -0.8861  -0.8843  -0.8831  -0.8821  -0.8756  -0.8384
    -0.8298  -0.8248  -0.8239  -0.8166  -0.8099  -0.8001  -0.7737  -0.7692
    -0.7549  -0.7353  -0.7220  -0.7072  -0.6808  -0.6716  -0.6647  -0.6641
    -0.6564  -0.6544  -0.6481  -0.6466  -0.6430  -0.6283  -0.6148  -0.6109
    -0.6037  -0.6032  -0.5905  -0.5795  -0.5611  -0.5606  -0.5542  -0.5325
    -0.5262  -0.5142  -0.5113  -0.4631  -0.4610  -0.4600  -0.4552  -0.4492
    -0.4471  -0.4372  -0.4266  -0.4245  -0.4137  -0.4123  -0.4104  -0.4007
    -0.3693  -0.3670  -0.3666  -0.3598  -0.3593  -0.3529  -0.3505  -0.3412
    -0.3332  -0.3314  -0.3164  -0.2994  -0.2974  -0.2914  -0.2768  -0.2750
    -0.2251  -0.2213  -0.1952  -0.1946  -0.1863  -0.1842  -0.1529  -0.1433
    -0.1431  -0.1241  -0.1237  -0.0995  -0.0441  -0.0329   0.0711   0.4686
     0.4705   0.4951   0.4954   0.5564   0.5715   0.9041   0.9083   0.9201
     0.9256   1.0976   1.1626   1.2490   1.2584   1.5091   1.5249   2.0913
     2.0973   2.2216   2.2299   2.4329   2.4431   2.5059   2.5070   2.5944
     2.8693   2.8837   3.0511   3.2645   3.2676   3.2964   3.3004   3.3626
     3.4631   3.6266   3.6328   3.6702   3.9137   3.9145   3.9855   3.9888
     4.2294   4.2331   4.2622   4.4489   4.4555   4.5129   4.5966   4.8858
     4.9187   4.9267   5.1143   5.2076   5.2098   5.3173   5.3262   5.8763
     5.9364   5.9916   6.0018   6.0741   6.0783   6.1524   6.2009   6.2231
     6.2304   6.2353   6.2694   6.2982   6.3036   6.3112   6.3270   6.3901
     6.5431   6.8063   6.8768   6.9296   6.9385   6.9500   6.9535   7.0836
     7.1325   7.1647   7.1837

          k = 0.2500-0.1443 0.1111 (136898 PWs)   bands (ev):

   -18.9261  -6.8091  -6.5563  -5.7647  -5.4765  -5.4113  -5.4106  -4.8547
    -4.8539  -4.7425  -4.7049  -4.5561  -4.4858  -4.4544  -4.4523  -4.4049
    -4.3349  -4.3342  -4.1971  -4.1548  -4.1547  -4.1367  -4.1339  -4.1321
    -4.0120  -4.0113  -3.9331  -3.9212  -3.9193  -3.9191  -3.8993  -3.8987
    -3.8361  -3.7773  -3.7771  -3.7659  -3.7556  -3.7543  -3.7445  -3.7434
    -3.7367  -3.6891  -3.6881  -3.6783  -3.6775  -3.6677  -3.6667  -3.6387
    -3.6315  -3.6304  -3.6040  -3.5988  -3.5796  -3.5780  -3.5577  -3.5140
    -3.5140  -3.4544  -3.4531  -3.4342  -3.4317  -3.4164  -3.3417  -3.3406
    -3.3350  -3.3315  -3.3185  -3.3160  -3.2936  -3.2928  -3.1443  -3.1393
    -3.1284  -3.1242  -3.1191  -3.0944  -3.0789  -3.0770  -3.0748  -3.0441
    -3.0180  -3.0141  -2.9996  -2.9957  -2.9604  -2.9387  -2.9335  -2.9157
    -2.9076  -2.9053  -2.8626  -2.8616  -2.8433  -2.8393  -2.8367  -2.8334
    -2.8126  -2.8120  -2.7692  -2.7667  -2.7615  -2.7599  -2.7453  -2.6992
    -2.6975  -2.6740  -2.6657  -2.6644  -2.5901  -2.5845  -2.5574  -2.5560
    -2.5491  -2.5398  -2.5172  -2.4920  -2.4903  -2.4738  -2.4691  -2.4677
    -2.4640  -2.4542  -2.4485  -2.4438  -2.4368  -2.4353  -2.4285  -2.4245
    -2.3741  -2.3508  -2.3295  -2.3282  -2.3271  -2.3115  -2.3094  -2.3089
    -2.3071  -2.2972  -2.2661  -2.2655  -2.2533  -2.2494  -2.2375  -2.2355
    -2.2344  -2.2101  -2.2093  -2.1980  -2.1898  -2.1884  -2.1343  -2.1199
    -2.1102  -2.1084  -2.1071  -2.0941  -2.0886  -2.0729  -2.0535  -2.0529
    -2.0497  -2.0476  -2.0406  -2.0328  -2.0264  -2.0117  -2.0005  -1.9968
    -1.9525  -1.9494  -1.9474  -1.9428  -1.9398  -1.9366  -1.9287  -1.9259
    -1.9228  -1.9209  -1.9084  -1.9077  -1.9054  -1.8095  -1.7920  -1.7746
    -1.7629  -1.7591  -1.7447  -1.7354  -1.7331  -1.7261  -1.7224  -1.7149
    -1.7032  -1.7016  -1.7001  -1.6970  -1.6600  -1.6588  -1.6573  -1.6344
    -1.6287  -1.6251  -1.6227  -1.6134  -1.6104  -1.5535  -1.5487  -1.5253
    -1.5237  -1.5158  -1.5113  -1.5014  -1.4878  -1.4851  -1.4824  -1.4814
    -1.4807  -1.4673  -1.4661  -1.4511  -1.4222  -1.4092  -1.3829  -1.3804
    -1.3685  -1.3407  -1.3301  -1.3039  -1.2964  -1.2861  -1.2848  -1.2745
    -1.2729  -1.2572  -1.2412  -1.2357  -1.2041  -1.2028  -1.1958  -1.1858
    -1.1551  -1.1519  -1.1382  -1.1041  -1.0873  -1.0813  -1.0803  -1.0642
    -1.0620  -1.0473  -1.0443  -1.0319  -1.0131  -1.0018  -0.9811  -0.9795
    -0.9758  -0.9375  -0.9305  -0.9273  -0.9222  -0.9186  -0.9126  -0.9117
    -0.8962  -0.8808  -0.8773  -0.8756  -0.8626  -0.8566  -0.8544  -0.8392
    -0.8362  -0.8204  -0.8003  -0.7911  -0.7622  -0.7056  -0.6919  -0.6905
    -0.6885  -0.6864  -0.6829  -0.6781  -0.6545  -0.6455  -0.6325  -0.6282
    -0.6257  -0.6092  -0.6062  -0.5923  -0.5885  -0.5725  -0.5650  -0.4912
    -0.4902  -0.4646  -0.4579  -0.4550  -0.4487  -0.4452  -0.4437  -0.4414
    -0.4380  -0.4326  -0.4019  -0.3803  -0.3740  -0.3576  -0.3530  -0.3484
    -0.3450  -0.3394  -0.3366  -0.3316  -0.3291  -0.3255  -0.3108  -0.3083
    -0.3049  -0.2768  -0.2761  -0.2750  -0.2573  -0.2570  -0.2345  -0.2091
    -0.2082  -0.1990  -0.1974  -0.1311  -0.1309  -0.1139  -0.1136  -0.0510
    -0.0500  -0.0490  -0.0341  -0.0239   0.1859   0.2062   0.5313   0.5317
     0.6026   0.6203   0.7576   0.7888   0.8256   0.9401   0.9475   1.3202
     1.3892   1.3902   1.6227   1.6250   1.6823   1.9803   1.9990   2.0207
     2.0252   2.0550   2.0716   2.2134   2.2192   2.3903   2.3916   2.4041
     2.5394   2.5585   2.5936   2.8053   3.1656   3.1743   3.2069   3.2109
     3.2171   3.2254   3.5461   3.5485   3.8719   3.8880   3.9529   4.2156
     4.3364   4.3485   4.5136   4.5588   4.6323   4.6338   4.7127   4.8702
     4.8743   4.9665   4.9694   5.2568   5.3081   5.3188   5.4759   5.5314
     5.6541   5.6634   5.6654   5.6699   5.7975   5.8106   5.8379   5.8859
     6.2856   6.3930   6.4545   6.4877   6.4928   6.4940   6.4994   6.6588
     6.6958   6.7138   6.7891   6.7946   7.0293   7.0495   7.0797   7.2140
     7.3387   7.3653   7.3799

          k =-0.2500-0.4330 0.1111 (136853 PWs)   bands (ev):

   -18.9261  -6.8077  -6.3481  -5.9493  -5.9482  -5.2730  -4.9255  -4.9253
    -4.8999  -4.8976  -4.4779  -4.4773  -4.3958  -4.3573  -4.3521  -4.3515
    -4.3114  -4.1938  -4.1929  -4.1484  -4.1025  -4.1020  -4.1010  -4.0998
    -4.0516  -4.0505  -4.0221  -4.0215  -4.0010  -3.9868  -3.9822  -3.9044
    -3.9037  -3.8858  -3.8851  -3.8425  -3.8412  -3.8409  -3.8198  -3.8196
    -3.8165  -3.7430  -3.7423  -3.6808  -3.6797  -3.6674  -3.6649  -3.6057
    -3.6019  -3.5724  -3.5723  -3.5345  -3.5252  -3.5222  -3.5028  -3.5002
    -3.4985  -3.4972  -3.4910  -3.4714  -3.4149  -3.4077  -3.4059  -3.3840
    -3.3500  -3.3226  -3.3213  -3.2693  -3.2667  -3.2457  -3.2409  -3.2125
    -3.1899  -3.1613  -3.1504  -3.1145  -3.1131  -3.0835  -3.0741  -3.0725
    -3.0485  -3.0253  -2.9988  -2.9956  -2.9779  -2.9764  -2.9719  -2.9710
    -2.9697  -2.9663  -2.9550  -2.9062  -2.8488  -2.8478  -2.8472  -2.8463
    -2.8413  -2.8214  -2.8205  -2.8010  -2.7264  -2.7255  -2.7244  -2.7188
    -2.6696  -2.6637  -2.6635  -2.6440  -2.6430  -2.5907  -2.5767  -2.5728
    -2.5708  -2.5310  -2.5292  -2.5276  -2.4880  -2.4871  -2.4348  -2.4095
    -2.4076  -2.4051  -2.4030  -2.3826  -2.3819  -2.3776  -2.3708  -2.3703
    -2.3346  -2.3018  -2.2995  -2.2933  -2.2915  -2.2903  -2.2896  -2.2889
    -2.2880  -2.2781  -2.2535  -2.2527  -2.2523  -2.2510  -2.2491  -2.2361
    -2.2333  -2.2313  -2.2057  -2.2034  -2.2015  -2.1805  -2.1781  -2.1613
    -2.1602  -2.1370  -2.1337  -2.1325  -2.1317  -2.1283  -2.1242  -2.1238
    -2.1230  -2.1096  -2.1084  -2.0954  -2.0889  -2.0882  -2.0075  -2.0067
    -1.9916  -1.9913  -1.9773  -1.9719  -1.9530  -1.9404  -1.9395  -1.9211
    -1.9060  -1.9020  -1.8988  -1.8914  -1.8704  -1.8659  -1.8607  -1.8604
    -1.8566  -1.8457  -1.8188  -1.7909  -1.7721  -1.7657  -1.7552  -1.7433
    -1.7411  -1.6810  -1.6802  -1.6700  -1.6665  -1.6011  -1.5999  -1.5588
    -1.5471  -1.5390  -1.5114  -1.5062  -1.4899  -1.4786  -1.4722  -1.4590
    -1.4575  -1.4554  -1.4399  -1.4354  -1.4024  -1.3993  -1.3977  -1.3929
    -1.3906  -1.3693  -1.3611  -1.3598  -1.3268  -1.3240  -1.3137  -1.3099
    -1.3077  -1.3041  -1.2835  -1.2663  -1.2561  -1.2557  -1.2519  -1.2476
    -1.2344  -1.1897  -1.1857  -1.1737  -1.1699  -1.1583  -1.1495  -1.1141
    -1.0695  -1.0619  -1.0202  -1.0163  -1.0157  -1.0129  -1.0110  -1.0071
    -0.9993  -0.9958  -0.9639  -0.9452  -0.9405  -0.9290  -0.9218  -0.9105
    -0.8992  -0.8950  -0.8861  -0.8843  -0.8831  -0.8821  -0.8756  -0.8384
    -0.8298  -0.8248  -0.8239  -0.8166  -0.8099  -0.8001  -0.7737  -0.7692
    -0.7549  -0.7353  -0.7220  -0.7072  -0.6808  -0.6716  -0.6647  -0.6641
    -0.6564  -0.6544  -0.6481  -0.6466  -0.6430  -0.6283  -0.6148  -0.6109
    -0.6037  -0.6032  -0.5905  -0.5795  -0.5611  -0.5606  -0.5542  -0.5325
    -0.5262  -0.5142  -0.5113  -0.4631  -0.4610  -0.4600  -0.4552  -0.4492
    -0.4471  -0.4372  -0.4266  -0.4245  -0.4137  -0.4123  -0.4104  -0.4007
    -0.3693  -0.3670  -0.3666  -0.3598  -0.3593  -0.3529  -0.3505  -0.3412
    -0.3332  -0.3314  -0.3164  -0.2994  -0.2974  -0.2914  -0.2768  -0.2750
    -0.2251  -0.2213  -0.1952  -0.1946  -0.1863  -0.1842  -0.1529  -0.1433
    -0.1431  -0.1241  -0.1237  -0.0995  -0.0441  -0.0329   0.0711   0.4686
     0.4705   0.4951   0.4954   0.5564   0.5715   0.9041   0.9083   0.9201
     0.9256   1.0976   1.1626   1.2490   1.2584   1.5091   1.5249   2.0913
     2.0973   2.2216   2.2299   2.4329   2.4431   2.5059   2.5070   2.5944
     2.8693   2.8837   3.0511   3.2645   3.2676   3.2964   3.3004   3.3626
     3.4631   3.6266   3.6328   3.6702   3.9137   3.9145   3.9855   3.9888
     4.2294   4.2331   4.2622   4.4489   4.4555   4.5129   4.5966   4.8858
     4.9187   4.9267   5.1143   5.2076   5.2098   5.3173   5.3262   5.8764
     5.9364   5.9916   6.0018   6.0741   6.0783   6.1525   6.2005   6.2226
     6.2304   6.2353   6.2695   6.2982   6.3036   6.3112   6.3268   6.3898
     6.5478   6.8038   6.8783   6.9247   6.9386   6.9498   6.9528   7.0829
     7.1240   7.1702   7.1832

          k =-0.2500 0.4330-0.1111 (136853 PWs)   bands (ev):

   -18.9261  -6.8076  -6.3482  -5.9502  -5.9473  -5.2731  -4.9264  -4.9242
    -4.9004  -4.8972  -4.4783  -4.4769  -4.3959  -4.3572  -4.3522  -4.3513
    -4.3113  -4.1949  -4.1921  -4.1485  -4.1026  -4.1020  -4.1009  -4.0995
    -4.0519  -4.0506  -4.0238  -4.0201  -4.0009  -3.9870  -3.9818  -3.9049
    -3.9028  -3.8858  -3.8849  -3.8438  -3.8412  -3.8399  -3.8202  -3.8195
    -3.8164  -3.7433  -3.7421  -3.6815  -3.6788  -3.6670  -3.6654  -3.6051
    -3.6023  -3.5725  -3.5721  -3.5348  -3.5255  -3.5220  -3.5032  -3.4997
    -3.4994  -3.4966  -3.4912  -3.4716  -3.4159  -3.4074  -3.4055  -3.3836
    -3.3495  -3.3240  -3.3214  -3.2708  -3.2661  -3.2444  -3.2401  -3.2123
    -3.1887  -3.1596  -3.1510  -3.1149  -3.1129  -3.0846  -3.0739  -3.0729
    -3.0487  -3.0260  -2.9992  -2.9964  -2.9788  -2.9770  -2.9725  -2.9698
    -2.9692  -2.9648  -2.9551  -2.9061  -2.8488  -2.8478  -2.8470  -2.8459
    -2.8411  -2.8222  -2.8197  -2.8011  -2.7273  -2.7251  -2.7241  -2.7186
    -2.6695  -2.6646  -2.6627  -2.6457  -2.6420  -2.5907  -2.5757  -2.5737
    -2.5703  -2.5304  -2.5289  -2.5281  -2.4889  -2.4865  -2.4348  -2.4096
    -2.4079  -2.4061  -2.4029  -2.3829  -2.3809  -2.3774  -2.3713  -2.3700
    -2.3349  -2.3014  -2.2993  -2.2924  -2.2913  -2.2907  -2.2894  -2.2890
    -2.2884  -2.2766  -2.2543  -2.2526  -2.2517  -2.2514  -2.2489  -2.2360
    -2.2335  -2.2309  -2.2057  -2.2033  -2.2010  -2.1806  -2.1798  -2.1619
    -2.1604  -2.1378  -2.1359  -2.1318  -2.1314  -2.1286  -2.1244  -2.1231
    -2.1220  -2.1100  -2.1078  -2.0956  -2.0894  -2.0880  -2.0085  -2.0058
    -1.9924  -1.9906  -1.9733  -1.9729  -1.9556  -1.9432  -1.9394  -1.9213
    -1.9071  -1.9028  -1.8989  -1.8907  -1.8697  -1.8662  -1.8622  -1.8608
    -1.8548  -1.8456  -1.8187  -1.7876  -1.7703  -1.7663  -1.7529  -1.7447
    -1.7409  -1.6815  -1.6796  -1.6697  -1.6671  -1.6015  -1.5991  -1.5611
    -1.5447  -1.5396  -1.5151  -1.5069  -1.4857  -1.4780  -1.4728  -1.4595
    -1.4575  -1.4547  -1.4406  -1.4356  -1.4009  -1.3988  -1.3974  -1.3949
    -1.3899  -1.3691  -1.3612  -1.3597  -1.3301  -1.3209  -1.3139  -1.3099
    -1.3082  -1.3042  -1.2836  -1.2695  -1.2578  -1.2544  -1.2513  -1.2465
    -1.2354  -1.1892  -1.1816  -1.1733  -1.1698  -1.1561  -1.1493  -1.1108
    -1.0705  -1.0656  -1.0197  -1.0171  -1.0158  -1.0115  -1.0099  -1.0078
    -1.0034  -0.9947  -0.9603  -0.9467  -0.9419  -0.9279  -0.9257  -0.9125
    -0.8988  -0.8941  -0.8860  -0.8845  -0.8827  -0.8819  -0.8722  -0.8397
    -0.8297  -0.8253  -0.8233  -0.8165  -0.8101  -0.8060  -0.7741  -0.7684
    -0.7529  -0.7356  -0.7220  -0.7041  -0.6806  -0.6720  -0.6655  -0.6636
    -0.6571  -0.6527  -0.6491  -0.6458  -0.6433  -0.6264  -0.6151  -0.6131
    -0.6052  -0.5996  -0.5911  -0.5791  -0.5623  -0.5608  -0.5548  -0.5323
    -0.5269  -0.5137  -0.5012  -0.4630  -0.4606  -0.4592  -0.4557  -0.4503
    -0.4471  -0.4395  -0.4278  -0.4212  -0.4136  -0.4122  -0.4108  -0.4023
    -0.3692  -0.3684  -0.3645  -0.3604  -0.3582  -0.3523  -0.3504  -0.3391
    -0.3327  -0.3314  -0.3200  -0.2991  -0.2982  -0.2916  -0.2770  -0.2753
    -0.2260  -0.2202  -0.1953  -0.1941  -0.1865  -0.1852  -0.1532  -0.1440
    -0.1425  -0.1252  -0.1238  -0.0961  -0.0466  -0.0378   0.0684   0.4687
     0.4706   0.4948   0.4961   0.5549   0.5716   0.9046   0.9098   0.9201
     0.9248   1.0993   1.1620   1.2453   1.2619   1.5047   1.5281   2.0903
     2.0996   2.2181   2.2335   2.4283   2.4459   2.5056   2.5071   2.5947
     2.8672   2.8884   3.0512   3.2582   3.2725   3.2967   3.3020   3.3656
     3.4631   3.6149   3.6428   3.6717   3.9123   3.9155   3.9810   3.9923
     4.2232   4.2396   4.2629   4.4462   4.4560   4.5133   4.5970   4.8854
     4.9196   4.9268   5.1097   5.2071   5.2101   5.3004   5.3400   5.8865
     5.9349   5.9899   6.0042   6.0715   6.0798   6.1521   6.2030   6.2189
     6.2325   6.2416   6.2695   6.2933   6.3049   6.3080   6.3382   6.3763
     6.5496   6.8020   6.8825   6.9219   6.9320   6.9467   6.9558   7.0860
     7.1294   7.1584   7.1947

          k = 0.2500-0.4330-0.1111 (136853 PWs)   bands (ev):

   -18.9261  -6.8076  -6.3482  -5.9502  -5.9473  -5.2731  -4.9264  -4.9242
    -4.9004  -4.8972  -4.4783  -4.4769  -4.3959  -4.3572  -4.3522  -4.3513
    -4.3113  -4.1949  -4.1921  -4.1485  -4.1026  -4.1020  -4.1009  -4.0995
    -4.0519  -4.0506  -4.0238  -4.0201  -4.0009  -3.9870  -3.9818  -3.9049
    -3.9028  -3.8858  -3.8849  -3.8438  -3.8412  -3.8399  -3.8202  -3.8195
    -3.8164  -3.7433  -3.7421  -3.6815  -3.6788  -3.6670  -3.6654  -3.6051
    -3.6023  -3.5725  -3.5721  -3.5348  -3.5255  -3.5220  -3.5032  -3.4997
    -3.4994  -3.4966  -3.4912  -3.4716  -3.4159  -3.4074  -3.4055  -3.3836
    -3.3495  -3.3240  -3.3214  -3.2708  -3.2661  -3.2444  -3.2401  -3.2123
    -3.1887  -3.1596  -3.1510  -3.1149  -3.1129  -3.0846  -3.0739  -3.0729
    -3.0487  -3.0260  -2.9992  -2.9964  -2.9788  -2.9770  -2.9725  -2.9698
    -2.9692  -2.9648  -2.9551  -2.9061  -2.8488  -2.8478  -2.8470  -2.8459
    -2.8411  -2.8222  -2.8197  -2.8011  -2.7273  -2.7251  -2.7241  -2.7186
    -2.6695  -2.6646  -2.6627  -2.6457  -2.6420  -2.5907  -2.5757  -2.5737
    -2.5703  -2.5304  -2.5289  -2.5281  -2.4889  -2.4865  -2.4348  -2.4096
    -2.4079  -2.4061  -2.4029  -2.3829  -2.3809  -2.3774  -2.3713  -2.3700
    -2.3349  -2.3014  -2.2993  -2.2924  -2.2913  -2.2907  -2.2894  -2.2890
    -2.2884  -2.2766  -2.2543  -2.2526  -2.2517  -2.2514  -2.2489  -2.2360
    -2.2335  -2.2309  -2.2057  -2.2033  -2.2010  -2.1806  -2.1798  -2.1619
    -2.1604  -2.1378  -2.1359  -2.1318  -2.1314  -2.1286  -2.1244  -2.1231
    -2.1220  -2.1100  -2.1078  -2.0956  -2.0894  -2.0880  -2.0085  -2.0058
    -1.9924  -1.9906  -1.9733  -1.9729  -1.9556  -1.9432  -1.9394  -1.9213
    -1.9071  -1.9029  -1.8989  -1.8907  -1.8697  -1.8662  -1.8622  -1.8608
    -1.8548  -1.8456  -1.8187  -1.7876  -1.7703  -1.7663  -1.7529  -1.7447
    -1.7409  -1.6815  -1.6796  -1.6697  -1.6671  -1.6015  -1.5991  -1.5611
    -1.5447  -1.5396  -1.5151  -1.5069  -1.4857  -1.4780  -1.4728  -1.4595
    -1.4575  -1.4547  -1.4406  -1.4356  -1.4009  -1.3988  -1.3974  -1.3949
    -1.3899  -1.3691  -1.3612  -1.3597  -1.3301  -1.3209  -1.3139  -1.3099
    -1.3082  -1.3042  -1.2836  -1.2695  -1.2578  -1.2544  -1.2513  -1.2465
    -1.2354  -1.1892  -1.1816  -1.1733  -1.1698  -1.1561  -1.1493  -1.1108
    -1.0705  -1.0656  -1.0197  -1.0171  -1.0158  -1.0115  -1.0099  -1.0078
    -1.0034  -0.9947  -0.9603  -0.9467  -0.9419  -0.9279  -0.9257  -0.9125
    -0.8988  -0.8941  -0.8860  -0.8845  -0.8827  -0.8819  -0.8722  -0.8397
    -0.8297  -0.8253  -0.8233  -0.8165  -0.8101  -0.8060  -0.7741  -0.7684
    -0.7529  -0.7356  -0.7220  -0.7041  -0.6806  -0.6720  -0.6655  -0.6636
    -0.6571  -0.6527  -0.6491  -0.6458  -0.6433  -0.6264  -0.6151  -0.6131
    -0.6052  -0.5996  -0.5911  -0.5791  -0.5623  -0.5608  -0.5548  -0.5323
    -0.5269  -0.5137  -0.5012  -0.4630  -0.4606  -0.4592  -0.4557  -0.4503
    -0.4471  -0.4395  -0.4278  -0.4212  -0.4136  -0.4122  -0.4108  -0.4023
    -0.3692  -0.3684  -0.3645  -0.3604  -0.3582  -0.3523  -0.3504  -0.3391
    -0.3327  -0.3314  -0.3200  -0.2991  -0.2982  -0.2916  -0.2770  -0.2753
    -0.2260  -0.2202  -0.1953  -0.1941  -0.1865  -0.1852  -0.1532  -0.1440
    -0.1425  -0.1252  -0.1238  -0.0961  -0.0466  -0.0378   0.0684   0.4687
     0.4706   0.4948   0.4961   0.5549   0.5716   0.9046   0.9098   0.9201
     0.9248   1.0993   1.1620   1.2453   1.2619   1.5047   1.5281   2.0903
     2.0996   2.2181   2.2335   2.4283   2.4459   2.5056   2.5071   2.5947
     2.8672   2.8884   3.0512   3.2582   3.2725   3.2967   3.3020   3.3656
     3.4631   3.6149   3.6428   3.6717   3.9123   3.9155   3.9810   3.9923
     4.2232   4.2396   4.2629   4.4462   4.4560   4.5133   4.5970   4.8854
     4.9196   4.9268   5.1097   5.2071   5.2101   5.3004   5.3400   5.8866
     5.9350   5.9899   6.0042   6.0715   6.0798   6.1521   6.2027   6.2188
     6.2326   6.2417   6.2692   6.2936   6.3050   6.3081   6.3384   6.3767
     6.5469   6.8084   6.8816   6.9203   6.9263   6.9497   6.9585   7.0871
     7.1294   7.1635   7.1943

          k = 0.5000 0.0000 0.1111 (136853 PWs)   bands (ev):

   -18.9261  -6.8077  -6.3480  -5.9508  -5.9468  -5.2729  -4.9258  -4.9252
    -4.9022  -4.8955  -4.4784  -4.4764  -4.3958  -4.3571  -4.3518  -4.3512
    -4.3113  -4.1951  -4.1925  -4.1490  -4.1025  -4.1020  -4.1018  -4.0996
    -4.0519  -4.0502  -4.0225  -4.0215  -4.0009  -3.9877  -3.9811  -3.9050
    -3.9030  -3.8855  -3.8849  -3.8425  -3.8412  -3.8407  -3.8200  -3.8196
    -3.8165  -3.7429  -3.7424  -3.6814  -3.6789  -3.6656  -3.6654  -3.6038
    -3.6018  -3.5725  -3.5722  -3.5350  -3.5242  -3.5222  -3.5065  -3.5002
    -3.4991  -3.4973  -3.4913  -3.4715  -3.4187  -3.4068  -3.4058  -3.3830
    -3.3495  -3.3250  -3.3215  -3.2736  -3.2652  -3.2422  -3.2402  -3.2123
    -3.1862  -3.1551  -3.1513  -3.1171  -3.1128  -3.0833  -3.0751  -3.0720
    -3.0474  -3.0289  -3.0013  -2.9955  -2.9788  -2.9775  -2.9719  -2.9701
    -2.9686  -2.9636  -2.9556  -2.9072  -2.8496  -2.8474  -2.8467  -2.8456
    -2.8407  -2.8216  -2.8195  -2.8012  -2.7272  -2.7255  -2.7231  -2.7189
    -2.6696  -2.6643  -2.6629  -2.6463  -2.6404  -2.5907  -2.5761  -2.5736
    -2.5707  -2.5310  -2.5290  -2.5277  -2.4883  -2.4870  -2.4346  -2.4097
    -2.4081  -2.4056  -2.4037  -2.3832  -2.3800  -2.3774  -2.3714  -2.3696
    -2.3352  -2.3017  -2.2992  -2.2937  -2.2917  -2.2902  -2.2897  -2.2886
    -2.2880  -2.2769  -2.2549  -2.2530  -2.2521  -2.2514  -2.2490  -2.2362
    -2.2334  -2.2310  -2.2056  -2.2036  -2.2015  -2.1806  -2.1795  -2.1634
    -2.1590  -2.1396  -2.1336  -2.1325  -2.1305  -2.1277  -2.1246  -2.1230
    -2.1224  -2.1096  -2.1080  -2.0962  -2.0902  -2.0876  -2.0074  -2.0066
    -1.9923  -1.9907  -1.9748  -1.9722  -1.9555  -1.9427  -1.9393  -1.9213
    -1.9089  -1.9009  -1.8980  -1.8913  -1.8699  -1.8645  -1.8616  -1.8596
    -1.8545  -1.8454  -1.8184  -1.7886  -1.7720  -1.7669  -1.7530  -1.7450
    -1.7410  -1.6819  -1.6794  -1.6697  -1.6682  -1.6019  -1.5989  -1.5616
    -1.5460  -1.5368  -1.5141  -1.5064  -1.4876  -1.4776  -1.4714  -1.4593
    -1.4572  -1.4549  -1.4403  -1.4352  -1.4010  -1.4004  -1.3988  -1.3937
    -1.3895  -1.3682  -1.3615  -1.3612  -1.3321  -1.3195  -1.3151  -1.3102
    -1.3079  -1.3051  -1.2833  -1.2683  -1.2567  -1.2552  -1.2519  -1.2456
    -1.2333  -1.1895  -1.1812  -1.1756  -1.1696  -1.1576  -1.1501  -1.1126
    -1.0692  -1.0631  -1.0204  -1.0168  -1.0160  -1.0124  -1.0082  -1.0073
    -1.0012  -0.9969  -0.9619  -0.9470  -0.9418  -0.9302  -0.9226  -0.9102
    -0.8988  -0.8960  -0.8892  -0.8841  -0.8825  -0.8811  -0.8709  -0.8388
    -0.8314  -0.8246  -0.8238  -0.8173  -0.8102  -0.7979  -0.7736  -0.7688
    -0.7579  -0.7387  -0.7224  -0.7040  -0.6809  -0.6723  -0.6654  -0.6633
    -0.6562  -0.6531  -0.6483  -0.6453  -0.6433  -0.6259  -0.6145  -0.6123
    -0.6040  -0.6015  -0.5910  -0.5789  -0.5623  -0.5602  -0.5551  -0.5315
    -0.5264  -0.5140  -0.5046  -0.4626  -0.4610  -0.4591  -0.4555  -0.4491
    -0.4475  -0.4408  -0.4278  -0.4226  -0.4140  -0.4125  -0.4100  -0.4014
    -0.3689  -0.3675  -0.3662  -0.3603  -0.3583  -0.3527  -0.3509  -0.3390
    -0.3326  -0.3311  -0.3209  -0.3003  -0.2967  -0.2915  -0.2763  -0.2751
    -0.2255  -0.2208  -0.1950  -0.1944  -0.1863  -0.1854  -0.1531  -0.1436
    -0.1427  -0.1240  -0.1237  -0.0996  -0.0450  -0.0342   0.0703   0.4685
     0.4709   0.4949   0.4957   0.5558   0.5708   0.9062   0.9084   0.9193
     0.9243   1.0990   1.1625   1.2462   1.2617   1.5038   1.5292   2.0913
     2.0981   2.2194   2.2318   2.4282   2.4466   2.5056   2.5072   2.5944
     2.8711   2.8844   3.0512   3.2585   3.2726   3.2977   3.3012   3.3634
     3.4631   3.6094   3.6471   3.6713   3.9121   3.9159   3.9815   3.9939
     4.2246   4.2376   4.2619   4.4468   4.4555   4.5135   4.5970   4.8841
     4.9193   4.9272   5.1108   5.2068   5.2105   5.2939   5.3472   5.8965
     5.9342   5.9930   6.0051   6.0729   6.0788   6.1525   6.1993   6.2168
     6.2309   6.2415   6.2577   6.2835   6.3034   6.3102   6.3328   6.4001
     6.5414   6.7991   6.8812   6.9258   6.9368   6.9468   6.9587   7.0863
     7.1279   7.1698   7.1863

          k =-0.5000 0.0000 0.1111 (136853 PWs)   bands (ev):

   -18.9261  -6.8077  -6.3480  -5.9508  -5.9468  -5.2729  -4.9258  -4.9252
    -4.9022  -4.8955  -4.4784  -4.4764  -4.3958  -4.3571  -4.3518  -4.3512
    -4.3113  -4.1951  -4.1925  -4.1490  -4.1025  -4.1020  -4.1018  -4.0996
    -4.0519  -4.0502  -4.0225  -4.0215  -4.0009  -3.9877  -3.9811  -3.9050
    -3.9030  -3.8855  -3.8849  -3.8425  -3.8412  -3.8407  -3.8200  -3.8196
    -3.8165  -3.7429  -3.7424  -3.6814  -3.6789  -3.6656  -3.6654  -3.6038
    -3.6018  -3.5725  -3.5722  -3.5350  -3.5242  -3.5222  -3.5065  -3.5002
    -3.4991  -3.4973  -3.4913  -3.4715  -3.4187  -3.4068  -3.4058  -3.3830
    -3.3495  -3.3250  -3.3215  -3.2736  -3.2652  -3.2422  -3.2402  -3.2123
    -3.1862  -3.1551  -3.1513  -3.1171  -3.1128  -3.0833  -3.0751  -3.0720
    -3.0474  -3.0289  -3.0013  -2.9955  -2.9788  -2.9775  -2.9719  -2.9701
    -2.9686  -2.9636  -2.9556  -2.9072  -2.8496  -2.8474  -2.8467  -2.8456
    -2.8407  -2.8216  -2.8195  -2.8012  -2.7272  -2.7255  -2.7231  -2.7189
    -2.6696  -2.6643  -2.6629  -2.6463  -2.6404  -2.5907  -2.5761  -2.5736
    -2.5707  -2.5310  -2.5290  -2.5277  -2.4883  -2.4870  -2.4346  -2.4097
    -2.4081  -2.4056  -2.4037  -2.3832  -2.3800  -2.3774  -2.3714  -2.3696
    -2.3352  -2.3017  -2.2992  -2.2937  -2.2917  -2.2902  -2.2897  -2.2886
    -2.2880  -2.2769  -2.2549  -2.2530  -2.2521  -2.2514  -2.2490  -2.2362
    -2.2334  -2.2310  -2.2056  -2.2036  -2.2015  -2.1806  -2.1795  -2.1634
    -2.1590  -2.1396  -2.1336  -2.1325  -2.1305  -2.1277  -2.1246  -2.1230
    -2.1224  -2.1096  -2.1080  -2.0962  -2.0902  -2.0876  -2.0074  -2.0066
    -1.9923  -1.9907  -1.9748  -1.9722  -1.9555  -1.9427  -1.9393  -1.9213
    -1.9089  -1.9009  -1.8980  -1.8913  -1.8699  -1.8645  -1.8616  -1.8596
    -1.8545  -1.8454  -1.8184  -1.7886  -1.7720  -1.7669  -1.7530  -1.7450
    -1.7410  -1.6819  -1.6794  -1.6697  -1.6682  -1.6019  -1.5989  -1.5616
    -1.5460  -1.5368  -1.5141  -1.5064  -1.4876  -1.4776  -1.4714  -1.4593
    -1.4572  -1.4549  -1.4403  -1.4352  -1.4010  -1.4004  -1.3988  -1.3937
    -1.3895  -1.3682  -1.3615  -1.3612  -1.3321  -1.3195  -1.3151  -1.3102
    -1.3079  -1.3051  -1.2833  -1.2683  -1.2567  -1.2552  -1.2519  -1.2456
    -1.2333  -1.1895  -1.1812  -1.1756  -1.1696  -1.1576  -1.1501  -1.1126
    -1.0692  -1.0631  -1.0204  -1.0168  -1.0160  -1.0124  -1.0082  -1.0073
    -1.0012  -0.9969  -0.9619  -0.9470  -0.9418  -0.9302  -0.9226  -0.9102
    -0.8988  -0.8960  -0.8892  -0.8841  -0.8825  -0.8811  -0.8709  -0.8388
    -0.8314  -0.8246  -0.8238  -0.8173  -0.8102  -0.7979  -0.7736  -0.7688
    -0.7579  -0.7387  -0.7224  -0.7040  -0.6809  -0.6723  -0.6654  -0.6633
    -0.6562  -0.6531  -0.6483  -0.6453  -0.6433  -0.6259  -0.6145  -0.6123
    -0.6040  -0.6015  -0.5910  -0.5789  -0.5623  -0.5602  -0.5551  -0.5315
    -0.5264  -0.5140  -0.5046  -0.4626  -0.4610  -0.4591  -0.4555  -0.4491
    -0.4475  -0.4408  -0.4278  -0.4226  -0.4140  -0.4125  -0.4100  -0.4014
    -0.3689  -0.3675  -0.3662  -0.3603  -0.3583  -0.3527  -0.3509  -0.3390
    -0.3326  -0.3311  -0.3209  -0.3003  -0.2967  -0.2915  -0.2763  -0.2751
    -0.2255  -0.2208  -0.1950  -0.1944  -0.1863  -0.1854  -0.1531  -0.1436
    -0.1427  -0.1240  -0.1237  -0.0996  -0.0450  -0.0342   0.0703   0.4685
     0.4709   0.4949   0.4957   0.5558   0.5708   0.9062   0.9084   0.9193
     0.9243   1.0990   1.1625   1.2462   1.2617   1.5038   1.5292   2.0913
     2.0981   2.2194   2.2318   2.4282   2.4466   2.5056   2.5072   2.5944
     2.8711   2.8844   3.0512   3.2585   3.2726   3.2977   3.3012   3.3634
     3.4631   3.6094   3.6471   3.6713   3.9121   3.9159   3.9815   3.9939
     4.2246   4.2376   4.2619   4.4468   4.4555   4.5135   4.5970   4.8841
     4.9193   4.9272   5.1108   5.2068   5.2105   5.2939   5.3472   5.8967
     5.9342   5.9930   6.0051   6.0728   6.0788   6.1525   6.1983   6.2169
     6.2309   6.2415   6.2575   6.2836   6.3035   6.3102   6.3327   6.4003
     6.5426   6.8049   6.8816   6.9203   6.9301   6.9494   6.9597   7.0860
     7.1183   7.1691   7.1853

          k =-0.2500 0.1443 0.1111 (136898 PWs)   bands (ev):

   -18.9261  -6.8091  -6.5563  -5.7647  -5.4765  -5.4113  -5.4106  -4.8547
    -4.8539  -4.7425  -4.7049  -4.5561  -4.4858  -4.4544  -4.4523  -4.4049
    -4.3349  -4.3342  -4.1971  -4.1548  -4.1547  -4.1367  -4.1339  -4.1321
    -4.0120  -4.0113  -3.9331  -3.9212  -3.9193  -3.9191  -3.8994  -3.8987
    -3.8361  -3.7773  -3.7771  -3.7659  -3.7556  -3.7543  -3.7445  -3.7434
    -3.7367  -3.6891  -3.6881  -3.6783  -3.6775  -3.6677  -3.6667  -3.6387
    -3.6315  -3.6304  -3.6040  -3.5988  -3.5796  -3.5780  -3.5577  -3.5140
    -3.5140  -3.4544  -3.4531  -3.4342  -3.4317  -3.4164  -3.3417  -3.3406
    -3.3350  -3.3315  -3.3185  -3.3160  -3.2936  -3.2928  -3.1443  -3.1393
    -3.1284  -3.1242  -3.1191  -3.0944  -3.0789  -3.0770  -3.0748  -3.0441
    -3.0180  -3.0141  -2.9996  -2.9957  -2.9604  -2.9387  -2.9335  -2.9157
    -2.9076  -2.9053  -2.8626  -2.8616  -2.8433  -2.8393  -2.8367  -2.8334
    -2.8126  -2.8120  -2.7692  -2.7667  -2.7615  -2.7599  -2.7453  -2.6992
    -2.6975  -2.6740  -2.6657  -2.6644  -2.5901  -2.5845  -2.5574  -2.5560
    -2.5491  -2.5399  -2.5172  -2.4920  -2.4903  -2.4738  -2.4691  -2.4677
    -2.4640  -2.4542  -2.4485  -2.4438  -2.4368  -2.4353  -2.4285  -2.4245
    -2.3741  -2.3508  -2.3295  -2.3282  -2.3271  -2.3115  -2.3094  -2.3089
    -2.3071  -2.2972  -2.2661  -2.2655  -2.2533  -2.2494  -2.2375  -2.2355
    -2.2344  -2.2101  -2.2093  -2.1980  -2.1898  -2.1884  -2.1343  -2.1198
    -2.1102  -2.1084  -2.1071  -2.0941  -2.0886  -2.0729  -2.0535  -2.0529
    -2.0497  -2.0476  -2.0406  -2.0328  -2.0264  -2.0117  -2.0005  -1.9968
    -1.9525  -1.9494  -1.9474  -1.9428  -1.9398  -1.9366  -1.9287  -1.9259
    -1.9228  -1.9209  -1.9084  -1.9077  -1.9054  -1.8095  -1.7920  -1.7746
    -1.7629  -1.7591  -1.7447  -1.7354  -1.7331  -1.7261  -1.7224  -1.7149
    -1.7032  -1.7016  -1.7001  -1.6970  -1.6600  -1.6588  -1.6573  -1.6344
    -1.6286  -1.6251  -1.6227  -1.6134  -1.6104  -1.5535  -1.5487  -1.5253
    -1.5237  -1.5158  -1.5113  -1.5014  -1.4878  -1.4851  -1.4824  -1.4814
    -1.4807  -1.4673  -1.4661  -1.4510  -1.4222  -1.4092  -1.3829  -1.3804
    -1.3685  -1.3407  -1.3301  -1.3039  -1.2964  -1.2861  -1.2848  -1.2745
    -1.2729  -1.2572  -1.2412  -1.2357  -1.2041  -1.2028  -1.1958  -1.1858
    -1.1551  -1.1519  -1.1382  -1.1041  -1.0873  -1.0813  -1.0803  -1.0642
    -1.0620  -1.0473  -1.0443  -1.0319  -1.0131  -1.0018  -0.9811  -0.9795
    -0.9758  -0.9375  -0.9305  -0.9273  -0.9222  -0.9186  -0.9126  -0.9117
    -0.8962  -0.8808  -0.8773  -0.8756  -0.8626  -0.8566  -0.8544  -0.8392
    -0.8362  -0.8204  -0.8003  -0.7911  -0.7622  -0.7055  -0.6919  -0.6905
    -0.6885  -0.6864  -0.6829  -0.6781  -0.6545  -0.6455  -0.6325  -0.6282
    -0.6257  -0.6092  -0.6062  -0.5923  -0.5885  -0.5725  -0.5650  -0.4912
    -0.4902  -0.4646  -0.4579  -0.4550  -0.4487  -0.4452  -0.4437  -0.4414
    -0.4380  -0.4326  -0.4019  -0.3803  -0.3740  -0.3576  -0.3531  -0.3484
    -0.3450  -0.3394  -0.3366  -0.3316  -0.3291  -0.3255  -0.3108  -0.3083
    -0.3049  -0.2768  -0.2761  -0.2750  -0.2573  -0.2570  -0.2345  -0.2091
    -0.2082  -0.1990  -0.1974  -0.1311  -0.1309  -0.1139  -0.1136  -0.0510
    -0.0500  -0.0490  -0.0341  -0.0239   0.1859   0.2062   0.5313   0.5317
     0.6026   0.6203   0.7576   0.7888   0.8256   0.9401   0.9475   1.3202
     1.3892   1.3902   1.6227   1.6250   1.6823   1.9803   1.9990   2.0207
     2.0252   2.0550   2.0716   2.2134   2.2192   2.3903   2.3916   2.4041
     2.5394   2.5585   2.5936   2.8053   3.1655   3.1743   3.2069   3.2109
     3.2171   3.2254   3.5461   3.5485   3.8719   3.8880   3.9529   4.2156
     4.3364   4.3485   4.5136   4.5588   4.6323   4.6338   4.7127   4.8702
     4.8743   4.9665   4.9694   5.2568   5.3081   5.3188   5.4759   5.5314
     5.6541   5.6634   5.6654   5.6699   5.7975   5.8106   5.8381   5.8858
     6.2830   6.3926   6.4594   6.4867   6.4918   6.4938   6.5001   6.6598
     6.6960   6.7137   6.7736   6.8108   7.0270   7.0587   7.0807   7.2126
     7.3296   7.3667   7.3792

          k =-0.2500-0.1443-0.1111 (136898 PWs)   bands (ev):

   -18.9261  -6.8092  -6.5562  -5.7646  -5.4764  -5.4116  -5.4105  -4.8547
    -4.8539  -4.7424  -4.7048  -4.5561  -4.4859  -4.4548  -4.4521  -4.4050
    -4.3348  -4.3342  -4.1971  -4.1553  -4.1542  -4.1366  -4.1341  -4.1320
    -4.0117  -4.0112  -3.9332  -3.9210  -3.9197  -3.9190  -3.8994  -3.8986
    -3.8366  -3.7779  -3.7768  -3.7660  -3.7558  -3.7544  -3.7442  -3.7433
    -3.7366  -3.6890  -3.6882  -3.6781  -3.6775  -3.6677  -3.6667  -3.6391
    -3.6313  -3.6304  -3.6032  -3.5990  -3.5794  -3.5776  -3.5579  -3.5141
    -3.5139  -3.4543  -3.4531  -3.4341  -3.4316  -3.4165  -3.3419  -3.3409
    -3.3347  -3.3315  -3.3188  -3.3159  -3.2936  -3.2928  -3.1474  -3.1398
    -3.1266  -3.1234  -3.1204  -3.0913  -3.0790  -3.0772  -3.0752  -3.0462
    -3.0182  -3.0144  -2.9993  -2.9932  -2.9601  -2.9393  -2.9339  -2.9157
    -2.9073  -2.9046  -2.8625  -2.8619  -2.8436  -2.8398  -2.8367  -2.8346
    -2.8125  -2.8114  -2.7694  -2.7661  -2.7615  -2.7605  -2.7452  -2.6997
    -2.6976  -2.6738  -2.6655  -2.6645  -2.5882  -2.5850  -2.5563  -2.5557
    -2.5501  -2.5397  -2.5173  -2.4920  -2.4899  -2.4746  -2.4690  -2.4688
    -2.4642  -2.4550  -2.4461  -2.4435  -2.4369  -2.4354  -2.4293  -2.4251
    -2.3741  -2.3503  -2.3294  -2.3278  -2.3272  -2.3110  -2.3100  -2.3083
    -2.3075  -2.2973  -2.2662  -2.2650  -2.2536  -2.2494  -2.2373  -2.2347
    -2.2343  -2.2100  -2.2093  -2.1994  -2.1894  -2.1886  -2.1345  -2.1201
    -2.1100  -2.1081  -2.1075  -2.0932  -2.0879  -2.0731  -2.0530  -2.0528
    -2.0504  -2.0478  -2.0408  -2.0312  -2.0267  -2.0118  -2.0019  -1.9970
    -1.9523  -1.9490  -1.9468  -1.9421  -1.9392  -1.9365  -1.9281  -1.9262
    -1.9236  -1.9220  -1.9096  -1.9077  -1.9060  -1.8054  -1.7916  -1.7750
    -1.7619  -1.7597  -1.7449  -1.7357  -1.7337  -1.7281  -1.7224  -1.7128
    -1.7027  -1.7014  -1.6996  -1.6967  -1.6609  -1.6583  -1.6574  -1.6331
    -1.6291  -1.6243  -1.6229  -1.6181  -1.6097  -1.5560  -1.5493  -1.5274
    -1.5245  -1.5159  -1.5110  -1.4989  -1.4879  -1.4856  -1.4825  -1.4807
    -1.4803  -1.4687  -1.4659  -1.4547  -1.4203  -1.4090  -1.3828  -1.3800
    -1.3705  -1.3408  -1.3295  -1.3010  -1.2966  -1.2853  -1.2851  -1.2775
    -1.2726  -1.2585  -1.2392  -1.2349  -1.2050  -1.2030  -1.1908  -1.1858
    -1.1521  -1.1519  -1.1386  -1.1016  -1.0861  -1.0817  -1.0808  -1.0720
    -1.0618  -1.0536  -1.0434  -1.0281  -1.0131  -1.0014  -0.9815  -0.9803
    -0.9753  -0.9390  -0.9289  -0.9275  -0.9227  -0.9187  -0.9132  -0.9119
    -0.8967  -0.8807  -0.8769  -0.8751  -0.8607  -0.8562  -0.8540  -0.8406
    -0.8371  -0.8193  -0.7964  -0.7903  -0.7653  -0.7048  -0.6917  -0.6902
    -0.6890  -0.6858  -0.6844  -0.6783  -0.6542  -0.6480  -0.6316  -0.6290
    -0.6252  -0.6099  -0.6050  -0.5925  -0.5878  -0.5724  -0.5660  -0.4907
    -0.4898  -0.4636  -0.4582  -0.4544  -0.4514  -0.4454  -0.4439  -0.4428
    -0.4388  -0.4303  -0.4020  -0.3798  -0.3738  -0.3563  -0.3552  -0.3485
    -0.3465  -0.3395  -0.3364  -0.3333  -0.3286  -0.3233  -0.3111  -0.3083
    -0.3055  -0.2769  -0.2756  -0.2726  -0.2571  -0.2562  -0.2346  -0.2093
    -0.2082  -0.1990  -0.1974  -0.1313  -0.1303  -0.1144  -0.1132  -0.0509
    -0.0500  -0.0486  -0.0358  -0.0239   0.1878   0.2062   0.5314   0.5318
     0.6057   0.6187   0.7578   0.7859   0.8270   0.9416   0.9476   1.3230
     1.3892   1.3895   1.6229   1.6243   1.6819   1.9856   1.9958   2.0201
     2.0220   2.0585   2.0687   2.2144   2.2156   2.3896   2.3914   2.4045
     2.5430   2.5535   2.5979   2.8048   3.1669   3.1691   3.2075   3.2103
     3.2183   3.2254   3.5464   3.5475   3.8759   3.8846   3.9508   4.2164
     4.3390   4.3444   4.5246   4.5506   4.6321   4.6331   4.7120   4.8706
     4.8757   4.9671   4.9707   5.2548   5.3132   5.3194   5.4854   5.5241
     5.6585   5.6616   5.6652   5.6679   5.7975   5.8095   5.8262   5.8925
     6.2851   6.3913   6.4459   6.4832   6.4884   6.4938   6.5017   6.6649
     6.7024   6.7101   6.7892   6.8127   7.0290   7.0615   7.0685   7.2024
     7.3528   7.3624   7.3765

          k = 0.2500 0.1443-0.1111 (136898 PWs)   bands (ev):

   -18.9261  -6.8092  -6.5562  -5.7646  -5.4764  -5.4116  -5.4105  -4.8547
    -4.8539  -4.7424  -4.7048  -4.5561  -4.4859  -4.4547  -4.4521  -4.4050
    -4.3348  -4.3342  -4.1971  -4.1553  -4.1542  -4.1366  -4.1341  -4.1320
    -4.0117  -4.0112  -3.9332  -3.9210  -3.9197  -3.9190  -3.8994  -3.8986
    -3.8366  -3.7779  -3.7768  -3.7660  -3.7558  -3.7544  -3.7442  -3.7433
    -3.7366  -3.6890  -3.6882  -3.6781  -3.6775  -3.6677  -3.6667  -3.6391
    -3.6313  -3.6304  -3.6032  -3.5990  -3.5793  -3.5776  -3.5579  -3.5141
    -3.5139  -3.4543  -3.4531  -3.4341  -3.4316  -3.4165  -3.3419  -3.3409
    -3.3347  -3.3315  -3.3188  -3.3159  -3.2936  -3.2928  -3.1474  -3.1398
    -3.1266  -3.1234  -3.1204  -3.0913  -3.0790  -3.0772  -3.0752  -3.0462
    -3.0182  -3.0144  -2.9993  -2.9932  -2.9601  -2.9393  -2.9339  -2.9157
    -2.9073  -2.9046  -2.8625  -2.8619  -2.8436  -2.8398  -2.8367  -2.8346
    -2.8125  -2.8114  -2.7694  -2.7661  -2.7615  -2.7605  -2.7452  -2.6997
    -2.6976  -2.6738  -2.6655  -2.6645  -2.5882  -2.5850  -2.5563  -2.5557
    -2.5501  -2.5397  -2.5173  -2.4920  -2.4899  -2.4746  -2.4690  -2.4688
    -2.4642  -2.4550  -2.4461  -2.4435  -2.4369  -2.4354  -2.4293  -2.4251
    -2.3741  -2.3502  -2.3294  -2.3278  -2.3272  -2.3110  -2.3100  -2.3083
    -2.3075  -2.2973  -2.2662  -2.2650  -2.2536  -2.2494  -2.2373  -2.2347
    -2.2343  -2.2099  -2.2093  -2.1994  -2.1894  -2.1886  -2.1345  -2.1201
    -2.1100  -2.1081  -2.1075  -2.0932  -2.0879  -2.0730  -2.0530  -2.0528
    -2.0504  -2.0478  -2.0408  -2.0312  -2.0267  -2.0118  -2.0019  -1.9970
    -1.9523  -1.9490  -1.9468  -1.9421  -1.9392  -1.9365  -1.9281  -1.9262
    -1.9236  -1.9219  -1.9096  -1.9077  -1.9060  -1.8054  -1.7916  -1.7750
    -1.7619  -1.7597  -1.7449  -1.7357  -1.7337  -1.7281  -1.7224  -1.7128
    -1.7027  -1.7014  -1.6996  -1.6967  -1.6609  -1.6583  -1.6574  -1.6331
    -1.6291  -1.6243  -1.6229  -1.6181  -1.6097  -1.5560  -1.5493  -1.5274
    -1.5245  -1.5159  -1.5110  -1.4989  -1.4879  -1.4856  -1.4824  -1.4807
    -1.4803  -1.4687  -1.4659  -1.4547  -1.4203  -1.4090  -1.3828  -1.3800
    -1.3705  -1.3408  -1.3295  -1.3010  -1.2966  -1.2853  -1.2851  -1.2775
    -1.2726  -1.2585  -1.2392  -1.2349  -1.2050  -1.2030  -1.1908  -1.1858
    -1.1521  -1.1519  -1.1386  -1.1016  -1.0861  -1.0817  -1.0808  -1.0720
    -1.0618  -1.0536  -1.0434  -1.0281  -1.0131  -1.0014  -0.9815  -0.9803
    -0.9753  -0.9390  -0.9289  -0.9275  -0.9227  -0.9186  -0.9132  -0.9119
    -0.8967  -0.8807  -0.8769  -0.8751  -0.8607  -0.8562  -0.8540  -0.8406
    -0.8371  -0.8193  -0.7964  -0.7903  -0.7653  -0.7048  -0.6917  -0.6902
    -0.6890  -0.6858  -0.6844  -0.6783  -0.6542  -0.6480  -0.6316  -0.6290
    -0.6252  -0.6099  -0.6050  -0.5925  -0.5879  -0.5724  -0.5660  -0.4907
    -0.4898  -0.4636  -0.4582  -0.4544  -0.4514  -0.4454  -0.4439  -0.4428
    -0.4388  -0.4303  -0.4020  -0.3798  -0.3738  -0.3563  -0.3552  -0.3485
    -0.3465  -0.3395  -0.3364  -0.3332  -0.3286  -0.3233  -0.3111  -0.3083
    -0.3055  -0.2769  -0.2756  -0.2726  -0.2571  -0.2562  -0.2346  -0.2093
    -0.2082  -0.1989  -0.1974  -0.1313  -0.1303  -0.1144  -0.1132  -0.0509
    -0.0500  -0.0486  -0.0358  -0.0239   0.1878   0.2062   0.5314   0.5318
     0.6057   0.6187   0.7578   0.7859   0.8270   0.9416   0.9476   1.3230
     1.3892   1.3895   1.6229   1.6243   1.6819   1.9856   1.9958   2.0200
     2.0220   2.0585   2.0687   2.2144   2.2156   2.3896   2.3914   2.4045
     2.5430   2.5535   2.5979   2.8048   3.1669   3.1691   3.2075   3.2103
     3.2183   3.2254   3.5464   3.5475   3.8759   3.8846   3.9508   4.2164
     4.3390   4.3444   4.5246   4.5507   4.6321   4.6331   4.7120   4.8706
     4.8757   4.9670   4.9707   5.2548   5.3132   5.3194   5.4853   5.5241
     5.6585   5.6616   5.6652   5.6679   5.7975   5.8095   5.8261   5.8930
     6.2803   6.3905   6.4552   6.4831   6.4882   6.4938   6.5031   6.6655
     6.7035   6.7100   6.7800   6.8108   7.0194   7.0606   7.0721   7.2106
     7.3484   7.3611   7.3781

          k = 0.0000-0.2887 0.1111 (136898 PWs)   bands (ev):

   -18.9261  -6.8091  -6.5563  -5.7648  -5.4765  -5.4110  -5.4107  -4.8545
    -4.8540  -4.7429  -4.7051  -4.5561  -4.4858  -4.4534  -4.4525  -4.4054
    -4.3345  -4.3341  -4.1971  -4.1549  -4.1546  -4.1363  -4.1337  -4.1327
    -4.0117  -4.0113  -3.9333  -3.9211  -3.9196  -3.9189  -3.8991  -3.8987
    -3.8367  -3.7777  -3.7772  -3.7664  -3.7556  -3.7543  -3.7440  -3.7435
    -3.7374  -3.6887  -3.6881  -3.6780  -3.6775  -3.6674  -3.6666  -3.6405
    -3.6311  -3.6304  -3.6012  -3.5990  -3.5791  -3.5778  -3.5590  -3.5140
    -3.5139  -3.4541  -3.4531  -3.4336  -3.4315  -3.4165  -3.3420  -3.3407
    -3.3348  -3.3315  -3.3182  -3.3160  -3.2935  -3.2929  -3.1518  -3.1397
    -3.1270  -3.1237  -3.1194  -3.0822  -3.0790  -3.0766  -3.0751  -3.0558
    -3.0179  -3.0154  -2.9987  -2.9908  -2.9592  -2.9393  -2.9357  -2.9154
    -2.9070  -2.9027  -2.8626  -2.8617  -2.8430  -2.8416  -2.8365  -2.8362
    -2.8120  -2.8107  -2.7688  -2.7671  -2.7616  -2.7612  -2.7449  -2.6993
    -2.6984  -2.6736  -2.6652  -2.6648  -2.5884  -2.5855  -2.5562  -2.5557
    -2.5495  -2.5395  -2.5173  -2.4915  -2.4907  -2.4740  -2.4691  -2.4687
    -2.4660  -2.4549  -2.4454  -2.4424  -2.4369  -2.4359  -2.4281  -2.4264
    -2.3741  -2.3500  -2.3295  -2.3278  -2.3271  -2.3112  -2.3097  -2.3088
    -2.3074  -2.2972  -2.2658  -2.2653  -2.2536  -2.2494  -2.2370  -2.2356
    -2.2339  -2.2101  -2.2094  -2.1986  -2.1893  -2.1887  -2.1342  -2.1201
    -2.1101  -2.1087  -2.1074  -2.0920  -2.0892  -2.0730  -2.0529  -2.0527
    -2.0493  -2.0483  -2.0407  -2.0301  -2.0271  -2.0118  -2.0015  -1.9969
    -1.9503  -1.9489  -1.9471  -1.9428  -1.9404  -1.9364  -1.9280  -1.9264
    -1.9242  -1.9223  -1.9101  -1.9077  -1.9057  -1.8029  -1.7925  -1.7776
    -1.7622  -1.7590  -1.7418  -1.7375  -1.7340  -1.7263  -1.7240  -1.7113
    -1.7023  -1.7014  -1.6995  -1.6984  -1.6604  -1.6589  -1.6573  -1.6336
    -1.6296  -1.6251  -1.6238  -1.6143  -1.6118  -1.5549  -1.5492  -1.5274
    -1.5241  -1.5157  -1.5112  -1.4999  -1.4881  -1.4850  -1.4828  -1.4817
    -1.4802  -1.4667  -1.4661  -1.4524  -1.4208  -1.4106  -1.3833  -1.3797
    -1.3684  -1.3390  -1.3307  -1.3028  -1.2970  -1.2858  -1.2852  -1.2772
    -1.2728  -1.2562  -1.2389  -1.2361  -1.2040  -1.2033  -1.1912  -1.1861
    -1.1533  -1.1510  -1.1385  -1.1046  -1.0874  -1.0825  -1.0807  -1.0697
    -1.0618  -1.0516  -1.0447  -1.0267  -1.0126  -1.0012  -0.9809  -0.9788
    -0.9758  -0.9384  -0.9297  -0.9283  -0.9206  -0.9186  -0.9126  -0.9118
    -0.8993  -0.8808  -0.8775  -0.8753  -0.8639  -0.8573  -0.8557  -0.8386
    -0.8306  -0.8213  -0.7954  -0.7911  -0.7665  -0.7044  -0.6918  -0.6905
    -0.6891  -0.6876  -0.6823  -0.6775  -0.6551  -0.6476  -0.6317  -0.6282
    -0.6265  -0.6101  -0.6061  -0.5923  -0.5882  -0.5728  -0.5647  -0.4911
    -0.4895  -0.4642  -0.4596  -0.4540  -0.4505  -0.4454  -0.4438  -0.4416
    -0.4382  -0.4311  -0.3969  -0.3856  -0.3738  -0.3574  -0.3533  -0.3483
    -0.3468  -0.3407  -0.3356  -0.3318  -0.3288  -0.3240  -0.3106  -0.3084
    -0.3051  -0.2772  -0.2756  -0.2729  -0.2576  -0.2559  -0.2344  -0.2089
    -0.2086  -0.1990  -0.1980  -0.1318  -0.1297  -0.1142  -0.1133  -0.0510
    -0.0501  -0.0486  -0.0356  -0.0240   0.1862   0.2079   0.5314   0.5318
     0.6037   0.6202   0.7577   0.7865   0.8268   0.9402   0.9477   1.3216
     1.3893   1.3898   1.6226   1.6248   1.6821   1.9833   1.9963   2.0198
     2.0245   2.0569   2.0703   2.2124   2.2189   2.3904   2.3916   2.4044
     2.5419   2.5551   2.5949   2.8054   3.1627   3.1744   3.2074   3.2123
     3.2174   3.2251   3.5460   3.5482   3.8754   3.8855   3.9508   4.2164
     4.3382   4.3459   4.5271   4.5479   4.6321   4.6338   4.7126   4.8695
     4.8764   4.9670   4.9692   5.2553   5.3115   5.3202   5.4933   5.5149
     5.6572   5.6615   5.6657   5.6694   5.7931   5.8089   5.8144   5.9036
     6.2878   6.3915   6.4659   6.4836   6.4936   6.4949   6.5024   6.6696
     6.7003   6.7139   6.7593   6.7912   7.0303   7.0480   7.0821   7.2407
     7.3159   7.3653   7.3759

          k = 0.0000 0.2887 0.1111 (136898 PWs)   bands (ev):

   -18.9261  -6.8091  -6.5563  -5.7648  -5.4765  -5.4110  -5.4107  -4.8545
    -4.8540  -4.7429  -4.7051  -4.5561  -4.4858  -4.4534  -4.4525  -4.4054
    -4.3345  -4.3341  -4.1971  -4.1549  -4.1546  -4.1363  -4.1337  -4.1327
    -4.0117  -4.0113  -3.9333  -3.9211  -3.9196  -3.9189  -3.8991  -3.8987
    -3.8367  -3.7777  -3.7772  -3.7664  -3.7556  -3.7543  -3.7440  -3.7435
    -3.7374  -3.6887  -3.6881  -3.6780  -3.6775  -3.6674  -3.6666  -3.6405
    -3.6311  -3.6304  -3.6012  -3.5990  -3.5791  -3.5778  -3.5590  -3.5140
    -3.5139  -3.4541  -3.4531  -3.4336  -3.4315  -3.4165  -3.3420  -3.3407
    -3.3348  -3.3315  -3.3182  -3.3160  -3.2935  -3.2929  -3.1518  -3.1397
    -3.1270  -3.1237  -3.1194  -3.0822  -3.0790  -3.0766  -3.0751  -3.0557
    -3.0179  -3.0154  -2.9987  -2.9908  -2.9592  -2.9393  -2.9357  -2.9154
    -2.9070  -2.9027  -2.8626  -2.8617  -2.8430  -2.8416  -2.8366  -2.8362
    -2.8120  -2.8107  -2.7688  -2.7671  -2.7616  -2.7612  -2.7449  -2.6993
    -2.6984  -2.6736  -2.6652  -2.6648  -2.5884  -2.5855  -2.5562  -2.5557
    -2.5495  -2.5395  -2.5173  -2.4915  -2.4907  -2.4740  -2.4691  -2.4687
    -2.4660  -2.4549  -2.4454  -2.4424  -2.4369  -2.4359  -2.4281  -2.4264
    -2.3741  -2.3500  -2.3295  -2.3278  -2.3271  -2.3113  -2.3097  -2.3088
    -2.3074  -2.2972  -2.2658  -2.2653  -2.2536  -2.2494  -2.2370  -2.2356
    -2.2339  -2.2101  -2.2094  -2.1986  -2.1893  -2.1887  -2.1342  -2.1201
    -2.1101  -2.1087  -2.1074  -2.0920  -2.0892  -2.0730  -2.0529  -2.0527
    -2.0493  -2.0483  -2.0407  -2.0301  -2.0271  -2.0118  -2.0015  -1.9969
    -1.9503  -1.9489  -1.9471  -1.9428  -1.9404  -1.9364  -1.9280  -1.9264
    -1.9242  -1.9223  -1.9101  -1.9078  -1.9057  -1.8030  -1.7925  -1.7776
    -1.7622  -1.7590  -1.7418  -1.7375  -1.7340  -1.7263  -1.7240  -1.7113
    -1.7023  -1.7014  -1.6995  -1.6984  -1.6604  -1.6589  -1.6573  -1.6336
    -1.6296  -1.6251  -1.6238  -1.6143  -1.6118  -1.5549  -1.5492  -1.5274
    -1.5241  -1.5157  -1.5112  -1.4999  -1.4881  -1.4850  -1.4828  -1.4817
    -1.4802  -1.4667  -1.4661  -1.4524  -1.4208  -1.4106  -1.3833  -1.3797
    -1.3684  -1.3390  -1.3307  -1.3028  -1.2970  -1.2858  -1.2852  -1.2772
    -1.2728  -1.2562  -1.2389  -1.2361  -1.2040  -1.2033  -1.1912  -1.1861
    -1.1533  -1.1510  -1.1385  -1.1046  -1.0874  -1.0825  -1.0807  -1.0697
    -1.0618  -1.0516  -1.0446  -1.0267  -1.0126  -1.0012  -0.9809  -0.9788
    -0.9758  -0.9384  -0.9297  -0.9283  -0.9206  -0.9186  -0.9126  -0.9118
    -0.8993  -0.8808  -0.8775  -0.8753  -0.8639  -0.8573  -0.8557  -0.8386
    -0.8306  -0.8213  -0.7954  -0.7911  -0.7665  -0.7044  -0.6918  -0.6905
    -0.6891  -0.6876  -0.6823  -0.6775  -0.6551  -0.6476  -0.6317  -0.6282
    -0.6265  -0.6101  -0.6061  -0.5923  -0.5882  -0.5728  -0.5647  -0.4911
    -0.4895  -0.4642  -0.4596  -0.4540  -0.4505  -0.4454  -0.4438  -0.4416
    -0.4382  -0.4311  -0.3969  -0.3855  -0.3738  -0.3574  -0.3533  -0.3483
    -0.3467  -0.3407  -0.3356  -0.3318  -0.3288  -0.3240  -0.3106  -0.3084
    -0.3051  -0.2772  -0.2756  -0.2729  -0.2576  -0.2559  -0.2344  -0.2089
    -0.2086  -0.1990  -0.1980  -0.1318  -0.1297  -0.1142  -0.1133  -0.0510
    -0.0501  -0.0486  -0.0356  -0.0240   0.1862   0.2079   0.5314   0.5318
     0.6037   0.6202   0.7577   0.7865   0.8268   0.9402   0.9477   1.3216
     1.3893   1.3898   1.6226   1.6248   1.6821   1.9833   1.9963   2.0198
     2.0245   2.0569   2.0703   2.2124   2.2189   2.3904   2.3916   2.4044
     2.5419   2.5551   2.5949   2.8054   3.1627   3.1744   3.2074   3.2123
     3.2174   3.2251   3.5460   3.5482   3.8754   3.8855   3.9508   4.2164
     4.3382   4.3459   4.5271   4.5479   4.6321   4.6338   4.7126   4.8695
     4.8764   4.9670   4.9692   5.2553   5.3115   5.3202   5.4933   5.5150
     5.6572   5.6615   5.6657   5.6694   5.7932   5.8089   5.8144   5.9031
     6.2908   6.3923   6.4637   6.4822   6.4933   6.4948   6.4991   6.6696
     6.6997   6.7134   6.7614   6.7972   7.0354   7.0443   7.0751   7.2272
     7.3196   7.3751   7.3773

     the Fermi energy is     1.5147 ev

!    total energy              =   -6564.20117704 Ry
     Harris-Foulkes estimate   =   -6564.20117705 Ry
     estimated scf accuracy    <          9.6E-09 Ry

     The total energy is the sum of the following terms:

     one-electron contribution =  -48786.29918704 Ry
     hartree contribution      =   24892.77057414 Ry
     xc contribution           =   -3162.30591309 Ry
     ewald contribution        =   20491.63119894 Ry
     smearing contrib. (-TS)   =       0.00215001 Ry

     convergence has been achieved in  22 iterations

     negative rho (up, down):  1.754E+00 0.000E+00

     Forces acting on atoms (Ry/au):

     atom    1 type  3   force =     0.00769136    0.01199823    0.01235148
     atom    2 type  2   force =    -0.00937000   -0.00812291   -0.00525673
     atom    3 type  2   force =     0.00407396   -0.00284529    0.00317818
     atom    4 type  1   force =     0.00024003    0.00030767    0.01135151
     atom    5 type  1   force =     0.00033069   -0.00001720    0.01112795
     atom    6 type  1   force =     0.00017176    0.00027408    0.01114070
     atom    7 type  1   force =     0.00030915   -0.00008522    0.01142963
     atom    8 type  1   force =     0.00000076    0.00020379    0.01124531
     atom    9 type  1   force =    -0.00004811   -0.00006466    0.01115435
     atom   10 type  1   force =     0.00000159    0.00003334    0.01120668
     atom   11 type  1   force =    -0.00005138   -0.00024502    0.01137275
     atom   12 type  1   force =    -0.00004687    0.00019590    0.01133080
     atom   13 type  1   force =    -0.00001126   -0.00006802    0.01122896
     atom   14 type  1   force =     0.00002483   -0.00005510    0.01113308
     atom   15 type  1   force =    -0.00003938   -0.00015380    0.01133431
     atom   16 type  1   force =    -0.00030197    0.00011783    0.01141783
     atom   17 type  1   force =    -0.00029929   -0.00012962    0.01129214
     atom   18 type  1   force =    -0.00022864   -0.00011855    0.01129797
     atom   19 type  1   force =    -0.00015941   -0.00025285    0.01140750
     atom   20 type  1   force =     0.00025413    0.00033615    0.00237500
     atom   21 type  1   force =     0.00014678    0.00002137    0.00247545
     atom   22 type  1   force =     0.00010534    0.00000318    0.00246058
     atom   23 type  1   force =     0.00028308   -0.00015054    0.00244333
     atom   24 type  1   force =    -0.00003899    0.00027531    0.00242267
     atom   25 type  1   force =    -0.00004484    0.00008497    0.00276452
     atom   26 type  1   force =     0.00011987    0.00005918    0.00247616
     atom   27 type  1   force =     0.00008524   -0.00032837    0.00276105
     atom   28 type  1   force =    -0.00001003    0.00031012    0.00229255
     atom   29 type  1   force =     0.00003499    0.00001439    0.00242955
     atom   30 type  1   force =     0.00004024   -0.00006978    0.00255355
     atom   31 type  1   force =    -0.00001868   -0.00023737    0.00258361
     atom   32 type  1   force =    -0.00024603    0.00020507    0.00245015
     atom   33 type  1   force =    -0.00011405   -0.00002224    0.00257901
     atom   34 type  1   force =    -0.00020084   -0.00014506    0.00252420
     atom   35 type  1   force =    -0.00020308   -0.00035639    0.00253958
     atom   36 type  1   force =     0.00014156    0.00009525   -0.00051887
     atom   37 type  1   force =     0.00011278    0.00004071   -0.00041766
     atom   38 type  1   force =    -0.00003976   -0.00005753   -0.00042087
     atom   39 type  1   force =     0.00008011    0.00006371   -0.00039963
     atom   40 type  1   force =    -0.00022118   -0.00042043    0.00051341
     atom   41 type  1   force =    -0.00046302    0.00013339    0.00040707
     atom   42 type  1   force =     0.00016256   -0.00010498   -0.00058689
     atom   43 type  1   force =     0.00001956    0.00013130   -0.00043150
     atom   44 type  1   force =     0.00011105   -0.00000418   -0.00011052
     atom   45 type  1   force =     0.00010577    0.00024049   -0.00023056
     atom   46 type  1   force =     0.00009295    0.00005328   -0.00049673
     atom   47 type  1   force =    -0.00001495   -0.00003529   -0.00035748
     atom   48 type  1   force =    -0.00009921    0.00003207   -0.00046144
     atom   49 type  1   force =    -0.00000124    0.00001621   -0.00061160
     atom   50 type  1   force =    -0.00007893    0.00001184   -0.00089935
     atom   51 type  1   force =    -0.00002746   -0.00006656   -0.00049316
     atom   52 type  1   force =     0.00009585    0.00002261   -0.01339555
     atom   53 type  1   force =     0.00005001   -0.00001984   -0.01340430
     atom   54 type  1   force =    -0.00001704   -0.00001533   -0.01343189
     atom   55 type  1   force =     0.00011878    0.00004230   -0.01345610
     atom   56 type  1   force =     0.00132934    0.00092577   -0.01340288
     atom   57 type  1   force =     0.00051659   -0.00039529   -0.01387299
     atom   58 type  1   force =     0.00008534    0.00001353   -0.01333513
     atom   59 type  1   force =    -0.00007691    0.00048538   -0.01408294
     atom   60 type  1   force =    -0.00442067    0.00305127   -0.01919455
     atom   61 type  1   force =    -0.00002214   -0.00518466   -0.01864206
     atom   62 type  1   force =     0.00004585   -0.00003323   -0.01321327
     atom   63 type  1   force =    -0.00001373   -0.00000820   -0.01344603
     atom   64 type  1   force =    -0.00018824    0.00006304   -0.01328723
     atom   65 type  1   force =     0.00019900    0.00011078   -0.01269054
     atom   66 type  1   force =    -0.00006934   -0.00010981   -0.01308378
     atom   67 type  1   force =     0.00000579   -0.00005019   -0.01342034

     Total force =     0.077482     Total SCF correction =     0.000619

     BFGS Geometry Optimization

     number of scf cycles    =   1
     number of bfgs steps    =   0

     energy   new            =   -6564.2011770420 Ry

     new trust radius        =       0.0199319650 bohr
     new conv_thr            =       0.0000000100 Ry


ATOMIC_POSITIONS (angstrom)
O       -0.246718150   6.519130809  10.084323520
H       -0.856715539   5.927731260   9.574962508
H        0.334115407   5.900349626  10.564579335
Au       4.261244002   7.380632612   0.006006960
Au       5.765214912   4.775588945   0.005888655
Au       7.269054708   2.170872051   0.005895403
Au       8.773050823  -0.434190098   0.006048297
Au       1.253270432   7.380577642   0.005950763
Au       2.757167631   4.775563834   0.005902627
Au       4.261117823   2.170744656   0.005930318
Au       5.765012731  -0.434274666   0.006018201
Au      -1.754601844   7.380573467   0.005996000
Au      -0.250659969   4.775562053   0.005942112
Au       1.253283168   2.170697860   0.005891373
Au       2.757172252  -0.434226389   0.005997860
Au      -4.762583790   7.380532149   0.006042054
Au      -3.258658477   4.775529457   0.005975543
Au      -1.754698030   2.170664282   0.005978629
Au      -0.250738370  -0.434278808   0.006036588
Au       5.765174400   8.248938104   2.457152699
Au       7.269041486   5.643900260   2.457205853
Au       8.772942974   3.039018645   2.457197983
Au      10.276959489   0.434065341   2.457188857
Au       2.757172456   8.248905913   2.457177922
Au       4.261093256   5.643933916   2.457358820
Au       5.765103353   3.039048279   2.457206228
Au       7.269008919   0.433971237   2.457356988
Au      -0.250659319   8.248924334   2.457109065
Au       1.253288547   5.643896567   2.457181561
Au       2.757214381   3.038980036   2.457247183
Au       4.261107097   0.434019394   2.457263091
Au      -3.258630293   8.248868743   2.457192466
Au      -1.754637393   5.643877181   2.457260656
Au      -0.250760290   3.038940198   2.457231649
Au       1.253162566   0.433956410   2.457239791
Au       4.262011098   9.118796206   4.893907155
Au       5.766228754   6.512892334   4.894216772
Au       7.270057141   3.907703235   4.894121137
Au       8.774186566   1.301885225   4.894026518
Au       1.252964758   9.118094169   4.894169219
Au       2.757070138   6.512510318   4.894364237
Au       4.261306001   3.907248257   4.893747660
Au       5.765307764   1.301488263   4.893724507
Au      -1.754946832   9.118155176   4.893812346
Au      -0.250719871   6.512407724   4.894005838
Au       1.253179025   3.907172980   4.893769620
Au       2.757195431   1.301242033   4.893740787
Au      -4.763871719   9.117797655   4.893130737
Au      -3.259586036   6.511911866   4.893307816
Au      -1.755723522   3.906776257   4.893060652
Au      -0.251622011   1.300851530   4.893168789
Au       4.261893923   7.381747768   7.370335618
Au       5.765930413   4.775966634   7.370579420
Au       7.269811671   2.170953503   7.370433693
Au       8.774081142  -0.434722092   7.369850582
Au       1.253883245   7.381921000   7.370645499
Au       2.757516524   4.775460395   7.370659941
Au       4.261202675   2.170657162   7.370800086
Au       5.765313455  -0.434793369   7.369847893
Au      -1.757139520   7.382952784   7.367529661
Au      -0.250756089   4.772832510   7.368072843
Au       1.253198927   2.170542535   7.370818796
Au       2.757362727  -0.435149779   7.370122462
Au      -4.763607456   7.381040553   7.370042944
Au      -3.259336307   4.775300949   7.370620480
Au      -1.755565622   2.170167989   7.370268856
Au      -0.251324627  -0.435498926   7.369538581



     Writing output data file 5333453.save
     Check: negative starting charge=   -1.730336
     NEW-OLD atomic charge density approx. for the potential
     Check: negative starting charge=   -1.730510

     negative rho (up, down):  1.755E+00 0.000E+00

     total cpu time spent up to now is     3924.4 secs

[...]
     7.4792   7.4959   7.5089

          k = 0.0000-0.2887 0.1111 (136898 PWs)   bands (ev):

   -18.5628  -6.9186  -6.3678  -6.1291  -5.7787  -5.7772  -5.7114  -5.2207
    -5.2186  -5.0620  -5.0021  -4.7338  -4.7292  -4.7283  -4.6815  -4.6772
    -4.6637  -4.6609  -4.4797  -4.4478  -4.4465  -4.4320  -4.4307  -4.4232
    -4.3841  -4.3825  -4.2536  -4.2510  -4.2226  -4.2153  -4.2143  -4.1466
    -4.1245  -4.1212  -4.1065  -4.1027  -4.0313  -4.0295  -4.0270  -3.9962
    -3.9854  -3.9836  -3.9756  -3.9740  -3.9419  -3.9403  -3.9320  -3.8527
    -3.8522  -3.8114  -3.8003  -3.7862  -3.7850  -3.7797  -3.7788  -3.7521
    -3.7497  -3.7398  -3.7374  -3.6624  -3.6620  -3.6542  -3.6521  -3.5996
    -3.5980  -3.5919  -3.5906  -3.5798  -3.4749  -3.4740  -3.4295  -3.4278
    -3.3816  -3.3809  -3.3749  -3.3230  -3.3192  -3.2925  -3.2920  -3.2882
    -3.2861  -3.2544  -3.2536  -3.1975  -3.1805  -3.1792  -3.1625  -3.1489
    -3.1476  -3.1065  -3.1058  -3.1038  -3.1025  -3.0748  -3.0731  -3.0563
    -3.0549  -3.0372  -3.0362  -2.9917  -2.9885  -2.9453  -2.9336  -2.9320
    -2.9065  -2.9058  -2.9043  -2.8076  -2.8059  -2.7584  -2.7542  -2.7507
    -2.6907  -2.6759  -2.6627  -2.6591  -2.6278  -2.6257  -2.6256  -2.6221
    -2.6192  -2.6109  -2.6057  -2.5903  -2.5746  -2.5714  -2.5647  -2.5243
    -2.5045  -2.4982  -2.4976  -2.4880  -2.4861  -2.4769  -2.4740  -2.4728
    -2.4713  -2.4688  -2.4672  -2.4629  -2.4622  -2.4335  -2.4319  -2.4103
    -2.4092  -2.3945  -2.3901  -2.3427  -2.3402  -2.3374  -2.3065  -2.2887
    -2.2872  -2.2594  -2.2571  -2.2427  -2.2386  -2.2050  -2.2033  -2.2021
    -2.1717  -2.1684  -2.1671  -2.1562  -2.1524  -2.1493  -2.1285  -2.1262
    -2.1048  -2.0972  -2.0945  -2.0838  -2.0101  -2.0067  -2.0055  -2.0012
    -1.9829  -1.9803  -1.9734  -1.9703  -1.9626  -1.9318  -1.9309  -1.9293
    -1.8879  -1.8860  -1.8847  -1.8828  -1.8816  -1.8777  -1.8754  -1.8659
    -1.8640  -1.8380  -1.8354  -1.8331  -1.8141  -1.8109  -1.7924  -1.7831
    -1.7704  -1.7681  -1.7671  -1.7547  -1.7522  -1.7107  -1.7088  -1.6658
    -1.6630  -1.6612  -1.6466  -1.6448  -1.6440  -1.5888  -1.5869  -1.5719
    -1.5691  -1.5656  -1.5125  -1.4885  -1.4871  -1.4836  -1.4825  -1.4626
    -1.4601  -1.4512  -1.4486  -1.4232  -1.4212  -1.3818  -1.3725  -1.3605
    -1.3559  -1.3398  -1.3389  -1.3162  -1.3124  -1.2823  -1.2801  -1.2330
    -1.2310  -1.1745  -1.1730  -1.1623  -1.1603  -1.1488  -1.1207  -1.1191
    -1.1040  -1.1027  -1.0889  -1.0881  -1.0679  -1.0614  -1.0156  -1.0148
    -1.0029  -1.0008  -0.9913  -0.9906  -0.9728  -0.9585  -0.9574  -0.9541
    -0.9525  -0.9496  -0.9485  -0.9289  -0.9229  -0.9121  -0.8722  -0.8674
    -0.8656  -0.8634  -0.8151  -0.8115  -0.7971  -0.7731  -0.7722  -0.7621
    -0.7426  -0.7232  -0.7089  -0.7062  -0.6880  -0.6748  -0.6729  -0.6722
    -0.6694  -0.6669  -0.6649  -0.6221  -0.6132  -0.6077  -0.5741  -0.5675
    -0.5390  -0.5042  -0.5008  -0.5002  -0.4742  -0.4465  -0.4431  -0.4422
    -0.4323  -0.4185  -0.4134  -0.4038  -0.3808  -0.3786  -0.3653  -0.3529
    -0.3523  -0.3483  -0.3451  -0.2956  -0.2936  -0.2931  -0.2898  -0.2881
    -0.2694  -0.2669  -0.2612  -0.2582  -0.2549  -0.2495  -0.2026  -0.1993
    -0.1981  -0.1964  -0.1940  -0.1829  -0.1818  -0.1417  -0.1321  -0.1310
    -0.0871  -0.0856  -0.0623   0.0127   0.2728   0.2840   0.4334   0.4343
     0.6451   0.7242   0.7336   0.8645   0.8670   0.8922   0.9195   1.2311
     1.2647   1.2651   1.4900   1.4923   1.8750   1.9469   1.9492   2.1051
     2.1078   2.1543   2.1601   2.2239   2.2359   2.2543   2.2547   2.4878
     2.6216   2.8396   2.8490   3.0919   3.0961   3.1187   3.1621   3.1652
     3.2838   3.2885   3.4482   3.4529   4.0763   4.1124   4.1848   4.1898
     4.3943   4.3979   4.6608   4.6767   4.6832   4.6895   4.9165   4.9205
     4.9277   5.0789   5.0819   5.2358   5.3919   5.3981   5.5735   5.5777
     5.6041   5.6093   5.6316   5.6485   5.9354   5.9773   5.9882   6.0544
     6.3813   6.4422   6.4479   6.4524   6.4721   6.4740   6.6456   6.7785
     6.7863   6.8380   6.9431   6.9711   7.0760   7.0868   7.1401   7.3724
     7.4529   7.4869   7.5068

          k = 0.0000 0.2887 0.1111 (136898 PWs)   bands (ev):

   -18.5628  -6.9186  -6.3678  -6.1291  -5.7787  -5.7772  -5.7114  -5.2207
    -5.2186  -5.0620  -5.0021  -4.7338  -4.7292  -4.7283  -4.6815  -4.6772
    -4.6637  -4.6609  -4.4797  -4.4478  -4.4465  -4.4320  -4.4307  -4.4232
    -4.3841  -4.3825  -4.2536  -4.2510  -4.2226  -4.2153  -4.2143  -4.1466
    -4.1245  -4.1212  -4.1065  -4.1027  -4.0314  -4.0295  -4.0270  -3.9962
    -3.9854  -3.9836  -3.9756  -3.9740  -3.9419  -3.9403  -3.9320  -3.8527
    -3.8522  -3.8114  -3.8003  -3.7862  -3.7850  -3.7797  -3.7789  -3.7521
    -3.7497  -3.7398  -3.7374  -3.6624  -3.6620  -3.6542  -3.6521  -3.5996
    -3.5980  -3.5919  -3.5906  -3.5798  -3.4749  -3.4740  -3.4295  -3.4278
    -3.3816  -3.3809  -3.3749  -3.3230  -3.3192  -3.2925  -3.2920  -3.2882
    -3.2861  -3.2544  -3.2536  -3.1975  -3.1805  -3.1792  -3.1625  -3.1489
    -3.1476  -3.1065  -3.1058  -3.1038  -3.1025  -3.0748  -3.0731  -3.0563
    -3.0549  -3.0372  -3.0362  -2.9917  -2.9885  -2.9453  -2.9336  -2.9320
    -2.9065  -2.9058  -2.9043  -2.8076  -2.8060  -2.7584  -2.7542  -2.7508
    -2.6907  -2.6759  -2.6627  -2.6591  -2.6278  -2.6257  -2.6256  -2.6221
    -2.6192  -2.6110  -2.6057  -2.5903  -2.5746  -2.5714  -2.5647  -2.5243
    -2.5045  -2.4982  -2.4976  -2.4880  -2.4861  -2.4768  -2.4740  -2.4728
    -2.4713  -2.4688  -2.4672  -2.4629  -2.4622  -2.4335  -2.4319  -2.4103
    -2.4092  -2.3945  -2.3901  -2.3427  -2.3402  -2.3374  -2.3065  -2.2887
    -2.2872  -2.2594  -2.2571  -2.2427  -2.2386  -2.2050  -2.2033  -2.2021
    -2.1717  -2.1684  -2.1671  -2.1562  -2.1524  -2.1493  -2.1285  -2.1262
    -2.1049  -2.0972  -2.0945  -2.0838  -2.0101  -2.0067  -2.0055  -2.0012
    -1.9829  -1.9803  -1.9734  -1.9703  -1.9626  -1.9318  -1.9310  -1.9293
    -1.8879  -1.8860  -1.8847  -1.8828  -1.8816  -1.8777  -1.8754  -1.8659
    -1.8640  -1.8380  -1.8354  -1.8331  -1.8141  -1.8109  -1.7924  -1.7831
    -1.7704  -1.7681  -1.7671  -1.7547  -1.7522  -1.7107  -1.7088  -1.6658
    -1.6630  -1.6612  -1.6466  -1.6448  -1.6440  -1.5888  -1.5869  -1.5719
    -1.5691  -1.5656  -1.5125  -1.4885  -1.4871  -1.4836  -1.4825  -1.4626
    -1.4601  -1.4512  -1.4486  -1.4232  -1.4212  -1.3818  -1.3725  -1.3605
    -1.3559  -1.3398  -1.3389  -1.3162  -1.3124  -1.2823  -1.2801  -1.2330
    -1.2310  -1.1745  -1.1730  -1.1623  -1.1603  -1.1488  -1.1207  -1.1191
    -1.1040  -1.1027  -1.0889  -1.0881  -1.0679  -1.0614  -1.0156  -1.0148
    -1.0029  -1.0008  -0.9913  -0.9906  -0.9728  -0.9585  -0.9574  -0.9541
    -0.9525  -0.9496  -0.9485  -0.9289  -0.9229  -0.9121  -0.8722  -0.8674
    -0.8656  -0.8634  -0.8151  -0.8115  -0.7971  -0.7731  -0.7722  -0.7621
    -0.7426  -0.7232  -0.7089  -0.7063  -0.6880  -0.6748  -0.6729  -0.6722
    -0.6694  -0.6669  -0.6649  -0.6222  -0.6132  -0.6077  -0.5741  -0.5675
    -0.5390  -0.5042  -0.5008  -0.5002  -0.4742  -0.4465  -0.4431  -0.4422
    -0.4323  -0.4185  -0.4134  -0.4038  -0.3808  -0.3786  -0.3653  -0.3529
    -0.3523  -0.3483  -0.3451  -0.2956  -0.2936  -0.2931  -0.2898  -0.2880
    -0.2694  -0.2669  -0.2612  -0.2582  -0.2549  -0.2495  -0.2026  -0.1993
    -0.1981  -0.1964  -0.1940  -0.1829  -0.1818  -0.1417  -0.1321  -0.1310
    -0.0871  -0.0856  -0.0623   0.0127   0.2728   0.2840   0.4334   0.4343
     0.6451   0.7242   0.7336   0.8645   0.8670   0.8922   0.9195   1.2311
     1.2647   1.2651   1.4900   1.4923   1.8750   1.9469   1.9492   2.1051
     2.1078   2.1543   2.1601   2.2239   2.2359   2.2543   2.2547   2.4878
     2.6216   2.8396   2.8490   3.0919   3.0961   3.1187   3.1621   3.1652
     3.2838   3.2885   3.4482   3.4529   4.0763   4.1124   4.1848   4.1898
     4.3943   4.3979   4.6608   4.6767   4.6832   4.6895   4.9165   4.9205
     4.9277   5.0789   5.0819   5.2358   5.3919   5.3981   5.5735   5.5777
     5.6041   5.6093   5.6316   5.6485   5.9354   5.9773   5.9882   6.0541
     6.3823   6.4421   6.4481   6.4523   6.4723   6.4741   6.6447   6.7778
     6.7862   6.8379   6.9469   6.9687   7.0760   7.0880   7.1294   7.3679
     7.4625   7.5025   7.5078

     the Fermi energy is     1.5204 ev

!    total energy              =   -6564.27751526 Ry
     Harris-Foulkes estimate   =   -6564.27751526 Ry
     estimated scf accuracy    <          4.9E-11 Ry

     The total energy is the sum of the following terms:

     one-electron contribution =  -51047.27500618 Ry
     hartree contribution      =   26020.69289735 Ry
     xc contribution           =   -3163.60735346 Ry
     ewald contribution        =   21625.90877730 Ry
     smearing contrib. (-TS)   =       0.00316972 Ry

     convergence has been achieved in  16 iterations

     negative rho (up, down):  1.747E+00 0.000E+00

     Forces acting on atoms (Ry/au):

     atom    1 type  3   force =     0.00073170    0.00024641   -0.00009086
     atom    2 type  2   force =    -0.00030451    0.00014353   -0.00045802
     atom    3 type  2   force =     0.00050925   -0.00010018    0.00025863
     atom    4 type  1   force =    -0.00006393    0.00012598    0.00009104
     atom    5 type  1   force =    -0.00007978    0.00004551    0.00007315
     atom    6 type  1   force =    -0.00004102   -0.00003342    0.00003420
     atom    7 type  1   force =     0.00003483   -0.00011424    0.00011313
     atom    8 type  1   force =    -0.00005264   -0.00001518    0.00011493
     atom    9 type  1   force =    -0.00019809    0.00013155   -0.00002373
     atom   10 type  1   force =    -0.00007376    0.00001761   -0.00011955
     atom   11 type  1   force =    -0.00001374   -0.00025391   -0.00005131
     atom   12 type  1   force =     0.00010095    0.00009327   -0.00013222
     atom   13 type  1   force =     0.00011522    0.00003079   -0.00009334
     atom   14 type  1   force =    -0.00008593   -0.00013777    0.00011107
     atom   15 type  1   force =    -0.00019717   -0.00000936    0.00011692
     atom   16 type  1   force =    -0.00013940    0.00001986   -0.00004989
     atom   17 type  1   force =     0.00015137    0.00009084   -0.00000108
     atom   18 type  1   force =    -0.00008036   -0.00010859   -0.00004104
     atom   19 type  1   force =    -0.00009862   -0.00006765   -0.00000080
     atom   20 type  1   force =     0.00002730    0.00001447   -0.00010159
     atom   21 type  1   force =    -0.00001989   -0.00012000    0.00014448
     atom   22 type  1   force =    -0.00009787    0.00008118    0.00009655
     atom   23 type  1   force =    -0.00004972   -0.00000849   -0.00009702
     atom   24 type  1   force =     0.00014011    0.00015106   -0.00052853
     atom   25 type  1   force =     0.00011698   -0.00022194   -0.00014249
     atom   26 type  1   force =    -0.00008159    0.00001544    0.00001232
     atom   27 type  1   force =    -0.00011912    0.00015079   -0.00020775
     atom   28 type  1   force =    -0.00003732    0.00016066    0.00012013
     atom   29 type  1   force =     0.00008491   -0.00014386    0.00017372
     atom   30 type  1   force =     0.00012313   -0.00002403    0.00018430
     atom   31 type  1   force =    -0.00001278    0.00008935    0.00018210
     atom   32 type  1   force =    -0.00007719   -0.00002204    0.00015574
     atom   33 type  1   force =    -0.00013999   -0.00015132    0.00036666
     atom   34 type  1   force =    -0.00011927    0.00002294    0.00017340
     atom   35 type  1   force =    -0.00017234   -0.00016141    0.00002879
     atom   36 type  1   force =     0.00019776    0.00018521   -0.00007962
     atom   37 type  1   force =     0.00008164   -0.00026375    0.00011010
     atom   38 type  1   force =    -0.00010263    0.00001377   -0.00031085
     atom   39 type  1   force =    -0.00021291    0.00016022    0.00008307
     atom   40 type  1   force =     0.00000627    0.00010838    0.00008308
     atom   41 type  1   force =     0.00009585   -0.00004342    0.00010423
     atom   42 type  1   force =    -0.00008209   -0.00012650   -0.00008829
     atom   43 type  1   force =    -0.00021886   -0.00003384   -0.00004737
     atom   44 type  1   force =     0.00002376   -0.00014223    0.00008128
     atom   45 type  1   force =    -0.00009017   -0.00007899   -0.00023800
     atom   46 type  1   force =    -0.00010903    0.00011031   -0.00002321
     atom   47 type  1   force =     0.00022008    0.00005215   -0.00009183
     atom   48 type  1   force =    -0.00012878   -0.00005263   -0.00016846
     atom   49 type  1   force =     0.00010992    0.00018721   -0.00009772
     atom   50 type  1   force =     0.00024847    0.00000320   -0.00020436
     atom   51 type  1   force =    -0.00014854   -0.00013136   -0.00013499
     atom   52 type  1   force =     0.00001427    0.00007156    0.00001645
     atom   53 type  1   force =    -0.00010946    0.00014724    0.00028260
     atom   54 type  1   force =     0.00000909   -0.00014693    0.00028861
     atom   55 type  1   force =     0.00000504    0.00002981   -0.00002300
     atom   56 type  1   force =     0.00026576    0.00015692   -0.00025308
     atom   57 type  1   force =    -0.00000523    0.00011062   -0.00005290
     atom   58 type  1   force =    -0.00012806   -0.00008991    0.00021471
     atom   59 type  1   force =     0.00004855   -0.00009173   -0.00005285
     atom   60 type  1   force =    -0.00001770    0.00013754   -0.00019077
     atom   61 type  1   force =     0.00013972   -0.00012346   -0.00016591
     atom   62 type  1   force =    -0.00012022    0.00008114    0.00005868
     atom   63 type  1   force =     0.00008545   -0.00019509    0.00005137
     atom   64 type  1   force =     0.00009225   -0.00015338    0.00009365
     atom   65 type  1   force =     0.00012322    0.00006489    0.00014325
     atom   66 type  1   force =    -0.00009521    0.00008776    0.00004818
     atom   67 type  1   force =     0.00002207    0.00002745    0.00015193

     Total force =     0.002129     Total SCF correction =     0.000042

     bfgs converged in  38 scf cycles and  37 bfgs steps
     (criteria: energy <  1.0E-04, force <  1.0E-03)

     End of BFGS Geometry Optimization

     Final energy   =   -6564.2775152627 Ry
Begin final coordinates

ATOMIC_POSITIONS (angstrom)
O       -0.166201625   6.524511346  10.426258057
H       -0.747692339   6.095377705   9.767220967
H        0.514918696   5.852421702  10.614572730
Au       4.259627619   7.381801431   0.155452474
Au       5.762176257   4.775120497   0.154302482
Au       7.269453736   2.166536993   0.155098496
Au       8.775395155  -0.437287111   0.155965090
Au       1.251686484   7.381509113   0.153199340
Au       2.755932901   4.775816374   0.153054295
Au       4.261650063   2.170084626   0.153302998
Au       5.766616374  -0.435621136   0.154802661
Au      -1.759184097   7.379250073   0.153797462
Au      -0.256010044   4.774795891   0.152815163
Au       1.253313031   2.172176092   0.149209611
Au       2.759264266  -0.435252911   0.150393117
Au      -4.766829014   7.381508311   0.153819413
Au      -3.266935820   4.771613680   0.154121547
Au      -1.756487166   2.168498348   0.153136282
Au      -0.249690228  -0.434429248   0.153079354
Au       5.762133088   8.251735426   2.507993815
Au       7.263182081   5.643642085   2.505725138
Au       8.771022296   3.032873444   2.506695512
Au      10.279384676   0.429704283   2.508902260
Au       2.749990269   8.246702433   2.514550754
Au       4.252377839   5.647799521   2.510916263
Au       5.764565986   3.037843652   2.507363571
Au       7.269816850   0.424546796   2.513332175
Au      -0.255944151   8.246888655   2.508371908
Au       1.245724585   5.644368791   2.507178909
Au       2.754678734   3.039560024   2.504948286
Au       4.260748546   0.432451862   2.506235789
Au      -3.263972810   8.250812169   2.505611112
Au      -1.760463859   5.643217094   2.505641824
Au      -0.253923456   3.036513507   2.505109852
Au       1.253617672   0.434865076   2.505190831
Au       4.253136791   9.113649543   4.840065576
Au       5.755704918   6.515247722   4.835776567
Au       7.266722365   3.905722176   4.836696174
Au       8.773607383   1.293663532   4.837892094
Au       1.241686397   9.107757368   4.848023904
Au       2.740350963   6.509801417   4.846096001
Au       4.257044943   3.908787183   4.834869348
Au       5.764782837   1.300996910   4.835912418
Au      -1.763441515   9.119900770   4.835643154
Au      -0.262102876   6.508945062   4.841918951
Au       1.246357140   3.904506113   4.834846692
Au       2.753334654   1.303357330   4.835101679
Au      -4.769634562   9.119629461   4.835827821
Au      -3.272437490   6.508821540   4.832199346
Au      -1.765950823   3.902585014   4.833047390
Au      -0.253949895   1.300658857   4.836749651
Au       4.247157275   7.374670349   7.193545484
Au       5.761058295   4.774334755   7.187486567
Au       7.267736986   2.169132810   7.188217652
Au       8.764182316  -0.442729443   7.193717910
Au       1.230985621   7.371156971   7.210366995
Au       2.747548620   4.767338556   7.193226265
Au       4.259229375   2.171783195   7.188392425
Au       5.753883909  -0.433775381   7.190650115
Au      -1.780641169   7.382061800   7.184239760
Au      -0.267516555   4.760789128   7.191106176
Au       1.248354409   2.166929905   7.192693211
Au       2.746600255  -0.430678030   7.189635735
Au      -4.779548650   7.382587781   7.189064569
Au      -3.267559785   4.774004137   7.193303588
Au      -1.762387855   2.162707712   7.192218210
Au      -0.261823756  -0.438962698   7.189477736
End final coordinates



     Writing output data file 5333453.save
 
     init_run     :     69.78s CPU     70.63s WALL (       1 calls)
     electrons    :  97502.90s CPU 110807.20s WALL (      38 calls)
     update_pot   :    133.80s CPU    143.05s WALL (      37 calls)
     forces       :   1113.05s CPU   1137.47s WALL (      38 calls)

     Called by init_run:
     wfcinit      :     60.01s CPU     60.35s WALL (       1 calls)
     potinit      :      1.86s CPU      1.89s WALL (       1 calls)

     Called by electrons:
     c_bands      :  81923.39s CPU  94445.43s WALL (     637 calls)
     sum_band     :  13544.79s CPU  14031.12s WALL (     637 calls)
     v_of_rho     :    568.57s CPU    588.14s WALL (     642 calls)
     newd         :   1224.85s CPU   1437.10s WALL (     642 calls)
     mix_rho      :    120.89s CPU    122.34s WALL (     637 calls)

     Called by c_bands:
     init_us_2    :    264.70s CPU    265.20s WALL (    2626 calls)
     cegterg      :  74660.51s CPU  87062.32s WALL (    1274 calls)

     Called by sum_band:
     sum_band:bec :      6.63s CPU      6.65s WALL (    1274 calls)
     addusdens    :   1797.27s CPU   1999.54s WALL (     637 calls)

     Called by *egterg:
     h_psi        :  40988.02s CPU  48604.67s WALL (    4631 calls)
     s_psi        :   6949.28s CPU   6950.98s WALL (    4631 calls)
     g_psi        :     86.60s CPU     86.66s WALL (    3355 calls)
     cdiaghg      :   5224.29s CPU   5227.29s WALL (    4489 calls)

     Called by h_psi:
     add_vuspsi   :   6944.75s CPU   7008.22s WALL (    4631 calls)

     General routines
     calbec       :  10465.37s CPU  10468.59s WALL (    6209 calls)
     fft          :    661.90s CPU    668.22s WALL (   10707 calls)
     ffts         :     18.18s CPU     18.26s WALL (    1279 calls)
     fftw         :  22784.44s CPU  30033.90s WALL ( 3089858 calls)
     interpolate  :     98.14s CPU     98.69s WALL (    1279 calls)
     davcio       :      0.00s CPU      0.14s WALL (       2 calls)
 
     Parallel routines
     fft_scatter  :   7827.44s CPU  15052.66s WALL ( 3101844 calls)
 
     PWSCF        :     1d    3h28m CPU        1d    7h11m WALL

 
   This run was terminated on:   1:33:30  27Jan2017            

=------------------------------------------------------------------------------=
   JOB DONE.
=------------------------------------------------------------------------------=
