
     Program PWSCF v.5.4.0 starts on 20Jan2017 at 10: 5:48 

     This program is part of the open-source Quantum ESPRESSO suite
     for quantum simulation of materials; please cite
         "P. Giannozzi et al., J. Phys.:Condens. Matter 21 395502 (2009);
          URL http://www.quantum-espresso.org", 
     in publications or presentations arising from this work. More details at
     http://www.quantum-espresso.org/quote

     Parallel version (MPI), running on    48 processors
     K-points division:     npool     =      12
     R & G space division:  proc/nbgrp/npool/nimage =       4
     Reading input from bridge.O1.Au5455.d.2.7.phi.0.psi.90.in
Warning: card &CELL ignored
Warning: card / ignored

     Current dimensions of program PWSCF are:
     Max number of different atomic species (ntypx) = 10
     Max number of k-points (npk) =  40000
     Max angular momentum in pseudopotentials (lmaxx) =  3

     Subspace diagonalization in iterative solution of the eigenvalue problem:
     a serial algorithm will be used

 
     Parallelization info
     --------------------
     sticks:   dense  smooth     PW     G-vecs:    dense   smooth      PW
     Min        3567    1786    466               774291   273758   36291
     Max        3568    1787    467               774302   273793   36293
     Sum       14269    7147   1867              3097177  1095093  145167
 

     Title: 
     bridge.O1.Au5455.d.2.7.phi.0.psi.90                                        


     bravais-lattice index     =            4
     lattice parameter (alat)  =      22.7436  a.u.
     unit-cell volume          =   22924.1508 (a.u.)^3
     number of atoms/cell      =           67
     number of atomic types    =            3
     number of electrons       =       712.00
     number of Kohn-Sham states=          427
     kinetic-energy cutoff     =      50.0000  Ry
     charge density cutoff     =     400.0000  Ry
     convergence threshold     =      1.0E-08
     mixing beta               =       0.7000
     number of iterations used =            8  plain     mixing
     Exchange-correlation      =  SLA  PW   PBE  PBE ( 1  4  3  4 0 0)
     nstep                     =           50


     celldm(1)=  22.743643  celldm(2)=   0.000000  celldm(3)=   2.250000
     celldm(4)=   0.000000  celldm(5)=   0.000000  celldm(6)=   0.000000

     crystal axes: (cart. coord. in units of alat)
               a(1) = (   1.000000   0.000000   0.000000 )  
               a(2) = (  -0.500000   0.866025   0.000000 )  
               a(3) = (   0.000000   0.000000   2.250000 )  

     reciprocal axes: (cart. coord. in units 2 pi/alat)
               b(1) = (  1.000000  0.577350  0.000000 )  
               b(2) = (  0.000000  1.154701  0.000000 )  
               b(3) = (  0.000000  0.000000  0.444444 )  


     PseudoPot. # 1 for Au read from file:
     ../../../../pseudo/Au.pbe-nd-van.UPF
     MD5 check sum: 458681b50f36d87ef23c61b04bba420a
     Pseudo is Ultrasoft + core correction, Zval = 11.0
     Generated by new atomic code, or converted to UPF format
     Using radial grid of  985 points,  3 beta functions with: 
                l(1) =   1
                l(2) =   2
                l(3) =   2
     Q(r) pseudized with  8 coefficients,  rinner =    1.100   1.100   1.100
                                                       1.100   1.100

     PseudoPot. # 2 for H  read from file:
     ../../../../pseudo/H.pbe-van_ak.UPF
     MD5 check sum: 403db7282739603aa925980fa9b8608d
     Pseudo is Ultrasoft, Zval =  1.0
     Generated by new atomic code, or converted to UPF format
     Using radial grid of  615 points,  1 beta functions with: 
                l(1) =   0
     Q(r) pseudized with  8 coefficients,  rinner =    0.800

     PseudoPot. # 3 for O  read from file:
     ../../../../pseudo/O.pbe-van_ak.UPF
     MD5 check sum: 4b8c549914a63cae506c6ff22b5af4fe
     Pseudo is Ultrasoft, Zval =  6.0
     Generated by new atomic code, or converted to UPF format
     Using radial grid of  737 points,  4 beta functions with: 
                l(1) =   0
                l(2) =   0
                l(3) =   1
                l(4) =   1
     Q(r) pseudized with  8 coefficients,  rinner =    0.800   0.800   0.800


     atomic species   valence    mass     pseudopotential
        Au            11.00   196.96657     Au( 1.00)
        H              1.00     1.01000     H ( 1.00)
        O              6.00    16.00000     O ( 1.00)

     No symmetry found



   Cartesian axes

     site n.     atom                  positions (alat units)
         1           O   tau(   1) = (   0.2915728   0.2885783   0.8373559  )
         2           H   tau(   2) = (   0.2416394   0.2403247   0.7958083  )
         3           H   tau(   3) = (   0.3399922   0.2378175   0.8776628  )
         4           Au  tau(   4) = (   0.3540481   0.6132292   0.0000000  )
         5           Au  tau(   5) = (   0.4790062   0.3967954   0.0000000  )
         6           Au  tau(   6) = (   0.6039644   0.1803616   0.0000000  )
         7           Au  tau(   7) = (   0.7289225  -0.0360723   0.0000000  )
         8           Au  tau(   8) = (   0.1041318   0.6132292   0.0000000  )
         9           Au  tau(   9) = (   0.2290899   0.3967954   0.0000000  )
        10           Au  tau(  10) = (   0.3540481   0.1803616   0.0000000  )
        11           Au  tau(  11) = (   0.4790062  -0.0360723   0.0000000  )
        12           Au  tau(  12) = (  -0.1457845   0.6132292   0.0000000  )
        13           Au  tau(  13) = (  -0.0208264   0.3967954   0.0000000  )
        14           Au  tau(  14) = (   0.1041318   0.1803616   0.0000000  )
        15           Au  tau(  15) = (   0.2290899  -0.0360723   0.0000000  )
        16           Au  tau(  16) = (  -0.3957008   0.6132292   0.0000000  )
        17           Au  tau(  17) = (  -0.2707426   0.3967954   0.0000000  )
        18           Au  tau(  18) = (  -0.1457845   0.1803616   0.0000000  )
        19           Au  tau(  19) = (  -0.0208264  -0.0360723   0.0000000  )
        20           Au  tau(  20) = (   0.4790062   0.6853738   0.2040557  )
        21           Au  tau(  21) = (   0.6039644   0.4689400   0.2040557  )
        22           Au  tau(  22) = (   0.7289225   0.2525061   0.2040557  )
        23           Au  tau(  23) = (   0.8538806   0.0360723   0.2040557  )
        24           Au  tau(  24) = (   0.2290899   0.6853738   0.2040557  )
        25           Au  tau(  25) = (   0.3540481   0.4689400   0.2040557  )
        26           Au  tau(  26) = (   0.4790062   0.2525061   0.2040557  )
        27           Au  tau(  27) = (   0.6039644   0.0360723   0.2040557  )
        28           Au  tau(  28) = (  -0.0208264   0.6853738   0.2040557  )
        29           Au  tau(  29) = (   0.1041318   0.4689400   0.2040557  )
        30           Au  tau(  30) = (   0.2290899   0.2525061   0.2040557  )
        31           Au  tau(  31) = (   0.3540481   0.0360723   0.2040557  )
        32           Au  tau(  32) = (  -0.2707426   0.6853738   0.2040557  )
        33           Au  tau(  33) = (  -0.1457845   0.4689400   0.2040557  )
        34           Au  tau(  34) = (  -0.0208264   0.2525061   0.2040557  )
        35           Au  tau(  35) = (   0.1041318   0.0360723   0.2040557  )
        36           Au  tau(  36) = (   0.3541162   0.7576593   0.4066483  )
        37           Au  tau(  37) = (   0.4791000   0.5411421   0.4066695  )
        38           Au  tau(  38) = (   0.6040570   0.3246862   0.4066617  )
        39           Au  tau(  39) = (   0.7290270   0.1081684   0.4066529  )
        40           Au  tau(  40) = (   0.1041162   0.7576236   0.4066247  )
        41           Au  tau(  41) = (   0.2291001   0.5411063   0.4066455  )
        42           Au  tau(  42) = (   0.3540567   0.3246505   0.4066380  )
        43           Au  tau(  43) = (   0.4790276   0.1081324   0.4066292  )
        44           Au  tau(  44) = (  -0.1458201   0.7576104   0.4066224  )
        45           Au  tau(  45) = (  -0.0208365   0.5410930   0.4066438  )
        46           Au  tau(  46) = (   0.1041202   0.3246372   0.4066359  )
        47           Au  tau(  47) = (   0.2290908   0.1081193   0.4066273  )
        48           Au  tau(  48) = (  -0.3958167   0.7575791   0.4065812  )
        49           Au  tau(  49) = (  -0.2708328   0.5410617   0.4066025  )
        50           Au  tau(  50) = (  -0.1458763   0.3246061   0.4065947  )
        51           Au  tau(  51) = (  -0.0209056   0.1080882   0.4065858  )
        52           Au  tau(  52) = (   0.3541085   0.6133344   0.6129762  )
        53           Au  tau(  53) = (   0.4790780   0.3968269   0.6129968  )
        54           Au  tau(  54) = (   0.6040356   0.1803811   0.6129859  )
        55           Au  tau(  55) = (   0.7290165  -0.0361221   0.6129385  )
        56           Au  tau(  56) = (   0.1041243   0.6133091   0.6130022  )
        57           Au  tau(  57) = (   0.2290941   0.3968013   0.6130241  )
        58           Au  tau(  58) = (   0.3540515   0.1803552   0.6130121  )
        59           Au  tau(  59) = (   0.4790323  -0.0361475   0.6129659  )
        60           Au  tau(  60) = (  -0.1458030   0.6133014   0.6129980  )
        61           Au  tau(  61) = (  -0.0208339   0.3967936   0.6130188  )
        62           Au  tau(  62) = (   0.1041239   0.1803477   0.6130083  )
        63           Au  tau(  63) = (   0.2291046  -0.0361554   0.6129607  )
        64           Au  tau(  64) = (  -0.3957908   0.6132739   0.6129471  )
        65           Au  tau(  65) = (  -0.2708208   0.3967658   0.6129688  )
        66           Au  tau(  66) = (  -0.1458636   0.1803200   0.6129569  )
        67           Au  tau(  67) = (  -0.0208823  -0.0361826   0.6129110  )

     number of k points=    12  Marzari-Vanderbilt smearing, width (Ry)=  0.0200
                       cart. coord. in units 2pi/alat
        k(    1) = (   0.2500000   0.4330127   0.1111111), wk =   0.1666667
        k(    2) = (   0.2500000  -0.1443376   0.1111111), wk =   0.1666667
        k(    3) = (  -0.2500000  -0.4330127   0.1111111), wk =   0.1666667
        k(    4) = (  -0.2500000   0.4330127  -0.1111111), wk =   0.1666667
        k(    5) = (   0.2500000  -0.4330127  -0.1111111), wk =   0.1666667
        k(    6) = (   0.5000000   0.0000000   0.1111111), wk =   0.1666667
        k(    7) = (  -0.5000000   0.0000000   0.1111111), wk =   0.1666667
        k(    8) = (  -0.2500000   0.1443376   0.1111111), wk =   0.1666667
        k(    9) = (  -0.2500000  -0.1443376  -0.1111111), wk =   0.1666667
        k(   10) = (   0.2500000   0.1443376  -0.1111111), wk =   0.1666667
        k(   11) = (   0.0000000  -0.2886751   0.1111111), wk =   0.1666667
        k(   12) = (   0.0000000   0.2886751   0.1111111), wk =   0.1666667

     Dense  grid:  3097177 G-vectors     FFT dimensions: ( 150, 150, 360)

     Smooth grid:  1095093 G-vectors     FFT dimensions: ( 108, 108, 240)

     Largest allocated arrays     est. size (Mb)     dimensions
        Kohn-Sham Wavefunctions       223.01 Mb     (   34227,  427)
        NL pseudopotentials           439.75 Mb     (   34227,  842)
        Each V/rho on FFT grid         30.90 Mb     ( 2025000)
        Each G-vector array             5.91 Mb     (  774293)
        G-vector shells                 0.23 Mb     (   30064)
     Largest temporary arrays     est. size (Mb)     dimensions
        Auxiliary wavefunctions       892.02 Mb     (   34227, 1708)
        Each subspace H/S matrix       44.51 Mb     (    1708, 1708)
        Each <psi_i|beta_j> matrix      5.49 Mb     (     842,  427)
        Arrays for rho mixing         247.19 Mb     ( 2025000,    8)

     Initial potential from superposition of free atoms
     Check: negative starting charge=   -1.730294

     starting charge  711.25682, renormalised to  712.00000

     negative rho (up, down):  1.732E+00 0.000E+00
     Starting wfc are  582 randomized atomic wfcs

     total cpu time spent up to now is      110.0 secs

     per-process dynamical memory:  1040.6 Mb

     Self-consistent Calculation

     iteration #  1     ecut=    50.00 Ry     beta=0.70
     Davidson diagonalization with overlap
     ethr =  1.00E-02,  avg # of iterations =  3.0

     Threshold (ethr) on eigenvalues was too large:
     Diagonalizing with lowered threshold

     Davidson diagonalization with overlap
     ethr =  4.24E-04,  avg # of iterations =  3.0

     negative rho (up, down):  1.713E+00 0.000E+00

     total cpu time spent up to now is      525.3 secs

     total energy              =   -6562.25774472 Ry
     Harris-Foulkes estimate   =   -6564.97032761 Ry
     estimated scf accuracy    <       3.49926046 Ry

     iteration #  2     ecut=    50.00 Ry     beta=0.70
     Davidson diagonalization with overlap
     ethr =  4.91E-04,  avg # of iterations = 11.3

     negative rho (up, down):  1.714E+00 0.000E+00

     total cpu time spent up to now is      956.8 secs

     total energy              =   -6555.22283725 Ry
     Harris-Foulkes estimate   =   -6570.74779721 Ry
     estimated scf accuracy    <      87.12469703 Ry

     iteration #  3     ecut=    50.00 Ry     beta=0.70
     Davidson diagonalization with overlap
     ethr =  4.91E-04,  avg # of iterations =  6.0

     negative rho (up, down):  1.730E+00 0.000E+00

     total cpu time spent up to now is     1326.5 secs

     total energy              =   -6562.75073717 Ry
     Harris-Foulkes estimate   =   -6564.91565235 Ry
     estimated scf accuracy    <       8.98020940 Ry

     iteration #  4     ecut=    50.00 Ry     beta=0.70
     Davidson diagonalization with overlap
     ethr =  4.91E-04,  avg # of iterations =  6.2

     negative rho (up, down):  1.733E+00 0.000E+00

     total cpu time spent up to now is     1556.0 secs

     total energy              =   -6562.64353394 Ry
     Harris-Foulkes estimate   =   -6565.44480971 Ry
     estimated scf accuracy    <      29.94441398 Ry

     iteration #  5     ecut=    50.00 Ry     beta=0.70
     Davidson diagonalization with overlap
     ethr =  4.91E-04,  avg # of iterations =  5.9

     negative rho (up, down):  1.744E+00 0.000E+00

     total cpu time spent up to now is     1780.7 secs

     total energy              =   -6564.07818360 Ry
     Harris-Foulkes estimate   =   -6564.42475866 Ry
     estimated scf accuracy    <       2.04300472 Ry

     iteration #  6     ecut=    50.00 Ry     beta=0.70
     Davidson diagonalization with overlap
     ethr =  2.87E-04,  avg # of iterations =  3.3

     negative rho (up, down):  1.748E+00 0.000E+00

     total cpu time spent up to now is     1989.4 secs

     total energy              =   -6564.17940140 Ry
     Harris-Foulkes estimate   =   -6564.24363656 Ry
     estimated scf accuracy    <       0.19940273 Ry

     iteration #  7     ecut=    50.00 Ry     beta=0.70
     Davidson diagonalization with overlap
     ethr =  2.80E-05,  avg # of iterations =  9.5

     negative rho (up, down):  1.751E+00 0.000E+00

     total cpu time spent up to now is     2238.5 secs

     total energy              =   -6564.19571964 Ry
     Harris-Foulkes estimate   =   -6564.22494880 Ry
     estimated scf accuracy    <       0.12195912 Ry

     iteration #  8     ecut=    50.00 Ry     beta=0.70
     Davidson diagonalization with overlap
     ethr =  1.71E-05,  avg # of iterations =  6.1

     negative rho (up, down):  1.752E+00 0.000E+00

     total cpu time spent up to now is     2440.7 secs

     total energy              =   -6564.19768349 Ry
     Harris-Foulkes estimate   =   -6564.21391312 Ry
     estimated scf accuracy    <       0.05726928 Ry

     iteration #  9     ecut=    50.00 Ry     beta=0.70
     Davidson diagonalization with overlap
     ethr =  8.04E-06,  avg # of iterations =  8.8

     negative rho (up, down):  1.753E+00 0.000E+00

     total cpu time spent up to now is     2670.3 secs

     total energy              =   -6564.19957682 Ry
     Harris-Foulkes estimate   =   -6564.20586740 Ry
     estimated scf accuracy    <       0.01809413 Ry

     iteration # 10     ecut=    50.00 Ry     beta=0.70
     Davidson diagonalization with overlap
     ethr =  2.54E-06,  avg # of iterations =  8.1

     negative rho (up, down):  1.754E+00 0.000E+00

     total cpu time spent up to now is     2892.9 secs

     total energy              =   -6564.20060769 Ry
     Harris-Foulkes estimate   =   -6564.20307264 Ry
     estimated scf accuracy    <       0.00816047 Ry

     iteration # 11     ecut=    50.00 Ry     beta=0.70
     Davidson diagonalization with overlap
     ethr =  1.15E-06,  avg # of iterations =  3.8

     negative rho (up, down):  1.754E+00 0.000E+00

     total cpu time spent up to now is     3102.3 secs

     total energy              =   -6564.20126475 Ry
     Harris-Foulkes estimate   =   -6564.20215002 Ry
     estimated scf accuracy    <       0.00316547 Ry

     iteration # 12     ecut=    50.00 Ry     beta=0.70
     Davidson diagonalization with overlap
     ethr =  4.45E-07,  avg # of iterations =  2.0

     negative rho (up, down):  1.754E+00 0.000E+00

     total cpu time spent up to now is     3294.3 secs

     total energy              =   -6564.20157791 Ry
     Harris-Foulkes estimate   =   -6564.20171682 Ry
     estimated scf accuracy    <       0.00031577 Ry

     iteration # 13     ecut=    50.00 Ry     beta=0.70
     Davidson diagonalization with overlap
     ethr =  4.43E-08,  avg # of iterations =  3.1

     negative rho (up, down):  1.754E+00 0.000E+00

     total cpu time spent up to now is     3558.2 secs

     total energy              =   -6564.20154604 Ry
     Harris-Foulkes estimate   =   -6564.20176506 Ry
     estimated scf accuracy    <       0.00098329 Ry

     iteration # 14     ecut=    50.00 Ry     beta=0.70
     Davidson diagonalization with overlap
     ethr =  4.43E-08,  avg # of iterations =  2.0

     negative rho (up, down):  1.754E+00 0.000E+00

     total cpu time spent up to now is     3780.0 secs

     total energy              =   -6564.20164275 Ry
     Harris-Foulkes estimate   =   -6564.20167694 Ry
     estimated scf accuracy    <       0.00020984 Ry

     iteration # 15     ecut=    50.00 Ry     beta=0.70
     Davidson diagonalization with overlap
     ethr =  2.95E-08,  avg # of iterations =  2.0

     negative rho (up, down):  1.754E+00 0.000E+00

     total cpu time spent up to now is     3968.7 secs

     total energy              =   -6564.20166031 Ry
     Harris-Foulkes estimate   =   -6564.20166341 Ry
     estimated scf accuracy    <       0.00001943 Ry

     iteration # 16     ecut=    50.00 Ry     beta=0.70
     Davidson diagonalization with overlap
     ethr =  2.73E-09,  avg # of iterations =  2.7

     negative rho (up, down):  1.754E+00 0.000E+00

     total cpu time spent up to now is     4169.2 secs

     total energy              =   -6564.20166121 Ry
     Harris-Foulkes estimate   =   -6564.20166288 Ry
     estimated scf accuracy    <       0.00000511 Ry

     iteration # 17     ecut=    50.00 Ry     beta=0.70
     Davidson diagonalization with overlap
     ethr =  7.18E-10,  avg # of iterations =  2.0

     negative rho (up, down):  1.754E+00 0.000E+00

     total cpu time spent up to now is     4366.1 secs

     total energy              =   -6564.20166152 Ry
     Harris-Foulkes estimate   =   -6564.20166297 Ry
     estimated scf accuracy    <       0.00000803 Ry

     iteration # 18     ecut=    50.00 Ry     beta=0.70
     Davidson diagonalization with overlap
     ethr =  7.18E-10,  avg # of iterations =  2.0

     negative rho (up, down):  1.754E+00 0.000E+00

     total cpu time spent up to now is     4554.3 secs

     total energy              =   -6564.20166191 Ry
     Harris-Foulkes estimate   =   -6564.20166270 Ry
     estimated scf accuracy    <       0.00000362 Ry

     iteration # 19     ecut=    50.00 Ry     beta=0.70
     Davidson diagonalization with overlap
     ethr =  5.08E-10,  avg # of iterations =  2.0

     negative rho (up, down):  1.754E+00 0.000E+00

     total cpu time spent up to now is     4739.2 secs

     total energy              =   -6564.20166228 Ry
     Harris-Foulkes estimate   =   -6564.20166235 Ry
     estimated scf accuracy    <       0.00000022 Ry

     iteration # 20     ecut=    50.00 Ry     beta=0.70
     Davidson diagonalization with overlap
     ethr =  3.05E-11,  avg # of iterations =  2.3

     negative rho (up, down):  1.754E+00 0.000E+00

     total cpu time spent up to now is     4974.8 secs

     total energy              =   -6564.20166232 Ry
     Harris-Foulkes estimate   =   -6564.20166234 Ry
     estimated scf accuracy    <       0.00000004 Ry

     iteration # 21     ecut=    50.00 Ry     beta=0.70
     Davidson diagonalization with overlap
     ethr =  5.85E-12,  avg # of iterations =  3.0

     negative rho (up, down):  1.754E+00 0.000E+00

     total cpu time spent up to now is     5197.3 secs

     total energy              =   -6564.20166233 Ry
     Harris-Foulkes estimate   =   -6564.20166234 Ry
     estimated scf accuracy    <       0.00000002 Ry

     iteration # 22     ecut=    50.00 Ry     beta=0.70
     Davidson diagonalization with overlap
     ethr =  3.21E-12,  avg # of iterations =  2.0

     negative rho (up, down):  1.754E+00 0.000E+00

     total cpu time spent up to now is     5394.3 secs

     End of self-consistent calculation

          k = 0.2500 0.4330 0.1111 (136853 PWs)   bands (ev):

   -18.9673  -6.8349  -6.3452  -5.9462  -5.9454  -5.2702  -4.9225  -4.9223
    -4.8970  -4.8948  -4.4748  -4.4742  -4.3928  -4.3545  -4.3488  -4.3484
    -4.3086  -4.1907  -4.1898  -4.1452  -4.0994  -4.0991  -4.0977  -4.0971
    -4.0485  -4.0477  -4.0192  -4.0185  -3.9980  -3.9843  -3.9792  -3.9014
    -3.9007  -3.8825  -3.8820  -3.8398  -3.8384  -3.8378  -3.8170  -3.8166
    -3.8135  -3.7404  -3.7394  -3.6778  -3.6767  -3.6647  -3.6623  -3.6028
    -3.5995  -3.5693  -3.5692  -3.5316  -3.5222  -3.5196  -3.4987  -3.4974
    -3.4954  -3.4944  -3.4880  -3.4687  -3.4112  -3.4055  -3.4031  -3.3810
    -3.3468  -3.3197  -3.3184  -3.2665  -3.2640  -3.2437  -3.2381  -3.2094
    -3.1867  -3.1602  -3.1477  -3.1164  -3.1097  -3.0993  -3.0730  -3.0694
    -3.0488  -3.0255  -2.9959  -2.9939  -2.9745  -2.9715  -2.9685  -2.9681
    -2.9671  -2.9624  -2.9570  -2.9039  -2.8457  -2.8445  -2.8441  -2.8430
    -2.8383  -2.8181  -2.8174  -2.7987  -2.7237  -2.7223  -2.7216  -2.7149
    -2.6666  -2.6608  -2.6606  -2.6417  -2.6399  -2.5876  -2.5724  -2.5705
    -2.5676  -2.5270  -2.5264  -2.5248  -2.4850  -2.4839  -2.4318  -2.4066
    -2.4053  -2.4024  -2.4001  -2.3799  -2.3786  -2.3746  -2.3684  -2.3670
    -2.3319  -2.2987  -2.2964  -2.2901  -2.2885  -2.2883  -2.2869  -2.2860
    -2.2852  -2.2736  -2.2506  -2.2500  -2.2492  -2.2467  -2.2460  -2.2330
    -2.2314  -2.2282  -2.2028  -2.1998  -2.1985  -2.1777  -2.1763  -2.1592
    -2.1571  -2.1343  -2.1304  -2.1297  -2.1288  -2.1245  -2.1214  -2.1208
    -2.1202  -2.1065  -2.1052  -2.0929  -2.0868  -2.0852  -2.0042  -2.0036
    -1.9889  -1.9882  -1.9727  -1.9701  -1.9523  -1.9388  -1.9365  -1.9186
    -1.9035  -1.8982  -1.8963  -1.8881  -1.8659  -1.8631  -1.8588  -1.8578
    -1.8522  -1.8427  -1.8158  -1.7854  -1.7699  -1.7640  -1.7504  -1.7429
    -1.7381  -1.6780  -1.6772  -1.6674  -1.6658  -1.5982  -1.5970  -1.5615
    -1.5428  -1.5361  -1.5133  -1.5035  -1.4865  -1.4751  -1.4730  -1.4558
    -1.4552  -1.4527  -1.4411  -1.4347  -1.3980  -1.3969  -1.3949  -1.3911
    -1.3876  -1.3642  -1.3579  -1.3566  -1.3255  -1.3204  -1.3108  -1.3079
    -1.3054  -1.3008  -1.2809  -1.2715  -1.2531  -1.2529  -1.2489  -1.2430
    -1.2314  -1.1868  -1.1766  -1.1717  -1.1669  -1.1546  -1.1467  -1.1125
    -1.0744  -1.0635  -1.0168  -1.0151  -1.0132  -1.0092  -1.0069  -1.0044
    -0.9989  -0.9926  -0.9666  -0.9432  -0.9397  -0.9264  -0.9218  -0.9094
    -0.8957  -0.8923  -0.8836  -0.8807  -0.8793  -0.8787  -0.8708  -0.8356
    -0.8290  -0.8217  -0.8210  -0.8134  -0.8080  -0.7995  -0.7727  -0.7660
    -0.7540  -0.7336  -0.7192  -0.7012  -0.6772  -0.6676  -0.6619  -0.6613
    -0.6537  -0.6505  -0.6439  -0.6425  -0.6401  -0.6252  -0.6117  -0.6091
    -0.6002  -0.5991  -0.5879  -0.5767  -0.5585  -0.5575  -0.5515  -0.5291
    -0.5235  -0.5114  -0.5023  -0.4591  -0.4577  -0.4570  -0.4525  -0.4468
    -0.4432  -0.4361  -0.4229  -0.4195  -0.4106  -0.4089  -0.4073  -0.3977
    -0.3662  -0.3643  -0.3635  -0.3563  -0.3554  -0.3494  -0.3474  -0.3357
    -0.3292  -0.3278  -0.3180  -0.2967  -0.2939  -0.2885  -0.2736  -0.2712
    -0.2223  -0.2183  -0.1923  -0.1915  -0.1829  -0.1821  -0.1501  -0.1404
    -0.1400  -0.1212  -0.1202  -0.0939  -0.0412  -0.0353   0.0718   0.4716
     0.4732   0.4983   0.4987   0.5593   0.5745   0.9083   0.9114   0.9228
     0.9275   1.1008   1.1662   1.2520   1.2629   1.5120   1.5287   2.0938
     2.1009   2.2240   2.2329   2.4354   2.4455   2.5089   2.5098   2.5977
     2.8721   2.8876   3.0554   3.2680   3.2719   3.2992   3.3029   3.3669
     3.4661   3.6294   3.6347   3.6738   3.9163   3.9176   3.9859   3.9926
     4.2310   4.2379   4.2654   4.4508   4.4575   4.5159   4.6006   4.8875
     4.9257   4.9283   5.1151   5.2105   5.2122   5.3168   5.3285   5.8749
     5.9380   5.9973   6.0031   6.0773   6.0808   6.1536   6.2099   6.2188
     6.2342   6.2385   6.2679   6.2989   6.3065   6.3133   6.3251   6.3927
     6.5414   6.8024   6.8863   6.9272   6.9301   6.9480   6.9554   7.0866
     7.1360   7.1499   7.1844

          k = 0.2500-0.1443 0.1111 (136898 PWs)   bands (ev):

   -18.9673  -6.8361  -6.5537  -5.7617  -5.4737  -5.4084  -5.4075  -4.8515
    -4.8511  -4.7395  -4.7017  -4.5532  -4.4830  -4.4516  -4.4494  -4.4017
    -4.3316  -4.3312  -4.1941  -4.1518  -4.1517  -4.1333  -4.1314  -4.1290
    -4.0086  -4.0084  -3.9302  -3.9181  -3.9166  -3.9162  -3.8961  -3.8957
    -3.8333  -3.7743  -3.7743  -3.7629  -3.7522  -3.7519  -3.7418  -3.7404
    -3.7335  -3.6866  -3.6852  -3.6750  -3.6746  -3.6649  -3.6639  -3.6355
    -3.6280  -3.6276  -3.6007  -3.5963  -3.5770  -3.5752  -3.5546  -3.5110
    -3.5109  -3.4515  -3.4504  -3.4319  -3.4289  -3.4135  -3.3384  -3.3377
    -3.3311  -3.3288  -3.3155  -3.3131  -3.2905  -3.2898  -3.1570  -3.1377
    -3.1317  -3.1209  -3.1169  -3.0929  -3.0760  -3.0752  -3.0720  -3.0497
    -3.0154  -3.0089  -2.9966  -2.9931  -2.9570  -2.9356  -2.9333  -2.9117
    -2.9042  -2.9031  -2.8596  -2.8584  -2.8396  -2.8390  -2.8337  -2.8313
    -2.8098  -2.8086  -2.7653  -2.7631  -2.7585  -2.7575  -2.7423  -2.6967
    -2.6944  -2.6708  -2.6627  -2.6610  -2.5855  -2.5826  -2.5539  -2.5528
    -2.5468  -2.5368  -2.5142  -2.4885  -2.4873  -2.4709  -2.4660  -2.4652
    -2.4621  -2.4520  -2.4439  -2.4414  -2.4339  -2.4324  -2.4257  -2.4235
    -2.3710  -2.3478  -2.3265  -2.3249  -2.3239  -2.3086  -2.3065  -2.3054
    -2.3041  -2.2942  -2.2631  -2.2622  -2.2504  -2.2464  -2.2334  -2.2324
    -2.2316  -2.2073  -2.2062  -2.1956  -2.1865  -2.1856  -2.1315  -2.1169
    -2.1072  -2.1051  -2.1044  -2.0877  -2.0862  -2.0699  -2.0501  -2.0498
    -2.0475  -2.0450  -2.0379  -2.0268  -2.0245  -2.0088  -1.9985  -1.9944
    -1.9481  -1.9454  -1.9440  -1.9400  -1.9374  -1.9339  -1.9260  -1.9234
    -1.9211  -1.9191  -1.9052  -1.9047  -1.9029  -1.8019  -1.7898  -1.7741
    -1.7602  -1.7573  -1.7459  -1.7310  -1.7290  -1.7255  -1.7200  -1.7102
    -1.6997  -1.6985  -1.6966  -1.6951  -1.6579  -1.6560  -1.6543  -1.6315
    -1.6259  -1.6219  -1.6196  -1.6141  -1.6076  -1.5527  -1.5465  -1.5241
    -1.5208  -1.5132  -1.5085  -1.4959  -1.4849  -1.4827  -1.4793  -1.4789
    -1.4769  -1.4662  -1.4633  -1.4527  -1.4201  -1.4062  -1.3800  -1.3769
    -1.3652  -1.3433  -1.3272  -1.3025  -1.2945  -1.2825  -1.2818  -1.2772
    -1.2698  -1.2541  -1.2357  -1.2329  -1.2026  -1.2001  -1.1925  -1.1826
    -1.1503  -1.1487  -1.1355  -1.1093  -1.0851  -1.0797  -1.0769  -1.0720
    -1.0588  -1.0518  -1.0410  -1.0267  -1.0101  -0.9985  -0.9782  -0.9767
    -0.9735  -0.9342  -0.9278  -0.9244  -0.9175  -0.9165  -0.9109  -0.9088
    -0.9004  -0.8778  -0.8737  -0.8721  -0.8597  -0.8536  -0.8511  -0.8366
    -0.8299  -0.8181  -0.7979  -0.7873  -0.7655  -0.7033  -0.6886  -0.6877
    -0.6857  -0.6813  -0.6794  -0.6767  -0.6517  -0.6437  -0.6304  -0.6258
    -0.6225  -0.6064  -0.6030  -0.5893  -0.5855  -0.5697  -0.5623  -0.4878
    -0.4861  -0.4616  -0.4539  -0.4503  -0.4452  -0.4423  -0.4406  -0.4392
    -0.4344  -0.4297  -0.3939  -0.3822  -0.3709  -0.3534  -0.3513  -0.3445
    -0.3426  -0.3366  -0.3317  -0.3297  -0.3259  -0.3210  -0.3082  -0.3048
    -0.3013  -0.2733  -0.2727  -0.2704  -0.2543  -0.2527  -0.2314  -0.2061
    -0.2056  -0.1959  -0.1948  -0.1281  -0.1262  -0.1110  -0.1107  -0.0481
    -0.0469  -0.0458  -0.0313  -0.0211   0.1882   0.2124   0.5344   0.5348
     0.6057   0.6245   0.7613   0.7917   0.8289   0.9432   0.9508   1.3244
     1.3923   1.3926   1.6256   1.6271   1.6845   1.9839   2.0031   2.0233
     2.0276   2.0579   2.0747   2.2162   2.2203   2.3936   2.3943   2.4065
     2.5424   2.5624   2.5975   2.8071   3.1677   3.1755   3.2099   3.2149
     3.2202   3.2285   3.5489   3.5510   3.8745   3.8912   3.9547   4.2193
     4.3398   4.3507   4.5197   4.5626   4.6347   4.6358   4.7144   4.8743
     4.8791   4.9679   4.9740   5.2581   5.3162   5.3233   5.4759   5.5317
     5.6599   5.6655   5.6681   5.6721   5.7938   5.8114   5.8352   5.8888
     6.2821   6.3953   6.4536   6.4874   6.4913   6.4969   6.5053   6.6577
     6.7031   6.7166   6.7879   6.7945   7.0288   7.0483   7.0791   7.2090
     7.3361   7.3631   7.3834

          k =-0.2500-0.4330 0.1111 (136853 PWs)   bands (ev):

   -18.9673  -6.8349  -6.3452  -5.9462  -5.9454  -5.2702  -4.9225  -4.9223
    -4.8970  -4.8948  -4.4748  -4.4742  -4.3928  -4.3545  -4.3488  -4.3484
    -4.3086  -4.1907  -4.1898  -4.1452  -4.0994  -4.0991  -4.0977  -4.0971
    -4.0485  -4.0477  -4.0192  -4.0185  -3.9980  -3.9843  -3.9792  -3.9014
    -3.9007  -3.8825  -3.8820  -3.8398  -3.8384  -3.8378  -3.8170  -3.8166
    -3.8135  -3.7404  -3.7394  -3.6778  -3.6767  -3.6647  -3.6623  -3.6028
    -3.5995  -3.5693  -3.5692  -3.5316  -3.5222  -3.5196  -3.4987  -3.4974
    -3.4954  -3.4944  -3.4880  -3.4687  -3.4112  -3.4055  -3.4031  -3.3810
    -3.3468  -3.3197  -3.3184  -3.2665  -3.2640  -3.2437  -3.2381  -3.2094
    -3.1867  -3.1602  -3.1477  -3.1164  -3.1097  -3.0993  -3.0730  -3.0694
    -3.0488  -3.0255  -2.9959  -2.9939  -2.9745  -2.9715  -2.9685  -2.9681
    -2.9671  -2.9624  -2.9570  -2.9039  -2.8457  -2.8445  -2.8441  -2.8430
    -2.8383  -2.8181  -2.8174  -2.7987  -2.7237  -2.7223  -2.7216  -2.7149
    -2.6666  -2.6608  -2.6606  -2.6417  -2.6399  -2.5876  -2.5724  -2.5705
    -2.5676  -2.5270  -2.5264  -2.5248  -2.4850  -2.4839  -2.4318  -2.4066
    -2.4053  -2.4024  -2.4001  -2.3799  -2.3786  -2.3746  -2.3684  -2.3670
    -2.3319  -2.2987  -2.2964  -2.2901  -2.2885  -2.2883  -2.2869  -2.2860
    -2.2852  -2.2736  -2.2506  -2.2500  -2.2492  -2.2467  -2.2460  -2.2330
    -2.2314  -2.2282  -2.2028  -2.1998  -2.1985  -2.1777  -2.1763  -2.1592
    -2.1571  -2.1343  -2.1304  -2.1297  -2.1288  -2.1245  -2.1214  -2.1208
    -2.1202  -2.1065  -2.1052  -2.0929  -2.0868  -2.0852  -2.0042  -2.0036
    -1.9889  -1.9882  -1.9727  -1.9701  -1.9523  -1.9388  -1.9365  -1.9186
    -1.9036  -1.8982  -1.8963  -1.8881  -1.8659  -1.8631  -1.8588  -1.8578
    -1.8522  -1.8427  -1.8158  -1.7854  -1.7699  -1.7640  -1.7504  -1.7429
    -1.7381  -1.6780  -1.6772  -1.6674  -1.6658  -1.5982  -1.5970  -1.5615
    -1.5428  -1.5361  -1.5133  -1.5035  -1.4865  -1.4751  -1.4730  -1.4558
    -1.4552  -1.4527  -1.4411  -1.4347  -1.3980  -1.3969  -1.3949  -1.3911
    -1.3876  -1.3642  -1.3579  -1.3566  -1.3255  -1.3204  -1.3108  -1.3079
    -1.3054  -1.3008  -1.2809  -1.2715  -1.2531  -1.2529  -1.2489  -1.2430
    -1.2314  -1.1868  -1.1766  -1.1717  -1.1669  -1.1546  -1.1467  -1.1125
    -1.0744  -1.0635  -1.0168  -1.0151  -1.0132  -1.0092  -1.0069  -1.0044
    -0.9989  -0.9926  -0.9666  -0.9432  -0.9397  -0.9264  -0.9218  -0.9094
    -0.8957  -0.8923  -0.8836  -0.8807  -0.8793  -0.8787  -0.8708  -0.8356
    -0.8290  -0.8217  -0.8210  -0.8134  -0.8080  -0.7995  -0.7727  -0.7660
    -0.7540  -0.7336  -0.7192  -0.7012  -0.6772  -0.6676  -0.6619  -0.6613
    -0.6537  -0.6505  -0.6439  -0.6425  -0.6401  -0.6252  -0.6117  -0.6091
    -0.6002  -0.5991  -0.5879  -0.5767  -0.5585  -0.5575  -0.5515  -0.5291
    -0.5235  -0.5114  -0.5023  -0.4591  -0.4577  -0.4570  -0.4525  -0.4468
    -0.4432  -0.4361  -0.4229  -0.4195  -0.4106  -0.4089  -0.4073  -0.3977
    -0.3662  -0.3643  -0.3635  -0.3563  -0.3554  -0.3494  -0.3474  -0.3357
    -0.3292  -0.3278  -0.3180  -0.2967  -0.2939  -0.2885  -0.2736  -0.2712
    -0.2223  -0.2183  -0.1923  -0.1915  -0.1829  -0.1821  -0.1501  -0.1404
    -0.1400  -0.1212  -0.1202  -0.0939  -0.0412  -0.0353   0.0718   0.4716
     0.4732   0.4983   0.4987   0.5593   0.5745   0.9083   0.9114   0.9228
     0.9275   1.1008   1.1662   1.2520   1.2629   1.5120   1.5287   2.0938
     2.1009   2.2240   2.2329   2.4354   2.4455   2.5089   2.5098   2.5977
     2.8721   2.8876   3.0554   3.2680   3.2719   3.2992   3.3029   3.3669
     3.4661   3.6295   3.6347   3.6738   3.9163   3.9176   3.9859   3.9926
     4.2310   4.2379   4.2654   4.4508   4.4575   4.5159   4.6006   4.8875
     4.9257   4.9283   5.1151   5.2105   5.2122   5.3168   5.3285   5.8750
     5.9380   5.9972   6.0031   6.0774   6.0808   6.1536   6.2090   6.2187
     6.2341   6.2384   6.2680   6.2989   6.3065   6.3133   6.3251   6.3924
     6.5460   6.8006   6.8865   6.9207   6.9354   6.9452   6.9550   7.0862
     7.1267   7.1523   7.1837

          k =-0.2500 0.4330-0.1111 (136853 PWs)   bands (ev):

   -18.9673  -6.8349  -6.3452  -5.9471  -5.9445  -5.2702  -4.9231  -4.9217
    -4.8978  -4.8941  -4.4753  -4.4736  -4.3929  -4.3544  -4.3487  -4.3483
    -4.3085  -4.1915  -4.1892  -4.1453  -4.0993  -4.0991  -4.0984  -4.0963
    -4.0488  -4.0477  -4.0205  -4.0175  -3.9980  -3.9842  -3.9792  -3.9019
    -3.8999  -3.8825  -3.8819  -3.8404  -3.8384  -3.8373  -3.8172  -3.8164
    -3.8134  -3.7406  -3.7392  -3.6785  -3.6759  -3.6648  -3.6622  -3.6029
    -3.5991  -3.5693  -3.5692  -3.5318  -3.5226  -3.5196  -3.4989  -3.4974
    -3.4956  -3.4943  -3.4880  -3.4690  -3.4112  -3.4053  -3.4030  -3.3809
    -3.3465  -3.3209  -3.3187  -3.2668  -3.2633  -3.2425  -3.2372  -3.2094
    -3.1874  -3.1611  -3.1477  -3.1127  -3.1097  -3.1036  -3.0713  -3.0699
    -3.0494  -3.0252  -2.9970  -2.9926  -2.9760  -2.9715  -2.9682  -2.9676
    -2.9667  -2.9622  -2.9571  -2.9036  -2.8464  -2.8444  -2.8436  -2.8433
    -2.8384  -2.8185  -2.8175  -2.7982  -2.7241  -2.7219  -2.7208  -2.7152
    -2.6665  -2.6613  -2.6599  -2.6405  -2.6398  -2.5877  -2.5726  -2.5715
    -2.5673  -2.5280  -2.5259  -2.5251  -2.4850  -2.4842  -2.4316  -2.4061
    -2.4056  -2.4020  -2.4001  -2.3800  -2.3781  -2.3747  -2.3691  -2.3660
    -2.3319  -2.2990  -2.2965  -2.2895  -2.2883  -2.2875  -2.2866  -2.2862
    -2.2848  -2.2768  -2.2514  -2.2499  -2.2494  -2.2480  -2.2456  -2.2330
    -2.2296  -2.2279  -2.2026  -2.1996  -2.1989  -2.1776  -2.1749  -2.1584
    -2.1565  -2.1348  -2.1308  -2.1300  -2.1286  -2.1251  -2.1220  -2.1201
    -2.1195  -2.1068  -2.1053  -2.0929  -2.0868  -2.0851  -2.0054  -2.0034
    -1.9896  -1.9873  -1.9733  -1.9695  -1.9500  -1.9381  -1.9358  -1.9182
    -1.9058  -1.8982  -1.8939  -1.8883  -1.8677  -1.8622  -1.8599  -1.8568
    -1.8527  -1.8432  -1.8161  -1.7888  -1.7714  -1.7634  -1.7528  -1.7397
    -1.7386  -1.6789  -1.6763  -1.6670  -1.6649  -1.5989  -1.5971  -1.5590
    -1.5454  -1.5365  -1.5095  -1.5025  -1.4885  -1.4748  -1.4674  -1.4568
    -1.4550  -1.4529  -1.4376  -1.4331  -1.4005  -1.3968  -1.3959  -1.3897
    -1.3872  -1.3686  -1.3591  -1.3567  -1.3273  -1.3209  -1.3098  -1.3062
    -1.3051  -1.3027  -1.2804  -1.2630  -1.2535  -1.2518  -1.2495  -1.2469
    -1.2318  -1.1895  -1.1837  -1.1705  -1.1670  -1.1560  -1.1461  -1.1146
    -1.0747  -1.0633  -1.0158  -1.0141  -1.0133  -1.0108  -1.0081  -1.0041
    -0.9981  -0.9912  -0.9664  -0.9414  -0.9396  -0.9260  -0.9179  -0.9084
    -0.8959  -0.8922  -0.8845  -0.8824  -0.8791  -0.8780  -0.8739  -0.8372
    -0.8260  -0.8219  -0.8206  -0.8127  -0.8076  -0.8007  -0.7710  -0.7664
    -0.7513  -0.7341  -0.7202  -0.7044  -0.6773  -0.6708  -0.6624  -0.6598
    -0.6540  -0.6521  -0.6446  -0.6421  -0.6398  -0.6246  -0.6113  -0.6083
    -0.6004  -0.5992  -0.5875  -0.5785  -0.5583  -0.5574  -0.5524  -0.5284
    -0.5230  -0.5128  -0.5079  -0.4593  -0.4582  -0.4562  -0.4518  -0.4454
    -0.4438  -0.4329  -0.4234  -0.4206  -0.4112  -0.4091  -0.4073  -0.3976
    -0.3659  -0.3648  -0.3623  -0.3576  -0.3548  -0.3498  -0.3474  -0.3383
    -0.3298  -0.3283  -0.3125  -0.2965  -0.2948  -0.2884  -0.2747  -0.2710
    -0.2215  -0.2182  -0.1924  -0.1908  -0.1836  -0.1807  -0.1500  -0.1405
    -0.1396  -0.1231  -0.1207  -0.0929  -0.0424  -0.0281   0.0747   0.4718
     0.4735   0.4976   0.4988   0.5560   0.5791   0.9057   0.9122   0.9223
     0.9285   1.1024   1.1645   1.2484   1.2643   1.5066   1.5325   2.0922
     2.1037   2.2217   2.2366   2.4321   2.4513   2.5091   2.5098   2.5972
     2.8709   2.8886   3.0525   3.2598   3.2743   3.2991   3.3063   3.3650
     3.4661   3.6157   3.6447   3.6760   3.9154   3.9186   3.9873   3.9967
     4.2266   4.2421   4.2641   4.4504   4.4603   4.5166   4.5994   4.8885
     4.9193   4.9319   5.1184   5.2106   5.2133   5.3076   5.3403   5.8779
     5.9405   5.9876   6.0077   6.0732   6.0823   6.1531   6.1954   6.2267
     6.2353   6.2435   6.2686   6.3009   6.3055   6.3114   6.3415   6.3753
     6.5474   6.7986   6.8824   6.9184   6.9368   6.9496   6.9575   7.0859
     7.1296   7.1692   7.1821

          k = 0.2500-0.4330-0.1111 (136853 PWs)   bands (ev):

   -18.9673  -6.8349  -6.3452  -5.9471  -5.9445  -5.2702  -4.9231  -4.9217
    -4.8978  -4.8941  -4.4753  -4.4736  -4.3929  -4.3544  -4.3487  -4.3483
    -4.3085  -4.1915  -4.1892  -4.1453  -4.0993  -4.0991  -4.0984  -4.0963
    -4.0488  -4.0477  -4.0205  -4.0175  -3.9980  -3.9842  -3.9792  -3.9019
    -3.8999  -3.8825  -3.8819  -3.8404  -3.8384  -3.8373  -3.8172  -3.8164
    -3.8134  -3.7406  -3.7392  -3.6785  -3.6759  -3.6648  -3.6622  -3.6029
    -3.5991  -3.5693  -3.5692  -3.5318  -3.5226  -3.5196  -3.4989  -3.4974
    -3.4956  -3.4943  -3.4880  -3.4690  -3.4112  -3.4053  -3.4030  -3.3809
    -3.3465  -3.3209  -3.3187  -3.2668  -3.2633  -3.2425  -3.2372  -3.2094
    -3.1874  -3.1611  -3.1477  -3.1127  -3.1097  -3.1036  -3.0713  -3.0699
    -3.0494  -3.0252  -2.9970  -2.9926  -2.9760  -2.9715  -2.9682  -2.9676
    -2.9667  -2.9622  -2.9571  -2.9036  -2.8464  -2.8444  -2.8436  -2.8433
    -2.8384  -2.8185  -2.8175  -2.7982  -2.7241  -2.7219  -2.7208  -2.7152
    -2.6665  -2.6613  -2.6599  -2.6405  -2.6398  -2.5877  -2.5726  -2.5715
    -2.5673  -2.5280  -2.5259  -2.5251  -2.4850  -2.4842  -2.4316  -2.4061
    -2.4056  -2.4020  -2.4001  -2.3800  -2.3781  -2.3747  -2.3691  -2.3660
    -2.3319  -2.2990  -2.2965  -2.2895  -2.2883  -2.2875  -2.2866  -2.2862
    -2.2848  -2.2768  -2.2514  -2.2499  -2.2494  -2.2480  -2.2456  -2.2330
    -2.2296  -2.2279  -2.2026  -2.1996  -2.1989  -2.1776  -2.1749  -2.1584
    -2.1565  -2.1348  -2.1308  -2.1301  -2.1286  -2.1251  -2.1220  -2.1201
    -2.1195  -2.1068  -2.1053  -2.0929  -2.0868  -2.0851  -2.0054  -2.0034
    -1.9896  -1.9873  -1.9733  -1.9695  -1.9500  -1.9381  -1.9358  -1.9182
    -1.9058  -1.8982  -1.8939  -1.8883  -1.8677  -1.8622  -1.8599  -1.8568
    -1.8527  -1.8432  -1.8161  -1.7888  -1.7714  -1.7634  -1.7528  -1.7397
    -1.7386  -1.6789  -1.6763  -1.6670  -1.6649  -1.5989  -1.5971  -1.5590
    -1.5454  -1.5365  -1.5095  -1.5025  -1.4885  -1.4748  -1.4674  -1.4568
    -1.4550  -1.4529  -1.4376  -1.4331  -1.4005  -1.3968  -1.3959  -1.3897
    -1.3872  -1.3686  -1.3591  -1.3567  -1.3273  -1.3209  -1.3098  -1.3062
    -1.3051  -1.3027  -1.2804  -1.2630  -1.2535  -1.2518  -1.2495  -1.2469
    -1.2318  -1.1895  -1.1837  -1.1705  -1.1670  -1.1560  -1.1461  -1.1146
    -1.0747  -1.0633  -1.0158  -1.0141  -1.0133  -1.0108  -1.0081  -1.0041
    -0.9981  -0.9912  -0.9664  -0.9414  -0.9396  -0.9260  -0.9179  -0.9084
    -0.8959  -0.8922  -0.8845  -0.8824  -0.8791  -0.8780  -0.8739  -0.8372
    -0.8260  -0.8219  -0.8206  -0.8127  -0.8076  -0.8007  -0.7710  -0.7664
    -0.7513  -0.7341  -0.7202  -0.7044  -0.6773  -0.6708  -0.6624  -0.6598
    -0.6540  -0.6521  -0.6446  -0.6421  -0.6398  -0.6246  -0.6113  -0.6083
    -0.6004  -0.5992  -0.5875  -0.5785  -0.5583  -0.5574  -0.5524  -0.5284
    -0.5230  -0.5128  -0.5079  -0.4593  -0.4582  -0.4562  -0.4518  -0.4454
    -0.4438  -0.4329  -0.4234  -0.4206  -0.4112  -0.4091  -0.4073  -0.3976
    -0.3659  -0.3648  -0.3623  -0.3576  -0.3548  -0.3498  -0.3474  -0.3383
    -0.3298  -0.3283  -0.3125  -0.2965  -0.2948  -0.2884  -0.2747  -0.2710
    -0.2215  -0.2182  -0.1924  -0.1908  -0.1836  -0.1807  -0.1500  -0.1405
    -0.1396  -0.1231  -0.1207  -0.0929  -0.0424  -0.0281   0.0747   0.4718
     0.4735   0.4976   0.4988   0.5560   0.5791   0.9057   0.9122   0.9223
     0.9285   1.1024   1.1645   1.2484   1.2643   1.5066   1.5325   2.0922
     2.1037   2.2217   2.2366   2.4321   2.4513   2.5091   2.5098   2.5972
     2.8709   2.8886   3.0525   3.2598   3.2743   3.2991   3.3063   3.3650
     3.4661   3.6157   3.6447   3.6760   3.9154   3.9186   3.9873   3.9967
     4.2266   4.2421   4.2641   4.4504   4.4603   4.5166   4.5994   4.8885
     4.9193   4.9319   5.1184   5.2106   5.2133   5.3076   5.3403   5.8780
     5.9405   5.9876   6.0077   6.0731   6.0823   6.1531   6.1948   6.2269
     6.2354   6.2437   6.2683   6.3011   6.3057   6.3114   6.3417   6.3757
     6.5444   6.8048   6.8813   6.9176   6.9335   6.9533   6.9577   7.0857
     7.1289   7.1774   7.1878

          k = 0.5000 0.0000 0.1111 (136853 PWs)   bands (ev):

   -18.9673  -6.8349  -6.3451  -5.9469  -5.9447  -5.2700  -4.9238  -4.9212
    -4.8983  -4.8937  -4.4756  -4.4730  -4.3928  -4.3543  -4.3486  -4.3481
    -4.3084  -4.1914  -4.1899  -4.1458  -4.1006  -4.0993  -4.0987  -4.0957
    -4.0489  -4.0471  -4.0205  -4.0174  -3.9980  -3.9855  -3.9779  -3.9023
    -3.8997  -3.8826  -3.8815  -3.8391  -3.8385  -3.8379  -3.8172  -3.8165
    -3.8135  -3.7401  -3.7391  -3.6785  -3.6758  -3.6628  -3.6617  -3.6003
    -3.5991  -3.5695  -3.5692  -3.5317  -3.5204  -3.5190  -3.5072  -3.4970
    -3.4965  -3.4940  -3.4883  -3.4692  -3.4162  -3.4036  -3.4028  -3.3798
    -3.3467  -3.3238  -3.3184  -3.2734  -3.2626  -3.2385  -3.2379  -3.2093
    -3.1829  -3.1514  -3.1476  -3.1184  -3.1102  -3.0995  -3.0735  -3.0695
    -3.0518  -3.0263  -2.9984  -2.9931  -2.9748  -2.9726  -2.9682  -2.9673
    -2.9663  -2.9596  -2.9559  -2.9041  -2.8459  -2.8447  -2.8441  -2.8417
    -2.8377  -2.8188  -2.8161  -2.7993  -2.7244  -2.7228  -2.7215  -2.7157
    -2.6666  -2.6614  -2.6601  -2.6421  -2.6386  -2.5877  -2.5719  -2.5707
    -2.5680  -2.5273  -2.5260  -2.5249  -2.4853  -2.4835  -2.4312  -2.4063
    -2.4049  -2.4033  -2.4016  -2.3800  -2.3776  -2.3744  -2.3688  -2.3668
    -2.3320  -2.2988  -2.2957  -2.2897  -2.2887  -2.2872  -2.2864  -2.2861
    -2.2849  -2.2729  -2.2513  -2.2509  -2.2491  -2.2483  -2.2461  -2.2331
    -2.2295  -2.2274  -2.2028  -2.2002  -2.1981  -2.1780  -2.1767  -2.1604
    -2.1563  -2.1383  -2.1304  -2.1293  -2.1277  -2.1255  -2.1226  -2.1198
    -2.1193  -2.1065  -2.1049  -2.0931  -2.0871  -2.0837  -2.0048  -2.0032
    -1.9892  -1.9877  -1.9710  -1.9688  -1.9545  -1.9417  -1.9362  -1.9189
    -1.9095  -1.8968  -1.8953  -1.8881  -1.8689  -1.8626  -1.8595  -1.8573
    -1.8512  -1.8426  -1.8158  -1.7847  -1.7673  -1.7637  -1.7496  -1.7425
    -1.7378  -1.6790  -1.6762  -1.6671  -1.6649  -1.5991  -1.5967  -1.5590
    -1.5482  -1.5344  -1.5130  -1.5035  -1.4858  -1.4747  -1.4652  -1.4554
    -1.4548  -1.4532  -1.4374  -1.4340  -1.3986  -1.3978  -1.3937  -1.3923
    -1.3872  -1.3670  -1.3586  -1.3576  -1.3322  -1.3183  -1.3117  -1.3084
    -1.3053  -1.3025  -1.2805  -1.2676  -1.2541  -1.2515  -1.2494  -1.2441
    -1.2304  -1.1874  -1.1798  -1.1721  -1.1668  -1.1562  -1.1471  -1.1111
    -1.0780  -1.0621  -1.0168  -1.0157  -1.0133  -1.0092  -1.0062  -1.0034
    -0.9984  -0.9940  -0.9599  -0.9435  -0.9396  -0.9271  -0.9211  -0.9086
    -0.8957  -0.8925  -0.8863  -0.8812  -0.8793  -0.8785  -0.8687  -0.8351
    -0.8286  -0.8220  -0.8211  -0.8164  -0.8089  -0.7951  -0.7712  -0.7666
    -0.7536  -0.7366  -0.7199  -0.7046  -0.6774  -0.6695  -0.6624  -0.6604
    -0.6536  -0.6511  -0.6444  -0.6425  -0.6396  -0.6232  -0.6116  -0.6105
    -0.5993  -0.5982  -0.5882  -0.5765  -0.5607  -0.5571  -0.5527  -0.5290
    -0.5234  -0.5107  -0.4969  -0.4590  -0.4576  -0.4563  -0.4524  -0.4456
    -0.4431  -0.4376  -0.4227  -0.4193  -0.4110  -0.4093  -0.4072  -0.3991
    -0.3660  -0.3642  -0.3630  -0.3566  -0.3557  -0.3494  -0.3479  -0.3340
    -0.3294  -0.3278  -0.3174  -0.2976  -0.2940  -0.2886  -0.2739  -0.2724
    -0.2225  -0.2179  -0.1923  -0.1912  -0.1833  -0.1814  -0.1501  -0.1407
    -0.1396  -0.1212  -0.1197  -0.0952  -0.0420  -0.0349   0.0717   0.4718
     0.4738   0.4978   0.4989   0.5598   0.5732   0.9091   0.9123   0.9213
     0.9273   1.1014   1.1663   1.2505   1.2644   1.5088   1.5314   2.0949
     2.1007   2.2215   2.2351   2.4322   2.4482   2.5091   2.5096   2.5976
     2.8728   2.8887   3.0553   3.2627   3.2755   3.2997   3.3042   3.3675
     3.4661   3.6134   3.6480   3.6750   3.9156   3.9183   3.9836   3.9961
     4.2273   4.2417   4.2652   4.4495   4.4582   4.5162   4.6003   4.8886
     4.9244   4.9289   5.1120   5.2089   5.2137   5.2942   5.3490   5.8924
     5.9357   5.9940   6.0067   6.0752   6.0819   6.1559   6.1972   6.2196
     6.2343   6.2434   6.2596   6.2883   6.3069   6.3120   6.3324   6.4010
     6.5401   6.7964   6.8876   6.9225   6.9348   6.9472   6.9600   7.0903
     7.1270   7.1639   7.1869

          k =-0.5000 0.0000 0.1111 (136853 PWs)   bands (ev):

   -18.9673  -6.8349  -6.3451  -5.9469  -5.9447  -5.2700  -4.9238  -4.9212
    -4.8983  -4.8937  -4.4756  -4.4730  -4.3928  -4.3543  -4.3486  -4.3481
    -4.3084  -4.1914  -4.1899  -4.1458  -4.1006  -4.0993  -4.0987  -4.0957
    -4.0489  -4.0471  -4.0205  -4.0174  -3.9980  -3.9855  -3.9779  -3.9023
    -3.8997  -3.8826  -3.8815  -3.8391  -3.8385  -3.8379  -3.8172  -3.8165
    -3.8135  -3.7401  -3.7391  -3.6785  -3.6758  -3.6628  -3.6617  -3.6003
    -3.5991  -3.5695  -3.5692  -3.5317  -3.5204  -3.5190  -3.5072  -3.4970
    -3.4965  -3.4940  -3.4883  -3.4692  -3.4162  -3.4036  -3.4028  -3.3798
    -3.3467  -3.3238  -3.3184  -3.2734  -3.2626  -3.2385  -3.2379  -3.2093
    -3.1829  -3.1514  -3.1476  -3.1184  -3.1102  -3.0995  -3.0735  -3.0695
    -3.0518  -3.0263  -2.9984  -2.9931  -2.9748  -2.9726  -2.9682  -2.9673
    -2.9663  -2.9596  -2.9559  -2.9041  -2.8459  -2.8447  -2.8441  -2.8417
    -2.8377  -2.8188  -2.8161  -2.7993  -2.7244  -2.7228  -2.7215  -2.7157
    -2.6666  -2.6614  -2.6601  -2.6421  -2.6386  -2.5877  -2.5719  -2.5707
    -2.5680  -2.5273  -2.5260  -2.5249  -2.4853  -2.4835  -2.4312  -2.4063
    -2.4049  -2.4033  -2.4016  -2.3800  -2.3776  -2.3744  -2.3688  -2.3668
    -2.3320  -2.2988  -2.2957  -2.2897  -2.2887  -2.2872  -2.2864  -2.2861
    -2.2849  -2.2729  -2.2513  -2.2509  -2.2491  -2.2483  -2.2461  -2.2331
    -2.2295  -2.2274  -2.2028  -2.2002  -2.1981  -2.1780  -2.1767  -2.1604
    -2.1562  -2.1383  -2.1304  -2.1293  -2.1277  -2.1255  -2.1226  -2.1198
    -2.1193  -2.1065  -2.1049  -2.0931  -2.0871  -2.0837  -2.0048  -2.0032
    -1.9892  -1.9877  -1.9710  -1.9688  -1.9545  -1.9417  -1.9362  -1.9189
    -1.9095  -1.8968  -1.8953  -1.8881  -1.8689  -1.8626  -1.8595  -1.8573
    -1.8512  -1.8426  -1.8158  -1.7847  -1.7673  -1.7637  -1.7496  -1.7425
    -1.7378  -1.6790  -1.6762  -1.6671  -1.6649  -1.5991  -1.5967  -1.5590
    -1.5482  -1.5344  -1.5130  -1.5035  -1.4858  -1.4747  -1.4652  -1.4554
    -1.4548  -1.4532  -1.4374  -1.4340  -1.3986  -1.3978  -1.3937  -1.3923
    -1.3872  -1.3670  -1.3586  -1.3576  -1.3322  -1.3183  -1.3117  -1.3084
    -1.3053  -1.3025  -1.2805  -1.2676  -1.2541  -1.2515  -1.2494  -1.2441
    -1.2304  -1.1874  -1.1798  -1.1721  -1.1668  -1.1562  -1.1471  -1.1111
    -1.0780  -1.0621  -1.0168  -1.0157  -1.0133  -1.0092  -1.0062  -1.0034
    -0.9984  -0.9940  -0.9599  -0.9435  -0.9396  -0.9271  -0.9211  -0.9086
    -0.8957  -0.8925  -0.8863  -0.8812  -0.8793  -0.8785  -0.8687  -0.8351
    -0.8286  -0.8220  -0.8211  -0.8164  -0.8089  -0.7951  -0.7712  -0.7666
    -0.7536  -0.7366  -0.7199  -0.7046  -0.6774  -0.6695  -0.6624  -0.6604
    -0.6536  -0.6511  -0.6444  -0.6425  -0.6396  -0.6232  -0.6116  -0.6105
    -0.5993  -0.5982  -0.5882  -0.5765  -0.5607  -0.5571  -0.5527  -0.5290
    -0.5234  -0.5107  -0.4969  -0.4590  -0.4576  -0.4563  -0.4524  -0.4456
    -0.4431  -0.4376  -0.4227  -0.4193  -0.4110  -0.4093  -0.4072  -0.3991
    -0.3660  -0.3642  -0.3630  -0.3566  -0.3557  -0.3494  -0.3479  -0.3340
    -0.3294  -0.3278  -0.3174  -0.2976  -0.2940  -0.2886  -0.2739  -0.2724
    -0.2225  -0.2179  -0.1923  -0.1912  -0.1833  -0.1814  -0.1501  -0.1407
    -0.1396  -0.1212  -0.1197  -0.0952  -0.0420  -0.0349   0.0717   0.4718
     0.4738   0.4978   0.4989   0.5598   0.5732   0.9091   0.9123   0.9213
     0.9273   1.1014   1.1663   1.2505   1.2644   1.5088   1.5314   2.0949
     2.1007   2.2215   2.2351   2.4322   2.4482   2.5091   2.5096   2.5976
     2.8728   2.8887   3.0553   3.2627   3.2755   3.2997   3.3042   3.3675
     3.4661   3.6134   3.6480   3.6750   3.9156   3.9183   3.9836   3.9961
     4.2273   4.2417   4.2652   4.4495   4.4582   4.5162   4.6003   4.8886
     4.9244   4.9289   5.1120   5.2089   5.2137   5.2941   5.3490   5.8926
     5.9357   5.9940   6.0067   6.0752   6.0819   6.1559   6.1961   6.2198
     6.2343   6.2434   6.2595   6.2884   6.3069   6.3121   6.3323   6.4012
     6.5412   6.8019   6.8876   6.9194   6.9272   6.9489   6.9607   7.0904
     7.1152   7.1717   7.1865

          k =-0.2500 0.1443 0.1111 (136898 PWs)   bands (ev):

   -18.9673  -6.8361  -6.5537  -5.7617  -5.4737  -5.4084  -5.4075  -4.8515
    -4.8511  -4.7395  -4.7017  -4.5532  -4.4830  -4.4516  -4.4494  -4.4017
    -4.3316  -4.3312  -4.1941  -4.1518  -4.1517  -4.1333  -4.1314  -4.1290
    -4.0086  -4.0084  -3.9301  -3.9181  -3.9166  -3.9162  -3.8961  -3.8957
    -3.8333  -3.7743  -3.7743  -3.7629  -3.7522  -3.7519  -3.7418  -3.7404
    -3.7335  -3.6866  -3.6852  -3.6750  -3.6746  -3.6649  -3.6639  -3.6355
    -3.6280  -3.6276  -3.6007  -3.5963  -3.5770  -3.5752  -3.5546  -3.5110
    -3.5109  -3.4515  -3.4504  -3.4319  -3.4289  -3.4135  -3.3384  -3.3377
    -3.3311  -3.3288  -3.3155  -3.3131  -3.2905  -3.2898  -3.1570  -3.1377
    -3.1317  -3.1209  -3.1169  -3.0929  -3.0760  -3.0752  -3.0720  -3.0497
    -3.0154  -3.0089  -2.9966  -2.9931  -2.9570  -2.9356  -2.9333  -2.9117
    -2.9042  -2.9031  -2.8596  -2.8584  -2.8396  -2.8390  -2.8337  -2.8313
    -2.8098  -2.8086  -2.7653  -2.7631  -2.7585  -2.7575  -2.7423  -2.6967
    -2.6944  -2.6708  -2.6627  -2.6610  -2.5855  -2.5826  -2.5539  -2.5528
    -2.5468  -2.5368  -2.5142  -2.4885  -2.4873  -2.4709  -2.4660  -2.4652
    -2.4621  -2.4520  -2.4439  -2.4414  -2.4339  -2.4324  -2.4257  -2.4235
    -2.3710  -2.3478  -2.3265  -2.3249  -2.3239  -2.3086  -2.3065  -2.3054
    -2.3042  -2.2942  -2.2631  -2.2622  -2.2504  -2.2464  -2.2334  -2.2324
    -2.2316  -2.2073  -2.2062  -2.1956  -2.1865  -2.1856  -2.1315  -2.1169
    -2.1072  -2.1051  -2.1044  -2.0877  -2.0862  -2.0699  -2.0501  -2.0498
    -2.0475  -2.0450  -2.0379  -2.0268  -2.0245  -2.0088  -1.9985  -1.9944
    -1.9481  -1.9454  -1.9440  -1.9400  -1.9374  -1.9339  -1.9260  -1.9233
    -1.9211  -1.9191  -1.9052  -1.9047  -1.9029  -1.8019  -1.7898  -1.7741
    -1.7602  -1.7573  -1.7458  -1.7310  -1.7290  -1.7255  -1.7200  -1.7102
    -1.6997  -1.6985  -1.6966  -1.6951  -1.6579  -1.6560  -1.6543  -1.6315
    -1.6259  -1.6219  -1.6196  -1.6141  -1.6076  -1.5527  -1.5465  -1.5241
    -1.5208  -1.5132  -1.5085  -1.4959  -1.4849  -1.4827  -1.4793  -1.4789
    -1.4769  -1.4662  -1.4633  -1.4527  -1.4201  -1.4062  -1.3800  -1.3769
    -1.3652  -1.3433  -1.3272  -1.3025  -1.2945  -1.2825  -1.2818  -1.2772
    -1.2698  -1.2541  -1.2357  -1.2329  -1.2026  -1.2001  -1.1925  -1.1826
    -1.1503  -1.1487  -1.1355  -1.1093  -1.0851  -1.0797  -1.0769  -1.0720
    -1.0588  -1.0518  -1.0410  -1.0267  -1.0101  -0.9985  -0.9782  -0.9767
    -0.9735  -0.9342  -0.9278  -0.9244  -0.9175  -0.9165  -0.9109  -0.9088
    -0.9004  -0.8778  -0.8737  -0.8720  -0.8597  -0.8536  -0.8511  -0.8366
    -0.8299  -0.8181  -0.7979  -0.7873  -0.7655  -0.7033  -0.6886  -0.6877
    -0.6857  -0.6813  -0.6794  -0.6767  -0.6517  -0.6437  -0.6304  -0.6258
    -0.6225  -0.6064  -0.6030  -0.5893  -0.5854  -0.5697  -0.5623  -0.4878
    -0.4861  -0.4616  -0.4539  -0.4503  -0.4452  -0.4423  -0.4406  -0.4392
    -0.4344  -0.4297  -0.3939  -0.3822  -0.3709  -0.3534  -0.3513  -0.3445
    -0.3426  -0.3366  -0.3317  -0.3297  -0.3259  -0.3210  -0.3082  -0.3048
    -0.3013  -0.2733  -0.2727  -0.2704  -0.2543  -0.2527  -0.2314  -0.2061
    -0.2056  -0.1959  -0.1948  -0.1281  -0.1262  -0.1110  -0.1107  -0.0481
    -0.0469  -0.0458  -0.0313  -0.0211   0.1882   0.2124   0.5344   0.5348
     0.6057   0.6245   0.7613   0.7917   0.8289   0.9432   0.9508   1.3244
     1.3923   1.3926   1.6256   1.6271   1.6845   1.9839   2.0031   2.0233
     2.0276   2.0579   2.0747   2.2162   2.2203   2.3936   2.3943   2.4065
     2.5424   2.5624   2.5975   2.8071   3.1677   3.1755   3.2099   3.2149
     3.2202   3.2285   3.5489   3.5510   3.8745   3.8912   3.9547   4.2193
     4.3398   4.3507   4.5197   4.5626   4.6347   4.6358   4.7144   4.8743
     4.8791   4.9679   4.9740   5.2581   5.3162   5.3233   5.4759   5.5317
     5.6600   5.6655   5.6681   5.6721   5.7938   5.8115   5.8354   5.8887
     6.2792   6.3952   6.4592   6.4864   6.4911   6.4966   6.5047   6.6592
     6.7031   6.7166   6.7725   6.8094   7.0262   7.0579   7.0812   7.2095
     7.3252   7.3616   7.3809

          k =-0.2500-0.1443-0.1111 (136898 PWs)   bands (ev):

   -18.9673  -6.8361  -6.5536  -5.7617  -5.4736  -5.4083  -5.4076  -4.8515
    -4.8510  -4.7395  -4.7018  -4.5533  -4.4830  -4.4517  -4.4493  -4.4018
    -4.3316  -4.3311  -4.1941  -4.1520  -4.1516  -4.1332  -4.1314  -4.1290
    -4.0086  -4.0083  -3.9302  -3.9182  -3.9165  -3.9163  -3.8961  -3.8957
    -3.8336  -3.7746  -3.7741  -3.7629  -3.7523  -3.7519  -3.7416  -3.7404
    -3.7335  -3.6867  -3.6852  -3.6750  -3.6746  -3.6650  -3.6639  -3.6354
    -3.6279  -3.6276  -3.6005  -3.5963  -3.5767  -3.5748  -3.5550  -3.5111
    -3.5108  -3.4515  -3.4503  -3.4321  -3.4285  -3.4133  -3.3388  -3.3379
    -3.3308  -3.3290  -3.3161  -3.3131  -3.2912  -3.2898  -3.1543  -3.1368
    -3.1318  -3.1213  -3.1186  -3.0928  -3.0759  -3.0755  -3.0718  -3.0506
    -3.0153  -3.0098  -2.9960  -2.9930  -2.9573  -2.9357  -2.9331  -2.9119
    -2.9040  -2.9033  -2.8594  -2.8584  -2.8409  -2.8374  -2.8338  -2.8316
    -2.8097  -2.8084  -2.7657  -2.7638  -2.7583  -2.7573  -2.7421  -2.6956
    -2.6942  -2.6712  -2.6628  -2.6609  -2.5857  -2.5840  -2.5540  -2.5526
    -2.5457  -2.5367  -2.5143  -2.4883  -2.4878  -2.4711  -2.4661  -2.4654
    -2.4624  -2.4504  -2.4445  -2.4415  -2.4335  -2.4327  -2.4254  -2.4232
    -2.3711  -2.3472  -2.3264  -2.3252  -2.3238  -2.3087  -2.3065  -2.3052
    -2.3048  -2.2944  -2.2633  -2.2619  -2.2505  -2.2467  -2.2339  -2.2328
    -2.2312  -2.2073  -2.2057  -2.1956  -2.1868  -2.1852  -2.1320  -2.1170
    -2.1069  -2.1053  -2.1047  -2.0898  -2.0860  -2.0699  -2.0504  -2.0495
    -2.0463  -2.0449  -2.0387  -2.0289  -2.0236  -2.0089  -1.9961  -1.9944
    -1.9510  -1.9462  -1.9442  -1.9396  -1.9368  -1.9333  -1.9248  -1.9239
    -1.9217  -1.9195  -1.9063  -1.9047  -1.9020  -1.8091  -1.7892  -1.7722
    -1.7589  -1.7570  -1.7434  -1.7328  -1.7285  -1.7227  -1.7204  -1.7128
    -1.7000  -1.6982  -1.6972  -1.6954  -1.6570  -1.6557  -1.6543  -1.6326
    -1.6264  -1.6221  -1.6194  -1.6097  -1.6082  -1.5505  -1.5458  -1.5230
    -1.5214  -1.5129  -1.5081  -1.4999  -1.4847  -1.4826  -1.4791  -1.4781
    -1.4775  -1.4642  -1.4631  -1.4486  -1.4230  -1.4064  -1.3805  -1.3763
    -1.3674  -1.3417  -1.3263  -1.3035  -1.2937  -1.2830  -1.2820  -1.2725
    -1.2696  -1.2559  -1.2404  -1.2321  -1.2027  -1.2000  -1.1955  -1.1823
    -1.1526  -1.1490  -1.1352  -1.1120  -1.0833  -1.0787  -1.0774  -1.0648
    -1.0590  -1.0455  -1.0407  -1.0355  -1.0096  -0.9984  -0.9781  -0.9761
    -0.9734  -0.9370  -0.9258  -0.9240  -0.9197  -0.9158  -0.9093  -0.9089
    -0.8963  -0.8777  -0.8745  -0.8734  -0.8580  -0.8553  -0.8500  -0.8400
    -0.8342  -0.8160  -0.7992  -0.7862  -0.7579  -0.7056  -0.6883  -0.6871
    -0.6860  -0.6823  -0.6787  -0.6752  -0.6514  -0.6424  -0.6282  -0.6273
    -0.6225  -0.6065  -0.6039  -0.5892  -0.5844  -0.5696  -0.5658  -0.4885
    -0.4877  -0.4590  -0.4554  -0.4495  -0.4478  -0.4422  -0.4403  -0.4390
    -0.4338  -0.4286  -0.3987  -0.3764  -0.3708  -0.3533  -0.3519  -0.3441
    -0.3422  -0.3362  -0.3318  -0.3293  -0.3254  -0.3239  -0.3078  -0.3046
    -0.3020  -0.2740  -0.2726  -0.2710  -0.2546  -0.2536  -0.2315  -0.2060
    -0.2052  -0.1956  -0.1938  -0.1297  -0.1263  -0.1111  -0.1106  -0.0480
    -0.0470  -0.0455  -0.0313  -0.0212   0.1932   0.2054   0.5344   0.5346
     0.6109   0.6197   0.7593   0.7887   0.8326   0.9441   0.9498   1.3231
     1.3925   1.3930   1.6260   1.6279   1.6871   1.9903   1.9944   2.0240
     2.0254   2.0628   2.0709   2.2169   2.2210   2.3927   2.3945   2.4074
     2.5485   2.5539   2.5988   2.8102   3.1689   3.1746   3.2091   3.2141
     3.2215   3.2267   3.5488   3.5516   3.8820   3.8867   3.9550   4.2186
     4.3436   4.3476   4.5261   4.5520   4.6307   4.6392   4.7165   4.8691
     4.8796   4.9703   4.9721   5.2600   5.3075   5.3272   5.4850   5.5245
     5.6590   5.6640   5.6692   5.6723   5.7965   5.8120   5.8309   5.8910
     6.2824   6.3941   6.4468   6.4892   6.4935   6.4973   6.5008   6.6608
     6.7026   6.7118   6.7870   6.8107   7.0281   7.0647   7.0708   7.1997
     7.3540   7.3603   7.3814

          k = 0.2500 0.1443-0.1111 (136898 PWs)   bands (ev):

   -18.9673  -6.8361  -6.5536  -5.7617  -5.4736  -5.4083  -5.4076  -4.8515
    -4.8510  -4.7395  -4.7018  -4.5533  -4.4830  -4.4517  -4.4493  -4.4018
    -4.3316  -4.3311  -4.1941  -4.1520  -4.1516  -4.1332  -4.1314  -4.1290
    -4.0086  -4.0083  -3.9302  -3.9182  -3.9165  -3.9163  -3.8961  -3.8957
    -3.8336  -3.7746  -3.7741  -3.7629  -3.7523  -3.7519  -3.7416  -3.7404
    -3.7335  -3.6867  -3.6852  -3.6750  -3.6746  -3.6650  -3.6639  -3.6354
    -3.6280  -3.6276  -3.6005  -3.5963  -3.5767  -3.5748  -3.5550  -3.5111
    -3.5108  -3.4515  -3.4503  -3.4321  -3.4285  -3.4133  -3.3388  -3.3379
    -3.3308  -3.3290  -3.3161  -3.3131  -3.2912  -3.2898  -3.1543  -3.1368
    -3.1318  -3.1213  -3.1186  -3.0928  -3.0759  -3.0755  -3.0718  -3.0506
    -3.0153  -3.0098  -2.9960  -2.9929  -2.9573  -2.9357  -2.9331  -2.9119
    -2.9040  -2.9033  -2.8594  -2.8584  -2.8409  -2.8374  -2.8338  -2.8316
    -2.8097  -2.8084  -2.7657  -2.7638  -2.7583  -2.7573  -2.7421  -2.6956
    -2.6942  -2.6711  -2.6628  -2.6609  -2.5857  -2.5840  -2.5540  -2.5526
    -2.5457  -2.5367  -2.5143  -2.4883  -2.4878  -2.4711  -2.4661  -2.4654
    -2.4624  -2.4504  -2.4445  -2.4415  -2.4335  -2.4327  -2.4254  -2.4232
    -2.3711  -2.3472  -2.3264  -2.3252  -2.3238  -2.3087  -2.3065  -2.3052
    -2.3048  -2.2944  -2.2633  -2.2619  -2.2505  -2.2467  -2.2339  -2.2328
    -2.2312  -2.2073  -2.2057  -2.1956  -2.1868  -2.1852  -2.1320  -2.1170
    -2.1069  -2.1053  -2.1047  -2.0898  -2.0860  -2.0699  -2.0504  -2.0495
    -2.0463  -2.0449  -2.0387  -2.0289  -2.0236  -2.0089  -1.9961  -1.9944
    -1.9510  -1.9462  -1.9442  -1.9396  -1.9368  -1.9333  -1.9248  -1.9239
    -1.9217  -1.9195  -1.9063  -1.9047  -1.9020  -1.8091  -1.7892  -1.7722
    -1.7589  -1.7570  -1.7434  -1.7328  -1.7285  -1.7227  -1.7204  -1.7128
    -1.7000  -1.6982  -1.6972  -1.6954  -1.6570  -1.6557  -1.6543  -1.6326
    -1.6264  -1.6221  -1.6194  -1.6097  -1.6082  -1.5505  -1.5458  -1.5230
    -1.5214  -1.5129  -1.5081  -1.4999  -1.4847  -1.4826  -1.4791  -1.4781
    -1.4775  -1.4642  -1.4631  -1.4486  -1.4230  -1.4064  -1.3805  -1.3763
    -1.3674  -1.3417  -1.3263  -1.3035  -1.2937  -1.2830  -1.2820  -1.2725
    -1.2696  -1.2559  -1.2404  -1.2321  -1.2027  -1.2000  -1.1955  -1.1824
    -1.1526  -1.1490  -1.1352  -1.1120  -1.0833  -1.0787  -1.0774  -1.0648
    -1.0590  -1.0455  -1.0407  -1.0355  -1.0096  -0.9984  -0.9781  -0.9761
    -0.9734  -0.9370  -0.9258  -0.9240  -0.9197  -0.9158  -0.9093  -0.9089
    -0.8963  -0.8777  -0.8745  -0.8734  -0.8580  -0.8553  -0.8500  -0.8400
    -0.8342  -0.8160  -0.7992  -0.7862  -0.7579  -0.7056  -0.6883  -0.6871
    -0.6860  -0.6823  -0.6787  -0.6752  -0.6514  -0.6424  -0.6282  -0.6272
    -0.6225  -0.6065  -0.6039  -0.5892  -0.5844  -0.5696  -0.5658  -0.4885
    -0.4877  -0.4590  -0.4554  -0.4495  -0.4478  -0.4422  -0.4403  -0.4390
    -0.4338  -0.4286  -0.3987  -0.3764  -0.3708  -0.3533  -0.3518  -0.3441
    -0.3422  -0.3362  -0.3318  -0.3293  -0.3254  -0.3239  -0.3078  -0.3046
    -0.3020  -0.2740  -0.2726  -0.2710  -0.2546  -0.2536  -0.2315  -0.2060
    -0.2052  -0.1956  -0.1938  -0.1297  -0.1263  -0.1111  -0.1106  -0.0480
    -0.0470  -0.0455  -0.0313  -0.0212   0.1932   0.2054   0.5344   0.5346
     0.6109   0.6197   0.7593   0.7887   0.8326   0.9441   0.9498   1.3231
     1.3925   1.3930   1.6260   1.6279   1.6871   1.9903   1.9944   2.0240
     2.0254   2.0628   2.0709   2.2169   2.2210   2.3927   2.3945   2.4074
     2.5485   2.5539   2.5988   2.8102   3.1689   3.1746   3.2091   3.2141
     3.2215   3.2267   3.5488   3.5516   3.8820   3.8867   3.9550   4.2186
     4.3436   4.3476   4.5261   4.5520   4.6307   4.6392   4.7165   4.8691
     4.8796   4.9703   4.9721   5.2600   5.3075   5.3272   5.4849   5.5245
     5.6590   5.6640   5.6692   5.6722   5.7965   5.8120   5.8308   5.8915
     6.2771   6.3940   6.4574   6.4892   6.4935   6.4972   6.5005   6.6613
     6.7036   6.7120   6.7768   6.8097   7.0183   7.0648   7.0740   7.2084
     7.3454   7.3620   7.3814

          k = 0.0000-0.2887 0.1111 (136898 PWs)   bands (ev):

   -18.9673  -6.8361  -6.5537  -5.7618  -5.4737  -5.4083  -5.4074  -4.8514
    -4.8510  -4.7401  -4.7021  -4.5533  -4.4829  -4.4507  -4.4494  -4.4022
    -4.3315  -4.3307  -4.1941  -4.1521  -4.1514  -4.1330  -4.1313  -4.1295
    -4.0085  -4.0083  -3.9305  -3.9182  -3.9166  -3.9161  -3.8960  -3.8956
    -3.8343  -3.7749  -3.7740  -3.7643  -3.7522  -3.7518  -3.7408  -3.7407
    -3.7348  -3.6854  -3.6852  -3.6748  -3.6747  -3.6646  -3.6634  -3.6381
    -3.6278  -3.6275  -3.5971  -3.5957  -3.5759  -3.5752  -3.5568  -3.5110
    -3.5108  -3.4506  -3.4504  -3.4304  -3.4286  -3.4141  -3.3386  -3.3380
    -3.3315  -3.3289  -3.3150  -3.3130  -3.2903  -3.2900  -3.1561  -3.1373
    -3.1319  -3.1207  -3.1172  -3.0825  -3.0761  -3.0733  -3.0718  -3.0651
    -3.0153  -3.0129  -2.9962  -2.9916  -2.9570  -2.9351  -2.9333  -2.9117
    -2.9042  -2.9017  -2.8599  -2.8588  -2.8398  -2.8365  -2.8336  -2.8331
    -2.8095  -2.8083  -2.7658  -2.7640  -2.7585  -2.7581  -2.7419  -2.6965
    -2.6956  -2.6707  -2.6624  -2.6615  -2.5848  -2.5823  -2.5533  -2.5521
    -2.5474  -2.5366  -2.5143  -2.4880  -2.4876  -2.4711  -2.4660  -2.4648
    -2.4632  -2.4528  -2.4427  -2.4408  -2.4335  -2.4327  -2.4249  -2.4244
    -2.3710  -2.3463  -2.3263  -2.3248  -2.3238  -2.3081  -2.3075  -2.3053
    -2.3046  -2.2941  -2.2637  -2.2622  -2.2506  -2.2464  -2.2335  -2.2324
    -2.2313  -2.2077  -2.2067  -2.1964  -2.1862  -2.1857  -2.1311  -2.1171
    -2.1067  -2.1056  -2.1044  -2.0890  -2.0863  -2.0700  -2.0499  -2.0497
    -2.0468  -2.0452  -2.0382  -2.0265  -2.0236  -2.0089  -1.9978  -1.9950
    -1.9469  -1.9461  -1.9444  -1.9392  -1.9373  -1.9336  -1.9251  -1.9236
    -1.9212  -1.9182  -1.9074  -1.9047  -1.9037  -1.8005  -1.7892  -1.7781
    -1.7596  -1.7572  -1.7407  -1.7335  -1.7296  -1.7245  -1.7206  -1.7092
    -1.6988  -1.6986  -1.6966  -1.6947  -1.6593  -1.6552  -1.6543  -1.6298
    -1.6258  -1.6219  -1.6202  -1.6139  -1.6083  -1.5539  -1.5467  -1.5272
    -1.5219  -1.5129  -1.5086  -1.4985  -1.4846  -1.4822  -1.4798  -1.4787
    -1.4769  -1.4647  -1.4632  -1.4512  -1.4202  -1.4073  -1.3829  -1.3759
    -1.3691  -1.3361  -1.3277  -1.2982  -1.2936  -1.2834  -1.2820  -1.2772
    -1.2697  -1.2542  -1.2364  -1.2330  -1.2025  -1.2004  -1.1888  -1.1827
    -1.1501  -1.1487  -1.1362  -1.1098  -1.0847  -1.0805  -1.0775  -1.0719
    -1.0584  -1.0528  -1.0412  -1.0329  -1.0103  -0.9982  -0.9786  -0.9756
    -0.9723  -0.9366  -0.9271  -0.9253  -0.9180  -0.9163  -0.9097  -0.9088
    -0.8959  -0.8777  -0.8741  -0.8724  -0.8608  -0.8545  -0.8511  -0.8369
    -0.8300  -0.8192  -0.7925  -0.7882  -0.7644  -0.7028  -0.6882  -0.6874
    -0.6860  -0.6837  -0.6790  -0.6759  -0.6518  -0.6438  -0.6297  -0.6250
    -0.6228  -0.6081  -0.6016  -0.5892  -0.5853  -0.5695  -0.5647  -0.4881
    -0.4866  -0.4619  -0.4541  -0.4509  -0.4473  -0.4422  -0.4410  -0.4390
    -0.4335  -0.4292  -0.3956  -0.3782  -0.3707  -0.3536  -0.3521  -0.3448
    -0.3426  -0.3362  -0.3334  -0.3299  -0.3259  -0.3193  -0.3078  -0.3049
    -0.3022  -0.2728  -0.2720  -0.2702  -0.2542  -0.2532  -0.2314  -0.2063
    -0.2047  -0.1961  -0.1937  -0.1290  -0.1266  -0.1115  -0.1102  -0.0483
    -0.0475  -0.0450  -0.0327  -0.0211   0.1878   0.2147   0.5345   0.5349
     0.6058   0.6248   0.7605   0.7900   0.8302   0.9435   0.9507   1.3252
     1.3921   1.3925   1.6254   1.6276   1.6847   1.9848   2.0018   2.0226
     2.0266   2.0594   2.0743   2.2149   2.2208   2.3934   2.3943   2.4070
     2.5436   2.5602   2.5986   2.8077   3.1647   3.1763   3.2110   3.2155
     3.2205   3.2281   3.5486   3.5513   3.8770   3.8897   3.9527   4.2195
     4.3404   4.3488   4.5320   4.5520   4.6333   4.6363   4.7150   4.8740
     4.8798   4.9697   4.9741   5.2576   5.3160   5.3260   5.4948   5.5143
     5.6604   5.6639   5.6677   5.6726   5.7865   5.8118   5.8198   5.9031
     6.2844   6.3910   6.4690   6.4833   6.4932   6.4995   6.5049   6.6668
     6.7091   6.7171   6.7578   6.7902   7.0309   7.0459   7.0813   7.2378
     7.3130   7.3627   7.3785

          k = 0.0000 0.2887 0.1111 (136898 PWs)   bands (ev):

   -18.9673  -6.8361  -6.5537  -5.7618  -5.4737  -5.4083  -5.4074  -4.8514
    -4.8510  -4.7401  -4.7021  -4.5533  -4.4829  -4.4507  -4.4494  -4.4022
    -4.3315  -4.3307  -4.1941  -4.1521  -4.1514  -4.1330  -4.1313  -4.1295
    -4.0085  -4.0083  -3.9305  -3.9182  -3.9166  -3.9161  -3.8960  -3.8956
    -3.8343  -3.7749  -3.7740  -3.7643  -3.7522  -3.7518  -3.7408  -3.7407
    -3.7348  -3.6854  -3.6852  -3.6748  -3.6747  -3.6645  -3.6634  -3.6381
    -3.6278  -3.6275  -3.5971  -3.5957  -3.5759  -3.5752  -3.5568  -3.5110
    -3.5108  -3.4506  -3.4504  -3.4304  -3.4286  -3.4141  -3.3386  -3.3380
    -3.3315  -3.3289  -3.3150  -3.3130  -3.2903  -3.2900  -3.1561  -3.1373
    -3.1319  -3.1207  -3.1172  -3.0825  -3.0761  -3.0733  -3.0718  -3.0651
    -3.0153  -3.0129  -2.9962  -2.9916  -2.9570  -2.9351  -2.9333  -2.9117
    -2.9042  -2.9017  -2.8599  -2.8588  -2.8398  -2.8365  -2.8336  -2.8331
    -2.8095  -2.8083  -2.7658  -2.7640  -2.7585  -2.7581  -2.7419  -2.6965
    -2.6956  -2.6707  -2.6624  -2.6615  -2.5848  -2.5823  -2.5533  -2.5521
    -2.5474  -2.5366  -2.5143  -2.4880  -2.4876  -2.4711  -2.4660  -2.4648
    -2.4632  -2.4528  -2.4427  -2.4408  -2.4335  -2.4327  -2.4249  -2.4245
    -2.3710  -2.3463  -2.3263  -2.3248  -2.3238  -2.3081  -2.3075  -2.3053
    -2.3046  -2.2941  -2.2637  -2.2622  -2.2506  -2.2464  -2.2335  -2.2324
    -2.2313  -2.2077  -2.2067  -2.1964  -2.1862  -2.1857  -2.1311  -2.1171
    -2.1067  -2.1056  -2.1044  -2.0890  -2.0863  -2.0700  -2.0499  -2.0497
    -2.0468  -2.0452  -2.0382  -2.0265  -2.0236  -2.0089  -1.9978  -1.9950
    -1.9469  -1.9461  -1.9444  -1.9392  -1.9373  -1.9336  -1.9251  -1.9236
    -1.9212  -1.9182  -1.9074  -1.9047  -1.9037  -1.8005  -1.7892  -1.7781
    -1.7596  -1.7572  -1.7407  -1.7335  -1.7296  -1.7245  -1.7206  -1.7092
    -1.6988  -1.6986  -1.6966  -1.6947  -1.6593  -1.6552  -1.6544  -1.6298
    -1.6258  -1.6219  -1.6202  -1.6139  -1.6083  -1.5539  -1.5467  -1.5272
    -1.5219  -1.5129  -1.5086  -1.4985  -1.4846  -1.4822  -1.4798  -1.4787
    -1.4769  -1.4647  -1.4632  -1.4512  -1.4202  -1.4073  -1.3829  -1.3759
    -1.3691  -1.3361  -1.3277  -1.2982  -1.2936  -1.2834  -1.2820  -1.2772
    -1.2697  -1.2542  -1.2364  -1.2330  -1.2025  -1.2004  -1.1888  -1.1827
    -1.1501  -1.1487  -1.1363  -1.1098  -1.0847  -1.0805  -1.0775  -1.0719
    -1.0584  -1.0528  -1.0412  -1.0329  -1.0102  -0.9982  -0.9786  -0.9756
    -0.9723  -0.9366  -0.9271  -0.9253  -0.9180  -0.9163  -0.9097  -0.9088
    -0.8959  -0.8777  -0.8741  -0.8724  -0.8608  -0.8545  -0.8511  -0.8369
    -0.8300  -0.8192  -0.7925  -0.7882  -0.7644  -0.7028  -0.6882  -0.6874
    -0.6859  -0.6837  -0.6790  -0.6759  -0.6518  -0.6438  -0.6296  -0.6250
    -0.6228  -0.6081  -0.6016  -0.5892  -0.5853  -0.5695  -0.5647  -0.4881
    -0.4866  -0.4619  -0.4542  -0.4509  -0.4473  -0.4422  -0.4410  -0.4390
    -0.4335  -0.4292  -0.3956  -0.3782  -0.3707  -0.3536  -0.3521  -0.3448
    -0.3426  -0.3362  -0.3334  -0.3299  -0.3259  -0.3193  -0.3078  -0.3049
    -0.3022  -0.2728  -0.2720  -0.2702  -0.2542  -0.2532  -0.2314  -0.2063
    -0.2047  -0.1961  -0.1937  -0.1290  -0.1266  -0.1115  -0.1102  -0.0483
    -0.0475  -0.0450  -0.0327  -0.0211   0.1878   0.2147   0.5345   0.5349
     0.6058   0.6248   0.7605   0.7900   0.8302   0.9435   0.9507   1.3252
     1.3921   1.3925   1.6254   1.6276   1.6847   1.9848   2.0018   2.0226
     2.0266   2.0594   2.0743   2.2149   2.2208   2.3934   2.3943   2.4070
     2.5436   2.5602   2.5986   2.8077   3.1647   3.1763   3.2110   3.2155
     3.2205   3.2281   3.5486   3.5513   3.8770   3.8897   3.9527   4.2195
     4.3404   4.3488   4.5320   4.5520   4.6333   4.6363   4.7150   4.8740
     4.8798   4.9697   4.9741   5.2576   5.3160   5.3260   5.4948   5.5143
     5.6604   5.6639   5.6677   5.6726   5.7866   5.8118   5.8199   5.9026
     6.2872   6.3923   6.4645   6.4820   6.4932   6.4981   6.5043   6.6675
     6.7085   6.7159   6.7600   6.7960   7.0326   7.0445   7.0757   7.2246
     7.3178   7.3690   7.3808

     the Fermi energy is     1.5178 ev

!    total energy              =   -6564.20166233 Ry
     Harris-Foulkes estimate   =   -6564.20166233 Ry
     estimated scf accuracy    <          6.3E-09 Ry

     The total energy is the sum of the following terms:

     one-electron contribution =  -48786.46554913 Ry
     hartree contribution      =   24892.92645375 Ry
     xc contribution           =   -3162.30513795 Ry
     ewald contribution        =   20491.64043247 Ry
     smearing contrib. (-TS)   =       0.00213853 Ry

     convergence has been achieved in  22 iterations

     negative rho (up, down):  1.754E+00 0.000E+00

     Forces acting on atoms (Ry/au):

     atom    1 type  3   force =     0.00453536    0.00856204    0.00988279
     atom    2 type  2   force =    -0.01042584   -0.00761098   -0.00359785
     atom    3 type  2   force =     0.00445766   -0.00233865    0.00360544
     atom    4 type  1   force =     0.00015816    0.00030870    0.01130559
     atom    5 type  1   force =     0.00016652    0.00004856    0.01128343
     atom    6 type  1   force =     0.00019766    0.00005178    0.01118833
     atom    7 type  1   force =     0.00032964   -0.00004290    0.01133631
     atom    8 type  1   force =    -0.00011401    0.00021356    0.01126751
     atom    9 type  1   force =    -0.00005467    0.00000455    0.01116114
     atom   10 type  1   force =    -0.00001238   -0.00008384    0.01114381
     atom   11 type  1   force =    -0.00001163   -0.00026008    0.01129806
     atom   12 type  1   force =    -0.00006900    0.00016618    0.01112811
     atom   13 type  1   force =    -0.00012379    0.00000517    0.01114188
     atom   14 type  1   force =    -0.00001057   -0.00002375    0.01118964
     atom   15 type  1   force =    -0.00000665   -0.00030519    0.01126998
     atom   16 type  1   force =    -0.00008287    0.00026999    0.01140784
     atom   17 type  1   force =    -0.00001310   -0.00004112    0.01133102
     atom   18 type  1   force =    -0.00020340   -0.00014166    0.01125403
     atom   19 type  1   force =    -0.00025199   -0.00021811    0.01140597
     atom   20 type  1   force =     0.00024913    0.00042159    0.00240132
     atom   21 type  1   force =     0.00024588    0.00008871    0.00245011
     atom   22 type  1   force =     0.00032052    0.00005914    0.00252300
     atom   23 type  1   force =     0.00018642   -0.00023847    0.00220150
     atom   24 type  1   force =    -0.00002128    0.00024665    0.00261220
     atom   25 type  1   force =     0.00000289   -0.00004142    0.00246508
     atom   26 type  1   force =    -0.00004071    0.00003671    0.00250350
     atom   27 type  1   force =     0.00000396   -0.00023763    0.00268406
     atom   28 type  1   force =    -0.00005422    0.00024797    0.00246930
     atom   29 type  1   force =    -0.00000648    0.00006184    0.00246265
     atom   30 type  1   force =     0.00000059    0.00001677    0.00245372
     atom   31 type  1   force =     0.00007971   -0.00032489    0.00242180
     atom   32 type  1   force =    -0.00022352    0.00017861    0.00245285
     atom   33 type  1   force =    -0.00019592   -0.00007741    0.00256168
     atom   34 type  1   force =    -0.00021513   -0.00003213    0.00270112
     atom   35 type  1   force =    -0.00014087   -0.00039127    0.00264899
     atom   36 type  1   force =     0.00000249    0.00015422   -0.00049900
     atom   37 type  1   force =    -0.00014730   -0.00004341   -0.00008167
     atom   38 type  1   force =    -0.00012996   -0.00012267   -0.00019801
     atom   39 type  1   force =     0.00018350   -0.00006883   -0.00052188
     atom   40 type  1   force =     0.00000142    0.00001502   -0.00046714
     atom   41 type  1   force =     0.00020545   -0.00020185    0.00029301
     atom   42 type  1   force =     0.00009029    0.00010818    0.00006824
     atom   43 type  1   force =    -0.00013371    0.00033417    0.00001789
     atom   44 type  1   force =    -0.00009219   -0.00017604   -0.00055359
     atom   45 type  1   force =    -0.00016151    0.00008038   -0.00030840
     atom   46 type  1   force =     0.00022132    0.00002334   -0.00013099
     atom   47 type  1   force =     0.00014504    0.00016400   -0.00048052
     atom   48 type  1   force =    -0.00004526    0.00003791   -0.00053274
     atom   49 type  1   force =     0.00006112    0.00011002   -0.00039103
     atom   50 type  1   force =     0.00000725   -0.00004080   -0.00039884
     atom   51 type  1   force =    -0.00030426   -0.00013598   -0.00094650
     atom   52 type  1   force =     0.00012117    0.00014948   -0.01381578
     atom   53 type  1   force =     0.00174001    0.00107505   -0.01492484
     atom   54 type  1   force =     0.00018288   -0.00002063   -0.01360582
     atom   55 type  1   force =     0.00007497   -0.00004177   -0.01337242
     atom   56 type  1   force =    -0.00007615    0.00018345   -0.01340722
     atom   57 type  1   force =    -0.00165116    0.00436754   -0.01803946
     atom   58 type  1   force =     0.00262632   -0.00334741   -0.01795009
     atom   59 type  1   force =     0.00014145   -0.00011812   -0.01313306
     atom   60 type  1   force =    -0.00004935    0.00001640   -0.01345737
     atom   61 type  1   force =    -0.00012028   -0.00001884   -0.01331303
     atom   62 type  1   force =    -0.00126419   -0.00088808   -0.01359242
     atom   63 type  1   force =    -0.00008997   -0.00012769   -0.01298642
     atom   64 type  1   force =    -0.00001955    0.00008688   -0.01332237
     atom   65 type  1   force =     0.00000881    0.00001416   -0.01326929
     atom   66 type  1   force =    -0.00007908   -0.00008183   -0.01337766
     atom   67 type  1   force =    -0.00010563   -0.00006528   -0.01331752

     Total force =     0.020235     Total SCF correction =     0.000016

     BFGS Geometry Optimization

     number of scf cycles    =   1
     number of bfgs steps    =   0

     energy   new            =   -6564.2016623270 Ry

     new trust radius        =       0.0138400738 bohr
     new conv_thr            =       0.0000000100 Ry


ATOMIC_POSITIONS (angstrom)
O        3.511600345   3.477690628  10.083158291
H        2.902714314   2.888380331   9.575981496
H        4.094307024   2.860995898  10.564946573
Au       4.261116982   7.380469799   0.000000000    0   0   0
Au       5.765039921   4.775598049   0.000000000    0   0   0
Au       7.268963814   2.170727015   0.000000000    0   0   0
Au       8.772887230  -0.434145004   0.000000000    0   0   0
Au       1.253270030   7.380469799   0.000000000    0   0   0
Au       2.757193089   4.775598049   0.000000000    0   0   0
Au       4.261116982   2.170727015   0.000000000    0   0   0
Au       5.765039921  -0.434145004   0.000000000    0   0   0
Au      -1.754577041   7.380469799   0.000000000    0   0   0
Au      -0.250654012   4.775598049   0.000000000    0   0   0
Au       1.253270030   2.170727015   0.000000000    0   0   0
Au       2.757193089  -0.434145004   0.000000000    0   0   0
Au      -4.762423992   7.380469799   0.000000000    0   0   0
Au      -3.258500099   4.775598049   0.000000000    0   0   0
Au      -1.754577041   2.170727015   0.000000000    0   0   0
Au      -0.250654012  -0.434145004   0.000000000    0   0   0
Au       5.765039921   8.248760223   2.455895901    0   0   0
Au       7.268963814   5.643888950   2.455895901    0   0   0
Au       8.772887230   3.039016962   2.455895901    0   0   0
Au      10.276809692   0.434145004   2.455895901    0   0   0
Au       2.757193089   8.248760223   2.455895901    0   0   0
Au       4.261116982   5.643888950   2.455895901    0   0   0
Au       5.765039921   3.039016962   2.455895901    0   0   0
Au       7.268963814   0.434145004   2.455895901    0   0   0
Au      -0.250654012   8.248760223   2.455895901    0   0   0
Au       1.253270030   5.643888950   2.455895901    0   0   0
Au       2.757193089   3.039016962   2.455895901    0   0   0
Au       4.261116982   0.434145004   2.455895901    0   0   0
Au      -3.258500099   8.248760223   2.455895901    0   0   0
Au      -1.754577041   5.643888950   2.455895901    0   0   0
Au      -0.250654012   3.039016962   2.455895901    0   0   0
Au       1.253270030   0.434145004   2.455895901    0   0   0
Au       4.261936188   9.118745804   4.894181728    0   0   0
Au       5.766169071   6.512870789   4.894437790    0   0   0
Au       7.270078182   3.907733679   4.894343853    0   0   0
Au       8.774144173   1.301851511   4.894237995    0   0   0
Au       1.253081799   9.118316650   4.893897533    0   0   0
Au       2.757315159   6.512439728   4.894148827    0   0   0
Au       4.261219978   3.907303810   4.894058228    0   0   0
Au       5.765297413   1.301418781   4.893952847    0   0   0
Au      -1.755005598   9.118157387   4.893870831    0   0   0
Au      -0.250775844   6.512280464   4.894127846    0   0   0
Au       1.253129840   3.907144785   4.894032478    0   0   0
Au       2.757203341   1.301260710   4.893929958    0   0   0
Au      -4.763819218   9.117780685   4.893374920    0   0   0
Au      -3.259585381   6.511903286   4.893631458    0   0   0
Au      -1.755681753   3.906769991   4.893536568    0   0   0
Au      -0.251607478   1.300886750   4.893429756    0   0   0
Au       4.261843204   7.381735802   7.377424240    0   0   0
Au       5.765903950   4.775977135   7.377672672    0   0   0
Au       7.269820690   2.170961618   7.377541542    0   0   0
Au       8.774018288  -0.434744477   7.376971245    0   0   0
Au       1.253179789   7.381431103   7.377737999    0   0   0
Au       2.757243156   4.775669575   7.378001213    0   0   0
Au       4.261157513   2.170650005   7.377856731    0   0   0
Au       5.765354156  -0.435050219   7.377300262    0   0   0
[...]
    -3.0841  -3.0656  -3.0651  -3.0267  -3.0047  -3.0030  -2.9812  -2.9738
    -2.9728  -2.9293  -2.9281  -2.9093  -2.9087  -2.9038  -2.9029  -2.8788
    -2.8782  -2.8352  -2.8329  -2.8283  -2.8274  -2.8130  -2.7663  -2.7639
    -2.7440  -2.7345  -2.7315  -2.7040  -2.6518  -2.6490  -2.6219  -2.6199
    -2.6141  -2.6053  -2.5833  -2.5566  -2.5564  -2.5387  -2.5356  -2.5322
    -2.5312  -2.5196  -2.5106  -2.5076  -2.5015  -2.5010  -2.4936  -2.4923
    -2.4409  -2.4155  -2.3961  -2.3927  -2.3923  -2.3766  -2.3759  -2.3732
    -2.3731  -2.3626  -2.3320  -2.3312  -2.3201  -2.3145  -2.3014  -2.3013
    -2.2995  -2.2744  -2.2742  -2.2633  -2.2551  -2.2545  -2.1987  -2.1866
    -2.1748  -2.1746  -2.1728  -2.1540  -2.1534  -2.1396  -2.1190  -2.1188
    -2.1142  -2.1138  -2.1043  -2.0916  -2.0913  -2.0772  -2.0626  -2.0621
    -2.0143  -2.0141  -2.0062  -2.0051  -2.0046  -2.0012  -1.9921  -1.9915
    -1.9891  -1.9876  -1.9745  -1.9714  -1.9711  -1.8571  -1.8563  -1.8283
    -1.8266  -1.8253  -1.8036  -1.8005  -1.7981  -1.7896  -1.7885  -1.7702
    -1.7677  -1.7673  -1.7632  -1.7621  -1.7259  -1.7242  -1.7234  -1.6948
    -1.6943  -1.6888  -1.6881  -1.6772  -1.6752  -1.6175  -1.6144  -1.5906
    -1.5903  -1.5813  -1.5761  -1.5538  -1.5533  -1.5481  -1.5478  -1.5459
    -1.5447  -1.5321  -1.5316  -1.5145  -1.4779  -1.4754  -1.4454  -1.4438
    -1.4339  -1.3978  -1.3962  -1.3635  -1.3624  -1.3516  -1.3510  -1.3381
    -1.3270  -1.3208  -1.3017  -1.3006  -1.2695  -1.2692  -1.2518  -1.2509
    -1.2171  -1.2169  -1.2047  -1.1530  -1.1514  -1.1468  -1.1464  -1.1278
    -1.1267  -1.1111  -1.1095  -1.0786  -1.0672  -1.0499  -1.0469  -1.0443
    -1.0278  -0.9978  -0.9946  -0.9938  -0.9847  -0.9840  -0.9782  -0.9779
    -0.9472  -0.9450  -0.9415  -0.9382  -0.9285  -0.9221  -0.9207  -0.9029
    -0.8907  -0.8863  -0.8573  -0.8562  -0.7903  -0.7624  -0.7556  -0.7552
    -0.7545  -0.7516  -0.7474  -0.7440  -0.7185  -0.7031  -0.6968  -0.6933
    -0.6908  -0.6736  -0.6635  -0.6572  -0.6529  -0.6376  -0.5964  -0.5571
    -0.5549  -0.5297  -0.5231  -0.5193  -0.5155  -0.5112  -0.5101  -0.5084
    -0.5038  -0.4978  -0.4602  -0.4490  -0.4407  -0.4223  -0.4192  -0.4132
    -0.4128  -0.4063  -0.4008  -0.3981  -0.3947  -0.3895  -0.3766  -0.3740
    -0.3713  -0.3423  -0.3413  -0.3395  -0.3238  -0.3226  -0.3009  -0.2752
    -0.2747  -0.2651  -0.2641  -0.1978  -0.1958  -0.1794  -0.1784  -0.1162
    -0.1154  -0.1133  -0.1042  -0.0878   0.1203   0.1355   0.4654   0.4656
     0.5389   0.5489   0.6917   0.7206   0.7532   0.8761   0.8789   1.2559
     1.3230   1.3232   1.5569   1.5578   1.6143   1.9192   1.9288   1.9551
     1.9564   1.9932   1.9985   2.1479   2.1509   2.3249   2.3253   2.3371
     2.4776   2.4852   2.5278   2.7376   3.0999   3.1055   3.1429   3.1473
     3.1529   3.1548   3.4803   3.4812   3.8120   3.8173   3.8842   4.1500
     4.2756   4.2788   4.4695   4.4791   4.5665   4.5686   4.6460   4.8046
     4.8111   4.9018   4.9035   5.1907   5.2485   5.2591   5.4351   5.4450
     5.5947   5.5956   5.5994   5.6012   5.7370   5.7470   5.7620   5.8679
     6.2862   6.3353   6.4180   6.4256   6.4293   6.4324   6.4766   6.6420
     6.6449   6.6759   6.7173   6.7981   6.9842   6.9935   7.0857   7.2447
     7.2716   7.3142   7.3184

          k = 0.0000 0.2887 0.1111 (136898 PWs)   bands (ev):

   -18.5924  -6.6270  -6.3938  -5.8316  -5.5435  -5.4777  -5.4774  -4.9208
    -4.9206  -4.8087  -4.7715  -4.6219  -4.5517  -4.5190  -4.5188  -4.4716
    -4.4010  -4.4006  -4.2637  -4.2215  -4.2212  -4.2011  -4.2001  -4.1987
    -4.0780  -4.0778  -3.9992  -3.9875  -3.9861  -3.9857  -3.9654  -3.9652
    -3.9016  -3.8438  -3.8436  -3.8318  -3.8212  -3.8208  -3.8098  -3.8095
    -3.8018  -3.7542  -3.7541  -3.7443  -3.7441  -3.7327  -3.7319  -3.7029
    -3.6971  -3.6969  -3.6640  -3.6624  -3.6443  -3.6433  -3.6237  -3.5806
    -3.5805  -3.5197  -3.5195  -3.4981  -3.4974  -3.4815  -3.4075  -3.4073
    -3.3985  -3.3983  -3.3821  -3.3817  -3.3586  -3.3584  -3.2067  -3.2064
    -3.1908  -3.1882  -3.1842  -3.1454  -3.1449  -3.1405  -3.1400  -3.0843
    -3.0841  -3.0656  -3.0651  -3.0267  -3.0047  -3.0030  -2.9812  -2.9738
    -2.9728  -2.9293  -2.9281  -2.9093  -2.9087  -2.9038  -2.9029  -2.8788
    -2.8782  -2.8352  -2.8329  -2.8283  -2.8274  -2.8130  -2.7663  -2.7639
    -2.7440  -2.7345  -2.7315  -2.7040  -2.6518  -2.6490  -2.6219  -2.6199
    -2.6141  -2.6053  -2.5833  -2.5566  -2.5564  -2.5387  -2.5356  -2.5322
    -2.5312  -2.5196  -2.5106  -2.5076  -2.5015  -2.5010  -2.4936  -2.4923
    -2.4409  -2.4155  -2.3961  -2.3927  -2.3923  -2.3766  -2.3759  -2.3732
    -2.3731  -2.3626  -2.3320  -2.3312  -2.3201  -2.3145  -2.3014  -2.3013
    -2.2995  -2.2744  -2.2742  -2.2633  -2.2551  -2.2545  -2.1987  -2.1866
    -2.1748  -2.1746  -2.1728  -2.1540  -2.1534  -2.1396  -2.1190  -2.1188
    -2.1142  -2.1138  -2.1043  -2.0916  -2.0913  -2.0772  -2.0626  -2.0621
    -2.0143  -2.0141  -2.0062  -2.0051  -2.0046  -2.0012  -1.9921  -1.9915
    -1.9891  -1.9876  -1.9745  -1.9714  -1.9711  -1.8571  -1.8563  -1.8283
    -1.8266  -1.8253  -1.8036  -1.8005  -1.7981  -1.7896  -1.7885  -1.7702
    -1.7677  -1.7673  -1.7632  -1.7621  -1.7259  -1.7242  -1.7234  -1.6948
    -1.6943  -1.6888  -1.6881  -1.6772  -1.6752  -1.6175  -1.6144  -1.5906
    -1.5903  -1.5813  -1.5761  -1.5538  -1.5533  -1.5481  -1.5478  -1.5459
    -1.5447  -1.5321  -1.5316  -1.5145  -1.4779  -1.4754  -1.4454  -1.4438
    -1.4339  -1.3978  -1.3962  -1.3635  -1.3624  -1.3516  -1.3510  -1.3381
    -1.3270  -1.3208  -1.3017  -1.3006  -1.2695  -1.2692  -1.2518  -1.2510
    -1.2171  -1.2169  -1.2047  -1.1530  -1.1514  -1.1468  -1.1464  -1.1278
    -1.1267  -1.1111  -1.1095  -1.0786  -1.0672  -1.0499  -1.0469  -1.0443
    -1.0278  -0.9978  -0.9946  -0.9938  -0.9847  -0.9840  -0.9782  -0.9779
    -0.9472  -0.9450  -0.9415  -0.9382  -0.9285  -0.9221  -0.9207  -0.9029
    -0.8907  -0.8863  -0.8573  -0.8562  -0.7904  -0.7624  -0.7556  -0.7552
    -0.7545  -0.7516  -0.7474  -0.7440  -0.7185  -0.7031  -0.6968  -0.6933
    -0.6908  -0.6736  -0.6635  -0.6572  -0.6529  -0.6375  -0.5964  -0.5571
    -0.5549  -0.5297  -0.5231  -0.5193  -0.5155  -0.5112  -0.5101  -0.5084
    -0.5038  -0.4977  -0.4602  -0.4490  -0.4407  -0.4223  -0.4192  -0.4132
    -0.4128  -0.4063  -0.4008  -0.3981  -0.3947  -0.3895  -0.3766  -0.3740
    -0.3713  -0.3423  -0.3413  -0.3395  -0.3238  -0.3226  -0.3009  -0.2752
    -0.2747  -0.2651  -0.2641  -0.1978  -0.1958  -0.1794  -0.1784  -0.1162
    -0.1154  -0.1133  -0.1042  -0.0878   0.1203   0.1355   0.4654   0.4656
     0.5389   0.5489   0.6917   0.7206   0.7532   0.8761   0.8789   1.2559
     1.3230   1.3232   1.5569   1.5578   1.6143   1.9192   1.9288   1.9551
     1.9564   1.9932   1.9985   2.1479   2.1509   2.3249   2.3253   2.3371
     2.4776   2.4852   2.5278   2.7376   3.0999   3.1055   3.1429   3.1473
     3.1529   3.1548   3.4803   3.4812   3.8120   3.8173   3.8842   4.1500
     4.2756   4.2788   4.4695   4.4791   4.5665   4.5686   4.6459   4.8046
     4.8111   4.9018   4.9035   5.1907   5.2485   5.2591   5.4351   5.4450
     5.5947   5.5956   5.5994   5.6012   5.7370   5.7470   5.7620   5.8677
     6.2872   6.3359   6.4181   6.4257   6.4295   6.4328   6.4736   6.6421
     6.6453   6.6727   6.7179   6.8022   6.9844   6.9959   7.0729   7.2401
     7.2750   7.3143   7.3185

     the Fermi energy is     1.4474 ev

!    total energy              =   -6564.20524012 Ry
     Harris-Foulkes estimate   =   -6564.20524012 Ry
     estimated scf accuracy    <          9.0E-11 Ry

     The total energy is the sum of the following terms:

     one-electron contribution =  -48654.40840791 Ry
     hartree contribution      =   24825.21551021 Ry
     xc contribution           =   -3162.27590660 Ry
     ewald contribution        =   20427.26138496 Ry
     smearing contrib. (-TS)   =       0.00217922 Ry

     convergence has been achieved in  15 iterations

     negative rho (up, down):  1.754E+00 0.000E+00

     Forces acting on atoms (Ry/au):

     atom    1 type  3   force =     0.00087585   -0.00019843    0.00022437
     atom    2 type  2   force =    -0.00052502   -0.00048746   -0.00004886
     atom    3 type  2   force =    -0.00084996    0.00087398   -0.00012675
     atom    4 type  1   force =     0.00016464    0.00023549    0.01134255
     atom    5 type  1   force =     0.00015239    0.00005027    0.01125416
     atom    6 type  1   force =     0.00019004    0.00004636    0.01121264
     atom    7 type  1   force =     0.00023225   -0.00003262    0.01136962
     atom    8 type  1   force =    -0.00008210    0.00018812    0.01127308
     atom    9 type  1   force =    -0.00001545   -0.00000612    0.01114068
     atom   10 type  1   force =    -0.00001210   -0.00004322    0.01115442
     atom   11 type  1   force =     0.00000110   -0.00021588    0.01131181
     atom   12 type  1   force =    -0.00005972    0.00018773    0.01120638
     atom   13 type  1   force =    -0.00005727   -0.00000722    0.01118152
     atom   14 type  1   force =     0.00001179   -0.00003132    0.01119289
     atom   15 type  1   force =     0.00000121   -0.00024664    0.01129399
     atom   16 type  1   force =    -0.00013232    0.00020490    0.01142120
     atom   17 type  1   force =    -0.00010334   -0.00006066    0.01135353
     atom   18 type  1   force =    -0.00022239   -0.00010352    0.01128344
     atom   19 type  1   force =    -0.00017380   -0.00021703    0.01147026
     atom   20 type  1   force =     0.00023186    0.00037425    0.00236662
     atom   21 type  1   force =     0.00022420    0.00007170    0.00243548
     atom   22 type  1   force =     0.00026301    0.00004262    0.00246120
     atom   23 type  1   force =     0.00018695   -0.00021101    0.00229449
     atom   24 type  1   force =    -0.00000813    0.00024480    0.00255646
     atom   25 type  1   force =     0.00001455    0.00001193    0.00247257
     atom   26 type  1   force =    -0.00003586    0.00004381    0.00256955
     atom   27 type  1   force =     0.00008170   -0.00025285    0.00255109
     atom   28 type  1   force =    -0.00004669    0.00028143    0.00244310
     atom   29 type  1   force =     0.00002598    0.00003741    0.00246592
     atom   30 type  1   force =     0.00001121    0.00001324    0.00250886
     atom   31 type  1   force =     0.00006950   -0.00030053    0.00246168
     atom   32 type  1   force =    -0.00023020    0.00019302    0.00243097
     atom   33 type  1   force =    -0.00021296   -0.00008906    0.00254021
     atom   34 type  1   force =    -0.00018778   -0.00006483    0.00262925
     atom   35 type  1   force =    -0.00019397   -0.00039176    0.00253399
     atom   36 type  1   force =     0.00000452    0.00009124   -0.00040995
     atom   37 type  1   force =    -0.00005509   -0.00000751   -0.00013414
     atom   38 type  1   force =    -0.00002436   -0.00007476   -0.00033360
     atom   39 type  1   force =     0.00009200   -0.00002319   -0.00038943
     atom   40 type  1   force =    -0.00000878    0.00006358   -0.00038548
     atom   41 type  1   force =     0.00011937   -0.00013787    0.00020830
     atom   42 type  1   force =     0.00003193    0.00010285   -0.00017485
     atom   43 type  1   force =     0.00005525    0.00010232   -0.00042041
     atom   44 type  1   force =    -0.00008362   -0.00004619   -0.00045069
     atom   45 type  1   force =    -0.00010034    0.00004039   -0.00023947
     atom   46 type  1   force =     0.00009604    0.00002577   -0.00022885
     atom   47 type  1   force =    -0.00000281   -0.00001340   -0.00069699
     atom   48 type  1   force =    -0.00003984    0.00005570   -0.00044386
     atom   49 type  1   force =     0.00000656    0.00006659   -0.00033107
     atom   50 type  1   force =    -0.00002373   -0.00004268   -0.00035970
     atom   51 type  1   force =    -0.00016356   -0.00007148   -0.00068780
     atom   52 type  1   force =     0.00007686    0.00012433   -0.01372455
     atom   53 type  1   force =     0.00063060    0.00031130   -0.01386084
     atom   54 type  1   force =    -0.00004303   -0.00003042   -0.01338217
     atom   55 type  1   force =     0.00006382   -0.00004300   -0.01341503
     atom   56 type  1   force =    -0.00004873    0.00013210   -0.01351276
     atom   57 type  1   force =    -0.00008487    0.00062756   -0.01308091
     atom   58 type  1   force =     0.00046447   -0.00095743   -0.01396011
     atom   59 type  1   force =     0.00009156   -0.00000501   -0.01320081
     atom   60 type  1   force =    -0.00005547    0.00000989   -0.01347695
     atom   61 type  1   force =    -0.00011923   -0.00000878   -0.01339869
     atom   62 type  1   force =    -0.00029075   -0.00042696   -0.01308123
     atom   63 type  1   force =    -0.00003973    0.00000304   -0.01309018
     atom   64 type  1   force =    -0.00002546    0.00004992   -0.01343208
     atom   65 type  1   force =    -0.00001242    0.00003239   -0.01336605
     atom   66 type  1   force =    -0.00003983   -0.00005289   -0.01341359
     atom   67 type  1   force =    -0.00006048   -0.00003829   -0.01335843

     Total force =     0.001696     Total SCF correction =     0.000003

     bfgs converged in  18 scf cycles and  17 bfgs steps
     (criteria: energy <  1.0E-04, force <  1.0E-03)

     End of BFGS Geometry Optimization

     Final energy   =   -6564.2052401205 Ry
Begin final coordinates

ATOMIC_POSITIONS (angstrom)
O        3.379648391   3.385881174  10.559254811
H        2.801196525   2.871179215   9.962418081
H        4.180628154   2.834961242  10.648975128
Au       4.261116982   7.380469799   0.000000000    0   0   0
Au       5.765039921   4.775598049   0.000000000    0   0   0
Au       7.268963814   2.170727015   0.000000000    0   0   0
Au       8.772887230  -0.434145004   0.000000000    0   0   0
Au       1.253270030   7.380469799   0.000000000    0   0   0
Au       2.757193089   4.775598049   0.000000000    0   0   0
Au       4.261116982   2.170727015   0.000000000    0   0   0
Au       5.765039921  -0.434145004   0.000000000    0   0   0
Au      -1.754577041   7.380469799   0.000000000    0   0   0
Au      -0.250654012   4.775598049   0.000000000    0   0   0
Au       1.253270030   2.170727015   0.000000000    0   0   0
Au       2.757193089  -0.434145004   0.000000000    0   0   0
Au      -4.762423992   7.380469799   0.000000000    0   0   0
Au      -3.258500099   4.775598049   0.000000000    0   0   0
Au      -1.754577041   2.170727015   0.000000000    0   0   0
Au      -0.250654012  -0.434145004   0.000000000    0   0   0
Au       5.765039921   8.248760223   2.455895901    0   0   0
Au       7.268963814   5.643888950   2.455895901    0   0   0
Au       8.772887230   3.039016962   2.455895901    0   0   0
Au      10.276809692   0.434145004   2.455895901    0   0   0
Au       2.757193089   8.248760223   2.455895901    0   0   0
Au       4.261116982   5.643888950   2.455895901    0   0   0
Au       5.765039921   3.039016962   2.455895901    0   0   0
Au       7.268963814   0.434145004   2.455895901    0   0   0
Au      -0.250654012   8.248760223   2.455895901    0   0   0
Au       1.253270030   5.643888950   2.455895901    0   0   0
Au       2.757193089   3.039016962   2.455895901    0   0   0
Au       4.261116982   0.434145004   2.455895901    0   0   0
Au      -3.258500099   8.248760223   2.455895901    0   0   0
Au      -1.754577041   5.643888950   2.455895901    0   0   0
Au      -0.250654012   3.039016962   2.455895901    0   0   0
Au       1.253270030   0.434145004   2.455895901    0   0   0
Au       4.261936188   9.118745804   4.894181728    0   0   0
Au       5.766169071   6.512870789   4.894437790    0   0   0
Au       7.270078182   3.907733679   4.894343853    0   0   0
Au       8.774144173   1.301851511   4.894237995    0   0   0
Au       1.253081799   9.118316650   4.893897533    0   0   0
Au       2.757315159   6.512439728   4.894148827    0   0   0
Au       4.261219978   3.907303810   4.894058228    0   0   0
Au       5.765297413   1.301418781   4.893952847    0   0   0
Au      -1.755005598   9.118157387   4.893870831    0   0   0
Au      -0.250775844   6.512280464   4.894127846    0   0   0
Au       1.253129840   3.907144785   4.894032478    0   0   0
Au       2.757203341   1.301260710   4.893929958    0   0   0
Au      -4.763819218   9.117780685   4.893374920    0   0   0
Au      -3.259585381   6.511903286   4.893631458    0   0   0
Au      -1.755681753   3.906769991   4.893536568    0   0   0
Au      -0.251607478   1.300886750   4.893429756    0   0   0
Au       4.261843204   7.381735802   7.377424240    0   0   0
Au       5.765903950   4.775977135   7.377672672    0   0   0
Au       7.269820690   2.170961618   7.377541542    0   0   0
Au       8.774018288  -0.434744477   7.376971245    0   0   0
Au       1.253179789   7.381431103   7.377737999    0   0   0
Au       2.757243156   4.775669575   7.378001213    0   0   0
Au       4.261157513   2.170650005   7.377856731    0   0   0
Au       5.765354156  -0.435050219   7.377300262    0   0   0
Au      -1.754800200   7.381338120   7.377686977    0   0   0
Au      -0.250744373   4.775576115   7.377937794    0   0   0
Au       1.253174663   2.170560122   7.377810955    0   0   0
Au       2.757369995  -0.435145438   7.377237797    0   0   0
Au      -4.763507843   7.381007195   7.377074242    0   0   0
Au      -3.259441614   4.775242329   7.377336025    0   0   0
Au      -1.755528927   2.170226097   7.377192497    0   0   0
Au      -0.251327693  -0.435472369   7.376640320    0   0   0
End final coordinates



     Writing output data file 33124736.save
 
     init_run     :    103.56s CPU    105.30s WALL (       1 calls)
     electrons    :  61934.19s CPU  63207.39s WALL (      18 calls)
     update_pot   :    109.56s CPU    112.85s WALL (      17 calls)
     forces       :   1273.40s CPU   1328.42s WALL (      18 calls)

     Called by init_run:
     wfcinit      :     88.67s CPU     89.06s WALL (       1 calls)
     potinit      :      3.68s CPU      3.87s WALL (       1 calls)

     Called by electrons:
     c_bands      :  51052.65s CPU  51657.40s WALL (     296 calls)
     sum_band     :   8648.63s CPU   8944.47s WALL (     296 calls)
     v_of_rho     :    594.22s CPU    620.63s WALL (     301 calls)
     newd         :   1401.26s CPU   1690.06s WALL (     301 calls)
     mix_rho      :    119.55s CPU    133.49s WALL (     296 calls)

     Called by c_bands:
     init_us_2    :    128.52s CPU    130.28s WALL (     593 calls)
     cegterg      :  45925.69s CPU  46503.80s WALL (     296 calls)

     Called by sum_band:
     sum_band:bec :      2.07s CPU      2.19s WALL (     296 calls)
     addusdens    :   1669.96s CPU   1944.32s WALL (     296 calls)

     Called by *egterg:
     h_psi        :  23908.50s CPU  24045.71s WALL (    1059 calls)
     s_psi        :   4160.50s CPU   4162.57s WALL (    1059 calls)
     g_psi        :     38.41s CPU     39.50s WALL (     762 calls)
     cdiaghg      :   1332.11s CPU   1339.72s WALL (    1028 calls)

     Called by h_psi:
     add_vuspsi   :   4212.40s CPU   4219.95s WALL (    1059 calls)

     General routines
     calbec       :   8308.03s CPU   8402.56s WALL (    1427 calls)
     fft          :    806.05s CPU    825.35s WALL (    5011 calls)
     ffts         :     22.06s CPU     22.16s WALL (     597 calls)
     fftw         :  13821.93s CPU  13852.85s WALL (  691986 calls)
     interpolate  :     97.68s CPU    101.46s WALL (     597 calls)
     davcio       :      0.01s CPU      2.73s WALL (      18 calls)
 
     Parallel routines
     fft_scatter  :   6097.97s CPU   6130.18s WALL (  697594 calls)
 
     PWSCF        :    17h41m CPU       18h 5m WALL

 
   This run was terminated on:   4:11:28  21Jan2017            

=------------------------------------------------------------------------------=
   JOB DONE.
=------------------------------------------------------------------------------=
