Setting SGE environment for SCC

     Program PWSCF v.5.1.2 starts on 13Aug2015 at  5:30:14 

     This program is part of the open-source Quantum ESPRESSO suite
     for quantum simulation of materials; please cite
         "P. Giannozzi et al., J. Phys.:Condens. Matter 21 395502 (2009);
          URL http://www.quantum-espresso.org", 
     in publications or presentations arising from this work. More details at
     http://www.quantum-espresso.org/quote

     Parallel version (MPI), running on    32 processors
     R & G space division:  proc/nbgrp/npool/nimage =      32
     Reading input from top.O1.Au50.d.3.4.phi.0.psi.180.in
Warning: card &IONS ignored
Warning: card / ignored
Warning: card &CELL ignored
Warning: card / ignored

     Current dimensions of program PWSCF are:
     Max number of different atomic species (ntypx) = 10
     Max number of k-points (npk) =  40000
     Max angular momentum in pseudopotentials (lmaxx) =  3

     IMPORTANT: XC functional enforced from input :
     Exchange-correlation      = VDW-DF ( 1  4  4  0 1 0)
     Any further DFT definition will be discarded
     Please, verify this is what you really want


     Subspace diagonalization in iterative solution of the eigenvalue problem:
     a serial algorithm will be used


     Parallelization info
     --------------------
     sticks:   dense  smooth     PW     G-vecs:    dense   smooth      PW
     Min         445     223     58                96775    34191    4534
     Max         446     224     59                96790    34246    4540
     Sum       14269    7147   1867              3097177  1095093  145167


     Title: 
     top.O1.Au50.d.3.4.phi.0.psi.180                                            


     bravais-lattice index     =            4
     lattice parameter (alat)  =      22.7436  a.u.
     unit-cell volume          =   22924.1508 (a.u.)^3
     number of atoms/cell      =           67
     number of atomic types    =            3
     number of electrons       =       712.00
     number of Kohn-Sham states=          427
     kinetic-energy cutoff     =      50.0000  Ry
     charge density cutoff     =     400.0000  Ry
     convergence threshold     =      1.0E-08
     mixing beta               =       0.7000
     number of iterations used =            8  plain     mixing
     Exchange-correlation      = VDW-DF ( 1  4  4  0 1 0)

     celldm(1)=  22.743643  celldm(2)=   0.000000  celldm(3)=   2.250000
     celldm(4)=   0.000000  celldm(5)=   0.000000  celldm(6)=   0.000000

     crystal axes: (cart. coord. in units of alat)
               a(1) = (   1.000000   0.000000   0.000000 )  
               a(2) = (  -0.500000   0.866025   0.000000 )  
               a(3) = (   0.000000   0.000000   2.250000 )  

     reciprocal axes: (cart. coord. in units 2 pi/alat)
               b(1) = (  1.000000  0.577350 -0.000000 )  
               b(2) = (  0.000000  1.154701  0.000000 )  
               b(3) = (  0.000000 -0.000000  0.444444 )  


     PseudoPot. # 1 for Au read from file:
     /home/scc/andrejb/qe/pseudo/Au.pbe-nd-van.UPF
     MD5 check sum: 458681b50f36d87ef23c61b04bba420a
     Pseudo is Ultrasoft + core correction, Zval = 11.0
     Generated by new atomic code, or converted to UPF format
     Using radial grid of  985 points,  3 beta functions with: 
                l(1) =   1
                l(2) =   2
                l(3) =   2
     Q(r) pseudized with  8 coefficients,  rinner =    1.100   1.100   1.100
                                                       1.100   1.100

     PseudoPot. # 2 for H  read from file:
     /home/scc/andrejb/qe/pseudo/H.pbe-van_ak.UPF
     MD5 check sum: 403db7282739603aa925980fa9b8608d
     Pseudo is Ultrasoft, Zval =  1.0
     Generated by new atomic code, or converted to UPF format
     Using radial grid of  615 points,  1 beta functions with: 
                l(1) =   0
     Q(r) pseudized with  8 coefficients,  rinner =    0.800

     PseudoPot. # 3 for O  read from file:
     /home/scc/andrejb/qe/pseudo/O.pbe-van_ak.UPF
     MD5 check sum: 4b8c549914a63cae506c6ff22b5af4fe
     Pseudo is Ultrasoft, Zval =  6.0
     Generated by new atomic code, or converted to UPF format
     Using radial grid of  737 points,  4 beta functions with: 
                l(1) =   0
                l(2) =   0
                l(3) =   1
                l(4) =   1
     Q(r) pseudized with  8 coefficients,  rinner =    0.800   0.800   0.800


     vdW kernel table read from file vdW_kernel_table
     MD5 check sum: 48e77a2e26edf626eeb0eaa751ad5cac

     atomic species   valence    mass     pseudopotential
        Au            11.00   196.96657     Au( 1.00)
        H              1.00     1.01000     H ( 1.00)
        O              6.00    16.00000     O ( 1.00)

     No symmetry found



   Cartesian axes

     site n.     atom                  positions (alat units)
         1           O   tau(   1) = (   0.4790780   0.3968269   0.8954964  )
         2           H   tau(   2) = (   0.4291446   0.4383745   0.8472428  )
         3           H   tau(   3) = (   0.5274974   0.3565200   0.8447357  )
         4           Au  tau(   4) = (   0.3540481   0.6132292   0.0000000  )
         5           Au  tau(   5) = (   0.4790062   0.3967954   0.0000000  )
         6           Au  tau(   6) = (   0.6039644   0.1803616   0.0000000  )
         7           Au  tau(   7) = (   0.7289225  -0.0360723   0.0000000  )
         8           Au  tau(   8) = (   0.1041318   0.6132292   0.0000000  )
         9           Au  tau(   9) = (   0.2290899   0.3967954   0.0000000  )
        10           Au  tau(  10) = (   0.3540481   0.1803616   0.0000000  )
        11           Au  tau(  11) = (   0.4790062  -0.0360723   0.0000000  )
        12           Au  tau(  12) = (  -0.1457845   0.6132292   0.0000000  )
        13           Au  tau(  13) = (  -0.0208264   0.3967954   0.0000000  )
        14           Au  tau(  14) = (   0.1041318   0.1803616   0.0000000  )
        15           Au  tau(  15) = (   0.2290899  -0.0360723   0.0000000  )
        16           Au  tau(  16) = (  -0.3957008   0.6132292   0.0000000  )
        17           Au  tau(  17) = (  -0.2707426   0.3967954   0.0000000  )
        18           Au  tau(  18) = (  -0.1457845   0.1803616   0.0000000  )
        19           Au  tau(  19) = (  -0.0208264  -0.0360723   0.0000000  )
        20           Au  tau(  20) = (   0.4790062   0.6853738   0.2040557  )
        21           Au  tau(  21) = (   0.6039644   0.4689400   0.2040557  )
        22           Au  tau(  22) = (   0.7289225   0.2525062   0.2040557  )
        23           Au  tau(  23) = (   0.8538806   0.0360723   0.2040557  )
        24           Au  tau(  24) = (   0.2290899   0.6853738   0.2040557  )
        25           Au  tau(  25) = (   0.3540481   0.4689400   0.2040557  )
        26           Au  tau(  26) = (   0.4790062   0.2525062   0.2040557  )
        27           Au  tau(  27) = (   0.6039644   0.0360723   0.2040557  )
        28           Au  tau(  28) = (  -0.0208264   0.6853738   0.2040557  )
        29           Au  tau(  29) = (   0.1041318   0.4689400   0.2040557  )
        30           Au  tau(  30) = (   0.2290899   0.2525062   0.2040557  )
        31           Au  tau(  31) = (   0.3540481   0.0360723   0.2040557  )
        32           Au  tau(  32) = (  -0.2707426   0.6853738   0.2040557  )
        33           Au  tau(  33) = (  -0.1457845   0.4689400   0.2040557  )
        34           Au  tau(  34) = (  -0.0208264   0.2525062   0.2040557  )
        35           Au  tau(  35) = (   0.1041318   0.0360723   0.2040557  )
        36           Au  tau(  36) = (   0.3541162   0.7576593   0.4066483  )
        37           Au  tau(  37) = (   0.4791000   0.5411421   0.4066696  )
        38           Au  tau(  38) = (   0.6040570   0.3246862   0.4066618  )
        39           Au  tau(  39) = (   0.7290270   0.1081684   0.4066530  )
        40           Au  tau(  40) = (   0.1041162   0.7576236   0.4066247  )
        41           Au  tau(  41) = (   0.2291001   0.5411062   0.4066455  )
        42           Au  tau(  42) = (   0.3540567   0.3246505   0.4066380  )
        43           Au  tau(  43) = (   0.4790276   0.1081324   0.4066292  )
        44           Au  tau(  44) = (  -0.1458201   0.7576104   0.4066225  )
        45           Au  tau(  45) = (  -0.0208365   0.5410930   0.4066438  )
        46           Au  tau(  46) = (   0.1041202   0.3246372   0.4066359  )
        47           Au  tau(  47) = (   0.2290908   0.1081193   0.4066273  )
        48           Au  tau(  48) = (  -0.3958167   0.7575791   0.4065812  )
        49           Au  tau(  49) = (  -0.2708328   0.5410617   0.4066025  )
        50           Au  tau(  50) = (  -0.1458763   0.3246061   0.4065947  )
        51           Au  tau(  51) = (  -0.0209056   0.1080882   0.4065858  )
        52           Au  tau(  52) = (   0.3541084   0.6133344   0.6129762  )
        53           Au  tau(  53) = (   0.4790780   0.3968269   0.6129968  )
        54           Au  tau(  54) = (   0.6040356   0.1803811   0.6129859  )
        55           Au  tau(  55) = (   0.7290165  -0.0361221   0.6129385  )
        56           Au  tau(  56) = (   0.1041243   0.6133091   0.6130023  )
        57           Au  tau(  57) = (   0.2290941   0.3968013   0.6130241  )
        58           Au  tau(  58) = (   0.3540515   0.1803552   0.6130121  )
        59           Au  tau(  59) = (   0.4790323  -0.0361475   0.6129659  )
        60           Au  tau(  60) = (  -0.1458030   0.6133014   0.6129980  )
        61           Au  tau(  61) = (  -0.0208339   0.3967936   0.6130189  )
        62           Au  tau(  62) = (   0.1041239   0.1803477   0.6130083  )
        63           Au  tau(  63) = (   0.2291046  -0.0361554   0.6129607  )
        64           Au  tau(  64) = (  -0.3957908   0.6132739   0.6129471  )
        65           Au  tau(  65) = (  -0.2708208   0.3967658   0.6129688  )
        66           Au  tau(  66) = (  -0.1458636   0.1803200   0.6129569  )
        67           Au  tau(  67) = (  -0.0208823  -0.0361826   0.6129110  )

     number of k points=    12  Marzari-Vanderbilt smearing, width (Ry)=  0.0200
                       cart. coord. in units 2pi/alat
        k(    1) = (   0.2500000   0.4330127   0.1111111), wk =   0.1666667
        k(    2) = (   0.2500000  -0.1443376   0.1111111), wk =   0.1666667
        k(    3) = (  -0.2500000  -0.4330127   0.1111111), wk =   0.1666667
        k(    4) = (  -0.2500000   0.4330127  -0.1111111), wk =   0.1666667
        k(    5) = (   0.2500000  -0.4330127  -0.1111111), wk =   0.1666667
        k(    6) = (   0.5000000   0.0000000   0.1111111), wk =   0.1666667
        k(    7) = (  -0.5000000   0.0000000   0.1111111), wk =   0.1666667
        k(    8) = (  -0.2500000   0.1443376   0.1111111), wk =   0.1666667
        k(    9) = (  -0.2500000  -0.1443376  -0.1111111), wk =   0.1666667
        k(   10) = (   0.2500000   0.1443376  -0.1111111), wk =   0.1666667
        k(   11) = (   0.0000000  -0.2886751   0.1111111), wk =   0.1666667
        k(   12) = (   0.0000000   0.2886751   0.1111111), wk =   0.1666667

     Dense  grid:  3097177 G-vectors     FFT dimensions: ( 150, 150, 360)

     Smooth grid:  1095093 G-vectors     FFT dimensions: ( 108, 108, 240)

     Largest allocated arrays     est. size (Mb)     dimensions
        Kohn-Sham Wavefunctions        28.01 Mb     (    4299,  427)
        NL pseudopotentials            55.23 Mb     (    4299,  842)
        Each V/rho on FFT grid          4.12 Mb     (  270000)
        Each G-vector array             0.74 Mb     (   96788)
        G-vector shells                 0.16 Mb     (   21404)
     Largest temporary arrays     est. size (Mb)     dimensions
        Auxiliary wavefunctions       112.04 Mb     (    4299, 1708)
        Each subspace H/S matrix       44.51 Mb     (    1708, 1708)
        Each <psi_i|beta_j> matrix      5.49 Mb     (     842,  427)
        Arrays for rho mixing          32.96 Mb     (  270000,    8)

     Initial potential from superposition of free atoms
     Check: negative starting charge=   -1.730359

     starting charge  711.25682, renormalised to  712.00000

     negative rho (up, down):  1.732E+00 0.000E+00


     ************************************************************************
     *
     * You are using vdW-DF for exchange-correlation in this calculation.
     * Please cite the following three references that made this development
     * possible:
     *
     *   M. Dion, H. Rydberg, E. Schroder, D. C. Langreth, and
     *   B. I. Lundqvist, Phys. Rev. Lett. 92, 246401 (2004).
     *
     *   T. Thonhauser, V. R. Cooper, S. Li, A. Puzder, P. Hyldgaard, and
     *   D. C. Langreth, Phys. Rev. B 76, 125112 (2007).
     *
     *   G. Roman-Perez and J. M. Soler, Phys. Rev. Lett. 103, 096102 (2009).
     *
     *
     * If you are using vdW-DF2, please also cite:
     *
     *   K. Lee, E. D. Murray, L. Kong, B. I. Lundqvist, and
     *   D. C. Langreth, Phys. Rev. B 82, 081101(R) (2010).
     *
     *
     * If you are calculating the stress with vdW-DF, please also cite:
     *
     *   R. Sabatini, E. Kucukbenli, B. Kolb, T. Thonhauser, and
     *   S. de Gironcoli, J. Phys.: Condens. Matter 24, 424209 (2012).
     *
     ************************************************************************

     Carrying out vdW-DF run using the following parameters:

     Nqs =      20    Nr_points =    1024   r_max =   100.000
     q_mesh =
               0.00001000     0.04494208     0.09755937     0.15916263
               0.23128650     0.31572767     0.41458969     0.53033537
               0.66584808     0.82450364     1.01025438     1.22772762
               1.48234092     1.78043706     2.12944203     2.53805004
               3.01644009     3.57652955     4.23227104     5.00000000

     Gradients computed in reciprocal space

     ************************************************************************


     Starting wfc are  582 randomized atomic wfcs

     total cpu time spent up to now is      202.4 secs

     Self-consistent Calculation

     iteration #  1     ecut=    50.00 Ry     beta=0.70
     Davidson diagonalization with overlap
     ethr =  1.00E-02,  avg # of iterations =  3.0

     Threshold (ethr) on eigenvalues was too large:
     Diagonalizing with lowered threshold

     Davidson diagonalization with overlap
     ethr =  3.44E-04,  avg # of iterations =  3.5

     negative rho (up, down):  1.727E+00 0.000E+00

     total cpu time spent up to now is      929.0 secs

     total energy              =   -6602.80325601 Ry
     Harris-Foulkes estimate   =   -6605.02716549 Ry
     estimated scf accuracy    <       2.79147680 Ry

     iteration #  2     ecut=    50.00 Ry     beta=0.70
     Davidson diagonalization with overlap
     ethr =  3.92E-04,  avg # of iterations = 11.7

     negative rho (up, down):  1.727E+00 0.000E+00

     total cpu time spent up to now is     2095.3 secs

     total energy              =   -6596.95642070 Ry
     Harris-Foulkes estimate   =   -6610.06412680 Ry
     estimated scf accuracy    <      72.51747734 Ry

     iteration #  3     ecut=    50.00 Ry     beta=0.70
     Davidson diagonalization with overlap
     ethr =  3.92E-04,  avg # of iterations =  6.0

     negative rho (up, down):  1.737E+00 0.000E+00

     total cpu time spent up to now is     2842.0 secs

     total energy              =   -6603.01682930 Ry
     Harris-Foulkes estimate   =   -6605.07490291 Ry
     estimated scf accuracy    <       9.93748735 Ry

     iteration #  4     ecut=    50.00 Ry     beta=0.70
     Davidson diagonalization with overlap
     ethr =  3.92E-04,  avg # of iterations =  6.3

     negative rho (up, down):  1.738E+00 0.000E+00

     total cpu time spent up to now is     3283.5 secs

     total energy              =   -6603.33125987 Ry
     Harris-Foulkes estimate   =   -6605.32103414 Ry
     estimated scf accuracy    <      19.79706026 Ry

     iteration #  5     ecut=    50.00 Ry     beta=0.70
     Davidson diagonalization with overlap
     ethr =  3.92E-04,  avg # of iterations =  7.6

     negative rho (up, down):  1.748E+00 0.000E+00

     total cpu time spent up to now is     3763.5 secs

     total energy              =   -6604.33979385 Ry
     Harris-Foulkes estimate   =   -6604.62169453 Ry
     estimated scf accuracy    <       1.81275759 Ry

     iteration #  6     ecut=    50.00 Ry     beta=0.70
     Davidson diagonalization with overlap
     ethr =  2.55E-04,  avg # of iterations =  3.8

     negative rho (up, down):  1.753E+00 0.000E+00

     total cpu time spent up to now is     4104.3 secs

     total energy              =   -6604.42988194 Ry
     Harris-Foulkes estimate   =   -6604.46926416 Ry
     estimated scf accuracy    <       0.12421657 Ry

     iteration #  7     ecut=    50.00 Ry     beta=0.70
     Davidson diagonalization with overlap
     ethr =  1.74E-05,  avg # of iterations = 10.4

     negative rho (up, down):  1.755E+00 0.000E+00

     total cpu time spent up to now is     4646.6 secs

     total energy              =   -6604.43286580 Ry
     Harris-Foulkes estimate   =   -6604.45895100 Ry
     estimated scf accuracy    <       0.11328981 Ry

     iteration #  8     ecut=    50.00 Ry     beta=0.70
     Davidson diagonalization with overlap
     ethr =  1.59E-05,  avg # of iterations =  3.4

     negative rho (up, down):  1.756E+00 0.000E+00

     total cpu time spent up to now is     5001.3 secs

     total energy              =   -6604.43460253 Ry
     Harris-Foulkes estimate   =   -6604.44804397 Ry
     estimated scf accuracy    <       0.05110924 Ry

     iteration #  9     ecut=    50.00 Ry     beta=0.70
     Davidson diagonalization with overlap
     ethr =  7.18E-06,  avg # of iterations =  5.4

     negative rho (up, down):  1.756E+00 0.000E+00

     total cpu time spent up to now is     5403.5 secs

     total energy              =   -6604.43426289 Ry
     Harris-Foulkes estimate   =   -6604.44030283 Ry
     estimated scf accuracy    <       0.02257646 Ry

     iteration # 10     ecut=    50.00 Ry     beta=0.70
     Davidson diagonalization with overlap
     ethr =  3.17E-06,  avg # of iterations =  8.8

     negative rho (up, down):  1.757E+00 0.000E+00

     total cpu time spent up to now is     5861.8 secs

     total energy              =   -6604.43339481 Ry
     Harris-Foulkes estimate   =   -6604.43647898 Ry
     estimated scf accuracy    <       0.01166714 Ry

     iteration # 11     ecut=    50.00 Ry     beta=0.70
     Davidson diagonalization with overlap
     ethr =  1.64E-06,  avg # of iterations =  4.6

     negative rho (up, down):  1.757E+00 0.000E+00

     total cpu time spent up to now is     6250.1 secs

     total energy              =   -6604.43308983 Ry
     Harris-Foulkes estimate   =   -6604.43457920 Ry
     estimated scf accuracy    <       0.00640069 Ry

     iteration # 12     ecut=    50.00 Ry     beta=0.70
     Davidson diagonalization with overlap
     ethr =  8.99E-07,  avg # of iterations =  5.3

     negative rho (up, down):  1.758E+00 0.000E+00

     total cpu time spent up to now is     6643.8 secs

     total energy              =   -6604.43270618 Ry
     Harris-Foulkes estimate   =   -6604.43362497 Ry
     estimated scf accuracy    <       0.00166459 Ry

     iteration # 13     ecut=    50.00 Ry     beta=0.70
     Davidson diagonalization with overlap
     ethr =  2.34E-07,  avg # of iterations =  7.6

     negative rho (up, down):  1.758E+00 0.000E+00

     total cpu time spent up to now is     7101.7 secs

     total energy              =   -6604.43299270 Ry
     Harris-Foulkes estimate   =   -6604.43310478 Ry
     estimated scf accuracy    <       0.00026670 Ry

     iteration # 14     ecut=    50.00 Ry     beta=0.70
     Davidson diagonalization with overlap
     ethr =  3.75E-08,  avg # of iterations =  3.0

     negative rho (up, down):  1.757E+00 0.000E+00

     total cpu time spent up to now is     7485.2 secs

     total energy              =   -6604.43301598 Ry
     Harris-Foulkes estimate   =   -6604.43309750 Ry
     estimated scf accuracy    <       0.00036596 Ry

     iteration # 15     ecut=    50.00 Ry     beta=0.70
     Davidson diagonalization with overlap
     ethr =  3.75E-08,  avg # of iterations =  2.0

     negative rho (up, down):  1.757E+00 0.000E+00

     total cpu time spent up to now is     7819.7 secs

     total energy              =   -6604.43304822 Ry
     Harris-Foulkes estimate   =   -6604.43307469 Ry
     estimated scf accuracy    <       0.00021082 Ry

     iteration # 16     ecut=    50.00 Ry     beta=0.70
     Davidson diagonalization with overlap
     ethr =  2.96E-08,  avg # of iterations =  2.0

     negative rho (up, down):  1.757E+00 0.000E+00

     total cpu time spent up to now is     8162.6 secs

     total energy              =   -6604.43306171 Ry
     Harris-Foulkes estimate   =   -6604.43306488 Ry
     estimated scf accuracy    <       0.00000927 Ry

     iteration # 17     ecut=    50.00 Ry     beta=0.70
     Davidson diagonalization with overlap
     ethr =  1.30E-09,  avg # of iterations =  3.0

     negative rho (up, down):  1.757E+00 0.000E+00

     total cpu time spent up to now is     8610.5 secs

     total energy              =   -6604.43306082 Ry
     Harris-Foulkes estimate   =   -6604.43306653 Ry
     estimated scf accuracy    <       0.00002994 Ry

     iteration # 18     ecut=    50.00 Ry     beta=0.70
     Davidson diagonalization with overlap
     ethr =  1.30E-09,  avg # of iterations =  2.0

     negative rho (up, down):  1.757E+00 0.000E+00

     total cpu time spent up to now is     8966.3 secs

     total energy              =   -6604.43306341 Ry
     Harris-Foulkes estimate   =   -6604.43306461 Ry
     estimated scf accuracy    <       0.00000510 Ry

     iteration # 19     ecut=    50.00 Ry     beta=0.70
     Davidson diagonalization with overlap
     ethr =  7.16E-10,  avg # of iterations =  2.0

     negative rho (up, down):  1.757E+00 0.000E+00

     total cpu time spent up to now is     9302.1 secs

     total energy              =   -6604.43306401 Ry
     Harris-Foulkes estimate   =   -6604.43306417 Ry
     estimated scf accuracy    <       0.00000060 Ry

     iteration # 20     ecut=    50.00 Ry     beta=0.70
     Davidson diagonalization with overlap
     ethr =  8.47E-11,  avg # of iterations =  3.0

     negative rho (up, down):  1.757E+00 0.000E+00

     total cpu time spent up to now is     9704.1 secs

     total energy              =   -6604.43306412 Ry
     Harris-Foulkes estimate   =   -6604.43306419 Ry
     estimated scf accuracy    <       0.00000029 Ry

     iteration # 21     ecut=    50.00 Ry     beta=0.70
     Davidson diagonalization with overlap
     ethr =  4.11E-11,  avg # of iterations =  2.0

     negative rho (up, down):  1.757E+00 0.000E+00

     total cpu time spent up to now is    10052.9 secs

     total energy              =   -6604.43306417 Ry
     Harris-Foulkes estimate   =   -6604.43306419 Ry
     estimated scf accuracy    <       0.00000023 Ry

     iteration # 22     ecut=    50.00 Ry     beta=0.70
     Davidson diagonalization with overlap
     ethr =  3.22E-11,  avg # of iterations =  1.8

     negative rho (up, down):  1.757E+00 0.000E+00

     total cpu time spent up to now is    10396.2 secs

     total energy              =   -6604.43306418 Ry
     Harris-Foulkes estimate   =   -6604.43306419 Ry
     estimated scf accuracy    <       0.00000004 Ry

     iteration # 23     ecut=    50.00 Ry     beta=0.70
     Davidson diagonalization with overlap
     ethr =  5.70E-12,  avg # of iterations =  3.0

     negative rho (up, down):  1.757E+00 0.000E+00

     total cpu time spent up to now is    10790.7 secs

     total energy              =   -6604.43306418 Ry
     Harris-Foulkes estimate   =   -6604.43306420 Ry
     estimated scf accuracy    <       0.00000004 Ry

     iteration # 24     ecut=    50.00 Ry     beta=0.70
     Davidson diagonalization with overlap
     ethr =  5.35E-12,  avg # of iterations =  3.0

     negative rho (up, down):  1.757E+00 0.000E+00

     total cpu time spent up to now is    11153.0 secs

     End of self-consistent calculation

          k = 0.2500 0.4330 0.1111 (136853 PWs)   bands (ev):

   -18.5757  -6.4692  -6.4040  -6.0704  -6.0691  -5.3929  -5.0584  -5.0582
    -5.0217  -5.0180  -4.6582  -4.6577  -4.5594  -4.5592  -4.5453  -4.5223
    -4.5011  -4.3921  -4.3911  -4.3674  -4.3240  -4.3239  -4.2559  -4.2549
    -4.2490  -4.2482  -4.2268  -4.2213  -4.2201  -4.1527  -4.1476  -4.1188
    -4.1183  -4.1065  -4.1062  -4.0831  -4.0830  -4.0605  -4.0520  -4.0520
    -4.0258  -3.9733  -3.9730  -3.9253  -3.9247  -3.8666  -3.8661  -3.8123
    -3.8110  -3.8109  -3.8106  -3.7752  -3.7375  -3.7371  -3.7296  -3.7283
    -3.7281  -3.6991  -3.6970  -3.6886  -3.6282  -3.6277  -3.6189  -3.6015
    -3.5940  -3.5225  -3.5213  -3.4894  -3.4874  -3.4608  -3.4598  -3.4463
    -3.4303  -3.3707  -3.3701  -3.3525  -3.3521  -3.3010  -3.2960  -3.2957
    -3.2564  -3.2270  -3.2250  -3.2178  -3.2166  -3.2043  -3.2038  -3.1961
    -3.1955  -3.1861  -3.1452  -3.1076  -3.1064  -3.0927  -3.0921  -3.0655
    -3.0570  -3.0567  -3.0377  -2.9931  -2.9895  -2.9811  -2.9422  -2.9366
    -2.9253  -2.9232  -2.8953  -2.8947  -2.8657  -2.8294  -2.8274  -2.8065
    -2.7976  -2.7892  -2.7832  -2.7511  -2.7330  -2.7215  -2.6999  -2.6772
    -2.6757  -2.6537  -2.6489  -2.6417  -2.6379  -2.6301  -2.6082  -2.6076
    -2.5628  -2.5617  -2.5609  -2.5452  -2.5447  -2.5388  -2.5307  -2.5281
    -2.5274  -2.5253  -2.5211  -2.5105  -2.5079  -2.4996  -2.4734  -2.4723
    -2.4704  -2.4685  -2.4671  -2.4658  -2.4626  -2.4385  -2.4350  -2.4215
    -2.4208  -2.4027  -2.4016  -2.3933  -2.3917  -2.3914  -2.3895  -2.3714
    -2.3701  -2.3687  -2.3658  -2.3500  -2.3255  -2.3242  -2.2847  -2.2846
    -2.2604  -2.2594  -2.2326  -2.2309  -2.2048  -2.2034  -2.1869  -2.1819
    -2.1554  -2.1362  -2.1337  -2.1277  -2.1256  -2.1225  -2.1157  -2.1146
    -2.0875  -2.0827  -2.0741  -2.0166  -2.0126  -2.0118  -2.0091  -2.0074
    -1.9748  -1.9534  -1.9528  -1.9256  -1.9242  -1.8659  -1.8647  -1.8351
    -1.8172  -1.8152  -1.7566  -1.7559  -1.7452  -1.7434  -1.7334  -1.7324
    -1.7290  -1.7210  -1.7189  -1.6653  -1.6613  -1.6520  -1.6514  -1.6504
    -1.6334  -1.6303  -1.5971  -1.5958  -1.5793  -1.5782  -1.5780  -1.5712
    -1.5662  -1.5584  -1.5558  -1.5373  -1.5372  -1.4970  -1.4931  -1.4852
    -1.4830  -1.4643  -1.4490  -1.4084  -1.4061  -1.3800  -1.3763  -1.3753
    -1.3462  -1.2963  -1.2930  -1.2922  -1.2915  -1.2870  -1.2860  -1.2763
    -1.2592  -1.2573  -1.2191  -1.2167  -1.1876  -1.1868  -1.1816  -1.1808
    -1.1739  -1.1581  -1.1569  -1.1563  -1.1530  -1.1525  -1.1144  -1.1139
    -1.1131  -1.1120  -1.0823  -1.0806  -1.0782  -1.0531  -1.0469  -1.0447
    -0.9999  -0.9930  -0.9913  -0.9566  -0.9491  -0.9379  -0.9374  -0.9297
    -0.9293  -0.9281  -0.9273  -0.9162  -0.9156  -0.8906  -0.8901  -0.8866
    -0.8844  -0.8842  -0.8473  -0.8471  -0.8377  -0.8358  -0.8214  -0.8142
    -0.8125  -0.8011  -0.7453  -0.7441  -0.7349  -0.7347  -0.7332  -0.7325
    -0.7277  -0.7081  -0.7075  -0.7004  -0.6989  -0.6976  -0.6969  -0.6577
    -0.6562  -0.6547  -0.6473  -0.6460  -0.6425  -0.6396  -0.6306  -0.6239
    -0.6200  -0.6192  -0.5841  -0.5776  -0.5740  -0.5693  -0.5651  -0.5597
    -0.4886  -0.4861  -0.4847  -0.4846  -0.4756  -0.4750  -0.4390  -0.4264
    -0.4262  -0.3961  -0.3939  -0.3914  -0.2717  -0.2708  -0.1694   0.2448
     0.2454   0.2489   0.2492   0.3089   0.3134   0.6964   0.6990   0.7406
     0.7420   0.8539   0.9312   1.0419   1.0431   1.2656   1.2669   1.8940
     1.8968   2.0566   2.0595   2.1890   2.1943   2.2942   2.2944   2.4484
     2.6855   2.6965   2.8097   3.0336   3.0367   3.1168   3.1180   3.2164
     3.2335   3.4346   3.4389   3.4888   3.6901   3.6915   3.7533   3.7551
     4.0098   4.0172   4.0199   4.2608   4.3010   4.3036   4.3479   4.6818
     4.6861   4.7119   4.8488   5.0211   5.0224   5.0865   5.1016   5.5356
     5.7974   5.8092   5.8174   5.8238   5.8533   5.8835   5.8846   5.9803
     5.9968   6.0177   6.0444   6.0507   6.0739   6.0767   6.1051   6.1092
     6.2001   6.5449   6.5727   6.6854   6.7220   6.7568   6.7605   6.7643
     6.8090   6.8733   6.9681

          k = 0.2500-0.1443 0.1111 (136898 PWs)   bands (ev):

   -18.5757  -6.6792  -6.4039  -5.8870  -5.5967  -5.5371  -5.5363  -4.9985
    -4.9980  -4.8672  -4.8661  -4.7110  -4.6826  -4.6185  -4.5871  -4.5843
    -4.5515  -4.5514  -4.4229  -4.3811  -4.3810  -4.3215  -4.3012  -4.2997
    -4.1978  -4.1975  -4.1617  -4.1611  -4.1611  -4.1344  -4.1128  -4.1126
    -4.0090  -4.0055  -4.0055  -3.9850  -3.9683  -3.9677  -3.9564  -3.9552
    -3.9423  -3.9127  -3.9120  -3.9118  -3.9115  -3.8791  -3.8789  -3.8615
    -3.8611  -3.8483  -3.8058  -3.8051  -3.7737  -3.7604  -3.7573  -3.7528
    -3.7528  -3.6786  -3.6783  -3.6437  -3.6426  -3.6403  -3.5730  -3.5726
    -3.5586  -3.5569  -3.5273  -3.5268  -3.5258  -3.5250  -3.3726  -3.3710
    -3.3470  -3.3469  -3.3417  -3.3258  -3.3246  -3.2997  -3.2991  -3.2499
    -3.2488  -3.2335  -3.2323  -3.2126  -3.1649  -3.1645  -3.1451  -3.1401
    -3.1387  -3.0999  -3.0981  -3.0926  -3.0908  -3.0770  -3.0741  -3.0361
    -3.0352  -3.0155  -3.0139  -3.0118  -3.0099  -3.0069  -2.9327  -2.9299
    -2.9294  -2.9030  -2.8988  -2.8394  -2.8379  -2.8130  -2.8081  -2.7975
    -2.7946  -2.7909  -2.7608  -2.7597  -2.7531  -2.7447  -2.7297  -2.7073
    -2.7071  -2.6962  -2.6855  -2.6845  -2.6741  -2.6737  -2.6701  -2.6620
    -2.6618  -2.6162  -2.5843  -2.5839  -2.5665  -2.5536  -2.5485  -2.5456
    -2.5396  -2.5392  -2.5382  -2.5088  -2.5087  -2.5047  -2.4985  -2.4967
    -2.4816  -2.4535  -2.4532  -2.4526  -2.4520  -2.4497  -2.4063  -2.3754
    -2.3743  -2.3732  -2.3674  -2.3587  -2.3470  -2.3460  -2.3291  -2.3291
    -2.2965  -2.2943  -2.2937  -2.2751  -2.2748  -2.2743  -2.2424  -2.2407
    -2.2019  -2.1984  -2.1926  -2.1900  -2.1897  -2.1840  -2.1834  -2.1806
    -2.1797  -2.1738  -2.1729  -2.1573  -2.1565  -2.0310  -2.0297  -1.9966
    -1.9910  -1.9900  -1.9846  -1.9840  -1.9679  -1.9670  -1.9641  -1.9636
    -1.9609  -1.9394  -1.9324  -1.9322  -1.9214  -1.9190  -1.9177  -1.8965
    -1.8953  -1.8678  -1.8673  -1.8368  -1.8357  -1.8251  -1.8167  -1.7987
    -1.7982  -1.7957  -1.7779  -1.7651  -1.7645  -1.7575  -1.7572  -1.7316
    -1.7311  -1.7141  -1.7140  -1.6816  -1.6787  -1.6714  -1.6220  -1.6214
    -1.6075  -1.6068  -1.6048  -1.5816  -1.5789  -1.5467  -1.5452  -1.5445
    -1.5102  -1.5013  -1.5009  -1.4855  -1.4846  -1.4598  -1.4574  -1.4560
    -1.4280  -1.4246  -1.4245  -1.3630  -1.3610  -1.3497  -1.3479  -1.3328
    -1.3324  -1.3194  -1.3190  -1.3012  -1.2884  -1.2607  -1.2605  -1.2486
    -1.2181  -1.2105  -1.2103  -1.1987  -1.1986  -1.1963  -1.1914  -1.1912
    -1.1774  -1.1481  -1.1474  -1.1373  -1.1341  -1.1325  -1.1322  -1.1106
    -1.0911  -1.0900  -1.0706  -1.0689  -0.9776  -0.9643  -0.9588  -0.9584
    -0.9545  -0.9497  -0.9483  -0.9266  -0.9245  -0.9093  -0.9074  -0.8936
    -0.8935  -0.8845  -0.8655  -0.8631  -0.8613  -0.8537  -0.7814  -0.7811
    -0.7473  -0.7467  -0.7427  -0.7363  -0.7353  -0.7339  -0.7337  -0.7231
    -0.7201  -0.7040  -0.6793  -0.6654  -0.6465  -0.6459  -0.6341  -0.6334
    -0.6242  -0.6205  -0.6203  -0.6187  -0.6178  -0.6012  -0.5962  -0.5961
    -0.5752  -0.5654  -0.5638  -0.5621  -0.5516  -0.5514  -0.5320  -0.5002
    -0.4998  -0.4908  -0.4903  -0.4227  -0.4224  -0.3855  -0.3852  -0.3271
    -0.3269  -0.3260  -0.3128  -0.2997  -0.0717  -0.0683   0.2737   0.2739
     0.3657   0.3690   0.5602   0.5770   0.5912   0.7210   0.7227   1.1540
     1.1543   1.1713   1.4327   1.4639   1.4643   1.7411   1.7469   1.8196
     1.8205   1.8458   1.8502   2.0758   2.0771   2.1647   2.1657   2.2429
     2.3037   2.3086   2.4677   2.5676   3.0058   3.0078   3.0091   3.0118
     3.0643   3.0664   3.3577   3.3584   3.6378   3.6438   3.7512   4.0538
     4.0941   4.0993   4.3104   4.3387   4.3968   4.3976   4.4889   4.6062
     4.6081   4.7230   4.7255   5.0278   5.0947   5.0978   5.2567   5.2884
     5.4266   5.4829   5.4875   5.5118   5.5131   5.5733   5.5756   5.6331
     5.9521   6.0181   6.1818   6.2308   6.2990   6.3168   6.3194   6.3298
     6.3346   6.5614   6.5751   6.6389   6.7367   6.7864   6.8119   6.8250
     6.8749   7.0715   7.1235

          k =-0.2500-0.4330 0.1111 (136853 PWs)   bands (ev):

   -18.5757  -6.4692  -6.4040  -6.0704  -6.0691  -5.3929  -5.0584  -5.0582
    -5.0217  -5.0180  -4.6582  -4.6577  -4.5594  -4.5592  -4.5453  -4.5223
    -4.5011  -4.3921  -4.3911  -4.3674  -4.3240  -4.3239  -4.2559  -4.2549
    -4.2490  -4.2482  -4.2268  -4.2213  -4.2201  -4.1527  -4.1476  -4.1188
    -4.1183  -4.1065  -4.1062  -4.0831  -4.0830  -4.0605  -4.0520  -4.0520
    -4.0258  -3.9733  -3.9730  -3.9253  -3.9247  -3.8666  -3.8661  -3.8123
    -3.8110  -3.8109  -3.8106  -3.7752  -3.7375  -3.7371  -3.7296  -3.7283
    -3.7281  -3.6991  -3.6970  -3.6886  -3.6282  -3.6277  -3.6189  -3.6015
    -3.5940  -3.5225  -3.5213  -3.4894  -3.4874  -3.4608  -3.4598  -3.4463
    -3.4303  -3.3707  -3.3701  -3.3525  -3.3521  -3.3010  -3.2960  -3.2957
    -3.2564  -3.2270  -3.2250  -3.2178  -3.2166  -3.2043  -3.2038  -3.1961
    -3.1955  -3.1861  -3.1452  -3.1076  -3.1064  -3.0927  -3.0921  -3.0655
    -3.0570  -3.0567  -3.0377  -2.9931  -2.9895  -2.9811  -2.9422  -2.9366
    -2.9253  -2.9232  -2.8953  -2.8947  -2.8657  -2.8294  -2.8274  -2.8065
    -2.7976  -2.7892  -2.7832  -2.7511  -2.7330  -2.7215  -2.6999  -2.6772
    -2.6757  -2.6537  -2.6489  -2.6417  -2.6379  -2.6301  -2.6082  -2.6076
    -2.5628  -2.5617  -2.5609  -2.5452  -2.5447  -2.5388  -2.5307  -2.5281
    -2.5274  -2.5253  -2.5211  -2.5105  -2.5079  -2.4996  -2.4734  -2.4723
    -2.4704  -2.4685  -2.4671  -2.4658  -2.4626  -2.4385  -2.4350  -2.4215
    -2.4208  -2.4027  -2.4016  -2.3933  -2.3917  -2.3914  -2.3895  -2.3714
    -2.3701  -2.3687  -2.3658  -2.3500  -2.3255  -2.3242  -2.2847  -2.2846
    -2.2604  -2.2594  -2.2326  -2.2309  -2.2048  -2.2034  -2.1869  -2.1819
    -2.1554  -2.1362  -2.1337  -2.1277  -2.1256  -2.1225  -2.1157  -2.1146
    -2.0875  -2.0827  -2.0741  -2.0166  -2.0126  -2.0118  -2.0091  -2.0074
    -1.9748  -1.9534  -1.9528  -1.9256  -1.9242  -1.8659  -1.8647  -1.8351
    -1.8172  -1.8152  -1.7566  -1.7559  -1.7452  -1.7434  -1.7334  -1.7324
    -1.7290  -1.7210  -1.7189  -1.6653  -1.6613  -1.6520  -1.6514  -1.6504
    -1.6334  -1.6303  -1.5971  -1.5958  -1.5793  -1.5782  -1.5780  -1.5712
    -1.5662  -1.5584  -1.5558  -1.5373  -1.5372  -1.4970  -1.4931  -1.4852
    -1.4830  -1.4643  -1.4490  -1.4084  -1.4061  -1.3800  -1.3763  -1.3753
    -1.3462  -1.2963  -1.2930  -1.2922  -1.2915  -1.2870  -1.2860  -1.2763
    -1.2592  -1.2573  -1.2191  -1.2167  -1.1876  -1.1868  -1.1816  -1.1808
    -1.1739  -1.1581  -1.1569  -1.1563  -1.1530  -1.1525  -1.1144  -1.1139
    -1.1131  -1.1120  -1.0823  -1.0806  -1.0782  -1.0531  -1.0469  -1.0447
    -0.9999  -0.9930  -0.9913  -0.9566  -0.9491  -0.9379  -0.9374  -0.9297
    -0.9293  -0.9281  -0.9273  -0.9162  -0.9156  -0.8906  -0.8901  -0.8866
    -0.8844  -0.8842  -0.8473  -0.8471  -0.8377  -0.8358  -0.8214  -0.8142
    -0.8125  -0.8011  -0.7453  -0.7441  -0.7349  -0.7347  -0.7332  -0.7325
    -0.7277  -0.7081  -0.7075  -0.7004  -0.6989  -0.6976  -0.6969  -0.6577
    -0.6562  -0.6547  -0.6473  -0.6460  -0.6425  -0.6396  -0.6306  -0.6239
    -0.6200  -0.6192  -0.5841  -0.5776  -0.5740  -0.5693  -0.5651  -0.5597
    -0.4886  -0.4861  -0.4847  -0.4846  -0.4756  -0.4750  -0.4390  -0.4264
    -0.4262  -0.3961  -0.3939  -0.3914  -0.2717  -0.2708  -0.1694   0.2448
     0.2454   0.2489   0.2492   0.3089   0.3134   0.6964   0.6990   0.7406
     0.7420   0.8539   0.9312   1.0419   1.0431   1.2656   1.2669   1.8940
     1.8968   2.0566   2.0595   2.1890   2.1943   2.2942   2.2944   2.4484
     2.6855   2.6965   2.8097   3.0336   3.0367   3.1168   3.1180   3.2164
     3.2335   3.4346   3.4389   3.4888   3.6901   3.6915   3.7533   3.7551
     4.0098   4.0172   4.0199   4.2608   4.3010   4.3036   4.3479   4.6818
     4.6861   4.7119   4.8488   5.0211   5.0224   5.0865   5.1016   5.5356
     5.7974   5.8092   5.8174   5.8238   5.8533   5.8835   5.8846   5.9803
     5.9969   6.0177   6.0444   6.0507   6.0739   6.0767   6.1051   6.1092
     6.2002   6.5451   6.5725   6.6854   6.7220   6.7568   6.7605   6.7643
     6.8089   6.8733   6.9669

          k =-0.2500 0.4330-0.1111 (136853 PWs)   bands (ev):

   -18.5757  -6.4694  -6.4038  -6.0712  -6.0683  -5.3928  -5.0593  -5.0574
    -5.0224  -5.0174  -4.6588  -4.6569  -4.5594  -4.5591  -4.5450  -4.5223
    -4.5009  -4.3922  -4.3914  -4.3675  -4.3241  -4.3239  -4.2559  -4.2546
    -4.2503  -4.2472  -4.2267  -4.2228  -4.2187  -4.1537  -4.1467  -4.1194
    -4.1174  -4.1068  -4.1058  -4.0832  -4.0829  -4.0605  -4.0523  -4.0518
    -4.0259  -3.9734  -3.9730  -3.9261  -3.9239  -3.8664  -3.8659  -3.8122
    -3.8110  -3.8108  -3.8104  -3.7753  -3.7378  -3.7366  -3.7295  -3.7289
    -3.7278  -3.7008  -3.6960  -3.6885  -3.6282  -3.6274  -3.6194  -3.6012
    -3.5938  -3.5237  -3.5208  -3.4908  -3.4864  -3.4606  -3.4595  -3.4462
    -3.4303  -3.3708  -3.3700  -3.3524  -3.3520  -3.3009  -3.2963  -3.2955
    -3.2563  -3.2281  -3.2241  -3.2180  -3.2166  -3.2045  -3.2037  -3.1961
    -3.1953  -3.1862  -3.1451  -3.1079  -3.1064  -3.0929  -3.0917  -3.0655
    -3.0581  -3.0559  -3.0377  -2.9930  -2.9896  -2.9814  -2.9418  -2.9366
    -2.9244  -2.9238  -2.8957  -2.8954  -2.8657  -2.8292  -2.8271  -2.8061
    -2.7976  -2.7885  -2.7830  -2.7518  -2.7335  -2.7206  -2.6994  -2.6776
    -2.6751  -2.6539  -2.6499  -2.6417  -2.6374  -2.6302  -2.6086  -2.6071
    -2.5622  -2.5617  -2.5610  -2.5458  -2.5442  -2.5389  -2.5306  -2.5281
    -2.5273  -2.5256  -2.5210  -2.5094  -2.5081  -2.5004  -2.4739  -2.4714
    -2.4702  -2.4685  -2.4676  -2.4656  -2.4625  -2.4389  -2.4351  -2.4220
    -2.4202  -2.4030  -2.4014  -2.3931  -2.3922  -2.3916  -2.3891  -2.3723
    -2.3700  -2.3678  -2.3661  -2.3499  -2.3257  -2.3242  -2.2855  -2.2838
    -2.2611  -2.2589  -2.2323  -2.2306  -2.2055  -2.2028  -2.1869  -2.1819
    -2.1553  -2.1360  -2.1338  -2.1269  -2.1264  -2.1222  -2.1158  -2.1147
    -2.0872  -2.0825  -2.0740  -2.0164  -2.0128  -2.0114  -2.0100  -2.0075
    -1.9749  -1.9540  -1.9521  -1.9260  -1.9240  -1.8660  -1.8645  -1.8355
    -1.8167  -1.8153  -1.7568  -1.7558  -1.7455  -1.7429  -1.7338  -1.7319
    -1.7291  -1.7215  -1.7186  -1.6658  -1.6609  -1.6526  -1.6511  -1.6502
    -1.6344  -1.6294  -1.5974  -1.5955  -1.5797  -1.5785  -1.5775  -1.5709
    -1.5660  -1.5592  -1.5550  -1.5384  -1.5361  -1.4974  -1.4928  -1.4860
    -1.4821  -1.4641  -1.4490  -1.4085  -1.4060  -1.3801  -1.3766  -1.3747
    -1.3462  -1.2965  -1.2934  -1.2923  -1.2913  -1.2872  -1.2859  -1.2767
    -1.2592  -1.2572  -1.2198  -1.2160  -1.1885  -1.1859  -1.1827  -1.1802
    -1.1737  -1.1588  -1.1572  -1.1560  -1.1524  -1.1518  -1.1152  -1.1134
    -1.1128  -1.1122  -1.0841  -1.0805  -1.0774  -1.0529  -1.0473  -1.0445
    -1.0005  -0.9927  -0.9906  -0.9568  -0.9485  -0.9386  -0.9365  -0.9300
    -0.9296  -0.9286  -0.9265  -0.9164  -0.9152  -0.8914  -0.8896  -0.8864
    -0.8855  -0.8835  -0.8473  -0.8468  -0.8404  -0.8352  -0.8203  -0.8138
    -0.8122  -0.8009  -0.7452  -0.7439  -0.7360  -0.7350  -0.7334  -0.7327
    -0.7278  -0.7090  -0.7072  -0.7010  -0.6984  -0.6973  -0.6966  -0.6579
    -0.6562  -0.6545  -0.6471  -0.6459  -0.6411  -0.6396  -0.6277  -0.6235
    -0.6205  -0.6192  -0.5831  -0.5777  -0.5721  -0.5692  -0.5650  -0.5631
    -0.4894  -0.4861  -0.4847  -0.4845  -0.4755  -0.4747  -0.4389  -0.4269
    -0.4258  -0.3949  -0.3939  -0.3920  -0.2755  -0.2697  -0.1707   0.2450
     0.2457   0.2485   0.2491   0.3102   0.3134   0.6978   0.6990   0.7400
     0.7420   0.8536   0.9306   1.0388   1.0451   1.2628   1.2698   1.8944
     1.8972   2.0559   2.0599   2.1887   2.1945   2.2939   2.2947   2.4483
     2.6862   2.6972   2.8098   3.0313   3.0392   3.1160   3.1188   3.2175
     3.2335   3.4262   3.4468   3.4894   3.6898   3.6918   3.7499   3.7578
     4.0096   4.0164   4.0211   4.2613   4.2999   4.3038   4.3479   4.6819
     4.6858   4.7124   4.8464   5.0203   5.0228   5.0747   5.1051   5.5517
     5.7823   5.8056   5.8156   5.8202   5.8764   5.8825   5.8855   5.9826
     5.9923   6.0185   6.0469   6.0488   6.0672   6.0850   6.1075   6.1084
     6.1949   6.5101   6.6023   6.6718   6.7273   6.7515   6.7628   6.7655
     6.8095   6.8761   6.9710

          k = 0.2500-0.4330-0.1111 (136853 PWs)   bands (ev):

   -18.5757  -6.4694  -6.4038  -6.0712  -6.0683  -5.3928  -5.0593  -5.0574
    -5.0224  -5.0174  -4.6588  -4.6569  -4.5594  -4.5591  -4.5450  -4.5223
    -4.5009  -4.3922  -4.3914  -4.3675  -4.3241  -4.3239  -4.2559  -4.2546
    -4.2503  -4.2472  -4.2267  -4.2228  -4.2187  -4.1537  -4.1467  -4.1194
    -4.1174  -4.1068  -4.1058  -4.0832  -4.0829  -4.0605  -4.0523  -4.0518
    -4.0259  -3.9734  -3.9730  -3.9261  -3.9239  -3.8664  -3.8659  -3.8122
    -3.8110  -3.8108  -3.8104  -3.7753  -3.7378  -3.7366  -3.7295  -3.7289
    -3.7278  -3.7008  -3.6960  -3.6885  -3.6282  -3.6274  -3.6194  -3.6012
    -3.5938  -3.5237  -3.5208  -3.4908  -3.4864  -3.4606  -3.4595  -3.4462
    -3.4303  -3.3708  -3.3700  -3.3524  -3.3520  -3.3009  -3.2963  -3.2955
    -3.2563  -3.2281  -3.2241  -3.2180  -3.2166  -3.2045  -3.2037  -3.1961
    -3.1953  -3.1862  -3.1451  -3.1079  -3.1064  -3.0929  -3.0917  -3.0655
    -3.0581  -3.0559  -3.0377  -2.9930  -2.9896  -2.9814  -2.9418  -2.9366
    -2.9244  -2.9238  -2.8957  -2.8954  -2.8657  -2.8292  -2.8271  -2.8061
    -2.7976  -2.7885  -2.7830  -2.7518  -2.7335  -2.7206  -2.6994  -2.6776
    -2.6751  -2.6539  -2.6499  -2.6417  -2.6374  -2.6302  -2.6086  -2.6071
    -2.5622  -2.5617  -2.5610  -2.5458  -2.5442  -2.5389  -2.5306  -2.5281
    -2.5273  -2.5256  -2.5210  -2.5094  -2.5081  -2.5004  -2.4739  -2.4714
    -2.4702  -2.4685  -2.4676  -2.4656  -2.4625  -2.4389  -2.4351  -2.4220
    -2.4202  -2.4030  -2.4014  -2.3931  -2.3922  -2.3916  -2.3891  -2.3723
    -2.3700  -2.3678  -2.3661  -2.3499  -2.3257  -2.3242  -2.2855  -2.2838
    -2.2611  -2.2589  -2.2323  -2.2306  -2.2055  -2.2028  -2.1869  -2.1819
    -2.1553  -2.1360  -2.1338  -2.1269  -2.1264  -2.1222  -2.1158  -2.1147
    -2.0872  -2.0825  -2.0740  -2.0164  -2.0128  -2.0114  -2.0100  -2.0075
    -1.9749  -1.9540  -1.9521  -1.9260  -1.9240  -1.8660  -1.8645  -1.8355
    -1.8167  -1.8153  -1.7568  -1.7558  -1.7455  -1.7429  -1.7338  -1.7319
    -1.7291  -1.7215  -1.7186  -1.6658  -1.6609  -1.6526  -1.6511  -1.6502
    -1.6344  -1.6294  -1.5974  -1.5955  -1.5797  -1.5785  -1.5775  -1.5709
    -1.5660  -1.5592  -1.5550  -1.5384  -1.5361  -1.4974  -1.4928  -1.4860
    -1.4821  -1.4641  -1.4490  -1.4085  -1.4060  -1.3801  -1.3766  -1.3747
    -1.3462  -1.2965  -1.2934  -1.2923  -1.2913  -1.2872  -1.2859  -1.2767
    -1.2592  -1.2572  -1.2198  -1.2160  -1.1885  -1.1859  -1.1827  -1.1802
    -1.1737  -1.1588  -1.1572  -1.1560  -1.1524  -1.1518  -1.1152  -1.1134
    -1.1128  -1.1122  -1.0841  -1.0805  -1.0774  -1.0529  -1.0473  -1.0445
    -1.0005  -0.9927  -0.9906  -0.9568  -0.9485  -0.9386  -0.9365  -0.9300
    -0.9296  -0.9286  -0.9265  -0.9164  -0.9152  -0.8914  -0.8896  -0.8864
    -0.8855  -0.8835  -0.8473  -0.8468  -0.8404  -0.8352  -0.8203  -0.8138
    -0.8122  -0.8009  -0.7452  -0.7439  -0.7360  -0.7350  -0.7334  -0.7327
    -0.7278  -0.7090  -0.7072  -0.7010  -0.6984  -0.6973  -0.6967  -0.6579
    -0.6562  -0.6545  -0.6471  -0.6459  -0.6411  -0.6396  -0.6277  -0.6235
    -0.6205  -0.6192  -0.5831  -0.5777  -0.5721  -0.5692  -0.5650  -0.5631
    -0.4894  -0.4861  -0.4847  -0.4845  -0.4755  -0.4747  -0.4389  -0.4269
    -0.4258  -0.3949  -0.3939  -0.3920  -0.2755  -0.2697  -0.1707   0.2451
     0.2457   0.2485   0.2491   0.3102   0.3134   0.6978   0.6990   0.7400
     0.7420   0.8536   0.9306   1.0388   1.0451   1.2628   1.2698   1.8944
     1.8972   2.0559   2.0599   2.1887   2.1945   2.2939   2.2947   2.4483
     2.6862   2.6972   2.8098   3.0313   3.0392   3.1160   3.1188   3.2175
     3.2335   3.4262   3.4468   3.4894   3.6898   3.6918   3.7499   3.7578
     4.0096   4.0164   4.0211   4.2613   4.2999   4.3038   4.3479   4.6819
     4.6858   4.7124   4.8464   5.0203   5.0228   5.0747   5.1051   5.5517
     5.7823   5.8056   5.8156   5.8203   5.8764   5.8825   5.8855   5.9826
     5.9923   6.0185   6.0469   6.0488   6.0672   6.0850   6.1075   6.1084
     6.1949   6.5101   6.6024   6.6718   6.7273   6.7515   6.7628   6.7656
     6.8095   6.8761   6.9707

          k = 0.5000 0.0000 0.1111 (136853 PWs)   bands (ev):

   -18.5757  -6.4693  -6.4038  -6.0720  -6.0675  -5.3928  -5.0590  -5.0578
    -5.0234  -5.0163  -4.6586  -4.6571  -4.5595  -4.5591  -4.5450  -4.5223
    -4.5010  -4.3929  -4.3906  -4.3675  -4.3241  -4.3239  -4.2559  -4.2546
    -4.2497  -4.2479  -4.2267  -4.2223  -4.2192  -4.1540  -4.1463  -4.1195
    -4.1173  -4.1064  -4.1063  -4.0832  -4.0829  -4.0605  -4.0522  -4.0520
    -4.0259  -3.9735  -3.9729  -3.9263  -3.9237  -3.8664  -3.8661  -3.8125
    -3.8109  -3.8108  -3.8102  -3.7753  -3.7378  -3.7369  -3.7295  -3.7285
    -3.7281  -3.6993  -3.6969  -3.6890  -3.6284  -3.6274  -3.6191  -3.6012
    -3.5938  -3.5228  -3.5216  -3.4901  -3.4869  -3.4612  -3.4590  -3.4462
    -3.4303  -3.3710  -3.3699  -3.3528  -3.3516  -3.3009  -3.2960  -3.2957
    -3.2562  -3.2271  -3.2250  -3.2182  -3.2163  -3.2050  -3.2043  -3.1956
    -3.1947  -3.1863  -3.1451  -3.1086  -3.1057  -3.0928  -3.0919  -3.0655
    -3.0574  -3.0566  -3.0377  -2.9939  -2.9888  -2.9814  -2.9419  -2.9366
    -2.9257  -2.9226  -2.8957  -2.8951  -2.8657  -2.8291  -2.8273  -2.8063
    -2.7976  -2.7888  -2.7831  -2.7517  -2.7331  -2.7208  -2.6997  -2.6774
    -2.6756  -2.6539  -2.6495  -2.6421  -2.6371  -2.6302  -2.6085  -2.6072
    -2.5622  -2.5618  -2.5609  -2.5458  -2.5441  -2.5388  -2.5305  -2.5283
    -2.5271  -2.5256  -2.5211  -2.5105  -2.5070  -2.5005  -2.4735  -2.4718
    -2.4703  -2.4685  -2.4673  -2.4654  -2.4626  -2.4389  -2.4352  -2.4218
    -2.4203  -2.4030  -2.4014  -2.3934  -2.3923  -2.3916  -2.3889  -2.3717
    -2.3693  -2.3685  -2.3666  -2.3499  -2.3255  -2.3245  -2.2856  -2.2837
    -2.2608  -2.2592  -2.2323  -2.2307  -2.2052  -2.2031  -2.1869  -2.1818
    -2.1553  -2.1361  -2.1337  -2.1271  -2.1262  -2.1223  -2.1160  -2.1144
    -2.0874  -2.0825  -2.0740  -2.0165  -2.0126  -2.0118  -2.0098  -2.0073
    -1.9749  -1.9541  -1.9519  -1.9256  -1.9243  -1.8666  -1.8639  -1.8354
    -1.8170  -1.8152  -1.7571  -1.7554  -1.7454  -1.7429  -1.7339  -1.7319
    -1.7291  -1.7214  -1.7186  -1.6652  -1.6615  -1.6522  -1.6514  -1.6505
    -1.6343  -1.6296  -1.5972  -1.5959  -1.5794  -1.5783  -1.5777  -1.5711
    -1.5661  -1.5592  -1.5549  -1.5374  -1.5370  -1.4972  -1.4929  -1.4857
    -1.4825  -1.4641  -1.4490  -1.4093  -1.4053  -1.3801  -1.3763  -1.3752
    -1.3462  -1.2964  -1.2933  -1.2922  -1.2914  -1.2875  -1.2858  -1.2764
    -1.2597  -1.2567  -1.2197  -1.2160  -1.1882  -1.1863  -1.1820  -1.1807
    -1.1738  -1.1585  -1.1574  -1.1560  -1.1523  -1.1520  -1.1149  -1.1133
    -1.1129  -1.1124  -1.0834  -1.0806  -1.0775  -1.0530  -1.0475  -1.0442
    -1.0003  -0.9926  -0.9909  -0.9568  -0.9487  -0.9385  -0.9368  -0.9299
    -0.9294  -0.9284  -0.9269  -0.9163  -0.9154  -0.8912  -0.8897  -0.8865
    -0.8848  -0.8840  -0.8472  -0.8469  -0.8396  -0.8352  -0.8206  -0.8140
    -0.8122  -0.8009  -0.7452  -0.7439  -0.7357  -0.7348  -0.7335  -0.7327
    -0.7277  -0.7087  -0.7074  -0.7007  -0.6986  -0.6974  -0.6967  -0.6578
    -0.6564  -0.6543  -0.6474  -0.6457  -0.6416  -0.6396  -0.6286  -0.6237
    -0.6202  -0.6193  -0.5837  -0.5776  -0.5729  -0.5693  -0.5652  -0.5616
    -0.4891  -0.4861  -0.4848  -0.4845  -0.4756  -0.4747  -0.4390  -0.4266
    -0.4260  -0.3949  -0.3939  -0.3922  -0.2740  -0.2701  -0.1702   0.2450
     0.2457   0.2485   0.2492   0.3110   0.3121   0.6970   0.6992   0.7404
     0.7417   0.8537   0.9307   1.0391   1.0452   1.2636   1.2689   1.8949
     1.8965   2.0574   2.0585   2.1910   2.1923   2.2934   2.2951   2.4483
     2.6860   2.6970   2.8096   3.0315   3.0389   3.1160   3.1187   3.2169
     3.2335   3.4283   3.4450   3.4893   3.6892   3.6923   3.7526   3.7556
     4.0096   4.0180   4.0190   4.2612   4.3008   4.3032   4.3478   4.6808
     4.6868   4.7122   4.8484   5.0213   5.0220   5.0849   5.0975   5.5460
     5.7902   5.8071   5.8129   5.8230   5.8682   5.8832   5.8848   5.9828
     5.9947   6.0174   6.0436   6.0495   6.0695   6.0825   6.1069   6.1080
     6.1972   6.5189   6.5939   6.6880   6.7143   6.7538   6.7619   6.7646
     6.8092   6.8747   6.9672

          k =-0.5000 0.0000 0.1111 (136853 PWs)   bands (ev):

   -18.5757  -6.4693  -6.4038  -6.0720  -6.0675  -5.3928  -5.0590  -5.0578
    -5.0234  -5.0163  -4.6586  -4.6571  -4.5595  -4.5591  -4.5450  -4.5223
    -4.5010  -4.3929  -4.3906  -4.3675  -4.3241  -4.3238  -4.2559  -4.2546
    -4.2497  -4.2479  -4.2267  -4.2223  -4.2192  -4.1540  -4.1463  -4.1195
    -4.1173  -4.1064  -4.1063  -4.0832  -4.0829  -4.0605  -4.0522  -4.0520
    -4.0259  -3.9735  -3.9729  -3.9263  -3.9237  -3.8664  -3.8661  -3.8125
    -3.8109  -3.8108  -3.8102  -3.7753  -3.7378  -3.7369  -3.7295  -3.7285
    -3.7281  -3.6993  -3.6969  -3.6890  -3.6284  -3.6274  -3.6191  -3.6012
    -3.5938  -3.5228  -3.5216  -3.4901  -3.4869  -3.4612  -3.4590  -3.4462
    -3.4303  -3.3710  -3.3699  -3.3528  -3.3516  -3.3009  -3.2960  -3.2957
    -3.2562  -3.2271  -3.2250  -3.2182  -3.2163  -3.2050  -3.2043  -3.1956
    -3.1947  -3.1863  -3.1451  -3.1086  -3.1057  -3.0928  -3.0919  -3.0655
    -3.0574  -3.0566  -3.0377  -2.9939  -2.9888  -2.9814  -2.9419  -2.9366
    -2.9257  -2.9226  -2.8957  -2.8951  -2.8657  -2.8291  -2.8273  -2.8063
    -2.7976  -2.7888  -2.7831  -2.7517  -2.7331  -2.7208  -2.6997  -2.6775
    -2.6756  -2.6539  -2.6495  -2.6421  -2.6371  -2.6302  -2.6085  -2.6072
    -2.5622  -2.5618  -2.5609  -2.5458  -2.5441  -2.5388  -2.5305  -2.5283
    -2.5271  -2.5256  -2.5211  -2.5105  -2.5070  -2.5005  -2.4735  -2.4718
    -2.4703  -2.4685  -2.4673  -2.4654  -2.4626  -2.4389  -2.4352  -2.4218
    -2.4203  -2.4030  -2.4014  -2.3934  -2.3923  -2.3916  -2.3889  -2.3717
    -2.3693  -2.3685  -2.3666  -2.3499  -2.3255  -2.3245  -2.2856  -2.2837
    -2.2608  -2.2592  -2.2323  -2.2307  -2.2052  -2.2031  -2.1869  -2.1818
    -2.1553  -2.1361  -2.1337  -2.1271  -2.1262  -2.1223  -2.1160  -2.1144
    -2.0874  -2.0825  -2.0740  -2.0165  -2.0126  -2.0118  -2.0098  -2.0073
    -1.9749  -1.9541  -1.9519  -1.9256  -1.9243  -1.8666  -1.8639  -1.8354
    -1.8170  -1.8152  -1.7571  -1.7554  -1.7454  -1.7429  -1.7339  -1.7319
    -1.7291  -1.7214  -1.7186  -1.6652  -1.6615  -1.6522  -1.6514  -1.6505
    -1.6343  -1.6296  -1.5972  -1.5959  -1.5794  -1.5783  -1.5777  -1.5711
    -1.5661  -1.5592  -1.5549  -1.5374  -1.5370  -1.4972  -1.4929  -1.4857
    -1.4825  -1.4641  -1.4490  -1.4093  -1.4053  -1.3801  -1.3763  -1.3752
    -1.3462  -1.2964  -1.2933  -1.2922  -1.2914  -1.2875  -1.2858  -1.2764
    -1.2597  -1.2567  -1.2197  -1.2160  -1.1882  -1.1863  -1.1820  -1.1807
    -1.1738  -1.1585  -1.1574  -1.1560  -1.1523  -1.1520  -1.1149  -1.1133
    -1.1129  -1.1124  -1.0834  -1.0806  -1.0775  -1.0530  -1.0475  -1.0442
    -1.0003  -0.9926  -0.9909  -0.9568  -0.9487  -0.9385  -0.9368  -0.9299
    -0.9294  -0.9284  -0.9269  -0.9163  -0.9155  -0.8912  -0.8897  -0.8865
    -0.8848  -0.8840  -0.8472  -0.8469  -0.8396  -0.8352  -0.8206  -0.8140
    -0.8122  -0.8009  -0.7452  -0.7439  -0.7357  -0.7348  -0.7335  -0.7327
    -0.7277  -0.7087  -0.7074  -0.7007  -0.6986  -0.6974  -0.6967  -0.6578
    -0.6564  -0.6543  -0.6474  -0.6457  -0.6416  -0.6396  -0.6286  -0.6237
    -0.6202  -0.6193  -0.5837  -0.5776  -0.5729  -0.5693  -0.5652  -0.5616
    -0.4891  -0.4861  -0.4848  -0.4845  -0.4756  -0.4747  -0.4390  -0.4266
    -0.4260  -0.3949  -0.3939  -0.3922  -0.2740  -0.2701  -0.1702   0.2450
     0.2457   0.2485   0.2492   0.3110   0.3121   0.6970   0.6992   0.7404
     0.7417   0.8537   0.9307   1.0391   1.0452   1.2636   1.2689   1.8949
     1.8965   2.0574   2.0585   2.1910   2.1923   2.2934   2.2951   2.4483
     2.6860   2.6970   2.8096   3.0315   3.0389   3.1160   3.1187   3.2169
     3.2335   3.4283   3.4450   3.4893   3.6892   3.6923   3.7526   3.7556
     4.0096   4.0180   4.0190   4.2612   4.3008   4.3032   4.3478   4.6808
     4.6868   4.7122   4.8484   5.0213   5.0220   5.0849   5.0975   5.5460
     5.7902   5.8071   5.8129   5.8230   5.8682   5.8832   5.8848   5.9828
     5.9947   6.0174   6.0436   6.0495   6.0695   6.0825   6.1070   6.1080
     6.1972   6.5189   6.5939   6.6880   6.7144   6.7537   6.7619   6.7647
     6.8091   6.8747   6.9673

          k =-0.2500 0.1443 0.1111 (136898 PWs)   bands (ev):

   -18.5757  -6.6792  -6.4039  -5.8870  -5.5967  -5.5371  -5.5363  -4.9985
    -4.9980  -4.8672  -4.8661  -4.7110  -4.6826  -4.6185  -4.5871  -4.5843
    -4.5516  -4.5514  -4.4229  -4.3811  -4.3810  -4.3215  -4.3012  -4.2997
    -4.1978  -4.1975  -4.1617  -4.1611  -4.1611  -4.1344  -4.1128  -4.1126
    -4.0090  -4.0055  -4.0055  -3.9850  -3.9683  -3.9677  -3.9564  -3.9552
    -3.9423  -3.9127  -3.9120  -3.9118  -3.9115  -3.8791  -3.8789  -3.8615
    -3.8611  -3.8483  -3.8058  -3.8051  -3.7737  -3.7604  -3.7573  -3.7528
    -3.7528  -3.6786  -3.6783  -3.6437  -3.6426  -3.6403  -3.5730  -3.5726
    -3.5586  -3.5569  -3.5273  -3.5268  -3.5258  -3.5250  -3.3726  -3.3710
    -3.3470  -3.3469  -3.3417  -3.3258  -3.3246  -3.2997  -3.2991  -3.2499
    -3.2488  -3.2335  -3.2323  -3.2126  -3.1649  -3.1645  -3.1451  -3.1401
    -3.1387  -3.0999  -3.0981  -3.0926  -3.0908  -3.0770  -3.0741  -3.0361
    -3.0352  -3.0155  -3.0139  -3.0118  -3.0099  -3.0069  -2.9327  -2.9299
    -2.9294  -2.9030  -2.8988  -2.8394  -2.8379  -2.8130  -2.8081  -2.7975
    -2.7946  -2.7909  -2.7608  -2.7597  -2.7531  -2.7447  -2.7297  -2.7074
    -2.7072  -2.6962  -2.6855  -2.6845  -2.6741  -2.6737  -2.6701  -2.6620
    -2.6618  -2.6162  -2.5843  -2.5839  -2.5665  -2.5536  -2.5485  -2.5456
    -2.5396  -2.5392  -2.5382  -2.5087  -2.5087  -2.5047  -2.4985  -2.4967
    -2.4816  -2.4535  -2.4532  -2.4526  -2.4520  -2.4497  -2.4063  -2.3755
    -2.3743  -2.3732  -2.3674  -2.3588  -2.3470  -2.3460  -2.3291  -2.3291
    -2.2965  -2.2943  -2.2937  -2.2751  -2.2748  -2.2743  -2.2424  -2.2407
    -2.2019  -2.1984  -2.1926  -2.1900  -2.1897  -2.1840  -2.1834  -2.1806
    -2.1798  -2.1738  -2.1729  -2.1573  -2.1565  -2.0310  -2.0297  -1.9966
    -1.9910  -1.9900  -1.9846  -1.9840  -1.9679  -1.9670  -1.9641  -1.9636
    -1.9609  -1.9394  -1.9324  -1.9322  -1.9214  -1.9190  -1.9177  -1.8965
    -1.8953  -1.8678  -1.8673  -1.8368  -1.8357  -1.8251  -1.8166  -1.7987
    -1.7982  -1.7957  -1.7779  -1.7651  -1.7645  -1.7575  -1.7572  -1.7316
    -1.7311  -1.7141  -1.7140  -1.6816  -1.6787  -1.6714  -1.6220  -1.6214
    -1.6075  -1.6068  -1.6048  -1.5816  -1.5789  -1.5467  -1.5452  -1.5445
    -1.5102  -1.5013  -1.5009  -1.4855  -1.4846  -1.4598  -1.4574  -1.4560
    -1.4280  -1.4246  -1.4245  -1.3630  -1.3610  -1.3497  -1.3479  -1.3328
    -1.3324  -1.3194  -1.3190  -1.3012  -1.2884  -1.2607  -1.2605  -1.2486
    -1.2181  -1.2105  -1.2103  -1.1987  -1.1986  -1.1963  -1.1914  -1.1912
    -1.1774  -1.1481  -1.1474  -1.1373  -1.1340  -1.1325  -1.1322  -1.1106
    -1.0911  -1.0900  -1.0706  -1.0689  -0.9776  -0.9643  -0.9588  -0.9584
    -0.9545  -0.9497  -0.9483  -0.9266  -0.9245  -0.9093  -0.9074  -0.8936
    -0.8935  -0.8845  -0.8655  -0.8631  -0.8612  -0.8537  -0.7814  -0.7811
    -0.7473  -0.7467  -0.7427  -0.7363  -0.7353  -0.7339  -0.7337  -0.7231
    -0.7201  -0.7040  -0.6794  -0.6654  -0.6465  -0.6460  -0.6341  -0.6334
    -0.6242  -0.6205  -0.6203  -0.6187  -0.6178  -0.6012  -0.5962  -0.5961
    -0.5752  -0.5654  -0.5638  -0.5621  -0.5516  -0.5514  -0.5320  -0.5002
    -0.4998  -0.4908  -0.4903  -0.4227  -0.4224  -0.3855  -0.3852  -0.3271
    -0.3269  -0.3260  -0.3128  -0.2996  -0.0717  -0.0683   0.2737   0.2739
     0.3657   0.3690   0.5602   0.5770   0.5912   0.7210   0.7227   1.1540
     1.1543   1.1713   1.4327   1.4639   1.4643   1.7411   1.7469   1.8196
     1.8205   1.8458   1.8502   2.0758   2.0771   2.1647   2.1657   2.2429
     2.3037   2.3086   2.4677   2.5676   3.0058   3.0078   3.0091   3.0118
     3.0643   3.0664   3.3577   3.3584   3.6378   3.6438   3.7512   4.0538
     4.0941   4.0993   4.3104   4.3387   4.3968   4.3976   4.4889   4.6062
     4.6081   4.7230   4.7255   5.0278   5.0947   5.0978   5.2567   5.2884
     5.4266   5.4829   5.4875   5.5118   5.5131   5.5733   5.5756   5.6331
     5.9520   6.0179   6.1818   6.2310   6.2992   6.3168   6.3194   6.3298
     6.3346   6.5614   6.5751   6.6393   6.7397   6.7862   6.8120   6.8249
     6.8745   7.0681   7.1207

          k =-0.2500-0.1443-0.1111 (136898 PWs)   bands (ev):

   -18.5757  -6.6791  -6.4039  -5.8871  -5.5967  -5.5369  -5.5364  -4.9984
    -4.9980  -4.8677  -4.8659  -4.7109  -4.6826  -4.6187  -4.5864  -4.5847
    -4.5515  -4.5513  -4.4228  -4.3811  -4.3810  -4.3215  -4.3009  -4.3000
    -4.1977  -4.1975  -4.1617  -4.1613  -4.1610  -4.1345  -4.1128  -4.1125
    -4.0094  -4.0057  -4.0054  -3.9851  -3.9683  -3.9678  -3.9560  -3.9554
    -3.9424  -3.9124  -3.9121  -3.9117  -3.9114  -3.8794  -3.8786  -3.8614
    -3.8610  -3.8487  -3.8060  -3.8043  -3.7742  -3.7595  -3.7578  -3.7529
    -3.7527  -3.6786  -3.6783  -3.6439  -3.6419  -3.6405  -3.5732  -3.5728
    -3.5583  -3.5570  -3.5268  -3.5266  -3.5262  -3.5255  -3.3724  -3.3713
    -3.3475  -3.3463  -3.3417  -3.3256  -3.3247  -3.2993  -3.2990  -3.2497
    -3.2489  -3.2334  -3.2326  -3.2125  -3.1651  -3.1638  -3.1452  -3.1403
    -3.1390  -3.0999  -3.0983  -3.0923  -3.0910  -3.0767  -3.0745  -3.0360
    -3.0351  -3.0146  -3.0142  -3.0116  -3.0101  -3.0070  -2.9323  -2.9301
    -2.9298  -2.9028  -2.8990  -2.8387  -2.8383  -2.8135  -2.8081  -2.7985
    -2.7946  -2.7905  -2.7608  -2.7600  -2.7526  -2.7435  -2.7282  -2.7080
    -2.7073  -2.6989  -2.6855  -2.6849  -2.6745  -2.6738  -2.6707  -2.6619
    -2.6600  -2.6161  -2.5843  -2.5841  -2.5662  -2.5539  -2.5481  -2.5457
    -2.5400  -2.5389  -2.5384  -2.5093  -2.5080  -2.5051  -2.4983  -2.4965
    -2.4815  -2.4541  -2.4538  -2.4523  -2.4518  -2.4494  -2.4065  -2.3751
    -2.3746  -2.3736  -2.3672  -2.3589  -2.3479  -2.3450  -2.3290  -2.3289
    -2.2966  -2.2940  -2.2938  -2.2753  -2.2749  -2.2745  -2.2418  -2.2411
    -2.2017  -2.1984  -2.1923  -2.1901  -2.1897  -2.1841  -2.1835  -2.1806
    -2.1798  -2.1739  -2.1730  -2.1572  -2.1569  -2.0305  -2.0302  -1.9961
    -1.9908  -1.9905  -1.9845  -1.9837  -1.9682  -1.9674  -1.9646  -1.9639
    -1.9599  -1.9394  -1.9328  -1.9316  -1.9222  -1.9178  -1.9176  -1.8967
    -1.8955  -1.8681  -1.8671  -1.8367  -1.8361  -1.8251  -1.8165  -1.7987
    -1.7984  -1.7955  -1.7779  -1.7651  -1.7645  -1.7577  -1.7573  -1.7312
    -1.7309  -1.7143  -1.7136  -1.6819  -1.6786  -1.6717  -1.6222  -1.6208
    -1.6076  -1.6071  -1.6047  -1.5818  -1.5786  -1.5464  -1.5450  -1.5447
    -1.5105  -1.5016  -1.5004  -1.4851  -1.4847  -1.4601  -1.4577  -1.4557
    -1.4276  -1.4248  -1.4247  -1.3627  -1.3617  -1.3491  -1.3487  -1.3332
    -1.3317  -1.3192  -1.3190  -1.3009  -1.2882  -1.2612  -1.2599  -1.2486
    -1.2187  -1.2106  -1.2099  -1.1988  -1.1987  -1.1964  -1.1917  -1.1911
    -1.1773  -1.1487  -1.1469  -1.1357  -1.1345  -1.1329  -1.1314  -1.1110
    -1.0918  -1.0895  -1.0697  -1.0695  -0.9773  -0.9643  -0.9586  -0.9584
    -0.9547  -0.9493  -0.9487  -0.9282  -0.9245  -0.9083  -0.9077  -0.8937
    -0.8936  -0.8853  -0.8648  -0.8632  -0.8616  -0.8535  -0.7819  -0.7806
    -0.7483  -0.7468  -0.7427  -0.7360  -0.7352  -0.7340  -0.7338  -0.7214
    -0.7201  -0.7045  -0.6793  -0.6667  -0.6459  -0.6452  -0.6339  -0.6337
    -0.6220  -0.6211  -0.6202  -0.6196  -0.6179  -0.6008  -0.5969  -0.5962
    -0.5750  -0.5657  -0.5641  -0.5631  -0.5513  -0.5507  -0.5323  -0.5001
    -0.4999  -0.4908  -0.4901  -0.4232  -0.4221  -0.3858  -0.3849  -0.3278
    -0.3265  -0.3257  -0.3108  -0.2996  -0.0729  -0.0692   0.2738   0.2739
     0.3655   0.3692   0.5606   0.5775   0.5916   0.7216   0.7226   1.1538
     1.1541   1.1723   1.4330   1.4638   1.4641   1.7417   1.7457   1.8192
     1.8196   1.8476   1.8490   2.0746   2.0771   2.1652   2.1653   2.2433
     2.3046   2.3075   2.4683   2.5675   3.0056   3.0069   3.0105   3.0113
     3.0628   3.0672   3.3573   3.3586   3.6402   3.6414   3.7496   4.0542
     4.0958   4.0967   4.3241   4.3294   4.3967   4.3977   4.4883   4.6067
     4.6085   4.7247   4.7250   5.0274   5.0964   5.0986   5.2694   5.2788
     5.4184   5.4845   5.4857   5.5113   5.5132   5.5750   5.5762   5.6277
     5.9386   6.0420   6.1797   6.2580   6.2715   6.3144   6.3196   6.3319
     6.3329   6.5708   6.5721   6.6376   6.7262   6.7980   6.8058   6.8408
     6.8653   7.0816   7.1030

          k = 0.2500 0.1443-0.1111 (136898 PWs)   bands (ev):

   -18.5757  -6.6791  -6.4039  -5.8871  -5.5967  -5.5369  -5.5364  -4.9984
    -4.9980  -4.8677  -4.8659  -4.7109  -4.6826  -4.6187  -4.5864  -4.5847
    -4.5515  -4.5513  -4.4228  -4.3811  -4.3810  -4.3215  -4.3009  -4.3000
    -4.1977  -4.1975  -4.1617  -4.1613  -4.1610  -4.1345  -4.1128  -4.1125
    -4.0094  -4.0057  -4.0054  -3.9851  -3.9683  -3.9678  -3.9560  -3.9554
    -3.9424  -3.9124  -3.9121  -3.9117  -3.9114  -3.8794  -3.8786  -3.8614
    -3.8610  -3.8487  -3.8060  -3.8043  -3.7742  -3.7595  -3.7578  -3.7529
    -3.7527  -3.6786  -3.6783  -3.6439  -3.6419  -3.6405  -3.5732  -3.5728
    -3.5583  -3.5570  -3.5268  -3.5266  -3.5262  -3.5255  -3.3724  -3.3713
    -3.3475  -3.3463  -3.3418  -3.3256  -3.3247  -3.2993  -3.2990  -3.2497
    -3.2489  -3.2334  -3.2325  -3.2125  -3.1651  -3.1638  -3.1452  -3.1403
    -3.1390  -3.0999  -3.0983  -3.0923  -3.0910  -3.0767  -3.0745  -3.0361
    -3.0352  -3.0146  -3.0142  -3.0116  -3.0101  -3.0070  -2.9323  -2.9301
    -2.9298  -2.9028  -2.8990  -2.8387  -2.8383  -2.8135  -2.8081  -2.7985
    -2.7946  -2.7905  -2.7608  -2.7600  -2.7526  -2.7435  -2.7282  -2.7080
    -2.7073  -2.6989  -2.6855  -2.6849  -2.6745  -2.6738  -2.6707  -2.6619
    -2.6600  -2.6161  -2.5843  -2.5841  -2.5662  -2.5539  -2.5481  -2.5457
    -2.5400  -2.5389  -2.5384  -2.5093  -2.5080  -2.5051  -2.4983  -2.4965
    -2.4815  -2.4541  -2.4538  -2.4523  -2.4518  -2.4494  -2.4065  -2.3751
    -2.3746  -2.3736  -2.3672  -2.3588  -2.3479  -2.3450  -2.3290  -2.3289
    -2.2966  -2.2940  -2.2938  -2.2753  -2.2749  -2.2745  -2.2418  -2.2411
    -2.2017  -2.1984  -2.1923  -2.1901  -2.1897  -2.1841  -2.1835  -2.1806
    -2.1798  -2.1739  -2.1730  -2.1572  -2.1569  -2.0305  -2.0302  -1.9961
    -1.9908  -1.9905  -1.9845  -1.9837  -1.9682  -1.9674  -1.9646  -1.9639
    -1.9600  -1.9394  -1.9328  -1.9316  -1.9222  -1.9178  -1.9176  -1.8967
    -1.8955  -1.8680  -1.8671  -1.8367  -1.8361  -1.8251  -1.8165  -1.7987
    -1.7984  -1.7955  -1.7779  -1.7651  -1.7645  -1.7577  -1.7573  -1.7312
    -1.7309  -1.7142  -1.7136  -1.6819  -1.6786  -1.6717  -1.6222  -1.6208
    -1.6076  -1.6071  -1.6047  -1.5818  -1.5786  -1.5464  -1.5450  -1.5447
    -1.5106  -1.5016  -1.5004  -1.4851  -1.4847  -1.4601  -1.4577  -1.4557
    -1.4276  -1.4248  -1.4247  -1.3627  -1.3617  -1.3491  -1.3487  -1.3332
    -1.3317  -1.3192  -1.3190  -1.3009  -1.2882  -1.2612  -1.2599  -1.2486
    -1.2187  -1.2106  -1.2099  -1.1988  -1.1987  -1.1964  -1.1917  -1.1911
    -1.1773  -1.1487  -1.1469  -1.1357  -1.1345  -1.1329  -1.1314  -1.1110
    -1.0918  -1.0895  -1.0697  -1.0695  -0.9774  -0.9643  -0.9586  -0.9584
    -0.9547  -0.9493  -0.9487  -0.9282  -0.9245  -0.9083  -0.9077  -0.8937
    -0.8936  -0.8853  -0.8648  -0.8632  -0.8616  -0.8535  -0.7819  -0.7806
    -0.7483  -0.7468  -0.7427  -0.7360  -0.7351  -0.7340  -0.7338  -0.7214
    -0.7201  -0.7045  -0.6792  -0.6667  -0.6459  -0.6452  -0.6339  -0.6337
    -0.6220  -0.6211  -0.6202  -0.6196  -0.6179  -0.6008  -0.5969  -0.5962
    -0.5750  -0.5657  -0.5641  -0.5631  -0.5513  -0.5507  -0.5323  -0.5001
    -0.4999  -0.4908  -0.4901  -0.4232  -0.4221  -0.3858  -0.3849  -0.3278
    -0.3265  -0.3257  -0.3108  -0.2996  -0.0729  -0.0692   0.2738   0.2739
     0.3655   0.3692   0.5606   0.5775   0.5916   0.7216   0.7226   1.1538
     1.1541   1.1723   1.4330   1.4638   1.4641   1.7417   1.7457   1.8192
     1.8196   1.8476   1.8490   2.0746   2.0771   2.1652   2.1653   2.2433
     2.3046   2.3075   2.4683   2.5675   3.0056   3.0069   3.0105   3.0113
     3.0628   3.0672   3.3573   3.3586   3.6402   3.6414   3.7496   4.0542
     4.0958   4.0967   4.3241   4.3295   4.3967   4.3977   4.4883   4.6067
     4.6085   4.7247   4.7250   5.0274   5.0964   5.0986   5.2694   5.2788
     5.4184   5.4845   5.4856   5.5113   5.5132   5.5750   5.5762   5.6277
     5.9388   6.0421   6.1797   6.2578   6.2713   6.3144   6.3196   6.3319
     6.3329   6.5708   6.5721   6.6370   6.7237   6.7980   6.8055   6.8410
     6.8654   7.0841   7.1070

          k = 0.0000-0.2887 0.1111 (136898 PWs)   bands (ev):

   -18.5757  -6.6792  -6.4039  -5.8870  -5.5968  -5.5369  -5.5363  -4.9984
    -4.9979  -4.8679  -4.8656  -4.7110  -4.6826  -4.6187  -4.5867  -4.5845
    -4.5515  -4.5513  -4.4228  -4.3812  -4.3810  -4.3214  -4.3011  -4.2999
    -4.1977  -4.1975  -4.1617  -4.1613  -4.1610  -4.1345  -4.1128  -4.1126
    -4.0091  -4.0056  -4.0055  -3.9850  -3.9683  -3.9678  -3.9561  -3.9553
    -3.9424  -3.9126  -3.9121  -3.9117  -3.9113  -3.8792  -3.8788  -3.8615
    -3.8610  -3.8484  -3.8059  -3.8048  -3.7740  -3.7598  -3.7576  -3.7529
    -3.7527  -3.6786  -3.6783  -3.6438  -3.6421  -3.6404  -3.5732  -3.5728
    -3.5584  -3.5570  -3.5270  -3.5267  -3.5262  -3.5253  -3.3725  -3.3713
    -3.3472  -3.3467  -3.3417  -3.3257  -3.3247  -3.2994  -3.2991  -3.2498
    -3.2489  -3.2335  -3.2325  -3.2125  -3.1650  -3.1639  -3.1452  -3.1402
    -3.1389  -3.1000  -3.0982  -3.0924  -3.0910  -3.0768  -3.0744  -3.0361
    -3.0351  -3.0148  -3.0143  -3.0116  -3.0100  -3.0069  -2.9326  -2.9300
    -2.9296  -2.9029  -2.8990  -2.8388  -2.8384  -2.8133  -2.8081  -2.7981
    -2.7946  -2.7907  -2.7609  -2.7598  -2.7527  -2.7438  -2.7287  -2.7076
    -2.7072  -2.6978  -2.6856  -2.6847  -2.6750  -2.6738  -2.6705  -2.6619
    -2.6604  -2.6161  -2.5843  -2.5841  -2.5662  -2.5539  -2.5482  -2.5459
    -2.5399  -2.5390  -2.5384  -2.5090  -2.5082  -2.5050  -2.4981  -2.4968
    -2.4815  -2.4541  -2.4532  -2.4522  -2.4519  -2.4500  -2.4065  -2.3752
    -2.3745  -2.3735  -2.3672  -2.3588  -2.3475  -2.3454  -2.3289  -2.3289
    -2.2966  -2.2942  -2.2938  -2.2752  -2.2748  -2.2744  -2.2420  -2.2410
    -2.2018  -2.1983  -2.1923  -2.1900  -2.1896  -2.1839  -2.1834  -2.1805
    -2.1800  -2.1735  -2.1732  -2.1574  -2.1568  -2.0305  -2.0302  -1.9964
    -1.9908  -1.9904  -1.9845  -1.9839  -1.9685  -1.9668  -1.9644  -1.9638
    -1.9602  -1.9394  -1.9327  -1.9318  -1.9221  -1.9179  -1.9177  -1.8968
    -1.8954  -1.8682  -1.8669  -1.8367  -1.8360  -1.8251  -1.8165  -1.7987
    -1.7984  -1.7954  -1.7779  -1.7652  -1.7645  -1.7577  -1.7572  -1.7312
    -1.7309  -1.7143  -1.7137  -1.6818  -1.6786  -1.6716  -1.6221  -1.6210
    -1.6077  -1.6070  -1.6048  -1.5819  -1.5786  -1.5464  -1.5450  -1.5446
    -1.5105  -1.5015  -1.5005  -1.4852  -1.4847  -1.4601  -1.4575  -1.4558
    -1.4280  -1.4248  -1.4243  -1.3629  -1.3615  -1.3493  -1.3484  -1.3333
    -1.3317  -1.3194  -1.3190  -1.3009  -1.2882  -1.2611  -1.2601  -1.2486
    -1.2184  -1.2105  -1.2101  -1.1988  -1.1987  -1.1964  -1.1917  -1.1911
    -1.1773  -1.1486  -1.1470  -1.1361  -1.1343  -1.1329  -1.1316  -1.1109
    -1.0917  -1.0896  -1.0700  -1.0693  -0.9774  -0.9643  -0.9587  -0.9584
    -0.9546  -0.9492  -0.9489  -0.9276  -0.9245  -0.9087  -0.9076  -0.8937
    -0.8934  -0.8849  -0.8652  -0.8631  -0.8615  -0.8536  -0.7818  -0.7807
    -0.7483  -0.7465  -0.7427  -0.7363  -0.7351  -0.7341  -0.7336  -0.7212
    -0.7207  -0.7043  -0.6792  -0.6663  -0.6463  -0.6453  -0.6340  -0.6337
    -0.6227  -0.6208  -0.6205  -0.6191  -0.6178  -0.6009  -0.5968  -0.5961
    -0.5748  -0.5655  -0.5640  -0.5629  -0.5514  -0.5509  -0.5322  -0.5001
    -0.4999  -0.4907  -0.4902  -0.4231  -0.4223  -0.3857  -0.3850  -0.3275
    -0.3266  -0.3259  -0.3116  -0.2996  -0.0714  -0.0699   0.2737   0.2739
     0.3665   0.3682   0.5605   0.5772   0.5914   0.7216   0.7224   1.1539
     1.1542   1.1719   1.4330   1.4639   1.4642   1.7434   1.7441   1.8194
     1.8198   1.8479   1.8485   2.0754   2.0768   2.1650   2.1654   2.2431
     2.3059   2.3063   2.4680   2.5676   3.0053   3.0071   3.0105   3.0114
     3.0639   3.0666   3.3577   3.3583   3.6401   3.6414   3.7504   4.0540
     4.0953   4.0975   4.3227   4.3289   4.3968   4.3975   4.4890   4.6069
     4.6078   4.7243   4.7252   5.0280   5.0949   5.0976   5.2669   5.2783
     5.4235   5.4836   5.4863   5.5116   5.5126   5.5741   5.5766   5.6307
     5.9436   6.0325   6.1813   6.2553   6.2733   6.3155   6.3190   6.3316
     6.3335   6.5678   6.5719   6.6381   6.7248   6.8016   6.8047   6.8505
     6.8559   7.0829   7.1025

          k = 0.0000 0.2887 0.1111 (136898 PWs)   bands (ev):

   -18.5757  -6.6792  -6.4039  -5.8870  -5.5968  -5.5369  -5.5363  -4.9984
    -4.9979  -4.8679  -4.8656  -4.7110  -4.6826  -4.6187  -4.5867  -4.5845
    -4.5515  -4.5513  -4.4228  -4.3812  -4.3810  -4.3214  -4.3011  -4.2999
    -4.1977  -4.1975  -4.1617  -4.1613  -4.1610  -4.1345  -4.1128  -4.1126
    -4.0091  -4.0056  -4.0055  -3.9850  -3.9683  -3.9677  -3.9561  -3.9553
    -3.9424  -3.9126  -3.9121  -3.9117  -3.9113  -3.8792  -3.8788  -3.8615
    -3.8610  -3.8484  -3.8059  -3.8048  -3.7740  -3.7598  -3.7576  -3.7529
    -3.7527  -3.6786  -3.6783  -3.6438  -3.6421  -3.6404  -3.5732  -3.5728
    -3.5584  -3.5570  -3.5270  -3.5267  -3.5262  -3.5253  -3.3725  -3.3713
    -3.3472  -3.3467  -3.3417  -3.3257  -3.3247  -3.2994  -3.2991  -3.2498
    -3.2489  -3.2335  -3.2325  -3.2125  -3.1650  -3.1639  -3.1452  -3.1402
    -3.1389  -3.1000  -3.0982  -3.0924  -3.0910  -3.0768  -3.0744  -3.0361
    -3.0351  -3.0148  -3.0143  -3.0116  -3.0100  -3.0069  -2.9326  -2.9300
    -2.9296  -2.9029  -2.8990  -2.8388  -2.8384  -2.8133  -2.8081  -2.7981
    -2.7946  -2.7907  -2.7609  -2.7598  -2.7527  -2.7438  -2.7287  -2.7076
    -2.7072  -2.6978  -2.6856  -2.6847  -2.6750  -2.6738  -2.6705  -2.6619
    -2.6604  -2.6161  -2.5843  -2.5841  -2.5662  -2.5539  -2.5482  -2.5459
    -2.5399  -2.5390  -2.5384  -2.5090  -2.5082  -2.5050  -2.4981  -2.4968
    -2.4815  -2.4541  -2.4532  -2.4522  -2.4519  -2.4500  -2.4065  -2.3752
    -2.3745  -2.3735  -2.3672  -2.3588  -2.3475  -2.3454  -2.3289  -2.3289
    -2.2966  -2.2941  -2.2938  -2.2752  -2.2748  -2.2744  -2.2420  -2.2410
    -2.2019  -2.1984  -2.1923  -2.1900  -2.1896  -2.1839  -2.1834  -2.1805
    -2.1800  -2.1735  -2.1732  -2.1574  -2.1568  -2.0305  -2.0302  -1.9964
    -1.9908  -1.9904  -1.9845  -1.9839  -1.9685  -1.9668  -1.9644  -1.9638
    -1.9602  -1.9394  -1.9327  -1.9318  -1.9221  -1.9179  -1.9177  -1.8968
    -1.8954  -1.8682  -1.8669  -1.8367  -1.8360  -1.8251  -1.8165  -1.7987
    -1.7984  -1.7954  -1.7779  -1.7652  -1.7645  -1.7577  -1.7572  -1.7312
    -1.7309  -1.7143  -1.7137  -1.6818  -1.6786  -1.6716  -1.6221  -1.6210
    -1.6077  -1.6070  -1.6048  -1.5819  -1.5786  -1.5464  -1.5450  -1.5446
    -1.5105  -1.5015  -1.5005  -1.4852  -1.4847  -1.4601  -1.4575  -1.4558
    -1.4280  -1.4248  -1.4243  -1.3629  -1.3615  -1.3493  -1.3484  -1.3333
    -1.3317  -1.3194  -1.3190  -1.3009  -1.2882  -1.2611  -1.2601  -1.2486
    -1.2184  -1.2105  -1.2101  -1.1988  -1.1987  -1.1964  -1.1917  -1.1911
    -1.1773  -1.1486  -1.1470  -1.1361  -1.1343  -1.1330  -1.1316  -1.1109
    -1.0917  -1.0896  -1.0700  -1.0693  -0.9774  -0.9643  -0.9587  -0.9584
    -0.9546  -0.9492  -0.9489  -0.9276  -0.9245  -0.9087  -0.9076  -0.8937
    -0.8934  -0.8849  -0.8652  -0.8631  -0.8615  -0.8536  -0.7818  -0.7807
    -0.7483  -0.7465  -0.7427  -0.7363  -0.7351  -0.7341  -0.7336  -0.7212
    -0.7207  -0.7043  -0.6792  -0.6663  -0.6463  -0.6453  -0.6340  -0.6337
    -0.6227  -0.6208  -0.6205  -0.6191  -0.6178  -0.6009  -0.5968  -0.5961
    -0.5748  -0.5655  -0.5640  -0.5629  -0.5514  -0.5509  -0.5322  -0.5001
    -0.4999  -0.4907  -0.4902  -0.4231  -0.4223  -0.3857  -0.3850  -0.3275
    -0.3266  -0.3259  -0.3116  -0.2996  -0.0714  -0.0699   0.2737   0.2739
     0.3665   0.3682   0.5605   0.5772   0.5914   0.7216   0.7224   1.1539
     1.1542   1.1719   1.4330   1.4639   1.4642   1.7434   1.7441   1.8194
     1.8198   1.8479   1.8485   2.0754   2.0768   2.1650   2.1654   2.2431
     2.3059   2.3063   2.4680   2.5676   3.0053   3.0071   3.0105   3.0114
     3.0639   3.0666   3.3577   3.3583   3.6401   3.6414   3.7504   4.0540
     4.0953   4.0975   4.3227   4.3289   4.3968   4.3975   4.4889   4.6069
     4.6078   4.7243   4.7252   5.0280   5.0949   5.0976   5.2669   5.2783
     5.4235   5.4836   5.4863   5.5116   5.5126   5.5741   5.5766   5.6307
     5.9438   6.0326   6.1813   6.2551   6.2731   6.3155   6.3190   6.3316
     6.3335   6.5678   6.5719   6.6375   6.7226   6.8012   6.8046   6.8508
     6.8559   7.0858   7.1065

     the Fermi energy is     1.2976 ev

!    total energy              =   -6604.43306420 Ry
     Harris-Foulkes estimate   =   -6604.43306419 Ry
     estimated scf accuracy    <          5.7E-09 Ry

     The total energy is the sum of the following terms:

     one-electron contribution =  -48610.58887519 Ry
     hartree contribution      =   24802.97739523 Ry
     xc contribution           =   -3204.97207610 Ry
     ewald contribution        =   20408.14758502 Ry
     smearing contrib. (-TS)   =       0.00290684 Ry

     convergence has been achieved in  24 iterations

     Writing output data file 5140421.save

     init_run     :    191.36s CPU    200.63s WALL (       1 calls)
     electrons    :  10461.76s CPU  10953.25s WALL (       1 calls)

     Called by init_run:
     wfcinit      :    156.20s CPU    164.75s WALL (       1 calls)
     potinit      :     10.86s CPU     11.29s WALL (       1 calls)

     Called by electrons:
     c_bands      :   8869.58s CPU   9264.63s WALL (      25 calls)
     sum_band     :   1239.08s CPU   1320.81s WALL (      25 calls)
     v_of_rho     :    111.70s CPU    120.88s WALL (      25 calls)
     newd         :    251.96s CPU    254.93s WALL (      25 calls)
     mix_rho      :      3.11s CPU      3.42s WALL (      25 calls)
     vdW_energy   :      7.26s CPU      7.87s WALL (      25 calls)
     vdW_ffts     :     64.29s CPU     68.91s WALL (      50 calls)
     vdW_v        :     13.61s CPU     14.43s WALL (      25 calls)

     Called by c_bands:
     init_us_2    :     11.87s CPU     12.18s WALL (     612 calls)
     cegterg      :   8691.50s CPU   9085.01s WALL (     300 calls)

     Called by *egterg:
     h_psi        :   3793.89s CPU   4144.26s WALL (    1681 calls)
     s_psi        :    421.44s CPU    424.00s WALL (    1681 calls)
     g_psi        :      6.01s CPU      6.05s WALL (    1369 calls)
     cdiaghg      :   2246.52s CPU   2253.26s WALL (    1657 calls)

     Called by h_psi:
     add_vuspsi   :    420.63s CPU    423.35s WALL (    1681 calls)

     General routines
     calbec       :    885.14s CPU    888.22s WALL (    1981 calls)
     fft          :    171.81s CPU    180.48s WALL (    1650 calls)
     ffts         :      1.46s CPU      1.65s WALL (      50 calls)
     fftw         :   3220.97s CPU   3615.01s WALL (  727230 calls)
     interpolate  :      3.64s CPU      4.19s WALL (      50 calls)
     davcio       :      0.00s CPU      0.17s WALL (      12 calls)

     Parallel routines
     fft_scatter  :   2570.59s CPU   2925.56s WALL (  728930 calls)

     PWSCF        :     2h57m CPU        3h 6m WALL


   This run was terminated on:   8:36:26  13Aug2015            

=------------------------------------------------------------------------------=
   JOB DONE.
=------------------------------------------------------------------------------=
