Setting SGE environment for SCC

     Program PWSCF v.5.1.2 starts on  8Aug2015 at 15:44: 3 

     This program is part of the open-source Quantum ESPRESSO suite
     for quantum simulation of materials; please cite
         "P. Giannozzi et al., J. Phys.:Condens. Matter 21 395502 (2009);
          URL http://www.quantum-espresso.org", 
     in publications or presentations arising from this work. More details at
     http://www.quantum-espresso.org/quote

     Parallel version (MPI), running on    32 processors
     R & G space division:  proc/nbgrp/npool/nimage =      32
     Waiting for input...
     Reading input from standard input
Warning: card &CELL ignored
Warning: card / ignored

     Current dimensions of program PWSCF are:
     Max number of different atomic species (ntypx) = 10
     Max number of k-points (npk) =  40000
     Max angular momentum in pseudopotentials (lmaxx) =  3

     Subspace diagonalization in iterative solution of the eigenvalue problem:
     a serial algorithm will be used


     Parallelization info
     --------------------
     sticks:   dense  smooth     PW     G-vecs:    dense   smooth      PW
     Min         578     289     74               118518    41891    5486
     Max         579     290     75               118533    41932    5497
     Sum       18505    9265   2385              3792731  1341081  175711


     Title: 
     GOLD                                                                       


     bravais-lattice index     =            8
     lattice parameter (alat)  =      24.1233  a.u.
     unit-cell volume          =   28076.2361 (a.u.)^3
     number of atoms/cell      =           72
     number of atomic types    =            1
     number of electrons       =       792.00
     number of Kohn-Sham states=          475
     kinetic-energy cutoff     =      50.0000  Ry
     charge density cutoff     =     400.0000  Ry
     convergence threshold     =      1.0E-08
     mixing beta               =       0.7000
     number of iterations used =            8  plain     mixing
     Exchange-correlation      =  SLA  PW   PBE  PBE ( 1  4  3  4 0 0)
     nstep                     =           50


     celldm(1)=  24.123277  celldm(2)=   1.000000  celldm(3)=   2.000000
     celldm(4)=   0.000000  celldm(5)=   0.000000  celldm(6)=   0.000000

     crystal axes: (cart. coord. in units of alat)
               a(1) = (   1.000000   0.000000   0.000000 )  
               a(2) = (   0.000000   1.000000   0.000000 )  
               a(3) = (   0.000000   0.000000   2.000000 )  

     reciprocal axes: (cart. coord. in units 2 pi/alat)
               b(1) = (  1.000000  0.000000  0.000000 )  
               b(2) = (  0.000000  1.000000  0.000000 )  
               b(3) = (  0.000000  0.000000  0.500000 )  


     PseudoPot. # 1 for Au read from file:
     /home/scc/andrejb/qe/pseudo/Au.pbe-nd-van.UPF
     MD5 check sum: 458681b50f36d87ef23c61b04bba420a
     Pseudo is Ultrasoft + core correction, Zval = 11.0
     Generated by new atomic code, or converted to UPF format
     Using radial grid of  985 points,  3 beta functions with: 
                l(1) =   1
                l(2) =   2
                l(3) =   2
     Q(r) pseudized with  8 coefficients,  rinner =    1.100   1.100   1.100
                                                       1.100   1.100

     atomic species   valence    mass     pseudopotential
        Au            11.00   196.96657     Au( 1.00)

      2 Sym. Ops. (no inversion) found
          (note:  2 additional sym.ops. were found but ignored
           their fractional translations are incommensurate with FFT grid)


   Cartesian axes

     site n.     atom                  positions (alat units)
         1           Au  tau(   1) = (   0.0000000   0.0000000   0.0000000  )
         2           Au  tau(   2) = (   0.3332217   0.0000000   0.0000000  )
         3           Au  tau(   3) = (   0.6664434   0.0000000   0.0000000  )
         4           Au  tau(   4) = (   0.1666109   0.1666109   0.0000000  )
         5           Au  tau(   5) = (   0.4998326   0.1666109   0.0000000  )
         6           Au  tau(   6) = (   0.8330542   0.1666109   0.0000000  )
         7           Au  tau(   7) = (   0.0000000   0.3332217   0.0000000  )
         8           Au  tau(   8) = (   0.3332217   0.3332217   0.0000000  )
         9           Au  tau(   9) = (   0.6664434   0.3332217   0.0000000  )
        10           Au  tau(  10) = (   0.1666109   0.4998326   0.0000000  )
        11           Au  tau(  11) = (   0.4998326   0.4998326   0.0000000  )
        12           Au  tau(  12) = (   0.8330542   0.4998326   0.0000000  )
        13           Au  tau(  13) = (   0.0000000   0.6664434   0.0000000  )
        14           Au  tau(  14) = (   0.3332217   0.6664434   0.0000000  )
        15           Au  tau(  15) = (   0.6664434   0.6664434   0.0000000  )
        16           Au  tau(  16) = (   0.1666109   0.8330542   0.0000000  )
        17           Au  tau(  17) = (   0.4998326   0.8330542   0.0000000  )
        18           Au  tau(  18) = (   0.8330542   0.8330542   0.0000000  )
        19           Au  tau(  19) = (   0.1666109   0.0000000   0.1666109  )
        20           Au  tau(  20) = (   0.4998326   0.0000000   0.1666109  )
        21           Au  tau(  21) = (   0.8330542   0.0000000   0.1666109  )
        22           Au  tau(  22) = (   0.0000000   0.1666109   0.1666109  )
        23           Au  tau(  23) = (   0.3332217   0.1666109   0.1666109  )
        24           Au  tau(  24) = (   0.6664434   0.1666109   0.1666109  )
        25           Au  tau(  25) = (   0.1666109   0.3332217   0.1666109  )
        26           Au  tau(  26) = (   0.4998326   0.3332217   0.1666109  )
        27           Au  tau(  27) = (   0.8330542   0.3332217   0.1666109  )
        28           Au  tau(  28) = (   0.0000000   0.4998326   0.1666109  )
        29           Au  tau(  29) = (   0.3332217   0.4998326   0.1666109  )
        30           Au  tau(  30) = (   0.6664434   0.4998326   0.1666109  )
        31           Au  tau(  31) = (   0.1666109   0.6664434   0.1666109  )
        32           Au  tau(  32) = (   0.4998326   0.6664434   0.1666109  )
        33           Au  tau(  33) = (   0.8330542   0.6664434   0.1666109  )
        34           Au  tau(  34) = (   0.0000000   0.8330542   0.1666109  )
        35           Au  tau(  35) = (   0.3332217   0.8330542   0.1666109  )
        36           Au  tau(  36) = (   0.6664434   0.8330542   0.1666109  )
        37           Au  tau(  37) = (  -0.0000182  -0.0000182   0.3335478  )
        38           Au  tau(  38) = (   0.3332215  -0.0000181   0.3335473  )
        39           Au  tau(  39) = (   0.6664447  -0.0000183   0.3335481  )
        40           Au  tau(  40) = (  -0.0000181   0.3332215   0.3335473  )
        41           Au  tau(  41) = (   0.3332215   0.3332215   0.3335468  )
        42           Au  tau(  42) = (   0.6664445   0.3332215   0.3335477  )
        43           Au  tau(  43) = (  -0.0000183   0.6664447   0.3335481  )
        44           Au  tau(  44) = (   0.3332215   0.6664445   0.3335477  )
        45           Au  tau(  45) = (   0.6664446   0.6664446   0.3335486  )
        46           Au  tau(  46) = (   0.1666097   0.1666097   0.3335483  )
        47           Au  tau(  47) = (   0.4998320   0.1666098   0.3335477  )
        48           Au  tau(  48) = (   0.8330732   0.1666096   0.3335480  )
        49           Au  tau(  49) = (   0.1666098   0.4998320   0.3335477  )
        50           Au  tau(  50) = (   0.4998322   0.4998322   0.3335470  )
        51           Au  tau(  51) = (   0.8330731   0.4998322   0.3335474  )
        52           Au  tau(  52) = (   0.1666096   0.8330732   0.3335480  )
        53           Au  tau(  53) = (   0.4998322   0.8330731   0.3335474  )
        54           Au  tau(  54) = (   0.8330731   0.8330731   0.3335478  )
        55           Au  tau(  55) = (   0.1666104  -0.0000111   0.4993095  )
        56           Au  tau(  56) = (   0.4998323  -0.0000112   0.4993099  )
        57           Au  tau(  57) = (   0.8330660  -0.0000111   0.4993009  )
        58           Au  tau(  58) = (  -0.0000111   0.1666104   0.4993095  )
        59           Au  tau(  59) = (   0.3332213   0.1666106   0.4993185  )
        60           Au  tau(  60) = (   0.6664437   0.1666106   0.4993187  )
        61           Au  tau(  61) = (   0.1666106   0.3332213   0.4993185  )
        62           Au  tau(  62) = (   0.4998324   0.3332216   0.4993185  )
        63           Au  tau(  63) = (   0.8330658   0.3332215   0.4993102  )
        64           Au  tau(  64) = (  -0.0000112   0.4998323   0.4993099  )
        65           Au  tau(  65) = (   0.3332216   0.4998324   0.4993185  )
        66           Au  tau(  66) = (   0.6664437   0.4998325   0.4993187  )
        67           Au  tau(  67) = (   0.1666106   0.6664437   0.4993187  )
        68           Au  tau(  68) = (   0.4998325   0.6664437   0.4993187  )
        69           Au  tau(  69) = (   0.8330658   0.6664438   0.4993102  )
        70           Au  tau(  70) = (  -0.0000111   0.8330660   0.4993009  )
        71           Au  tau(  71) = (   0.3332215   0.8330658   0.4993102  )
        72           Au  tau(  72) = (   0.6664438   0.8330658   0.4993102  )

     number of k points=     5  Marzari-Vanderbilt smearing, width (Ry)=  0.0200
                       cart. coord. in units 2pi/alat
        k(    1) = (   0.2500000   0.2500000   0.0833333), wk =   0.3333333
        k(    2) = (   0.2500000   0.2500000  -0.2500000), wk =   0.3333333
        k(    3) = (  -0.2500000   0.2500000  -0.0833333), wk =   0.6666667
        k(    4) = (   0.2500000   0.2500000  -0.0833333), wk =   0.3333333
        k(    5) = (  -0.2500000   0.2500000   0.2500000), wk =   0.3333333

     Dense  grid:  3792731 G-vectors     FFT dimensions: ( 160, 160, 320)

     Smooth grid:  1341081 G-vectors     FFT dimensions: ( 120, 120, 225)

     Largest allocated arrays     est. size (Mb)     dimensions
        Kohn-Sham Wavefunctions        38.17 Mb     (    5267,  475)
        NL pseudopotentials            75.22 Mb     (    5267,  936)
        Each V/rho on FFT grid          3.91 Mb     (  256000)
        Each G-vector array             0.90 Mb     (  118520)
        G-vector shells                 0.08 Mb     (   10286)
     Largest temporary arrays     est. size (Mb)     dimensions
        Auxiliary wavefunctions       152.70 Mb     (    5267, 1900)
        Each subspace H/S matrix       55.08 Mb     (    1900, 1900)
        Each <psi_i|beta_j> matrix      6.78 Mb     (     936,  475)
        Arrays for rho mixing          31.25 Mb     (  256000,    8)

     Initial potential from superposition of free atoms
     Check: negative starting charge=   -1.945108

     starting charge  791.16394, renormalised to  792.00000

     negative rho (up, down):  1.947E+00 0.000E+00
     Starting wfc are  648 randomized atomic wfcs

     total cpu time spent up to now is      123.0 secs

     Self-consistent Calculation

     iteration #  1     ecut=    50.00 Ry     beta=0.70
     Davidson diagonalization with overlap
     ethr =  1.00E-02,  avg # of iterations =  3.0

     Threshold (ethr) on eigenvalues was too large:
     Diagonalizing with lowered threshold

     Davidson diagonalization with overlap
     ethr =  4.42E-04,  avg # of iterations =  2.0

     negative rho (up, down):  1.931E+00 0.000E+00

     total cpu time spent up to now is      571.5 secs

     total energy              =   -7343.15558388 Ry
     Harris-Foulkes estimate   =   -7346.37263875 Ry
     estimated scf accuracy    <       4.05491831 Ry

     iteration #  2     ecut=    50.00 Ry     beta=0.70
     Davidson diagonalization with overlap
     ethr =  5.12E-04,  avg # of iterations = 11.4

     negative rho (up, down):  1.929E+00 0.000E+00

     total cpu time spent up to now is     1242.3 secs

     total energy              =   -7334.99158499 Ry
     Harris-Foulkes estimate   =   -7353.28040074 Ry
     estimated scf accuracy    <      96.09163931 Ry

     iteration #  3     ecut=    50.00 Ry     beta=0.70
     Davidson diagonalization with overlap
     ethr =  5.12E-04,  avg # of iterations =  6.0

     negative rho (up, down):  1.950E+00 0.000E+00

     total cpu time spent up to now is     1696.1 secs

     total energy              =   -7345.15975746 Ry
     Harris-Foulkes estimate   =   -7346.02572238 Ry
     estimated scf accuracy    <       2.95988523 Ry

     iteration #  4     ecut=    50.00 Ry     beta=0.70
     Davidson diagonalization with overlap
     ethr =  3.74E-04,  avg # of iterations =  2.0

     negative rho (up, down):  1.960E+00 0.000E+00

     total cpu time spent up to now is     1900.5 secs

     total energy              =   -7345.48896667 Ry
     Harris-Foulkes estimate   =   -7345.55060667 Ry
     estimated scf accuracy    <       0.16973506 Ry

     iteration #  5     ecut=    50.00 Ry     beta=0.70
     Davidson diagonalization with overlap
     ethr =  2.14E-05,  avg # of iterations = 10.6

     negative rho (up, down):  1.962E+00 0.000E+00

     total cpu time spent up to now is     2394.1 secs

     total energy              =   -7345.48514204 Ry
     Harris-Foulkes estimate   =   -7345.56589926 Ry
     estimated scf accuracy    <       0.59903629 Ry

     iteration #  6     ecut=    50.00 Ry     beta=0.70
     Davidson diagonalization with overlap
     ethr =  2.14E-05,  avg # of iterations = 10.0

     negative rho (up, down):  1.964E+00 0.000E+00

     total cpu time spent up to now is     2691.3 secs

     total energy              =   -7345.51810620 Ry
     Harris-Foulkes estimate   =   -7345.53391499 Ry
     estimated scf accuracy    <       0.07644443 Ry

     iteration #  7     ecut=    50.00 Ry     beta=0.70
     Davidson diagonalization with overlap
     ethr =  9.65E-06,  avg # of iterations = 12.6

     negative rho (up, down):  1.969E+00 0.000E+00

     total cpu time spent up to now is     3034.2 secs

     total energy              =   -7345.51177765 Ry
     Harris-Foulkes estimate   =   -7345.54592900 Ry
     estimated scf accuracy    <       0.22964324 Ry

     iteration #  8     ecut=    50.00 Ry     beta=0.70
     Davidson diagonalization with overlap
     ethr =  9.65E-06,  avg # of iterations =  5.4

     negative rho (up, down):  1.968E+00 0.000E+00

     total cpu time spent up to now is     3288.0 secs

     total energy              =   -7345.52799150 Ry
     Harris-Foulkes estimate   =   -7345.52846232 Ry
     estimated scf accuracy    <       0.00197012 Ry

     iteration #  9     ecut=    50.00 Ry     beta=0.70
     Davidson diagonalization with overlap
     ethr =  2.49E-07,  avg # of iterations = 11.6

     negative rho (up, down):  1.967E+00 0.000E+00

     total cpu time spent up to now is     3643.7 secs

     total energy              =   -7345.52819098 Ry
     Harris-Foulkes estimate   =   -7345.52843960 Ry
     estimated scf accuracy    <       0.00093742 Ry

     iteration # 10     ecut=    50.00 Ry     beta=0.70
     Davidson diagonalization with overlap
     ethr =  1.18E-07,  avg # of iterations =  2.0

     negative rho (up, down):  1.968E+00 0.000E+00

     total cpu time spent up to now is     3854.1 secs

     total energy              =   -7345.52829319 Ry
     Harris-Foulkes estimate   =   -7345.52833234 Ry
     estimated scf accuracy    <       0.00014049 Ry

     iteration # 11     ecut=    50.00 Ry     beta=0.70
     Davidson diagonalization with overlap
     ethr =  1.77E-08,  avg # of iterations =  2.0

     negative rho (up, down):  1.968E+00 0.000E+00

     total cpu time spent up to now is     4069.6 secs

     total energy              =   -7345.52830918 Ry
     Harris-Foulkes estimate   =   -7345.52832490 Ry
     estimated scf accuracy    <       0.00005179 Ry

     iteration # 12     ecut=    50.00 Ry     beta=0.70
     Davidson diagonalization with overlap
     ethr =  6.54E-09,  avg # of iterations =  2.0

     negative rho (up, down):  1.968E+00 0.000E+00

     total cpu time spent up to now is     4283.8 secs

     total energy              =   -7345.52831625 Ry
     Harris-Foulkes estimate   =   -7345.52831969 Ry
     estimated scf accuracy    <       0.00001139 Ry

     iteration # 13     ecut=    50.00 Ry     beta=0.70
     Davidson diagonalization with overlap
     ethr =  1.44E-09,  avg # of iterations =  2.0

     negative rho (up, down):  1.968E+00 0.000E+00

     total cpu time spent up to now is     4537.5 secs

     total energy              =   -7345.52831677 Ry
     Harris-Foulkes estimate   =   -7345.52831941 Ry
     estimated scf accuracy    <       0.00000805 Ry

     iteration # 14     ecut=    50.00 Ry     beta=0.70
     Davidson diagonalization with overlap
     ethr =  1.02E-09,  avg # of iterations =  2.0

     negative rho (up, down):  1.968E+00 0.000E+00

     total cpu time spent up to now is     4753.9 secs

     total energy              =   -7345.52831781 Ry
     Harris-Foulkes estimate   =   -7345.52831845 Ry
     estimated scf accuracy    <       0.00000203 Ry

     iteration # 15     ecut=    50.00 Ry     beta=0.70
     Davidson diagonalization with overlap
     ethr =  2.56E-10,  avg # of iterations =  2.0

     negative rho (up, down):  1.968E+00 0.000E+00

     total cpu time spent up to now is     4969.0 secs

     total energy              =   -7345.52831785 Ry
     Harris-Foulkes estimate   =   -7345.52831849 Ry
     estimated scf accuracy    <       0.00000338 Ry

     iteration # 16     ecut=    50.00 Ry     beta=0.70
     Davidson diagonalization with overlap
     ethr =  2.56E-10,  avg # of iterations =  2.0

     negative rho (up, down):  1.968E+00 0.000E+00

     total cpu time spent up to now is     5178.2 secs

     total energy              =   -7345.52831797 Ry
     Harris-Foulkes estimate   =   -7345.52831840 Ry
     estimated scf accuracy    <       0.00000295 Ry

     iteration # 17     ecut=    50.00 Ry     beta=0.70
     Davidson diagonalization with overlap
     ethr =  2.56E-10,  avg # of iterations =  1.0

     negative rho (up, down):  1.968E+00 0.000E+00

     total cpu time spent up to now is     5378.0 secs

     total energy              =   -7345.52831814 Ry
     Harris-Foulkes estimate   =   -7345.52831828 Ry
     estimated scf accuracy    <       0.00000081 Ry

     iteration # 18     ecut=    50.00 Ry     beta=0.70
     Davidson diagonalization with overlap
     ethr =  1.02E-10,  avg # of iterations =  1.0

     negative rho (up, down):  1.968E+00 0.000E+00

     total cpu time spent up to now is     5575.6 secs

     total energy              =   -7345.52831819 Ry
     Harris-Foulkes estimate   =   -7345.52831823 Ry
     estimated scf accuracy    <       0.00000023 Ry

     iteration # 19     ecut=    50.00 Ry     beta=0.70
     Davidson diagonalization with overlap
     ethr =  2.84E-11,  avg # of iterations =  2.0

     negative rho (up, down):  1.968E+00 0.000E+00

     total cpu time spent up to now is     5787.6 secs

     total energy              =   -7345.52831820 Ry
     Harris-Foulkes estimate   =   -7345.52831821 Ry
     estimated scf accuracy    <       0.00000002 Ry

     iteration # 20     ecut=    50.00 Ry     beta=0.70
     Davidson diagonalization with overlap
     ethr =  3.13E-12,  avg # of iterations =  3.0

     negative rho (up, down):  1.968E+00 0.000E+00

     total cpu time spent up to now is     6082.6 secs

     total energy              =   -7345.52831819 Ry
     Harris-Foulkes estimate   =   -7345.52831822 Ry
     estimated scf accuracy    <       0.00000011 Ry

     iteration # 21     ecut=    50.00 Ry     beta=0.70
     Davidson diagonalization with overlap
     ethr =  3.13E-12,  avg # of iterations =  3.0

     negative rho (up, down):  1.968E+00 0.000E+00

     total cpu time spent up to now is     6340.4 secs

     End of self-consistent calculation

          k = 0.2500 0.2500 0.0833 (167653 PWs)   bands (ev):

    -6.8795  -6.3492  -6.3492  -5.9110  -5.5075  -5.4088  -5.4088  -5.1870
    -5.1870  -5.0900  -5.0900  -4.9565  -4.9489  -4.8394  -4.7511  -4.7468
    -4.7257  -4.7257  -4.5447  -4.5433  -4.5433  -4.5168  -4.5125  -4.5120
    -4.5081  -4.4548  -4.4548  -4.4520  -4.4520  -4.3884  -4.3599  -4.3599
    -4.3031  -4.2999  -4.2986  -4.2625  -4.2625  -4.2486  -4.2440  -4.2253
    -4.2253  -4.1882  -4.1557  -4.1555  -4.1527  -4.1498  -4.1497  -4.1195
    -4.0891  -4.0891  -4.0595  -4.0595  -4.0555  -4.0555  -4.0535  -4.0472
    -4.0150  -4.0150  -3.9548  -3.9548  -3.9226  -3.8964  -3.8892  -3.8858
    -3.8854  -3.8633  -3.8633  -3.8514  -3.8010  -3.8010  -3.7951  -3.7951
    -3.7096  -3.7096  -3.6874  -3.6874  -3.6528  -3.6505  -3.6367  -3.6115
    -3.6115  -3.5671  -3.5671  -3.5645  -3.5645  -3.5397  -3.5397  -3.4594
    -3.4591  -3.4579  -3.4430  -3.4281  -3.4251  -3.4123  -3.4123  -3.4050
    -3.4050  -3.3623  -3.3623  -3.3393  -3.3393  -3.3027  -3.3027  -3.2763
    -3.2552  -3.2552  -3.2090  -3.2090  -3.1764  -3.1488  -3.1485  -3.1478
    -3.1473  -3.1433  -3.1433  -3.1163  -3.1063  -3.0679  -3.0679  -3.0468
    -3.0233  -3.0202  -3.0202  -3.0136  -3.0135  -3.0092  -3.0092  -2.9741
    -2.9731  -2.9731  -2.9676  -2.9676  -2.9626  -2.9071  -2.9019  -2.8975
    -2.8975  -2.8753  -2.8753  -2.8700  -2.7813  -2.7707  -2.7707  -2.7610
    -2.7609  -2.7552  -2.7539  -2.7529  -2.7450  -2.7450  -2.7343  -2.7269
    -2.7236  -2.7236  -2.7191  -2.7091  -2.7039  -2.7018  -2.6796  -2.6689
    -2.6689  -2.6530  -2.6530  -2.6360  -2.6360  -2.6271  -2.6271  -2.6065
    -2.5937  -2.5937  -2.5884  -2.5884  -2.5545  -2.5521  -2.5521  -2.4941
    -2.4904  -2.4757  -2.4756  -2.4650  -2.4607  -2.4375  -2.4375  -2.4332
    -2.4204  -2.4204  -2.4087  -2.4087  -2.3918  -2.3918  -2.3647  -2.3647
    -2.3545  -2.3544  -2.3446  -2.3446  -2.3273  -2.3143  -2.2937  -2.2248
    -2.2232  -2.2039  -2.2039  -2.1920  -2.1920  -2.1418  -2.1418  -2.1266
    -2.1071  -2.0945  -2.0945  -2.0763  -2.0579  -2.0579  -2.0447  -2.0379
    -2.0067  -2.0067  -2.0041  -1.9961  -1.9961  -1.9894  -1.9894  -1.9701
    -1.9611  -1.9518  -1.9518  -1.9513  -1.9513  -1.9500  -1.9500  -1.9361
    -1.9161  -1.9161  -1.9127  -1.9072  -1.8943  -1.8943  -1.8899  -1.8899
    -1.8840  -1.8822  -1.8477  -1.8477  -1.8031  -1.7839  -1.7838  -1.7380
    -1.7380  -1.7379  -1.7271  -1.7271  -1.7131  -1.7131  -1.7055  -1.7055
    -1.6950  -1.6950  -1.6745  -1.6745  -1.6375  -1.6375  -1.6201  -1.5978
    -1.5978  -1.5582  -1.5582  -1.5077  -1.5077  -1.4866  -1.4625  -1.4602
    -1.4602  -1.4549  -1.4534  -1.4339  -1.4339  -1.4328  -1.4328  -1.4309
    -1.4307  -1.4300  -1.4288  -1.4275  -1.4006  -1.4006  -1.3676  -1.3665
    -1.3665  -1.3443  -1.3443  -1.3395  -1.3395  -1.3363  -1.3259  -1.2981
    -1.2981  -1.2734  -1.2723  -1.2723  -1.2520  -1.2407  -1.2407  -1.2113
    -1.2113  -1.2043  -1.2043  -1.1656  -1.1656  -1.1536  -1.1536  -1.1528
    -1.1528  -1.1264  -1.1264  -1.1123  -1.1049  -1.1049  -1.0930  -1.0930
    -1.0911  -1.0911  -1.0800  -1.0699  -1.0689  -1.0622  -1.0622  -1.0554
    -1.0513  -1.0513  -1.0350  -0.9931  -0.9916  -0.9909  -0.9892  -0.9865
    -0.9845  -0.9561  -0.9561  -0.9423  -0.9246  -0.9246  -0.9162  -0.9162
    -0.9079  -0.9012  -0.8989  -0.8629  -0.8629  -0.8515  -0.8515  -0.8312
    -0.8312  -0.8157  -0.7916  -0.7835  -0.7657  -0.7657  -0.7280  -0.7278
    -0.7246  -0.7245  -0.7242  -0.7181  -0.7168  -0.7168  -0.7125  -0.7101
    -0.6770  -0.6770  -0.6755  -0.6755  -0.6741  -0.6741  -0.6600  -0.6600
    -0.6316  -0.3705  -0.3621  -0.3171  -0.3171  -0.2861  -0.2274  -0.0748
    -0.0748  -0.0441   0.2407   0.2407   0.5817   0.5817   0.6252   0.6252
     0.6753   0.6753   0.8349   0.8349   0.9629   0.9646   1.0786   1.5737
     1.6151   1.6206   1.6566   1.6571   1.7951   1.7951   1.8504   1.8504
     2.0330   2.0330   2.3187   2.3451   2.3451   2.3660   2.8017   2.8017
     2.8241   2.8251   2.8410   2.8410   2.9066   2.9074   3.0665   3.1857
     3.1857   3.3730   3.3775   3.4817   3.5538   3.5538   3.8539   3.8539
     3.9109   3.9119   3.9119   4.0590   4.0590   4.0835   4.0835   4.3554
     4.3554   4.3931   4.3931   4.5069   4.5109   4.5746   4.5746   4.8626
     5.4565   5.4565   5.5402   5.5402   5.6635   5.6635   5.7359   5.7359
     5.7523   5.7523   5.7995   5.8569   5.8647   5.9647   6.1521   6.1521
     6.1628   6.1652   6.1676   6.1796   6.2034   6.2034   6.3489   6.3489
     6.3948   6.3948   6.4808

          k = 0.2500 0.2500-0.2500 (167588 PWs)   bands (ev):

    -6.8795  -6.3492  -6.3492  -5.9110  -5.5075  -5.4088  -5.4088  -5.1870
    -5.1870  -5.0900  -5.0900  -4.9565  -4.9489  -4.8394  -4.7510  -4.7468
    -4.7257  -4.7257  -4.5447  -4.5433  -4.5433  -4.5168  -4.5125  -4.5120
    -4.5081  -4.4548  -4.4548  -4.4520  -4.4520  -4.3884  -4.3599  -4.3599
    -4.3031  -4.2999  -4.2986  -4.2625  -4.2625  -4.2486  -4.2440  -4.2253
    -4.2253  -4.1882  -4.1557  -4.1555  -4.1527  -4.1498  -4.1497  -4.1195
    -4.0891  -4.0891  -4.0595  -4.0595  -4.0555  -4.0555  -4.0535  -4.0472
    -4.0150  -4.0150  -3.9548  -3.9548  -3.9226  -3.8964  -3.8892  -3.8858
    -3.8854  -3.8633  -3.8633  -3.8514  -3.8011  -3.8010  -3.7951  -3.7951
    -3.7096  -3.7096  -3.6874  -3.6874  -3.6528  -3.6505  -3.6367  -3.6115
    -3.6115  -3.5671  -3.5671  -3.5645  -3.5645  -3.5397  -3.5397  -3.4594
    -3.4591  -3.4580  -3.4430  -3.4281  -3.4251  -3.4123  -3.4123  -3.4050
    -3.4050  -3.3622  -3.3622  -3.3393  -3.3393  -3.3027  -3.3027  -3.2763
    -3.2552  -3.2552  -3.2090  -3.2089  -3.1764  -3.1488  -3.1485  -3.1477
    -3.1473  -3.1433  -3.1433  -3.1163  -3.1063  -3.0679  -3.0679  -3.0468
    -3.0232  -3.0202  -3.0202  -3.0136  -3.0135  -3.0093  -3.0092  -2.9741
    -2.9731  -2.9731  -2.9676  -2.9676  -2.9626  -2.9071  -2.9019  -2.8975
    -2.8975  -2.8753  -2.8753  -2.8700  -2.7813  -2.7707  -2.7707  -2.7610
    -2.7609  -2.7552  -2.7539  -2.7529  -2.7450  -2.7450  -2.7343  -2.7269
    -2.7236  -2.7236  -2.7191  -2.7090  -2.7039  -2.7018  -2.6796  -2.6689
    -2.6689  -2.6530  -2.6530  -2.6360  -2.6360  -2.6271  -2.6271  -2.6065
    -2.5937  -2.5937  -2.5884  -2.5884  -2.5545  -2.5521  -2.5521  -2.4941
    -2.4904  -2.4757  -2.4756  -2.4650  -2.4607  -2.4375  -2.4374  -2.4332
    -2.4204  -2.4204  -2.4087  -2.4087  -2.3918  -2.3918  -2.3647  -2.3647
    -2.3545  -2.3545  -2.3446  -2.3446  -2.3273  -2.3143  -2.2937  -2.2248
    -2.2232  -2.2039  -2.2039  -2.1920  -2.1920  -2.1418  -2.1418  -2.1267
    -2.1071  -2.0945  -2.0945  -2.0763  -2.0579  -2.0579  -2.0447  -2.0379
    -2.0067  -2.0067  -2.0041  -1.9961  -1.9961  -1.9894  -1.9894  -1.9701
    -1.9611  -1.9518  -1.9518  -1.9513  -1.9513  -1.9500  -1.9500  -1.9361
    -1.9161  -1.9161  -1.9127  -1.9073  -1.8943  -1.8943  -1.8899  -1.8899
    -1.8840  -1.8822  -1.8477  -1.8477  -1.8031  -1.7839  -1.7838  -1.7380
    -1.7380  -1.7379  -1.7270  -1.7270  -1.7131  -1.7131  -1.7055  -1.7055
    -1.6950  -1.6950  -1.6745  -1.6745  -1.6375  -1.6375  -1.6201  -1.5978
    -1.5978  -1.5582  -1.5582  -1.5077  -1.5077  -1.4867  -1.4625  -1.4602
    -1.4602  -1.4549  -1.4535  -1.4339  -1.4339  -1.4328  -1.4328  -1.4309
    -1.4307  -1.4300  -1.4288  -1.4275  -1.4006  -1.4006  -1.3676  -1.3665
    -1.3665  -1.3443  -1.3443  -1.3395  -1.3395  -1.3363  -1.3259  -1.2981
    -1.2980  -1.2734  -1.2723  -1.2723  -1.2520  -1.2407  -1.2407  -1.2113
    -1.2113  -1.2043  -1.2043  -1.1656  -1.1656  -1.1536  -1.1536  -1.1528
    -1.1528  -1.1264  -1.1264  -1.1123  -1.1049  -1.1049  -1.0929  -1.0929
    -1.0911  -1.0911  -1.0800  -1.0700  -1.0689  -1.0622  -1.0622  -1.0554
    -1.0513  -1.0513  -1.0350  -0.9931  -0.9916  -0.9909  -0.9892  -0.9865
    -0.9845  -0.9561  -0.9561  -0.9423  -0.9246  -0.9246  -0.9162  -0.9162
    -0.9079  -0.9012  -0.8989  -0.8629  -0.8629  -0.8515  -0.8515  -0.8312
    -0.8312  -0.8157  -0.7916  -0.7835  -0.7656  -0.7656  -0.7280  -0.7278
    -0.7246  -0.7245  -0.7242  -0.7181  -0.7168  -0.7168  -0.7125  -0.7101
    -0.6770  -0.6770  -0.6755  -0.6755  -0.6741  -0.6741  -0.6600  -0.6600
    -0.6316  -0.3705  -0.3621  -0.3171  -0.3171  -0.2861  -0.2274  -0.0748
    -0.0748  -0.0441   0.2407   0.2407   0.5817   0.5817   0.6252   0.6252
     0.6753   0.6753   0.8349   0.8349   0.9629   0.9646   1.0786   1.5737
     1.6151   1.6206   1.6566   1.6571   1.7951   1.7951   1.8504   1.8504
     2.0330   2.0330   2.3187   2.3451   2.3451   2.3660   2.8017   2.8017
     2.8241   2.8251   2.8410   2.8410   2.9066   2.9074   3.0665   3.1857
     3.1857   3.3730   3.3776   3.4817   3.5538   3.5538   3.8539   3.8539
     3.9109   3.9119   3.9119   4.0590   4.0590   4.0836   4.0836   4.3554
     4.3554   4.3931   4.3931   4.5069   4.5109   4.5746   4.5746   4.8626
     5.4565   5.4565   5.5404   5.5404   5.6635   5.6635   5.7359   5.7359
     5.7441   5.7523   5.7524   5.8561   5.8647   6.1397   6.1486   6.1486
     6.1521   6.1521   6.1628   6.1652   6.1676   6.1796   6.3494   6.3494
     6.3737   6.4786   6.4786

          k =-0.2500 0.2500-0.0833 (167653 PWs)   bands (ev):

    -6.8795  -6.3492  -6.3492  -5.9110  -5.5075  -5.4088  -5.4088  -5.1870
    -5.1870  -5.0900  -5.0900  -4.9565  -4.9489  -4.8394  -4.7510  -4.7469
    -4.7257  -4.7257  -4.5447  -4.5433  -4.5433  -4.5168  -4.5125  -4.5120
    -4.5081  -4.4548  -4.4548  -4.4520  -4.4520  -4.3884  -4.3599  -4.3599
    -4.3031  -4.2999  -4.2986  -4.2625  -4.2625  -4.2486  -4.2440  -4.2253
    -4.2253  -4.1882  -4.1557  -4.1555  -4.1527  -4.1498  -4.1497  -4.1195
    -4.0891  -4.0891  -4.0595  -4.0595  -4.0555  -4.0555  -4.0535  -4.0472
    -4.0150  -4.0150  -3.9548  -3.9548  -3.9226  -3.8964  -3.8892  -3.8858
    -3.8854  -3.8633  -3.8632  -3.8514  -3.8010  -3.8010  -3.7951  -3.7951
    -3.7096  -3.7096  -3.6874  -3.6874  -3.6528  -3.6505  -3.6367  -3.6115
    -3.6115  -3.5671  -3.5671  -3.5645  -3.5645  -3.5398  -3.5397  -3.4594
    -3.4591  -3.4579  -3.4430  -3.4281  -3.4251  -3.4123  -3.4123  -3.4050
    -3.4050  -3.3623  -3.3623  -3.3393  -3.3393  -3.3027  -3.3027  -3.2763
    -3.2552  -3.2552  -3.2090  -3.2089  -3.1764  -3.1488  -3.1485  -3.1477
    -3.1473  -3.1433  -3.1433  -3.1163  -3.1063  -3.0679  -3.0679  -3.0468
    -3.0233  -3.0203  -3.0202  -3.0136  -3.0135  -3.0092  -3.0092  -2.9741
    -2.9731  -2.9731  -2.9676  -2.9676  -2.9626  -2.9071  -2.9019  -2.8975
    -2.8975  -2.8753  -2.8753  -2.8700  -2.7813  -2.7707  -2.7707  -2.7610
    -2.7609  -2.7552  -2.7539  -2.7529  -2.7450  -2.7450  -2.7343  -2.7269
    -2.7236  -2.7236  -2.7191  -2.7091  -2.7039  -2.7018  -2.6796  -2.6689
    -2.6689  -2.6530  -2.6530  -2.6360  -2.6360  -2.6271  -2.6271  -2.6065
    -2.5937  -2.5937  -2.5884  -2.5884  -2.5545  -2.5521  -2.5521  -2.4941
    -2.4904  -2.4757  -2.4756  -2.4650  -2.4607  -2.4375  -2.4375  -2.4332
    -2.4204  -2.4204  -2.4087  -2.4087  -2.3918  -2.3918  -2.3647  -2.3647
    -2.3545  -2.3544  -2.3446  -2.3446  -2.3273  -2.3143  -2.2937  -2.2248
    -2.2232  -2.2039  -2.2039  -2.1920  -2.1920  -2.1418  -2.1418  -2.1266
    -2.1071  -2.0945  -2.0945  -2.0763  -2.0579  -2.0579  -2.0447  -2.0379
    -2.0067  -2.0067  -2.0041  -1.9961  -1.9961  -1.9894  -1.9894  -1.9701
    -1.9611  -1.9518  -1.9518  -1.9513  -1.9513  -1.9500  -1.9500  -1.9361
    -1.9161  -1.9161  -1.9127  -1.9072  -1.8943  -1.8943  -1.8899  -1.8899
    -1.8840  -1.8822  -1.8477  -1.8477  -1.8031  -1.7839  -1.7838  -1.7380
    -1.7380  -1.7379  -1.7271  -1.7271  -1.7131  -1.7131  -1.7055  -1.7055
    -1.6950  -1.6950  -1.6745  -1.6745  -1.6375  -1.6375  -1.6201  -1.5978
    -1.5978  -1.5582  -1.5582  -1.5077  -1.5077  -1.4866  -1.4625  -1.4604
    -1.4600  -1.4549  -1.4534  -1.4339  -1.4339  -1.4328  -1.4328  -1.4309
    -1.4307  -1.4300  -1.4288  -1.4275  -1.4006  -1.4006  -1.3676  -1.3665
    -1.3665  -1.3443  -1.3443  -1.3395  -1.3395  -1.3363  -1.3259  -1.2981
    -1.2981  -1.2734  -1.2723  -1.2723  -1.2520  -1.2407  -1.2407  -1.2113
    -1.2113  -1.2043  -1.2043  -1.1656  -1.1656  -1.1536  -1.1536  -1.1528
    -1.1528  -1.1264  -1.1264  -1.1123  -1.1049  -1.1049  -1.0930  -1.0930
    -1.0911  -1.0911  -1.0800  -1.0699  -1.0689  -1.0622  -1.0622  -1.0554
    -1.0513  -1.0513  -1.0350  -0.9931  -0.9916  -0.9909  -0.9892  -0.9865
    -0.9845  -0.9561  -0.9561  -0.9423  -0.9246  -0.9246  -0.9162  -0.9162
    -0.9079  -0.9012  -0.8989  -0.8629  -0.8629  -0.8515  -0.8515  -0.8312
    -0.8312  -0.8157  -0.7916  -0.7835  -0.7657  -0.7657  -0.7280  -0.7278
    -0.7246  -0.7245  -0.7242  -0.7181  -0.7168  -0.7168  -0.7125  -0.7101
    -0.6770  -0.6770  -0.6755  -0.6755  -0.6741  -0.6741  -0.6600  -0.6600
    -0.6316  -0.3705  -0.3621  -0.3171  -0.3171  -0.2861  -0.2274  -0.0748
    -0.0748  -0.0441   0.2407   0.2407   0.5817   0.5817   0.6252   0.6252
     0.6753   0.6753   0.8349   0.8349   0.9629   0.9646   1.0786   1.5737
     1.6151   1.6206   1.6566   1.6571   1.7951   1.7951   1.8504   1.8504
     2.0330   2.0330   2.3187   2.3451   2.3451   2.3660   2.8017   2.8017
     2.8241   2.8251   2.8410   2.8410   2.9066   2.9074   3.0665   3.1857
     3.1857   3.3730   3.3775   3.4817   3.5538   3.5538   3.8539   3.8539
     3.9109   3.9119   3.9119   4.0590   4.0590   4.0835   4.0835   4.3554
     4.3554   4.3931   4.3931   4.5069   4.5109   4.5746   4.5746   4.8626
     5.4565   5.4565   5.5402   5.5402   5.6635   5.6635   5.7359   5.7359
     5.7523   5.7523   5.7995   5.8569   5.8647   5.9647   6.1521   6.1521
     6.1628   6.1652   6.1676   6.1796   6.2034   6.2034   6.3489   6.3489
     6.3948   6.3949   6.4808

          k = 0.2500 0.2500-0.0833 (167653 PWs)   bands (ev):

    -6.8795  -6.3492  -6.3492  -5.9110  -5.5075  -5.4088  -5.4088  -5.1870
    -5.1870  -5.0900  -5.0900  -4.9565  -4.9489  -4.8394  -4.7511  -4.7468
    -4.7257  -4.7257  -4.5447  -4.5433  -4.5433  -4.5168  -4.5125  -4.5120
    -4.5081  -4.4548  -4.4548  -4.4520  -4.4520  -4.3884  -4.3599  -4.3599
    -4.3031  -4.2999  -4.2986  -4.2625  -4.2625  -4.2486  -4.2440  -4.2253
    -4.2253  -4.1882  -4.1557  -4.1555  -4.1527  -4.1498  -4.1497  -4.1195
    -4.0891  -4.0891  -4.0595  -4.0595  -4.0555  -4.0555  -4.0535  -4.0472
    -4.0150  -4.0150  -3.9548  -3.9548  -3.9226  -3.8964  -3.8892  -3.8858
    -3.8854  -3.8633  -3.8633  -3.8514  -3.8010  -3.8010  -3.7951  -3.7951
    -3.7096  -3.7096  -3.6874  -3.6874  -3.6528  -3.6505  -3.6367  -3.6115
    -3.6115  -3.5671  -3.5671  -3.5645  -3.5645  -3.5397  -3.5397  -3.4594
    -3.4591  -3.4579  -3.4430  -3.4281  -3.4251  -3.4123  -3.4123  -3.4050
    -3.4050  -3.3623  -3.3623  -3.3393  -3.3393  -3.3027  -3.3027  -3.2763
    -3.2552  -3.2552  -3.2090  -3.2090  -3.1764  -3.1488  -3.1485  -3.1478
    -3.1473  -3.1433  -3.1433  -3.1163  -3.1063  -3.0679  -3.0679  -3.0468
    -3.0233  -3.0202  -3.0202  -3.0136  -3.0135  -3.0092  -3.0092  -2.9741
    -2.9731  -2.9731  -2.9676  -2.9676  -2.9626  -2.9071  -2.9019  -2.8975
    -2.8975  -2.8753  -2.8753  -2.8700  -2.7813  -2.7707  -2.7707  -2.7610
    -2.7609  -2.7552  -2.7539  -2.7529  -2.7450  -2.7450  -2.7343  -2.7269
    -2.7236  -2.7236  -2.7191  -2.7091  -2.7039  -2.7018  -2.6796  -2.6689
    -2.6689  -2.6530  -2.6530  -2.6360  -2.6360  -2.6271  -2.6271  -2.6065
    -2.5937  -2.5937  -2.5884  -2.5884  -2.5545  -2.5521  -2.5521  -2.4941
    -2.4904  -2.4757  -2.4756  -2.4650  -2.4607  -2.4375  -2.4375  -2.4332
    -2.4204  -2.4204  -2.4087  -2.4087  -2.3918  -2.3918  -2.3647  -2.3647
    -2.3545  -2.3544  -2.3446  -2.3446  -2.3273  -2.3143  -2.2937  -2.2248
    -2.2232  -2.2039  -2.2039  -2.1920  -2.1920  -2.1418  -2.1418  -2.1266
    -2.1071  -2.0945  -2.0945  -2.0763  -2.0579  -2.0579  -2.0447  -2.0379
    -2.0067  -2.0067  -2.0041  -1.9961  -1.9961  -1.9894  -1.9894  -1.9701
    -1.9611  -1.9518  -1.9518  -1.9513  -1.9513  -1.9500  -1.9500  -1.9361
    -1.9161  -1.9161  -1.9127  -1.9072  -1.8943  -1.8943  -1.8899  -1.8899
    -1.8840  -1.8822  -1.8477  -1.8477  -1.8031  -1.7839  -1.7838  -1.7380
    -1.7380  -1.7379  -1.7271  -1.7271  -1.7131  -1.7131  -1.7055  -1.7055
    -1.6950  -1.6950  -1.6745  -1.6745  -1.6375  -1.6375  -1.6201  -1.5978
    -1.5978  -1.5582  -1.5582  -1.5077  -1.5077  -1.4866  -1.4625  -1.4602
    -1.4602  -1.4549  -1.4534  -1.4339  -1.4339  -1.4328  -1.4328  -1.4309
    -1.4307  -1.4300  -1.4288  -1.4275  -1.4006  -1.4006  -1.3676  -1.3665
    -1.3665  -1.3443  -1.3443  -1.3395  -1.3395  -1.3363  -1.3259  -1.2981
    -1.2981  -1.2734  -1.2723  -1.2723  -1.2520  -1.2407  -1.2407  -1.2113
    -1.2113  -1.2043  -1.2043  -1.1656  -1.1656  -1.1536  -1.1536  -1.1528
    -1.1528  -1.1264  -1.1264  -1.1123  -1.1049  -1.1049  -1.0930  -1.0930
    -1.0911  -1.0911  -1.0800  -1.0699  -1.0689  -1.0622  -1.0622  -1.0554
    -1.0513  -1.0513  -1.0350  -0.9931  -0.9916  -0.9909  -0.9892  -0.9865
    -0.9845  -0.9561  -0.9561  -0.9423  -0.9246  -0.9246  -0.9162  -0.9162
    -0.9079  -0.9012  -0.8989  -0.8629  -0.8629  -0.8515  -0.8515  -0.8312
    -0.8312  -0.8157  -0.7916  -0.7835  -0.7657  -0.7657  -0.7280  -0.7278
    -0.7246  -0.7245  -0.7242  -0.7181  -0.7168  -0.7168  -0.7125  -0.7101
    -0.6770  -0.6770  -0.6755  -0.6755  -0.6741  -0.6741  -0.6600  -0.6600
    -0.6316  -0.3705  -0.3621  -0.3171  -0.3171  -0.2861  -0.2274  -0.0748
    -0.0748  -0.0441   0.2407   0.2407   0.5817   0.5817   0.6252   0.6252
     0.6753   0.6753   0.8349   0.8349   0.9629   0.9646   1.0786   1.5737
     1.6151   1.6206   1.6566   1.6571   1.7951   1.7951   1.8504   1.8504
     2.0330   2.0330   2.3187   2.3451   2.3451   2.3660   2.8017   2.8017
     2.8241   2.8251   2.8410   2.8410   2.9066   2.9074   3.0665   3.1857
     3.1857   3.3730   3.3775   3.4817   3.5538   3.5538   3.8539   3.8539
     3.9109   3.9119   3.9119   4.0590   4.0590   4.0835   4.0835   4.3554
     4.3554   4.3931   4.3931   4.5069   4.5109   4.5746   4.5746   4.8626
     5.4565   5.4565   5.5402   5.5402   5.6635   5.6635   5.7359   5.7359
     5.7523   5.7523   5.7995   5.8569   5.8647   5.9647   6.1521   6.1521
     6.1628   6.1652   6.1676   6.1796   6.2034   6.2034   6.3489   6.3489
     6.3948   6.3948   6.4808

          k =-0.2500 0.2500 0.2500 (167588 PWs)   bands (ev):

    -6.8795  -6.3492  -6.3492  -5.9110  -5.5075  -5.4088  -5.4088  -5.1870
    -5.1870  -5.0900  -5.0900  -4.9565  -4.9489  -4.8394  -4.7510  -4.7468
    -4.7257  -4.7257  -4.5447  -4.5433  -4.5433  -4.5168  -4.5125  -4.5120
    -4.5081  -4.4548  -4.4548  -4.4520  -4.4520  -4.3884  -4.3599  -4.3599
    -4.3031  -4.2999  -4.2986  -4.2625  -4.2625  -4.2486  -4.2440  -4.2253
    -4.2253  -4.1882  -4.1557  -4.1555  -4.1527  -4.1498  -4.1497  -4.1195
    -4.0891  -4.0891  -4.0595  -4.0595  -4.0555  -4.0555  -4.0535  -4.0472
    -4.0150  -4.0150  -3.9548  -3.9548  -3.9226  -3.8964  -3.8892  -3.8858
    -3.8854  -3.8633  -3.8632  -3.8514  -3.8010  -3.8010  -3.7951  -3.7951
    -3.7096  -3.7096  -3.6874  -3.6874  -3.6528  -3.6505  -3.6367  -3.6115
    -3.6115  -3.5671  -3.5671  -3.5645  -3.5645  -3.5397  -3.5397  -3.4594
    -3.4591  -3.4580  -3.4430  -3.4281  -3.4251  -3.4123  -3.4123  -3.4050
    -3.4050  -3.3622  -3.3622  -3.3393  -3.3393  -3.3027  -3.3027  -3.2763
    -3.2552  -3.2552  -3.2090  -3.2089  -3.1764  -3.1488  -3.1485  -3.1477
    -3.1473  -3.1433  -3.1433  -3.1163  -3.1063  -3.0679  -3.0679  -3.0468
    -3.0232  -3.0203  -3.0202  -3.0136  -3.0134  -3.0093  -3.0092  -2.9741
    -2.9731  -2.9731  -2.9676  -2.9676  -2.9626  -2.9071  -2.9019  -2.8975
    -2.8975  -2.8753  -2.8753  -2.8700  -2.7813  -2.7707  -2.7707  -2.7610
    -2.7609  -2.7552  -2.7539  -2.7529  -2.7450  -2.7450  -2.7343  -2.7269
    -2.7236  -2.7236  -2.7191  -2.7090  -2.7039  -2.7018  -2.6796  -2.6689
    -2.6689  -2.6530  -2.6530  -2.6360  -2.6360  -2.6271  -2.6271  -2.6065
    -2.5937  -2.5937  -2.5884  -2.5884  -2.5545  -2.5521  -2.5521  -2.4941
    -2.4904  -2.4757  -2.4756  -2.4650  -2.4607  -2.4375  -2.4374  -2.4332
    -2.4204  -2.4204  -2.4087  -2.4087  -2.3918  -2.3918  -2.3647  -2.3647
    -2.3545  -2.3545  -2.3446  -2.3446  -2.3273  -2.3143  -2.2937  -2.2248
    -2.2232  -2.2039  -2.2039  -2.1920  -2.1920  -2.1418  -2.1418  -2.1266
    -2.1071  -2.0945  -2.0945  -2.0763  -2.0579  -2.0579  -2.0447  -2.0379
    -2.0067  -2.0067  -2.0041  -1.9961  -1.9961  -1.9894  -1.9894  -1.9701
    -1.9611  -1.9518  -1.9518  -1.9513  -1.9513  -1.9500  -1.9500  -1.9361
    -1.9161  -1.9161  -1.9127  -1.9073  -1.8943  -1.8943  -1.8899  -1.8899
    -1.8840  -1.8822  -1.8477  -1.8477  -1.8031  -1.7839  -1.7838  -1.7380
    -1.7380  -1.7379  -1.7270  -1.7270  -1.7131  -1.7131  -1.7055  -1.7055
    -1.6950  -1.6950  -1.6745  -1.6745  -1.6375  -1.6375  -1.6201  -1.5978
    -1.5978  -1.5582  -1.5582  -1.5077  -1.5077  -1.4867  -1.4625  -1.4604
    -1.4600  -1.4549  -1.4535  -1.4339  -1.4339  -1.4328  -1.4328  -1.4309
    -1.4307  -1.4300  -1.4288  -1.4275  -1.4006  -1.4006  -1.3676  -1.3665
    -1.3665  -1.3443  -1.3443  -1.3395  -1.3395  -1.3363  -1.3259  -1.2981
    -1.2980  -1.2734  -1.2723  -1.2723  -1.2520  -1.2407  -1.2407  -1.2113
    -1.2113  -1.2043  -1.2043  -1.1656  -1.1656  -1.1536  -1.1536  -1.1528
    -1.1528  -1.1264  -1.1264  -1.1123  -1.1049  -1.1049  -1.0929  -1.0929
    -1.0911  -1.0911  -1.0800  -1.0699  -1.0689  -1.0622  -1.0622  -1.0554
    -1.0513  -1.0513  -1.0350  -0.9931  -0.9916  -0.9909  -0.9892  -0.9865
    -0.9845  -0.9561  -0.9561  -0.9423  -0.9246  -0.9246  -0.9162  -0.9162
    -0.9079  -0.9012  -0.8989  -0.8629  -0.8629  -0.8515  -0.8515  -0.8312
    -0.8312  -0.8157  -0.7916  -0.7835  -0.7656  -0.7656  -0.7280  -0.7278
    -0.7246  -0.7245  -0.7242  -0.7181  -0.7168  -0.7168  -0.7125  -0.7101
    -0.6770  -0.6770  -0.6755  -0.6755  -0.6741  -0.6741  -0.6600  -0.6600
    -0.6316  -0.3705  -0.3621  -0.3171  -0.3171  -0.2861  -0.2274  -0.0748
    -0.0748  -0.0441   0.2407   0.2407   0.5817   0.5817   0.6252   0.6252
     0.6753   0.6753   0.8349   0.8349   0.9629   0.9646   1.0786   1.5737
     1.6151   1.6206   1.6566   1.6571   1.7951   1.7951   1.8504   1.8504
     2.0330   2.0330   2.3187   2.3451   2.3451   2.3660   2.8017   2.8017
     2.8241   2.8251   2.8410   2.8410   2.9066   2.9074   3.0665   3.1857
     3.1857   3.3730   3.3775   3.4817   3.5538   3.5538   3.8539   3.8539
     3.9109   3.9119   3.9119   4.0590   4.0590   4.0836   4.0836   4.3553
     4.3554   4.3931   4.3931   4.5069   4.5109   4.5746   4.5746   4.8626
     5.4565   5.4565   5.5404   5.5404   5.6635   5.6635   5.7359   5.7359
     5.7441   5.7523   5.7524   5.8561   5.8647   6.1397   6.1486   6.1486
     6.1521   6.1521   6.1628   6.1652   6.1676   6.1796   6.3494   6.3494
     6.3737   6.4786   6.4786

     the Fermi energy is     0.9067 ev

!    total energy              =   -7345.52831820 Ry
     Harris-Foulkes estimate   =   -7345.52831821 Ry
     estimated scf accuracy    <          6.8E-09 Ry

     The total energy is the sum of the following terms:

     one-electron contribution =  -48781.68089805 Ry
     hartree contribution      =   24935.90827520 Ry
     xc contribution           =   -3547.82813647 Ry
     ewald contribution        =   20048.07139698 Ry
     smearing contrib. (-TS)   =       0.00104415 Ry

     convergence has been achieved in  21 iterations

     Forces acting on atoms (Ry/au):


     negative rho (up, down):  1.968E+00 0.000E+00
     atom    1 type  1   force =    -0.00021895   -0.00021895    0.01845565
     atom    2 type  1   force =    -0.00000189   -0.00021966    0.01824099
     atom    3 type  1   force =     0.00000999   -0.00021806    0.01825753
     atom    4 type  1   force =    -0.00000841   -0.00000841    0.01806118
     atom    5 type  1   force =     0.00000230   -0.00000772    0.01804817
     atom    6 type  1   force =     0.00021859   -0.00000997    0.01825656
     atom    7 type  1   force =    -0.00021966   -0.00000189    0.01824099
     atom    8 type  1   force =    -0.00000041   -0.00000041    0.01803399
     atom    9 type  1   force =     0.00000773   -0.00000258    0.01804727
     atom   10 type  1   force =    -0.00000772    0.00000230    0.01804817
     atom   11 type  1   force =     0.00000019    0.00000019    0.01803626
     atom   12 type  1   force =     0.00021937    0.00000106    0.01824182
     atom   13 type  1   force =    -0.00021806    0.00000999    0.01825753
     atom   14 type  1   force =    -0.00000258    0.00000773    0.01804727
     atom   15 type  1   force =     0.00000787    0.00000787    0.01806208
     atom   16 type  1   force =    -0.00000997    0.00021859    0.01825656
     atom   17 type  1   force =     0.00000106    0.00021937    0.01824182
     atom   18 type  1   force =     0.00021909    0.00021909    0.01845395
     atom   19 type  1   force =    -0.00004242   -0.00037915   -0.00247251
     atom   20 type  1   force =     0.00000301   -0.00037655   -0.00246073
     atom   21 type  1   force =     0.00037691   -0.00037679   -0.00247230
     atom   22 type  1   force =    -0.00037915   -0.00004242   -0.00247251
     atom   23 type  1   force =    -0.00000088   -0.00003628   -0.00245833
     atom   24 type  1   force =     0.00004025   -0.00003943   -0.00247253
     atom   25 type  1   force =    -0.00003628   -0.00000088   -0.00245833
     atom   26 type  1   force =     0.00000044   -0.00000013   -0.00244286
     atom   27 type  1   force =     0.00037604   -0.00000322   -0.00245950
     atom   28 type  1   force =    -0.00037655    0.00000301   -0.00246073
     atom   29 type  1   force =    -0.00000013    0.00000044   -0.00244286
     atom   30 type  1   force =     0.00003657    0.00000106   -0.00245701
     atom   31 type  1   force =    -0.00003943    0.00004025   -0.00247253
     atom   32 type  1   force =     0.00000106    0.00003657   -0.00245701
     atom   33 type  1   force =     0.00037836    0.00004230   -0.00247177
     atom   34 type  1   force =    -0.00037679    0.00037691   -0.00247230
     atom   35 type  1   force =    -0.00000322    0.00037604   -0.00245950
     atom   36 type  1   force =     0.00004230    0.00037836   -0.00247177
     atom   37 type  1   force =    -0.00033784   -0.00033784    0.00145113
     atom   38 type  1   force =     0.00000185   -0.00033785    0.00147179
     atom   39 type  1   force =     0.00003664   -0.00033872    0.00147799
     atom   40 type  1   force =    -0.00033785    0.00000185    0.00147179
     atom   41 type  1   force =     0.00000301    0.00000301    0.00148759
     atom   42 type  1   force =     0.00003463    0.00000175    0.00149655
     atom   43 type  1   force =    -0.00033872    0.00003664    0.00147799
     atom   44 type  1   force =     0.00000175    0.00003463    0.00149655
     atom   45 type  1   force =     0.00003616    0.00003616    0.00150595
     atom   46 type  1   force =    -0.00003567   -0.00003567    0.00150597
     atom   47 type  1   force =    -0.00000130   -0.00003375    0.00149700
     atom   48 type  1   force =     0.00033800   -0.00003633    0.00147715
     atom   49 type  1   force =    -0.00003375   -0.00000130    0.00149700
     atom   50 type  1   force =    -0.00000233   -0.00000233    0.00148805
     atom   51 type  1   force =     0.00033680   -0.00000115    0.00147167
     atom   52 type  1   force =    -0.00003633    0.00033800    0.00147715
     atom   53 type  1   force =    -0.00000115    0.00033680    0.00147167
     atom   54 type  1   force =     0.00033722    0.00033722    0.00145105
     atom   55 type  1   force =    -0.00000239   -0.00018971   -0.01726910
     atom   56 type  1   force =    -0.00000252   -0.00019034   -0.01725367
     atom   57 type  1   force =     0.00018948   -0.00019007   -0.01744309
     atom   58 type  1   force =    -0.00018971   -0.00000239   -0.01726910
     atom   59 type  1   force =     0.00000198   -0.00000192   -0.01707923
     atom   60 type  1   force =     0.00000198   -0.00000284   -0.01709750
     atom   61 type  1   force =    -0.00000192    0.00000198   -0.01707923
     atom   62 type  1   force =    -0.00000276    0.00000204   -0.01706684
     atom   63 type  1   force =     0.00019112    0.00000256   -0.01725217
     atom   64 type  1   force =    -0.00019034   -0.00000252   -0.01725367
     atom   65 type  1   force =     0.00000204   -0.00000276   -0.01706684
     atom   66 type  1   force =     0.00000225   -0.00000141   -0.01708199
     atom   67 type  1   force =    -0.00000284    0.00000198   -0.01709750
     atom   68 type  1   force =    -0.00000141    0.00000225   -0.01708199
     atom   69 type  1   force =     0.00019025    0.00000257   -0.01726976
     atom   70 type  1   force =    -0.00019007    0.00018948   -0.01744309
     atom   71 type  1   force =     0.00000256    0.00019112   -0.01725217
     atom   72 type  1   force =     0.00000257    0.00019025   -0.01726976

     Total force =     0.106913     Total SCF correction =     0.000437

     BFGS Geometry Optimization

     number of scf cycles    =   1
     number of bfgs steps    =   0

     energy   new            =   -7345.5283182007 Ry

     new trust radius        =       0.0184582456 bohr
     new conv_thr            =       0.0000000100 Ry


ATOMIC_POSITIONS (angstrom)
Au      -0.000115863  -0.000115863   0.009766308
Au       4.253736927  -0.000116237   0.009652717
Au       8.507481138  -0.000115391   0.009661466
Au       2.126864514   2.126864514   0.009557563
Au       6.380608347   2.126864877   0.009550681
Au      10.634459775   2.126863687   0.009660956
Au      -0.000116237   4.253736927   0.009652717
Au       4.253737707   4.253737707   0.009543177
Au       8.507479946   4.253736561   0.009550202
Au       2.126864877   6.380608347   0.009550681
Au       6.380607227   6.380607227   0.009544378
Au      10.634460188   6.380607691   0.009653153
Au      -0.000115391   8.507481138   0.009661466
Au       4.253736561   8.507479946   0.009550202
Au       8.507480015   8.507480015   0.009558042
Au       2.126863687  10.634459775   0.009660956
Au       6.380607691  10.634460188   0.009653153
Au      10.634460038  10.634460038   0.009765410
Au       2.126846516  -0.000200640   2.125560566
Au       6.380608719  -0.000199262   2.125566801
Au      10.634543552  -0.000199388   2.125560676
Au      -0.000200640   2.126846516   2.125560566
Au       4.253737458   2.126849764   2.125568069
Au       8.507497151   2.126848095   2.125560557
Au       2.126849764   4.253737458   2.125568069
Au       6.380607362   4.253737860   2.125576258
Au      10.634543093   4.253736224   2.125567449
Au      -0.000199262   6.380608719   2.125566801
Au       4.253737860   6.380607362   2.125576258
Au       8.507495204   6.380607689   2.125568768
Au       2.126848095   8.507497151   2.125560557
Au       6.380607689   8.507495204   2.125568768
Au      10.634544321   8.507498239   2.125560961
Au      -0.000199388  10.634543552   2.125560676
Au       4.253736224  10.634543093   2.125567449
Au       8.507498239  10.634544321   2.125560961
Au      -0.000410678  -0.000410678   4.258668142
Au       4.253735567  -0.000409233   4.258672400
Au       8.507511454  -0.000412739   4.258686651
Au      -0.000409233   4.253735567   4.258672400
Au       4.253736660   4.253736660   4.258675036
Au       8.507507528   4.253736470   4.258691701
Au      -0.000412739   8.507511454   4.258686651
Au       4.253736470   8.507507528   4.258691701
Au       8.507510245   8.507510245   4.258707168
Au       2.126835307   2.126835307   4.258703841
Au       6.380599287   2.126837273   4.258691462
Au      10.634765193   2.126833048   4.258685251
Au       2.126837273   6.380599287   4.258691462
Au       6.380600174   6.380600174   4.258678143
Au      10.634762652   6.380601276   4.258674243
Au       2.126833048  10.634765193   4.258685251
Au       6.380601276  10.634762652   4.258674243
Au      10.634763832  10.634763832   4.258668575
Au       2.126861737  -0.000242008   6.364791564
Au       6.380602459  -0.000243144   6.364804018
Au      10.634595047  -0.000242823   6.364589818
Au      -0.000242008   2.126861737   6.364791564
Au       4.253734205   2.126864608   6.365006477
Au       8.507480718   2.126864120   6.364999672
Au       2.126864608   4.253734205   6.365006477
Au       6.380603281   4.253737098   6.365013513
Au      10.634593058   4.253735943   6.364809581
Au      -0.000243144   6.380602459   6.364804018
Au       4.253737098   6.380603281   6.365013513
Au       8.507479902   6.380604952   6.365007881
Au       2.126864120   8.507480718   6.364999672
Au       6.380604952   8.507479902   6.365007881
Au      10.634592596   8.507481979   6.364799797
Au      -0.000242823  10.634595047   6.364589818
Au       4.253735943  10.634593058   6.364809581
Au       8.507481979  10.634592596   6.364799797



     Writing output data file 001strucdevrelaxpbe.save
     Check: negative starting charge=   -1.945108
     NEW-OLD atomic charge density approx. for the potential
     Check: negative starting charge=   -1.943789

     negative rho (up, down):  1.967E+00 0.000E+00

     total cpu time spent up to now is     6447.0 secs

     Self-consistent Calculation

     iteration #  1     ecut=    50.00 Ry     beta=0.70
     Davidson diagonalization with overlap
     ethr =  1.00E-06,  avg # of iterations =  4.0

     Threshold (ethr) on eigenvalues was too large:
     Diagonalizing with lowered threshold

     Davidson diagonalization with overlap
     ethr =  8.77E-08,  avg # of iterations =  1.0

     negative rho (up, down):  1.967E+00 0.000E+00

     total cpu time spent up to now is     7168.4 secs

     total energy              =   -7345.53897111 Ry
     Harris-Foulkes estimate   =   -7345.53950174 Ry
     estimated scf accuracy    <       0.00071574 Ry

     iteration #  2     ecut=    50.00 Ry     beta=0.70
     Davidson diagonalization with overlap
     ethr =  9.04E-08,  avg # of iterations =  3.0

     negative rho (up, down):  1.967E+00 0.000E+00

     total cpu time spent up to now is     7486.5 secs

     total energy              =   -7345.53777929 Ry
     Harris-Foulkes estimate   =   -7345.54099206 Ry
     estimated scf accuracy    <       0.01542240 Ry

     iteration #  3     ecut=    50.00 Ry     beta=0.70
     Davidson diagonalization with overlap
     ethr =  9.04E-08,  avg # of iterations =  3.0

     negative rho (up, down):  1.967E+00 0.000E+00

     total cpu time spent up to now is     7792.8 secs

     total energy              =   -7345.53933432 Ry
     Harris-Foulkes estimate   =   -7345.53946624 Ry
     estimated scf accuracy    <       0.00041733 Ry

     iteration #  4     ecut=    50.00 Ry     beta=0.70
     Davidson diagonalization with overlap
     ethr =  5.27E-08,  avg # of iterations =  2.0

     negative rho (up, down):  1.967E+00 0.000E+00

     total cpu time spent up to now is     8006.7 secs

     total energy              =   -7345.53930538 Ry
     Harris-Foulkes estimate   =   -7345.53951320 Ry
     estimated scf accuracy    <       0.00173783 Ry

     iteration #  5     ecut=    50.00 Ry     beta=0.70
     Davidson diagonalization with overlap
     ethr =  5.27E-08,  avg # of iterations =  2.0

     negative rho (up, down):  1.967E+00 0.000E+00

     total cpu time spent up to now is     8215.3 secs

     total energy              =   -7345.53941282 Ry
     Harris-Foulkes estimate   =   -7345.53942013 Ry
     estimated scf accuracy    <       0.00003361 Ry

     iteration #  6     ecut=    50.00 Ry     beta=0.70
     Davidson diagonalization with overlap
     ethr =  4.24E-09,  avg # of iterations =  2.0

     negative rho (up, down):  1.967E+00 0.000E+00

     total cpu time spent up to now is     8432.5 secs

     total energy              =   -7345.53941614 Ry
     Harris-Foulkes estimate   =   -7345.53941765 Ry
     estimated scf accuracy    <       0.00000354 Ry

     iteration #  7     ecut=    50.00 Ry     beta=0.70
     Davidson diagonalization with overlap
     ethr =  4.47E-10,  avg # of iterations =  3.0

     negative rho (up, down):  1.967E+00 0.000E+00

     total cpu time spent up to now is     8704.3 secs

     total energy              =   -7345.53941622 Ry
     Harris-Foulkes estimate   =   -7345.53941839 Ry
     estimated scf accuracy    <       0.00001178 Ry

     iteration #  8     ecut=    50.00 Ry     beta=0.70
     Davidson diagonalization with overlap
     ethr =  4.47E-10,  avg # of iterations =  3.0

     negative rho (up, down):  1.967E+00 0.000E+00

     total cpu time spent up to now is     8923.0 secs

     total energy              =   -7345.53941718 Ry
     Harris-Foulkes estimate   =   -7345.53941751 Ry
     estimated scf accuracy    <       0.00000130 Ry

     iteration #  9     ecut=    50.00 Ry     beta=0.70
     Davidson diagonalization with overlap
     ethr =  1.64E-10,  avg # of iterations =  2.0

     negative rho (up, down):  1.967E+00 0.000E+00

     total cpu time spent up to now is     9128.0 secs

     total energy              =   -7345.53941735 Ry
     Harris-Foulkes estimate   =   -7345.53941743 Ry
     estimated scf accuracy    <       0.00000031 Ry

     iteration # 10     ecut=    50.00 Ry     beta=0.70
     Davidson diagonalization with overlap
     ethr =  3.86E-11,  avg # of iterations =  2.0

     negative rho (up, down):  1.967E+00 0.000E+00

     total cpu time spent up to now is     9335.8 secs

     total energy              =   -7345.53941739 Ry
     Harris-Foulkes estimate   =   -7345.53941742 Ry
     estimated scf accuracy    <       0.00000009 Ry

     iteration # 11     ecut=    50.00 Ry     beta=0.70
     Davidson diagonalization with overlap
     ethr =  1.18E-11,  avg # of iterations =  2.0

     negative rho (up, down):  1.967E+00 0.000E+00

     total cpu time spent up to now is     9547.0 secs

     End of self-consistent calculation

          k = 0.2500 0.2500 0.0833 (167653 PWs)   bands (ev):

    -6.8897  -6.3593  -6.3592  -5.9206  -5.5242  -5.4184  -5.4184  -5.1955
    -5.1955  -5.1063  -5.1063  -4.9699  -4.9561  -4.8481  -4.7585  -4.7547
    -4.7360  -4.7360  -4.5506  -4.5504  -4.5504  -4.5241  -4.5209  -4.5204
    -4.5161  -4.4692  -4.4692  -4.4603  -4.4603  -4.3933  -4.3677  -4.3677
    -4.3078  -4.3072  -4.3061  -4.2687  -4.2687  -4.2551  -4.2509  -4.2328
    -4.2328  -4.1962  -4.1646  -4.1624  -4.1621  -4.1562  -4.1562  -4.1357
    -4.1031  -4.1031  -4.0651  -4.0651  -4.0641  -4.0640  -4.0615  -4.0557
    -4.0231  -4.0231  -3.9674  -3.9673  -3.9367  -3.9122  -3.9052  -3.8968
    -3.8967  -3.8692  -3.8692  -3.8632  -3.8077  -3.8077  -3.8016  -3.8016
    -3.7204  -3.7204  -3.7001  -3.7001  -3.6620  -3.6589  -3.6495  -3.6248
    -3.6248  -3.5790  -3.5790  -3.5733  -3.5733  -3.5506  -3.5506  -3.4729
    -3.4672  -3.4672  -3.4591  -3.4456  -3.4429  -3.4194  -3.4194  -3.4192
    -3.4192  -3.3692  -3.3692  -3.3547  -3.3547  -3.3167  -3.3167  -3.2732
    -3.2721  -3.2721  -3.2126  -3.2126  -3.1773  -3.1603  -3.1603  -3.1518
    -3.1518  -3.1492  -3.1483  -3.1286  -3.1197  -3.0796  -3.0796  -3.0568
    -3.0257  -3.0257  -3.0245  -3.0231  -3.0222  -3.0191  -3.0191  -2.9757
    -2.9757  -2.9740  -2.9740  -2.9677  -2.9669  -2.9094  -2.9043  -2.9022
    -2.9022  -2.8858  -2.8858  -2.8660  -2.7827  -2.7809  -2.7809  -2.7584
    -2.7582  -2.7580  -2.7525  -2.7523  -2.7478  -2.7478  -2.7343  -2.7291
    -2.7291  -2.7277  -2.7255  -2.7112  -2.7077  -2.7064  -2.6733  -2.6685
    -2.6685  -2.6550  -2.6550  -2.6399  -2.6399  -2.6296  -2.6296  -2.6118
    -2.6026  -2.6026  -2.5954  -2.5954  -2.5605  -2.5605  -2.5526  -2.4980
    -2.4949  -2.4751  -2.4748  -2.4712  -2.4675  -2.4421  -2.4356  -2.4356
    -2.4233  -2.4233  -2.4091  -2.4091  -2.3892  -2.3892  -2.3679  -2.3679
    -2.3571  -2.3570  -2.3451  -2.3451  -2.3315  -2.3169  -2.3035  -2.2240
    -2.2226  -2.2129  -2.2129  -2.2039  -2.2039  -2.1444  -2.1444  -2.1247
    -2.1216  -2.0941  -2.0941  -2.0884  -2.0713  -2.0713  -2.0583  -2.0270
    -2.0089  -2.0089  -2.0003  -1.9999  -1.9999  -1.9970  -1.9970  -1.9715
    -1.9630  -1.9547  -1.9547  -1.9517  -1.9516  -1.9487  -1.9470  -1.9469
    -1.9126  -1.9126  -1.9088  -1.9042  -1.9025  -1.9025  -1.8911  -1.8911
    -1.8906  -1.8887  -1.8533  -1.8533  -1.7958  -1.7734  -1.7733  -1.7500
    -1.7366  -1.7366  -1.7179  -1.7179  -1.7118  -1.7118  -1.7037  -1.7037
    -1.7026  -1.7026  -1.6734  -1.6734  -1.6362  -1.6362  -1.6250  -1.5987
    -1.5987  -1.5564  -1.5564  -1.5027  -1.5027  -1.4824  -1.4679  -1.4589
    -1.4569  -1.4485  -1.4473  -1.4325  -1.4324  -1.4309  -1.4309  -1.4288
    -1.4288  -1.4276  -1.4266  -1.4253  -1.4017  -1.4017  -1.3634  -1.3634
    -1.3630  -1.3463  -1.3463  -1.3423  -1.3375  -1.3375  -1.3207  -1.2942
    -1.2942  -1.2709  -1.2674  -1.2674  -1.2496  -1.2363  -1.2363  -1.2033
    -1.2033  -1.2017  -1.2017  -1.1602  -1.1602  -1.1505  -1.1505  -1.1497
    -1.1497  -1.1173  -1.1173  -1.1072  -1.1028  -1.1028  -1.0890  -1.0890
    -1.0884  -1.0884  -1.0750  -1.0615  -1.0604  -1.0582  -1.0582  -1.0531
    -1.0458  -1.0458  -1.0341  -0.9897  -0.9876  -0.9864  -0.9841  -0.9835
    -0.9818  -0.9536  -0.9536  -0.9405  -0.9189  -0.9189  -0.9123  -0.9123
    -0.9002  -0.8981  -0.8959  -0.8573  -0.8573  -0.8479  -0.8479  -0.8241
    -0.8241  -0.8111  -0.7832  -0.7759  -0.7615  -0.7615  -0.7203  -0.7201
    -0.7200  -0.7196  -0.7187  -0.7159  -0.7108  -0.7074  -0.7074  -0.7029
    -0.6700  -0.6700  -0.6687  -0.6687  -0.6674  -0.6674  -0.6535  -0.6535
    -0.6255  -0.3709  -0.3633  -0.3094  -0.3094  -0.2840  -0.2320  -0.0731
    -0.0731  -0.0347   0.2465   0.2465   0.5969   0.5969   0.6252   0.6252
     0.6762   0.6762   0.8497   0.8497   0.9628   0.9642   1.0927   1.5849
     1.6118   1.6167   1.6566   1.6570   1.8112   1.8112   1.8719   1.8719
     2.0355   2.0355   2.3357   2.3626   2.3626   2.3645   2.8204   2.8204
     2.8252   2.8261   2.8414   2.8414   2.9045   2.9052   3.0825   3.2023
     3.2023   3.3858   3.3900   3.4813   3.5731   3.5731   3.8725   3.8725
     3.9139   3.9139   3.9228   4.0577   4.0577   4.0992   4.0992   4.3571
     4.3571   4.3925   4.3925   4.5220   4.5256   4.5887   4.5887   4.8774
     5.4580   5.4580   5.5544   5.5544   5.6771   5.6771   5.7372   5.7372
     5.7531   5.7531   5.8028   5.8600   5.8848   5.9682   6.1688   6.1688
     6.1719   6.1742   6.1820   6.1971   6.2089   6.2089   6.3594   6.3594
     6.3983   6.3984   6.4863

          k = 0.2500 0.2500-0.2500 (167588 PWs)   bands (ev):

    -6.8897  -6.3593  -6.3592  -5.9206  -5.5242  -5.4184  -5.4184  -5.1955
    -5.1955  -5.1063  -5.1063  -4.9699  -4.9561  -4.8481  -4.7585  -4.7547
    -4.7360  -4.7360  -4.5506  -4.5504  -4.5504  -4.5241  -4.5209  -4.5204
    -4.5161  -4.4692  -4.4692  -4.4603  -4.4603  -4.3933  -4.3677  -4.3677
    -4.3078  -4.3073  -4.3061  -4.2687  -4.2687  -4.2551  -4.2509  -4.2328
    -4.2328  -4.1962  -4.1646  -4.1624  -4.1621  -4.1562  -4.1562  -4.1357
    -4.1031  -4.1031  -4.0651  -4.0651  -4.0641  -4.0640  -4.0615  -4.0557
    -4.0231  -4.0231  -3.9674  -3.9673  -3.9368  -3.9121  -3.9052  -3.8968
    -3.8967  -3.8692  -3.8692  -3.8632  -3.8077  -3.8077  -3.8016  -3.8016
    -3.7204  -3.7204  -3.7001  -3.7001  -3.6620  -3.6589  -3.6495  -3.6248
    -3.6248  -3.5790  -3.5790  -3.5733  -3.5733  -3.5506  -3.5506  -3.4729
    -3.4672  -3.4672  -3.4591  -3.4456  -3.4429  -3.4194  -3.4194  -3.4192
    -3.4192  -3.3691  -3.3691  -3.3547  -3.3547  -3.3167  -3.3167  -3.2732
    -3.2721  -3.2721  -3.2126  -3.2125  -3.1773  -3.1603  -3.1603  -3.1518
    -3.1518  -3.1492  -3.1483  -3.1286  -3.1197  -3.0796  -3.0796  -3.0568
    -3.0257  -3.0257  -3.0245  -3.0231  -3.0222  -3.0191  -3.0191  -2.9757
    -2.9757  -2.9740  -2.9740  -2.9677  -2.9669  -2.9094  -2.9043  -2.9022
    -2.9022  -2.8858  -2.8858  -2.8660  -2.7827  -2.7809  -2.7809  -2.7583
    -2.7582  -2.7580  -2.7525  -2.7523  -2.7478  -2.7478  -2.7344  -2.7291
    -2.7291  -2.7277  -2.7255  -2.7112  -2.7077  -2.7064  -2.6733  -2.6685
    -2.6685  -2.6550  -2.6550  -2.6399  -2.6399  -2.6296  -2.6296  -2.6118
    -2.6026  -2.6026  -2.5954  -2.5954  -2.5605  -2.5605  -2.5526  -2.4980
    -2.4949  -2.4751  -2.4748  -2.4712  -2.4675  -2.4421  -2.4356  -2.4356
    -2.4233  -2.4233  -2.4091  -2.4091  -2.3892  -2.3892  -2.3679  -2.3679
    -2.3571  -2.3571  -2.3451  -2.3451  -2.3315  -2.3169  -2.3035  -2.2240
    -2.2226  -2.2129  -2.2129  -2.2039  -2.2039  -2.1444  -2.1444  -2.1247
    -2.1217  -2.0941  -2.0941  -2.0884  -2.0713  -2.0713  -2.0583  -2.0270
    -2.0089  -2.0089  -2.0003  -1.9999  -1.9999  -1.9970  -1.9970  -1.9715
    -1.9630  -1.9547  -1.9547  -1.9517  -1.9516  -1.9487  -1.9470  -1.9469
    -1.9126  -1.9126  -1.9088  -1.9042  -1.9025  -1.9025  -1.8911  -1.8911
    -1.8906  -1.8887  -1.8533  -1.8533  -1.7958  -1.7734  -1.7733  -1.7500
    -1.7366  -1.7366  -1.7179  -1.7179  -1.7117  -1.7117  -1.7037  -1.7037
    -1.7026  -1.7026  -1.6734  -1.6734  -1.6362  -1.6362  -1.6250  -1.5987
    -1.5987  -1.5564  -1.5564  -1.5027  -1.5027  -1.4824  -1.4679  -1.4589
    -1.4569  -1.4485  -1.4473  -1.4324  -1.4324  -1.4309  -1.4309  -1.4288
    -1.4288  -1.4276  -1.4266  -1.4253  -1.4017  -1.4017  -1.3634  -1.3634
    -1.3630  -1.3463  -1.3463  -1.3423  -1.3375  -1.3375  -1.3207  -1.2942
    -1.2942  -1.2709  -1.2674  -1.2674  -1.2496  -1.2363  -1.2363  -1.2033
    -1.2033  -1.2017  -1.2017  -1.1602  -1.1602  -1.1505  -1.1505  -1.1497
    -1.1497  -1.1173  -1.1173  -1.1072  -1.1028  -1.1028  -1.0890  -1.0890
    -1.0884  -1.0884  -1.0751  -1.0615  -1.0604  -1.0582  -1.0582  -1.0531
    -1.0458  -1.0458  -1.0341  -0.9897  -0.9876  -0.9864  -0.9841  -0.9835
    -0.9818  -0.9536  -0.9536  -0.9405  -0.9189  -0.9189  -0.9123  -0.9123
    -0.9002  -0.8981  -0.8959  -0.8573  -0.8573  -0.8479  -0.8479  -0.8241
    -0.8241  -0.8111  -0.7832  -0.7758  -0.7615  -0.7615  -0.7203  -0.7201
    -0.7200  -0.7196  -0.7187  -0.7159  -0.7108  -0.7074  -0.7074  -0.7029
    -0.6700  -0.6700  -0.6687  -0.6687  -0.6674  -0.6674  -0.6535  -0.6535
    -0.6254  -0.3709  -0.3633  -0.3094  -0.3094  -0.2840  -0.2320  -0.0731
    -0.0731  -0.0347   0.2465   0.2465   0.5969   0.5969   0.6252   0.6252
     0.6762   0.6762   0.8497   0.8497   0.9628   0.9642   1.0927   1.5849
     1.6118   1.6167   1.6566   1.6570   1.8112   1.8112   1.8719   1.8719
     2.0355   2.0355   2.3357   2.3626   2.3626   2.3645   2.8204   2.8204
     2.8252   2.8261   2.8414   2.8414   2.9045   2.9052   3.0825   3.2024
     3.2024   3.3858   3.3901   3.4813   3.5731   3.5731   3.8725   3.8725
     3.9139   3.9139   3.9228   4.0577   4.0577   4.0992   4.0992   4.3571
     4.3571   4.3925   4.3925   4.5220   4.5256   4.5887   4.5887   4.8775
     5.4580   5.4580   5.5546   5.5546   5.6771   5.6771   5.7372   5.7372
     5.7477   5.7531   5.7531   5.8592   5.8848   6.1418   6.1536   6.1537
     6.1688   6.1688   6.1719   6.1742   6.1820   6.1971   6.3598   6.3598
     6.3789   6.4841   6.4841

          k =-0.2500 0.2500-0.0833 (167653 PWs)   bands (ev):

    -6.8897  -6.3593  -6.3592  -5.9206  -5.5242  -5.4184  -5.4184  -5.1955
    -5.1955  -5.1063  -5.1063  -4.9699  -4.9561  -4.8481  -4.7585  -4.7547
    -4.7360  -4.7360  -4.5506  -4.5504  -4.5504  -4.5241  -4.5209  -4.5204
    -4.5161  -4.4692  -4.4692  -4.4603  -4.4603  -4.3933  -4.3677  -4.3677
    -4.3079  -4.3072  -4.3061  -4.2687  -4.2687  -4.2551  -4.2509  -4.2328
    -4.2328  -4.1962  -4.1646  -4.1623  -4.1622  -4.1563  -4.1562  -4.1357
    -4.1031  -4.1031  -4.0651  -4.0651  -4.0641  -4.0640  -4.0615  -4.0557
    -4.0231  -4.0231  -3.9674  -3.9673  -3.9368  -3.9121  -3.9052  -3.8968
    -3.8967  -3.8692  -3.8692  -3.8632  -3.8077  -3.8077  -3.8016  -3.8016
    -3.7204  -3.7204  -3.7001  -3.7001  -3.6620  -3.6589  -3.6495  -3.6248
    -3.6248  -3.5790  -3.5790  -3.5733  -3.5733  -3.5506  -3.5506  -3.4729
    -3.4672  -3.4672  -3.4591  -3.4456  -3.4429  -3.4194  -3.4194  -3.4192
    -3.4192  -3.3692  -3.3692  -3.3547  -3.3547  -3.3167  -3.3167  -3.2732
    -3.2721  -3.2721  -3.2126  -3.2126  -3.1773  -3.1603  -3.1603  -3.1518
    -3.1518  -3.1492  -3.1483  -3.1286  -3.1197  -3.0796  -3.0796  -3.0568
    -3.0257  -3.0257  -3.0245  -3.0231  -3.0222  -3.0191  -3.0191  -2.9757
    -2.9757  -2.9740  -2.9740  -2.9677  -2.9669  -2.9094  -2.9043  -2.9022
    -2.9022  -2.8858  -2.8858  -2.8660  -2.7827  -2.7809  -2.7809  -2.7584
    -2.7582  -2.7580  -2.7525  -2.7523  -2.7478  -2.7478  -2.7343  -2.7291
    -2.7291  -2.7277  -2.7255  -2.7112  -2.7077  -2.7064  -2.6733  -2.6685
    -2.6685  -2.6550  -2.6550  -2.6399  -2.6399  -2.6296  -2.6296  -2.6118
    -2.6026  -2.6026  -2.5954  -2.5954  -2.5605  -2.5605  -2.5526  -2.4980
    -2.4949  -2.4751  -2.4748  -2.4712  -2.4675  -2.4421  -2.4356  -2.4356
    -2.4233  -2.4233  -2.4091  -2.4091  -2.3892  -2.3892  -2.3679  -2.3679
    -2.3571  -2.3570  -2.3451  -2.3451  -2.3315  -2.3169  -2.3035  -2.2240
    -2.2226  -2.2129  -2.2129  -2.2039  -2.2039  -2.1444  -2.1444  -2.1247
    -2.1216  -2.0941  -2.0941  -2.0884  -2.0713  -2.0713  -2.0583  -2.0270
    -2.0089  -2.0089  -2.0003  -1.9999  -1.9999  -1.9970  -1.9970  -1.9715
    -1.9630  -1.9547  -1.9547  -1.9517  -1.9517  -1.9487  -1.9470  -1.9469
    -1.9126  -1.9126  -1.9088  -1.9042  -1.9025  -1.9025  -1.8911  -1.8911
    -1.8906  -1.8887  -1.8533  -1.8533  -1.7958  -1.7734  -1.7733  -1.7500
    -1.7366  -1.7366  -1.7179  -1.7179  -1.7118  -1.7118  -1.7037  -1.7037
    -1.7026  -1.7026  -1.6734  -1.6734  -1.6362  -1.6362  -1.6250  -1.5987
    -1.5987  -1.5564  -1.5564  -1.5027  -1.5027  -1.4824  -1.4679  -1.4589
    -1.4569  -1.4485  -1.4473  -1.4324  -1.4324  -1.4309  -1.4309  -1.4288
    -1.4288  -1.4276  -1.4266  -1.4253  -1.4017  -1.4017  -1.3634  -1.3634
    -1.3630  -1.3463  -1.3463  -1.3423  -1.3375  -1.3375  -1.3207  -1.2942
    -1.2942  -1.2709  -1.2674  -1.2674  -1.2496  -1.2363  -1.2363  -1.2033
    -1.2033  -1.2017  -1.2017  -1.1602  -1.1602  -1.1505  -1.1505  -1.1497
    -1.1497  -1.1173  -1.1173  -1.1072  -1.1028  -1.1028  -1.0890  -1.0890
    -1.0884  -1.0884  -1.0750  -1.0615  -1.0604  -1.0582  -1.0582  -1.0531
    -1.0458  -1.0458  -1.0341  -0.9897  -0.9876  -0.9864  -0.9841  -0.9835
    -0.9818  -0.9536  -0.9536  -0.9405  -0.9189  -0.9189  -0.9123  -0.9123
    -0.9002  -0.8981  -0.8959  -0.8573  -0.8573  -0.8479  -0.8479  -0.8241
    -0.8241  -0.8111  -0.7832  -0.7759  -0.7615  -0.7615  -0.7203  -0.7201
    -0.7200  -0.7196  -0.7187  -0.7159  -0.7108  -0.7074  -0.7074  -0.7029
    -0.6700  -0.6700  -0.6687  -0.6687  -0.6674  -0.6674  -0.6535  -0.6535
    -0.6255  -0.3709  -0.3633  -0.3094  -0.3094  -0.2840  -0.2320  -0.0731
    -0.0731  -0.0347   0.2465   0.2465   0.5969   0.5969   0.6252   0.6252
     0.6762   0.6762   0.8497   0.8497   0.9628   0.9642   1.0927   1.5849
     1.6118   1.6167   1.6566   1.6570   1.8112   1.8112   1.8719   1.8719
     2.0355   2.0355   2.3357   2.3626   2.3626   2.3645   2.8204   2.8204
     2.8252   2.8261   2.8414   2.8414   2.9045   2.9052   3.0825   3.2023
     3.2023   3.3858   3.3900   3.4813   3.5731   3.5731   3.8725   3.8725
     3.9139   3.9139   3.9228   4.0577   4.0577   4.0992   4.0992   4.3571
     4.3571   4.3925   4.3925   4.5220   4.5256   4.5887   4.5887   4.8774
     5.4580   5.4580   5.5544   5.5544   5.6771   5.6771   5.7372   5.7372
     5.7531   5.7531   5.8028   5.8600   5.8848   5.9682   6.1688   6.1688
     6.1719   6.1742   6.1820   6.1971   6.2089   6.2089   6.3594   6.3594
     6.3983   6.3984   6.4863

          k = 0.2500 0.2500-0.0833 (167653 PWs)   bands (ev):

    -6.8897  -6.3593  -6.3592  -5.9206  -5.5242  -5.4184  -5.4184  -5.1955
    -5.1955  -5.1063  -5.1063  -4.9699  -4.9561  -4.8481  -4.7585  -4.7547
    -4.7360  -4.7360  -4.5506  -4.5504  -4.5504  -4.5241  -4.5209  -4.5204
    -4.5161  -4.4692  -4.4692  -4.4603  -4.4603  -4.3933  -4.3677  -4.3677
    -4.3078  -4.3072  -4.3061  -4.2687  -4.2687  -4.2551  -4.2509  -4.2328
    -4.2328  -4.1962  -4.1646  -4.1624  -4.1621  -4.1562  -4.1562  -4.1357
    -4.1031  -4.1031  -4.0651  -4.0651  -4.0641  -4.0640  -4.0615  -4.0557
    -4.0231  -4.0231  -3.9674  -3.9673  -3.9367  -3.9122  -3.9052  -3.8968
    -3.8967  -3.8692  -3.8692  -3.8632  -3.8077  -3.8077  -3.8016  -3.8016
    -3.7204  -3.7204  -3.7001  -3.7001  -3.6620  -3.6589  -3.6495  -3.6248
    -3.6248  -3.5790  -3.5790  -3.5733  -3.5733  -3.5506  -3.5506  -3.4729
    -3.4672  -3.4672  -3.4591  -3.4456  -3.4429  -3.4194  -3.4194  -3.4192
    -3.4192  -3.3692  -3.3692  -3.3547  -3.3547  -3.3167  -3.3167  -3.2732
    -3.2721  -3.2721  -3.2126  -3.2126  -3.1773  -3.1603  -3.1603  -3.1518
    -3.1518  -3.1492  -3.1483  -3.1286  -3.1197  -3.0796  -3.0796  -3.0568
    -3.0257  -3.0257  -3.0245  -3.0231  -3.0222  -3.0191  -3.0191  -2.9757
    -2.9757  -2.9740  -2.9740  -2.9677  -2.9669  -2.9094  -2.9043  -2.9022
    -2.9022  -2.8858  -2.8858  -2.8660  -2.7827  -2.7809  -2.7809  -2.7584
    -2.7582  -2.7580  -2.7525  -2.7523  -2.7478  -2.7478  -2.7343  -2.7291
    -2.7291  -2.7277  -2.7255  -2.7112  -2.7077  -2.7064  -2.6733  -2.6685
    -2.6685  -2.6550  -2.6550  -2.6399  -2.6399  -2.6296  -2.6296  -2.6118
    -2.6026  -2.6026  -2.5954  -2.5954  -2.5605  -2.5605  -2.5526  -2.4980
    -2.4949  -2.4751  -2.4748  -2.4712  -2.4675  -2.4421  -2.4356  -2.4356
    -2.4233  -2.4233  -2.4091  -2.4091  -2.3892  -2.3892  -2.3679  -2.3679
    -2.3571  -2.3570  -2.3451  -2.3451  -2.3315  -2.3169  -2.3035  -2.2240
    -2.2226  -2.2129  -2.2129  -2.2039  -2.2039  -2.1444  -2.1444  -2.1247
    -2.1216  -2.0941  -2.0941  -2.0884  -2.0713  -2.0713  -2.0583  -2.0270
    -2.0089  -2.0089  -2.0003  -1.9999  -1.9999  -1.9970  -1.9970  -1.9715
    -1.9630  -1.9547  -1.9547  -1.9517  -1.9516  -1.9487  -1.9470  -1.9469
    -1.9126  -1.9126  -1.9088  -1.9042  -1.9025  -1.9025  -1.8911  -1.8911
    -1.8906  -1.8887  -1.8533  -1.8533  -1.7958  -1.7734  -1.7733  -1.7500
    -1.7366  -1.7366  -1.7179  -1.7179  -1.7118  -1.7118  -1.7037  -1.7037
    -1.7026  -1.7026  -1.6734  -1.6734  -1.6362  -1.6362  -1.6250  -1.5987
    -1.5987  -1.5564  -1.5564  -1.5027  -1.5027  -1.4824  -1.4679  -1.4589
    -1.4569  -1.4485  -1.4473  -1.4325  -1.4324  -1.4309  -1.4309  -1.4288
    -1.4288  -1.4276  -1.4266  -1.4253  -1.4017  -1.4017  -1.3634  -1.3634
    -1.3630  -1.3463  -1.3463  -1.3423  -1.3375  -1.3375  -1.3207  -1.2942
    -1.2942  -1.2709  -1.2674  -1.2674  -1.2496  -1.2363  -1.2363  -1.2033
    -1.2033  -1.2017  -1.2017  -1.1602  -1.1602  -1.1505  -1.1505  -1.1497
    -1.1497  -1.1173  -1.1173  -1.1072  -1.1028  -1.1028  -1.0890  -1.0890
    -1.0884  -1.0884  -1.0750  -1.0615  -1.0604  -1.0582  -1.0582  -1.0531
    -1.0458  -1.0458  -1.0341  -0.9897  -0.9876  -0.9864  -0.9841  -0.9835
    -0.9818  -0.9536  -0.9536  -0.9405  -0.9189  -0.9189  -0.9123  -0.9123
    -0.9002  -0.8981  -0.8959  -0.8573  -0.8573  -0.8479  -0.8479  -0.8241
    -0.8241  -0.8111  -0.7832  -0.7759  -0.7615  -0.7615  -0.7203  -0.7201
    -0.7200  -0.7196  -0.7187  -0.7159  -0.7108  -0.7074  -0.7074  -0.7029
    -0.6700  -0.6700  -0.6687  -0.6687  -0.6674  -0.6674  -0.6535  -0.6535
    -0.6255  -0.3709  -0.3633  -0.3094  -0.3094  -0.2840  -0.2320  -0.0731
    -0.0731  -0.0347   0.2465   0.2465   0.5969   0.5969   0.6252   0.6252
     0.6762   0.6762   0.8497   0.8497   0.9628   0.9642   1.0927   1.5849
     1.6118   1.6167   1.6566   1.6570   1.8112   1.8112   1.8719   1.8719
     2.0355   2.0355   2.3357   2.3626   2.3626   2.3645   2.8204   2.8204
     2.8252   2.8261   2.8414   2.8414   2.9045   2.9052   3.0825   3.2023
     3.2023   3.3858   3.3900   3.4813   3.5731   3.5731   3.8725   3.8725
     3.9139   3.9139   3.9228   4.0577   4.0577   4.0992   4.0992   4.3571
     4.3571   4.3925   4.3925   4.5220   4.5256   4.5887   4.5887   4.8774
     5.4580   5.4580   5.5544   5.5544   5.6771   5.6771   5.7372   5.7372
     5.7531   5.7531   5.8028   5.8600   5.8848   5.9682   6.1688   6.1688
     6.1719   6.1742   6.1820   6.1971   6.2089   6.2089   6.3594   6.3594
     6.3983   6.3984   6.4863

          k =-0.2500 0.2500 0.2500 (167588 PWs)   bands (ev):

    -6.8897  -6.3593  -6.3592  -5.9206  -5.5242  -5.4184  -5.4184  -5.1955
    -5.1955  -5.1063  -5.1063  -4.9699  -4.9561  -4.8481  -4.7585  -4.7547
    -4.7360  -4.7360  -4.5506  -4.5504  -4.5504  -4.5241  -4.5209  -4.5204
    -4.5161  -4.4692  -4.4692  -4.4603  -4.4603  -4.3933  -4.3677  -4.3677
    -4.3079  -4.3072  -4.3061  -4.2687  -4.2687  -4.2551  -4.2509  -4.2328
    -4.2328  -4.1962  -4.1646  -4.1623  -4.1622  -4.1563  -4.1562  -4.1357
    -4.1031  -4.1031  -4.0651  -4.0651  -4.0641  -4.0640  -4.0615  -4.0557
    -4.0231  -4.0231  -3.9674  -3.9673  -3.9368  -3.9121  -3.9052  -3.8968
    -3.8967  -3.8692  -3.8692  -3.8632  -3.8077  -3.8077  -3.8016  -3.8016
    -3.7204  -3.7204  -3.7001  -3.7001  -3.6620  -3.6589  -3.6495  -3.6248
    -3.6248  -3.5790  -3.5790  -3.5733  -3.5733  -3.5506  -3.5506  -3.4729
    -3.4672  -3.4672  -3.4591  -3.4456  -3.4429  -3.4194  -3.4194  -3.4192
    -3.4192  -3.3691  -3.3691  -3.3547  -3.3547  -3.3167  -3.3167  -3.2732
    -3.2721  -3.2721  -3.2126  -3.2125  -3.1773  -3.1603  -3.1603  -3.1518
    -3.1518  -3.1492  -3.1483  -3.1286  -3.1197  -3.0796  -3.0796  -3.0568
    -3.0257  -3.0257  -3.0245  -3.0231  -3.0222  -3.0191  -3.0191  -2.9757
    -2.9757  -2.9740  -2.9740  -2.9677  -2.9669  -2.9094  -2.9043  -2.9022
    -2.9022  -2.8858  -2.8858  -2.8660  -2.7827  -2.7809  -2.7809  -2.7584
    -2.7582  -2.7580  -2.7525  -2.7523  -2.7478  -2.7478  -2.7344  -2.7291
    -2.7291  -2.7277  -2.7255  -2.7112  -2.7077  -2.7064  -2.6733  -2.6685
    -2.6685  -2.6550  -2.6550  -2.6399  -2.6399  -2.6296  -2.6296  -2.6118
    -2.6026  -2.6026  -2.5954  -2.5954  -2.5605  -2.5605  -2.5526  -2.4980
    -2.4949  -2.4751  -2.4748  -2.4712  -2.4675  -2.4421  -2.4356  -2.4356
    -2.4233  -2.4233  -2.4091  -2.4091  -2.3892  -2.3892  -2.3679  -2.3679
    -2.3571  -2.3571  -2.3451  -2.3451  -2.3315  -2.3169  -2.3035  -2.2240
    -2.2226  -2.2129  -2.2129  -2.2039  -2.2039  -2.1444  -2.1444  -2.1247
    -2.1217  -2.0941  -2.0941  -2.0884  -2.0713  -2.0713  -2.0583  -2.0270
    -2.0089  -2.0089  -2.0003  -1.9999  -1.9999  -1.9970  -1.9970  -1.9715
    -1.9630  -1.9547  -1.9547  -1.9517  -1.9517  -1.9487  -1.9470  -1.9469
    -1.9126  -1.9126  -1.9088  -1.9042  -1.9025  -1.9025  -1.8911  -1.8911
    -1.8906  -1.8887  -1.8533  -1.8533  -1.7958  -1.7734  -1.7733  -1.7500
    -1.7366  -1.7366  -1.7179  -1.7179  -1.7117  -1.7117  -1.7037  -1.7037
    -1.7026  -1.7026  -1.6734  -1.6734  -1.6362  -1.6362  -1.6250  -1.5987
    -1.5987  -1.5564  -1.5564  -1.5027  -1.5027  -1.4824  -1.4679  -1.4589
    -1.4569  -1.4485  -1.4473  -1.4324  -1.4324  -1.4309  -1.4309  -1.4288
    -1.4288  -1.4276  -1.4266  -1.4253  -1.4017  -1.4017  -1.3634  -1.3634
    -1.3630  -1.3463  -1.3463  -1.3423  -1.3375  -1.3375  -1.3207  -1.2942
    -1.2942  -1.2709  -1.2674  -1.2674  -1.2496  -1.2363  -1.2363  -1.2033
    -1.2033  -1.2017  -1.2017  -1.1602  -1.1602  -1.1505  -1.1505  -1.1497
    -1.1497  -1.1173  -1.1173  -1.1072  -1.1028  -1.1028  -1.0890  -1.0890
    -1.0884  -1.0884  -1.0751  -1.0615  -1.0604  -1.0582  -1.0582  -1.0531
    -1.0458  -1.0458  -1.0341  -0.9897  -0.9876  -0.9864  -0.9841  -0.9835
    -0.9818  -0.9536  -0.9536  -0.9405  -0.9189  -0.9189  -0.9123  -0.9123
    -0.9002  -0.8981  -0.8959  -0.8573  -0.8573  -0.8479  -0.8479  -0.8241
    -0.8241  -0.8111  -0.7832  -0.7758  -0.7615  -0.7615  -0.7203  -0.7201
    -0.7200  -0.7196  -0.7187  -0.7159  -0.7108  -0.7074  -0.7074  -0.7029
    -0.6700  -0.6700  -0.6687  -0.6687  -0.6674  -0.6674  -0.6535  -0.6535
    -0.6254  -0.3709  -0.3633  -0.3094  -0.3094  -0.2840  -0.2320  -0.0731
    -0.0731  -0.0347   0.2465   0.2465   0.5969   0.5969   0.6252   0.6252
     0.6762   0.6762   0.8497   0.8497   0.9628   0.9643   1.0927   1.5849
     1.6118   1.6167   1.6566   1.6570   1.8112   1.8112   1.8719   1.8719
     2.0355   2.0355   2.3357   2.3626   2.3626   2.3645   2.8204   2.8204
     2.8252   2.8261   2.8414   2.8414   2.9045   2.9052   3.0825   3.2024
     3.2024   3.3858   3.3901   3.4813   3.5731   3.5731   3.8725   3.8725
     3.9139   3.9139   3.9228   4.0577   4.0577   4.0992   4.0992   4.3571
     4.3571   4.3925   4.3925   4.5220   4.5256   4.5887   4.5887   4.8775
[...]
    -3.0808  -3.0615  -3.0509  -3.0107  -2.9769  -2.9501  -2.9331  -2.9331
    -2.9148  -2.9148  -2.9075  -2.8677  -2.8677  -2.8450  -2.8440  -2.8440
    -2.8418  -2.8418  -2.8413  -2.8413  -2.8372  -2.8028  -2.8028  -2.7809
    -2.7809  -2.7765  -2.7758  -2.7580  -2.7580  -2.7566  -2.7541  -2.7541
    -2.7477  -2.7052  -2.7052  -2.6761  -2.6631  -2.6631  -2.6505  -2.6500
    -2.6127  -2.5724  -2.5724  -2.5489  -2.5489  -2.5451  -2.5317  -2.5315
    -2.4428  -2.4407  -2.4407  -2.4125  -2.4125  -2.4060  -2.4045  -2.4045
    -2.3904  -2.3870  -2.3870  -2.3849  -2.3849  -2.3706  -2.3706  -2.3635
    -2.3635  -2.3434  -2.3434  -2.3252  -2.3250  -2.3174  -2.3165  -2.2574
    -2.2574  -2.2466  -2.1528  -2.1528  -2.1395  -2.1223  -2.1223  -2.1038
    -2.1038  -2.1007  -2.1007  -2.0956  -2.0321  -2.0321  -2.0315  -2.0315
    -2.0299  -2.0297  -2.0097  -2.0081  -1.9944  -1.9944  -1.9792  -1.9792
    -1.9711  -1.9711  -1.9420  -1.9294  -1.9073  -1.9073  -1.8990  -1.8990
    -1.8957  -1.8711  -1.8707  -1.8541  -1.8541  -1.8262  -1.8059  -1.8059
    -1.7267  -1.7267  -1.7251  -1.7251  -1.6958  -1.6958  -1.6708  -1.6708
    -1.6644  -1.6644  -1.6394  -1.6272  -1.6272  -1.6259  -1.6259  -1.6181
    -1.6181  -1.6155  -1.5066  -1.5066  -1.4646  -1.4646  -1.4598  -1.4598
    -1.4454  -1.4454  -1.4305  -1.4283  -1.4280  -1.4232  -1.4232  -1.4226
    -1.4225  -1.4090  -1.4090  -1.4030  -1.4030  -1.3978  -1.3769  -1.3769
    -1.3389  -1.3354  -1.3305  -1.3305  -1.3106  -1.3047  -1.3047  -1.2935
    -1.2928  -1.2927  -1.2394  -1.2248  -1.2248  -1.2186  -1.2186  -1.1851
    -1.1851  -1.1401  -1.1401  -1.1158  -1.1157  -1.1003  -1.1003  -1.0983
    -1.0983  -1.0974  -1.0974  -1.0766  -1.0766  -1.0663  -1.0624  -1.0566
    -1.0430  -1.0414  -1.0414  -1.0264  -1.0264  -1.0114  -1.0114  -0.9941
    -0.9941  -0.9512  -0.9507  -0.9479  -0.9479  -0.9435  -0.9429  -0.9378
    -0.9372  -0.9363  -0.9066  -0.9066  -0.8654  -0.8654  -0.8293  -0.8293
    -0.8234  -0.8234  -0.8141  -0.8137  -0.7640  -0.7640  -0.7505  -0.7497
    -0.7330  -0.7310  -0.7214  -0.7214  -0.7050  -0.7050  -0.6573  -0.6571
    -0.6501  -0.6237  -0.6232  -0.5756  -0.5756  -0.5699  -0.5571  -0.5571
    -0.5508  -0.5508  -0.5490  -0.5490  -0.5356  -0.5355  -0.5187  -0.5176
    -0.5176  -0.3688  -0.3677  -0.2936  -0.2928  -0.1631  -0.1631  -0.0870
    -0.0870   0.1223   0.4154   0.4154   0.5832   0.5832   0.7581   0.7581
     0.8442   0.8442   0.8946   0.8947   1.0680   1.0680   1.3746   1.5867
     1.5873   1.6024   1.6024   1.7138   2.1437   2.1437   2.1864   2.1864
     2.1978   2.1978   2.2587   2.6145   2.6145   2.6964   2.7881   2.7881
     2.7938   2.7939   2.9195   2.9197   3.2397   3.2397   3.4300   3.5230
     3.5567   3.5576   3.5699   3.5699   3.8637   3.8637   3.8937   3.8937
     4.0935   4.0935   4.1278   4.2968   4.2968   4.2985   4.2985   4.4377
     4.4377   4.4646   4.4648   4.7438   4.7444   4.8491   4.8491   5.1974
     5.5182   5.5182   5.7040   5.7040   5.8335   5.8414   5.8489   5.8489
     5.8548   5.8548   5.9819   5.9819   6.0165   6.2772   6.2772   6.2999
     6.3005   6.3713   6.4503   6.4503   6.5327   6.5327   6.5641   6.5641
     6.6224   6.6224   6.7174

          k =-0.2500 0.2500 0.2500 (167588 PWs)   bands (ev):

    -7.2695  -6.7365  -6.7365  -6.2907  -5.7897  -5.7897  -5.7539  -5.5516
    -5.5516  -5.3567  -5.3567  -5.2915  -5.2452  -5.1595  -5.0763  -5.0755
    -5.0333  -5.0333  -4.8816  -4.8816  -4.8692  -4.8692  -4.8450  -4.8437
    -4.7824  -4.7627  -4.7626  -4.7434  -4.7434  -4.6953  -4.6953  -4.6635
    -4.6067  -4.6066  -4.5554  -4.5549  -4.5508  -4.5508  -4.5058  -4.5058
    -4.4607  -4.4607  -4.4337  -4.4337  -4.4218  -4.4179  -4.3848  -4.3784
    -4.3609  -4.3597  -4.3540  -4.3540  -4.3486  -4.3486  -4.3324  -4.3324
    -4.2391  -4.2391  -4.1917  -4.1917  -4.1573  -4.1523  -4.1510  -4.1199
    -4.1199  -4.1181  -4.1181  -4.1011  -4.1011  -4.0451  -4.0451  -4.0302
    -3.9848  -3.9848  -3.9602  -3.9602  -3.9403  -3.8923  -3.8923  -3.8464
    -3.8464  -3.8195  -3.8176  -3.7851  -3.7851  -3.7180  -3.7180  -3.7146
    -3.7120  -3.7058  -3.7058  -3.6998  -3.6994  -3.6911  -3.6911  -3.6570
    -3.6570  -3.6230  -3.6230  -3.5507  -3.5507  -3.5455  -3.5455  -3.5330
    -3.5330  -3.4121  -3.4121  -3.3759  -3.3759  -3.3678  -3.3678  -3.3312
    -3.3302  -3.3285  -3.3275  -3.3161  -3.2993  -3.2748  -3.2748  -3.2708
    -3.2708  -3.1816  -3.1816  -3.1804  -3.1727  -3.1727  -3.1623  -3.1623
    -3.1320  -3.1320  -3.1305  -3.1305  -3.1296  -3.1296  -3.1243  -3.0827
    -3.0808  -3.0615  -3.0509  -3.0107  -2.9769  -2.9501  -2.9331  -2.9331
    -2.9148  -2.9148  -2.9075  -2.8677  -2.8677  -2.8450  -2.8440  -2.8440
    -2.8418  -2.8418  -2.8413  -2.8413  -2.8372  -2.8028  -2.8028  -2.7809
    -2.7809  -2.7765  -2.7758  -2.7580  -2.7580  -2.7566  -2.7541  -2.7541
    -2.7477  -2.7052  -2.7052  -2.6761  -2.6631  -2.6631  -2.6505  -2.6500
    -2.6127  -2.5724  -2.5724  -2.5489  -2.5489  -2.5451  -2.5317  -2.5315
    -2.4428  -2.4407  -2.4407  -2.4125  -2.4125  -2.4060  -2.4045  -2.4045
    -2.3904  -2.3870  -2.3870  -2.3849  -2.3849  -2.3706  -2.3706  -2.3635
    -2.3635  -2.3434  -2.3434  -2.3252  -2.3250  -2.3174  -2.3165  -2.2574
    -2.2574  -2.2466  -2.1528  -2.1528  -2.1395  -2.1223  -2.1223  -2.1038
    -2.1038  -2.1007  -2.1007  -2.0956  -2.0321  -2.0321  -2.0315  -2.0315
    -2.0299  -2.0297  -2.0097  -2.0081  -1.9944  -1.9944  -1.9792  -1.9792
    -1.9711  -1.9711  -1.9421  -1.9294  -1.9073  -1.9073  -1.8990  -1.8990
    -1.8957  -1.8711  -1.8707  -1.8541  -1.8541  -1.8262  -1.8059  -1.8059
    -1.7267  -1.7267  -1.7251  -1.7251  -1.6958  -1.6958  -1.6708  -1.6708
    -1.6644  -1.6644  -1.6394  -1.6272  -1.6272  -1.6259  -1.6258  -1.6181
    -1.6181  -1.6155  -1.5066  -1.5066  -1.4646  -1.4646  -1.4598  -1.4598
    -1.4455  -1.4454  -1.4305  -1.4282  -1.4279  -1.4232  -1.4232  -1.4226
    -1.4225  -1.4090  -1.4090  -1.4030  -1.4030  -1.3978  -1.3769  -1.3769
    -1.3389  -1.3354  -1.3305  -1.3305  -1.3106  -1.3047  -1.3047  -1.2935
    -1.2928  -1.2927  -1.2395  -1.2248  -1.2248  -1.2186  -1.2186  -1.1851
    -1.1851  -1.1401  -1.1401  -1.1158  -1.1158  -1.1003  -1.1003  -1.0983
    -1.0983  -1.0974  -1.0974  -1.0766  -1.0766  -1.0663  -1.0624  -1.0566
    -1.0430  -1.0413  -1.0413  -1.0264  -1.0263  -1.0114  -1.0114  -0.9941
    -0.9941  -0.9512  -0.9507  -0.9479  -0.9479  -0.9435  -0.9429  -0.9378
    -0.9372  -0.9363  -0.9066  -0.9066  -0.8654  -0.8654  -0.8293  -0.8293
    -0.8234  -0.8234  -0.8141  -0.8137  -0.7640  -0.7640  -0.7505  -0.7497
    -0.7330  -0.7310  -0.7214  -0.7214  -0.7050  -0.7050  -0.6573  -0.6571
    -0.6501  -0.6237  -0.6232  -0.5756  -0.5756  -0.5699  -0.5571  -0.5571
    -0.5508  -0.5507  -0.5490  -0.5490  -0.5355  -0.5355  -0.5187  -0.5176
    -0.5176  -0.3688  -0.3677  -0.2936  -0.2928  -0.1631  -0.1631  -0.0870
    -0.0870   0.1223   0.4154   0.4154   0.5832   0.5832   0.7581   0.7581
     0.8442   0.8442   0.8946   0.8947   1.0680   1.0680   1.3746   1.5867
     1.5873   1.6024   1.6024   1.7138   2.1437   2.1437   2.1864   2.1864
     2.1978   2.1978   2.2587   2.6145   2.6145   2.6964   2.7881   2.7881
     2.7938   2.7939   2.9195   2.9197   3.2396   3.2397   3.4300   3.5230
     3.5567   3.5576   3.5699   3.5699   3.8637   3.8637   3.8937   3.8937
     4.0935   4.0935   4.1278   4.2968   4.2968   4.2985   4.2985   4.4377
     4.4378   4.4646   4.4648   4.7438   4.7444   4.8491   4.8491   5.1976
     5.5182   5.5182   5.7040   5.7040   5.7852   5.8410   5.8489   5.8489
     5.8551   5.8551   5.9819   5.9819   6.1641   6.2176   6.2176   6.2999
     6.3005   6.3713   6.4459   6.5310   6.5310   6.5641   6.5641   6.6233
     6.6233   6.7174   6.7175

     the Fermi energy is     1.0186 ev

!    total energy              =   -7345.65583335 Ry
     Harris-Foulkes estimate   =   -7345.65583335 Ry
     estimated scf accuracy    <          2.3E-12 Ry

     The total energy is the sum of the following terms:

     one-electron contribution =  -51596.25739428 Ry
     hartree contribution      =   26341.97513938 Ry
     xc contribution           =   -3549.99551904 Ry
     ewald contribution        =   21458.61975088 Ry
     smearing contrib. (-TS)   =       0.00218971 Ry

     convergence has been achieved in  16 iterations

     Forces acting on atoms (Ry/au):


     negative rho (up, down):  1.962E+00 0.000E+00
     atom    1 type  1   force =     0.00000801    0.00000801   -0.00020942
     atom    2 type  1   force =    -0.00001663    0.00000841   -0.00012565
     atom    3 type  1   force =     0.00002085    0.00000819   -0.00015555
     atom    4 type  1   force =    -0.00002153   -0.00002153   -0.00010182
     atom    5 type  1   force =     0.00001598   -0.00002137   -0.00007094
     atom    6 type  1   force =    -0.00000776   -0.00002074   -0.00015522
     atom    7 type  1   force =     0.00000841   -0.00001663   -0.00012565
     atom    8 type  1   force =    -0.00001679   -0.00001679   -0.00003905
     atom    9 type  1   force =     0.00002162   -0.00001613   -0.00007024
     atom   10 type  1   force =    -0.00002137    0.00001598   -0.00007094
     atom   11 type  1   force =     0.00001643    0.00001643   -0.00003980
     atom   12 type  1   force =    -0.00000836    0.00001620   -0.00012563
     atom   13 type  1   force =     0.00000819    0.00002085   -0.00015555
     atom   14 type  1   force =    -0.00001613    0.00002162   -0.00007024
     atom   15 type  1   force =     0.00002142    0.00002142   -0.00010162
     atom   16 type  1   force =    -0.00002074   -0.00000776   -0.00015522
     atom   17 type  1   force =     0.00001620   -0.00000836   -0.00012563
     atom   18 type  1   force =    -0.00000765   -0.00000765   -0.00020862
     atom   19 type  1   force =     0.00003006    0.00005640    0.00011030
     atom   20 type  1   force =    -0.00000091    0.00005609    0.00012002
     atom   21 type  1   force =    -0.00005446    0.00005488    0.00010865
     atom   22 type  1   force =     0.00005640    0.00003006    0.00011030
     atom   23 type  1   force =     0.00000107    0.00003024    0.00011914
     atom   24 type  1   force =    -0.00003055    0.00003016    0.00011070
     atom   25 type  1   force =     0.00003024    0.00000107    0.00011914
     atom   26 type  1   force =    -0.00000108    0.00000092    0.00012710
     atom   27 type  1   force =    -0.00005563    0.00000084    0.00011877
     atom   28 type  1   force =     0.00005609   -0.00000091    0.00012002
     atom   29 type  1   force =     0.00000092   -0.00000108    0.00012710
     atom   30 type  1   force =    -0.00003049   -0.00000130    0.00011979
     atom   31 type  1   force =     0.00003016   -0.00003055    0.00011070
     atom   32 type  1   force =    -0.00000130   -0.00003049    0.00011979
     atom   33 type  1   force =    -0.00005583   -0.00003043    0.00010956
     atom   34 type  1   force =     0.00005488   -0.00005446    0.00010865
     atom   35 type  1   force =     0.00000084   -0.00005563    0.00011877
     atom   36 type  1   force =    -0.00003043   -0.00005583    0.00010956
     atom   37 type  1   force =     0.00005001    0.00005001    0.00013324
     atom   38 type  1   force =    -0.00000004    0.00005049    0.00011745
     atom   39 type  1   force =    -0.00003189    0.00005089    0.00012739
     atom   40 type  1   force =     0.00005049   -0.00000004    0.00011745
     atom   41 type  1   force =    -0.00000044   -0.00000044    0.00010241
     atom   42 type  1   force =    -0.00003162   -0.00000013    0.00011162
     atom   43 type  1   force =     0.00005089   -0.00003189    0.00012739
     atom   44 type  1   force =    -0.00000013   -0.00003162    0.00011162
     atom   45 type  1   force =    -0.00003171   -0.00003171    0.00012113
     atom   46 type  1   force =     0.00003164    0.00003164    0.00012063
     atom   47 type  1   force =     0.00000012    0.00003104    0.00011093
     atom   48 type  1   force =    -0.00005078    0.00003152    0.00012782
     atom   49 type  1   force =     0.00003104    0.00000012    0.00011093
     atom   50 type  1   force =     0.00000043    0.00000043    0.00010151
     atom   51 type  1   force =    -0.00004988    0.00000040    0.00011767
     atom   52 type  1   force =     0.00003152   -0.00005078    0.00012782
     atom   53 type  1   force =     0.00000040   -0.00004988    0.00011767
     atom   54 type  1   force =    -0.00004985   -0.00004985    0.00013429
     atom   55 type  1   force =    -0.00002122    0.00000426   -0.00007957
     atom   56 type  1   force =     0.00001789    0.00000398   -0.00011035
     atom   57 type  1   force =    -0.00000459    0.00000408   -0.00002727
     atom   58 type  1   force =     0.00000426   -0.00002122   -0.00007957
     atom   59 type  1   force =    -0.00001782   -0.00002276   -0.00016371
     atom   60 type  1   force =     0.00002216   -0.00002238   -0.00013193
     atom   61 type  1   force =    -0.00002276   -0.00001782   -0.00016371
     atom   62 type  1   force =     0.00001832   -0.00001868   -0.00019424
     atom   63 type  1   force =    -0.00000408   -0.00001779   -0.00011024
     atom   64 type  1   force =     0.00000398    0.00001789   -0.00011035
     atom   65 type  1   force =    -0.00001868    0.00001832   -0.00019424
     atom   66 type  1   force =     0.00002303    0.00001795   -0.00016313
     atom   67 type  1   force =    -0.00002238    0.00002216   -0.00013193
     atom   68 type  1   force =     0.00001795    0.00002303   -0.00016313
     atom   69 type  1   force =    -0.00000410    0.00002145   -0.00007968
     atom   70 type  1   force =     0.00000408   -0.00000459   -0.00002727
     atom   71 type  1   force =    -0.00001779   -0.00000408   -0.00011024
     atom   72 type  1   force =     0.00002145   -0.00000410   -0.00007968

     Total force =     0.001092     Total SCF correction =     0.000008

     bfgs converged in  12 scf cycles and  11 bfgs steps
     (criteria: energy <  1.0E-04, force <  1.0E-03)

     End of BFGS Geometry Optimization

     Final energy   =   -7345.6558333481 Ry
Begin final coordinates

ATOMIC_POSITIONS (angstrom)
Au      -0.001613241  -0.001613241   0.207083686
Au       4.253600217  -0.001612601   0.205926729
Au       8.508133499  -0.001610710   0.206528736
Au       2.126219418   2.126219418   0.205986271
Au       6.380746645   2.126226404   0.205368708
Au      10.635954227   2.126210216   0.206529082
Au      -0.001612601   4.253600217   0.205926729
Au       4.253611350   4.253611350   0.204752478
Au       8.508116941   4.253601798   0.205367022
Au       2.126226404   6.380746645   0.205368708
Au       6.380737209   6.380737209   0.204754284
Au      10.635952433   6.380744346   0.205926953
Au      -0.001610710   8.508133499   0.206528736
Au       4.253601798   8.508116941   0.205367022
Au       8.508121240   8.508121240   0.205984793
Au       2.126210216  10.635954227   0.206529082
Au       6.380744346  10.635952433   0.205926953
Au      10.635956911  10.635956911   0.207081731
Au       2.126048949  -0.001784337   2.179364612
Au       6.380783326  -0.001780452   2.179192621
Au      10.636122067  -0.001778138   2.179429245
Au      -0.001784337   2.126048949   2.179364612
Au       4.253563190   2.126051072   2.179138703
Au       8.508296069   2.126050270   2.179305614
Au       2.126051072   4.253563190   2.179138703
Au       6.380782948   4.253563525   2.178988782
Au      10.636123257   4.253561744   2.179196483
Au      -0.001780452   6.380783326   2.179192621
Au       4.253563525   6.380782948   2.178988782
Au       8.508293132   6.380781735   2.179145631
Au       2.126050270   8.508296069   2.179305614
Au       6.380781735   8.508293132   2.179145631
Au      10.636126894   8.508295544   2.179364424
Au      -0.001778138  10.636122067   2.179429245
Au       4.253561744  10.636123257   2.179196483
Au       8.508295544  10.636126894   2.179364424
Au      -0.001754290  -0.001754290   4.199105152
Au       4.253568805  -0.001754003   4.199400629
Au       8.508297017  -0.001759132   4.199204351
Au      -0.001754003   4.253568805   4.199400629
Au       4.253567419   4.253567419   4.199696715
Au       8.508300590   4.253567934   4.199507042
Au      -0.001759132   8.508297017   4.199204351
Au       4.253567934   8.508300590   4.199507042
Au       8.508300632   8.508300632   4.199312508
Au       2.126046166   2.126046166   4.199311351
Au       6.380774651   2.126046088   4.199503302
Au      10.636105332   2.126047243   4.199206210
Au       2.126046088   6.380774651   4.199503302
Au       6.380775605   6.380775605   4.199700279
Au      10.636100977   6.380774349   4.199401511
Au       2.126047243  10.636105332   4.199206210
Au       6.380774349  10.636100977   4.199401511
Au      10.636101834  10.636101834   4.199102192
Au       2.126219646  -0.001601814   6.173571408
Au       6.380736765  -0.001599896   6.174204293
Au      10.635949366  -0.001601667   6.172982826
Au      -0.001601814   2.126219646   6.173571408
Au       4.253607944   2.126231092   6.174802045
Au       8.508116841   2.126223662   6.174153604
Au       2.126231092   4.253607944   6.174802045
Au       6.380732221   4.253610507   6.175441467
Au      10.635950715   4.253605772   6.174206201
Au      -0.001599896   6.380736765   6.174204293
Au       4.253610507   6.380732221   6.175441467
Au       8.508112331   6.380736561   6.174798150
Au       2.126223662   8.508116841   6.174153604
Au       6.380736561   8.508112331   6.174798150
Au      10.635951843   8.508123947   6.173569096
Au      -0.001601667  10.635949366   6.172982826
Au       4.253605772  10.635950715   6.174206201
Au       8.508123947  10.635951843   6.173569096
End final coordinates



     Writing output data file 001strucdevrelaxpbe.save

     init_run     :    108.30s CPU    121.42s WALL (       1 calls)
     electrons    :  45699.10s CPU  48775.85s WALL (      12 calls)
     update_pot   :     78.06s CPU     82.18s WALL (      11 calls)
     forces       :    967.40s CPU    971.73s WALL (      12 calls)

     Called by init_run:
     wfcinit      :     85.64s CPU     98.32s WALL (       1 calls)
     potinit      :      1.92s CPU      2.02s WALL (       1 calls)

     Called by electrons:
     c_bands      :  38124.44s CPU  40781.38s WALL (     194 calls)
     sum_band     :   5359.86s CPU   5737.62s WALL (     194 calls)
     v_of_rho     :    109.59s CPU    119.87s WALL (     202 calls)
     newd         :   2211.18s CPU   2237.72s WALL (     202 calls)
     mix_rho      :     18.02s CPU     20.47s WALL (     194 calls)

     Called by c_bands:
     init_us_2    :     49.42s CPU     51.42s WALL (    2005 calls)
     cegterg      :  37185.84s CPU  39834.85s WALL (     970 calls)

     Called by *egterg:
     h_psi        :  14658.85s CPU  16408.90s WALL (    3850 calls)
     s_psi        :   2142.07s CPU   2177.01s WALL (    3850 calls)
     g_psi        :     30.80s CPU     30.74s WALL (    2875 calls)
     cdiaghg      :   6952.64s CPU   6977.87s WALL (    3770 calls)

     Called by h_psi:
     add_vuspsi   :   2146.39s CPU   2200.21s WALL (    3850 calls)

     General routines
     calbec       :   5051.70s CPU   5068.66s WALL (    4880 calls)
     fft          :    793.51s CPU    811.70s WALL (    3343 calls)
     ffts         :     10.57s CPU     11.96s WALL (     396 calls)
     fftw         :   9664.82s CPU  11494.48s WALL ( 2746458 calls)
     interpolate  :     29.69s CPU     33.95s WALL (     396 calls)
     davcio       :      0.00s CPU      0.09s WALL (       5 calls)

     Parallel routines
     fft_scatter  :   7113.21s CPU   8455.25s WALL ( 2750197 calls)

     PWSCF        :    13h 3m CPU       13h54m WALL


   This run was terminated on:   5:39: 1   9Aug2015            

=------------------------------------------------------------------------------=
   JOB DONE.
=------------------------------------------------------------------------------=
