
     Program PWSCF v.5.1.2 starts on 11Aug2015 at 14:39:57 

     This program is part of the open-source Quantum ESPRESSO suite
     for quantum simulation of materials; please cite
         "P. Giannozzi et al., J. Phys.:Condens. Matter 21 395502 (2009);
          URL http://www.quantum-espresso.org", 
     in publications or presentations arising from this work. More details at
     http://www.quantum-espresso.org/quote

     Parallel version (MPI), running on    32 processors
     R & G space division:  proc/nbgrp/npool/nimage =      32
     Waiting for input...
     Reading input from standard input
Warning: card &IONS ignored
Warning: card / ignored
Warning: card &CELL ignored
Warning: card / ignored

     Current dimensions of program PWSCF are:
     Max number of different atomic species (ntypx) = 10
     Max number of k-points (npk) =  40000
     Max angular momentum in pseudopotentials (lmaxx) =  3

     Subspace diagonalization in iterative solution of the eigenvalue problem:
     a serial algorithm will be used


     Parallelization info
     --------------------
     sticks:   dense  smooth     PW     G-vecs:    dense   smooth      PW
     Min         578     289     74               118518    41891    5486
     Max         579     290     75               118533    41932    5497
     Sum       18505    9265   2385              3792731  1341081  175711


     Title: 
     GOLD                                                                       


     bravais-lattice index     =            8
     lattice parameter (alat)  =      24.1233  a.u.
     unit-cell volume          =   28076.2361 (a.u.)^3
     number of atoms/cell      =           72
     number of atomic types    =            1
     number of electrons       =       792.00
     number of Kohn-Sham states=          475
     kinetic-energy cutoff     =      50.0000  Ry
     charge density cutoff     =     400.0000  Ry
     convergence threshold     =      1.0E-08
     mixing beta               =       0.7000
     number of iterations used =            8  plain     mixing
     Exchange-correlation      =  SLA  PW   PBE  PBE ( 1  4  3  4 0 0)

     celldm(1)=  24.123277  celldm(2)=   1.000000  celldm(3)=   2.000000
     celldm(4)=   0.000000  celldm(5)=   0.000000  celldm(6)=   0.000000

     crystal axes: (cart. coord. in units of alat)
               a(1) = (   1.000000   0.000000   0.000000 )  
               a(2) = (   0.000000   1.000000   0.000000 )  
               a(3) = (   0.000000   0.000000   2.000000 )  

     reciprocal axes: (cart. coord. in units 2 pi/alat)
               b(1) = (  1.000000  0.000000  0.000000 )  
               b(2) = (  0.000000  1.000000  0.000000 )  
               b(3) = (  0.000000  0.000000  0.500000 )  


     PseudoPot. # 1 for Au read from file:
     /home/scc/andrejb/qe/pseudo/Au.pbe-nd-van.UPF
     MD5 check sum: 458681b50f36d87ef23c61b04bba420a
     Pseudo is Ultrasoft + core correction, Zval = 11.0
     Generated by new atomic code, or converted to UPF format
     Using radial grid of  985 points,  3 beta functions with: 
                l(1) =   1
                l(2) =   2
                l(3) =   2
     Q(r) pseudized with  8 coefficients,  rinner =    1.100   1.100   1.100
                                                       1.100   1.100

     atomic species   valence    mass     pseudopotential
        Au            11.00   196.96657     Au( 1.00)

      2 Sym. Ops. (no inversion) found
          (note:  2 additional sym.ops. were found but ignored
           their fractional translations are incommensurate with FFT grid)


   Cartesian axes

     site n.     atom                  positions (alat units)
         1           Au  tau(   1) = (   0.0000000   0.0000000   0.0000000  )
         2           Au  tau(   2) = (   0.3332217   0.0000000   0.0000000  )
         3           Au  tau(   3) = (   0.6664434   0.0000000   0.0000000  )
         4           Au  tau(   4) = (   0.1666109   0.1666109   0.0000000  )
         5           Au  tau(   5) = (   0.4998326   0.1666109   0.0000000  )
         6           Au  tau(   6) = (   0.8330542   0.1666109   0.0000000  )
         7           Au  tau(   7) = (   0.0000000   0.3332217   0.0000000  )
         8           Au  tau(   8) = (   0.3332217   0.3332217   0.0000000  )
         9           Au  tau(   9) = (   0.6664434   0.3332217   0.0000000  )
        10           Au  tau(  10) = (   0.1666109   0.4998326   0.0000000  )
        11           Au  tau(  11) = (   0.4998326   0.4998326   0.0000000  )
        12           Au  tau(  12) = (   0.8330542   0.4998326   0.0000000  )
        13           Au  tau(  13) = (   0.0000000   0.6664434   0.0000000  )
        14           Au  tau(  14) = (   0.3332217   0.6664434   0.0000000  )
        15           Au  tau(  15) = (   0.6664434   0.6664434   0.0000000  )
        16           Au  tau(  16) = (   0.1666109   0.8330542   0.0000000  )
        17           Au  tau(  17) = (   0.4998326   0.8330542   0.0000000  )
        18           Au  tau(  18) = (   0.8330542   0.8330542   0.0000000  )
        19           Au  tau(  19) = (   0.1666109   0.0000000   0.1666109  )
        20           Au  tau(  20) = (   0.4998326   0.0000000   0.1666109  )
        21           Au  tau(  21) = (   0.8330542   0.0000000   0.1666109  )
        22           Au  tau(  22) = (   0.0000000   0.1666109   0.1666109  )
        23           Au  tau(  23) = (   0.3332217   0.1666109   0.1666109  )
        24           Au  tau(  24) = (   0.6664434   0.1666109   0.1666109  )
        25           Au  tau(  25) = (   0.1666109   0.3332217   0.1666109  )
        26           Au  tau(  26) = (   0.4998326   0.3332217   0.1666109  )
        27           Au  tau(  27) = (   0.8330542   0.3332217   0.1666109  )
        28           Au  tau(  28) = (   0.0000000   0.4998326   0.1666109  )
        29           Au  tau(  29) = (   0.3332217   0.4998326   0.1666109  )
        30           Au  tau(  30) = (   0.6664434   0.4998326   0.1666109  )
        31           Au  tau(  31) = (   0.1666109   0.6664434   0.1666109  )
        32           Au  tau(  32) = (   0.4998326   0.6664434   0.1666109  )
        33           Au  tau(  33) = (   0.8330542   0.6664434   0.1666109  )
        34           Au  tau(  34) = (   0.0000000   0.8330542   0.1666109  )
        35           Au  tau(  35) = (   0.3332217   0.8330542   0.1666109  )
        36           Au  tau(  36) = (   0.6664434   0.8330542   0.1666109  )
        37           Au  tau(  37) = (  -0.0000182  -0.0000182   0.3335478  )
        38           Au  tau(  38) = (   0.3332215  -0.0000181   0.3335473  )
        39           Au  tau(  39) = (   0.6664447  -0.0000183   0.3335481  )
        40           Au  tau(  40) = (  -0.0000181   0.3332215   0.3335473  )
        41           Au  tau(  41) = (   0.3332215   0.3332215   0.3335468  )
        42           Au  tau(  42) = (   0.6664445   0.3332215   0.3335477  )
        43           Au  tau(  43) = (  -0.0000183   0.6664447   0.3335481  )
        44           Au  tau(  44) = (   0.3332215   0.6664445   0.3335477  )
        45           Au  tau(  45) = (   0.6664446   0.6664446   0.3335486  )
        46           Au  tau(  46) = (   0.1666097   0.1666097   0.3335483  )
        47           Au  tau(  47) = (   0.4998320   0.1666098   0.3335477  )
        48           Au  tau(  48) = (   0.8330732   0.1666096   0.3335480  )
        49           Au  tau(  49) = (   0.1666098   0.4998320   0.3335477  )
        50           Au  tau(  50) = (   0.4998322   0.4998322   0.3335470  )
        51           Au  tau(  51) = (   0.8330731   0.4998322   0.3335474  )
        52           Au  tau(  52) = (   0.1666096   0.8330732   0.3335480  )
        53           Au  tau(  53) = (   0.4998322   0.8330731   0.3335474  )
        54           Au  tau(  54) = (   0.8330731   0.8330731   0.3335478  )
        55           Au  tau(  55) = (   0.1666104  -0.0000111   0.4993095  )
        56           Au  tau(  56) = (   0.4998323  -0.0000112   0.4993099  )
        57           Au  tau(  57) = (   0.8330660  -0.0000111   0.4993009  )
        58           Au  tau(  58) = (  -0.0000111   0.1666104   0.4993095  )
        59           Au  tau(  59) = (   0.3332213   0.1666106   0.4993185  )
        60           Au  tau(  60) = (   0.6664437   0.1666106   0.4993187  )
        61           Au  tau(  61) = (   0.1666106   0.3332213   0.4993185  )
        62           Au  tau(  62) = (   0.4998324   0.3332216   0.4993185  )
        63           Au  tau(  63) = (   0.8330658   0.3332215   0.4993102  )
        64           Au  tau(  64) = (  -0.0000112   0.4998323   0.4993099  )
        65           Au  tau(  65) = (   0.3332216   0.4998324   0.4993185  )
        66           Au  tau(  66) = (   0.6664437   0.4998325   0.4993187  )
        67           Au  tau(  67) = (   0.1666106   0.6664437   0.4993187  )
        68           Au  tau(  68) = (   0.4998325   0.6664437   0.4993187  )
        69           Au  tau(  69) = (   0.8330658   0.6664438   0.4993102  )
        70           Au  tau(  70) = (  -0.0000111   0.8330660   0.4993009  )
        71           Au  tau(  71) = (   0.3332215   0.8330658   0.4993102  )
        72           Au  tau(  72) = (   0.6664438   0.8330658   0.4993102  )

     number of k points=     5  Marzari-Vanderbilt smearing, width (Ry)=  0.0200
                       cart. coord. in units 2pi/alat
        k(    1) = (   0.2500000   0.2500000   0.0833333), wk =   0.3333333
        k(    2) = (   0.2500000   0.2500000  -0.2500000), wk =   0.3333333
        k(    3) = (  -0.2500000   0.2500000  -0.0833333), wk =   0.6666667
        k(    4) = (   0.2500000   0.2500000  -0.0833333), wk =   0.3333333
        k(    5) = (  -0.2500000   0.2500000   0.2500000), wk =   0.3333333

     Dense  grid:  3792731 G-vectors     FFT dimensions: ( 160, 160, 320)

     Smooth grid:  1341081 G-vectors     FFT dimensions: ( 120, 120, 225)

     Largest allocated arrays     est. size (Mb)     dimensions
        Kohn-Sham Wavefunctions        38.17 Mb     (    5267,  475)
        NL pseudopotentials            75.22 Mb     (    5267,  936)
        Each V/rho on FFT grid          3.91 Mb     (  256000)
        Each G-vector array             0.90 Mb     (  118520)
        G-vector shells                 0.08 Mb     (   10286)
     Largest temporary arrays     est. size (Mb)     dimensions
        Auxiliary wavefunctions       152.70 Mb     (    5267, 1900)
        Each subspace H/S matrix       55.08 Mb     (    1900, 1900)
        Each <psi_i|beta_j> matrix      6.78 Mb     (     936,  475)
        Arrays for rho mixing          31.25 Mb     (  256000,    8)

     Initial potential from superposition of free atoms
     Check: negative starting charge=   -1.945108

     starting charge  791.16394, renormalised to  792.00000

     negative rho (up, down):  1.947E+00 0.000E+00
     Starting wfc are  648 randomized atomic wfcs

     total cpu time spent up to now is      117.6 secs

     Self-consistent Calculation

     iteration #  1     ecut=    50.00 Ry     beta=0.70
     Davidson diagonalization with overlap
     ethr =  1.00E-02,  avg # of iterations =  3.0

     Threshold (ethr) on eigenvalues was too large:
     Diagonalizing with lowered threshold

     Davidson diagonalization with overlap
     ethr =  4.42E-04,  avg # of iterations =  2.0

     negative rho (up, down):  1.931E+00 0.000E+00

     total cpu time spent up to now is      511.8 secs

     total energy              =   -7343.15558388 Ry
     Harris-Foulkes estimate   =   -7346.37263875 Ry
     estimated scf accuracy    <       4.05491831 Ry

     iteration #  2     ecut=    50.00 Ry     beta=0.70
     Davidson diagonalization with overlap
     ethr =  5.12E-04,  avg # of iterations = 11.4

     negative rho (up, down):  1.929E+00 0.000E+00

     total cpu time spent up to now is     1040.8 secs

     total energy              =   -7334.99158499 Ry
     Harris-Foulkes estimate   =   -7353.28040074 Ry
     estimated scf accuracy    <      96.09163931 Ry

     iteration #  3     ecut=    50.00 Ry     beta=0.70
     Davidson diagonalization with overlap
     ethr =  5.12E-04,  avg # of iterations =  6.0

     negative rho (up, down):  1.950E+00 0.000E+00

     total cpu time spent up to now is     1390.6 secs

     total energy              =   -7345.15975746 Ry
     Harris-Foulkes estimate   =   -7346.02572238 Ry
     estimated scf accuracy    <       2.95988523 Ry

     iteration #  4     ecut=    50.00 Ry     beta=0.70
     Davidson diagonalization with overlap
     ethr =  3.74E-04,  avg # of iterations =  2.0

     negative rho (up, down):  1.960E+00 0.000E+00

     total cpu time spent up to now is     1580.1 secs

     total energy              =   -7345.48896667 Ry
     Harris-Foulkes estimate   =   -7345.55060667 Ry
     estimated scf accuracy    <       0.16973506 Ry

     iteration #  5     ecut=    50.00 Ry     beta=0.70
     Davidson diagonalization with overlap
     ethr =  2.14E-05,  avg # of iterations = 10.6

     negative rho (up, down):  1.962E+00 0.000E+00

     total cpu time spent up to now is     1960.8 secs

     total energy              =   -7345.48514204 Ry
     Harris-Foulkes estimate   =   -7345.56589926 Ry
     estimated scf accuracy    <       0.59903628 Ry

     iteration #  6     ecut=    50.00 Ry     beta=0.70
     Davidson diagonalization with overlap
     ethr =  2.14E-05,  avg # of iterations = 10.0

     negative rho (up, down):  1.964E+00 0.000E+00

     total cpu time spent up to now is     2212.1 secs

     total energy              =   -7345.51810619 Ry
     Harris-Foulkes estimate   =   -7345.53391499 Ry
     estimated scf accuracy    <       0.07644443 Ry

     iteration #  7     ecut=    50.00 Ry     beta=0.70
     Davidson diagonalization with overlap
     ethr =  9.65E-06,  avg # of iterations = 12.6

     negative rho (up, down):  1.969E+00 0.000E+00

     total cpu time spent up to now is     2498.0 secs

     total energy              =   -7345.51177765 Ry
     Harris-Foulkes estimate   =   -7345.54592900 Ry
     estimated scf accuracy    <       0.22964324 Ry

     iteration #  8     ecut=    50.00 Ry     beta=0.70
     Davidson diagonalization with overlap
     ethr =  9.65E-06,  avg # of iterations =  5.4

     negative rho (up, down):  1.968E+00 0.000E+00

     total cpu time spent up to now is     2721.4 secs

     total energy              =   -7345.52799150 Ry
     Harris-Foulkes estimate   =   -7345.52846232 Ry
     estimated scf accuracy    <       0.00197012 Ry

     iteration #  9     ecut=    50.00 Ry     beta=0.70
     Davidson diagonalization with overlap
     ethr =  2.49E-07,  avg # of iterations = 11.6

     negative rho (up, down):  1.967E+00 0.000E+00

     total cpu time spent up to now is     3025.0 secs

     total energy              =   -7345.52819098 Ry
     Harris-Foulkes estimate   =   -7345.52843960 Ry
     estimated scf accuracy    <       0.00093742 Ry

     iteration # 10     ecut=    50.00 Ry     beta=0.70
     Davidson diagonalization with overlap
     ethr =  1.18E-07,  avg # of iterations =  2.0

     negative rho (up, down):  1.968E+00 0.000E+00

     total cpu time spent up to now is     3207.1 secs

     total energy              =   -7345.52829319 Ry
     Harris-Foulkes estimate   =   -7345.52833234 Ry
     estimated scf accuracy    <       0.00014049 Ry

     iteration # 11     ecut=    50.00 Ry     beta=0.70
     Davidson diagonalization with overlap
     ethr =  1.77E-08,  avg # of iterations =  2.0

     negative rho (up, down):  1.968E+00 0.000E+00

     total cpu time spent up to now is     3397.9 secs

     total energy              =   -7345.52830918 Ry
     Harris-Foulkes estimate   =   -7345.52832490 Ry
     estimated scf accuracy    <       0.00005179 Ry

     iteration # 12     ecut=    50.00 Ry     beta=0.70
     Davidson diagonalization with overlap
     ethr =  6.54E-09,  avg # of iterations =  2.0

     negative rho (up, down):  1.968E+00 0.000E+00

     total cpu time spent up to now is     3591.2 secs

     total energy              =   -7345.52831625 Ry
     Harris-Foulkes estimate   =   -7345.52831969 Ry
     estimated scf accuracy    <       0.00001139 Ry

     iteration # 13     ecut=    50.00 Ry     beta=0.70
     Davidson diagonalization with overlap
     ethr =  1.44E-09,  avg # of iterations =  2.0

     negative rho (up, down):  1.968E+00 0.000E+00

     total cpu time spent up to now is     3799.0 secs

     total energy              =   -7345.52831677 Ry
     Harris-Foulkes estimate   =   -7345.52831941 Ry
     estimated scf accuracy    <       0.00000805 Ry

     iteration # 14     ecut=    50.00 Ry     beta=0.70
     Davidson diagonalization with overlap
     ethr =  1.02E-09,  avg # of iterations =  2.0

     negative rho (up, down):  1.968E+00 0.000E+00

     total cpu time spent up to now is     3983.6 secs

     total energy              =   -7345.52831781 Ry
     Harris-Foulkes estimate   =   -7345.52831845 Ry
     estimated scf accuracy    <       0.00000203 Ry

     iteration # 15     ecut=    50.00 Ry     beta=0.70
     Davidson diagonalization with overlap
     ethr =  2.56E-10,  avg # of iterations =  2.0

     negative rho (up, down):  1.968E+00 0.000E+00

     total cpu time spent up to now is     4167.2 secs

     total energy              =   -7345.52831785 Ry
     Harris-Foulkes estimate   =   -7345.52831849 Ry
     estimated scf accuracy    <       0.00000338 Ry

     iteration # 16     ecut=    50.00 Ry     beta=0.70
     Davidson diagonalization with overlap
     ethr =  2.56E-10,  avg # of iterations =  2.0

     negative rho (up, down):  1.968E+00 0.000E+00

     total cpu time spent up to now is     4346.4 secs

     total energy              =   -7345.52831797 Ry
     Harris-Foulkes estimate   =   -7345.52831840 Ry
     estimated scf accuracy    <       0.00000295 Ry

     iteration # 17     ecut=    50.00 Ry     beta=0.70
     Davidson diagonalization with overlap
     ethr =  2.56E-10,  avg # of iterations =  1.0

     negative rho (up, down):  1.968E+00 0.000E+00

     total cpu time spent up to now is     4522.7 secs

     total energy              =   -7345.52831814 Ry
     Harris-Foulkes estimate   =   -7345.52831828 Ry
     estimated scf accuracy    <       0.00000081 Ry

     iteration # 18     ecut=    50.00 Ry     beta=0.70
     Davidson diagonalization with overlap
     ethr =  1.02E-10,  avg # of iterations =  1.0

     negative rho (up, down):  1.968E+00 0.000E+00

     total cpu time spent up to now is     4692.2 secs

     total energy              =   -7345.52831819 Ry
     Harris-Foulkes estimate   =   -7345.52831823 Ry
     estimated scf accuracy    <       0.00000023 Ry

     iteration # 19     ecut=    50.00 Ry     beta=0.70
     Davidson diagonalization with overlap
     ethr =  2.84E-11,  avg # of iterations =  2.0

     negative rho (up, down):  1.968E+00 0.000E+00

     total cpu time spent up to now is     4870.8 secs

     total energy              =   -7345.52831820 Ry
     Harris-Foulkes estimate   =   -7345.52831821 Ry
     estimated scf accuracy    <       0.00000002 Ry

     iteration # 20     ecut=    50.00 Ry     beta=0.70
     Davidson diagonalization with overlap
     ethr =  3.13E-12,  avg # of iterations =  3.0

     negative rho (up, down):  1.968E+00 0.000E+00

     total cpu time spent up to now is     5108.2 secs

     total energy              =   -7345.52831819 Ry
     Harris-Foulkes estimate   =   -7345.52831822 Ry
     estimated scf accuracy    <       0.00000011 Ry

     iteration # 21     ecut=    50.00 Ry     beta=0.70
     Davidson diagonalization with overlap
     ethr =  3.13E-12,  avg # of iterations =  3.0

     negative rho (up, down):  1.968E+00 0.000E+00

     total cpu time spent up to now is     5318.4 secs

     End of self-consistent calculation

          k = 0.2500 0.2500 0.0833 (167653 PWs)   bands (ev):

    -6.8795  -6.3492  -6.3492  -5.9110  -5.5075  -5.4088  -5.4088  -5.1870
    -5.1870  -5.0900  -5.0900  -4.9565  -4.9489  -4.8394  -4.7511  -4.7468
    -4.7257  -4.7257  -4.5447  -4.5433  -4.5433  -4.5168  -4.5125  -4.5120
    -4.5081  -4.4548  -4.4548  -4.4520  -4.4520  -4.3884  -4.3599  -4.3599
    -4.3031  -4.2999  -4.2986  -4.2625  -4.2625  -4.2486  -4.2440  -4.2253
    -4.2253  -4.1882  -4.1557  -4.1555  -4.1527  -4.1498  -4.1497  -4.1195
    -4.0891  -4.0891  -4.0595  -4.0595  -4.0555  -4.0555  -4.0535  -4.0472
    -4.0150  -4.0150  -3.9548  -3.9548  -3.9226  -3.8964  -3.8892  -3.8858
    -3.8854  -3.8633  -3.8633  -3.8514  -3.8010  -3.8010  -3.7951  -3.7951
    -3.7096  -3.7096  -3.6874  -3.6874  -3.6528  -3.6505  -3.6367  -3.6115
    -3.6115  -3.5671  -3.5671  -3.5645  -3.5645  -3.5397  -3.5397  -3.4594
    -3.4591  -3.4579  -3.4430  -3.4281  -3.4251  -3.4123  -3.4123  -3.4050
    -3.4050  -3.3623  -3.3623  -3.3393  -3.3393  -3.3027  -3.3027  -3.2763
    -3.2552  -3.2552  -3.2090  -3.2090  -3.1764  -3.1488  -3.1485  -3.1478
    -3.1473  -3.1433  -3.1433  -3.1163  -3.1063  -3.0679  -3.0679  -3.0468
    -3.0233  -3.0202  -3.0202  -3.0136  -3.0135  -3.0092  -3.0092  -2.9741
    -2.9731  -2.9731  -2.9676  -2.9676  -2.9626  -2.9071  -2.9019  -2.8975
    -2.8975  -2.8753  -2.8753  -2.8700  -2.7813  -2.7707  -2.7707  -2.7610
    -2.7609  -2.7552  -2.7539  -2.7529  -2.7450  -2.7450  -2.7343  -2.7269
    -2.7236  -2.7236  -2.7191  -2.7091  -2.7039  -2.7018  -2.6796  -2.6689
    -2.6689  -2.6530  -2.6530  -2.6360  -2.6360  -2.6271  -2.6271  -2.6065
    -2.5937  -2.5937  -2.5884  -2.5884  -2.5545  -2.5521  -2.5521  -2.4941
    -2.4904  -2.4757  -2.4756  -2.4650  -2.4607  -2.4375  -2.4375  -2.4332
    -2.4204  -2.4204  -2.4087  -2.4087  -2.3918  -2.3918  -2.3647  -2.3647
    -2.3545  -2.3544  -2.3446  -2.3446  -2.3273  -2.3143  -2.2937  -2.2248
    -2.2232  -2.2039  -2.2039  -2.1920  -2.1920  -2.1418  -2.1418  -2.1266
    -2.1071  -2.0945  -2.0945  -2.0763  -2.0579  -2.0579  -2.0447  -2.0379
    -2.0067  -2.0067  -2.0041  -1.9961  -1.9961  -1.9894  -1.9894  -1.9701
    -1.9611  -1.9518  -1.9518  -1.9513  -1.9513  -1.9500  -1.9500  -1.9361
    -1.9161  -1.9161  -1.9127  -1.9072  -1.8943  -1.8943  -1.8899  -1.8899
    -1.8840  -1.8822  -1.8477  -1.8477  -1.8031  -1.7839  -1.7838  -1.7380
    -1.7380  -1.7379  -1.7271  -1.7271  -1.7131  -1.7131  -1.7055  -1.7055
    -1.6950  -1.6950  -1.6745  -1.6745  -1.6375  -1.6375  -1.6201  -1.5978
    -1.5978  -1.5582  -1.5582  -1.5077  -1.5077  -1.4866  -1.4625  -1.4602
    -1.4602  -1.4549  -1.4534  -1.4339  -1.4339  -1.4328  -1.4328  -1.4309
    -1.4307  -1.4300  -1.4288  -1.4275  -1.4006  -1.4006  -1.3676  -1.3665
    -1.3665  -1.3443  -1.3443  -1.3395  -1.3395  -1.3363  -1.3259  -1.2981
    -1.2981  -1.2734  -1.2723  -1.2723  -1.2520  -1.2407  -1.2407  -1.2113
    -1.2113  -1.2043  -1.2043  -1.1656  -1.1656  -1.1536  -1.1536  -1.1528
    -1.1528  -1.1264  -1.1264  -1.1123  -1.1049  -1.1049  -1.0930  -1.0930
    -1.0911  -1.0911  -1.0800  -1.0699  -1.0689  -1.0622  -1.0622  -1.0554
    -1.0513  -1.0513  -1.0350  -0.9931  -0.9916  -0.9909  -0.9892  -0.9865
    -0.9845  -0.9561  -0.9561  -0.9423  -0.9246  -0.9246  -0.9162  -0.9162
    -0.9079  -0.9012  -0.8989  -0.8629  -0.8629  -0.8515  -0.8515  -0.8312
    -0.8312  -0.8157  -0.7916  -0.7835  -0.7657  -0.7657  -0.7280  -0.7278
    -0.7246  -0.7245  -0.7242  -0.7181  -0.7168  -0.7168  -0.7125  -0.7101
    -0.6770  -0.6770  -0.6755  -0.6755  -0.6741  -0.6741  -0.6600  -0.6600
    -0.6316  -0.3705  -0.3621  -0.3171  -0.3171  -0.2861  -0.2274  -0.0748
    -0.0748  -0.0441   0.2407   0.2407   0.5817   0.5817   0.6252   0.6252
     0.6753   0.6753   0.8349   0.8349   0.9629   0.9646   1.0786   1.5737
     1.6151   1.6206   1.6566   1.6571   1.7951   1.7951   1.8504   1.8504
     2.0330   2.0330   2.3187   2.3451   2.3451   2.3660   2.8017   2.8017
     2.8241   2.8251   2.8410   2.8410   2.9066   2.9074   3.0665   3.1857
     3.1857   3.3730   3.3775   3.4817   3.5538   3.5538   3.8539   3.8539
     3.9109   3.9119   3.9119   4.0590   4.0590   4.0835   4.0835   4.3554
     4.3554   4.3931   4.3931   4.5069   4.5109   4.5746   4.5746   4.8626
     5.4565   5.4565   5.5402   5.5402   5.6635   5.6635   5.7359   5.7359
     5.7523   5.7523   5.7995   5.8569   5.8647   5.9647   6.1521   6.1521
     6.1628   6.1652   6.1676   6.1796   6.2034   6.2034   6.3489   6.3489
     6.3948   6.3948   6.4808

          k = 0.2500 0.2500-0.2500 (167588 PWs)   bands (ev):

    -6.8795  -6.3492  -6.3492  -5.9110  -5.5075  -5.4088  -5.4088  -5.1870
    -5.1870  -5.0900  -5.0900  -4.9565  -4.9489  -4.8394  -4.7510  -4.7468
    -4.7257  -4.7257  -4.5447  -4.5433  -4.5433  -4.5168  -4.5125  -4.5120
    -4.5081  -4.4548  -4.4548  -4.4520  -4.4520  -4.3884  -4.3599  -4.3599
    -4.3031  -4.2999  -4.2986  -4.2625  -4.2625  -4.2486  -4.2440  -4.2253
    -4.2253  -4.1882  -4.1557  -4.1555  -4.1527  -4.1498  -4.1497  -4.1195
    -4.0891  -4.0891  -4.0595  -4.0595  -4.0555  -4.0555  -4.0535  -4.0472
    -4.0150  -4.0150  -3.9548  -3.9548  -3.9226  -3.8964  -3.8892  -3.8858
    -3.8854  -3.8633  -3.8633  -3.8514  -3.8011  -3.8010  -3.7951  -3.7951
    -3.7096  -3.7096  -3.6874  -3.6874  -3.6528  -3.6505  -3.6367  -3.6115
    -3.6115  -3.5671  -3.5671  -3.5645  -3.5645  -3.5397  -3.5397  -3.4594
    -3.4591  -3.4580  -3.4430  -3.4281  -3.4251  -3.4123  -3.4123  -3.4050
    -3.4050  -3.3622  -3.3622  -3.3393  -3.3393  -3.3027  -3.3027  -3.2763
    -3.2552  -3.2552  -3.2090  -3.2089  -3.1764  -3.1488  -3.1485  -3.1477
    -3.1473  -3.1433  -3.1433  -3.1163  -3.1063  -3.0679  -3.0679  -3.0468
    -3.0232  -3.0202  -3.0202  -3.0136  -3.0135  -3.0093  -3.0092  -2.9741
    -2.9731  -2.9731  -2.9676  -2.9676  -2.9626  -2.9071  -2.9019  -2.8975
    -2.8975  -2.8753  -2.8753  -2.8700  -2.7813  -2.7707  -2.7707  -2.7610
    -2.7609  -2.7552  -2.7539  -2.7529  -2.7450  -2.7450  -2.7343  -2.7269
    -2.7236  -2.7236  -2.7191  -2.7090  -2.7039  -2.7018  -2.6796  -2.6689
    -2.6689  -2.6530  -2.6530  -2.6360  -2.6360  -2.6271  -2.6271  -2.6065
    -2.5937  -2.5937  -2.5884  -2.5884  -2.5545  -2.5521  -2.5521  -2.4941
    -2.4904  -2.4757  -2.4756  -2.4650  -2.4607  -2.4375  -2.4374  -2.4332
    -2.4204  -2.4204  -2.4087  -2.4087  -2.3918  -2.3918  -2.3647  -2.3647
    -2.3545  -2.3545  -2.3446  -2.3446  -2.3273  -2.3143  -2.2937  -2.2248
    -2.2232  -2.2039  -2.2039  -2.1920  -2.1920  -2.1418  -2.1418  -2.1267
    -2.1071  -2.0945  -2.0945  -2.0763  -2.0579  -2.0579  -2.0447  -2.0379
    -2.0067  -2.0067  -2.0041  -1.9961  -1.9961  -1.9894  -1.9894  -1.9701
    -1.9611  -1.9518  -1.9518  -1.9513  -1.9513  -1.9500  -1.9500  -1.9361
    -1.9161  -1.9161  -1.9127  -1.9073  -1.8943  -1.8943  -1.8899  -1.8899
    -1.8840  -1.8822  -1.8477  -1.8477  -1.8031  -1.7839  -1.7838  -1.7380
    -1.7380  -1.7379  -1.7270  -1.7270  -1.7131  -1.7131  -1.7055  -1.7055
    -1.6950  -1.6950  -1.6745  -1.6745  -1.6375  -1.6375  -1.6201  -1.5978
    -1.5978  -1.5582  -1.5582  -1.5077  -1.5077  -1.4867  -1.4625  -1.4602
    -1.4602  -1.4549  -1.4535  -1.4339  -1.4339  -1.4328  -1.4328  -1.4309
    -1.4307  -1.4300  -1.4288  -1.4275  -1.4006  -1.4006  -1.3676  -1.3665
    -1.3665  -1.3443  -1.3443  -1.3395  -1.3395  -1.3363  -1.3259  -1.2981
    -1.2980  -1.2734  -1.2723  -1.2723  -1.2520  -1.2407  -1.2407  -1.2113
    -1.2113  -1.2043  -1.2043  -1.1656  -1.1656  -1.1536  -1.1536  -1.1528
    -1.1528  -1.1264  -1.1264  -1.1123  -1.1049  -1.1049  -1.0929  -1.0929
    -1.0911  -1.0911  -1.0800  -1.0700  -1.0689  -1.0622  -1.0622  -1.0554
    -1.0513  -1.0513  -1.0350  -0.9931  -0.9916  -0.9909  -0.9892  -0.9865
    -0.9845  -0.9561  -0.9561  -0.9423  -0.9246  -0.9246  -0.9162  -0.9162
    -0.9079  -0.9012  -0.8989  -0.8629  -0.8629  -0.8515  -0.8515  -0.8312
    -0.8312  -0.8157  -0.7916  -0.7835  -0.7656  -0.7656  -0.7280  -0.7278
    -0.7246  -0.7245  -0.7242  -0.7181  -0.7168  -0.7168  -0.7125  -0.7101
    -0.6770  -0.6770  -0.6755  -0.6755  -0.6741  -0.6741  -0.6600  -0.6600
    -0.6316  -0.3705  -0.3621  -0.3171  -0.3171  -0.2861  -0.2274  -0.0748
    -0.0748  -0.0441   0.2407   0.2407   0.5817   0.5817   0.6252   0.6252
     0.6753   0.6753   0.8349   0.8349   0.9629   0.9646   1.0786   1.5737
     1.6151   1.6206   1.6566   1.6571   1.7951   1.7951   1.8504   1.8504
     2.0330   2.0330   2.3187   2.3451   2.3451   2.3660   2.8017   2.8017
     2.8241   2.8251   2.8410   2.8410   2.9066   2.9074   3.0665   3.1857
     3.1857   3.3730   3.3776   3.4817   3.5538   3.5538   3.8539   3.8539
     3.9109   3.9119   3.9119   4.0590   4.0590   4.0836   4.0836   4.3554
     4.3554   4.3931   4.3931   4.5069   4.5109   4.5746   4.5746   4.8626
     5.4565   5.4565   5.5404   5.5404   5.6635   5.6635   5.7359   5.7359
     5.7441   5.7523   5.7524   5.8561   5.8647   6.1397   6.1486   6.1486
     6.1521   6.1521   6.1628   6.1652   6.1676   6.1796   6.3494   6.3494
     6.3737   6.4786   6.4786

          k =-0.2500 0.2500-0.0833 (167653 PWs)   bands (ev):

    -6.8795  -6.3492  -6.3492  -5.9110  -5.5075  -5.4088  -5.4088  -5.1870
    -5.1870  -5.0900  -5.0900  -4.9565  -4.9489  -4.8394  -4.7510  -4.7469
    -4.7257  -4.7257  -4.5447  -4.5433  -4.5433  -4.5168  -4.5125  -4.5120
    -4.5081  -4.4548  -4.4548  -4.4520  -4.4520  -4.3884  -4.3599  -4.3599
    -4.3031  -4.2999  -4.2986  -4.2625  -4.2625  -4.2486  -4.2440  -4.2253
    -4.2253  -4.1882  -4.1557  -4.1555  -4.1527  -4.1498  -4.1497  -4.1195
    -4.0891  -4.0891  -4.0595  -4.0595  -4.0555  -4.0555  -4.0535  -4.0472
    -4.0150  -4.0150  -3.9548  -3.9548  -3.9226  -3.8964  -3.8892  -3.8858
    -3.8854  -3.8633  -3.8632  -3.8514  -3.8010  -3.8010  -3.7951  -3.7951
    -3.7096  -3.7096  -3.6874  -3.6874  -3.6528  -3.6505  -3.6367  -3.6115
    -3.6115  -3.5671  -3.5671  -3.5645  -3.5645  -3.5398  -3.5397  -3.4594
    -3.4591  -3.4579  -3.4430  -3.4281  -3.4251  -3.4123  -3.4123  -3.4050
    -3.4050  -3.3623  -3.3623  -3.3393  -3.3393  -3.3027  -3.3027  -3.2763
    -3.2552  -3.2552  -3.2090  -3.2089  -3.1764  -3.1488  -3.1485  -3.1477
    -3.1473  -3.1433  -3.1433  -3.1163  -3.1063  -3.0679  -3.0679  -3.0468
    -3.0233  -3.0203  -3.0202  -3.0136  -3.0135  -3.0092  -3.0092  -2.9741
    -2.9731  -2.9731  -2.9676  -2.9676  -2.9626  -2.9071  -2.9019  -2.8975
    -2.8975  -2.8753  -2.8753  -2.8700  -2.7813  -2.7707  -2.7707  -2.7610
    -2.7609  -2.7552  -2.7539  -2.7529  -2.7450  -2.7450  -2.7343  -2.7269
    -2.7236  -2.7236  -2.7191  -2.7091  -2.7039  -2.7018  -2.6796  -2.6689
    -2.6689  -2.6530  -2.6530  -2.6360  -2.6360  -2.6271  -2.6271  -2.6065
    -2.5937  -2.5937  -2.5884  -2.5884  -2.5545  -2.5521  -2.5521  -2.4941
    -2.4904  -2.4757  -2.4756  -2.4650  -2.4607  -2.4375  -2.4375  -2.4332
    -2.4204  -2.4204  -2.4087  -2.4087  -2.3918  -2.3918  -2.3647  -2.3647
    -2.3545  -2.3544  -2.3446  -2.3446  -2.3273  -2.3143  -2.2937  -2.2248
    -2.2232  -2.2039  -2.2039  -2.1920  -2.1920  -2.1418  -2.1418  -2.1266
    -2.1071  -2.0945  -2.0945  -2.0763  -2.0579  -2.0579  -2.0447  -2.0379
    -2.0067  -2.0067  -2.0041  -1.9961  -1.9961  -1.9894  -1.9894  -1.9701
    -1.9611  -1.9518  -1.9518  -1.9513  -1.9513  -1.9500  -1.9500  -1.9361
    -1.9161  -1.9161  -1.9127  -1.9072  -1.8943  -1.8943  -1.8899  -1.8899
    -1.8840  -1.8822  -1.8477  -1.8477  -1.8031  -1.7839  -1.7838  -1.7380
    -1.7380  -1.7379  -1.7271  -1.7271  -1.7131  -1.7131  -1.7055  -1.7055
    -1.6950  -1.6950  -1.6745  -1.6745  -1.6375  -1.6375  -1.6201  -1.5978
    -1.5978  -1.5582  -1.5582  -1.5077  -1.5077  -1.4866  -1.4625  -1.4604
    -1.4600  -1.4549  -1.4534  -1.4339  -1.4339  -1.4328  -1.4328  -1.4309
    -1.4307  -1.4300  -1.4288  -1.4275  -1.4006  -1.4006  -1.3676  -1.3665
    -1.3665  -1.3443  -1.3443  -1.3395  -1.3395  -1.3363  -1.3259  -1.2981
    -1.2981  -1.2734  -1.2723  -1.2723  -1.2520  -1.2407  -1.2407  -1.2113
    -1.2113  -1.2043  -1.2043  -1.1656  -1.1656  -1.1536  -1.1536  -1.1528
    -1.1528  -1.1264  -1.1264  -1.1123  -1.1049  -1.1049  -1.0930  -1.0930
    -1.0911  -1.0911  -1.0800  -1.0699  -1.0689  -1.0622  -1.0622  -1.0554
    -1.0513  -1.0513  -1.0350  -0.9931  -0.9916  -0.9909  -0.9892  -0.9865
    -0.9845  -0.9561  -0.9561  -0.9423  -0.9246  -0.9246  -0.9162  -0.9162
    -0.9079  -0.9012  -0.8989  -0.8629  -0.8629  -0.8515  -0.8515  -0.8312
    -0.8312  -0.8157  -0.7916  -0.7835  -0.7657  -0.7657  -0.7280  -0.7278
    -0.7246  -0.7245  -0.7242  -0.7181  -0.7168  -0.7168  -0.7125  -0.7101
    -0.6770  -0.6770  -0.6755  -0.6755  -0.6741  -0.6741  -0.6600  -0.6600
    -0.6316  -0.3705  -0.3621  -0.3171  -0.3171  -0.2861  -0.2274  -0.0748
    -0.0748  -0.0441   0.2407   0.2407   0.5817   0.5817   0.6252   0.6252
     0.6753   0.6753   0.8349   0.8349   0.9629   0.9646   1.0786   1.5737
     1.6151   1.6206   1.6566   1.6571   1.7951   1.7951   1.8504   1.8504
     2.0330   2.0330   2.3187   2.3451   2.3451   2.3660   2.8017   2.8017
     2.8241   2.8251   2.8410   2.8410   2.9066   2.9074   3.0665   3.1857
     3.1857   3.3730   3.3775   3.4817   3.5538   3.5538   3.8539   3.8539
     3.9109   3.9119   3.9119   4.0590   4.0590   4.0835   4.0835   4.3554
     4.3554   4.3931   4.3931   4.5069   4.5109   4.5746   4.5746   4.8626
     5.4565   5.4565   5.5402   5.5402   5.6635   5.6635   5.7359   5.7359
     5.7523   5.7523   5.7995   5.8569   5.8647   5.9647   6.1521   6.1521
     6.1628   6.1652   6.1676   6.1796   6.2034   6.2034   6.3489   6.3489
     6.3948   6.3949   6.4808

          k = 0.2500 0.2500-0.0833 (167653 PWs)   bands (ev):

    -6.8795  -6.3492  -6.3492  -5.9110  -5.5075  -5.4088  -5.4088  -5.1870
    -5.1870  -5.0900  -5.0900  -4.9565  -4.9489  -4.8394  -4.7511  -4.7468
    -4.7257  -4.7257  -4.5447  -4.5433  -4.5433  -4.5168  -4.5125  -4.5120
    -4.5081  -4.4548  -4.4548  -4.4520  -4.4520  -4.3884  -4.3599  -4.3599
    -4.3031  -4.2999  -4.2986  -4.2625  -4.2625  -4.2486  -4.2440  -4.2253
    -4.2253  -4.1882  -4.1557  -4.1555  -4.1527  -4.1498  -4.1497  -4.1195
    -4.0891  -4.0891  -4.0595  -4.0595  -4.0555  -4.0555  -4.0535  -4.0472
    -4.0150  -4.0150  -3.9548  -3.9548  -3.9226  -3.8964  -3.8892  -3.8858
    -3.8854  -3.8633  -3.8633  -3.8514  -3.8010  -3.8010  -3.7951  -3.7951
    -3.7096  -3.7096  -3.6874  -3.6874  -3.6528  -3.6505  -3.6367  -3.6115
    -3.6115  -3.5671  -3.5671  -3.5645  -3.5645  -3.5397  -3.5397  -3.4594
    -3.4591  -3.4579  -3.4430  -3.4281  -3.4251  -3.4123  -3.4123  -3.4050
    -3.4050  -3.3623  -3.3623  -3.3393  -3.3393  -3.3027  -3.3027  -3.2763
    -3.2552  -3.2552  -3.2090  -3.2090  -3.1764  -3.1488  -3.1485  -3.1478
    -3.1473  -3.1433  -3.1433  -3.1163  -3.1063  -3.0679  -3.0679  -3.0468
    -3.0233  -3.0202  -3.0202  -3.0136  -3.0135  -3.0092  -3.0092  -2.9741
    -2.9731  -2.9731  -2.9676  -2.9676  -2.9626  -2.9071  -2.9019  -2.8975
    -2.8975  -2.8753  -2.8753  -2.8700  -2.7813  -2.7707  -2.7707  -2.7610
    -2.7609  -2.7552  -2.7539  -2.7529  -2.7450  -2.7450  -2.7343  -2.7269
    -2.7236  -2.7236  -2.7191  -2.7091  -2.7039  -2.7018  -2.6796  -2.6689
    -2.6689  -2.6530  -2.6530  -2.6360  -2.6360  -2.6271  -2.6271  -2.6065
    -2.5937  -2.5937  -2.5884  -2.5884  -2.5545  -2.5521  -2.5521  -2.4941
    -2.4904  -2.4757  -2.4756  -2.4650  -2.4607  -2.4375  -2.4375  -2.4332
    -2.4204  -2.4204  -2.4087  -2.4087  -2.3918  -2.3918  -2.3647  -2.3647
    -2.3545  -2.3544  -2.3446  -2.3446  -2.3273  -2.3143  -2.2937  -2.2248
    -2.2232  -2.2039  -2.2039  -2.1920  -2.1920  -2.1418  -2.1418  -2.1266
    -2.1071  -2.0945  -2.0945  -2.0763  -2.0579  -2.0579  -2.0447  -2.0379
    -2.0067  -2.0067  -2.0041  -1.9961  -1.9961  -1.9894  -1.9894  -1.9701
    -1.9611  -1.9518  -1.9518  -1.9513  -1.9513  -1.9500  -1.9500  -1.9361
    -1.9161  -1.9161  -1.9127  -1.9072  -1.8943  -1.8943  -1.8899  -1.8899
    -1.8840  -1.8822  -1.8477  -1.8477  -1.8031  -1.7839  -1.7838  -1.7380
    -1.7380  -1.7379  -1.7271  -1.7271  -1.7131  -1.7131  -1.7055  -1.7055
    -1.6950  -1.6950  -1.6745  -1.6745  -1.6375  -1.6375  -1.6201  -1.5978
    -1.5978  -1.5582  -1.5582  -1.5077  -1.5077  -1.4866  -1.4625  -1.4602
    -1.4602  -1.4549  -1.4534  -1.4339  -1.4339  -1.4328  -1.4328  -1.4309
    -1.4307  -1.4300  -1.4288  -1.4275  -1.4006  -1.4006  -1.3676  -1.3665
    -1.3665  -1.3443  -1.3443  -1.3395  -1.3395  -1.3363  -1.3259  -1.2981
    -1.2981  -1.2734  -1.2723  -1.2723  -1.2520  -1.2407  -1.2407  -1.2113
    -1.2113  -1.2043  -1.2043  -1.1656  -1.1656  -1.1536  -1.1536  -1.1528
    -1.1528  -1.1264  -1.1264  -1.1123  -1.1049  -1.1049  -1.0930  -1.0930
    -1.0911  -1.0911  -1.0800  -1.0699  -1.0689  -1.0622  -1.0622  -1.0554
    -1.0513  -1.0513  -1.0350  -0.9931  -0.9916  -0.9909  -0.9892  -0.9865
    -0.9845  -0.9561  -0.9561  -0.9423  -0.9246  -0.9246  -0.9162  -0.9162
    -0.9079  -0.9012  -0.8989  -0.8629  -0.8629  -0.8515  -0.8515  -0.8312
    -0.8312  -0.8157  -0.7916  -0.7835  -0.7657  -0.7657  -0.7280  -0.7278
    -0.7246  -0.7245  -0.7242  -0.7181  -0.7168  -0.7168  -0.7125  -0.7101
    -0.6770  -0.6770  -0.6755  -0.6755  -0.6741  -0.6741  -0.6600  -0.6600
    -0.6316  -0.3705  -0.3621  -0.3171  -0.3171  -0.2861  -0.2274  -0.0748
    -0.0748  -0.0441   0.2407   0.2407   0.5817   0.5817   0.6252   0.6252
     0.6753   0.6753   0.8349   0.8349   0.9629   0.9646   1.0786   1.5737
     1.6151   1.6206   1.6566   1.6571   1.7951   1.7951   1.8504   1.8504
     2.0330   2.0330   2.3187   2.3451   2.3451   2.3660   2.8017   2.8017
     2.8241   2.8251   2.8410   2.8410   2.9066   2.9074   3.0665   3.1857
     3.1857   3.3730   3.3775   3.4817   3.5538   3.5538   3.8539   3.8539
     3.9109   3.9119   3.9119   4.0590   4.0590   4.0835   4.0835   4.3554
     4.3554   4.3931   4.3931   4.5069   4.5109   4.5746   4.5746   4.8626
     5.4565   5.4565   5.5402   5.5402   5.6635   5.6635   5.7359   5.7359
     5.7523   5.7523   5.7995   5.8569   5.8647   5.9647   6.1521   6.1521
     6.1628   6.1652   6.1676   6.1796   6.2034   6.2034   6.3489   6.3489
     6.3948   6.3948   6.4808

          k =-0.2500 0.2500 0.2500 (167588 PWs)   bands (ev):

    -6.8795  -6.3492  -6.3492  -5.9110  -5.5075  -5.4088  -5.4088  -5.1870
    -5.1870  -5.0900  -5.0900  -4.9565  -4.9489  -4.8394  -4.7510  -4.7468
    -4.7257  -4.7257  -4.5447  -4.5433  -4.5433  -4.5168  -4.5125  -4.5120
    -4.5081  -4.4548  -4.4548  -4.4520  -4.4520  -4.3884  -4.3599  -4.3599
    -4.3031  -4.2999  -4.2986  -4.2625  -4.2625  -4.2486  -4.2440  -4.2253
    -4.2253  -4.1882  -4.1557  -4.1555  -4.1527  -4.1498  -4.1497  -4.1195
    -4.0891  -4.0891  -4.0595  -4.0595  -4.0555  -4.0555  -4.0535  -4.0472
    -4.0150  -4.0150  -3.9548  -3.9548  -3.9226  -3.8964  -3.8892  -3.8858
    -3.8854  -3.8633  -3.8632  -3.8514  -3.8010  -3.8010  -3.7951  -3.7951
    -3.7096  -3.7096  -3.6874  -3.6874  -3.6528  -3.6505  -3.6367  -3.6115
    -3.6115  -3.5671  -3.5671  -3.5645  -3.5645  -3.5397  -3.5397  -3.4594
    -3.4591  -3.4580  -3.4430  -3.4281  -3.4251  -3.4123  -3.4123  -3.4050
    -3.4050  -3.3622  -3.3622  -3.3393  -3.3393  -3.3027  -3.3027  -3.2763
    -3.2552  -3.2552  -3.2090  -3.2089  -3.1764  -3.1488  -3.1485  -3.1477
    -3.1473  -3.1433  -3.1433  -3.1163  -3.1063  -3.0679  -3.0679  -3.0468
    -3.0232  -3.0203  -3.0202  -3.0136  -3.0134  -3.0093  -3.0092  -2.9741
    -2.9731  -2.9731  -2.9676  -2.9676  -2.9626  -2.9071  -2.9019  -2.8975
    -2.8975  -2.8753  -2.8753  -2.8700  -2.7813  -2.7707  -2.7707  -2.7610
    -2.7609  -2.7552  -2.7539  -2.7529  -2.7450  -2.7450  -2.7343  -2.7269
    -2.7236  -2.7236  -2.7191  -2.7090  -2.7039  -2.7018  -2.6796  -2.6689
    -2.6689  -2.6530  -2.6530  -2.6360  -2.6360  -2.6271  -2.6271  -2.6065
    -2.5937  -2.5937  -2.5884  -2.5884  -2.5545  -2.5521  -2.5521  -2.4941
    -2.4904  -2.4757  -2.4756  -2.4650  -2.4607  -2.4375  -2.4374  -2.4332
    -2.4204  -2.4204  -2.4087  -2.4087  -2.3918  -2.3918  -2.3647  -2.3647
    -2.3545  -2.3545  -2.3446  -2.3446  -2.3273  -2.3143  -2.2937  -2.2248
    -2.2232  -2.2039  -2.2039  -2.1920  -2.1920  -2.1418  -2.1418  -2.1266
    -2.1071  -2.0945  -2.0945  -2.0763  -2.0579  -2.0579  -2.0447  -2.0379
    -2.0067  -2.0067  -2.0041  -1.9961  -1.9961  -1.9894  -1.9894  -1.9701
    -1.9611  -1.9518  -1.9518  -1.9513  -1.9513  -1.9500  -1.9500  -1.9361
    -1.9161  -1.9161  -1.9127  -1.9073  -1.8943  -1.8943  -1.8899  -1.8899
    -1.8840  -1.8822  -1.8477  -1.8477  -1.8031  -1.7839  -1.7838  -1.7380
    -1.7380  -1.7379  -1.7270  -1.7270  -1.7131  -1.7131  -1.7055  -1.7055
    -1.6950  -1.6950  -1.6745  -1.6745  -1.6375  -1.6375  -1.6201  -1.5978
    -1.5978  -1.5582  -1.5582  -1.5077  -1.5077  -1.4867  -1.4625  -1.4604
    -1.4600  -1.4549  -1.4535  -1.4339  -1.4339  -1.4328  -1.4328  -1.4309
    -1.4307  -1.4300  -1.4288  -1.4275  -1.4006  -1.4006  -1.3676  -1.3665
    -1.3665  -1.3443  -1.3443  -1.3395  -1.3395  -1.3363  -1.3259  -1.2981
    -1.2980  -1.2734  -1.2723  -1.2723  -1.2520  -1.2407  -1.2407  -1.2113
    -1.2113  -1.2043  -1.2043  -1.1656  -1.1656  -1.1536  -1.1536  -1.1528
    -1.1528  -1.1264  -1.1264  -1.1123  -1.1049  -1.1049  -1.0929  -1.0929
    -1.0911  -1.0911  -1.0800  -1.0699  -1.0689  -1.0622  -1.0622  -1.0554
    -1.0513  -1.0513  -1.0350  -0.9931  -0.9916  -0.9909  -0.9892  -0.9865
    -0.9845  -0.9561  -0.9561  -0.9423  -0.9246  -0.9246  -0.9162  -0.9162
    -0.9079  -0.9012  -0.8989  -0.8629  -0.8629  -0.8515  -0.8515  -0.8312
    -0.8312  -0.8157  -0.7916  -0.7835  -0.7656  -0.7656  -0.7280  -0.7278
    -0.7246  -0.7245  -0.7242  -0.7181  -0.7168  -0.7168  -0.7125  -0.7101
    -0.6770  -0.6770  -0.6755  -0.6755  -0.6741  -0.6741  -0.6600  -0.6600
    -0.6316  -0.3705  -0.3621  -0.3171  -0.3171  -0.2861  -0.2274  -0.0748
    -0.0748  -0.0441   0.2407   0.2407   0.5817   0.5817   0.6252   0.6252
     0.6753   0.6753   0.8349   0.8349   0.9629   0.9646   1.0786   1.5737
     1.6151   1.6206   1.6566   1.6571   1.7951   1.7951   1.8504   1.8504
     2.0330   2.0330   2.3187   2.3451   2.3451   2.3660   2.8017   2.8017
     2.8241   2.8251   2.8410   2.8410   2.9066   2.9074   3.0665   3.1857
     3.1857   3.3730   3.3775   3.4817   3.5538   3.5538   3.8539   3.8539
     3.9109   3.9119   3.9119   4.0590   4.0590   4.0836   4.0836   4.3553
     4.3554   4.3931   4.3931   4.5069   4.5109   4.5746   4.5746   4.8626
     5.4565   5.4565   5.5404   5.5404   5.6635   5.6635   5.7359   5.7359
     5.7441   5.7523   5.7524   5.8561   5.8647   6.1397   6.1486   6.1486
     6.1521   6.1521   6.1628   6.1652   6.1676   6.1796   6.3494   6.3494
     6.3737   6.4786   6.4786

     the Fermi energy is     0.9067 ev

!    total energy              =   -7345.52831820 Ry
     Harris-Foulkes estimate   =   -7345.52831821 Ry
     estimated scf accuracy    <          6.8E-09 Ry

     The total energy is the sum of the following terms:

     one-electron contribution =  -48781.68089814 Ry
     hartree contribution      =   24935.90827529 Ry
     xc contribution           =   -3547.82813647 Ry
     ewald contribution        =   20048.07139698 Ry
     smearing contrib. (-TS)   =       0.00104415 Ry

     convergence has been achieved in  21 iterations

     Writing output data file 001strucdevpbe.save

     init_run     :    108.88s CPU    115.94s WALL (       1 calls)
     electrons    :   4878.29s CPU   5201.31s WALL (       1 calls)

     Called by init_run:
     wfcinit      :     77.19s CPU     83.80s WALL (       1 calls)
     potinit      :      3.22s CPU      3.32s WALL (       1 calls)

     Called by electrons:
     c_bands      :   4035.91s CPU   4309.12s WALL (      22 calls)
     sum_band     :    572.28s CPU    617.19s WALL (      22 calls)
     v_of_rho     :     15.40s CPU     16.49s WALL (      22 calls)
     newd         :    265.52s CPU    268.04s WALL (      22 calls)
     mix_rho      :      2.46s CPU      2.76s WALL (      22 calls)

     Called by c_bands:
     init_us_2    :      7.98s CPU      8.16s WALL (     225 calls)
     cegterg      :   3940.77s CPU   4213.33s WALL (     110 calls)

     Called by *egterg:
     h_psi        :   1695.24s CPU   1895.83s WALL (     608 calls)
     s_psi        :    156.44s CPU    160.35s WALL (     608 calls)
     g_psi        :      3.49s CPU      3.51s WALL (     493 calls)
     cdiaghg      :    921.70s CPU    924.25s WALL (     598 calls)

     Called by h_psi:
     add_vuspsi   :    156.90s CPU    162.00s WALL (     608 calls)

     General routines
     calbec       :    384.58s CPU    385.93s WALL (     718 calls)
     fft          :     87.58s CPU     89.44s WALL (     352 calls)
     ffts         :      1.46s CPU      1.61s WALL (      44 calls)
     fftw         :   1313.06s CPU   1517.20s WALL (  304682 calls)
     interpolate  :      4.67s CPU      5.19s WALL (      44 calls)
     davcio       :      0.00s CPU      0.12s WALL (       5 calls)

     Parallel routines
     fft_scatter  :   1055.52s CPU   1210.12s WALL (  305078 calls)

     PWSCF        :     1h23m CPU        1h28m WALL


   This run was terminated on:  16: 8:46  11Aug2015            

=------------------------------------------------------------------------------=
   JOB DONE.
=------------------------------------------------------------------------------=
