
     Program PWSCF v.5.1.1 starts on  8Aug2015 at 15:46:47 

     This program is part of the open-source Quantum ESPRESSO suite
     for quantum simulation of materials; please cite
         "P. Giannozzi et al., J. Phys.:Condens. Matter 21 395502 (2009);
          URL http://www.quantum-espresso.org", 
     in publications or presentations arising from this work. More details at
     http://www.quantum-espresso.org/quote

     Parallel version (MPI), running on     8 processors
     R & G space division:  proc/nbgrp/npool/nimage =       8
     Waiting for input...
     Reading input from standard input
Warning: card &IONS ignored
Warning: card / ignored
Warning: card &CELL ignored
Warning: card / ignored

     Current dimensions of program PWSCF are:
     Max number of different atomic species (ntypx) = 10
     Max number of k-points (npk) =  40000
     Max angular momentum in pseudopotentials (lmaxx) =  3

     Subspace diagonalization in iterative solution of the eigenvalue problem:
     a serial algorithm will be used


     Parallelization info
     --------------------
     sticks:   dense  smooth     PW     G-vecs:    dense   smooth      PW
     Min        2313    1158    298               474089   167622   21962
     Max        2314    1159    299               474104   167655   21969
     Sum       18505    9265   2385              3792731  1341081  175711


     Title: 
     GOLD                                                                       


     bravais-lattice index     =            8
     lattice parameter (alat)  =      24.1233  a.u.
     unit-cell volume          =   28076.2361 (a.u.)^3
     number of atoms/cell      =            3
     number of atomic types    =            2
     number of electrons       =         8.00
     number of Kohn-Sham states=            8
     kinetic-energy cutoff     =      50.0000  Ry
     charge density cutoff     =     400.0000  Ry
     convergence threshold     =      1.0E-08
     mixing beta               =       0.7000
     number of iterations used =            8  plain     mixing
     Exchange-correlation      =  SLA  PW   PBE  PBE ( 1  4  3  4 0 0)

     celldm(1)=  24.123277  celldm(2)=   1.000000  celldm(3)=   2.000000
     celldm(4)=   0.000000  celldm(5)=   0.000000  celldm(6)=   0.000000

     crystal axes: (cart. coord. in units of alat)
               a(1) = (   1.000000   0.000000   0.000000 )  
               a(2) = (   0.000000   1.000000   0.000000 )  
               a(3) = (   0.000000   0.000000   2.000000 )  

     reciprocal axes: (cart. coord. in units 2 pi/alat)
               b(1) = (  1.000000  0.000000  0.000000 )  
               b(2) = (  0.000000  1.000000  0.000000 )  
               b(3) = (  0.000000  0.000000  0.500000 )  


     PseudoPot. # 1 for H  read from file:
     /home/andrejb/Research/Projects/gold/qe/pseudo/H.pbe-van_ak.UPF
     MD5 check sum: 403db7282739603aa925980fa9b8608d
     Pseudo is Ultrasoft, Zval =  1.0
     Generated by new atomic code, or converted to UPF format
     Using radial grid of  615 points,  1 beta functions with: 
                l(1) =   0
     Q(r) pseudized with  8 coefficients,  rinner =    0.800

     PseudoPot. # 2 for O  read from file:
     /home/andrejb/Research/Projects/gold/qe/pseudo/O.pbe-van_ak.UPF
     MD5 check sum: 4b8c549914a63cae506c6ff22b5af4fe
     Pseudo is Ultrasoft, Zval =  6.0
     Generated by new atomic code, or converted to UPF format
     Using radial grid of  737 points,  4 beta functions with: 
                l(1) =   0
                l(2) =   0
                l(3) =   1
                l(4) =   1
     Q(r) pseudized with  8 coefficients,  rinner =    0.800   0.800   0.800


     atomic species   valence    mass     pseudopotential
        H              1.00     1.01000     H ( 1.00)
        O              6.00    16.00000     O ( 1.00)

     No symmetry found



   Cartesian axes

     site n.     atom                  positions (alat units)
         1           O   tau(   1) = (   0.1666109   0.0000000   0.7343535  )
         2           H   tau(   2) = (   0.1210026  -0.0379673   0.7822990  )
         3           H   tau(   3) = (   0.2137277   0.0392036   0.7797574  )

     number of k points=     6  Marzari-Vanderbilt smearing, width (Ry)=  0.0200
                       cart. coord. in units 2pi/alat
        k(    1) = (   0.2500000   0.2500000   0.0833333), wk =   0.3333333
        k(    2) = (   0.2500000   0.2500000  -0.2500000), wk =   0.3333333
        k(    3) = (  -0.2500000  -0.2500000   0.0833333), wk =   0.3333333
        k(    4) = (  -0.2500000   0.2500000  -0.0833333), wk =   0.3333333
        k(    5) = (   0.2500000  -0.2500000  -0.0833333), wk =   0.3333333
        k(    6) = (  -0.2500000   0.2500000   0.2500000), wk =   0.3333333

     Dense  grid:  3792731 G-vectors     FFT dimensions: ( 160, 160, 320)

     Smooth grid:  1341081 G-vectors     FFT dimensions: ( 120, 120, 225)

     Largest allocated arrays     est. size (Mb)     dimensions
        Kohn-Sham Wavefunctions         2.57 Mb     (   21052,    8)
        NL pseudopotentials             3.21 Mb     (   21052,   10)
        Each V/rho on FFT grid         15.62 Mb     ( 1024000)
        Each G-vector array             3.62 Mb     (  474091)
        G-vector shells                 0.08 Mb     (   10780)
     Largest temporary arrays     est. size (Mb)     dimensions
        Auxiliary wavefunctions        10.28 Mb     (   21052,   32)
        Each subspace H/S matrix        0.02 Mb     (      32,   32)
        Each <psi_i|beta_j> matrix      0.00 Mb     (      10,    8)
        Arrays for rho mixing         125.00 Mb     ( 1024000,    8)

     Initial potential from superposition of free atoms
     Check: negative starting charge=   -0.004921

     starting charge    7.99998, renormalised to    8.00000

     negative rho (up, down):  4.921E-03 0.000E+00
     Starting wfc are    6 randomized atomic wfcs +    2 random wfc

     total cpu time spent up to now is       12.6 secs

     per-process dynamical memory:   199.5 Mb

     Self-consistent Calculation

     iteration #  1     ecut=    50.00 Ry     beta=0.70
     Davidson diagonalization with overlap
     ethr =  1.00E-02,  avg # of iterations =  5.5

     negative rho (up, down):  6.636E-03 0.000E+00

     total cpu time spent up to now is       37.1 secs

     total energy              =     -34.26079807 Ry
     Harris-Foulkes estimate   =     -34.59395029 Ry
     estimated scf accuracy    <       0.45574739 Ry

     iteration #  2     ecut=    50.00 Ry     beta=0.70
     Davidson diagonalization with overlap
     ethr =  5.70E-03,  avg # of iterations =  3.0

     negative rho (up, down):  7.720E-03 0.000E+00

     total cpu time spent up to now is       56.5 secs

     total energy              =     -34.33635934 Ry
     Harris-Foulkes estimate   =     -34.57976969 Ry
     estimated scf accuracy    <       0.51888255 Ry

     iteration #  3     ecut=    50.00 Ry     beta=0.70
     Davidson diagonalization with overlap
     ethr =  5.70E-03,  avg # of iterations =  2.0

     negative rho (up, down):  9.353E-03 0.000E+00

     total cpu time spent up to now is       73.9 secs

     total energy              =     -34.44718149 Ry
     Harris-Foulkes estimate   =     -34.45026259 Ry
     estimated scf accuracy    <       0.00668066 Ry

     iteration #  4     ecut=    50.00 Ry     beta=0.70
     Davidson diagonalization with overlap
     ethr =  8.35E-05,  avg # of iterations = 12.3

     negative rho (up, down):  9.530E-03 0.000E+00

     total cpu time spent up to now is      106.0 secs

     total energy              =     -34.44640557 Ry
     Harris-Foulkes estimate   =     -34.44682616 Ry
     estimated scf accuracy    <       0.00108352 Ry

     iteration #  5     ecut=    50.00 Ry     beta=0.70
     Davidson diagonalization with overlap
     ethr =  1.35E-05,  avg # of iterations =  8.8

     negative rho (up, down):  9.673E-03 0.000E+00

     total cpu time spent up to now is      129.5 secs

     total energy              =     -34.44638474 Ry
     Harris-Foulkes estimate   =     -34.44645778 Ry
     estimated scf accuracy    <       0.00018700 Ry

     iteration #  6     ecut=    50.00 Ry     beta=0.70
     Davidson diagonalization with overlap
     ethr =  2.34E-06,  avg # of iterations =  8.2

     negative rho (up, down):  9.773E-03 0.000E+00

     total cpu time spent up to now is      152.4 secs

     total energy              =     -34.44638881 Ry
     Harris-Foulkes estimate   =     -34.44639503 Ry
     estimated scf accuracy    <       0.00001616 Ry

     iteration #  7     ecut=    50.00 Ry     beta=0.70
     Davidson diagonalization with overlap
     ethr =  2.02E-07,  avg # of iterations =  2.0

     negative rho (up, down):  9.780E-03 0.000E+00

     total cpu time spent up to now is      169.7 secs

     total energy              =     -34.44639087 Ry
     Harris-Foulkes estimate   =     -34.44639107 Ry
     estimated scf accuracy    <       0.00000052 Ry

     iteration #  8     ecut=    50.00 Ry     beta=0.70
     Davidson diagonalization with overlap
     ethr =  6.44E-09,  avg # of iterations =  2.3

     negative rho (up, down):  9.790E-03 0.000E+00

     total cpu time spent up to now is      187.3 secs

     total energy              =     -34.44639095 Ry
     Harris-Foulkes estimate   =     -34.44639097 Ry
     estimated scf accuracy    <       0.00000003 Ry

     iteration #  9     ecut=    50.00 Ry     beta=0.70
     Davidson diagonalization with overlap
     ethr =  3.25E-10,  avg # of iterations =  2.8

     negative rho (up, down):  9.791E-03 0.000E+00

     total cpu time spent up to now is      206.0 secs

     total energy              =     -34.44639096 Ry
     Harris-Foulkes estimate   =     -34.44639097 Ry
     estimated scf accuracy    <       0.00000002 Ry

     iteration # 10     ecut=    50.00 Ry     beta=0.70
     Davidson diagonalization with overlap
     ethr =  1.98E-10,  avg # of iterations =  2.0

     negative rho (up, down):  9.792E-03 0.000E+00

     total cpu time spent up to now is      222.7 secs

     End of self-consistent calculation

          k = 0.2500 0.2500 0.0833 (167653 PWs)   bands (ev):

   -25.2325 -13.0457  -9.2385  -7.1988  -1.0203  -0.1886  -0.0471   0.0729

          k = 0.2500 0.2500-0.2500 (167588 PWs)   bands (ev):

   -25.2325 -13.0457  -9.2385  -7.1988  -1.0203  -0.1794  -0.0948   0.1711

          k =-0.2500-0.2500 0.0833 (167653 PWs)   bands (ev):

   -25.2325 -13.0457  -9.2385  -7.1988  -1.0203  -0.1889  -0.0456   0.0705

          k =-0.2500 0.2500-0.0833 (167653 PWs)   bands (ev):

   -25.2325 -13.0457  -9.2385  -7.1988  -1.0208  -0.1708  -0.0203   0.0498

          k = 0.2500-0.2500-0.0833 (167653 PWs)   bands (ev):

   -25.2325 -13.0457  -9.2385  -7.1988  -1.0208  -0.1708  -0.0196   0.0491

          k =-0.2500 0.2500 0.2500 (167588 PWs)   bands (ev):

   -25.2325 -13.0457  -9.2385  -7.1988  -1.0208  -0.1667  -0.0594   0.0529

     the Fermi energy is    -6.9481 ev

!    total energy              =     -34.44639096 Ry
     Harris-Foulkes estimate   =     -34.44639096 Ry
     estimated scf accuracy    <          5.3E-10 Ry

     The total energy is the sum of the following terms:

     one-electron contribution =     -72.83890178 Ry
     hartree contribution      =      37.85367725 Ry
     xc contribution           =      -8.41013594 Ry
     ewald contribution        =       8.94570753 Ry
     smearing contrib. (-TS)   =       0.00326198 Ry

     convergence has been achieved in  10 iterations

     Writing output data file 001strucdevpbe.save

     init_run     :     11.79s CPU     12.39s WALL (       1 calls)
     electrons    :    200.65s CPU    210.39s WALL (       1 calls)

     Called by init_run:
     wfcinit      :      3.54s CPU      3.67s WALL (       1 calls)
     potinit      :      2.59s CPU      2.82s WALL (       1 calls)

     Called by electrons:
     c_bands      :    119.62s CPU    125.33s WALL (      10 calls)
     sum_band     :     40.60s CPU     42.18s WALL (      10 calls)
     v_of_rho     :     18.57s CPU     20.39s WALL (      11 calls)
     newd         :     17.29s CPU     17.85s WALL (      11 calls)
     mix_rho      :      4.87s CPU      5.04s WALL (      10 calls)

     Called by c_bands:
     init_us_2    :      1.47s CPU      1.48s WALL (     126 calls)
     cegterg      :    117.83s CPU    123.47s WALL (      60 calls)

     Called by *egterg:
     h_psi        :    109.08s CPU    114.36s WALL (     360 calls)
     s_psi        :      1.24s CPU      1.25s WALL (     360 calls)
     g_psi        :      0.27s CPU      0.28s WALL (     294 calls)
     cdiaghg      :      0.08s CPU      0.11s WALL (     354 calls)

     Called by h_psi:
     add_vuspsi   :      1.25s CPU      1.27s WALL (     360 calls)

     General routines
     calbec       :      1.65s CPU      1.84s WALL (     420 calls)
     fft          :     23.07s CPU     25.41s WALL (     171 calls)
     ffts         :      0.95s CPU      1.01s WALL (      21 calls)
     fftw         :     87.04s CPU     92.18s WALL (    3710 calls)
     interpolate  :      4.44s CPU      4.58s WALL (      21 calls)
     davcio       :      0.00s CPU      0.02s WALL (       6 calls)

     Parallel routines
     fft_scatter  :     58.40s CPU     65.35s WALL (    3902 calls)

     PWSCF        :  3m32.99s CPU     3m43.49s WALL


   This run was terminated on:  15:50:31   8Aug2015            

=------------------------------------------------------------------------------=
   JOB DONE.
=------------------------------------------------------------------------------=
