Setting SGE environment for SCC

     Program PWSCF v.5.1.2 starts on  1Jul2015 at 10:49:25 

     This program is part of the open-source Quantum ESPRESSO suite
     for quantum simulation of materials; please cite
         "P. Giannozzi et al., J. Phys.:Condens. Matter 21 395502 (2009);
          URL http://www.quantum-espresso.org", 
     in publications or presentations arising from this work. More details at
     http://www.quantum-espresso.org/quote

     Parallel version (MPI), running on    32 processors
     R & G space division:  proc/nbgrp/npool/nimage =      32
     Reading input from bridge.O1.Au5455.d.2.5.phi.45.psi.0.in
Warning: card &IONS ignored
Warning: card / ignored
Warning: card &CELL ignored
Warning: card / ignored

     Current dimensions of program PWSCF are:
     Max number of different atomic species (ntypx) = 10
     Max number of k-points (npk) =  40000
     Max angular momentum in pseudopotentials (lmaxx) =  3

     IMPORTANT: XC functional enforced from input :
     Exchange-correlation      = VDW-DF ( 1  4  4  0 1 0)
     Any further DFT definition will be discarded
     Please, verify this is what you really want


     Subspace diagonalization in iterative solution of the eigenvalue problem:
     a serial algorithm will be used


     Parallelization info
     --------------------
     sticks:   dense  smooth     PW     G-vecs:    dense   smooth      PW
     Min         445     223     58                96775    34191    4534
     Max         446     224     59                96790    34246    4540
     Sum       14269    7147   1867              3097177  1095093  145167


     Title: 
     bridge.O1.Au5455.d.2.5.phi.45.psi.0                                        


     bravais-lattice index     =            4
     lattice parameter (alat)  =      22.7436  a.u.
     unit-cell volume          =   22924.1508 (a.u.)^3
     number of atoms/cell      =           67
     number of atomic types    =            3
     number of electrons       =       712.00
     number of Kohn-Sham states=          427
     kinetic-energy cutoff     =      50.0000  Ry
     charge density cutoff     =     400.0000  Ry
     convergence threshold     =      1.0E-08
     mixing beta               =       0.7000
     number of iterations used =            8  plain     mixing
     Exchange-correlation      = VDW-DF ( 1  4  4  0 1 0)

     celldm(1)=  22.743643  celldm(2)=   0.000000  celldm(3)=   2.250000
     celldm(4)=   0.000000  celldm(5)=   0.000000  celldm(6)=   0.000000

     crystal axes: (cart. coord. in units of alat)
               a(1) = (   1.000000   0.000000   0.000000 )  
               a(2) = (  -0.500000   0.866025   0.000000 )  
               a(3) = (   0.000000   0.000000   2.250000 )  

     reciprocal axes: (cart. coord. in units 2 pi/alat)
               b(1) = (  1.000000  0.577350 -0.000000 )  
               b(2) = (  0.000000  1.154701  0.000000 )  
               b(3) = (  0.000000 -0.000000  0.444444 )  


     PseudoPot. # 1 for Au read from file:
     /home/scc/andrejb/qe/pseudo/Au.pbe-nd-van.UPF
     MD5 check sum: 458681b50f36d87ef23c61b04bba420a
     Pseudo is Ultrasoft + core correction, Zval = 11.0
     Generated by new atomic code, or converted to UPF format
     Using radial grid of  985 points,  3 beta functions with: 
                l(1) =   1
                l(2) =   2
                l(3) =   2
     Q(r) pseudized with  8 coefficients,  rinner =    1.100   1.100   1.100
                                                       1.100   1.100

     PseudoPot. # 2 for H  read from file:
     /home/scc/andrejb/qe/pseudo/H.pbe-van_ak.UPF
     MD5 check sum: 403db7282739603aa925980fa9b8608d
     Pseudo is Ultrasoft, Zval =  1.0
     Generated by new atomic code, or converted to UPF format
     Using radial grid of  615 points,  1 beta functions with: 
                l(1) =   0
     Q(r) pseudized with  8 coefficients,  rinner =    0.800

     PseudoPot. # 3 for O  read from file:
     /home/scc/andrejb/qe/pseudo/O.pbe-van_ak.UPF
     MD5 check sum: 4b8c549914a63cae506c6ff22b5af4fe
     Pseudo is Ultrasoft, Zval =  6.0
     Generated by new atomic code, or converted to UPF format
     Using radial grid of  737 points,  4 beta functions with: 
                l(1) =   0
                l(2) =   0
                l(3) =   1
                l(4) =   1
     Q(r) pseudized with  8 coefficients,  rinner =    0.800   0.800   0.800


     vdW kernel table read from file vdW_kernel_table
     MD5 check sum: 48e77a2e26edf626eeb0eaa751ad5cac

     atomic species   valence    mass     pseudopotential
        Au            11.00   196.96657     Au( 1.00)
        H              1.00     1.01000     H ( 1.00)
        O              6.00    16.00000     O ( 1.00)

     No symmetry found



   Cartesian axes

     site n.     atom                  positions (alat units)
         1           O   tau(   1) = (   0.2915728   0.2885783   0.8207383  )
         2           H   tau(   2) = (   0.2856432   0.2238914   0.8689919  )
         3           H   tau(   3) = (   0.2973092   0.3513172   0.8714990  )
         4           Au  tau(   4) = (   0.3540481   0.6132292   0.0000000  )
         5           Au  tau(   5) = (   0.4790062   0.3967954   0.0000000  )
         6           Au  tau(   6) = (   0.6039644   0.1803616   0.0000000  )
         7           Au  tau(   7) = (   0.7289225  -0.0360723   0.0000000  )
         8           Au  tau(   8) = (   0.1041318   0.6132292   0.0000000  )
         9           Au  tau(   9) = (   0.2290899   0.3967954   0.0000000  )
        10           Au  tau(  10) = (   0.3540481   0.1803616   0.0000000  )
        11           Au  tau(  11) = (   0.4790062  -0.0360723   0.0000000  )
        12           Au  tau(  12) = (  -0.1457845   0.6132292   0.0000000  )
        13           Au  tau(  13) = (  -0.0208264   0.3967954   0.0000000  )
        14           Au  tau(  14) = (   0.1041318   0.1803616   0.0000000  )
        15           Au  tau(  15) = (   0.2290899  -0.0360723   0.0000000  )
        16           Au  tau(  16) = (  -0.3957008   0.6132292   0.0000000  )
        17           Au  tau(  17) = (  -0.2707426   0.3967954   0.0000000  )
        18           Au  tau(  18) = (  -0.1457845   0.1803616   0.0000000  )
        19           Au  tau(  19) = (  -0.0208264  -0.0360723   0.0000000  )
        20           Au  tau(  20) = (   0.4790062   0.6853738   0.2040557  )
        21           Au  tau(  21) = (   0.6039644   0.4689400   0.2040557  )
        22           Au  tau(  22) = (   0.7289225   0.2525061   0.2040557  )
        23           Au  tau(  23) = (   0.8538806   0.0360723   0.2040557  )
        24           Au  tau(  24) = (   0.2290899   0.6853738   0.2040557  )
        25           Au  tau(  25) = (   0.3540481   0.4689400   0.2040557  )
        26           Au  tau(  26) = (   0.4790062   0.2525061   0.2040557  )
        27           Au  tau(  27) = (   0.6039644   0.0360723   0.2040557  )
        28           Au  tau(  28) = (  -0.0208264   0.6853738   0.2040557  )
        29           Au  tau(  29) = (   0.1041318   0.4689400   0.2040557  )
        30           Au  tau(  30) = (   0.2290899   0.2525061   0.2040557  )
        31           Au  tau(  31) = (   0.3540481   0.0360723   0.2040557  )
        32           Au  tau(  32) = (  -0.2707426   0.6853738   0.2040557  )
        33           Au  tau(  33) = (  -0.1457845   0.4689400   0.2040557  )
        34           Au  tau(  34) = (  -0.0208264   0.2525061   0.2040557  )
        35           Au  tau(  35) = (   0.1041318   0.0360723   0.2040557  )
        36           Au  tau(  36) = (   0.3541162   0.7576593   0.4066483  )
        37           Au  tau(  37) = (   0.4791000   0.5411421   0.4066695  )
        38           Au  tau(  38) = (   0.6040570   0.3246862   0.4066617  )
        39           Au  tau(  39) = (   0.7290270   0.1081684   0.4066529  )
        40           Au  tau(  40) = (   0.1041162   0.7576236   0.4066247  )
        41           Au  tau(  41) = (   0.2291001   0.5411063   0.4066455  )
        42           Au  tau(  42) = (   0.3540567   0.3246505   0.4066380  )
        43           Au  tau(  43) = (   0.4790276   0.1081324   0.4066292  )
        44           Au  tau(  44) = (  -0.1458201   0.7576104   0.4066224  )
        45           Au  tau(  45) = (  -0.0208365   0.5410930   0.4066438  )
        46           Au  tau(  46) = (   0.1041202   0.3246372   0.4066359  )
        47           Au  tau(  47) = (   0.2290908   0.1081193   0.4066273  )
        48           Au  tau(  48) = (  -0.3958167   0.7575791   0.4065812  )
        49           Au  tau(  49) = (  -0.2708328   0.5410617   0.4066025  )
        50           Au  tau(  50) = (  -0.1458763   0.3246061   0.4065947  )
        51           Au  tau(  51) = (  -0.0209056   0.1080882   0.4065858  )
        52           Au  tau(  52) = (   0.3541085   0.6133344   0.6129762  )
        53           Au  tau(  53) = (   0.4790780   0.3968269   0.6129968  )
        54           Au  tau(  54) = (   0.6040356   0.1803811   0.6129859  )
        55           Au  tau(  55) = (   0.7290165  -0.0361221   0.6129385  )
        56           Au  tau(  56) = (   0.1041243   0.6133091   0.6130022  )
        57           Au  tau(  57) = (   0.2290941   0.3968013   0.6130241  )
        58           Au  tau(  58) = (   0.3540515   0.1803552   0.6130121  )
        59           Au  tau(  59) = (   0.4790323  -0.0361475   0.6129659  )
        60           Au  tau(  60) = (  -0.1458030   0.6133014   0.6129980  )
        61           Au  tau(  61) = (  -0.0208339   0.3967936   0.6130188  )
        62           Au  tau(  62) = (   0.1041239   0.1803477   0.6130083  )
        63           Au  tau(  63) = (   0.2291046  -0.0361554   0.6129607  )
        64           Au  tau(  64) = (  -0.3957908   0.6132739   0.6129471  )
        65           Au  tau(  65) = (  -0.2708208   0.3967658   0.6129688  )
        66           Au  tau(  66) = (  -0.1458636   0.1803200   0.6129569  )
        67           Au  tau(  67) = (  -0.0208823  -0.0361826   0.6129110  )

     number of k points=    12  Marzari-Vanderbilt smearing, width (Ry)=  0.0200
                       cart. coord. in units 2pi/alat
        k(    1) = (   0.2500000   0.4330127   0.1111111), wk =   0.1666667
        k(    2) = (   0.2500000  -0.1443376   0.1111111), wk =   0.1666667
        k(    3) = (  -0.2500000  -0.4330127   0.1111111), wk =   0.1666667
        k(    4) = (  -0.2500000   0.4330127  -0.1111111), wk =   0.1666667
        k(    5) = (   0.2500000  -0.4330127  -0.1111111), wk =   0.1666667
        k(    6) = (   0.5000000   0.0000000   0.1111111), wk =   0.1666667
        k(    7) = (  -0.5000000   0.0000000   0.1111111), wk =   0.1666667
        k(    8) = (  -0.2500000   0.1443376   0.1111111), wk =   0.1666667
        k(    9) = (  -0.2500000  -0.1443376  -0.1111111), wk =   0.1666667
        k(   10) = (   0.2500000   0.1443376  -0.1111111), wk =   0.1666667
        k(   11) = (   0.0000000  -0.2886751   0.1111111), wk =   0.1666667
        k(   12) = (   0.0000000   0.2886751   0.1111111), wk =   0.1666667

     Dense  grid:  3097177 G-vectors     FFT dimensions: ( 150, 150, 360)

     Smooth grid:  1095093 G-vectors     FFT dimensions: ( 108, 108, 240)

     Largest allocated arrays     est. size (Mb)     dimensions
        Kohn-Sham Wavefunctions        28.01 Mb     (    4299,  427)
        NL pseudopotentials            55.23 Mb     (    4299,  842)
        Each V/rho on FFT grid          4.12 Mb     (  270000)
        Each G-vector array             0.74 Mb     (   96788)
        G-vector shells                 0.16 Mb     (   21404)
     Largest temporary arrays     est. size (Mb)     dimensions
        Auxiliary wavefunctions       112.04 Mb     (    4299, 1708)
        Each subspace H/S matrix       44.51 Mb     (    1708, 1708)
        Each <psi_i|beta_j> matrix      5.49 Mb     (     842,  427)
        Arrays for rho mixing          32.96 Mb     (  270000,    8)

     Initial potential from superposition of free atoms
     Check: negative starting charge=   -1.730298

     starting charge  711.25682, renormalised to  712.00000

     negative rho (up, down):  1.732E+00 0.000E+00


     ************************************************************************
     *
     * You are using vdW-DF for exchange-correlation in this calculation.
     * Please cite the following three references that made this development
     * possible:
     *
     *   M. Dion, H. Rydberg, E. Schroder, D. C. Langreth, and
     *   B. I. Lundqvist, Phys. Rev. Lett. 92, 246401 (2004).
     *
     *   T. Thonhauser, V. R. Cooper, S. Li, A. Puzder, P. Hyldgaard, and
     *   D. C. Langreth, Phys. Rev. B 76, 125112 (2007).
     *
     *   G. Roman-Perez and J. M. Soler, Phys. Rev. Lett. 103, 096102 (2009).
     *
     *
     * If you are using vdW-DF2, please also cite:
     *
     *   K. Lee, E. D. Murray, L. Kong, B. I. Lundqvist, and
     *   D. C. Langreth, Phys. Rev. B 82, 081101(R) (2010).
     *
     *
     * If you are calculating the stress with vdW-DF, please also cite:
     *
     *   R. Sabatini, E. Kucukbenli, B. Kolb, T. Thonhauser, and
     *   S. de Gironcoli, J. Phys.: Condens. Matter 24, 424209 (2012).
     *
     ************************************************************************

     Carrying out vdW-DF run using the following parameters:

     Nqs =      20    Nr_points =    1024   r_max =   100.000
     q_mesh =
               0.00001000     0.04494208     0.09755937     0.15916263
               0.23128650     0.31572767     0.41458969     0.53033537
               0.66584808     0.82450364     1.01025438     1.22772762
               1.48234092     1.78043706     2.12944203     2.53805004
               3.01644009     3.57652955     4.23227104     5.00000000

     Gradients computed in reciprocal space

     ************************************************************************


     Starting wfc are  582 randomized atomic wfcs

     total cpu time spent up to now is      234.1 secs

     Self-consistent Calculation

     iteration #  1     ecut=    50.00 Ry     beta=0.70
     Davidson diagonalization with overlap
     ethr =  1.00E-02,  avg # of iterations =  3.0

     Threshold (ethr) on eigenvalues was too large:
     Diagonalizing with lowered threshold

     Davidson diagonalization with overlap
     ethr =  3.58E-04,  avg # of iterations =  5.0

     negative rho (up, down):  1.728E+00 0.000E+00

     total cpu time spent up to now is     1109.0 secs

     total energy              =   -6602.73757018 Ry
     Harris-Foulkes estimate   =   -6605.04569007 Ry
     estimated scf accuracy    <       2.88616472 Ry

     iteration #  2     ecut=    50.00 Ry     beta=0.70
     Davidson diagonalization with overlap
     ethr =  4.05E-04,  avg # of iterations = 11.3

     negative rho (up, down):  1.725E+00 0.000E+00

     total cpu time spent up to now is     2619.1 secs

     total energy              =   -6595.79067044 Ry
     Harris-Foulkes estimate   =   -6610.41088633 Ry
     estimated scf accuracy    <      84.99794201 Ry

     iteration #  3     ecut=    50.00 Ry     beta=0.70
     Davidson diagonalization with overlap
     ethr =  4.05E-04,  avg # of iterations =  6.0

     negative rho (up, down):  1.733E+00 0.000E+00

     total cpu time spent up to now is     3556.1 secs

     total energy              =   -6602.98226311 Ry
     Harris-Foulkes estimate   =   -6605.04240016 Ry
     estimated scf accuracy    <       9.97049835 Ry

     iteration #  4     ecut=    50.00 Ry     beta=0.70
     Davidson diagonalization with overlap
     ethr =  4.05E-04,  avg # of iterations =  7.0

     negative rho (up, down):  1.737E+00 0.000E+00

     total cpu time spent up to now is     4163.3 secs

     total energy              =   -6602.97009672 Ry
     Harris-Foulkes estimate   =   -6605.62555075 Ry
     estimated scf accuracy    <      29.85573553 Ry

     iteration #  5     ecut=    50.00 Ry     beta=0.70
     Davidson diagonalization with overlap
     ethr =  4.05E-04,  avg # of iterations =  6.8

     negative rho (up, down):  1.746E+00 0.000E+00

     total cpu time spent up to now is     4717.3 secs

     total energy              =   -6604.35158726 Ry
     Harris-Foulkes estimate   =   -6604.56939563 Ry
     estimated scf accuracy    <       1.08730416 Ry

     iteration #  6     ecut=    50.00 Ry     beta=0.70
     Davidson diagonalization with overlap
     ethr =  1.53E-04,  avg # of iterations =  3.7

     negative rho (up, down):  1.750E+00 0.000E+00

     total cpu time spent up to now is     5141.1 secs

     total energy              =   -6604.40424255 Ry
     Harris-Foulkes estimate   =   -6604.46561363 Ry
     estimated scf accuracy    <       0.19636186 Ry

     iteration #  7     ecut=    50.00 Ry     beta=0.70
     Davidson diagonalization with overlap
     ethr =  2.76E-05,  avg # of iterations =  8.2

     negative rho (up, down):  1.753E+00 0.000E+00

     total cpu time spent up to now is     5673.9 secs

     total energy              =   -6604.41986468 Ry
     Harris-Foulkes estimate   =   -6604.44470793 Ry
     estimated scf accuracy    <       0.09964838 Ry

     iteration #  8     ecut=    50.00 Ry     beta=0.70
     Davidson diagonalization with overlap
     ethr =  1.40E-05,  avg # of iterations =  8.3

     negative rho (up, down):  1.754E+00 0.000E+00

     total cpu time spent up to now is     6233.6 secs

     total energy              =   -6604.42159654 Ry
     Harris-Foulkes estimate   =   -6604.43634099 Ry
     estimated scf accuracy    <       0.05075003 Ry

     iteration #  9     ecut=    50.00 Ry     beta=0.70
     Davidson diagonalization with overlap
     c_bands:  1 eigenvalues not converged
     ethr =  7.13E-06,  avg # of iterations = 12.1

     negative rho (up, down):  1.755E+00 0.000E+00

     total cpu time spent up to now is     6899.3 secs

     total energy              =   -6604.42448625 Ry
     Harris-Foulkes estimate   =   -6604.42963435 Ry
     estimated scf accuracy    <       0.01456290 Ry

     iteration # 10     ecut=    50.00 Ry     beta=0.70
     Davidson diagonalization with overlap
     ethr =  2.05E-06,  avg # of iterations =  8.4

     negative rho (up, down):  1.756E+00 0.000E+00

     total cpu time spent up to now is     7470.8 secs

     total energy              =   -6604.42594201 Ry
     Harris-Foulkes estimate   =   -6604.42753098 Ry
     estimated scf accuracy    <       0.00562511 Ry

     iteration # 11     ecut=    50.00 Ry     beta=0.70
     Davidson diagonalization with overlap
     ethr =  7.90E-07,  avg # of iterations =  6.2

     negative rho (up, down):  1.757E+00 0.000E+00

     total cpu time spent up to now is     7971.5 secs

     total energy              =   -6604.42643106 Ry
     Harris-Foulkes estimate   =   -6604.42696993 Ry
     estimated scf accuracy    <       0.00239551 Ry

     iteration # 12     ecut=    50.00 Ry     beta=0.70
     Davidson diagonalization with overlap
     ethr =  3.36E-07,  avg # of iterations =  3.0

     negative rho (up, down):  1.757E+00 0.000E+00

     total cpu time spent up to now is     8367.5 secs

     total energy              =   -6604.42655956 Ry
     Harris-Foulkes estimate   =   -6604.42673077 Ry
     estimated scf accuracy    <       0.00040562 Ry

     iteration # 13     ecut=    50.00 Ry     beta=0.70
     Davidson diagonalization with overlap
     ethr =  5.70E-08,  avg # of iterations =  7.1

     negative rho (up, down):  1.757E+00 0.000E+00

     total cpu time spent up to now is     8951.5 secs

     total energy              =   -6604.42658833 Ry
     Harris-Foulkes estimate   =   -6604.42667426 Ry
     estimated scf accuracy    <       0.00029526 Ry

     iteration # 14     ecut=    50.00 Ry     beta=0.70
     Davidson diagonalization with overlap
     ethr =  4.15E-08,  avg # of iterations =  2.0

     negative rho (up, down):  1.757E+00 0.000E+00

     total cpu time spent up to now is     9366.9 secs

     total energy              =   -6604.42661768 Ry
     Harris-Foulkes estimate   =   -6604.42665155 Ry
     estimated scf accuracy    <       0.00019062 Ry

     iteration # 15     ecut=    50.00 Ry     beta=0.70
     Davidson diagonalization with overlap
     ethr =  2.68E-08,  avg # of iterations =  1.3

     negative rho (up, down):  1.757E+00 0.000E+00

     total cpu time spent up to now is     9748.4 secs

     total energy              =   -6604.42663446 Ry
     Harris-Foulkes estimate   =   -6604.42664175 Ry
     estimated scf accuracy    <       0.00003821 Ry

     iteration # 16     ecut=    50.00 Ry     beta=0.70
     Davidson diagonalization with overlap
     ethr =  5.37E-09,  avg # of iterations =  2.7

     negative rho (up, down):  1.757E+00 0.000E+00

     total cpu time spent up to now is    10138.6 secs

     total energy              =   -6604.42663538 Ry
     Harris-Foulkes estimate   =   -6604.42664183 Ry
     estimated scf accuracy    <       0.00003787 Ry

     iteration # 17     ecut=    50.00 Ry     beta=0.70
     Davidson diagonalization with overlap
     ethr =  5.32E-09,  avg # of iterations =  1.2

     negative rho (up, down):  1.757E+00 0.000E+00

     total cpu time spent up to now is    10508.4 secs

     total energy              =   -6604.42663817 Ry
     Harris-Foulkes estimate   =   -6604.42663917 Ry
     estimated scf accuracy    <       0.00000408 Ry

     iteration # 18     ecut=    50.00 Ry     beta=0.70
     Davidson diagonalization with overlap
     ethr =  5.73E-10,  avg # of iterations =  2.0

     negative rho (up, down):  1.757E+00 0.000E+00

     total cpu time spent up to now is    10897.1 secs

     total energy              =   -6604.42663863 Ry
     Harris-Foulkes estimate   =   -6604.42663902 Ry
     estimated scf accuracy    <       0.00000167 Ry

     iteration # 19     ecut=    50.00 Ry     beta=0.70
     Davidson diagonalization with overlap
     ethr =  2.34E-10,  avg # of iterations =  3.0

     negative rho (up, down):  1.757E+00 0.000E+00

     total cpu time spent up to now is    11301.4 secs

     total energy              =   -6604.42663883 Ry
     Harris-Foulkes estimate   =   -6604.42663887 Ry
     estimated scf accuracy    <       0.00000016 Ry

     iteration # 20     ecut=    50.00 Ry     beta=0.70
     Davidson diagonalization with overlap
     ethr =  2.25E-11,  avg # of iterations =  2.4

     negative rho (up, down):  1.757E+00 0.000E+00

     total cpu time spent up to now is    11770.8 secs

     total energy              =   -6604.42663890 Ry
     Harris-Foulkes estimate   =   -6604.42663888 Ry
     estimated scf accuracy    <       0.00000009 Ry

     iteration # 21     ecut=    50.00 Ry     beta=0.70
     Davidson diagonalization with overlap
     ethr =  1.25E-11,  avg # of iterations =  2.0

     negative rho (up, down):  1.757E+00 0.000E+00

     total cpu time spent up to now is    12155.0 secs

     total energy              =   -6604.42663892 Ry
     Harris-Foulkes estimate   =   -6604.42663891 Ry
     estimated scf accuracy    <       0.00000002 Ry

     iteration # 22     ecut=    50.00 Ry     beta=0.70
     Davidson diagonalization with overlap
     ethr =  2.73E-12,  avg # of iterations =  2.0

     negative rho (up, down):  1.757E+00 0.000E+00

     total cpu time spent up to now is    12554.8 secs

     End of self-consistent calculation

          k = 0.2500 0.4330 0.1111 (136853 PWs)   bands (ev):

   -19.5574  -7.3631  -6.1844  -5.7862  -5.7839  -5.1147  -4.7754  -4.7725
    -4.7520  -4.7346  -4.3760  -4.3723  -4.2902  -4.2737  -4.2655  -4.2549
    -4.2375  -4.1133  -4.1064  -4.0909  -4.0782  -4.0385  -4.0358  -3.9694
    -3.9684  -3.9637  -3.9532  -3.9406  -3.9354  -3.9237  -3.8650  -3.8346
    -3.8327  -3.8244  -3.8208  -3.8071  -3.7974  -3.7911  -3.7742  -3.7665
    -3.7631  -3.7330  -3.6877  -3.6853  -3.6396  -3.6382  -3.5818  -3.5760
    -3.5263  -3.5252  -3.5251  -3.5164  -3.4893  -3.4530  -3.4470  -3.4442
    -3.4425  -3.4391  -3.4141  -3.4134  -3.4039  -3.3435  -3.3393  -3.3347
    -3.3141  -3.3082  -3.2370  -3.2307  -3.2050  -3.2035  -3.1753  -3.1735
    -3.1605  -3.1430  -3.0855  -3.0827  -3.0672  -3.0667  -3.0151  -3.0119
    -3.0058  -2.9712  -2.9415  -2.9393  -2.9317  -2.9294  -2.9194  -2.9175
    -2.9120  -2.9080  -2.8997  -2.8595  -2.8217  -2.8210  -2.8075  -2.8068
    -2.7805  -2.7724  -2.7706  -2.7500  -2.7042  -2.7020  -2.6938  -2.6565
    -2.6495  -2.6380  -2.6368  -2.6104  -2.6055  -2.5779  -2.5436  -2.5397
    -2.5205  -2.5115  -2.4991  -2.4971  -2.4490  -2.4468  -2.4150  -2.3931
    -2.3917  -2.3683  -2.3660  -2.3575  -2.3550  -2.3458  -2.3245  -2.3220
    -2.2783  -2.2776  -2.2766  -2.2605  -2.2604  -2.2532  -2.2466  -2.2439
    -2.2433  -2.2422  -2.2351  -2.2255  -2.2242  -2.2199  -2.1901  -2.1870
    -2.1860  -2.1855  -2.1838  -2.1815  -2.1755  -2.1527  -2.1506  -2.1372
    -2.1330  -2.1178  -2.1170  -2.1104  -2.1080  -2.1073  -2.1043  -2.0896
    -2.0870  -2.0861  -2.0798  -2.0662  -2.0426  -2.0398  -1.9996  -1.9990
    -1.9765  -1.9754  -1.9557  -1.9473  -1.9210  -1.9177  -1.9025  -1.8972
    -1.8782  -1.8662  -1.8516  -1.8466  -1.8428  -1.8382  -1.8328  -1.8304
    -1.8048  -1.7993  -1.7906  -1.7513  -1.7316  -1.7282  -1.7265  -1.7175
    -1.7054  -1.6685  -1.6681  -1.6485  -1.6398  -1.6147  -1.5813  -1.5801
    -1.5507  -1.5316  -1.5203  -1.4709  -1.4691  -1.4594  -1.4560  -1.4482
    -1.4473  -1.4429  -1.4353  -1.4309  -1.3784  -1.3759  -1.3665  -1.3648
    -1.3592  -1.3488  -1.3396  -1.3107  -1.3046  -1.2947  -1.2943  -1.2912
    -1.2863  -1.2803  -1.2711  -1.2656  -1.2520  -1.2501  -1.2128  -1.2070
    -1.2003  -1.1892  -1.1761  -1.1640  -1.1214  -1.1173  -1.0958  -1.0899
    -1.0865  -1.0608  -1.0112  -1.0097  -1.0086  -1.0047  -1.0005  -0.9981
    -0.9863  -0.9745  -0.9712  -0.9333  -0.9318  -0.9032  -0.9020  -0.8960
    -0.8942  -0.8895  -0.8731  -0.8726  -0.8717  -0.8690  -0.8661  -0.8312
    -0.8289  -0.8276  -0.8227  -0.7983  -0.7946  -0.7923  -0.7681  -0.7600
    -0.7554  -0.7145  -0.7088  -0.7013  -0.6731  -0.6639  -0.6539  -0.6530
    -0.6474  -0.6460  -0.6435  -0.6398  -0.6296  -0.6265  -0.6061  -0.6048
    -0.6010  -0.6000  -0.5984  -0.5622  -0.5620  -0.5507  -0.5474  -0.5338
    -0.5288  -0.5194  -0.5152  -0.4603  -0.4596  -0.4507  -0.4502  -0.4477
    -0.4456  -0.4395  -0.4238  -0.4220  -0.4150  -0.4144  -0.4097  -0.4079
    -0.3727  -0.3710  -0.3695  -0.3622  -0.3612  -0.3562  -0.3549  -0.3383
    -0.3368  -0.3341  -0.3289  -0.2931  -0.2921  -0.2847  -0.2805  -0.2788
    -0.2039  -0.2026  -0.2002  -0.1993  -0.1905  -0.1883  -0.1539  -0.1420
    -0.1413  -0.1136  -0.1091  -0.0957   0.0112   0.0174   0.1156   0.5305
     0.5309   0.5336   0.5344   0.5962   0.6043   0.9827   0.9850   1.0252
     1.0284   1.1371   1.2182   1.3215   1.3383   1.5407   1.5670   2.1817
     2.1839   2.3385   2.3498   2.4743   2.4823   2.5797   2.5805   2.7340
     2.9610   2.9743   3.0955   3.3133   3.3263   3.4013   3.4050   3.5034
     3.5193   3.6961   3.6981   3.7748   3.9759   3.9765   4.0375   4.0405
     4.2941   4.2971   4.3094   4.5440   4.5847   4.5896   4.6322   4.9648
     4.9683   4.9922   5.0421   5.1317   5.3060   5.3075   5.3489   5.4040
     5.6963   5.9243   6.0730   6.0891   6.0964   6.1120   6.1643   6.1681
     6.2146   6.2772   6.2988   6.3208   6.3229   6.3346   6.3369   6.3815
     6.3884   6.4312   6.5033   6.5855   6.6986   6.7511   6.9192   6.9897
     7.0278   7.0404   7.0475

          k = 0.2500-0.1443 0.1111 (136898 PWs)   bands (ev):

   -19.5574  -7.3631  -6.3943  -5.6023  -5.3175  -5.2529  -5.2511  -4.7149
    -4.7126  -4.5942  -4.5806  -4.4467  -4.4112  -4.3341  -4.3246  -4.3007
    -4.2673  -4.2659  -4.1393  -4.1041  -4.0956  -4.0777  -4.0344  -4.0152
    -3.9784  -3.9121  -3.9107  -3.8758  -3.8755  -3.8729  -3.8430  -3.8271
    -3.8246  -3.7206  -3.7201  -3.7130  -3.6993  -3.6825  -3.6818  -3.6708
    -3.6625  -3.6585  -3.6271  -3.6263  -3.6260  -3.6212  -3.5948  -3.5908
    -3.5757  -3.5749  -3.5647  -3.5213  -3.5136  -3.4875  -3.4746  -3.4674
    -3.4671  -3.4540  -3.3928  -3.3920  -3.3593  -3.3562  -3.3434  -3.2872
    -3.2865  -3.2721  -3.2707  -3.2422  -3.2413  -3.2404  -3.2373  -3.0866
    -3.0858  -3.0633  -3.0610  -3.0524  -3.0399  -3.0367  -3.0145  -3.0122
    -2.9640  -2.9625  -2.9477  -2.9463  -2.9264  -2.8805  -2.8783  -2.8591
    -2.8546  -2.8531  -2.8139  -2.8122  -2.8058  -2.8030  -2.7906  -2.7868
    -2.7508  -2.7504  -2.7291  -2.7279  -2.7254  -2.7239  -2.7195  -2.6460
    -2.6435  -2.6411  -2.6142  -2.6133  -2.5551  -2.5509  -2.5239  -2.5214
    -2.5106  -2.5100  -2.5026  -2.4752  -2.4738  -2.4640  -2.4471  -2.4239
    -2.4230  -2.4170  -2.4017  -2.3991  -2.3908  -2.3897  -2.3879  -2.3813
    -2.3760  -2.3302  -2.3004  -2.2985  -2.2834  -2.2697  -2.2638  -2.2626
    -2.2557  -2.2549  -2.2526  -2.2259  -2.2244  -2.2215  -2.2141  -2.2134
    -2.1969  -2.1703  -2.1695  -2.1685  -2.1680  -2.1660  -2.1207  -2.0925
    -2.0904  -2.0883  -2.0836  -2.0731  -2.0650  -2.0611  -2.0443  -2.0437
    -2.0134  -2.0102  -2.0092  -1.9973  -1.9911  -1.9903  -1.9593  -1.9553
    -1.9177  -1.9162  -1.9125  -1.9075  -1.9055  -1.9046  -1.8990  -1.8983
    -1.8961  -1.8928  -1.8875  -1.8742  -1.8699  -1.7933  -1.7467  -1.7299
    -1.7118  -1.7063  -1.7005  -1.6981  -1.6966  -1.6836  -1.6824  -1.6809
    -1.6743  -1.6619  -1.6540  -1.6497  -1.6388  -1.6351  -1.6317  -1.6173
    -1.6084  -1.5962  -1.5813  -1.5609  -1.5491  -1.5414  -1.5368  -1.5280
    -1.5141  -1.5116  -1.5101  -1.4936  -1.4792  -1.4783  -1.4722  -1.4688
    -1.4465  -1.4433  -1.4285  -1.4211  -1.3964  -1.3924  -1.3786  -1.3367
    -1.3345  -1.3243  -1.3170  -1.3068  -1.2961  -1.2931  -1.2622  -1.2597
    -1.2565  -1.2245  -1.2170  -1.2108  -1.2002  -1.1984  -1.1751  -1.1724
    -1.1597  -1.1416  -1.1400  -1.1361  -1.0771  -1.0762  -1.0656  -1.0627
    -1.0483  -1.0467  -1.0359  -1.0325  -1.0163  -1.0038  -0.9762  -0.9752
    -0.9621  -0.9340  -0.9269  -0.9217  -0.9138  -0.9132  -0.9114  -0.9088
    -0.8968  -0.8916  -0.8642  -0.8630  -0.8542  -0.8518  -0.8506  -0.8341
    -0.8257  -0.8103  -0.7973  -0.7877  -0.7737  -0.6930  -0.6800  -0.6748
    -0.6742  -0.6697  -0.6642  -0.6611  -0.6405  -0.6322  -0.6256  -0.6213
    -0.6098  -0.6057  -0.6002  -0.5810  -0.5788  -0.5697  -0.5673  -0.4963
    -0.4951  -0.4649  -0.4582  -0.4565  -0.4530  -0.4492  -0.4480  -0.4438
    -0.4378  -0.4345  -0.4120  -0.3934  -0.3777  -0.3613  -0.3590  -0.3498
    -0.3472  -0.3371  -0.3361  -0.3354  -0.3336  -0.3292  -0.3161  -0.3114
    -0.3100  -0.2813  -0.2793  -0.2782  -0.2666  -0.2651  -0.2467  -0.2154
    -0.2144  -0.2062  -0.2032  -0.1384  -0.1365  -0.1013  -0.1011  -0.0429
    -0.0427  -0.0423  -0.0217  -0.0153   0.2054   0.2284   0.5589   0.5593
     0.6432   0.6641   0.8405   0.8695   0.8853   1.0042   1.0138   1.4393
     1.4398   1.4585   1.7161   1.7494   1.7508   2.0158   2.0367   2.1032
     2.1066   2.1253   2.1496   2.3606   2.3632   2.4500   2.4513   2.5122
     2.5794   2.6076   2.7569   2.8542   3.2882   3.2903   3.2915   3.3060
     3.3485   3.3573   3.6427   3.6447   3.9159   3.9319   4.0081   4.3397
     4.3747   4.3861   4.5649   4.5720   4.6782   4.6847   4.7729   4.8888
     4.8926   5.0057   5.0092   5.0560   5.3119   5.3753   5.3825   5.5067
     5.5533   5.7635   5.7680   5.7826   5.7960   5.7997   5.8506   5.8570
     5.9158   6.0124   6.1824   6.2661   6.4544   6.4673   6.5966   6.5999
     6.6078   6.6132   6.6376   6.7396   6.8139   6.8503   6.8640   6.9878
     7.0267   7.0531   7.0813

          k =-0.2500-0.4330 0.1111 (136853 PWs)   bands (ev):

   -19.5574  -7.3631  -6.1844  -5.7862  -5.7839  -5.1147  -4.7754  -4.7725
    -4.7520  -4.7346  -4.3760  -4.3723  -4.2902  -4.2737  -4.2655  -4.2549
    -4.2375  -4.1133  -4.1064  -4.0909  -4.0782  -4.0385  -4.0358  -3.9694
    -3.9684  -3.9637  -3.9532  -3.9406  -3.9354  -3.9237  -3.8650  -3.8346
    -3.8327  -3.8244  -3.8208  -3.8071  -3.7974  -3.7911  -3.7742  -3.7665
    -3.7631  -3.7330  -3.6877  -3.6853  -3.6396  -3.6382  -3.5818  -3.5760
    -3.5263  -3.5252  -3.5251  -3.5164  -3.4893  -3.4530  -3.4470  -3.4442
    -3.4425  -3.4391  -3.4141  -3.4134  -3.4039  -3.3435  -3.3393  -3.3347
    -3.3141  -3.3082  -3.2370  -3.2307  -3.2050  -3.2035  -3.1753  -3.1735
    -3.1605  -3.1430  -3.0855  -3.0827  -3.0672  -3.0667  -3.0151  -3.0119
    -3.0058  -2.9712  -2.9415  -2.9393  -2.9317  -2.9294  -2.9194  -2.9175
    -2.9120  -2.9080  -2.8997  -2.8595  -2.8217  -2.8210  -2.8075  -2.8068
    -2.7805  -2.7724  -2.7706  -2.7500  -2.7042  -2.7020  -2.6938  -2.6565
    -2.6495  -2.6380  -2.6368  -2.6104  -2.6055  -2.5779  -2.5436  -2.5397
    -2.5205  -2.5115  -2.4991  -2.4971  -2.4490  -2.4468  -2.4150  -2.3931
    -2.3917  -2.3683  -2.3660  -2.3575  -2.3550  -2.3458  -2.3245  -2.3220
    -2.2783  -2.2776  -2.2766  -2.2605  -2.2604  -2.2532  -2.2466  -2.2439
    -2.2433  -2.2422  -2.2351  -2.2255  -2.2242  -2.2199  -2.1901  -2.1870
    -2.1860  -2.1855  -2.1838  -2.1815  -2.1755  -2.1527  -2.1506  -2.1372
    -2.1330  -2.1178  -2.1170  -2.1104  -2.1080  -2.1073  -2.1043  -2.0896
    -2.0870  -2.0861  -2.0798  -2.0662  -2.0426  -2.0398  -1.9996  -1.9990
    -1.9765  -1.9754  -1.9557  -1.9473  -1.9210  -1.9177  -1.9025  -1.8972
    -1.8782  -1.8662  -1.8516  -1.8466  -1.8428  -1.8382  -1.8328  -1.8304
    -1.8048  -1.7993  -1.7906  -1.7513  -1.7316  -1.7282  -1.7265  -1.7175
    -1.7054  -1.6685  -1.6681  -1.6485  -1.6398  -1.6147  -1.5813  -1.5801
    -1.5507  -1.5316  -1.5203  -1.4709  -1.4692  -1.4594  -1.4560  -1.4482
    -1.4473  -1.4429  -1.4353  -1.4309  -1.3784  -1.3759  -1.3665  -1.3648
    -1.3592  -1.3488  -1.3396  -1.3107  -1.3046  -1.2947  -1.2943  -1.2912
    -1.2863  -1.2803  -1.2711  -1.2656  -1.2520  -1.2501  -1.2128  -1.2070
    -1.2003  -1.1892  -1.1761  -1.1640  -1.1214  -1.1173  -1.0958  -1.0899
    -1.0865  -1.0608  -1.0112  -1.0097  -1.0086  -1.0047  -1.0005  -0.9981
    -0.9863  -0.9745  -0.9712  -0.9333  -0.9318  -0.9032  -0.9020  -0.8960
    -0.8942  -0.8895  -0.8731  -0.8726  -0.8717  -0.8690  -0.8661  -0.8312
    -0.8289  -0.8276  -0.8227  -0.7983  -0.7946  -0.7923  -0.7681  -0.7600
    -0.7554  -0.7145  -0.7088  -0.7013  -0.6731  -0.6639  -0.6539  -0.6530
    -0.6474  -0.6460  -0.6435  -0.6398  -0.6296  -0.6265  -0.6061  -0.6048
    -0.6010  -0.6000  -0.5984  -0.5622  -0.5620  -0.5507  -0.5474  -0.5338
    -0.5288  -0.5194  -0.5152  -0.4603  -0.4596  -0.4507  -0.4502  -0.4477
    -0.4456  -0.4395  -0.4238  -0.4220  -0.4150  -0.4144  -0.4097  -0.4079
    -0.3727  -0.3710  -0.3695  -0.3622  -0.3612  -0.3562  -0.3549  -0.3383
    -0.3368  -0.3341  -0.3289  -0.2931  -0.2921  -0.2847  -0.2805  -0.2788
    -0.2039  -0.2026  -0.2002  -0.1993  -0.1905  -0.1883  -0.1539  -0.1420
    -0.1413  -0.1136  -0.1091  -0.0957   0.0112   0.0174   0.1156   0.5305
     0.5309   0.5336   0.5344   0.5962   0.6043   0.9827   0.9850   1.0252
     1.0284   1.1371   1.2182   1.3215   1.3383   1.5407   1.5670   2.1817
     2.1839   2.3385   2.3498   2.4743   2.4823   2.5797   2.5805   2.7340
     2.9610   2.9743   3.0955   3.3133   3.3263   3.4013   3.4050   3.5034
     3.5193   3.6961   3.6981   3.7748   3.9759   3.9765   4.0375   4.0405
     4.2941   4.2971   4.3094   4.5440   4.5847   4.5896   4.6322   4.9648
     4.9683   4.9922   5.0421   5.1317   5.3060   5.3075   5.3489   5.4040
     5.6963   5.9243   6.0735   6.0891   6.0964   6.1118   6.1643   6.1677
     6.2146   6.2772   6.2990   6.3207   6.3229   6.3345   6.3368   6.3822
     6.3884   6.4311   6.5027   6.5832   6.7000   6.7514   6.9216   6.9908
     7.0273   7.0408   7.0473

          k =-0.2500 0.4330-0.1111 (136853 PWs)   bands (ev):

   -19.5574  -7.3631  -6.1843  -5.7874  -5.7826  -5.1144  -4.7764  -4.7736
    -4.7520  -4.7336  -4.3731  -4.3725  -4.2841  -4.2737  -4.2676  -4.2587
    -4.2375  -4.1261  -4.1060  -4.0911  -4.0703  -4.0381  -4.0366  -3.9697
    -3.9693  -3.9645  -3.9481  -3.9409  -3.9348  -3.9226  -3.8644  -3.8348
    -3.8326  -3.8229  -3.8205  -3.8067  -3.7974  -3.7877  -3.7743  -3.7668
    -3.7592  -3.7380  -3.6883  -3.6870  -3.6407  -3.6377  -3.5824  -3.5818
    -3.5267  -3.5254  -3.5252  -3.5232  -3.4896  -3.4536  -3.4528  -3.4442
    -3.4427  -3.4398  -3.4139  -3.4068  -3.3995  -3.3435  -3.3431  -3.3273
    -3.3150  -3.3078  -3.2373  -3.2295  -3.2044  -3.1963  -3.1748  -3.1732
    -3.1603  -3.1435  -3.0864  -3.0851  -3.0675  -3.0652  -3.0172  -3.0118
    -3.0057  -2.9710  -2.9428  -2.9399  -2.9317  -2.9291  -2.9194  -2.9160
    -2.9117  -2.9061  -2.8993  -2.8591  -2.8223  -2.8204  -2.8076  -2.8058
    -2.7803  -2.7729  -2.7682  -2.7501  -2.7035  -2.7019  -2.6969  -2.6567
    -2.6495  -2.6382  -2.6368  -2.6114  -2.6073  -2.5779  -2.5430  -2.5390
    -2.5212  -2.5117  -2.4994  -2.4945  -2.4489  -2.4460  -2.4144  -2.3927
    -2.3902  -2.3714  -2.3684  -2.3565  -2.3550  -2.3456  -2.3250  -2.3229
    -2.2787  -2.2772  -2.2766  -2.2613  -2.2594  -2.2533  -2.2458  -2.2453
    -2.2441  -2.2425  -2.2351  -2.2251  -2.2235  -2.2136  -2.1885  -2.1873
    -2.1862  -2.1855  -2.1840  -2.1812  -2.1746  -2.1571  -2.1514  -2.1387
    -2.1355  -2.1179  -2.1168  -2.1110  -2.1080  -2.1073  -2.1046  -2.0887
    -2.0867  -2.0858  -2.0807  -2.0668  -2.0428  -2.0398  -2.0003  -1.9980
    -1.9767  -1.9742  -1.9530  -1.9444  -1.9284  -1.9202  -1.9085  -1.8984
    -1.8719  -1.8685  -1.8499  -1.8463  -1.8428  -1.8367  -1.8335  -1.8312
    -1.8047  -1.8016  -1.7888  -1.7479  -1.7324  -1.7287  -1.7266  -1.7197
    -1.6847  -1.6697  -1.6676  -1.6650  -1.6404  -1.6126  -1.5811  -1.5794
    -1.5477  -1.5316  -1.5254  -1.4710  -1.4680  -1.4592  -1.4567  -1.4487
    -1.4462  -1.4429  -1.4352  -1.4323  -1.3788  -1.3751  -1.3676  -1.3654
    -1.3612  -1.3486  -1.3307  -1.3129  -1.3070  -1.2950  -1.2937  -1.2908
    -1.2858  -1.2794  -1.2731  -1.2641  -1.2530  -1.2491  -1.2128  -1.2040
    -1.2000  -1.1906  -1.1771  -1.1640  -1.1231  -1.1180  -1.0957  -1.0919
    -1.0849  -1.0611  -1.0109  -1.0089  -1.0079  -1.0069  -1.0022  -0.9979
    -0.9879  -0.9737  -0.9710  -0.9331  -0.9324  -0.9033  -0.9011  -0.8958
    -0.8945  -0.8894  -0.8731  -0.8723  -0.8712  -0.8682  -0.8672  -0.8333
    -0.8285  -0.8274  -0.8202  -0.7978  -0.7953  -0.7918  -0.7669  -0.7609
    -0.7556  -0.7144  -0.7089  -0.7022  -0.6726  -0.6642  -0.6540  -0.6528
    -0.6474  -0.6453  -0.6442  -0.6396  -0.6314  -0.6238  -0.6057  -0.6052
    -0.6009  -0.6003  -0.5978  -0.5622  -0.5618  -0.5527  -0.5472  -0.5325
    -0.5282  -0.5226  -0.5155  -0.4602  -0.4592  -0.4508  -0.4501  -0.4478
    -0.4460  -0.4405  -0.4246  -0.4209  -0.4148  -0.4138  -0.4115  -0.4061
    -0.3727  -0.3709  -0.3694  -0.3625  -0.3598  -0.3560  -0.3543  -0.3434
    -0.3374  -0.3351  -0.3254  -0.2931  -0.2919  -0.2850  -0.2805  -0.2788
    -0.2034  -0.2028  -0.2004  -0.1986  -0.1905  -0.1888  -0.1541  -0.1421
    -0.1408  -0.1156  -0.1092  -0.0942   0.0102   0.0226   0.1183   0.5304
     0.5308   0.5334   0.5346   0.5908   0.6089   0.9830   0.9836   1.0232
     1.0303   1.1379   1.2185   1.3209   1.3400   1.5386   1.5678   2.1781
     2.1863   2.3369   2.3531   2.4677   2.4896   2.5796   2.5808   2.7337
     2.9643   2.9716   3.0942   3.3135   3.3254   3.3997   3.4079   3.5014
     3.5191   3.6951   3.6978   3.7747   3.9755   3.9768   4.0340   4.0451
     4.2934   4.2965   4.3107   4.5450   4.5830   4.5926   4.6315   4.9664
     4.9671   4.9939   5.0376   5.1336   5.3056   5.3078   5.3354   5.4099
     5.7086   5.9144   6.0778   6.0908   6.0970   6.1135   6.1651   6.1671
     6.2178   6.2689   6.2989   6.3207   6.3256   6.3322   6.3439   6.3795
     6.3899   6.4353   6.4916   6.5900   6.7020   6.7397   6.9268   6.9881
     7.0276   7.0306   7.0467

          k = 0.2500-0.4330-0.1111 (136853 PWs)   bands (ev):

   -19.5574  -7.3631  -6.1843  -5.7874  -5.7826  -5.1144  -4.7764  -4.7736
    -4.7520  -4.7336  -4.3731  -4.3725  -4.2841  -4.2737  -4.2676  -4.2587
    -4.2375  -4.1261  -4.1060  -4.0911  -4.0703  -4.0381  -4.0366  -3.9697
    -3.9693  -3.9645  -3.9481  -3.9409  -3.9348  -3.9226  -3.8644  -3.8348
    -3.8326  -3.8229  -3.8205  -3.8067  -3.7974  -3.7877  -3.7743  -3.7668
    -3.7592  -3.7380  -3.6883  -3.6870  -3.6407  -3.6377  -3.5824  -3.5818
    -3.5267  -3.5254  -3.5252  -3.5232  -3.4896  -3.4536  -3.4528  -3.4442
    -3.4427  -3.4398  -3.4139  -3.4068  -3.3995  -3.3435  -3.3431  -3.3273
    -3.3150  -3.3078  -3.2373  -3.2295  -3.2044  -3.1963  -3.1748  -3.1732
    -3.1603  -3.1435  -3.0864  -3.0851  -3.0675  -3.0652  -3.0172  -3.0118
    -3.0057  -2.9710  -2.9428  -2.9399  -2.9317  -2.9291  -2.9194  -2.9160
    -2.9117  -2.9061  -2.8993  -2.8591  -2.8223  -2.8204  -2.8076  -2.8058
    -2.7803  -2.7729  -2.7682  -2.7501  -2.7035  -2.7019  -2.6969  -2.6567
    -2.6495  -2.6382  -2.6368  -2.6114  -2.6073  -2.5779  -2.5430  -2.5390
    -2.5212  -2.5117  -2.4994  -2.4945  -2.4489  -2.4460  -2.4144  -2.3927
    -2.3902  -2.3714  -2.3684  -2.3565  -2.3550  -2.3456  -2.3250  -2.3229
    -2.2787  -2.2772  -2.2766  -2.2613  -2.2594  -2.2533  -2.2458  -2.2453
    -2.2441  -2.2425  -2.2351  -2.2251  -2.2235  -2.2136  -2.1885  -2.1873
    -2.1862  -2.1855  -2.1840  -2.1812  -2.1746  -2.1571  -2.1514  -2.1387
    -2.1355  -2.1179  -2.1168  -2.1110  -2.1080  -2.1073  -2.1046  -2.0887
    -2.0867  -2.0858  -2.0807  -2.0668  -2.0428  -2.0398  -2.0003  -1.9980
    -1.9767  -1.9742  -1.9530  -1.9444  -1.9284  -1.9202  -1.9085  -1.8984
    -1.8719  -1.8685  -1.8499  -1.8463  -1.8428  -1.8367  -1.8335  -1.8312
    -1.8047  -1.8016  -1.7888  -1.7479  -1.7324  -1.7287  -1.7266  -1.7197
    -1.6847  -1.6697  -1.6676  -1.6650  -1.6404  -1.6126  -1.5811  -1.5794
    -1.5477  -1.5316  -1.5254  -1.4710  -1.4680  -1.4592  -1.4567  -1.4487
    -1.4462  -1.4429  -1.4352  -1.4323  -1.3788  -1.3751  -1.3676  -1.3654
    -1.3612  -1.3486  -1.3307  -1.3129  -1.3070  -1.2950  -1.2937  -1.2908
    -1.2858  -1.2794  -1.2731  -1.2641  -1.2530  -1.2491  -1.2128  -1.2040
    -1.2000  -1.1906  -1.1771  -1.1640  -1.1231  -1.1180  -1.0957  -1.0919
    -1.0849  -1.0611  -1.0109  -1.0089  -1.0079  -1.0069  -1.0022  -0.9979
    -0.9879  -0.9737  -0.9710  -0.9331  -0.9324  -0.9033  -0.9011  -0.8958
    -0.8945  -0.8894  -0.8731  -0.8723  -0.8712  -0.8682  -0.8672  -0.8333
    -0.8285  -0.8274  -0.8202  -0.7978  -0.7953  -0.7918  -0.7669  -0.7609
    -0.7556  -0.7144  -0.7089  -0.7022  -0.6726  -0.6642  -0.6540  -0.6528
    -0.6474  -0.6453  -0.6442  -0.6396  -0.6314  -0.6238  -0.6057  -0.6052
    -0.6009  -0.6003  -0.5978  -0.5622  -0.5618  -0.5527  -0.5472  -0.5325
    -0.5282  -0.5226  -0.5155  -0.4602  -0.4592  -0.4508  -0.4501  -0.4478
    -0.4460  -0.4405  -0.4246  -0.4209  -0.4148  -0.4138  -0.4115  -0.4061
    -0.3727  -0.3709  -0.3694  -0.3625  -0.3598  -0.3560  -0.3543  -0.3434
    -0.3374  -0.3351  -0.3254  -0.2931  -0.2919  -0.2850  -0.2805  -0.2788
    -0.2034  -0.2028  -0.2004  -0.1986  -0.1906  -0.1888  -0.1541  -0.1421
    -0.1408  -0.1156  -0.1092  -0.0942   0.0102   0.0226   0.1183   0.5304
     0.5308   0.5334   0.5346   0.5908   0.6089   0.9830   0.9836   1.0232
     1.0303   1.1379   1.2185   1.3209   1.3400   1.5386   1.5678   2.1781
     2.1863   2.3369   2.3531   2.4677   2.4896   2.5796   2.5808   2.7337
     2.9643   2.9716   3.0942   3.3135   3.3254   3.3997   3.4079   3.5014
     3.5191   3.6951   3.6978   3.7747   3.9755   3.9768   4.0340   4.0451
     4.2934   4.2965   4.3107   4.5450   4.5830   4.5926   4.6315   4.9664
     4.9671   4.9939   5.0376   5.1336   5.3056   5.3078   5.3354   5.4099
     5.7087   5.9144   6.0773   6.0908   6.0971   6.1137   6.1654   6.1670
     6.2179   6.2689   6.2988   6.3207   6.3256   6.3323   6.3437   6.3793
     6.3898   6.4352   6.4924   6.5916   6.7006   6.7394   6.9258   6.9872
     7.0273   7.0308   7.0479

          k = 0.5000 0.0000 0.1111 (136853 PWs)   bands (ev):

   -19.5574  -7.3631  -6.1844  -5.7876  -5.7824  -5.1147  -4.7754  -4.7727
    -4.7530  -4.7333  -4.3760  -4.3723  -4.2903  -4.2738  -4.2648  -4.2551
    -4.2375  -4.1128  -4.1069  -4.0910  -4.0783  -4.0387  -4.0358  -3.9696
    -3.9687  -3.9634  -3.9531  -3.9405  -3.9349  -3.9240  -3.8643  -3.8355
    -3.8315  -3.8243  -3.8207  -3.8066  -3.7973  -3.7914  -3.7741  -3.7665
    -3.7631  -3.7339  -3.6879  -3.6854  -3.6407  -3.6371  -3.5824  -3.5759
    -3.5269  -3.5252  -3.5249  -3.5168  -3.4895  -3.4537  -3.4469  -3.4441
    -3.4424  -3.4392  -3.4141  -3.4120  -3.4039  -3.3437  -3.3392  -3.3341
    -3.3141  -3.3079  -3.2366  -3.2306  -3.2044  -3.2034  -3.1748  -3.1741
    -3.1604  -3.1435  -3.0860  -3.0830  -3.0672  -3.0663  -3.0153  -3.0119
    -3.0058  -2.9711  -2.9419  -2.9394  -2.9317  -2.9287  -2.9195  -2.9175
    -2.9119  -2.9075  -2.9001  -2.8595  -2.8223  -2.8204  -2.8074  -2.8066
    -2.7805  -2.7724  -2.7706  -2.7501  -2.7039  -2.7024  -2.6939  -2.6565
    -2.6495  -2.6385  -2.6362  -2.6102  -2.6054  -2.5780  -2.5437  -2.5395
    -2.5206  -2.5116  -2.4994  -2.4971  -2.4486  -2.4471  -2.4147  -2.3930
    -2.3915  -2.3703  -2.3662  -2.3567  -2.3549  -2.3458  -2.3252  -2.3218
    -2.2787  -2.2772  -2.2768  -2.2614  -2.2597  -2.2532  -2.2457  -2.2442
    -2.2434  -2.2421  -2.2352  -2.2249  -2.2245  -2.2200  -2.1914  -2.1872
    -2.1855  -2.1853  -2.1843  -2.1815  -2.1750  -2.1528  -2.1505  -2.1381
    -2.1326  -2.1179  -2.1169  -2.1096  -2.1077  -2.1070  -2.1047  -2.0907
    -2.0867  -2.0864  -2.0795  -2.0665  -2.0423  -2.0402  -2.0004  -1.9981
    -1.9766  -1.9750  -1.9524  -1.9476  -1.9211  -1.9194  -1.9052  -1.8970
    -1.8736  -1.8658  -1.8521  -1.8472  -1.8441  -1.8382  -1.8336  -1.8312
    -1.8059  -1.7978  -1.7912  -1.7521  -1.7317  -1.7300  -1.7262  -1.7181
    -1.7004  -1.6691  -1.6674  -1.6535  -1.6409  -1.6048  -1.5813  -1.5805
    -1.5445  -1.5317  -1.5275  -1.4717  -1.4696  -1.4602  -1.4553  -1.4481
    -1.4474  -1.4432  -1.4356  -1.4301  -1.3825  -1.3721  -1.3683  -1.3664
    -1.3601  -1.3494  -1.3403  -1.3110  -1.3050  -1.2949  -1.2940  -1.2906
    -1.2858  -1.2765  -1.2712  -1.2613  -1.2520  -1.2517  -1.2149  -1.2075
    -1.2008  -1.1883  -1.1722  -1.1636  -1.1206  -1.1192  -1.0955  -1.0906
    -1.0869  -1.0605  -1.0117  -1.0093  -1.0075  -1.0050  -1.0025  -0.9980
    -0.9914  -0.9737  -0.9697  -0.9337  -0.9332  -0.9035  -0.9019  -0.8967
    -0.8937  -0.8901  -0.8734  -0.8723  -0.8706  -0.8676  -0.8634  -0.8340
    -0.8285  -0.8275  -0.8211  -0.7993  -0.7964  -0.7915  -0.7684  -0.7614
    -0.7551  -0.7152  -0.7101  -0.6971  -0.6722  -0.6622  -0.6540  -0.6535
    -0.6477  -0.6457  -0.6420  -0.6384  -0.6319  -0.6253  -0.6064  -0.6052
    -0.6015  -0.6000  -0.5971  -0.5622  -0.5615  -0.5555  -0.5447  -0.5315
    -0.5296  -0.5165  -0.5146  -0.4601  -0.4586  -0.4508  -0.4500  -0.4487
    -0.4460  -0.4430  -0.4234  -0.4216  -0.4150  -0.4137  -0.4127  -0.4068
    -0.3727  -0.3715  -0.3692  -0.3625  -0.3605  -0.3559  -0.3518  -0.3395
    -0.3367  -0.3351  -0.3313  -0.2935  -0.2918  -0.2851  -0.2805  -0.2777
    -0.2039  -0.2021  -0.2002  -0.1989  -0.1907  -0.1900  -0.1543  -0.1420
    -0.1414  -0.1169  -0.1093  -0.0924   0.0099   0.0182   0.1158   0.5304
     0.5313   0.5333   0.5348   0.5895   0.6069   0.9813   0.9856   1.0232
     1.0308   1.1393   1.2204   1.3198   1.3443   1.5366   1.5689   2.1775
     2.1853   2.3352   2.3552   2.4677   2.4852   2.5793   2.5807   2.7339
     2.9587   2.9781   3.0960   3.3120   3.3279   3.4006   3.4066   3.5046
     3.5197   3.6905   3.7026   3.7762   3.9755   3.9770   4.0362   4.0409
     4.2927   4.2975   4.3126   4.5444   4.5827   4.5908   4.6324   4.9645
     4.9673   4.9979   5.0536   5.1271   5.3054   5.3090   5.3275   5.3917
     5.7775   5.8448   6.0889   6.0910   6.0940   6.1226   6.1628   6.1714
     6.2184   6.2720   6.3016   6.3142   6.3265   6.3307   6.3392   6.3851
     6.3893   6.4236   6.4491   6.6111   6.6788   6.7574   6.9396   6.9780
     7.0275   7.0384   7.0490

          k =-0.5000 0.0000 0.1111 (136853 PWs)   bands (ev):

   -19.5574  -7.3631  -6.1844  -5.7876  -5.7824  -5.1147  -4.7754  -4.7727
    -4.7530  -4.7333  -4.3760  -4.3723  -4.2903  -4.2738  -4.2648  -4.2551
    -4.2375  -4.1128  -4.1069  -4.0910  -4.0783  -4.0387  -4.0358  -3.9696
    -3.9687  -3.9634  -3.9531  -3.9405  -3.9349  -3.9240  -3.8643  -3.8355
    -3.8315  -3.8243  -3.8207  -3.8066  -3.7973  -3.7914  -3.7741  -3.7665
    -3.7631  -3.7339  -3.6879  -3.6854  -3.6407  -3.6371  -3.5824  -3.5759
    -3.5269  -3.5252  -3.5249  -3.5168  -3.4895  -3.4537  -3.4469  -3.4441
    -3.4424  -3.4392  -3.4141  -3.4120  -3.4039  -3.3437  -3.3392  -3.3341
    -3.3141  -3.3079  -3.2366  -3.2306  -3.2044  -3.2034  -3.1748  -3.1741
    -3.1604  -3.1435  -3.0860  -3.0830  -3.0672  -3.0663  -3.0153  -3.0119
    -3.0058  -2.9711  -2.9419  -2.9394  -2.9317  -2.9287  -2.9195  -2.9175
    -2.9119  -2.9075  -2.9001  -2.8595  -2.8223  -2.8204  -2.8074  -2.8066
    -2.7805  -2.7724  -2.7706  -2.7501  -2.7039  -2.7024  -2.6939  -2.6565
    -2.6495  -2.6385  -2.6362  -2.6102  -2.6054  -2.5780  -2.5437  -2.5395
    -2.5206  -2.5116  -2.4994  -2.4971  -2.4486  -2.4471  -2.4147  -2.3930
    -2.3915  -2.3703  -2.3662  -2.3567  -2.3549  -2.3458  -2.3252  -2.3218
    -2.2787  -2.2772  -2.2768  -2.2614  -2.2597  -2.2532  -2.2457  -2.2442
    -2.2434  -2.2421  -2.2352  -2.2249  -2.2245  -2.2200  -2.1914  -2.1872
    -2.1855  -2.1853  -2.1843  -2.1815  -2.1750  -2.1528  -2.1505  -2.1381
    -2.1326  -2.1179  -2.1169  -2.1096  -2.1077  -2.1070  -2.1047  -2.0907
    -2.0867  -2.0864  -2.0795  -2.0665  -2.0423  -2.0402  -2.0004  -1.9981
    -1.9766  -1.9750  -1.9524  -1.9476  -1.9211  -1.9194  -1.9052  -1.8970
    -1.8736  -1.8658  -1.8521  -1.8472  -1.8441  -1.8382  -1.8336  -1.8312
    -1.8059  -1.7978  -1.7912  -1.7521  -1.7317  -1.7300  -1.7262  -1.7181
    -1.7004  -1.6691  -1.6674  -1.6535  -1.6410  -1.6048  -1.5813  -1.5805
    -1.5445  -1.5317  -1.5275  -1.4717  -1.4696  -1.4602  -1.4553  -1.4481
    -1.4474  -1.4432  -1.4356  -1.4301  -1.3825  -1.3721  -1.3683  -1.3664
    -1.3601  -1.3494  -1.3403  -1.3111  -1.3050  -1.2949  -1.2940  -1.2906
    -1.2858  -1.2765  -1.2712  -1.2613  -1.2520  -1.2517  -1.2149  -1.2075
    -1.2008  -1.1883  -1.1722  -1.1636  -1.1206  -1.1192  -1.0955  -1.0906
    -1.0869  -1.0605  -1.0117  -1.0093  -1.0075  -1.0050  -1.0025  -0.9980
    -0.9914  -0.9737  -0.9697  -0.9338  -0.9332  -0.9035  -0.9019  -0.8967
    -0.8937  -0.8901  -0.8734  -0.8723  -0.8706  -0.8676  -0.8634  -0.8340
    -0.8285  -0.8275  -0.8211  -0.7993  -0.7964  -0.7915  -0.7684  -0.7614
    -0.7551  -0.7152  -0.7101  -0.6971  -0.6722  -0.6622  -0.6540  -0.6535
    -0.6477  -0.6457  -0.6420  -0.6384  -0.6319  -0.6253  -0.6064  -0.6052
    -0.6015  -0.6000  -0.5971  -0.5622  -0.5615  -0.5555  -0.5447  -0.5315
    -0.5296  -0.5165  -0.5146  -0.4601  -0.4586  -0.4508  -0.4500  -0.4487
    -0.4460  -0.4430  -0.4234  -0.4216  -0.4150  -0.4137  -0.4127  -0.4068
    -0.3727  -0.3715  -0.3692  -0.3625  -0.3605  -0.3559  -0.3518  -0.3395
    -0.3367  -0.3351  -0.3313  -0.2935  -0.2918  -0.2851  -0.2805  -0.2777
    -0.2039  -0.2021  -0.2002  -0.1989  -0.1907  -0.1900  -0.1543  -0.1420
    -0.1414  -0.1169  -0.1093  -0.0924   0.0099   0.0182   0.1158   0.5304
     0.5313   0.5333   0.5348   0.5895   0.6069   0.9813   0.9856   1.0232
     1.0308   1.1393   1.2204   1.3198   1.3443   1.5366   1.5689   2.1775
     2.1853   2.3352   2.3552   2.4677   2.4852   2.5793   2.5807   2.7339
     2.9587   2.9781   3.0960   3.3120   3.3279   3.4006   3.4066   3.5046
     3.5197   3.6905   3.7026   3.7762   3.9755   3.9770   4.0362   4.0409
     4.2927   4.2975   4.3126   4.5444   4.5827   4.5908   4.6324   4.9645
     4.9673   4.9979   5.0536   5.1271   5.3054   5.3090   5.3275   5.3917
     5.7775   5.8448   6.0891   6.0915   6.0942   6.1220   6.1628   6.1711
     6.2182   6.2720   6.3016   6.3142   6.3265   6.3304   6.3394   6.3851
     6.3901   6.4234   6.4492   6.6109   6.6789   6.7573   6.9401   6.9779
     7.0276   7.0388   7.0468

          k =-0.2500 0.1443 0.1111 (136898 PWs)   bands (ev):

   -19.5574  -7.3631  -6.3943  -5.6023  -5.3175  -5.2529  -5.2511  -4.7149
    -4.7126  -4.5942  -4.5806  -4.4467  -4.4112  -4.3341  -4.3246  -4.3007
    -4.2673  -4.2659  -4.1393  -4.1041  -4.0956  -4.0777  -4.0344  -4.0152
    -3.9784  -3.9121  -3.9107  -3.8758  -3.8755  -3.8729  -3.8430  -3.8271
    -3.8246  -3.7205  -3.7200  -3.7130  -3.6993  -3.6825  -3.6818  -3.6708
    -3.6625  -3.6585  -3.6271  -3.6263  -3.6260  -3.6212  -3.5948  -3.5908
    -3.5757  -3.5748  -3.5647  -3.5213  -3.5136  -3.4875  -3.4746  -3.4674
    -3.4671  -3.4540  -3.3928  -3.3920  -3.3593  -3.3562  -3.3434  -3.2872
    -3.2865  -3.2721  -3.2707  -3.2422  -3.2413  -3.2404  -3.2373  -3.0866
    -3.0858  -3.0633  -3.0610  -3.0524  -3.0399  -3.0367  -3.0145  -3.0122
    -2.9640  -2.9625  -2.9477  -2.9463  -2.9264  -2.8805  -2.8783  -2.8591
    -2.8546  -2.8531  -2.8139  -2.8122  -2.8058  -2.8030  -2.7906  -2.7868
    -2.7508  -2.7504  -2.7291  -2.7279  -2.7254  -2.7239  -2.7195  -2.6460
    -2.6435  -2.6411  -2.6142  -2.6132  -2.5551  -2.5509  -2.5239  -2.5214
    -2.5106  -2.5100  -2.5026  -2.4752  -2.4738  -2.4640  -2.4471  -2.4239
    -2.4230  -2.4170  -2.4016  -2.3991  -2.3908  -2.3897  -2.3879  -2.3813
    -2.3760  -2.3302  -2.3004  -2.2985  -2.2834  -2.2697  -2.2638  -2.2626
    -2.2557  -2.2549  -2.2526  -2.2259  -2.2245  -2.2215  -2.2141  -2.2134
    -2.1969  -2.1703  -2.1695  -2.1685  -2.1680  -2.1660  -2.1207  -2.0925
    -2.0904  -2.0883  -2.0836  -2.0731  -2.0650  -2.0611  -2.0443  -2.0437
    -2.0134  -2.0102  -2.0092  -1.9973  -1.9911  -1.9903  -1.9593  -1.9553
    -1.9177  -1.9162  -1.9125  -1.9075  -1.9055  -1.9046  -1.8990  -1.8983
    -1.8962  -1.8928  -1.8875  -1.8742  -1.8699  -1.7933  -1.7467  -1.7299
    -1.7118  -1.7063  -1.7005  -1.6981  -1.6966  -1.6836  -1.6824  -1.6809
    -1.6743  -1.6619  -1.6540  -1.6497  -1.6388  -1.6351  -1.6317  -1.6173
    -1.6084  -1.5962  -1.5813  -1.5609  -1.5491  -1.5414  -1.5368  -1.5280
    -1.5141  -1.5116  -1.5101  -1.4936  -1.4792  -1.4783  -1.4722  -1.4688
    -1.4465  -1.4433  -1.4285  -1.4211  -1.3964  -1.3924  -1.3785  -1.3367
    -1.3345  -1.3243  -1.3170  -1.3068  -1.2961  -1.2931  -1.2622  -1.2597
    -1.2565  -1.2245  -1.2170  -1.2108  -1.2002  -1.1984  -1.1751  -1.1724
    -1.1597  -1.1416  -1.1400  -1.1361  -1.0771  -1.0762  -1.0656  -1.0627
    -1.0483  -1.0467  -1.0359  -1.0325  -1.0163  -1.0038  -0.9762  -0.9752
    -0.9621  -0.9340  -0.9269  -0.9217  -0.9138  -0.9132  -0.9114  -0.9088
    -0.8968  -0.8916  -0.8642  -0.8630  -0.8542  -0.8518  -0.8506  -0.8341
    -0.8257  -0.8103  -0.7973  -0.7877  -0.7737  -0.6930  -0.6800  -0.6748
    -0.6742  -0.6697  -0.6642  -0.6611  -0.6405  -0.6321  -0.6256  -0.6213
    -0.6098  -0.6057  -0.6002  -0.5810  -0.5788  -0.5697  -0.5673  -0.4963
    -0.4951  -0.4649  -0.4582  -0.4565  -0.4530  -0.4492  -0.4480  -0.4438
    -0.4378  -0.4345  -0.4120  -0.3934  -0.3777  -0.3613  -0.3590  -0.3498
    -0.3472  -0.3371  -0.3361  -0.3354  -0.3336  -0.3292  -0.3161  -0.3114
    -0.3100  -0.2813  -0.2793  -0.2782  -0.2666  -0.2651  -0.2467  -0.2154
    -0.2144  -0.2062  -0.2032  -0.1384  -0.1365  -0.1013  -0.1011  -0.0429
    -0.0427  -0.0423  -0.0217  -0.0153   0.2054   0.2284   0.5589   0.5593
     0.6432   0.6641   0.8405   0.8695   0.8853   1.0042   1.0138   1.4393
     1.4398   1.4585   1.7162   1.7494   1.7508   2.0158   2.0367   2.1032
     2.1066   2.1253   2.1496   2.3606   2.3632   2.4500   2.4513   2.5122
     2.5794   2.6077   2.7569   2.8542   3.2882   3.2903   3.2915   3.3060
     3.3485   3.3573   3.6427   3.6447   3.9159   3.9319   4.0081   4.3397
     4.3747   4.3861   4.5649   4.5720   4.6782   4.6847   4.7729   4.8888
     4.8926   5.0057   5.0092   5.0560   5.3119   5.3753   5.3825   5.5067
     5.5533   5.7634   5.7680   5.7825   5.7961   5.7998   5.8506   5.8570
     5.9159   6.0116   6.1833   6.2661   6.4555   6.4666   6.5976   6.6002
     6.6081   6.6132   6.6401   6.7380   6.8145   6.8503   6.8640   6.9848
     7.0223   7.0513   7.0790

          k =-0.2500-0.1443-0.1111 (136898 PWs)   bands (ev):

   -19.5574  -7.3631  -6.3943  -5.6025  -5.3176  -5.2526  -5.2509  -4.7143
    -4.7124  -4.5977  -4.5809  -4.4457  -4.4109  -4.3363  -4.3180  -4.3006
    -4.2665  -4.2658  -4.1383  -4.1113  -4.0951  -4.0799  -4.0277  -4.0151
    -3.9847  -3.9119  -3.9115  -3.8759  -3.8754  -3.8734  -3.8416  -3.8273
    -3.8253  -3.7213  -3.7197  -3.7132  -3.6944  -3.6825  -3.6820  -3.6707
    -3.6661  -3.6489  -3.6270  -3.6264  -3.6259  -3.6230  -3.5951  -3.5943
    -3.5757  -3.5756  -3.5553  -3.5220  -3.5203  -3.4852  -3.4743  -3.4674
    -3.4670  -3.4545  -3.3929  -3.3927  -3.3582  -3.3561  -3.3448  -3.2874
    -3.2872  -3.2721  -3.2703  -3.2422  -3.2417  -3.2409  -3.2390  -3.0866
    -3.0858  -3.0629  -3.0583  -3.0543  -3.0399  -3.0369  -3.0147  -3.0139
    -2.9641  -2.9635  -2.9476  -2.9470  -2.9263  -2.8805  -2.8766  -2.8598
    -2.8547  -2.8531  -2.8137  -2.8129  -2.8059  -2.8029  -2.7908  -2.7895
    -2.7505  -2.7501  -2.7294  -2.7267  -2.7253  -2.7236  -2.7188  -2.6465
    -2.6458  -2.6422  -2.6143  -2.6132  -2.5540  -2.5472  -2.5240  -2.5234
    -2.5101  -2.5088  -2.5027  -2.4752  -2.4727  -2.4640  -2.4471  -2.4264
    -2.4232  -2.4194  -2.4012  -2.4009  -2.3914  -2.3901  -2.3872  -2.3793
    -2.3761  -2.3301  -2.2996  -2.2981  -2.2835  -2.2702  -2.2636  -2.2628
    -2.2562  -2.2552  -2.2529  -2.2248  -2.2242  -2.2194  -2.2145  -2.2124
    -2.1975  -2.1722  -2.1696  -2.1688  -2.1678  -2.1670  -2.1209  -2.0920
    -2.0903  -2.0895  -2.0833  -2.0732  -2.0639  -2.0584  -2.0439  -2.0433
    -2.0132  -2.0117  -2.0096  -1.9927  -1.9910  -1.9873  -1.9625  -1.9581
    -1.9176  -1.9143  -1.9124  -1.9066  -1.9055  -1.9029  -1.8999  -1.8980
    -1.8961  -1.8914  -1.8877  -1.8762  -1.8718  -1.7803  -1.7475  -1.7330
    -1.7102  -1.7075  -1.7019  -1.6988  -1.6977  -1.6831  -1.6822  -1.6811
    -1.6760  -1.6545  -1.6520  -1.6493  -1.6473  -1.6354  -1.6283  -1.6162
    -1.6083  -1.6024  -1.5829  -1.5729  -1.5533  -1.5413  -1.5355  -1.5249
    -1.5143  -1.5113  -1.4995  -1.4935  -1.4800  -1.4782  -1.4722  -1.4688
    -1.4466  -1.4404  -1.4310  -1.4239  -1.3982  -1.3876  -1.3767  -1.3380
    -1.3348  -1.3243  -1.3183  -1.3109  -1.2963  -1.2929  -1.2621  -1.2595
    -1.2555  -1.2247  -1.2182  -1.2063  -1.2000  -1.1988  -1.1751  -1.1712
    -1.1624  -1.1416  -1.1401  -1.1369  -1.0771  -1.0763  -1.0657  -1.0595
    -1.0481  -1.0460  -1.0355  -1.0318  -1.0157  -1.0034  -0.9761  -0.9747
    -0.9633  -0.9342  -0.9263  -0.9225  -0.9140  -0.9135  -0.9126  -0.9087
    -0.8989  -0.8916  -0.8643  -0.8629  -0.8534  -0.8518  -0.8466  -0.8372
    -0.8262  -0.8079  -0.7969  -0.7855  -0.7743  -0.6932  -0.6800  -0.6748
    -0.6743  -0.6706  -0.6636  -0.6602  -0.6404  -0.6348  -0.6256  -0.6195
    -0.6094  -0.6068  -0.6004  -0.5809  -0.5782  -0.5709  -0.5693  -0.4964
    -0.4959  -0.4635  -0.4588  -0.4575  -0.4521  -0.4505  -0.4481  -0.4454
    -0.4364  -0.4320  -0.4138  -0.3933  -0.3783  -0.3614  -0.3591  -0.3493
    -0.3482  -0.3368  -0.3361  -0.3352  -0.3325  -0.3297  -0.3161  -0.3114
    -0.3099  -0.2813  -0.2800  -0.2771  -0.2663  -0.2654  -0.2467  -0.2151
    -0.2148  -0.2054  -0.2034  -0.1381  -0.1370  -0.1015  -0.1009  -0.0432
    -0.0426  -0.0419  -0.0229  -0.0155   0.2101   0.2246   0.5589   0.5591
     0.6468   0.6615   0.8383   0.8740   0.8806   1.0041   1.0130   1.4391
     1.4405   1.4573   1.7161   1.7487   1.7526   2.0204   2.0315   2.1037
     2.1060   2.1276   2.1477   2.3586   2.3658   2.4500   2.4512   2.5132
     2.5834   2.6032   2.7553   2.8554   3.2880   3.2906   3.2934   3.3029
     3.3467   3.3604   3.6423   3.6454   3.9189   3.9304   4.0079   4.3396
     4.3767   4.3845   4.5591   4.5768   4.6813   4.6825   4.7723   4.8874
     4.8938   5.0063   5.0099   5.0564   5.3115   5.3748   5.3836   5.5169
     5.5489   5.7626   5.7681   5.7799   5.7970   5.7998   5.8504   5.8604
     5.8976   6.0053   6.2094   6.2600   6.4520   6.4646   6.5968   6.5985
     6.6073   6.6146   6.6452   6.7323   6.8191   6.8520   6.8613   6.9831
     7.0135   7.0566   7.0815

          k = 0.2500 0.1443-0.1111 (136898 PWs)   bands (ev):

   -19.5574  -7.3631  -6.3943  -5.6025  -5.3176  -5.2526  -5.2509  -4.7143
    -4.7124  -4.5977  -4.5809  -4.4457  -4.4109  -4.3363  -4.3180  -4.3005
    -4.2664  -4.2658  -4.1383  -4.1113  -4.0951  -4.0799  -4.0277  -4.0151
    -3.9847  -3.9119  -3.9115  -3.8759  -3.8754  -3.8734  -3.8416  -3.8273
    -3.8253  -3.7213  -3.7197  -3.7132  -3.6944  -3.6825  -3.6820  -3.6707
    -3.6661  -3.6489  -3.6270  -3.6264  -3.6259  -3.6230  -3.5951  -3.5943
    -3.5757  -3.5756  -3.5553  -3.5220  -3.5203  -3.4852  -3.4743  -3.4674
    -3.4670  -3.4545  -3.3929  -3.3927  -3.3582  -3.3561  -3.3448  -3.2874
    -3.2872  -3.2721  -3.2703  -3.2422  -3.2417  -3.2409  -3.2390  -3.0866
    -3.0858  -3.0629  -3.0583  -3.0543  -3.0399  -3.0369  -3.0147  -3.0139
    -2.9641  -2.9635  -2.9476  -2.9470  -2.9263  -2.8805  -2.8766  -2.8598
    -2.8547  -2.8531  -2.8137  -2.8129  -2.8059  -2.8029  -2.7908  -2.7895
    -2.7505  -2.7501  -2.7294  -2.7267  -2.7253  -2.7236  -2.7188  -2.6465
    -2.6458  -2.6422  -2.6143  -2.6132  -2.5540  -2.5472  -2.5240  -2.5234
    -2.5101  -2.5088  -2.5027  -2.4752  -2.4727  -2.4640  -2.4471  -2.4264
    -2.4232  -2.4194  -2.4012  -2.4009  -2.3914  -2.3901  -2.3872  -2.3793
    -2.3761  -2.3301  -2.2996  -2.2981  -2.2834  -2.2702  -2.2636  -2.2628
    -2.2562  -2.2552  -2.2529  -2.2248  -2.2242  -2.2194  -2.2145  -2.2124
    -2.1975  -2.1722  -2.1696  -2.1688  -2.1678  -2.1670  -2.1209  -2.0920
    -2.0903  -2.0895  -2.0833  -2.0732  -2.0639  -2.0584  -2.0439  -2.0433
    -2.0132  -2.0116  -2.0096  -1.9927  -1.9910  -1.9873  -1.9625  -1.9581
    -1.9176  -1.9143  -1.9124  -1.9066  -1.9055  -1.9029  -1.8999  -1.8980
    -1.8961  -1.8914  -1.8877  -1.8762  -1.8718  -1.7803  -1.7476  -1.7330
    -1.7102  -1.7075  -1.7019  -1.6988  -1.6977  -1.6831  -1.6822  -1.6811
    -1.6760  -1.6545  -1.6520  -1.6493  -1.6473  -1.6354  -1.6283  -1.6162
    -1.6083  -1.6024  -1.5829  -1.5729  -1.5533  -1.5413  -1.5355  -1.5249
    -1.5143  -1.5113  -1.4995  -1.4935  -1.4800  -1.4782  -1.4722  -1.4688
    -1.4466  -1.4404  -1.4310  -1.4239  -1.3982  -1.3876  -1.3767  -1.3380
    -1.3348  -1.3243  -1.3183  -1.3109  -1.2963  -1.2929  -1.2621  -1.2595
    -1.2555  -1.2247  -1.2182  -1.2063  -1.2000  -1.1988  -1.1752  -1.1712
    -1.1624  -1.1416  -1.1401  -1.1369  -1.0771  -1.0763  -1.0657  -1.0595
    -1.0481  -1.0460  -1.0355  -1.0318  -1.0157  -1.0034  -0.9761  -0.9747
    -0.9633  -0.9342  -0.9263  -0.9225  -0.9140  -0.9135  -0.9126  -0.9087
    -0.8989  -0.8916  -0.8643  -0.8629  -0.8534  -0.8518  -0.8466  -0.8373
    -0.8262  -0.8079  -0.7969  -0.7855  -0.7743  -0.6932  -0.6800  -0.6748
    -0.6743  -0.6706  -0.6636  -0.6602  -0.6404  -0.6348  -0.6256  -0.6195
    -0.6094  -0.6068  -0.6004  -0.5809  -0.5782  -0.5709  -0.5692  -0.4963
    -0.4959  -0.4635  -0.4588  -0.4575  -0.4521  -0.4505  -0.4481  -0.4454
    -0.4364  -0.4320  -0.4138  -0.3933  -0.3783  -0.3614  -0.3591  -0.3493
    -0.3482  -0.3368  -0.3361  -0.3352  -0.3325  -0.3297  -0.3161  -0.3114
    -0.3099  -0.2813  -0.2800  -0.2771  -0.2663  -0.2654  -0.2467  -0.2151
    -0.2148  -0.2054  -0.2034  -0.1381  -0.1370  -0.1015  -0.1009  -0.0432
    -0.0426  -0.0419  -0.0229  -0.0155   0.2101   0.2246   0.5589   0.5591
     0.6468   0.6615   0.8383   0.8740   0.8806   1.0041   1.0130   1.4391
     1.4405   1.4573   1.7161   1.7487   1.7526   2.0204   2.0315   2.1037
     2.1060   2.1276   2.1477   2.3586   2.3658   2.4500   2.4512   2.5132
     2.5834   2.6032   2.7553   2.8554   3.2880   3.2906   3.2934   3.3029
     3.3467   3.3604   3.6423   3.6454   3.9189   3.9304   4.0079   4.3396
     4.3767   4.3845   4.5591   4.5768   4.6813   4.6825   4.7723   4.8874
     4.8938   5.0063   5.0099   5.0564   5.3115   5.3748   5.3836   5.5169
     5.5489   5.7626   5.7681   5.7800   5.7970   5.7997   5.8504   5.8604
     5.8975   6.0062   6.2085   6.2601   6.4519   6.4634   6.5967   6.5985
     6.6073   6.6143   6.6422   6.7342   6.8185   6.8522   6.8612   6.9863
     7.0175   7.0585   7.0844

          k = 0.0000-0.2887 0.1111 (136898 PWs)   bands (ev):

   -19.5574  -7.3631  -6.3943  -5.6022  -5.3176  -5.2529  -5.2513  -4.7148
    -4.7127  -4.5939  -4.5804  -4.4470  -4.4112  -4.3339  -4.3247  -4.3012
    -4.2673  -4.2660  -4.1393  -4.1037  -4.0959  -4.0775  -4.0342  -4.0156
    -3.9785  -3.9120  -3.9106  -3.8758  -3.8755  -3.8731  -3.8428  -3.8272
    -3.8246  -3.7206  -3.7198  -3.7129  -3.6991  -3.6827  -3.6818  -3.6708
    -3.6629  -3.6580  -3.6272  -3.6263  -3.6259  -3.6210  -3.5951  -3.5908
    -3.5757  -3.5748  -3.5639  -3.5223  -3.5135  -3.4870  -3.4746  -3.4673
    -3.4670  -3.4544  -3.3929  -3.3921  -3.3591  -3.3564  -3.3433  -3.2874
    -3.2865  -3.2721  -3.2704  -3.2424  -3.2413  -3.2405  -3.2372  -3.0864
    -3.0859  -3.0632  -3.0611  -3.0523  -3.0400  -3.0370  -3.0149  -3.0120
    -2.9641  -2.9624  -2.9478  -2.9461  -2.9263  -2.8808  -2.8778  -2.8591
    -2.8547  -2.8529  -2.8139  -2.8122  -2.8060  -2.8033  -2.7905  -2.7872
    -2.7504  -2.7503  -2.7296  -2.7276  -2.7252  -2.7242  -2.7192  -2.6461
    -2.6439  -2.6409  -2.6143  -2.6132  -2.5551  -2.5508  -2.5240  -2.5213
    -2.5102  -2.5095  -2.5027  -2.4753  -2.4735  -2.4640  -2.4471  -2.4256
    -2.4235  -2.4172  -2.4015  -2.3993  -2.3908  -2.3879  -2.3870  -2.3817
    -2.3761  -2.3301  -2.2997  -2.2987  -2.2829  -2.2703  -2.2640  -2.2625
    -2.2565  -2.2550  -2.2528  -2.2254  -2.2242  -2.2215  -2.2141  -2.2127
    -2.1968  -2.1699  -2.1695  -2.1689  -2.1677  -2.1657  -2.1208  -2.0927
    -2.0906  -2.0888  -2.0836  -2.0731  -2.0644  -2.0624  -2.0437  -2.0436
    -2.0131  -2.0103  -2.0089  -1.9949  -1.9914  -1.9903  -1.9616  -1.9546
    -1.9179  -1.9169  -1.9125  -1.9078  -1.9052  -1.9041  -1.8992  -1.8988
    -1.8963  -1.8924  -1.8865  -1.8752  -1.8710  -1.7843  -1.7456  -1.7343
    -1.7124  -1.7049  -1.7027  -1.6990  -1.6952  -1.6837  -1.6820  -1.6793
    -1.6750  -1.6647  -1.6541  -1.6492  -1.6415  -1.6373  -1.6279  -1.6185
    -1.6087  -1.5981  -1.5816  -1.5685  -1.5481  -1.5406  -1.5378  -1.5283
    -1.5135  -1.5107  -1.5064  -1.4935  -1.4793  -1.4775  -1.4728  -1.4696
    -1.4458  -1.4445  -1.4294  -1.4196  -1.3956  -1.3868  -1.3787  -1.3362
    -1.3336  -1.3245  -1.3151  -1.3114  -1.2964  -1.2933  -1.2623  -1.2613
    -1.2504  -1.2248  -1.2153  -1.2124  -1.1995  -1.1985  -1.1757  -1.1719
    -1.1642  -1.1417  -1.1407  -1.1390  -1.0774  -1.0763  -1.0650  -1.0641
    -1.0471  -1.0461  -1.0352  -1.0306  -1.0161  -1.0038  -0.9763  -0.9738
    -0.9642  -0.9347  -0.9253  -0.9228  -0.9139  -0.9133  -0.9122  -0.9077
    -0.9022  -0.8916  -0.8640  -0.8636  -0.8526  -0.8520  -0.8443  -0.8337
    -0.8266  -0.8050  -0.7995  -0.7860  -0.7781  -0.6925  -0.6801  -0.6747
    -0.6744  -0.6694  -0.6660  -0.6599  -0.6408  -0.6362  -0.6245  -0.6206
    -0.6088  -0.6056  -0.6009  -0.5797  -0.5782  -0.5706  -0.5696  -0.4963
    -0.4945  -0.4632  -0.4597  -0.4575  -0.4524  -0.4503  -0.4481  -0.4479
    -0.4351  -0.4303  -0.4127  -0.3933  -0.3803  -0.3611  -0.3590  -0.3497
    -0.3487  -0.3368  -0.3360  -0.3350  -0.3320  -0.3292  -0.3163  -0.3115
    -0.3100  -0.2811  -0.2784  -0.2775  -0.2664  -0.2642  -0.2468  -0.2154
    -0.2145  -0.2058  -0.2047  -0.1390  -0.1347  -0.1016  -0.1009  -0.0430
    -0.0425  -0.0415  -0.0243  -0.0154   0.2125   0.2257   0.5590   0.5592
     0.6488   0.6608   0.8362   0.8665   0.8868   1.0055   1.0133   1.4390
     1.4399   1.4590   1.7156   1.7491   1.7506   2.0223   2.0330   2.1045
     2.1051   2.1293   2.1447   2.3612   2.3621   2.4504   2.4508   2.5123
     2.5847   2.6019   2.7569   2.8531   3.2876   3.2900   3.2959   3.3037
     3.3507   3.3549   3.6425   3.6450   3.9194   3.9293   4.0099   4.3399
     4.3766   4.3821   4.5370   4.5854   4.6772   4.6863   4.7731   4.8845
     4.8933   5.0079   5.0113   5.0700   5.3102   5.3751   5.3859   5.5267
     5.5466   5.7501   5.7668   5.7741   5.7971   5.8003   5.8517   5.8616
     5.8849   5.9865   6.2391   6.3302   6.4429   6.4638   6.5894   6.5968
     6.6016   6.6108   6.6279   6.6829   6.8528   6.8601   6.9066   6.9680
     7.0048   7.0622   7.0764

          k = 0.0000 0.2887 0.1111 (136898 PWs)   bands (ev):

   -19.5574  -7.3632  -6.3943  -5.6022  -5.3176  -5.2529  -5.2513  -4.7148
    -4.7127  -4.5939  -4.5805  -4.4470  -4.4112  -4.3339  -4.3247  -4.3012
    -4.2673  -4.2660  -4.1393  -4.1037  -4.0959  -4.0775  -4.0342  -4.0156
    -3.9785  -3.9120  -3.9106  -3.8758  -3.8755  -3.8731  -3.8428  -3.8272
    -3.8246  -3.7206  -3.7198  -3.7129  -3.6991  -3.6827  -3.6818  -3.6708
    -3.6629  -3.6580  -3.6272  -3.6263  -3.6259  -3.6210  -3.5951  -3.5908
    -3.5757  -3.5748  -3.5639  -3.5223  -3.5135  -3.4870  -3.4746  -3.4674
    -3.4670  -3.4544  -3.3929  -3.3921  -3.3591  -3.3564  -3.3433  -3.2874
    -3.2865  -3.2721  -3.2704  -3.2424  -3.2413  -3.2405  -3.2372  -3.0864
    -3.0859  -3.0632  -3.0611  -3.0523  -3.0400  -3.0370  -3.0149  -3.0120
    -2.9641  -2.9624  -2.9478  -2.9461  -2.9263  -2.8808  -2.8778  -2.8591
    -2.8547  -2.8529  -2.8139  -2.8122  -2.8061  -2.8033  -2.7904  -2.7872
    -2.7504  -2.7503  -2.7296  -2.7276  -2.7252  -2.7242  -2.7192  -2.6461
    -2.6439  -2.6409  -2.6143  -2.6132  -2.5551  -2.5508  -2.5240  -2.5213
    -2.5102  -2.5095  -2.5027  -2.4752  -2.4735  -2.4640  -2.4471  -2.4256
    -2.4235  -2.4171  -2.4015  -2.3993  -2.3908  -2.3879  -2.3870  -2.3817
    -2.3761  -2.3301  -2.2997  -2.2987  -2.2829  -2.2703  -2.2640  -2.2625
    -2.2565  -2.2550  -2.2528  -2.2254  -2.2242  -2.2215  -2.2141  -2.2127
    -2.1968  -2.1699  -2.1695  -2.1689  -2.1677  -2.1657  -2.1208  -2.0927
    -2.0906  -2.0888  -2.0836  -2.0731  -2.0644  -2.0624  -2.0437  -2.0436
    -2.0131  -2.0103  -2.0089  -1.9949  -1.9914  -1.9903  -1.9616  -1.9546
    -1.9179  -1.9169  -1.9125  -1.9078  -1.9052  -1.9041  -1.8992  -1.8988
    -1.8963  -1.8924  -1.8865  -1.8752  -1.8710  -1.7843  -1.7456  -1.7343
    -1.7124  -1.7049  -1.7027  -1.6990  -1.6952  -1.6837  -1.6820  -1.6793
    -1.6750  -1.6647  -1.6541  -1.6492  -1.6415  -1.6373  -1.6279  -1.6185
    -1.6087  -1.5981  -1.5816  -1.5685  -1.5481  -1.5405  -1.5378  -1.5283
    -1.5135  -1.5107  -1.5064  -1.4935  -1.4793  -1.4775  -1.4728  -1.4696
    -1.4458  -1.4445  -1.4294  -1.4196  -1.3956  -1.3868  -1.3787  -1.3362
    -1.3336  -1.3245  -1.3151  -1.3114  -1.2964  -1.2933  -1.2623  -1.2613
    -1.2504  -1.2248  -1.2153  -1.2124  -1.1995  -1.1985  -1.1757  -1.1719
    -1.1642  -1.1417  -1.1407  -1.1390  -1.0774  -1.0763  -1.0650  -1.0641
    -1.0471  -1.0461  -1.0352  -1.0306  -1.0161  -1.0038  -0.9763  -0.9738
    -0.9642  -0.9347  -0.9253  -0.9228  -0.9139  -0.9133  -0.9122  -0.9077
    -0.9022  -0.8916  -0.8640  -0.8636  -0.8526  -0.8520  -0.8443  -0.8337
    -0.8266  -0.8050  -0.7995  -0.7860  -0.7781  -0.6925  -0.6801  -0.6747
    -0.6744  -0.6694  -0.6660  -0.6600  -0.6408  -0.6362  -0.6245  -0.6206
    -0.6088  -0.6056  -0.6009  -0.5797  -0.5782  -0.5706  -0.5696  -0.4962
    -0.4945  -0.4632  -0.4597  -0.4575  -0.4524  -0.4503  -0.4481  -0.4479
    -0.4351  -0.4303  -0.4127  -0.3933  -0.3803  -0.3611  -0.3590  -0.3497
    -0.3487  -0.3368  -0.3360  -0.3350  -0.3320  -0.3292  -0.3163  -0.3115
    -0.3100  -0.2811  -0.2784  -0.2775  -0.2664  -0.2642  -0.2468  -0.2154
    -0.2145  -0.2058  -0.2047  -0.1390  -0.1347  -0.1016  -0.1009  -0.0430
    -0.0425  -0.0415  -0.0243  -0.0154   0.2125   0.2257   0.5590   0.5592
     0.6488   0.6608   0.8362   0.8665   0.8868   1.0055   1.0133   1.4390
     1.4399   1.4590   1.7156   1.7491   1.7506   2.0222   2.0330   2.1045
     2.1051   2.1293   2.1447   2.3612   2.3621   2.4504   2.4508   2.5123
     2.5847   2.6019   2.7569   2.8531   3.2876   3.2900   3.2959   3.3037
     3.3507   3.3549   3.6425   3.6450   3.9194   3.9293   4.0099   4.3399
     4.3766   4.3821   4.5370   4.5854   4.6772   4.6863   4.7731   4.8845
     4.8934   5.0079   5.0113   5.0700   5.3102   5.3751   5.3860   5.5267
     5.5466   5.7499   5.7668   5.7746   5.7971   5.8003   5.8517   5.8615
     5.8849   5.9863   6.2390   6.3297   6.4433   6.4651   6.5863   6.5962
     6.6017   6.6108   6.6267   6.6819   6.8528   6.8601   6.9082   6.9697
     7.0103   7.0632   7.0771

     the Fermi energy is     1.5840 ev

!    total energy              =   -6604.42663892 Ry
     Harris-Foulkes estimate   =   -6604.42663892 Ry
     estimated scf accuracy    <          2.2E-09 Ry

     The total energy is the sum of the following terms:

     one-electron contribution =  -48807.35847568 Ry
     hartree contribution      =   24908.44086464 Ry
     xc contribution           =   -3204.99799470 Ry
     ewald contribution        =   20499.48617440 Ry
     smearing contrib. (-TS)   =       0.00279241 Ry

     convergence has been achieved in  22 iterations

     Writing output data file 5916953.save

     init_run     :    222.40s CPU    232.96s WALL (       1 calls)
     electrons    :  11872.61s CPU  12321.51s WALL (       1 calls)

     Called by init_run:
     wfcinit      :    181.67s CPU    190.97s WALL (       1 calls)
     potinit      :     17.35s CPU     17.90s WALL (       1 calls)

     Called by electrons:
     c_bands      :  10319.81s CPU  10678.74s WALL (      23 calls)
     sum_band     :   1187.39s CPU   1264.80s WALL (      23 calls)
     v_of_rho     :    165.68s CPU    175.07s WALL (      23 calls)
     newd         :    210.36s CPU    213.03s WALL (      23 calls)
     mix_rho      :      4.16s CPU      4.47s WALL (      23 calls)
     vdW_energy   :      6.46s CPU      6.85s WALL (      23 calls)
     vdW_ffts     :    101.75s CPU    106.65s WALL (      46 calls)
     vdW_v        :     19.43s CPU     20.23s WALL (      23 calls)

     Called by c_bands:
     init_us_2    :     12.88s CPU     13.29s WALL (     564 calls)
     cegterg      :  10141.85s CPU  10493.85s WALL (     276 calls)

     Called by *egterg:
     h_psi        :   3843.04s CPU   4160.78s WALL (    1661 calls)
     s_psi        :    631.43s CPU    633.87s WALL (    1661 calls)
     g_psi        :      7.18s CPU      7.14s WALL (    1373 calls)
     cdiaghg      :   3078.19s CPU   3085.60s WALL (    1637 calls)

     Called by h_psi:
     add_vuspsi   :    632.42s CPU    634.87s WALL (    1661 calls)

     General routines
     calbec       :   1148.15s CPU   1151.41s WALL (    1937 calls)
     fft          :    212.44s CPU    221.70s WALL (    1518 calls)
     ffts         :      3.78s CPU      4.02s WALL (      46 calls)
     fftw         :   2740.54s CPU   3102.92s WALL (  670890 calls)
     interpolate  :      8.15s CPU      8.76s WALL (      46 calls)
     davcio       :      0.02s CPU      0.20s WALL (      12 calls)

     Parallel routines
     fft_scatter  :   1894.18s CPU   2173.55s WALL (  672454 calls)

     PWSCF        :     3h21m CPU        3h29m WALL


   This run was terminated on:  14:18:55   1Jul2015            

=------------------------------------------------------------------------------=
   JOB DONE.
=------------------------------------------------------------------------------=
