
     Program PWSCF v.5.1.2 starts on 24Aug2015 at 10:35:21 

     This program is part of the open-source Quantum ESPRESSO suite
     for quantum simulation of materials; please cite
         "P. Giannozzi et al., J. Phys.:Condens. Matter 21 395502 (2009);
          URL http://www.quantum-espresso.org", 
     in publications or presentations arising from this work. More details at
     http://www.quantum-espresso.org/quote

     Parallel version (MPI), running on    32 processors
     R & G space division:  proc/nbgrp/npool/nimage =      32
     Reading input from bridge.O1.Au5455.d.2.7.phi.0.psi.0.in
Warning: card &IONS ignored
Warning: card / ignored
Warning: card &CELL ignored
Warning: card / ignored

     Current dimensions of program PWSCF are:
     Max number of different atomic species (ntypx) = 10
     Max number of k-points (npk) =  40000
     Max angular momentum in pseudopotentials (lmaxx) =  3

     IMPORTANT: XC functional enforced from input :
     Exchange-correlation      = VDW-DF ( 1  4  4  0 1 0)
     Any further DFT definition will be discarded
     Please, verify this is what you really want


     Subspace diagonalization in iterative solution of the eigenvalue problem:
     a serial algorithm will be used


     Parallelization info
     --------------------
     sticks:   dense  smooth     PW     G-vecs:    dense   smooth      PW
     Min         445     223     58                96775    34191    4534
     Max         446     224     59                96790    34246    4540
     Sum       14269    7147   1867              3097177  1095093  145167


     Title: 
     bridge.O1.Au5455.d.2.7.phi.0.psi.0                                         


     bravais-lattice index     =            4
     lattice parameter (alat)  =      22.7436  a.u.
     unit-cell volume          =   22924.1508 (a.u.)^3
     number of atoms/cell      =           67
     number of atomic types    =            3
     number of electrons       =       712.00
     number of Kohn-Sham states=          427
     kinetic-energy cutoff     =      50.0000  Ry
     charge density cutoff     =     400.0000  Ry
     convergence threshold     =      1.0E-08
     mixing beta               =       0.7000
     number of iterations used =            8  plain     mixing
     Exchange-correlation      = VDW-DF ( 1  4  4  0 1 0)

     celldm(1)=  22.743643  celldm(2)=   0.000000  celldm(3)=   2.250000
     celldm(4)=   0.000000  celldm(5)=   0.000000  celldm(6)=   0.000000

     crystal axes: (cart. coord. in units of alat)
               a(1) = (   1.000000   0.000000   0.000000 )  
               a(2) = (  -0.500000   0.866025   0.000000 )  
               a(3) = (   0.000000   0.000000   2.250000 )  

     reciprocal axes: (cart. coord. in units 2 pi/alat)
               b(1) = (  1.000000  0.577350 -0.000000 )  
               b(2) = (  0.000000  1.154701  0.000000 )  
               b(3) = (  0.000000 -0.000000  0.444444 )  


     PseudoPot. # 1 for Au read from file:
     /home/scc/andrejb/qe/pseudo/Au.pbe-nd-van.UPF
     MD5 check sum: 458681b50f36d87ef23c61b04bba420a
     Pseudo is Ultrasoft + core correction, Zval = 11.0
     Generated by new atomic code, or converted to UPF format
     Using radial grid of  985 points,  3 beta functions with: 
                l(1) =   1
                l(2) =   2
                l(3) =   2
     Q(r) pseudized with  8 coefficients,  rinner =    1.100   1.100   1.100
                                                       1.100   1.100

     PseudoPot. # 2 for H  read from file:
     /home/scc/andrejb/qe/pseudo/H.pbe-van_ak.UPF
     MD5 check sum: 403db7282739603aa925980fa9b8608d
     Pseudo is Ultrasoft, Zval =  1.0
     Generated by new atomic code, or converted to UPF format
     Using radial grid of  615 points,  1 beta functions with: 
                l(1) =   0
     Q(r) pseudized with  8 coefficients,  rinner =    0.800

     PseudoPot. # 3 for O  read from file:
     /home/scc/andrejb/qe/pseudo/O.pbe-van_ak.UPF
     MD5 check sum: 4b8c549914a63cae506c6ff22b5af4fe
     Pseudo is Ultrasoft, Zval =  6.0
     Generated by new atomic code, or converted to UPF format
     Using radial grid of  737 points,  4 beta functions with: 
                l(1) =   0
                l(2) =   0
                l(3) =   1
                l(4) =   1
     Q(r) pseudized with  8 coefficients,  rinner =    0.800   0.800   0.800


     vdW kernel table read from file vdW_kernel_table
     MD5 check sum: 48e77a2e26edf626eeb0eaa751ad5cac

     atomic species   valence    mass     pseudopotential
        Au            11.00   196.96657     Au( 1.00)
        H              1.00     1.01000     H ( 1.00)
        O              6.00    16.00000     O ( 1.00)

     No symmetry found



   Cartesian axes

     site n.     atom                  positions (alat units)
         1           O   tau(   1) = (   0.2915728   0.2885783   0.8373559  )
         2           H   tau(   2) = (   0.2416394   0.2470306   0.8856095  )
         3           H   tau(   3) = (   0.3399922   0.3288851   0.8881167  )
         4           Au  tau(   4) = (   0.3540481   0.6132292   0.0000000  )
         5           Au  tau(   5) = (   0.4790062   0.3967954   0.0000000  )
         6           Au  tau(   6) = (   0.6039644   0.1803616   0.0000000  )
         7           Au  tau(   7) = (   0.7289225  -0.0360723   0.0000000  )
         8           Au  tau(   8) = (   0.1041318   0.6132292   0.0000000  )
         9           Au  tau(   9) = (   0.2290899   0.3967954   0.0000000  )
        10           Au  tau(  10) = (   0.3540481   0.1803616   0.0000000  )
        11           Au  tau(  11) = (   0.4790062  -0.0360723   0.0000000  )
        12           Au  tau(  12) = (  -0.1457845   0.6132292   0.0000000  )
        13           Au  tau(  13) = (  -0.0208264   0.3967954   0.0000000  )
        14           Au  tau(  14) = (   0.1041318   0.1803616   0.0000000  )
        15           Au  tau(  15) = (   0.2290899  -0.0360723   0.0000000  )
        16           Au  tau(  16) = (  -0.3957008   0.6132292   0.0000000  )
        17           Au  tau(  17) = (  -0.2707426   0.3967954   0.0000000  )
        18           Au  tau(  18) = (  -0.1457845   0.1803616   0.0000000  )
        19           Au  tau(  19) = (  -0.0208264  -0.0360723   0.0000000  )
        20           Au  tau(  20) = (   0.4790062   0.6853738   0.2040557  )
        21           Au  tau(  21) = (   0.6039644   0.4689400   0.2040557  )
        22           Au  tau(  22) = (   0.7289225   0.2525061   0.2040557  )
        23           Au  tau(  23) = (   0.8538806   0.0360723   0.2040557  )
        24           Au  tau(  24) = (   0.2290899   0.6853738   0.2040557  )
        25           Au  tau(  25) = (   0.3540481   0.4689400   0.2040557  )
        26           Au  tau(  26) = (   0.4790062   0.2525061   0.2040557  )
        27           Au  tau(  27) = (   0.6039644   0.0360723   0.2040557  )
        28           Au  tau(  28) = (  -0.0208264   0.6853738   0.2040557  )
        29           Au  tau(  29) = (   0.1041318   0.4689400   0.2040557  )
        30           Au  tau(  30) = (   0.2290899   0.2525061   0.2040557  )
        31           Au  tau(  31) = (   0.3540481   0.0360723   0.2040557  )
        32           Au  tau(  32) = (  -0.2707426   0.6853738   0.2040557  )
        33           Au  tau(  33) = (  -0.1457845   0.4689400   0.2040557  )
        34           Au  tau(  34) = (  -0.0208264   0.2525061   0.2040557  )
        35           Au  tau(  35) = (   0.1041318   0.0360723   0.2040557  )
        36           Au  tau(  36) = (   0.3541162   0.7576593   0.4066483  )
        37           Au  tau(  37) = (   0.4791000   0.5411421   0.4066695  )
        38           Au  tau(  38) = (   0.6040570   0.3246862   0.4066617  )
        39           Au  tau(  39) = (   0.7290270   0.1081684   0.4066529  )
        40           Au  tau(  40) = (   0.1041162   0.7576236   0.4066247  )
        41           Au  tau(  41) = (   0.2291001   0.5411063   0.4066455  )
        42           Au  tau(  42) = (   0.3540567   0.3246505   0.4066380  )
        43           Au  tau(  43) = (   0.4790276   0.1081324   0.4066292  )
        44           Au  tau(  44) = (  -0.1458201   0.7576104   0.4066224  )
        45           Au  tau(  45) = (  -0.0208365   0.5410930   0.4066438  )
        46           Au  tau(  46) = (   0.1041202   0.3246372   0.4066359  )
        47           Au  tau(  47) = (   0.2290908   0.1081193   0.4066273  )
        48           Au  tau(  48) = (  -0.3958167   0.7575791   0.4065812  )
        49           Au  tau(  49) = (  -0.2708328   0.5410617   0.4066025  )
        50           Au  tau(  50) = (  -0.1458763   0.3246061   0.4065947  )
        51           Au  tau(  51) = (  -0.0209056   0.1080882   0.4065858  )
        52           Au  tau(  52) = (   0.3541085   0.6133344   0.6129762  )
        53           Au  tau(  53) = (   0.4790780   0.3968269   0.6129968  )
        54           Au  tau(  54) = (   0.6040356   0.1803811   0.6129859  )
        55           Au  tau(  55) = (   0.7290165  -0.0361221   0.6129385  )
        56           Au  tau(  56) = (   0.1041243   0.6133091   0.6130022  )
        57           Au  tau(  57) = (   0.2290941   0.3968013   0.6130241  )
        58           Au  tau(  58) = (   0.3540515   0.1803552   0.6130121  )
        59           Au  tau(  59) = (   0.4790323  -0.0361475   0.6129659  )
        60           Au  tau(  60) = (  -0.1458030   0.6133014   0.6129980  )
        61           Au  tau(  61) = (  -0.0208339   0.3967936   0.6130188  )
        62           Au  tau(  62) = (   0.1041239   0.1803477   0.6130083  )
        63           Au  tau(  63) = (   0.2291046  -0.0361554   0.6129607  )
        64           Au  tau(  64) = (  -0.3957908   0.6132739   0.6129471  )
        65           Au  tau(  65) = (  -0.2708208   0.3967658   0.6129688  )
        66           Au  tau(  66) = (  -0.1458636   0.1803200   0.6129569  )
        67           Au  tau(  67) = (  -0.0208823  -0.0361826   0.6129110  )

     number of k points=    12  Marzari-Vanderbilt smearing, width (Ry)=  0.0200
                       cart. coord. in units 2pi/alat
        k(    1) = (   0.2500000   0.4330127   0.1111111), wk =   0.1666667
        k(    2) = (   0.2500000  -0.1443376   0.1111111), wk =   0.1666667
        k(    3) = (  -0.2500000  -0.4330127   0.1111111), wk =   0.1666667
        k(    4) = (  -0.2500000   0.4330127  -0.1111111), wk =   0.1666667
        k(    5) = (   0.2500000  -0.4330127  -0.1111111), wk =   0.1666667
        k(    6) = (   0.5000000   0.0000000   0.1111111), wk =   0.1666667
        k(    7) = (  -0.5000000   0.0000000   0.1111111), wk =   0.1666667
        k(    8) = (  -0.2500000   0.1443376   0.1111111), wk =   0.1666667
        k(    9) = (  -0.2500000  -0.1443376  -0.1111111), wk =   0.1666667
        k(   10) = (   0.2500000   0.1443376  -0.1111111), wk =   0.1666667
        k(   11) = (   0.0000000  -0.2886751   0.1111111), wk =   0.1666667
        k(   12) = (   0.0000000   0.2886751   0.1111111), wk =   0.1666667

     Dense  grid:  3097177 G-vectors     FFT dimensions: ( 150, 150, 360)

     Smooth grid:  1095093 G-vectors     FFT dimensions: ( 108, 108, 240)

     Largest allocated arrays     est. size (Mb)     dimensions
        Kohn-Sham Wavefunctions        28.01 Mb     (    4299,  427)
        NL pseudopotentials            55.23 Mb     (    4299,  842)
        Each V/rho on FFT grid          4.12 Mb     (  270000)
        Each G-vector array             0.74 Mb     (   96788)
        G-vector shells                 0.16 Mb     (   21404)
     Largest temporary arrays     est. size (Mb)     dimensions
        Auxiliary wavefunctions       112.04 Mb     (    4299, 1708)
        Each subspace H/S matrix       44.51 Mb     (    1708, 1708)
        Each <psi_i|beta_j> matrix      5.49 Mb     (     842,  427)
        Arrays for rho mixing          32.96 Mb     (  270000,    8)

     Initial potential from superposition of free atoms
     Check: negative starting charge=   -1.730212

     starting charge  711.25682, renormalised to  712.00000

     negative rho (up, down):  1.732E+00 0.000E+00


     ************************************************************************
     *
     * You are using vdW-DF for exchange-correlation in this calculation.
     * Please cite the following three references that made this development
     * possible:
     *
     *   M. Dion, H. Rydberg, E. Schroder, D. C. Langreth, and
     *   B. I. Lundqvist, Phys. Rev. Lett. 92, 246401 (2004).
     *
     *   T. Thonhauser, V. R. Cooper, S. Li, A. Puzder, P. Hyldgaard, and
     *   D. C. Langreth, Phys. Rev. B 76, 125112 (2007).
     *
     *   G. Roman-Perez and J. M. Soler, Phys. Rev. Lett. 103, 096102 (2009).
     *
     *
     * If you are using vdW-DF2, please also cite:
     *
     *   K. Lee, E. D. Murray, L. Kong, B. I. Lundqvist, and
     *   D. C. Langreth, Phys. Rev. B 82, 081101(R) (2010).
     *
     *
     * If you are calculating the stress with vdW-DF, please also cite:
     *
     *   R. Sabatini, E. Kucukbenli, B. Kolb, T. Thonhauser, and
     *   S. de Gironcoli, J. Phys.: Condens. Matter 24, 424209 (2012).
     *
     ************************************************************************

     Carrying out vdW-DF run using the following parameters:

     Nqs =      20    Nr_points =    1024   r_max =   100.000
     q_mesh =
               0.00001000     0.04494208     0.09755937     0.15916263
               0.23128650     0.31572767     0.41458969     0.53033537
               0.66584808     0.82450364     1.01025438     1.22772762
               1.48234092     1.78043706     2.12944203     2.53805004
               3.01644009     3.57652955     4.23227104     5.00000000

     Gradients computed in reciprocal space

     ************************************************************************


     Starting wfc are  582 randomized atomic wfcs

     total cpu time spent up to now is      172.2 secs

     Self-consistent Calculation

     iteration #  1     ecut=    50.00 Ry     beta=0.70
     Davidson diagonalization with overlap
     ethr =  1.00E-02,  avg # of iterations =  3.0

     Threshold (ethr) on eigenvalues was too large:
     Diagonalizing with lowered threshold

     Davidson diagonalization with overlap
     ethr =  3.57E-04,  avg # of iterations =  4.7

     negative rho (up, down):  1.728E+00 0.000E+00

     total cpu time spent up to now is      892.2 secs

     total energy              =   -6602.75220581 Ry
     Harris-Foulkes estimate   =   -6605.05225024 Ry
     estimated scf accuracy    <       2.87647996 Ry

     iteration #  2     ecut=    50.00 Ry     beta=0.70
     Davidson diagonalization with overlap
     ethr =  4.04E-04,  avg # of iterations = 11.4

     negative rho (up, down):  1.725E+00 0.000E+00

     total cpu time spent up to now is     1821.6 secs

     total energy              =   -6595.95545682 Ry
     Harris-Foulkes estimate   =   -6610.35524313 Ry
     estimated scf accuracy    <      82.99193653 Ry

     iteration #  3     ecut=    50.00 Ry     beta=0.70
     Davidson diagonalization with overlap
     ethr =  4.04E-04,  avg # of iterations =  6.0

     negative rho (up, down):  1.734E+00 0.000E+00

     total cpu time spent up to now is     2425.3 secs

     total energy              =   -6603.04090122 Ry
     Harris-Foulkes estimate   =   -6605.02747084 Ry
     estimated scf accuracy    <       9.42929914 Ry

     iteration #  4     ecut=    50.00 Ry     beta=0.70
     Davidson diagonalization with overlap
     ethr =  4.04E-04,  avg # of iterations =  6.4

     negative rho (up, down):  1.737E+00 0.000E+00

     total cpu time spent up to now is     2859.9 secs

     total energy              =   -6603.17917032 Ry
     Harris-Foulkes estimate   =   -6605.46376675 Ry
     estimated scf accuracy    <      24.29638526 Ry

     iteration #  5     ecut=    50.00 Ry     beta=0.70
     Davidson diagonalization with overlap
     ethr =  4.04E-04,  avg # of iterations =  6.2

     negative rho (up, down):  1.746E+00 0.000E+00

     total cpu time spent up to now is     3301.7 secs

     total energy              =   -6604.34769767 Ry
     Harris-Foulkes estimate   =   -6604.59248250 Ry
     estimated scf accuracy    <       1.39593681 Ry

     iteration #  6     ecut=    50.00 Ry     beta=0.70
     Davidson diagonalization with overlap
     ethr =  1.96E-04,  avg # of iterations =  3.0

     negative rho (up, down):  1.750E+00 0.000E+00

     total cpu time spent up to now is     3642.2 secs

     total energy              =   -6604.41321919 Ry
     Harris-Foulkes estimate   =   -6604.47306836 Ry
     estimated scf accuracy    <       0.18830428 Ry

     iteration #  7     ecut=    50.00 Ry     beta=0.70
     Davidson diagonalization with overlap
     ethr =  2.64E-05,  avg # of iterations = 10.7

     negative rho (up, down):  1.753E+00 0.000E+00

     total cpu time spent up to now is     4127.4 secs

     total energy              =   -6604.42767856 Ry
     Harris-Foulkes estimate   =   -6604.45404420 Ry
     estimated scf accuracy    <       0.10754718 Ry

     iteration #  8     ecut=    50.00 Ry     beta=0.70
     Davidson diagonalization with overlap
     ethr =  1.51E-05,  avg # of iterations =  6.3

     negative rho (up, down):  1.754E+00 0.000E+00

     total cpu time spent up to now is     4527.8 secs

     total energy              =   -6604.43011395 Ry
     Harris-Foulkes estimate   =   -6604.44459446 Ry
     estimated scf accuracy    <       0.05053567 Ry

     iteration #  9     ecut=    50.00 Ry     beta=0.70
     Davidson diagonalization with overlap
     ethr =  7.10E-06,  avg # of iterations = 12.8

     negative rho (up, down):  1.755E+00 0.000E+00

     total cpu time spent up to now is     5026.9 secs

     total energy              =   -6604.43227739 Ry
     Harris-Foulkes estimate   =   -6604.43793523 Ry
     estimated scf accuracy    <       0.01677557 Ry

     iteration # 10     ecut=    50.00 Ry     beta=0.70
     Davidson diagonalization with overlap
     ethr =  2.36E-06,  avg # of iterations =  8.1

     negative rho (up, down):  1.756E+00 0.000E+00

     total cpu time spent up to now is     5485.5 secs

     total energy              =   -6604.43346703 Ry
     Harris-Foulkes estimate   =   -6604.43525597 Ry
     estimated scf accuracy    <       0.00632205 Ry

     iteration # 11     ecut=    50.00 Ry     beta=0.70
     Davidson diagonalization with overlap
     ethr =  8.88E-07,  avg # of iterations =  7.3

     negative rho (up, down):  1.757E+00 0.000E+00

     total cpu time spent up to now is     5913.4 secs

     total energy              =   -6604.43385370 Ry
     Harris-Foulkes estimate   =   -6604.43454369 Ry
     estimated scf accuracy    <       0.00308980 Ry

     iteration # 12     ecut=    50.00 Ry     beta=0.70
     Davidson diagonalization with overlap
     ethr =  4.34E-07,  avg # of iterations =  2.8

     negative rho (up, down):  1.758E+00 0.000E+00

     total cpu time spent up to now is     6274.0 secs

     total energy              =   -6604.43389684 Ry
     Harris-Foulkes estimate   =   -6604.43419702 Ry
     estimated scf accuracy    <       0.00060552 Ry

     iteration # 13     ecut=    50.00 Ry     beta=0.70
     Davidson diagonalization with overlap
     ethr =  8.50E-08,  avg # of iterations =  8.4

     negative rho (up, down):  1.757E+00 0.000E+00

     total cpu time spent up to now is     6756.8 secs

     total energy              =   -6604.43396868 Ry
     Harris-Foulkes estimate   =   -6604.43406462 Ry
     estimated scf accuracy    <       0.00030744 Ry

     iteration # 14     ecut=    50.00 Ry     beta=0.70
     Davidson diagonalization with overlap
     ethr =  4.32E-08,  avg # of iterations =  2.0

     negative rho (up, down):  1.757E+00 0.000E+00

     total cpu time spent up to now is     7095.4 secs

     total energy              =   -6604.43401008 Ry
     Harris-Foulkes estimate   =   -6604.43403254 Ry
     estimated scf accuracy    <       0.00008610 Ry

     iteration # 15     ecut=    50.00 Ry     beta=0.70
     Davidson diagonalization with overlap
     ethr =  1.21E-08,  avg # of iterations =  2.0

     negative rho (up, down):  1.757E+00 0.000E+00

     total cpu time spent up to now is     7433.4 secs

     total energy              =   -6604.43401858 Ry
     Harris-Foulkes estimate   =   -6604.43403174 Ry
     estimated scf accuracy    <       0.00010686 Ry

     iteration # 16     ecut=    50.00 Ry     beta=0.70
     Davidson diagonalization with overlap
     ethr =  1.21E-08,  avg # of iterations =  1.2

     negative rho (up, down):  1.757E+00 0.000E+00

     total cpu time spent up to now is     7748.7 secs

     total energy              =   -6604.43402406 Ry
     Harris-Foulkes estimate   =   -6604.43402674 Ry
     estimated scf accuracy    <       0.00000698 Ry

     iteration # 17     ecut=    50.00 Ry     beta=0.70
     Davidson diagonalization with overlap
     ethr =  9.80E-10,  avg # of iterations =  2.8

     negative rho (up, down):  1.757E+00 0.000E+00

     total cpu time spent up to now is     8134.5 secs

     total energy              =   -6604.43402414 Ry
     Harris-Foulkes estimate   =   -6604.43402741 Ry
     estimated scf accuracy    <       0.00001977 Ry

     iteration # 18     ecut=    50.00 Ry     beta=0.70
     Davidson diagonalization with overlap
     ethr =  9.80E-10,  avg # of iterations =  2.0

     negative rho (up, down):  1.757E+00 0.000E+00

     total cpu time spent up to now is     8458.8 secs

     total energy              =   -6604.43402562 Ry
     Harris-Foulkes estimate   =   -6604.43402622 Ry
     estimated scf accuracy    <       0.00000281 Ry

     iteration # 19     ecut=    50.00 Ry     beta=0.70
     Davidson diagonalization with overlap
     ethr =  3.95E-10,  avg # of iterations =  2.0

     negative rho (up, down):  1.757E+00 0.000E+00

     total cpu time spent up to now is     8792.5 secs

     total energy              =   -6604.43402599 Ry
     Harris-Foulkes estimate   =   -6604.43402606 Ry
     estimated scf accuracy    <       0.00000046 Ry

     iteration # 20     ecut=    50.00 Ry     beta=0.70
     Davidson diagonalization with overlap
     ethr =  6.46E-11,  avg # of iterations =  2.0

     negative rho (up, down):  1.757E+00 0.000E+00

     total cpu time spent up to now is     9104.0 secs

     total energy              =   -6604.43402609 Ry
     Harris-Foulkes estimate   =   -6604.43402610 Ry
     estimated scf accuracy    <       0.00000026 Ry

     iteration # 21     ecut=    50.00 Ry     beta=0.70
     Davidson diagonalization with overlap
     ethr =  3.69E-11,  avg # of iterations =  2.0

     negative rho (up, down):  1.757E+00 0.000E+00

     total cpu time spent up to now is     9382.8 secs

     total energy              =   -6604.43402615 Ry
     Harris-Foulkes estimate   =   -6604.43402614 Ry
     estimated scf accuracy    <       0.00000010 Ry

     iteration # 22     ecut=    50.00 Ry     beta=0.70
     Davidson diagonalization with overlap
     ethr =  1.39E-11,  avg # of iterations =  2.0

     negative rho (up, down):  1.757E+00 0.000E+00

     total cpu time spent up to now is     9639.8 secs

     total energy              =   -6604.43402615 Ry
     Harris-Foulkes estimate   =   -6604.43402616 Ry
     estimated scf accuracy    <       0.00000001 Ry

     iteration # 23     ecut=    50.00 Ry     beta=0.70
     Davidson diagonalization with overlap
     ethr =  1.53E-12,  avg # of iterations =  3.0

     negative rho (up, down):  1.757E+00 0.000E+00

     total cpu time spent up to now is    10082.3 secs

     total energy              =   -6604.43402615 Ry
     Harris-Foulkes estimate   =   -6604.43402615 Ry
     estimated scf accuracy    <       0.00000002 Ry

     iteration # 24     ecut=    50.00 Ry     beta=0.70
     Davidson diagonalization with overlap
     ethr =  1.53E-12,  avg # of iterations =  2.0

     negative rho (up, down):  1.757E+00 0.000E+00

     total cpu time spent up to now is    10397.4 secs

     End of self-consistent calculation

          k = 0.2500 0.4330 0.1111 (136853 PWs)   bands (ev):

   -19.4015  -7.1896  -6.1892  -5.7904  -5.7893  -5.1155  -4.7788  -4.7778
    -4.7465  -4.7397  -4.3783  -4.3777  -4.2799  -4.2790  -4.2654  -4.2436
    -4.2321  -4.1117  -4.1115  -4.0873  -4.0442  -4.0436  -3.9896  -3.9747
    -3.9734  -3.9686  -3.9494  -3.9451  -3.9407  -3.9040  -3.8697  -3.8388
    -3.8381  -3.8270  -3.8260  -3.8039  -3.8027  -3.7806  -3.7739  -3.7717
    -3.7531  -3.7043  -3.6929  -3.6791  -3.6449  -3.6426  -3.5866  -3.5787
    -3.5312  -3.5306  -3.5305  -3.5180  -3.4946  -3.4573  -3.4514  -3.4493
    -3.4478  -3.4429  -3.4182  -3.4180  -3.4086  -3.3478  -3.3435  -3.3386
    -3.3193  -3.3135  -3.2417  -3.2356  -3.2088  -3.2081  -3.1801  -3.1787
    -3.1658  -3.1483  -3.0904  -3.0878  -3.0721  -3.0717  -3.0200  -3.0158
    -3.0118  -2.9766  -2.9461  -2.9441  -2.9366  -2.9347  -2.9237  -2.9223
    -2.9162  -2.9134  -2.9047  -2.8644  -2.8266  -2.8262  -2.8122  -2.8118
    -2.7857  -2.7767  -2.7756  -2.7550  -2.7095  -2.7074  -2.6994  -2.6613
    -2.6546  -2.6432  -2.6420  -2.6148  -2.6112  -2.5834  -2.5475  -2.5450
    -2.5251  -2.5168  -2.5038  -2.5018  -2.4534  -2.4518  -2.4196  -2.3971
    -2.3967  -2.3735  -2.3714  -2.3618  -2.3604  -2.3506  -2.3288  -2.3269
    -2.2831  -2.2827  -2.2816  -2.2651  -2.2650  -2.2587  -2.2505  -2.2488
    -2.2481  -2.2467  -2.2405  -2.2292  -2.2287  -2.2192  -2.1924  -2.1917
    -2.1906  -2.1903  -2.1888  -2.1865  -2.1822  -2.1575  -2.1555  -2.1416
    -2.1386  -2.1228  -2.1222  -2.1134  -2.1129  -2.1120  -2.1097  -2.0926
    -2.0912  -2.0905  -2.0852  -2.0715  -2.0467  -2.0451  -2.0048  -2.0043
    -1.9803  -1.9798  -1.9554  -1.9523  -1.9254  -1.9227  -1.9072  -1.9024
    -1.8758  -1.8576  -1.8537  -1.8519  -1.8474  -1.8443  -1.8394  -1.8359
    -1.8099  -1.8049  -1.7945  -1.7389  -1.7353  -1.7329  -1.7303  -1.7243
    -1.6940  -1.6736  -1.6732  -1.6509  -1.6449  -1.5878  -1.5855  -1.5740
    -1.5521  -1.5362  -1.5020  -1.4760  -1.4732  -1.4642  -1.4597  -1.4532
    -1.4524  -1.4474  -1.4401  -1.4351  -1.3825  -1.3800  -1.3720  -1.3705
    -1.3612  -1.3528  -1.3430  -1.3170  -1.3145  -1.2992  -1.2989  -1.2967
    -1.2912  -1.2842  -1.2776  -1.2751  -1.2572  -1.2562  -1.2178  -1.2117
    -1.2048  -1.1978  -1.1818  -1.1693  -1.1273  -1.1251  -1.1003  -1.0962
    -1.0939  -1.0657  -1.0159  -1.0140  -1.0132  -1.0101  -1.0062  -1.0027
    -0.9938  -0.9782  -0.9767  -0.9380  -0.9370  -0.9076  -0.9068  -0.9013
    -0.8997  -0.8942  -0.8779  -0.8771  -0.8756  -0.8736  -0.8712  -0.8362
    -0.8336  -0.8326  -0.8296  -0.8025  -0.7994  -0.7966  -0.7734  -0.7643
    -0.7630  -0.7195  -0.7137  -0.7071  -0.6768  -0.6680  -0.6582  -0.6579
    -0.6515  -0.6506  -0.6471  -0.6446  -0.6348  -0.6326  -0.6104  -0.6095
    -0.6063  -0.6043  -0.6029  -0.5672  -0.5668  -0.5565  -0.5525  -0.5391
    -0.5337  -0.5269  -0.5205  -0.4654  -0.4637  -0.4552  -0.4549  -0.4527
    -0.4514  -0.4449  -0.4281  -0.4256  -0.4196  -0.4191  -0.4150  -0.4128
    -0.3773  -0.3756  -0.3745  -0.3670  -0.3653  -0.3611  -0.3586  -0.3441
    -0.3430  -0.3397  -0.3334  -0.2977  -0.2971  -0.2892  -0.2853  -0.2838
    -0.2083  -0.2076  -0.2051  -0.2040  -0.1954  -0.1929  -0.1586  -0.1465
    -0.1459  -0.1182  -0.1139  -0.1042   0.0060   0.0102   0.1099   0.5255
     0.5260   0.5284   0.5291   0.5916   0.5964   0.9778   0.9796   1.0198
     1.0228   1.1309   1.2124   1.3171   1.3306   1.5367   1.5584   2.1769
     2.1774   2.3347   2.3425   2.4701   2.4754   2.5744   2.5749   2.7288
     2.9590   2.9684   3.0907   3.3092   3.3215   3.3967   3.3991   3.4980
     3.5139   3.6942   3.6982   3.7699   3.9707   3.9713   4.0320   4.0358
     4.2896   4.2949   4.3039   4.5399   4.5809   4.5840   4.6283   4.9611
     4.9647   4.9907   5.0373   5.1277   5.3007   5.3022   5.3470   5.3925
     5.6998   5.9327   6.0687   6.0857   6.0920   6.1039   6.1606   6.1637
     6.2126   6.2734   6.2951   6.3165   6.3198   6.3298   6.3378   6.3763
     6.3847   6.4149   6.5049   6.5799   6.6999   6.7656   6.9106   6.9854
     7.0244   7.0343   7.0443

          k = 0.2500-0.1443 0.1111 (136898 PWs)   bands (ev):

   -19.4015  -7.1896  -6.3992  -5.6071  -5.3191  -5.2569  -5.2566  -4.7185
    -4.7181  -4.5909  -4.5859  -4.4357  -4.4076  -4.3384  -4.3135  -4.3060
    -4.2717  -4.2713  -4.1428  -4.1011  -4.1008  -4.0422  -4.0274  -4.0205
    -3.9182  -3.9174  -3.8858  -3.8811  -3.8808  -3.8640  -3.8349  -3.8324
    -3.7946  -3.7255  -3.7252  -3.7098  -3.7014  -3.6877  -3.6865  -3.6759
    -3.6633  -3.6595  -3.6322  -3.6315  -3.6313  -3.6225  -3.5997  -3.5941
    -3.5811  -3.5798  -3.5679  -3.5252  -3.5173  -3.4918  -3.4791  -3.4726
    -3.4724  -3.4543  -3.3981  -3.3973  -3.3637  -3.3612  -3.3470  -3.2926
    -3.2918  -3.2775  -3.2756  -3.2469  -3.2460  -3.2455  -3.2425  -3.0919
    -3.0910  -3.0669  -3.0659  -3.0580  -3.0449  -3.0422  -3.0193  -3.0175
    -2.9691  -2.9676  -2.9529  -2.9514  -2.9316  -2.8847  -2.8831  -2.8639
    -2.8595  -2.8579  -2.8185  -2.8172  -2.8110  -2.8086  -2.7955  -2.7926
    -2.7555  -2.7553  -2.7337  -2.7328  -2.7302  -2.7289  -2.7251  -2.6505
    -2.6484  -2.6469  -2.6195  -2.6181  -2.5580  -2.5563  -2.5289  -2.5268
    -2.5151  -2.5146  -2.5081  -2.4796  -2.4789  -2.4692  -2.4520  -2.4279
    -2.4273  -2.4230  -2.4060  -2.4043  -2.3950  -2.3933  -2.3920  -2.3877
    -2.3815  -2.3356  -2.3043  -2.3034  -2.2884  -2.2746  -2.2682  -2.2676
    -2.2608  -2.2599  -2.2580  -2.2293  -2.2287  -2.2270  -2.2190  -2.2182
    -2.2016  -2.1746  -2.1737  -2.1733  -2.1727  -2.1710  -2.1260  -2.0965
    -2.0952  -2.0936  -2.0884  -2.0784  -2.0674  -2.0652  -2.0491  -2.0488
    -2.0170  -2.0147  -2.0138  -1.9960  -1.9958  -1.9940  -1.9625  -1.9595
    -1.9212  -1.9180  -1.9130  -1.9107  -1.9101  -1.9041  -1.9037  -1.9027
    -1.9011  -1.8956  -1.8914  -1.8785  -1.8740  -1.7530  -1.7509  -1.7240
    -1.7129  -1.7117  -1.7050  -1.7043  -1.6985  -1.6880  -1.6874  -1.6854
    -1.6806  -1.6592  -1.6547  -1.6531  -1.6462  -1.6421  -1.6357  -1.6172
    -1.6149  -1.5889  -1.5872  -1.5588  -1.5548  -1.5452  -1.5383  -1.5325
    -1.5185  -1.5158  -1.5042  -1.4980  -1.4848  -1.4827  -1.4768  -1.4740
    -1.4513  -1.4466  -1.4349  -1.4309  -1.4026  -1.3979  -1.3870  -1.3417
    -1.3402  -1.3292  -1.3232  -1.3125  -1.3013  -1.2983  -1.2666  -1.2654
    -1.2603  -1.2296  -1.2229  -1.2176  -1.2052  -1.2037  -1.1789  -1.1777
    -1.1681  -1.1469  -1.1446  -1.1435  -1.0825  -1.0812  -1.0704  -1.0675
    -1.0525  -1.0517  -1.0401  -1.0374  -1.0212  -1.0086  -0.9809  -0.9797
    -0.9672  -0.9390  -0.9318  -0.9273  -0.9186  -0.9183  -0.9165  -0.9129
    -0.9042  -0.8970  -0.8681  -0.8671  -0.8586  -0.8566  -0.8540  -0.8413
    -0.8308  -0.8144  -0.8041  -0.7923  -0.7800  -0.6976  -0.6847  -0.6793
    -0.6787  -0.6739  -0.6688  -0.6664  -0.6444  -0.6398  -0.6300  -0.6253
    -0.6139  -0.6110  -0.6048  -0.5856  -0.5828  -0.5763  -0.5739  -0.5011
    -0.5004  -0.4695  -0.4633  -0.4625  -0.4575  -0.4541  -0.4533  -0.4503
    -0.4403  -0.4377  -0.4203  -0.3988  -0.3831  -0.3663  -0.3639  -0.3548
    -0.3516  -0.3412  -0.3408  -0.3397  -0.3373  -0.3354  -0.3210  -0.3165
    -0.3135  -0.2859  -0.2837  -0.2823  -0.2714  -0.2703  -0.2519  -0.2205
    -0.2187  -0.2111  -0.2082  -0.1430  -0.1411  -0.1060  -0.1058  -0.0479
    -0.0470  -0.0465  -0.0283  -0.0190   0.2014   0.2202   0.5538   0.5541
     0.6392   0.6570   0.8364   0.8638   0.8757   0.9998   1.0064   1.4341
     1.4345   1.4528   1.7113   1.7439   1.7449   2.0118   2.0319   2.0985
     2.1012   2.1214   2.1409   2.3552   2.3574   2.4449   2.4461   2.5081
     2.5755   2.6014   2.7505   2.8485   3.2843   3.2865   3.2873   3.2992
     3.3430   3.3489   3.6376   3.6391   3.9116   3.9268   4.0072   4.3344
     4.3707   4.3818   4.5665   4.5750   4.6751   4.6805   4.7679   4.8857
     4.8901   5.0012   5.0060   5.0403   5.3074   5.3742   5.3786   5.5049
     5.5509   5.7604   5.7637   5.7768   5.7913   5.7934   5.8483   5.8535
     5.9109   6.0230   6.1884   6.2653   6.4481   6.4628   6.5931   6.5955
     6.6038   6.6096   6.6270   6.7474   6.8076   6.8466   6.8578   6.9852
     7.0253   7.0502   7.0785

          k =-0.2500-0.4330 0.1111 (136853 PWs)   bands (ev):

   -19.4015  -7.1896  -6.1892  -5.7904  -5.7893  -5.1155  -4.7788  -4.7778
    -4.7465  -4.7397  -4.3783  -4.3777  -4.2799  -4.2790  -4.2654  -4.2436
    -4.2321  -4.1117  -4.1115  -4.0873  -4.0442  -4.0436  -3.9896  -3.9747
    -3.9734  -3.9686  -3.9494  -3.9451  -3.9407  -3.9040  -3.8697  -3.8388
    -3.8381  -3.8270  -3.8260  -3.8039  -3.8027  -3.7806  -3.7739  -3.7717
    -3.7531  -3.7043  -3.6929  -3.6791  -3.6449  -3.6426  -3.5866  -3.5787
    -3.5312  -3.5306  -3.5305  -3.5180  -3.4946  -3.4573  -3.4514  -3.4493
    -3.4478  -3.4429  -3.4182  -3.4180  -3.4086  -3.3478  -3.3435  -3.3386
    -3.3193  -3.3135  -3.2417  -3.2356  -3.2088  -3.2081  -3.1801  -3.1787
    -3.1658  -3.1483  -3.0904  -3.0878  -3.0721  -3.0717  -3.0200  -3.0158
    -3.0118  -2.9766  -2.9461  -2.9441  -2.9366  -2.9347  -2.9237  -2.9223
    -2.9162  -2.9134  -2.9047  -2.8644  -2.8266  -2.8262  -2.8122  -2.8118
    -2.7857  -2.7767  -2.7756  -2.7550  -2.7095  -2.7074  -2.6994  -2.6613
    -2.6546  -2.6432  -2.6420  -2.6148  -2.6112  -2.5834  -2.5475  -2.5450
    -2.5251  -2.5168  -2.5038  -2.5018  -2.4534  -2.4518  -2.4196  -2.3971
    -2.3967  -2.3735  -2.3714  -2.3618  -2.3604  -2.3506  -2.3288  -2.3269
    -2.2831  -2.2827  -2.2816  -2.2651  -2.2650  -2.2587  -2.2505  -2.2488
    -2.2481  -2.2467  -2.2405  -2.2292  -2.2287  -2.2192  -2.1924  -2.1917
    -2.1906  -2.1903  -2.1888  -2.1865  -2.1822  -2.1575  -2.1555  -2.1416
    -2.1386  -2.1228  -2.1222  -2.1134  -2.1129  -2.1120  -2.1097  -2.0926
    -2.0912  -2.0905  -2.0853  -2.0716  -2.0467  -2.0451  -2.0048  -2.0043
    -1.9803  -1.9798  -1.9554  -1.9523  -1.9254  -1.9227  -1.9072  -1.9024
    -1.8758  -1.8576  -1.8537  -1.8519  -1.8474  -1.8443  -1.8394  -1.8359
    -1.8099  -1.8049  -1.7945  -1.7389  -1.7353  -1.7329  -1.7303  -1.7243
    -1.6940  -1.6736  -1.6732  -1.6509  -1.6449  -1.5878  -1.5855  -1.5740
    -1.5521  -1.5362  -1.5020  -1.4760  -1.4732  -1.4642  -1.4597  -1.4532
    -1.4524  -1.4474  -1.4401  -1.4351  -1.3825  -1.3800  -1.3720  -1.3705
    -1.3612  -1.3528  -1.3430  -1.3170  -1.3145  -1.2992  -1.2989  -1.2967
    -1.2912  -1.2842  -1.2776  -1.2751  -1.2572  -1.2562  -1.2178  -1.2117
    -1.2048  -1.1978  -1.1818  -1.1693  -1.1273  -1.1251  -1.1003  -1.0962
    -1.0939  -1.0657  -1.0159  -1.0140  -1.0132  -1.0101  -1.0062  -1.0027
    -0.9938  -0.9782  -0.9767  -0.9381  -0.9370  -0.9076  -0.9068  -0.9013
    -0.8997  -0.8942  -0.8779  -0.8771  -0.8756  -0.8736  -0.8712  -0.8362
    -0.8336  -0.8326  -0.8296  -0.8025  -0.7994  -0.7966  -0.7734  -0.7643
    -0.7630  -0.7195  -0.7137  -0.7071  -0.6768  -0.6680  -0.6582  -0.6579
    -0.6515  -0.6506  -0.6471  -0.6446  -0.6348  -0.6326  -0.6104  -0.6095
    -0.6063  -0.6043  -0.6029  -0.5672  -0.5668  -0.5565  -0.5525  -0.5391
    -0.5337  -0.5269  -0.5205  -0.4654  -0.4637  -0.4552  -0.4549  -0.4527
    -0.4514  -0.4449  -0.4281  -0.4256  -0.4196  -0.4191  -0.4150  -0.4128
    -0.3773  -0.3756  -0.3745  -0.3670  -0.3653  -0.3611  -0.3586  -0.3441
    -0.3430  -0.3397  -0.3334  -0.2977  -0.2971  -0.2892  -0.2853  -0.2838
    -0.2083  -0.2076  -0.2051  -0.2040  -0.1954  -0.1929  -0.1586  -0.1465
    -0.1459  -0.1182  -0.1139  -0.1042   0.0060   0.0102   0.1099   0.5255
     0.5260   0.5284   0.5291   0.5916   0.5964   0.9778   0.9796   1.0198
     1.0228   1.1309   1.2124   1.3171   1.3306   1.5367   1.5584   2.1769
     2.1774   2.3347   2.3425   2.4701   2.4754   2.5744   2.5749   2.7288
     2.9590   2.9684   3.0907   3.3092   3.3215   3.3967   3.3991   3.4980
     3.5139   3.6942   3.6982   3.7699   3.9707   3.9713   4.0320   4.0358
     4.2896   4.2949   4.3039   4.5399   4.5809   4.5840   4.6283   4.9611
     4.9647   4.9907   5.0373   5.1277   5.3007   5.3022   5.3470   5.3925
     5.6997   5.9327   6.0692   6.0857   6.0919   6.1038   6.1605   6.1634
     6.2126   6.2733   6.2952   6.3165   6.3198   6.3298   6.3378   6.3768
     6.3848   6.4141   6.5050   6.5786   6.7011   6.7655   6.9131   6.9845
     7.0245   7.0342   7.0438

          k =-0.2500 0.4330-0.1111 (136853 PWs)   bands (ev):

   -19.4015  -7.1896  -6.1892  -5.7915  -5.7881  -5.1154  -4.7789  -4.7781
    -4.7471  -4.7390  -4.3783  -4.3770  -4.2794  -4.2789  -4.2649  -4.2436
    -4.2324  -4.1135  -4.1112  -4.0880  -4.0443  -4.0435  -3.9910  -3.9750
    -3.9745  -3.9696  -3.9475  -3.9456  -3.9399  -3.9024  -3.8694  -3.8394
    -3.8374  -3.8268  -3.8257  -3.8040  -3.8027  -3.7805  -3.7738  -3.7721
    -3.7479  -3.6956  -3.6934  -3.6822  -3.6456  -3.6429  -3.5868  -3.5864
    -3.5313  -3.5307  -3.5304  -3.5269  -3.4950  -3.4576  -3.4566  -3.4492
    -3.4481  -3.4450  -3.4191  -3.4114  -3.4040  -3.3477  -3.3473  -3.3322
    -3.3202  -3.3132  -3.2421  -3.2343  -3.2095  -3.2010  -3.1796  -3.1789
    -3.1658  -3.1490  -3.0907  -3.0899  -3.0723  -3.0706  -3.0209  -3.0164
    -3.0114  -2.9764  -2.9469  -2.9443  -2.9366  -2.9342  -2.9239  -2.9217
    -2.9164  -2.9114  -2.9048  -2.8642  -2.8271  -2.8258  -2.8126  -2.8108
    -2.7856  -2.7776  -2.7737  -2.7551  -2.7088  -2.7077  -2.7011  -2.6614
    -2.6546  -2.6434  -2.6418  -2.6145  -2.6127  -2.5834  -2.5473  -2.5448
    -2.5255  -2.5169  -2.5042  -2.5004  -2.4533  -2.4512  -2.4193  -2.3976
    -2.3957  -2.3742  -2.3731  -2.3609  -2.3605  -2.3505  -2.3290  -2.3272
    -2.2835  -2.2821  -2.2819  -2.2661  -2.2639  -2.2587  -2.2501  -2.2491
    -2.2482  -2.2474  -2.2404  -2.2296  -2.2278  -2.2181  -2.1930  -2.1914
    -2.1907  -2.1904  -2.1872  -2.1861  -2.1815  -2.1587  -2.1559  -2.1416
    -2.1401  -2.1230  -2.1219  -2.1138  -2.1124  -2.1120  -2.1104  -2.0927
    -2.0915  -2.0903  -2.0855  -2.0718  -2.0473  -2.0449  -2.0057  -2.0033
    -1.9811  -1.9787  -1.9556  -1.9503  -1.9254  -1.9243  -1.9083  -1.9031
    -1.8754  -1.8573  -1.8539  -1.8517  -1.8486  -1.8425  -1.8377  -1.8355
    -1.8097  -1.8041  -1.7935  -1.7416  -1.7372  -1.7332  -1.7308  -1.7262
    -1.6913  -1.6740  -1.6725  -1.6568  -1.6457  -1.5878  -1.5848  -1.5716
    -1.5407  -1.5364  -1.5057  -1.4758  -1.4744  -1.4644  -1.4580  -1.4540
    -1.4503  -1.4441  -1.4401  -1.4385  -1.3852  -1.3795  -1.3730  -1.3697
    -1.3647  -1.3527  -1.3500  -1.3174  -1.3121  -1.2994  -1.2986  -1.2973
    -1.2907  -1.2823  -1.2786  -1.2685  -1.2585  -1.2539  -1.2183  -1.2098
    -1.2051  -1.2023  -1.1832  -1.1694  -1.1283  -1.1239  -1.1002  -1.0963
    -1.0918  -1.0660  -1.0156  -1.0138  -1.0134  -1.0107  -1.0077  -1.0026
    -0.9950  -0.9780  -0.9766  -0.9384  -0.9366  -0.9084  -0.9049  -0.9012
    -0.9003  -0.8936  -0.8781  -0.8765  -0.8752  -0.8729  -0.8714  -0.8396
    -0.8337  -0.8323  -0.8256  -0.8030  -0.8015  -0.7967  -0.7725  -0.7665
    -0.7616  -0.7200  -0.7141  -0.7066  -0.6764  -0.6691  -0.6586  -0.6573
    -0.6516  -0.6498  -0.6486  -0.6429  -0.6373  -0.6289  -0.6104  -0.6099
    -0.6061  -0.6058  -0.6010  -0.5673  -0.5664  -0.5596  -0.5522  -0.5378
    -0.5337  -0.5279  -0.5198  -0.4653  -0.4630  -0.4557  -0.4546  -0.4531
    -0.4508  -0.4463  -0.4299  -0.4243  -0.4192  -0.4183  -0.4170  -0.4117
    -0.3772  -0.3759  -0.3741  -0.3678  -0.3640  -0.3601  -0.3578  -0.3488
    -0.3417  -0.3400  -0.3331  -0.2982  -0.2965  -0.2896  -0.2856  -0.2835
    -0.2084  -0.2073  -0.2053  -0.2022  -0.1955  -0.1943  -0.1588  -0.1471
    -0.1450  -0.1223  -0.1138  -0.1005   0.0048   0.0150   0.1120   0.5253
     0.5259   0.5286   0.5291   0.5826   0.6028   0.9770   0.9784   1.0186
     1.0245   1.1331   1.2132   1.3146   1.3363   1.5309   1.5616   2.1708
     2.1817   2.3310   2.3489   2.4594   2.4852   2.5745   2.5751   2.7284
     2.9624   2.9660   3.0892   3.3069   3.3227   3.3948   3.4028   3.4957
     3.5140   3.6862   3.7028   3.7699   3.9705   3.9716   4.0270   4.0449
     4.2884   4.2895   4.3098   4.5411   4.5783   4.5876   4.6277   4.9603
     4.9647   4.9912   5.0474   5.1294   5.3002   5.3035   5.3196   5.3889
     5.7750   5.8605   6.0846   6.0866   6.0936   6.1148   6.1617   6.1630
     6.2166   6.2689   6.2972   6.3144   6.3226   6.3265   6.3409   6.3793
     6.3879   6.4195   6.4369   6.6041   6.6881   6.7616   6.9321   6.9712
     7.0225   7.0320   7.0423

          k = 0.2500-0.4330-0.1111 (136853 PWs)   bands (ev):

   -19.4015  -7.1896  -6.1892  -5.7915  -5.7881  -5.1154  -4.7789  -4.7781
    -4.7471  -4.7390  -4.3783  -4.3770  -4.2794  -4.2789  -4.2649  -4.2436
    -4.2324  -4.1135  -4.1112  -4.0880  -4.0443  -4.0435  -3.9910  -3.9750
    -3.9745  -3.9696  -3.9475  -3.9456  -3.9399  -3.9024  -3.8694  -3.8394
    -3.8374  -3.8268  -3.8257  -3.8040  -3.8027  -3.7805  -3.7738  -3.7721
    -3.7479  -3.6956  -3.6934  -3.6822  -3.6456  -3.6429  -3.5868  -3.5864
    -3.5313  -3.5307  -3.5304  -3.5269  -3.4950  -3.4576  -3.4566  -3.4492
    -3.4481  -3.4450  -3.4191  -3.4114  -3.4040  -3.3477  -3.3473  -3.3322
    -3.3202  -3.3132  -3.2421  -3.2343  -3.2095  -3.2010  -3.1796  -3.1789
    -3.1658  -3.1490  -3.0907  -3.0899  -3.0723  -3.0706  -3.0209  -3.0164
    -3.0114  -2.9764  -2.9469  -2.9443  -2.9366  -2.9342  -2.9239  -2.9217
    -2.9164  -2.9114  -2.9048  -2.8642  -2.8271  -2.8258  -2.8126  -2.8108
    -2.7856  -2.7776  -2.7737  -2.7551  -2.7088  -2.7077  -2.7011  -2.6614
    -2.6546  -2.6434  -2.6418  -2.6145  -2.6127  -2.5834  -2.5473  -2.5448
    -2.5255  -2.5169  -2.5042  -2.5004  -2.4533  -2.4512  -2.4193  -2.3976
    -2.3957  -2.3742  -2.3731  -2.3609  -2.3605  -2.3505  -2.3290  -2.3272
    -2.2835  -2.2821  -2.2819  -2.2661  -2.2639  -2.2587  -2.2501  -2.2491
    -2.2482  -2.2474  -2.2404  -2.2296  -2.2278  -2.2181  -2.1930  -2.1914
    -2.1907  -2.1904  -2.1872  -2.1861  -2.1815  -2.1587  -2.1559  -2.1416
    -2.1401  -2.1230  -2.1219  -2.1138  -2.1124  -2.1120  -2.1104  -2.0927
    -2.0915  -2.0903  -2.0855  -2.0718  -2.0473  -2.0449  -2.0057  -2.0033
    -1.9811  -1.9787  -1.9556  -1.9503  -1.9254  -1.9243  -1.9083  -1.9031
    -1.8754  -1.8573  -1.8539  -1.8517  -1.8486  -1.8425  -1.8377  -1.8355
    -1.8097  -1.8041  -1.7935  -1.7416  -1.7372  -1.7332  -1.7308  -1.7262
    -1.6913  -1.6740  -1.6725  -1.6568  -1.6457  -1.5878  -1.5848  -1.5716
    -1.5407  -1.5364  -1.5057  -1.4758  -1.4744  -1.4644  -1.4580  -1.4540
    -1.4503  -1.4441  -1.4401  -1.4385  -1.3852  -1.3795  -1.3730  -1.3697
    -1.3647  -1.3527  -1.3500  -1.3174  -1.3121  -1.2994  -1.2986  -1.2973
    -1.2907  -1.2823  -1.2786  -1.2685  -1.2585  -1.2539  -1.2183  -1.2098
    -1.2051  -1.2023  -1.1832  -1.1694  -1.1283  -1.1239  -1.1002  -1.0963
    -1.0918  -1.0660  -1.0156  -1.0138  -1.0134  -1.0107  -1.0077  -1.0026
    -0.9950  -0.9780  -0.9766  -0.9384  -0.9366  -0.9084  -0.9049  -0.9012
    -0.9003  -0.8936  -0.8781  -0.8765  -0.8752  -0.8729  -0.8714  -0.8396
    -0.8337  -0.8323  -0.8256  -0.8030  -0.8015  -0.7967  -0.7725  -0.7665
    -0.7616  -0.7200  -0.7141  -0.7066  -0.6764  -0.6691  -0.6586  -0.6573
    -0.6516  -0.6498  -0.6486  -0.6429  -0.6373  -0.6289  -0.6104  -0.6099
    -0.6061  -0.6058  -0.6010  -0.5673  -0.5664  -0.5596  -0.5522  -0.5378
    -0.5337  -0.5279  -0.5198  -0.4653  -0.4630  -0.4557  -0.4546  -0.4531
    -0.4508  -0.4463  -0.4299  -0.4243  -0.4192  -0.4183  -0.4170  -0.4117
    -0.3772  -0.3759  -0.3741  -0.3678  -0.3640  -0.3601  -0.3578  -0.3488
    -0.3417  -0.3400  -0.3331  -0.2982  -0.2965  -0.2896  -0.2856  -0.2835
    -0.2084  -0.2073  -0.2053  -0.2022  -0.1955  -0.1943  -0.1588  -0.1471
    -0.1450  -0.1223  -0.1138  -0.1005   0.0048   0.0150   0.1120   0.5253
     0.5259   0.5286   0.5291   0.5826   0.6028   0.9770   0.9784   1.0186
     1.0245   1.1331   1.2132   1.3146   1.3363   1.5309   1.5616   2.1708
     2.1817   2.3310   2.3489   2.4594   2.4852   2.5745   2.5751   2.7284
     2.9624   2.9660   3.0892   3.3069   3.3227   3.3948   3.4028   3.4957
     3.5140   3.6862   3.7028   3.7699   3.9705   3.9716   4.0270   4.0449
     4.2884   4.2895   4.3098   4.5411   4.5783   4.5876   4.6277   4.9603
     4.9647   4.9912   5.0474   5.1294   5.3002   5.3035   5.3196   5.3889
     5.7750   5.8604   6.0846   6.0866   6.0936   6.1149   6.1618   6.1630
     6.2166   6.2689   6.2972   6.3144   6.3226   6.3265   6.3408   6.3793
     6.3879   6.4191   6.4376   6.6046   6.6876   6.7616   6.9320   6.9711
     7.0224   7.0322   7.0424

          k = 0.5000 0.0000 0.1111 (136853 PWs)   bands (ev):

   -19.4015  -7.1896  -6.1892  -5.7918  -5.7879  -5.1155  -4.7788  -4.7779
    -4.7478  -4.7384  -4.3787  -4.3771  -4.2801  -4.2789  -4.2651  -4.2436
    -4.2321  -4.1123  -4.1111  -4.0874  -4.0443  -4.0436  -3.9890  -3.9748
    -3.9738  -3.9690  -3.9499  -3.9454  -3.9398  -3.9048  -3.8688  -3.8396
    -3.8369  -3.8270  -3.8260  -3.8038  -3.8027  -3.7806  -3.7741  -3.7717
    -3.7530  -3.7045  -3.6929  -3.6793  -3.6457  -3.6418  -3.5866  -3.5786
    -3.5314  -3.5306  -3.5303  -3.5181  -3.4947  -3.4575  -3.4514  -3.4493
    -3.4478  -3.4431  -3.4186  -3.4173  -3.4087  -3.3479  -3.3435  -3.3384
    -3.3192  -3.3132  -3.2418  -3.2357  -3.2089  -3.2077  -3.1796  -3.1791
    -3.1658  -3.1485  -3.0905  -3.0881  -3.0721  -3.0714  -3.0200  -3.0159
    -3.0118  -2.9764  -2.9464  -2.9439  -2.9370  -2.9342  -2.9237  -2.9222
    -2.9161  -2.9133  -2.9049  -2.8644  -2.8273  -2.8256  -2.8121  -2.8116
    -2.7858  -2.7768  -2.7756  -2.7550  -2.7093  -2.7077  -2.6996  -2.6612
    -2.6545  -2.6436  -2.6415  -2.6150  -2.6113  -2.5834  -2.5475  -2.5447
    -2.5251  -2.5169  -2.5040  -2.5018  -2.4532  -2.4519  -2.4195  -2.3975
    -2.3967  -2.3739  -2.3715  -2.3619  -2.3600  -2.3507  -2.3290  -2.3268
    -2.2831  -2.2822  -2.2816  -2.2659  -2.2643  -2.2587  -2.2504  -2.2488
    -2.2480  -2.2469  -2.2405  -2.2297  -2.2281  -2.2192  -2.1923  -2.1917
    -2.1905  -2.1901  -2.1890  -2.1865  -2.1821  -2.1576  -2.1555  -2.1417
    -2.1384  -2.1231  -2.1220  -2.1135  -2.1127  -2.1117  -2.1100  -2.0930
    -2.0910  -2.0906  -2.0852  -2.0715  -2.0469  -2.0452  -2.0058  -2.0034
    -1.9807  -1.9796  -1.9547  -1.9523  -1.9253  -1.9229  -1.9075  -1.9023
    -1.8756  -1.8577  -1.8534  -1.8521  -1.8472  -1.8442  -1.8394  -1.8360
    -1.8100  -1.8042  -1.7946  -1.7386  -1.7358  -1.7337  -1.7301  -1.7249
    -1.6933  -1.6742  -1.6725  -1.6519  -1.6451  -1.5876  -1.5851  -1.5736
    -1.5500  -1.5359  -1.5024  -1.4764  -1.4736  -1.4646  -1.4591  -1.4533
    -1.4524  -1.4475  -1.4402  -1.4346  -1.3839  -1.3788  -1.3726  -1.3711
    -1.3617  -1.3530  -1.3441  -1.3169  -1.3138  -1.2996  -1.2987  -1.2967
    -1.2908  -1.2819  -1.2784  -1.2745  -1.2571  -1.2567  -1.2184  -1.2116
    -1.2049  -1.1971  -1.1810  -1.1693  -1.1276  -1.1253  -1.1003  -1.0964
    -1.0938  -1.0657  -1.0159  -1.0140  -1.0130  -1.0104  -1.0065  -1.0029
    -0.9952  -0.9779  -0.9764  -0.9381  -0.9374  -0.9078  -0.9067  -0.9013
    -0.8997  -0.8942  -0.8778  -0.8770  -0.8750  -0.8735  -0.8705  -0.8369
    -0.8334  -0.8326  -0.8293  -0.8028  -0.7997  -0.7963  -0.7738  -0.7644
    -0.7630  -0.7197  -0.7140  -0.7060  -0.6767  -0.6677  -0.6584  -0.6578
    -0.6515  -0.6506  -0.6468  -0.6443  -0.6352  -0.6323  -0.6107  -0.6094
    -0.6065  -0.6044  -0.6027  -0.5671  -0.5667  -0.5578  -0.5518  -0.5387
    -0.5339  -0.5262  -0.5203  -0.4653  -0.4634  -0.4553  -0.4549  -0.4527
    -0.4515  -0.4458  -0.4283  -0.4254  -0.4195  -0.4189  -0.4156  -0.4126
    -0.3774  -0.3759  -0.3742  -0.3672  -0.3651  -0.3609  -0.3582  -0.3440
    -0.3431  -0.3398  -0.3343  -0.2980  -0.2969  -0.2894  -0.2854  -0.2836
    -0.2083  -0.2074  -0.2051  -0.2038  -0.1955  -0.1932  -0.1587  -0.1465
    -0.1458  -0.1190  -0.1140  -0.1034   0.0056   0.0105   0.1100   0.5254
     0.5262   0.5283   0.5291   0.5894   0.5974   0.9776   0.9796   1.0190
     1.0236   1.1315   1.2129   1.3169   1.3321   1.5358   1.5589   2.1763
     2.1772   2.3335   2.3443   2.4680   2.4766   2.5740   2.5753   2.7286
     2.9585   2.9695   3.0908   3.3091   3.3220   3.3969   3.3989   3.4982
     3.5140   3.6924   3.6995   3.7703   3.9705   3.9717   4.0325   4.0352
     4.2888   4.2947   4.3050   4.5403   4.5802   4.5841   4.6282   4.9607
     4.9656   4.9923   5.0397   5.1269   5.3007   5.3026   5.3394   5.3890
     5.7226   5.9096   6.0775   6.0858   6.0916   6.1066   6.1600   6.1646
     6.2135   6.2719   6.2958   6.3175   6.3188   6.3279   6.3391   6.3774
     6.3836   6.4164   6.4825   6.5925   6.7080   6.7424   6.9218   6.9807
     7.0248   7.0336   7.0442

          k =-0.5000 0.0000 0.1111 (136853 PWs)   bands (ev):

   -19.4015  -7.1896  -6.1892  -5.7918  -5.7879  -5.1155  -4.7788  -4.7779
    -4.7478  -4.7384  -4.3787  -4.3771  -4.2801  -4.2789  -4.2651  -4.2436
    -4.2321  -4.1123  -4.1111  -4.0874  -4.0443  -4.0436  -3.9890  -3.9748
    -3.9738  -3.9690  -3.9499  -3.9454  -3.9398  -3.9048  -3.8688  -3.8396
    -3.8369  -3.8270  -3.8260  -3.8038  -3.8027  -3.7806  -3.7741  -3.7717
    -3.7530  -3.7045  -3.6929  -3.6793  -3.6457  -3.6418  -3.5866  -3.5786
    -3.5314  -3.5306  -3.5303  -3.5181  -3.4947  -3.4575  -3.4514  -3.4493
    -3.4478  -3.4431  -3.4186  -3.4173  -3.4087  -3.3479  -3.3435  -3.3384
    -3.3192  -3.3132  -3.2418  -3.2357  -3.2089  -3.2077  -3.1796  -3.1791
    -3.1658  -3.1485  -3.0905  -3.0881  -3.0721  -3.0714  -3.0200  -3.0159
    -3.0118  -2.9764  -2.9464  -2.9439  -2.9370  -2.9342  -2.9237  -2.9222
    -2.9161  -2.9133  -2.9049  -2.8644  -2.8273  -2.8256  -2.8121  -2.8116
    -2.7858  -2.7768  -2.7756  -2.7550  -2.7093  -2.7077  -2.6996  -2.6612
    -2.6545  -2.6436  -2.6415  -2.6150  -2.6113  -2.5834  -2.5475  -2.5447
    -2.5251  -2.5169  -2.5040  -2.5018  -2.4532  -2.4519  -2.4195  -2.3975
    -2.3967  -2.3739  -2.3715  -2.3619  -2.3600  -2.3507  -2.3290  -2.3268
    -2.2831  -2.2822  -2.2816  -2.2659  -2.2643  -2.2587  -2.2504  -2.2488
    -2.2480  -2.2469  -2.2405  -2.2297  -2.2281  -2.2192  -2.1923  -2.1917
    -2.1905  -2.1901  -2.1890  -2.1865  -2.1821  -2.1576  -2.1555  -2.1417
    -2.1384  -2.1231  -2.1220  -2.1135  -2.1127  -2.1117  -2.1100  -2.0930
    -2.0910  -2.0906  -2.0852  -2.0715  -2.0469  -2.0452  -2.0058  -2.0034
    -1.9807  -1.9796  -1.9547  -1.9523  -1.9253  -1.9229  -1.9075  -1.9023
    -1.8756  -1.8577  -1.8534  -1.8521  -1.8472  -1.8442  -1.8394  -1.8360
    -1.8100  -1.8042  -1.7946  -1.7386  -1.7358  -1.7337  -1.7301  -1.7249
    -1.6933  -1.6742  -1.6725  -1.6519  -1.6451  -1.5876  -1.5851  -1.5736
    -1.5500  -1.5359  -1.5024  -1.4764  -1.4736  -1.4646  -1.4591  -1.4533
    -1.4524  -1.4475  -1.4402  -1.4346  -1.3839  -1.3788  -1.3726  -1.3711
    -1.3617  -1.3530  -1.3441  -1.3169  -1.3138  -1.2996  -1.2987  -1.2967
    -1.2908  -1.2819  -1.2784  -1.2746  -1.2571  -1.2567  -1.2184  -1.2116
    -1.2049  -1.1971  -1.1810  -1.1693  -1.1276  -1.1253  -1.1003  -1.0964
    -1.0938  -1.0657  -1.0159  -1.0140  -1.0130  -1.0104  -1.0065  -1.0028
    -0.9952  -0.9779  -0.9764  -0.9381  -0.9374  -0.9078  -0.9067  -0.9013
    -0.8997  -0.8942  -0.8778  -0.8770  -0.8750  -0.8735  -0.8705  -0.8369
    -0.8334  -0.8326  -0.8293  -0.8028  -0.7997  -0.7963  -0.7738  -0.7644
    -0.7630  -0.7197  -0.7140  -0.7060  -0.6767  -0.6677  -0.6584  -0.6578
    -0.6515  -0.6506  -0.6468  -0.6443  -0.6352  -0.6323  -0.6107  -0.6094
    -0.6065  -0.6044  -0.6027  -0.5671  -0.5667  -0.5578  -0.5518  -0.5387
    -0.5339  -0.5262  -0.5203  -0.4653  -0.4634  -0.4553  -0.4549  -0.4527
    -0.4515  -0.4458  -0.4283  -0.4254  -0.4195  -0.4189  -0.4156  -0.4126
    -0.3774  -0.3759  -0.3742  -0.3672  -0.3651  -0.3609  -0.3582  -0.3440
    -0.3431  -0.3398  -0.3343  -0.2980  -0.2969  -0.2894  -0.2854  -0.2836
    -0.2083  -0.2074  -0.2051  -0.2038  -0.1955  -0.1932  -0.1587  -0.1465
    -0.1458  -0.1190  -0.1140  -0.1034   0.0056   0.0105   0.1100   0.5254
     0.5262   0.5283   0.5291   0.5894   0.5974   0.9776   0.9796   1.0190
     1.0236   1.1315   1.2129   1.3169   1.3321   1.5358   1.5589   2.1763
     2.1772   2.3335   2.3443   2.4680   2.4766   2.5740   2.5753   2.7286
     2.9585   2.9695   3.0908   3.3091   3.3220   3.3969   3.3989   3.4982
     3.5140   3.6924   3.6995   3.7703   3.9705   3.9717   4.0325   4.0352
     4.2888   4.2947   4.3050   4.5403   4.5802   4.5841   4.6282   4.9607
     4.9656   4.9923   5.0397   5.1269   5.3007   5.3026   5.3394   5.3890
     5.7226   5.9096   6.0781   6.0859   6.0914   6.1064   6.1599   6.1643
     6.2134   6.2718   6.2959   6.3174   6.3188   6.3279   6.3391   6.3779
     6.3838   6.4155   6.4829   6.5917   6.7098   6.7414   6.9232   6.9797
     7.0252   7.0333   7.0437

          k =-0.2500 0.1443 0.1111 (136898 PWs)   bands (ev):

   -19.4015  -7.1896  -6.3992  -5.6071  -5.3191  -5.2569  -5.2566  -4.7185
    -4.7181  -4.5909  -4.5859  -4.4357  -4.4076  -4.3384  -4.3135  -4.3060
    -4.2717  -4.2713  -4.1428  -4.1011  -4.1008  -4.0422  -4.0274  -4.0205
    -3.9182  -3.9174  -3.8858  -3.8811  -3.8808  -3.8640  -3.8349  -3.8324
    -3.7946  -3.7255  -3.7252  -3.7098  -3.7014  -3.6877  -3.6865  -3.6759
    -3.6633  -3.6595  -3.6322  -3.6315  -3.6313  -3.6225  -3.5997  -3.5941
    -3.5811  -3.5798  -3.5679  -3.5252  -3.5173  -3.4918  -3.4791  -3.4726
    -3.4724  -3.4543  -3.3981  -3.3973  -3.3637  -3.3612  -3.3470  -3.2926
    -3.2918  -3.2775  -3.2756  -3.2469  -3.2460  -3.2455  -3.2425  -3.0919
    -3.0910  -3.0669  -3.0659  -3.0580  -3.0449  -3.0422  -3.0193  -3.0175
    -2.9691  -2.9676  -2.9529  -2.9514  -2.9316  -2.8847  -2.8831  -2.8639
    -2.8595  -2.8579  -2.8185  -2.8172  -2.8110  -2.8086  -2.7955  -2.7926
    -2.7555  -2.7553  -2.7337  -2.7328  -2.7302  -2.7289  -2.7251  -2.6505
    -2.6484  -2.6469  -2.6195  -2.6181  -2.5580  -2.5563  -2.5289  -2.5268
    -2.5151  -2.5146  -2.5081  -2.4796  -2.4789  -2.4692  -2.4520  -2.4279
    -2.4273  -2.4230  -2.4060  -2.4043  -2.3950  -2.3933  -2.3920  -2.3877
    -2.3815  -2.3356  -2.3043  -2.3034  -2.2884  -2.2746  -2.2682  -2.2676
    -2.2608  -2.2599  -2.2580  -2.2293  -2.2287  -2.2270  -2.2190  -2.2182
    -2.2016  -2.1745  -2.1737  -2.1733  -2.1727  -2.1710  -2.1260  -2.0965
    -2.0952  -2.0936  -2.0884  -2.0784  -2.0674  -2.0652  -2.0491  -2.0488
    -2.0170  -2.0147  -2.0138  -1.9960  -1.9958  -1.9940  -1.9625  -1.9595
    -1.9211  -1.9180  -1.9130  -1.9107  -1.9101  -1.9041  -1.9037  -1.9027
    -1.9011  -1.8956  -1.8914  -1.8785  -1.8740  -1.7530  -1.7509  -1.7240
    -1.7129  -1.7117  -1.7050  -1.7043  -1.6985  -1.6880  -1.6874  -1.6854
    -1.6806  -1.6592  -1.6547  -1.6531  -1.6462  -1.6421  -1.6357  -1.6172
    -1.6149  -1.5889  -1.5872  -1.5588  -1.5548  -1.5452  -1.5383  -1.5325
    -1.5185  -1.5158  -1.5042  -1.4980  -1.4848  -1.4827  -1.4768  -1.4741
    -1.4513  -1.4466  -1.4349  -1.4309  -1.4026  -1.3979  -1.3870  -1.3417
    -1.3402  -1.3292  -1.3232  -1.3125  -1.3013  -1.2983  -1.2666  -1.2654
    -1.2603  -1.2296  -1.2229  -1.2176  -1.2052  -1.2037  -1.1789  -1.1777
    -1.1681  -1.1469  -1.1446  -1.1435  -1.0825  -1.0812  -1.0704  -1.0675
    -1.0525  -1.0517  -1.0401  -1.0374  -1.0212  -1.0086  -0.9809  -0.9797
    -0.9672  -0.9390  -0.9318  -0.9273  -0.9186  -0.9183  -0.9165  -0.9130
    -0.9042  -0.8970  -0.8681  -0.8671  -0.8586  -0.8565  -0.8540  -0.8413
    -0.8308  -0.8144  -0.8041  -0.7923  -0.7800  -0.6976  -0.6847  -0.6793
    -0.6787  -0.6739  -0.6688  -0.6664  -0.6444  -0.6397  -0.6300  -0.6253
    -0.6139  -0.6110  -0.6048  -0.5856  -0.5827  -0.5763  -0.5739  -0.5011
    -0.5004  -0.4695  -0.4633  -0.4625  -0.4575  -0.4541  -0.4533  -0.4503
    -0.4403  -0.4377  -0.4203  -0.3988  -0.3831  -0.3663  -0.3639  -0.3548
    -0.3516  -0.3412  -0.3408  -0.3397  -0.3373  -0.3354  -0.3210  -0.3165
    -0.3135  -0.2859  -0.2837  -0.2823  -0.2714  -0.2704  -0.2519  -0.2205
    -0.2187  -0.2111  -0.2082  -0.1430  -0.1411  -0.1060  -0.1058  -0.0479
    -0.0470  -0.0465  -0.0283  -0.0189   0.2015   0.2202   0.5538   0.5541
     0.6392   0.6570   0.8364   0.8638   0.8757   0.9998   1.0064   1.4341
     1.4345   1.4528   1.7113   1.7439   1.7449   2.0118   2.0319   2.0985
     2.1012   2.1214   2.1409   2.3552   2.3574   2.4449   2.4461   2.5081
     2.5755   2.6014   2.7505   2.8485   3.2843   3.2865   3.2873   3.2992
     3.3430   3.3489   3.6376   3.6391   3.9116   3.9268   4.0072   4.3344
     4.3707   4.3818   4.5665   4.5750   4.6751   4.6805   4.7679   4.8857
     4.8901   5.0012   5.0060   5.0403   5.3074   5.3742   5.3786   5.5049
     5.5509   5.7604   5.7637   5.7768   5.7912   5.7933   5.8483   5.8535
     5.9108   6.0231   6.1882   6.2657   6.4491   6.4622   6.5923   6.5960
     6.6040   6.6103   6.6296   6.7472   6.8083   6.8466   6.8577   6.9816
     7.0205   7.0485   7.0758

          k =-0.2500-0.1443-0.1111 (136898 PWs)   bands (ev):

   -19.4015  -7.1896  -6.3992  -5.6072  -5.3191  -5.2572  -5.2562  -4.7185
    -4.7177  -4.5916  -4.5861  -4.4357  -4.4076  -4.3390  -4.3124  -4.3054
    -4.2714  -4.2711  -4.1425  -4.1018  -4.1005  -4.0449  -4.0248  -4.0202
    -3.9180  -3.9172  -3.8864  -3.8812  -3.8806  -3.8661  -3.8337  -3.8326
    -3.8002  -3.7260  -3.7250  -3.7134  -3.6954  -3.6876  -3.6867  -3.6757
    -3.6690  -3.6466  -3.6321  -3.6315  -3.6311  -3.6229  -3.6001  -3.5986
    -3.5810  -3.5808  -3.5571  -3.5263  -3.5233  -3.4898  -3.4788  -3.4727
    -3.4724  -3.4545  -3.3981  -3.3979  -3.3629  -3.3611  -3.3483  -3.2926
    -3.2925  -3.2771  -3.2753  -3.2466  -3.2463  -3.2459  -3.2445  -3.0916
    -3.0912  -3.0676  -3.0623  -3.0601  -3.0449  -3.0425  -3.0197  -3.0186
    -2.9690  -2.9684  -2.9525  -2.9520  -2.9314  -2.8853  -2.8816  -2.8641
    -2.8594  -2.8582  -2.8184  -2.8176  -2.8112  -2.8086  -2.7952  -2.7943
    -2.7552  -2.7550  -2.7346  -2.7316  -2.7302  -2.7288  -2.7246  -2.6503
    -2.6500  -2.6472  -2.6193  -2.6185  -2.5589  -2.5533  -2.5286  -2.5278
    -2.5147  -2.5140  -2.5082  -2.4801  -2.4779  -2.4693  -2.4518  -2.4289
    -2.4277  -2.4244  -2.4058  -2.4050  -2.3952  -2.3942  -2.3915  -2.3867
    -2.3816  -2.3355  -2.3042  -2.3032  -2.2879  -2.2747  -2.2685  -2.2675
    -2.2607  -2.2602  -2.2582  -2.2293  -2.2291  -2.2254  -2.2191  -2.2179
    -2.2018  -2.1747  -2.1742  -2.1732  -2.1726  -2.1719  -2.1262  -2.0960
    -2.0950  -2.0942  -2.0882  -2.0785  -2.0686  -2.0632  -2.0489  -2.0486
    -2.0168  -2.0144  -2.0143  -1.9965  -1.9959  -1.9923  -1.9621  -1.9610
    -1.9214  -1.9179  -1.9127  -1.9109  -1.9102  -1.9047  -1.9039  -1.9031
    -1.9011  -1.8951  -1.8895  -1.8797  -1.8754  -1.7519  -1.7474  -1.7184
    -1.7158  -1.7084  -1.7073  -1.7034  -1.7008  -1.6881  -1.6855  -1.6843
    -1.6817  -1.6595  -1.6556  -1.6523  -1.6483  -1.6411  -1.6348  -1.6184
    -1.6121  -1.5914  -1.5825  -1.5621  -1.5568  -1.5522  -1.5384  -1.5360
    -1.5190  -1.5164  -1.4993  -1.4956  -1.4839  -1.4836  -1.4764  -1.4686
    -1.4511  -1.4503  -1.4334  -1.4317  -1.3974  -1.3951  -1.3908  -1.3416
    -1.3406  -1.3293  -1.3228  -1.3214  -1.3015  -1.2983  -1.2665  -1.2648
    -1.2558  -1.2320  -1.2216  -1.2153  -1.2047  -1.2046  -1.1806  -1.1763
    -1.1733  -1.1466  -1.1444  -1.1432  -1.0816  -1.0810  -1.0692  -1.0662
    -1.0523  -1.0513  -1.0399  -1.0375  -1.0206  -1.0078  -0.9812  -0.9785
    -0.9690  -0.9403  -0.9300  -0.9289  -0.9187  -0.9185  -0.9178  -0.9121
    -0.9071  -0.8969  -0.8685  -0.8673  -0.8569  -0.8565  -0.8495  -0.8452
    -0.8302  -0.8094  -0.8055  -0.7871  -0.7845  -0.6981  -0.6845  -0.6792
    -0.6790  -0.6749  -0.6686  -0.6641  -0.6447  -0.6441  -0.6287  -0.6260
    -0.6131  -0.6128  -0.6047  -0.5844  -0.5815  -0.5801  -0.5735  -0.5013
    -0.5008  -0.4669  -0.4659  -0.4625  -0.4560  -0.4558  -0.4529  -0.4520
    -0.4423  -0.4322  -0.4220  -0.3987  -0.3842  -0.3656  -0.3647  -0.3537
    -0.3533  -0.3421  -0.3406  -0.3396  -0.3377  -0.3340  -0.3207  -0.3163
    -0.3137  -0.2858  -0.2854  -0.2797  -0.2715  -0.2697  -0.2518  -0.2201
    -0.2191  -0.2098  -0.2093  -0.1435  -0.1404  -0.1063  -0.1053  -0.0480
    -0.0476  -0.0452  -0.0311  -0.0190   0.2106   0.2139   0.5539   0.5539
     0.6468   0.6514   0.8315   0.8657   0.8737   1.0005   1.0052   1.4342
     1.4349   1.4512   1.7113   1.7439   1.7459   2.0209   2.0231   2.0997
     2.1004   2.1268   2.1355   2.3546   2.3592   2.4452   2.4455   2.5096
     2.5834   2.5917   2.7490   2.8503   3.2819   3.2868   3.2927   3.2943
     3.3437   3.3508   3.6380   3.6393   3.9181   3.9225   4.0094   4.3342
     4.3747   4.3774   4.5428   4.5852   4.6746   4.6804   4.7712   4.8774
     4.8928   5.0047   5.0051   5.0548   5.3070   5.3678   5.3844   5.5301
     5.5384   5.7505   5.7635   5.7671   5.7930   5.7942   5.8495   5.8608
     5.8704   5.9899   6.2383   6.3321   6.4372   6.4624   6.5912   6.5952
     6.5974   6.6123   6.6188   6.6863   6.8468   6.8524   6.9029   6.9627
     6.9987   7.0638   7.0686

          k = 0.2500 0.1443-0.1111 (136898 PWs)   bands (ev):

   -19.4015  -7.1896  -6.3992  -5.6072  -5.3191  -5.2572  -5.2562  -4.7185
    -4.7177  -4.5916  -4.5861  -4.4357  -4.4076  -4.3390  -4.3124  -4.3054
    -4.2714  -4.2711  -4.1425  -4.1018  -4.1005  -4.0449  -4.0248  -4.0202
    -3.9180  -3.9172  -3.8864  -3.8812  -3.8806  -3.8661  -3.8337  -3.8326
    -3.8002  -3.7260  -3.7250  -3.7134  -3.6954  -3.6876  -3.6867  -3.6757
    -3.6690  -3.6466  -3.6321  -3.6315  -3.6311  -3.6229  -3.6001  -3.5986
    -3.5810  -3.5808  -3.5571  -3.5263  -3.5232  -3.4898  -3.4788  -3.4727
    -3.4724  -3.4545  -3.3981  -3.3979  -3.3629  -3.3611  -3.3483  -3.2926
    -3.2925  -3.2771  -3.2753  -3.2466  -3.2463  -3.2459  -3.2445  -3.0916
    -3.0912  -3.0676  -3.0623  -3.0601  -3.0449  -3.0425  -3.0197  -3.0185
    -2.9690  -2.9684  -2.9525  -2.9520  -2.9314  -2.8853  -2.8816  -2.8641
    -2.8594  -2.8582  -2.8184  -2.8176  -2.8112  -2.8086  -2.7952  -2.7943
    -2.7552  -2.7550  -2.7346  -2.7316  -2.7302  -2.7288  -2.7246  -2.6503
    -2.6500  -2.6472  -2.6193  -2.6185  -2.5589  -2.5533  -2.5286  -2.5279
    -2.5147  -2.5140  -2.5082  -2.4801  -2.4779  -2.4693  -2.4518  -2.4289
    -2.4277  -2.4244  -2.4058  -2.4050  -2.3952  -2.3942  -2.3915  -2.3867
    -2.3816  -2.3355  -2.3042  -2.3032  -2.2879  -2.2747  -2.2685  -2.2675
    -2.2607  -2.2602  -2.2582  -2.2293  -2.2291  -2.2254  -2.2191  -2.2179
    -2.2018  -2.1747  -2.1742  -2.1732  -2.1726  -2.1719  -2.1262  -2.0960
    -2.0950  -2.0942  -2.0882  -2.0785  -2.0686  -2.0632  -2.0489  -2.0486
    -2.0168  -2.0144  -2.0143  -1.9965  -1.9959  -1.9923  -1.9621  -1.9610
    -1.9214  -1.9179  -1.9127  -1.9109  -1.9102  -1.9047  -1.9039  -1.9031
    -1.9011  -1.8951  -1.8895  -1.8797  -1.8754  -1.7519  -1.7474  -1.7184
    -1.7158  -1.7084  -1.7073  -1.7034  -1.7008  -1.6881  -1.6855  -1.6843
    -1.6817  -1.6595  -1.6556  -1.6523  -1.6483  -1.6411  -1.6348  -1.6184
    -1.6121  -1.5914  -1.5825  -1.5621  -1.5568  -1.5522  -1.5384  -1.5360
    -1.5190  -1.5164  -1.4993  -1.4956  -1.4839  -1.4836  -1.4764  -1.4686
    -1.4511  -1.4503  -1.4334  -1.4317  -1.3974  -1.3951  -1.3908  -1.3416
    -1.3406  -1.3293  -1.3228  -1.3214  -1.3015  -1.2983  -1.2665  -1.2648
    -1.2558  -1.2320  -1.2216  -1.2153  -1.2047  -1.2046  -1.1806  -1.1764
    -1.1733  -1.1466  -1.1444  -1.1432  -1.0816  -1.0810  -1.0692  -1.0662
    -1.0523  -1.0513  -1.0399  -1.0375  -1.0206  -1.0078  -0.9812  -0.9785
    -0.9690  -0.9403  -0.9300  -0.9290  -0.9187  -0.9185  -0.9178  -0.9121
    -0.9071  -0.8969  -0.8685  -0.8673  -0.8570  -0.8565  -0.8495  -0.8452
    -0.8302  -0.8094  -0.8055  -0.7871  -0.7845  -0.6981  -0.6845  -0.6792
    -0.6790  -0.6749  -0.6686  -0.6642  -0.6447  -0.6441  -0.6287  -0.6260
    -0.6131  -0.6128  -0.6047  -0.5844  -0.5815  -0.5801  -0.5735  -0.5013
    -0.5008  -0.4669  -0.4659  -0.4625  -0.4560  -0.4558  -0.4529  -0.4520
    -0.4423  -0.4322  -0.4220  -0.3987  -0.3841  -0.3656  -0.3647  -0.3537
    -0.3533  -0.3421  -0.3406  -0.3396  -0.3377  -0.3340  -0.3207  -0.3163
    -0.3137  -0.2858  -0.2854  -0.2797  -0.2715  -0.2697  -0.2518  -0.2201
    -0.2191  -0.2098  -0.2093  -0.1435  -0.1404  -0.1063  -0.1053  -0.0480
    -0.0476  -0.0452  -0.0311  -0.0190   0.2106   0.2139   0.5539   0.5539
     0.6468   0.6514   0.8315   0.8657   0.8737   1.0005   1.0052   1.4342
     1.4349   1.4512   1.7113   1.7439   1.7459   2.0209   2.0231   2.0997
     2.1004   2.1268   2.1355   2.3546   2.3592   2.4452   2.4455   2.5096
     2.5834   2.5917   2.7490   2.8503   3.2819   3.2868   3.2927   3.2943
     3.3437   3.3508   3.6380   3.6393   3.9181   3.9225   4.0094   4.3342
     4.3747   4.3774   4.5428   4.5852   4.6746   4.6804   4.7712   4.8774
     4.8928   5.0047   5.0051   5.0548   5.3070   5.3678   5.3844   5.5301
     5.5384   5.7509   5.7635   5.7666   5.7929   5.7940   5.8496   5.8608
     5.8706   5.9905   6.2385   6.3314   6.4358   6.4616   6.5885   6.5950
     6.5977   6.6123   6.6177   6.6886   6.8468   6.8523   6.9047   6.9645
     7.0042   7.0649   7.0695

          k = 0.0000-0.2887 0.1111 (136898 PWs)   bands (ev):

   -19.4015  -7.1896  -6.3992  -5.6071  -5.3191  -5.2569  -5.2566  -4.7184
    -4.7180  -4.5909  -4.5859  -4.4357  -4.4076  -4.3385  -4.3136  -4.3060
    -4.2717  -4.2712  -4.1427  -4.1012  -4.1007  -4.0420  -4.0274  -4.0207
    -3.9182  -3.9173  -3.8857  -3.8811  -3.8808  -3.8641  -3.8350  -3.8324
    -3.7944  -3.7256  -3.7251  -3.7099  -3.7014  -3.6879  -3.6865  -3.6759
    -3.6633  -3.6595  -3.6323  -3.6314  -3.6312  -3.6223  -3.5998  -3.5942
    -3.5810  -3.5797  -3.5677  -3.5255  -3.5173  -3.4919  -3.4791  -3.4726
    -3.4724  -3.4542  -3.3981  -3.3974  -3.3635  -3.3611  -3.3471  -3.2928
    -3.2919  -3.2774  -3.2754  -3.2469  -3.2462  -3.2456  -3.2425  -3.0919
    -3.0911  -3.0669  -3.0659  -3.0579  -3.0450  -3.0424  -3.0194  -3.0173
    -2.9691  -2.9676  -2.9529  -2.9513  -2.9315  -2.8849  -2.8827  -2.8639
    -2.8596  -2.8580  -2.8185  -2.8172  -2.8111  -2.8088  -2.7955  -2.7927
    -2.7553  -2.7551  -2.7339  -2.7326  -2.7301  -2.7291  -2.7249  -2.6505
    -2.6487  -2.6468  -2.6195  -2.6181  -2.5582  -2.5561  -2.5288  -2.5267
    -2.5149  -2.5144  -2.5081  -2.4795  -2.4788  -2.4693  -2.4519  -2.4281
    -2.4276  -2.4232  -2.4059  -2.4043  -2.3954  -2.3931  -2.3917  -2.3879
    -2.3816  -2.3355  -2.3043  -2.3035  -2.2882  -2.2748  -2.2682  -2.2676
    -2.2609  -2.2600  -2.2581  -2.2293  -2.2286  -2.2270  -2.2190  -2.2182
    -2.2015  -2.1746  -2.1741  -2.1731  -2.1726  -2.1710  -2.1262  -2.0966
    -2.0952  -2.0937  -2.0883  -2.0785  -2.0672  -2.0654  -2.0489  -2.0487
    -2.0170  -2.0146  -2.0138  -1.9960  -1.9956  -1.9940  -1.9626  -1.9594
    -1.9212  -1.9180  -1.9127  -1.9108  -1.9100  -1.9043  -1.9036  -1.9026
    -1.9013  -1.8956  -1.8913  -1.8786  -1.8745  -1.7518  -1.7497  -1.7241
    -1.7140  -1.7104  -1.7056  -1.7043  -1.6987  -1.6884  -1.6869  -1.6850
    -1.6809  -1.6592  -1.6543  -1.6530  -1.6469  -1.6425  -1.6350  -1.6176
    -1.6152  -1.5892  -1.5872  -1.5626  -1.5539  -1.5450  -1.5392  -1.5333
    -1.5184  -1.5155  -1.5027  -1.4979  -1.4848  -1.4825  -1.4770  -1.4745
    -1.4509  -1.4473  -1.4350  -1.4297  -1.4008  -1.3978  -1.3870  -1.3415
    -1.3400  -1.3291  -1.3231  -1.3137  -1.3016  -1.2982  -1.2665  -1.2656
    -1.2585  -1.2299  -1.2223  -1.2181  -1.2050  -1.2037  -1.1790  -1.1775
    -1.1695  -1.1471  -1.1448  -1.1440  -1.0826  -1.0814  -1.0701  -1.0679
    -1.0521  -1.0517  -1.0398  -1.0369  -1.0208  -1.0084  -0.9809  -0.9794
    -0.9677  -0.9392  -0.9313  -0.9276  -0.9187  -0.9185  -0.9169  -0.9127
    -0.9057  -0.8969  -0.8679  -0.8674  -0.8579  -0.8565  -0.8526  -0.8416
    -0.8310  -0.8135  -0.8049  -0.7918  -0.7806  -0.6973  -0.6848  -0.6792
    -0.6788  -0.6739  -0.6691  -0.6661  -0.6445  -0.6408  -0.6296  -0.6253
    -0.6136  -0.6110  -0.6050  -0.5851  -0.5829  -0.5769  -0.5740  -0.5011
    -0.5002  -0.4691  -0.4637  -0.4626  -0.4574  -0.4543  -0.4534  -0.4512
    -0.4401  -0.4364  -0.4205  -0.3987  -0.3839  -0.3662  -0.3640  -0.3548
    -0.3520  -0.3412  -0.3406  -0.3397  -0.3367  -0.3356  -0.3210  -0.3166
    -0.3136  -0.2859  -0.2836  -0.2819  -0.2713  -0.2701  -0.2520  -0.2205
    -0.2187  -0.2110  -0.2085  -0.1432  -0.1407  -0.1061  -0.1056  -0.0479
    -0.0469  -0.0463  -0.0292  -0.0189   0.2034   0.2196   0.5538   0.5541
     0.6406   0.6563   0.8350   0.8633   0.8761   1.0002   1.0061   1.4340
     1.4345   1.4531   1.7111   1.7438   1.7449   2.0136   2.0307   2.0989
     2.1008   2.1224   2.1398   2.3552   2.3570   2.4450   2.4460   2.5082
     2.5770   2.5997   2.7504   2.8482   3.2843   3.2865   3.2885   3.2987
     3.3436   3.3484   3.6376   3.6392   3.9123   3.9261   4.0078   4.3345
     4.3708   4.3806   4.5638   4.5734   4.6750   4.6808   4.7682   4.8861
     4.8897   5.0017   5.0069   5.0440   5.3070   5.3741   5.3796   5.5112
     5.5489   5.7591   5.7633   5.7734   5.7915   5.7940   5.8478   5.8545
     5.8995   6.0029   6.2378   6.2590   6.4481   6.4613   6.5917   6.5962
     6.6044   6.6083   6.6284   6.7269   6.8333   6.8476   6.8566   6.9783
     7.0111   7.0495   7.0794

          k = 0.0000 0.2887 0.1111 (136898 PWs)   bands (ev):

   -19.4015  -7.1896  -6.3992  -5.6071  -5.3191  -5.2569  -5.2566  -4.7184
    -4.7180  -4.5909  -4.5859  -4.4357  -4.4076  -4.3385  -4.3136  -4.3060
    -4.2717  -4.2712  -4.1427  -4.1012  -4.1007  -4.0420  -4.0274  -4.0207
    -3.9182  -3.9173  -3.8857  -3.8811  -3.8808  -3.8641  -3.8350  -3.8324
    -3.7944  -3.7256  -3.7251  -3.7099  -3.7014  -3.6879  -3.6865  -3.6759
    -3.6633  -3.6595  -3.6323  -3.6314  -3.6311  -3.6223  -3.5997  -3.5942
    -3.5810  -3.5797  -3.5677  -3.5255  -3.5173  -3.4919  -3.4790  -3.4726
    -3.4724  -3.4542  -3.3981  -3.3974  -3.3635  -3.3611  -3.3471  -3.2928
    -3.2919  -3.2774  -3.2754  -3.2469  -3.2462  -3.2456  -3.2425  -3.0919
    -3.0911  -3.0669  -3.0659  -3.0579  -3.0450  -3.0424  -3.0194  -3.0173
    -2.9691  -2.9676  -2.9529  -2.9513  -2.9315  -2.8849  -2.8827  -2.8639
    -2.8596  -2.8580  -2.8185  -2.8172  -2.8111  -2.8088  -2.7955  -2.7927
    -2.7553  -2.7551  -2.7338  -2.7326  -2.7301  -2.7291  -2.7249  -2.6505
    -2.6487  -2.6468  -2.6195  -2.6181  -2.5582  -2.5561  -2.5288  -2.5267
    -2.5149  -2.5144  -2.5081  -2.4795  -2.4788  -2.4693  -2.4519  -2.4281
    -2.4276  -2.4232  -2.4059  -2.4043  -2.3954  -2.3931  -2.3917  -2.3879
    -2.3816  -2.3355  -2.3043  -2.3035  -2.2882  -2.2748  -2.2682  -2.2676
    -2.2609  -2.2600  -2.2581  -2.2293  -2.2286  -2.2270  -2.2190  -2.2182
    -2.2015  -2.1746  -2.1741  -2.1731  -2.1726  -2.1710  -2.1262  -2.0966
    -2.0952  -2.0937  -2.0883  -2.0785  -2.0672  -2.0654  -2.0489  -2.0487
    -2.0170  -2.0146  -2.0138  -1.9960  -1.9956  -1.9940  -1.9626  -1.9594
    -1.9212  -1.9180  -1.9127  -1.9108  -1.9100  -1.9043  -1.9036  -1.9026
    -1.9013  -1.8956  -1.8913  -1.8786  -1.8745  -1.7518  -1.7497  -1.7241
    -1.7140  -1.7104  -1.7056  -1.7043  -1.6987  -1.6884  -1.6869  -1.6850
    -1.6809  -1.6592  -1.6543  -1.6530  -1.6469  -1.6425  -1.6350  -1.6177
    -1.6152  -1.5892  -1.5872  -1.5626  -1.5539  -1.5450  -1.5393  -1.5333
    -1.5184  -1.5155  -1.5027  -1.4979  -1.4848  -1.4825  -1.4770  -1.4745
    -1.4509  -1.4473  -1.4350  -1.4297  -1.4008  -1.3978  -1.3870  -1.3415
    -1.3400  -1.3291  -1.3231  -1.3137  -1.3016  -1.2982  -1.2665  -1.2656
    -1.2585  -1.2299  -1.2223  -1.2181  -1.2050  -1.2037  -1.1790  -1.1775
    -1.1695  -1.1471  -1.1448  -1.1440  -1.0826  -1.0814  -1.0701  -1.0679
    -1.0521  -1.0517  -1.0398  -1.0369  -1.0208  -1.0084  -0.9809  -0.9794
    -0.9677  -0.9392  -0.9313  -0.9276  -0.9187  -0.9185  -0.9169  -0.9127
    -0.9057  -0.8969  -0.8679  -0.8674  -0.8579  -0.8565  -0.8526  -0.8416
    -0.8310  -0.8135  -0.8049  -0.7918  -0.7806  -0.6973  -0.6848  -0.6792
    -0.6788  -0.6739  -0.6691  -0.6661  -0.6445  -0.6408  -0.6296  -0.6253
    -0.6136  -0.6110  -0.6050  -0.5851  -0.5829  -0.5769  -0.5740  -0.5011
    -0.5002  -0.4691  -0.4637  -0.4626  -0.4574  -0.4543  -0.4534  -0.4512
    -0.4401  -0.4364  -0.4205  -0.3987  -0.3839  -0.3662  -0.3640  -0.3548
    -0.3520  -0.3412  -0.3406  -0.3397  -0.3367  -0.3356  -0.3210  -0.3166
    -0.3136  -0.2859  -0.2836  -0.2819  -0.2713  -0.2701  -0.2520  -0.2205
    -0.2187  -0.2110  -0.2085  -0.1432  -0.1407  -0.1061  -0.1056  -0.0479
    -0.0469  -0.0463  -0.0292  -0.0189   0.2034   0.2196   0.5538   0.5541
     0.6406   0.6563   0.8350   0.8633   0.8761   1.0002   1.0061   1.4340
     1.4345   1.4531   1.7111   1.7438   1.7449   2.0136   2.0307   2.0989
     2.1007   2.1224   2.1398   2.3552   2.3570   2.4450   2.4460   2.5082
     2.5770   2.5997   2.7504   2.8482   3.2843   3.2865   3.2885   3.2987
     3.3436   3.3484   3.6376   3.6391   3.9123   3.9261   4.0078   4.3345
     4.3708   4.3806   4.5638   4.5734   4.6750   4.6808   4.7682   4.8861
     4.8897   5.0017   5.0069   5.0440   5.3070   5.3740   5.3796   5.5111
     5.5489   5.7591   5.7632   5.7735   5.7916   5.7941   5.8479   5.8545
     5.8996   6.0027   6.2382   6.2584   6.4471   6.4622   6.5924   6.5960
     6.6036   6.6080   6.6258   6.7260   6.8335   6.8476   6.8567   6.9821
     7.0157   7.0512   7.0831

     the Fermi energy is     1.5783 ev

!    total energy              =   -6604.43402617 Ry
     Harris-Foulkes estimate   =   -6604.43402616 Ry
     estimated scf accuracy    <          5.5E-09 Ry

     The total energy is the sum of the following terms:

     one-electron contribution =  -48744.73427867 Ry
     hartree contribution      =   24877.04747757 Ry
     xc contribution           =   -3204.98014278 Ry
     ewald contribution        =   20468.23010889 Ry
     smearing contrib. (-TS)   =       0.00280883 Ry

     convergence has been achieved in  24 iterations

     Writing output data file 7222379.save

     init_run     :    151.79s CPU    171.18s WALL (       1 calls)
     electrons    :   8429.48s CPU  10225.82s WALL (       1 calls)

     Called by init_run:
     wfcinit      :    111.64s CPU    129.82s WALL (       1 calls)
     potinit      :     13.62s CPU     14.45s WALL (       1 calls)

     Called by electrons:
     c_bands      :   6874.88s CPU   8389.06s WALL (      25 calls)
     sum_band     :   1086.74s CPU   1200.66s WALL (      25 calls)
     v_of_rho     :    182.49s CPU    308.37s WALL (      25 calls)
     newd         :    298.35s CPU    315.99s WALL (      25 calls)
     mix_rho      :      4.98s CPU      6.74s WALL (      25 calls)
     vdW_energy   :      5.11s CPU     28.76s WALL (      25 calls)
     vdW_ffts     :    111.02s CPU    165.86s WALL (      50 calls)
     vdW_v        :     18.42s CPU     24.47s WALL (      25 calls)

     Called by c_bands:
     init_us_2    :     19.84s CPU     20.29s WALL (     612 calls)
     cegterg      :   6780.16s CPU   8124.80s WALL (     300 calls)

     Called by *egterg:
     h_psi        :   3288.80s CPU   3818.32s WALL (    1751 calls)
     s_psi        :    287.04s CPU    355.25s WALL (    1751 calls)
     g_psi        :      6.74s CPU      6.69s WALL (    1439 calls)
     cdiaghg      :   1890.07s CPU   1902.18s WALL (    1727 calls)

     Called by h_psi:
     add_vuspsi   :    287.12s CPU    366.58s WALL (    1751 calls)

     General routines
     calbec       :    479.28s CPU    483.73s WALL (    2051 calls)
     fft          :    248.70s CPU    329.28s WALL (    1650 calls)
     ffts         :      2.24s CPU      2.51s WALL (      50 calls)
     fftw         :   2873.26s CPU   3345.58s WALL (  725874 calls)
     interpolate  :      8.00s CPU     12.40s WALL (      50 calls)
     davcio       :      0.01s CPU      0.21s WALL (      12 calls)

     Parallel routines
     fft_scatter  :   2349.94s CPU   2771.78s WALL (  727574 calls)

     PWSCF        :     2h23m CPU        2h53m WALL


   This run was terminated on:  13:28:50  24Aug2015            

=------------------------------------------------------------------------------=
   JOB DONE.
=------------------------------------------------------------------------------=
