Setting SGE environment for SCC

     Program PWSCF v.5.1.2 starts on  1Jul2015 at  4:42:57 

     This program is part of the open-source Quantum ESPRESSO suite
     for quantum simulation of materials; please cite
         "P. Giannozzi et al., J. Phys.:Condens. Matter 21 395502 (2009);
          URL http://www.quantum-espresso.org", 
     in publications or presentations arising from this work. More details at
     http://www.quantum-espresso.org/quote

     Parallel version (MPI), running on    32 processors
     R & G space division:  proc/nbgrp/npool/nimage =      32
     Reading input from bridge.O1.Au5455.d.2.7.phi.0.psi.0.in
Warning: card &IONS ignored
Warning: card / ignored
Warning: card &CELL ignored
Warning: card / ignored

     Current dimensions of program PWSCF are:
     Max number of different atomic species (ntypx) = 10
     Max number of k-points (npk) =  40000
     Max angular momentum in pseudopotentials (lmaxx) =  3

     IMPORTANT: XC functional enforced from input :
     Exchange-correlation      = VDW-DF ( 1  4  4  0 1 0)
     Any further DFT definition will be discarded
     Please, verify this is what you really want


     Subspace diagonalization in iterative solution of the eigenvalue problem:
     a serial algorithm will be used


     Parallelization info
     --------------------
     sticks:   dense  smooth     PW     G-vecs:    dense   smooth      PW
     Min         445     223     58                96775    34191    4534
     Max         446     224     59                96790    34246    4540
     Sum       14269    7147   1867              3097177  1095093  145167


     Title: 
     bridge.O1.Au5455.d.2.7.phi.0.psi.0                                         


     bravais-lattice index     =            4
     lattice parameter (alat)  =      22.7436  a.u.
     unit-cell volume          =   22924.1508 (a.u.)^3
     number of atoms/cell      =           67
     number of atomic types    =            3
     number of electrons       =       712.00
     number of Kohn-Sham states=          427
     kinetic-energy cutoff     =      50.0000  Ry
     charge density cutoff     =     400.0000  Ry
     convergence threshold     =      1.0E-08
     mixing beta               =       0.7000
     number of iterations used =            8  plain     mixing
     Exchange-correlation      = VDW-DF ( 1  4  4  0 1 0)

     celldm(1)=  22.743643  celldm(2)=   0.000000  celldm(3)=   2.250000
     celldm(4)=   0.000000  celldm(5)=   0.000000  celldm(6)=   0.000000

     crystal axes: (cart. coord. in units of alat)
               a(1) = (   1.000000   0.000000   0.000000 )  
               a(2) = (  -0.500000   0.866025   0.000000 )  
               a(3) = (   0.000000   0.000000   2.250000 )  

     reciprocal axes: (cart. coord. in units 2 pi/alat)
               b(1) = (  1.000000  0.577350 -0.000000 )  
               b(2) = (  0.000000  1.154701  0.000000 )  
               b(3) = (  0.000000 -0.000000  0.444444 )  


     PseudoPot. # 1 for Au read from file:
     /home/scc/andrejb/qe/pseudo/Au.pbe-nd-van.UPF
     MD5 check sum: 458681b50f36d87ef23c61b04bba420a
     Pseudo is Ultrasoft + core correction, Zval = 11.0
     Generated by new atomic code, or converted to UPF format
     Using radial grid of  985 points,  3 beta functions with: 
                l(1) =   1
                l(2) =   2
                l(3) =   2
     Q(r) pseudized with  8 coefficients,  rinner =    1.100   1.100   1.100
                                                       1.100   1.100

     PseudoPot. # 2 for H  read from file:
     /home/scc/andrejb/qe/pseudo/H.pbe-van_ak.UPF
     MD5 check sum: 403db7282739603aa925980fa9b8608d
     Pseudo is Ultrasoft, Zval =  1.0
     Generated by new atomic code, or converted to UPF format
     Using radial grid of  615 points,  1 beta functions with: 
                l(1) =   0
     Q(r) pseudized with  8 coefficients,  rinner =    0.800

     PseudoPot. # 3 for O  read from file:
     /home/scc/andrejb/qe/pseudo/O.pbe-van_ak.UPF
     MD5 check sum: 4b8c549914a63cae506c6ff22b5af4fe
     Pseudo is Ultrasoft, Zval =  6.0
     Generated by new atomic code, or converted to UPF format
     Using radial grid of  737 points,  4 beta functions with: 
                l(1) =   0
                l(2) =   0
                l(3) =   1
                l(4) =   1
     Q(r) pseudized with  8 coefficients,  rinner =    0.800   0.800   0.800


     vdW kernel table read from file vdW_kernel_table
     MD5 check sum: 48e77a2e26edf626eeb0eaa751ad5cac

     atomic species   valence    mass     pseudopotential
        Au            11.00   196.96657     Au( 1.00)
        H              1.00     1.01000     H ( 1.00)
        O              6.00    16.00000     O ( 1.00)

     No symmetry found



   Cartesian axes

     site n.     atom                  positions (alat units)
         1           O   tau(   1) = (   0.2915728   0.2885783   1.0450762  )
         2           H   tau(   2) = (   0.2416394   0.2470306   1.0933298  )
         3           H   tau(   3) = (   0.3399922   0.3288851   1.0958369  )
         4           Au  tau(   4) = (   0.3540481   0.6132292   0.0000000  )
         5           Au  tau(   5) = (   0.4790062   0.3967954   0.0000000  )
         6           Au  tau(   6) = (   0.6039644   0.1803616   0.0000000  )
         7           Au  tau(   7) = (   0.7289225  -0.0360723   0.0000000  )
         8           Au  tau(   8) = (   0.1041318   0.6132292   0.0000000  )
         9           Au  tau(   9) = (   0.2290899   0.3967954   0.0000000  )
        10           Au  tau(  10) = (   0.3540481   0.1803616   0.0000000  )
        11           Au  tau(  11) = (   0.4790062  -0.0360723   0.0000000  )
        12           Au  tau(  12) = (  -0.1457845   0.6132292   0.0000000  )
        13           Au  tau(  13) = (  -0.0208264   0.3967954   0.0000000  )
        14           Au  tau(  14) = (   0.1041318   0.1803616   0.0000000  )
        15           Au  tau(  15) = (   0.2290899  -0.0360723   0.0000000  )
        16           Au  tau(  16) = (  -0.3957008   0.6132292   0.0000000  )
        17           Au  tau(  17) = (  -0.2707426   0.3967954   0.0000000  )
        18           Au  tau(  18) = (  -0.1457845   0.1803616   0.0000000  )
        19           Au  tau(  19) = (  -0.0208264  -0.0360723   0.0000000  )
        20           Au  tau(  20) = (   0.4790062   0.6853738   0.2040557  )
        21           Au  tau(  21) = (   0.6039644   0.4689400   0.2040557  )
        22           Au  tau(  22) = (   0.7289225   0.2525061   0.2040557  )
        23           Au  tau(  23) = (   0.8538806   0.0360723   0.2040557  )
        24           Au  tau(  24) = (   0.2290899   0.6853738   0.2040557  )
        25           Au  tau(  25) = (   0.3540481   0.4689400   0.2040557  )
        26           Au  tau(  26) = (   0.4790062   0.2525061   0.2040557  )
        27           Au  tau(  27) = (   0.6039644   0.0360723   0.2040557  )
        28           Au  tau(  28) = (  -0.0208264   0.6853738   0.2040557  )
        29           Au  tau(  29) = (   0.1041318   0.4689400   0.2040557  )
        30           Au  tau(  30) = (   0.2290899   0.2525061   0.2040557  )
        31           Au  tau(  31) = (   0.3540481   0.0360723   0.2040557  )
        32           Au  tau(  32) = (  -0.2707426   0.6853738   0.2040557  )
        33           Au  tau(  33) = (  -0.1457845   0.4689400   0.2040557  )
        34           Au  tau(  34) = (  -0.0208264   0.2525061   0.2040557  )
        35           Au  tau(  35) = (   0.1041318   0.0360723   0.2040557  )
        36           Au  tau(  36) = (   0.3541162   0.7576593   0.4066483  )
        37           Au  tau(  37) = (   0.4791000   0.5411421   0.4066695  )
        38           Au  tau(  38) = (   0.6040570   0.3246862   0.4066617  )
        39           Au  tau(  39) = (   0.7290270   0.1081684   0.4066529  )
        40           Au  tau(  40) = (   0.1041162   0.7576236   0.4066247  )
        41           Au  tau(  41) = (   0.2291001   0.5411063   0.4066455  )
        42           Au  tau(  42) = (   0.3540567   0.3246505   0.4066380  )
        43           Au  tau(  43) = (   0.4790276   0.1081324   0.4066292  )
        44           Au  tau(  44) = (  -0.1458201   0.7576104   0.4066224  )
        45           Au  tau(  45) = (  -0.0208365   0.5410930   0.4066438  )
        46           Au  tau(  46) = (   0.1041202   0.3246372   0.4066359  )
        47           Au  tau(  47) = (   0.2290908   0.1081193   0.4066273  )
        48           Au  tau(  48) = (  -0.3958167   0.7575791   0.4065812  )
        49           Au  tau(  49) = (  -0.2708328   0.5410617   0.4066025  )
        50           Au  tau(  50) = (  -0.1458763   0.3246061   0.4065947  )
        51           Au  tau(  51) = (  -0.0209056   0.1080882   0.4065858  )
        52           Au  tau(  52) = (   0.3541085   0.6133344   0.6129762  )
        53           Au  tau(  53) = (   0.4790780   0.3968269   0.6129968  )
        54           Au  tau(  54) = (   0.6040356   0.1803811   0.6129859  )
        55           Au  tau(  55) = (   0.7290165  -0.0361221   0.6129385  )
        56           Au  tau(  56) = (   0.1041243   0.6133091   0.6130022  )
        57           Au  tau(  57) = (   0.2290941   0.3968013   0.6130241  )
        58           Au  tau(  58) = (   0.3540515   0.1803552   0.6130121  )
        59           Au  tau(  59) = (   0.4790323  -0.0361475   0.6129659  )
        60           Au  tau(  60) = (  -0.1458030   0.6133014   0.6129980  )
        61           Au  tau(  61) = (  -0.0208339   0.3967936   0.6130188  )
        62           Au  tau(  62) = (   0.1041239   0.1803477   0.6130083  )
        63           Au  tau(  63) = (   0.2291046  -0.0361554   0.6129607  )
        64           Au  tau(  64) = (  -0.3957908   0.6132739   0.6129471  )
        65           Au  tau(  65) = (  -0.2708208   0.3967658   0.6129688  )
        66           Au  tau(  66) = (  -0.1458636   0.1803200   0.6129569  )
        67           Au  tau(  67) = (  -0.0208823  -0.0361826   0.6129110  )

     number of k points=    12  Marzari-Vanderbilt smearing, width (Ry)=  0.0200
                       cart. coord. in units 2pi/alat
        k(    1) = (   0.2500000   0.4330127   0.1111111), wk =   0.1666667
        k(    2) = (   0.2500000  -0.1443376   0.1111111), wk =   0.1666667
        k(    3) = (  -0.2500000  -0.4330127   0.1111111), wk =   0.1666667
        k(    4) = (  -0.2500000   0.4330127  -0.1111111), wk =   0.1666667
        k(    5) = (   0.2500000  -0.4330127  -0.1111111), wk =   0.1666667
        k(    6) = (   0.5000000   0.0000000   0.1111111), wk =   0.1666667
        k(    7) = (  -0.5000000   0.0000000   0.1111111), wk =   0.1666667
        k(    8) = (  -0.2500000   0.1443376   0.1111111), wk =   0.1666667
        k(    9) = (  -0.2500000  -0.1443376  -0.1111111), wk =   0.1666667
        k(   10) = (   0.2500000   0.1443376  -0.1111111), wk =   0.1666667
        k(   11) = (   0.0000000  -0.2886751   0.1111111), wk =   0.1666667
        k(   12) = (   0.0000000   0.2886751   0.1111111), wk =   0.1666667

     Dense  grid:  3097177 G-vectors     FFT dimensions: ( 150, 150, 360)

     Smooth grid:  1095093 G-vectors     FFT dimensions: ( 108, 108, 240)

     Largest allocated arrays     est. size (Mb)     dimensions
        Kohn-Sham Wavefunctions        28.01 Mb     (    4299,  427)
        NL pseudopotentials            55.23 Mb     (    4299,  842)
        Each V/rho on FFT grid          4.12 Mb     (  270000)
        Each G-vector array             0.74 Mb     (   96788)
        G-vector shells                 0.16 Mb     (   21404)
     Largest temporary arrays     est. size (Mb)     dimensions
        Auxiliary wavefunctions       112.04 Mb     (    4299, 1708)
        Each subspace H/S matrix       44.51 Mb     (    1708, 1708)
        Each <psi_i|beta_j> matrix      5.49 Mb     (     842,  427)
        Arrays for rho mixing          32.96 Mb     (  270000,    8)

     Initial potential from superposition of free atoms
     Check: negative starting charge=   -1.729758

     starting charge  711.25682, renormalised to  712.00000

     negative rho (up, down):  1.732E+00 0.000E+00


     ************************************************************************
     *
     * You are using vdW-DF for exchange-correlation in this calculation.
     * Please cite the following three references that made this development
     * possible:
     *
     *   M. Dion, H. Rydberg, E. Schroder, D. C. Langreth, and
     *   B. I. Lundqvist, Phys. Rev. Lett. 92, 246401 (2004).
     *
     *   T. Thonhauser, V. R. Cooper, S. Li, A. Puzder, P. Hyldgaard, and
     *   D. C. Langreth, Phys. Rev. B 76, 125112 (2007).
     *
     *   G. Roman-Perez and J. M. Soler, Phys. Rev. Lett. 103, 096102 (2009).
     *
     *
     * If you are using vdW-DF2, please also cite:
     *
     *   K. Lee, E. D. Murray, L. Kong, B. I. Lundqvist, and
     *   D. C. Langreth, Phys. Rev. B 82, 081101(R) (2010).
     *
     *
     * If you are calculating the stress with vdW-DF, please also cite:
     *
     *   R. Sabatini, E. Kucukbenli, B. Kolb, T. Thonhauser, and
     *   S. de Gironcoli, J. Phys.: Condens. Matter 24, 424209 (2012).
     *
     ************************************************************************

     Carrying out vdW-DF run using the following parameters:

     Nqs =      20    Nr_points =    1024   r_max =   100.000
     q_mesh =
               0.00001000     0.04494208     0.09755937     0.15916263
               0.23128650     0.31572767     0.41458969     0.53033537
               0.66584808     0.82450364     1.01025438     1.22772762
               1.48234092     1.78043706     2.12944203     2.53805004
               3.01644009     3.57652955     4.23227104     5.00000000

     Gradients computed in reciprocal space

     ************************************************************************


     Starting wfc are  582 randomized atomic wfcs

     total cpu time spent up to now is      240.1 secs

     Self-consistent Calculation

     iteration #  1     ecut=    50.00 Ry     beta=0.70
     Davidson diagonalization with overlap
     ethr =  1.00E-02,  avg # of iterations =  3.0

     Threshold (ethr) on eigenvalues was too large:
     Diagonalizing with lowered threshold

     Davidson diagonalization with overlap
     ethr =  3.54E-04,  avg # of iterations =  3.2

     negative rho (up, down):  1.728E+00 0.000E+00

     total cpu time spent up to now is     1319.7 secs

     total energy              =   -6602.75956637 Ry
     Harris-Foulkes estimate   =   -6605.04852704 Ry
     estimated scf accuracy    <       2.86177915 Ry

     iteration #  2     ecut=    50.00 Ry     beta=0.70
     Davidson diagonalization with overlap
     ethr =  4.02E-04,  avg # of iterations = 11.0

     negative rho (up, down):  1.725E+00 0.000E+00

     total cpu time spent up to now is     2698.7 secs

     total energy              =   -6596.47342532 Ry
     Harris-Foulkes estimate   =   -6610.20950051 Ry
     estimated scf accuracy    <      76.90654055 Ry

     iteration #  3     ecut=    50.00 Ry     beta=0.70
     Davidson diagonalization with overlap
     ethr =  4.02E-04,  avg # of iterations =  6.4

     negative rho (up, down):  1.736E+00 0.000E+00

     total cpu time spent up to now is     3625.9 secs

     total energy              =   -6603.20771472 Ry
     Harris-Foulkes estimate   =   -6604.98691179 Ry
     estimated scf accuracy    <       7.98284994 Ry

     iteration #  4     ecut=    50.00 Ry     beta=0.70
     Davidson diagonalization with overlap
     ethr =  4.02E-04,  avg # of iterations =  8.2

     negative rho (up, down):  1.739E+00 0.000E+00

     total cpu time spent up to now is     4282.9 secs

     total energy              =   -6604.04967621 Ry
     Harris-Foulkes estimate   =   -6604.66892349 Ry
     estimated scf accuracy    <       2.82052525 Ry

     iteration #  5     ecut=    50.00 Ry     beta=0.70
     Davidson diagonalization with overlap
     ethr =  3.96E-04,  avg # of iterations =  5.5

     negative rho (up, down):  1.747E+00 0.000E+00

     total cpu time spent up to now is     4868.5 secs

     total energy              =   -6603.99908247 Ry
     Harris-Foulkes estimate   =   -6604.90021431 Ry
     estimated scf accuracy    <       9.85111875 Ry

     iteration #  6     ecut=    50.00 Ry     beta=0.70
     Davidson diagonalization with overlap
     ethr =  3.96E-04,  avg # of iterations =  4.0

     negative rho (up, down):  1.752E+00 0.000E+00

     total cpu time spent up to now is     5378.4 secs

     total energy              =   -6604.42671041 Ry
     Harris-Foulkes estimate   =   -6604.46035112 Ry
     estimated scf accuracy    <       0.10821745 Ry

     iteration #  7     ecut=    50.00 Ry     beta=0.70
     Davidson diagonalization with overlap
     ethr =  1.52E-05,  avg # of iterations =  6.7

     negative rho (up, down):  1.754E+00 0.000E+00

     total cpu time spent up to now is     6023.8 secs

     total energy              =   -6604.43025956 Ry
     Harris-Foulkes estimate   =   -6604.44831417 Ry
     estimated scf accuracy    <       0.07010925 Ry

     iteration #  8     ecut=    50.00 Ry     beta=0.70
     Davidson diagonalization with overlap
     ethr =  9.85E-06,  avg # of iterations =  4.7

     negative rho (up, down):  1.755E+00 0.000E+00

     total cpu time spent up to now is     6560.5 secs

     total energy              =   -6604.42873921 Ry
     Harris-Foulkes estimate   =   -6604.44210873 Ry
     estimated scf accuracy    <       0.05176002 Ry

     iteration #  9     ecut=    50.00 Ry     beta=0.70
     Davidson diagonalization with overlap
     ethr =  7.27E-06,  avg # of iterations =  6.2

     negative rho (up, down):  1.756E+00 0.000E+00

     total cpu time spent up to now is     7125.2 secs

     total energy              =   -6604.42902384 Ry
     Harris-Foulkes estimate   =   -6604.43460875 Ry
     estimated scf accuracy    <       0.01978687 Ry

     iteration # 10     ecut=    50.00 Ry     beta=0.70
     Davidson diagonalization with overlap
     ethr =  2.78E-06,  avg # of iterations = 10.7

     negative rho (up, down):  1.758E+00 0.000E+00

     total cpu time spent up to now is     7765.6 secs

     total energy              =   -6604.42796041 Ry
     Harris-Foulkes estimate   =   -6604.43134445 Ry
     estimated scf accuracy    <       0.01056150 Ry

     iteration # 11     ecut=    50.00 Ry     beta=0.70
     Davidson diagonalization with overlap
     ethr =  1.48E-06,  avg # of iterations =  8.8

     negative rho (up, down):  1.758E+00 0.000E+00

     total cpu time spent up to now is     8397.9 secs

     total energy              =   -6604.42800193 Ry
     Harris-Foulkes estimate   =   -6604.42894909 Ry
     estimated scf accuracy    <       0.00480790 Ry

     iteration # 12     ecut=    50.00 Ry     beta=0.70
     Davidson diagonalization with overlap
     ethr =  6.75E-07,  avg # of iterations =  2.0

     negative rho (up, down):  1.759E+00 0.000E+00

     total cpu time spent up to now is     8873.3 secs

     total energy              =   -6604.42673646 Ry
     Harris-Foulkes estimate   =   -6604.42835803 Ry
     estimated scf accuracy    <       0.00227112 Ry

     iteration # 13     ecut=    50.00 Ry     beta=0.70
     Davidson diagonalization with overlap
     ethr =  3.19E-07,  avg # of iterations = 12.9

     negative rho (up, down):  1.758E+00 0.000E+00

     total cpu time spent up to now is     9527.9 secs

     total energy              =   -6604.42708025 Ry
     Harris-Foulkes estimate   =   -6604.42715497 Ry
     estimated scf accuracy    <       0.00013955 Ry

     iteration # 14     ecut=    50.00 Ry     beta=0.70
     Davidson diagonalization with overlap
     ethr =  1.96E-08,  avg # of iterations =  3.0

     negative rho (up, down):  1.758E+00 0.000E+00

     total cpu time spent up to now is    10172.3 secs

     total energy              =   -6604.42709655 Ry
     Harris-Foulkes estimate   =   -6604.42715817 Ry
     estimated scf accuracy    <       0.00018391 Ry

     iteration # 15     ecut=    50.00 Ry     beta=0.70
     Davidson diagonalization with overlap
     ethr =  1.96E-08,  avg # of iterations =  2.8

     negative rho (up, down):  1.758E+00 0.000E+00

     total cpu time spent up to now is    10709.6 secs

     total energy              =   -6604.42711072 Ry
     Harris-Foulkes estimate   =   -6604.42714353 Ry
     estimated scf accuracy    <       0.00016266 Ry

     iteration # 16     ecut=    50.00 Ry     beta=0.70
     Davidson diagonalization with overlap
     ethr =  1.96E-08,  avg # of iterations =  2.5

     negative rho (up, down):  1.758E+00 0.000E+00

     total cpu time spent up to now is    11174.7 secs

     total energy              =   -6604.42711321 Ry
     Harris-Foulkes estimate   =   -6604.42714664 Ry
     estimated scf accuracy    <       0.00027347 Ry

     iteration # 17     ecut=    50.00 Ry     beta=0.70
     Davidson diagonalization with overlap
     ethr =  1.96E-08,  avg # of iterations =  1.0

     negative rho (up, down):  1.758E+00 0.000E+00

     total cpu time spent up to now is    11621.7 secs

     total energy              =   -6604.42712602 Ry
     Harris-Foulkes estimate   =   -6604.42713838 Ry
     estimated scf accuracy    <       0.00007765 Ry

     iteration # 18     ecut=    50.00 Ry     beta=0.70
     Davidson diagonalization with overlap
     ethr =  1.09E-08,  avg # of iterations =  1.0

     negative rho (up, down):  1.758E+00 0.000E+00

     total cpu time spent up to now is    12058.8 secs

     total energy              =   -6604.42713233 Ry
     Harris-Foulkes estimate   =   -6604.42713281 Ry
     estimated scf accuracy    <       0.00000184 Ry

     iteration # 19     ecut=    50.00 Ry     beta=0.70
     Davidson diagonalization with overlap
     ethr =  2.59E-10,  avg # of iterations =  3.0

     negative rho (up, down):  1.758E+00 0.000E+00

     total cpu time spent up to now is    12632.8 secs

     total energy              =   -6604.42713285 Ry
     Harris-Foulkes estimate   =   -6604.42713321 Ry
     estimated scf accuracy    <       0.00000245 Ry

     iteration # 20     ecut=    50.00 Ry     beta=0.70
     Davidson diagonalization with overlap
     ethr =  2.59E-10,  avg # of iterations =  2.0

     negative rho (up, down):  1.758E+00 0.000E+00

     total cpu time spent up to now is    13068.8 secs

     total energy              =   -6604.42713320 Ry
     Harris-Foulkes estimate   =   -6604.42713326 Ry
     estimated scf accuracy    <       0.00000061 Ry

     iteration # 21     ecut=    50.00 Ry     beta=0.70
     Davidson diagonalization with overlap
     ethr =  8.61E-11,  avg # of iterations =  2.0

     negative rho (up, down):  1.758E+00 0.000E+00

     total cpu time spent up to now is    13508.1 secs

     total energy              =   -6604.42713328 Ry
     Harris-Foulkes estimate   =   -6604.42713330 Ry
     estimated scf accuracy    <       0.00000016 Ry

     iteration # 22     ecut=    50.00 Ry     beta=0.70
     Davidson diagonalization with overlap
     ethr =  2.27E-11,  avg # of iterations =  2.0

     negative rho (up, down):  1.758E+00 0.000E+00

     total cpu time spent up to now is    13963.0 secs

     total energy              =   -6604.42713332 Ry
     Harris-Foulkes estimate   =   -6604.42713331 Ry
     estimated scf accuracy    <       0.00000003 Ry

     iteration # 23     ecut=    50.00 Ry     beta=0.70
     Davidson diagonalization with overlap
     ethr =  4.74E-12,  avg # of iterations =  3.0

     negative rho (up, down):  1.758E+00 0.000E+00

     total cpu time spent up to now is    14573.0 secs

     total energy              =   -6604.42713333 Ry
     Harris-Foulkes estimate   =   -6604.42713334 Ry
     estimated scf accuracy    <       0.00000006 Ry

     iteration # 24     ecut=    50.00 Ry     beta=0.70
     Davidson diagonalization with overlap
     ethr =  4.74E-12,  avg # of iterations =  2.8

     negative rho (up, down):  1.758E+00 0.000E+00

     total cpu time spent up to now is    15059.0 secs

     End of self-consistent calculation

          k = 0.2500 0.4330 0.1111 (136853 PWs)   bands (ev):

   -18.7491  -6.5633  -6.2596  -5.8603  -5.8601  -5.1818  -4.8488  -4.8487
    -4.8092  -4.8086  -4.4485  -4.4484  -4.3498  -4.3498  -4.3358  -4.3147
    -4.2864  -4.1822  -4.1821  -4.1580  -4.1146  -4.1145  -4.0455  -4.0454
    -4.0383  -4.0382  -4.0174  -4.0116  -4.0114  -3.9381  -3.9372  -3.9091
    -3.9091  -3.8969  -3.8968  -3.8736  -3.8736  -3.8511  -3.8426  -3.8425
    -3.8157  -3.7635  -3.7635  -3.7156  -3.7156  -3.6559  -3.6558  -3.6017
    -3.6016  -3.6007  -3.6006  -3.5657  -3.5255  -3.5255  -3.5201  -3.5187
    -3.5186  -3.4878  -3.4871  -3.4793  -3.4168  -3.4167  -3.4069  -3.3915
    -3.3845  -3.3114  -3.3114  -3.2779  -3.2773  -3.2501  -3.2500  -3.2370
    -3.2202  -3.1597  -3.1595  -3.1424  -3.1424  -3.0900  -3.0850  -3.0849
    -3.0475  -3.0154  -3.0149  -3.0069  -3.0069  -2.9930  -2.9930  -2.9852
    -2.9850  -2.9751  -2.9348  -2.8971  -2.8969  -2.8821  -2.8819  -2.8566
    -2.8462  -2.8462  -2.8245  -2.7806  -2.7804  -2.7713  -2.7704  -2.7314
    -2.7253  -2.7137  -2.7136  -2.6841  -2.6837  -2.6550  -2.6169  -2.6169
    -2.5944  -2.5877  -2.5734  -2.5732  -2.5227  -2.5226  -2.4899  -2.4671
    -2.4671  -2.4428  -2.4426  -2.4316  -2.4314  -2.4207  -2.3976  -2.3976
    -2.3533  -2.3532  -2.3519  -2.3346  -2.3345  -2.3300  -2.3198  -2.3196
    -2.3169  -2.3167  -2.3115  -2.2982  -2.2980  -2.2869  -2.2619  -2.2618
    -2.2604  -2.2594  -2.2590  -2.2563  -2.2559  -2.2277  -2.2249  -2.2106
    -2.2106  -2.1931  -2.1930  -2.1829  -2.1828  -2.1811  -2.1808  -2.1612
    -2.1606  -2.1592  -2.1585  -2.1417  -2.1154  -2.1154  -2.0757  -2.0756
    -2.0494  -2.0493  -2.0222  -2.0221  -1.9942  -1.9941  -1.9771  -1.9727
    -1.9459  -1.9227  -1.9221  -1.9175  -1.9175  -1.9130  -1.9059  -1.9054
    -1.8803  -1.8735  -1.8625  -1.8070  -1.8025  -1.8019  -1.7992  -1.7991
    -1.7603  -1.7436  -1.7435  -1.7151  -1.7151  -1.6543  -1.6541  -1.6256
    -1.6072  -1.6071  -1.5459  -1.5458  -1.5341  -1.5336  -1.5229  -1.5225
    -1.5196  -1.5095  -1.5091  -1.4536  -1.4535  -1.4412  -1.4411  -1.4409
    -1.4215  -1.4207  -1.3856  -1.3854  -1.3683  -1.3682  -1.3680  -1.3617
    -1.3563  -1.3468  -1.3461  -1.3276  -1.3276  -1.2856  -1.2851  -1.2730
    -1.2724  -1.2524  -1.2398  -1.1958  -1.1953  -1.1699  -1.1649  -1.1647
    -1.1358  -1.0840  -1.0837  -1.0825  -1.0821  -1.0766  -1.0762  -1.0658
    -1.0474  -1.0470  -1.0074  -1.0069  -0.9763  -0.9762  -0.9714  -0.9713
    -0.9630  -0.9468  -0.9465  -0.9458  -0.9426  -0.9426  -0.9055  -0.9042
    -0.9031  -0.9029  -0.8712  -0.8711  -0.8682  -0.8438  -0.8358  -0.8353
    -0.7890  -0.7818  -0.7812  -0.7482  -0.7465  -0.7385  -0.7276  -0.7275
    -0.7192  -0.7189  -0.7180  -0.7175  -0.7059  -0.7059  -0.6795  -0.6795
    -0.6769  -0.6743  -0.6743  -0.6373  -0.6372  -0.6263  -0.6262  -0.6108
    -0.6032  -0.6028  -0.5913  -0.5359  -0.5331  -0.5242  -0.5242  -0.5231
    -0.5228  -0.5178  -0.4981  -0.4976  -0.4892  -0.4892  -0.4870  -0.4870
    -0.4476  -0.4450  -0.4448  -0.4366  -0.4363  -0.4311  -0.4294  -0.4200
    -0.4136  -0.4099  -0.4098  -0.3674  -0.3673  -0.3588  -0.3554  -0.3551
    -0.2778  -0.2773  -0.2749  -0.2748  -0.2655  -0.2654  -0.2289  -0.2160
    -0.2159  -0.1882  -0.1869  -0.1839  -0.0625  -0.0615   0.0401   0.4553
     0.4555   0.4584   0.4584   0.5194   0.5196   0.9086   0.9089   0.9516
     0.9517   1.0590   1.1398   1.2505   1.2523   1.4712   1.4740   2.1058
     2.1061   2.2683   2.2685   2.3996   2.3999   2.5040   2.5040   2.6582
     2.8956   2.9011   3.0185   3.2434   3.2455   3.3284   3.3285   3.4283
     3.4433   3.6380   3.6418   3.7000   3.9004   3.9007   3.9633   3.9641
     4.2206   4.2284   4.2286   4.4710   4.5136   4.5139   4.5587   4.8948
     4.8958   4.9248   5.0593   5.1738   5.2315   5.2316   5.2926   5.3039
     5.7354   5.9591   6.0011   6.0192   6.0262   6.0278   6.0948   6.0949
     6.1770   6.2057   6.2300   6.2467   6.2574   6.2591   6.2752   6.2785
     6.3178   6.3182   6.4905   6.5236   6.7703   6.8020   6.8269   6.9325
     6.9654   6.9756   7.0208

          k = 0.2500-0.1443 0.1111 (136898 PWs)   bands (ev):

   -18.7491  -6.5633  -6.4695  -5.6775  -5.3857  -5.3271  -5.3270  -4.7887
    -4.7887  -4.6567  -4.6562  -4.5020  -4.4693  -4.4091  -4.3749  -4.3747
    -4.3421  -4.3421  -4.2135  -4.1717  -4.1717  -4.1116  -4.0903  -4.0902
    -3.9882  -3.9882  -3.9520  -3.9518  -3.9517  -3.9247  -3.9032  -3.9032
    -3.7971  -3.7960  -3.7960  -3.7751  -3.7583  -3.7583  -3.7459  -3.7458
    -3.7325  -3.7024  -3.7024  -3.7022  -3.7022  -3.6695  -3.6694  -3.6518
    -3.6517  -3.6363  -3.5926  -3.5926  -3.5632  -3.5476  -3.5474  -3.5435
    -3.5435  -3.4688  -3.4688  -3.4330  -3.4307  -3.4306  -3.3633  -3.3633
    -3.3477  -3.3476  -3.3164  -3.3162  -3.3155  -3.3152  -3.1621  -3.1621
    -3.1360  -3.1360  -3.1309  -3.1151  -3.1150  -3.0889  -3.0889  -3.0391
    -3.0391  -3.0227  -3.0227  -3.0025  -2.9535  -2.9535  -2.9340  -2.9291
    -2.9290  -2.8881  -2.8880  -2.8818  -2.8818  -2.8648  -2.8646  -2.8252
    -2.8252  -2.8034  -2.8033  -2.8001  -2.8001  -2.7974  -2.7713  -2.7196
    -2.7196  -2.7182  -2.6895  -2.6894  -2.6273  -2.6273  -2.5993  -2.5979
    -2.5847  -2.5846  -2.5795  -2.5496  -2.5496  -2.5402  -2.5224  -2.4964
    -2.4964  -2.4961  -2.4755  -2.4755  -2.4641  -2.4640  -2.4605  -2.4603
    -2.4529  -2.4067  -2.3739  -2.3739  -2.3584  -2.3443  -2.3379  -2.3377
    -2.3303  -2.3301  -2.3288  -2.2987  -2.2986  -2.2985  -2.2887  -2.2887
    -2.2712  -2.2437  -2.2433  -2.2427  -2.2420  -2.2419  -2.1969  -2.1651
    -2.1649  -2.1648  -2.1582  -2.1494  -2.1359  -2.1359  -2.1194  -2.1194
    -2.0850  -2.0843  -2.0842  -2.0658  -2.0638  -2.0637  -2.0306  -2.0304
    -1.9893  -1.9889  -1.9817  -1.9797  -1.9796  -1.9729  -1.9728  -1.9704
    -1.9704  -1.9631  -1.9628  -1.9461  -1.9460  -1.8187  -1.8185  -1.7864
    -1.7806  -1.7804  -1.7752  -1.7752  -1.7569  -1.7569  -1.7540  -1.7539
    -1.7521  -1.7295  -1.7204  -1.7203  -1.7174  -1.7088  -1.7088  -1.6859
    -1.6858  -1.6572  -1.6572  -1.6245  -1.6244  -1.6146  -1.6064  -1.5886
    -1.5885  -1.5857  -1.5671  -1.5548  -1.5548  -1.5473  -1.5473  -1.5203
    -1.5202  -1.5032  -1.5031  -1.4711  -1.4709  -1.4608  -1.4097  -1.4097
    -1.3973  -1.3971  -1.3965  -1.3720  -1.3695  -1.3355  -1.3348  -1.3347
    -1.3010  -1.2910  -1.2908  -1.2753  -1.2752  -1.2482  -1.2468  -1.2467
    -1.2172  -1.2143  -1.2142  -1.1515  -1.1513  -1.1379  -1.1376  -1.1215
    -1.1215  -1.1089  -1.1088  -1.0910  -1.0782  -1.0502  -1.0501  -1.0388
    -1.0109  -1.0004  -1.0002  -0.9888  -0.9888  -0.9863  -0.9808  -0.9806
    -0.9680  -0.9364  -0.9364  -0.9253  -0.9248  -0.9240  -0.9236  -0.8997
    -0.8812  -0.8808  -0.8601  -0.8598  -0.7670  -0.7541  -0.7485  -0.7482
    -0.7480  -0.7441  -0.7386  -0.7385  -0.7178  -0.7124  -0.6975  -0.6971
    -0.6826  -0.6825  -0.6733  -0.6530  -0.6527  -0.6513  -0.6429  -0.5712
    -0.5712  -0.5368  -0.5365  -0.5328  -0.5254  -0.5251  -0.5244  -0.5244
    -0.5109  -0.5108  -0.4955  -0.4702  -0.4555  -0.4353  -0.4352  -0.4238
    -0.4237  -0.4109  -0.4109  -0.4098  -0.4084  -0.4084  -0.3907  -0.3864
    -0.3863  -0.3556  -0.3540  -0.3540  -0.3420  -0.3419  -0.3226  -0.2904
    -0.2903  -0.2810  -0.2810  -0.2128  -0.2128  -0.1754  -0.1753  -0.1181
    -0.1153  -0.1152  -0.1057  -0.0861   0.1359   0.1367   0.4836   0.4836
     0.5749   0.5757   0.7689   0.7812   0.8013   0.9324   0.9326   1.3638
     1.3638   1.3825   1.6397   1.6739   1.6739   1.9507   1.9519   2.0305
     2.0305   2.0578   2.0585   2.2871   2.2871   2.3750   2.3750   2.4474
     2.5136   2.5150   2.6791   2.7761   3.2181   3.2181   3.2209   3.2212
     3.2762   3.2762   3.5682   3.5682   3.8500   3.8509   3.9532   4.2639
     4.3073   4.3079   4.5261   4.5290   4.6082   4.6083   4.6992   4.8175
     4.8176   4.9344   4.9347   5.1369   5.2392   5.3087   5.3088   5.4739
     5.4791   5.6668   5.6960   5.6965   5.7222   5.7223   5.7864   5.7866
     5.8321   6.0720   6.2168   6.3277   6.3941   6.4097   6.5201   6.5288
     6.5290   6.5419   6.5426   6.7287   6.7833   6.7840   6.8044   6.9774
     6.9893   7.0155   7.0386

          k =-0.2500-0.4330 0.1111 (136853 PWs)   bands (ev):

   -18.7491  -6.5633  -6.2596  -5.8603  -5.8601  -5.1818  -4.8488  -4.8487
    -4.8092  -4.8086  -4.4485  -4.4484  -4.3498  -4.3498  -4.3358  -4.3147
    -4.2864  -4.1822  -4.1821  -4.1580  -4.1146  -4.1145  -4.0455  -4.0454
    -4.0383  -4.0382  -4.0174  -4.0116  -4.0114  -3.9381  -3.9372  -3.9091
    -3.9091  -3.8969  -3.8968  -3.8736  -3.8736  -3.8511  -3.8426  -3.8425
    -3.8157  -3.7635  -3.7635  -3.7156  -3.7156  -3.6559  -3.6558  -3.6017
    -3.6016  -3.6007  -3.6006  -3.5657  -3.5255  -3.5255  -3.5201  -3.5187
    -3.5186  -3.4878  -3.4871  -3.4793  -3.4168  -3.4167  -3.4069  -3.3915
    -3.3845  -3.3114  -3.3114  -3.2779  -3.2773  -3.2501  -3.2500  -3.2370
    -3.2202  -3.1597  -3.1595  -3.1424  -3.1424  -3.0900  -3.0850  -3.0849
    -3.0475  -3.0154  -3.0149  -3.0069  -3.0069  -2.9930  -2.9930  -2.9852
    -2.9850  -2.9751  -2.9348  -2.8971  -2.8969  -2.8821  -2.8819  -2.8566
    -2.8462  -2.8462  -2.8245  -2.7806  -2.7804  -2.7713  -2.7704  -2.7314
    -2.7253  -2.7137  -2.7136  -2.6841  -2.6837  -2.6550  -2.6169  -2.6169
    -2.5944  -2.5877  -2.5734  -2.5732  -2.5227  -2.5226  -2.4899  -2.4671
    -2.4671  -2.4428  -2.4426  -2.4316  -2.4314  -2.4207  -2.3976  -2.3976
    -2.3533  -2.3532  -2.3519  -2.3346  -2.3345  -2.3300  -2.3198  -2.3196
    -2.3169  -2.3167  -2.3115  -2.2982  -2.2980  -2.2869  -2.2619  -2.2618
    -2.2604  -2.2594  -2.2590  -2.2563  -2.2559  -2.2277  -2.2249  -2.2107
    -2.2106  -2.1931  -2.1930  -2.1829  -2.1828  -2.1811  -2.1808  -2.1612
    -2.1606  -2.1592  -2.1585  -2.1417  -2.1154  -2.1154  -2.0757  -2.0756
    -2.0494  -2.0493  -2.0222  -2.0221  -1.9942  -1.9941  -1.9771  -1.9727
    -1.9459  -1.9227  -1.9221  -1.9175  -1.9175  -1.9130  -1.9059  -1.9054
    -1.8803  -1.8735  -1.8625  -1.8070  -1.8025  -1.8019  -1.7992  -1.7991
    -1.7603  -1.7436  -1.7435  -1.7151  -1.7151  -1.6543  -1.6541  -1.6256
    -1.6072  -1.6071  -1.5459  -1.5458  -1.5341  -1.5336  -1.5229  -1.5225
    -1.5196  -1.5095  -1.5091  -1.4536  -1.4535  -1.4412  -1.4411  -1.4409
    -1.4215  -1.4207  -1.3856  -1.3854  -1.3683  -1.3682  -1.3680  -1.3617
    -1.3563  -1.3468  -1.3461  -1.3276  -1.3276  -1.2856  -1.2851  -1.2730
    -1.2724  -1.2524  -1.2398  -1.1958  -1.1953  -1.1699  -1.1649  -1.1647
    -1.1358  -1.0840  -1.0837  -1.0825  -1.0821  -1.0766  -1.0762  -1.0658
    -1.0474  -1.0470  -1.0074  -1.0069  -0.9763  -0.9762  -0.9714  -0.9713
    -0.9630  -0.9468  -0.9465  -0.9458  -0.9426  -0.9426  -0.9055  -0.9042
    -0.9031  -0.9029  -0.8712  -0.8711  -0.8682  -0.8438  -0.8358  -0.8353
    -0.7890  -0.7818  -0.7812  -0.7482  -0.7465  -0.7385  -0.7276  -0.7275
    -0.7192  -0.7189  -0.7180  -0.7175  -0.7059  -0.7059  -0.6795  -0.6795
    -0.6769  -0.6743  -0.6743  -0.6373  -0.6372  -0.6263  -0.6262  -0.6108
    -0.6032  -0.6028  -0.5913  -0.5359  -0.5331  -0.5242  -0.5242  -0.5231
    -0.5228  -0.5178  -0.4981  -0.4976  -0.4892  -0.4892  -0.4870  -0.4870
    -0.4476  -0.4450  -0.4448  -0.4366  -0.4363  -0.4311  -0.4294  -0.4200
    -0.4136  -0.4099  -0.4098  -0.3673  -0.3673  -0.3588  -0.3554  -0.3551
    -0.2778  -0.2773  -0.2749  -0.2748  -0.2655  -0.2654  -0.2289  -0.2160
    -0.2159  -0.1882  -0.1869  -0.1839  -0.0625  -0.0615   0.0401   0.4553
     0.4555   0.4584   0.4584   0.5194   0.5196   0.9086   0.9089   0.9516
     0.9517   1.0590   1.1398   1.2505   1.2523   1.4712   1.4740   2.1058
     2.1061   2.2683   2.2685   2.3996   2.3999   2.5040   2.5040   2.6582
     2.8956   2.9011   3.0185   3.2434   3.2455   3.3284   3.3285   3.4283
     3.4433   3.6380   3.6418   3.7000   3.9004   3.9007   3.9633   3.9641
     4.2206   4.2284   4.2286   4.4710   4.5136   4.5139   4.5587   4.8948
     4.8958   4.9248   5.0593   5.1738   5.2315   5.2316   5.2926   5.3039
     5.7351   5.9592   6.0017   6.0192   6.0262   6.0278   6.0948   6.0949
     6.1770   6.2057   6.2300   6.2468   6.2574   6.2591   6.2752   6.2785
     6.3178   6.3182   6.4884   6.5231   6.7695   6.8042   6.8288   6.9318
     6.9656   6.9756   7.0234

          k =-0.2500 0.4330-0.1111 (136853 PWs)   bands (ev):

   -18.7491  -6.5633  -6.2596  -5.8614  -5.8589  -5.1818  -4.8493  -4.8482
    -4.8098  -4.8080  -4.4491  -4.4477  -4.3500  -4.3497  -4.3356  -4.3147
    -4.2864  -4.1827  -4.1818  -4.1581  -4.1147  -4.1145  -4.0456  -4.0454
    -4.0386  -4.0379  -4.0173  -4.0129  -4.0101  -3.9381  -3.9372  -3.9098
    -3.9081  -3.8971  -3.8965  -3.8736  -3.8735  -3.8511  -3.8428  -3.8424
    -3.8158  -3.7639  -3.7633  -3.7166  -3.7147  -3.6559  -3.6558  -3.6017
    -3.6016  -3.6008  -3.6004  -3.5659  -3.5256  -3.5254  -3.5200  -3.5188
    -3.5186  -3.4881  -3.4867  -3.4793  -3.4170  -3.4165  -3.4068  -3.3913
    -3.3842  -3.3121  -3.3111  -3.2781  -3.2770  -3.2502  -3.2496  -3.2370
    -3.2203  -3.1598  -3.1597  -3.1427  -3.1418  -3.0900  -3.0851  -3.0849
    -3.0474  -3.0159  -3.0145  -3.0075  -3.0062  -2.9930  -2.9929  -2.9852
    -2.9850  -2.9752  -2.9347  -2.8976  -2.8965  -2.8823  -2.8816  -2.8567
    -2.8468  -2.8457  -2.8245  -2.7814  -2.7796  -2.7712  -2.7709  -2.7312
    -2.7252  -2.7142  -2.7128  -2.6843  -2.6838  -2.6550  -2.6168  -2.6165
    -2.5944  -2.5877  -2.5736  -2.5731  -2.5230  -2.5223  -2.4898  -2.4674
    -2.4672  -2.4430  -2.4427  -2.4317  -2.4311  -2.4208  -2.3981  -2.3972
    -2.3532  -2.3527  -2.3519  -2.3354  -2.3338  -2.3300  -2.3197  -2.3195
    -2.3172  -2.3165  -2.3114  -2.2988  -2.2973  -2.2869  -2.2621  -2.2615
    -2.2602  -2.2595  -2.2591  -2.2561  -2.2558  -2.2280  -2.2250  -2.2108
    -2.2105  -2.1935  -2.1927  -2.1828  -2.1826  -2.1813  -2.1809  -2.1617
    -2.1605  -2.1591  -2.1585  -2.1417  -2.1159  -2.1152  -2.0766  -2.0747
    -2.0501  -2.0486  -2.0220  -2.0218  -1.9945  -1.9938  -1.9771  -1.9726
    -1.9457  -1.9227  -1.9220  -1.9179  -1.9170  -1.9132  -1.9061  -1.9054
    -1.8802  -1.8730  -1.8625  -1.8070  -1.8028  -1.8019  -1.7996  -1.7990
    -1.7604  -1.7443  -1.7427  -1.7153  -1.7150  -1.6546  -1.6537  -1.6259
    -1.6073  -1.6069  -1.5462  -1.5454  -1.5340  -1.5336  -1.5232  -1.5222
    -1.5197  -1.5096  -1.5092  -1.4535  -1.4533  -1.4416  -1.4414  -1.4408
    -1.4216  -1.4204  -1.3857  -1.3854  -1.3686  -1.3681  -1.3679  -1.3614
    -1.3564  -1.3473  -1.3457  -1.3280  -1.3270  -1.2856  -1.2850  -1.2732
    -1.2720  -1.2523  -1.2398  -1.1963  -1.1949  -1.1700  -1.1651  -1.1645
    -1.1359  -1.0841  -1.0837  -1.0825  -1.0822  -1.0768  -1.0763  -1.0659
    -1.0475  -1.0467  -1.0073  -1.0069  -0.9764  -0.9762  -0.9717  -0.9710
    -0.9629  -0.9469  -0.9467  -0.9456  -0.9425  -0.9423  -0.9060  -0.9040
    -0.9033  -0.9025  -0.8713  -0.8709  -0.8679  -0.8441  -0.8359  -0.8349
    -0.7891  -0.7818  -0.7811  -0.7484  -0.7464  -0.7382  -0.7279  -0.7272
    -0.7193  -0.7186  -0.7183  -0.7173  -0.7062  -0.7058  -0.6798  -0.6792
    -0.6770  -0.6746  -0.6743  -0.6372  -0.6369  -0.6265  -0.6260  -0.6109
    -0.6034  -0.6027  -0.5911  -0.5359  -0.5329  -0.5245  -0.5240  -0.5231
    -0.5229  -0.5178  -0.4983  -0.4976  -0.4893  -0.4891  -0.4870  -0.4868
    -0.4477  -0.4451  -0.4446  -0.4370  -0.4360  -0.4312  -0.4294  -0.4198
    -0.4136  -0.4102  -0.4097  -0.3676  -0.3672  -0.3589  -0.3556  -0.3550
    -0.2778  -0.2773  -0.2750  -0.2746  -0.2656  -0.2654  -0.2289  -0.2162
    -0.2157  -0.1885  -0.1868  -0.1839  -0.0626  -0.0614   0.0401   0.4552
     0.4556   0.4582   0.4586   0.5189   0.5199   0.9085   0.9091   0.9515
     0.9518   1.0590   1.1399   1.2502   1.2528   1.4708   1.4744   2.1056
     2.1062   2.2682   2.2688   2.3991   2.4004   2.5037   2.5043   2.6580
     2.8959   2.9011   3.0185   3.2434   3.2455   3.3277   3.3292   3.4282
     3.4433   3.6369   3.6429   3.7003   3.9003   3.9009   3.9626   3.9649
     4.2202   4.2279   4.2292   4.4715   4.5129   4.5144   4.5585   4.8944
     4.8962   4.9243   5.0595   5.1721   5.2314   5.2318   5.2905   5.3003
     5.7538   5.9348   6.0191   6.0221   6.0256   6.0286   6.0946   6.0949
     6.1798   6.2055   6.2300   6.2563   6.2583   6.2732   6.2789   6.2943
     6.3181   6.3186   6.4099   6.5491   6.7710   6.7877   6.8611   6.8891
     6.9654   6.9671   6.9754

          k = 0.2500-0.4330-0.1111 (136853 PWs)   bands (ev):

   -18.7491  -6.5633  -6.2596  -5.8614  -5.8589  -5.1818  -4.8493  -4.8482
    -4.8098  -4.8080  -4.4491  -4.4477  -4.3500  -4.3497  -4.3356  -4.3147
    -4.2864  -4.1827  -4.1818  -4.1581  -4.1147  -4.1145  -4.0456  -4.0454
    -4.0386  -4.0379  -4.0173  -4.0129  -4.0101  -3.9381  -3.9372  -3.9098
    -3.9081  -3.8971  -3.8965  -3.8736  -3.8735  -3.8511  -3.8428  -3.8424
    -3.8158  -3.7639  -3.7633  -3.7166  -3.7147  -3.6559  -3.6558  -3.6017
    -3.6016  -3.6008  -3.6004  -3.5659  -3.5256  -3.5254  -3.5200  -3.5188
    -3.5186  -3.4881  -3.4867  -3.4793  -3.4170  -3.4165  -3.4068  -3.3913
    -3.3842  -3.3121  -3.3111  -3.2781  -3.2770  -3.2502  -3.2496  -3.2370
    -3.2203  -3.1598  -3.1597  -3.1427  -3.1418  -3.0900  -3.0851  -3.0849
    -3.0474  -3.0159  -3.0145  -3.0075  -3.0062  -2.9930  -2.9929  -2.9852
    -2.9850  -2.9752  -2.9347  -2.8976  -2.8965  -2.8823  -2.8816  -2.8567
    -2.8468  -2.8457  -2.8245  -2.7814  -2.7796  -2.7712  -2.7709  -2.7312
    -2.7252  -2.7142  -2.7128  -2.6843  -2.6838  -2.6550  -2.6168  -2.6165
    -2.5944  -2.5877  -2.5736  -2.5731  -2.5230  -2.5223  -2.4898  -2.4674
    -2.4672  -2.4430  -2.4427  -2.4317  -2.4311  -2.4208  -2.3981  -2.3972
    -2.3532  -2.3527  -2.3519  -2.3354  -2.3338  -2.3300  -2.3197  -2.3195
    -2.3172  -2.3165  -2.3114  -2.2988  -2.2973  -2.2869  -2.2621  -2.2615
    -2.2602  -2.2595  -2.2591  -2.2561  -2.2558  -2.2280  -2.2250  -2.2108
    -2.2105  -2.1935  -2.1927  -2.1828  -2.1826  -2.1813  -2.1809  -2.1617
    -2.1605  -2.1591  -2.1585  -2.1417  -2.1159  -2.1152  -2.0766  -2.0747
    -2.0501  -2.0486  -2.0220  -2.0218  -1.9945  -1.9938  -1.9771  -1.9726
    -1.9457  -1.9227  -1.9220  -1.9179  -1.9170  -1.9132  -1.9061  -1.9054
    -1.8802  -1.8730  -1.8625  -1.8070  -1.8028  -1.8019  -1.7996  -1.7990
    -1.7604  -1.7443  -1.7427  -1.7153  -1.7150  -1.6546  -1.6537  -1.6259
    -1.6073  -1.6069  -1.5462  -1.5454  -1.5340  -1.5336  -1.5232  -1.5222
    -1.5197  -1.5096  -1.5092  -1.4535  -1.4533  -1.4416  -1.4414  -1.4408
    -1.4216  -1.4204  -1.3857  -1.3854  -1.3686  -1.3681  -1.3679  -1.3614
    -1.3564  -1.3473  -1.3457  -1.3280  -1.3270  -1.2856  -1.2850  -1.2732
    -1.2720  -1.2523  -1.2398  -1.1963  -1.1949  -1.1700  -1.1651  -1.1645
    -1.1359  -1.0841  -1.0837  -1.0825  -1.0822  -1.0768  -1.0763  -1.0659
    -1.0475  -1.0467  -1.0073  -1.0069  -0.9764  -0.9762  -0.9717  -0.9710
    -0.9629  -0.9469  -0.9467  -0.9456  -0.9425  -0.9423  -0.9060  -0.9040
    -0.9033  -0.9025  -0.8713  -0.8709  -0.8679  -0.8441  -0.8359  -0.8349
    -0.7891  -0.7818  -0.7811  -0.7484  -0.7464  -0.7382  -0.7279  -0.7272
    -0.7193  -0.7186  -0.7183  -0.7173  -0.7062  -0.7058  -0.6798  -0.6792
    -0.6770  -0.6746  -0.6743  -0.6372  -0.6369  -0.6265  -0.6260  -0.6109
    -0.6034  -0.6027  -0.5911  -0.5359  -0.5329  -0.5245  -0.5240  -0.5231
    -0.5229  -0.5178  -0.4983  -0.4976  -0.4893  -0.4891  -0.4870  -0.4868
    -0.4477  -0.4451  -0.4446  -0.4370  -0.4360  -0.4312  -0.4294  -0.4198
    -0.4136  -0.4102  -0.4097  -0.3676  -0.3672  -0.3589  -0.3556  -0.3550
    -0.2778  -0.2773  -0.2750  -0.2746  -0.2656  -0.2654  -0.2289  -0.2162
    -0.2157  -0.1885  -0.1868  -0.1839  -0.0626  -0.0614   0.0401   0.4552
     0.4556   0.4582   0.4586   0.5189   0.5199   0.9085   0.9091   0.9515
     0.9518   1.0590   1.1399   1.2502   1.2528   1.4708   1.4744   2.1056
     2.1062   2.2682   2.2688   2.3991   2.4004   2.5037   2.5043   2.6580
     2.8959   2.9011   3.0185   3.2434   3.2455   3.3277   3.3292   3.4282
     3.4433   3.6369   3.6429   3.7003   3.9003   3.9009   3.9626   3.9649
     4.2202   4.2279   4.2292   4.4715   4.5129   4.5144   4.5585   4.8944
     4.8962   4.9243   5.0595   5.1721   5.2314   5.2318   5.2905   5.3003
     5.7538   5.9348   6.0191   6.0221   6.0256   6.0286   6.0946   6.0949
     6.1798   6.2055   6.2300   6.2563   6.2583   6.2732   6.2789   6.2939
     6.3181   6.3186   6.4105   6.5492   6.7709   6.7879   6.8619   6.8880
     6.9654   6.9671   6.9754

          k = 0.5000 0.0000 0.1111 (136853 PWs)   bands (ev):

   -18.7491  -6.5633  -6.2596  -5.8616  -5.8588  -5.1818  -4.8496  -4.8480
    -4.8101  -4.8078  -4.4491  -4.4477  -4.3499  -4.3497  -4.3356  -4.3146
    -4.2864  -4.1828  -4.1818  -4.1581  -4.1146  -4.1145  -4.0456  -4.0453
    -4.0388  -4.0377  -4.0173  -4.0130  -4.0100  -3.9383  -3.9370  -3.9099
    -3.9080  -3.8970  -3.8966  -3.8736  -3.8736  -3.8511  -3.8428  -3.8424
    -3.8158  -3.7638  -3.7634  -3.7166  -3.7146  -3.6559  -3.6557  -3.6018
    -3.6017  -3.6007  -3.6003  -3.5659  -3.5257  -3.5254  -3.5200  -3.5190
    -3.5185  -3.4881  -3.4868  -3.4794  -3.4169  -3.4166  -3.4068  -3.3913
    -3.3842  -3.3119  -3.3112  -3.2783  -3.2768  -3.2504  -3.2495  -3.2370
    -3.2203  -3.1599  -3.1596  -3.1426  -3.1419  -3.0900  -3.0851  -3.0849
    -3.0474  -3.0157  -3.0146  -3.0074  -3.0063  -2.9930  -2.9929  -2.9851
    -2.9850  -2.9753  -2.9347  -2.8977  -2.8965  -2.8822  -2.8817  -2.8567
    -2.8463  -2.8462  -2.8245  -2.7813  -2.7797  -2.7714  -2.7706  -2.7313
    -2.7252  -2.7142  -2.7128  -2.6845  -2.6837  -2.6550  -2.6169  -2.6164
    -2.5944  -2.5877  -2.5736  -2.5732  -2.5229  -2.5223  -2.4898  -2.4675
    -2.4671  -2.4430  -2.4427  -2.4318  -2.4310  -2.4208  -2.3980  -2.3973
    -2.3533  -2.3526  -2.3519  -2.3354  -2.3337  -2.3300  -2.3197  -2.3195
    -2.3171  -2.3166  -2.3115  -2.2987  -2.2974  -2.2869  -2.2619  -2.2616
    -2.2601  -2.2595  -2.2591  -2.2563  -2.2557  -2.2280  -2.2250  -2.2108
    -2.2105  -2.1934  -2.1928  -2.1829  -2.1826  -2.1813  -2.1808  -2.1617
    -2.1604  -2.1592  -2.1584  -2.1417  -2.1158  -2.1153  -2.0767  -2.0746
    -2.0502  -2.0487  -2.0221  -2.0217  -1.9943  -1.9940  -1.9772  -1.9726
    -1.9457  -1.9227  -1.9220  -1.9178  -1.9172  -1.9131  -1.9060  -1.9055
    -1.8803  -1.8731  -1.8624  -1.8070  -1.8028  -1.8018  -1.7996  -1.7990
    -1.7604  -1.7443  -1.7428  -1.7153  -1.7149  -1.6546  -1.6537  -1.6259
    -1.6073  -1.6068  -1.5462  -1.5455  -1.5340  -1.5336  -1.5230  -1.5224
    -1.5197  -1.5097  -1.5091  -1.4538  -1.4531  -1.4415  -1.4413  -1.4409
    -1.4215  -1.4206  -1.3858  -1.3853  -1.3686  -1.3681  -1.3680  -1.3614
    -1.3564  -1.3470  -1.3459  -1.3279  -1.3272  -1.2856  -1.2849  -1.2730
    -1.2722  -1.2523  -1.2398  -1.1961  -1.1951  -1.1701  -1.1650  -1.1646
    -1.1359  -1.0841  -1.0838  -1.0827  -1.0820  -1.0768  -1.0763  -1.0659
    -1.0473  -1.0469  -1.0072  -1.0071  -0.9763  -0.9762  -0.9717  -0.9710
    -0.9629  -0.9469  -0.9466  -0.9456  -0.9426  -0.9422  -0.9056  -0.9044
    -0.9032  -0.9027  -0.8713  -0.8710  -0.8679  -0.8441  -0.8356  -0.8353
    -0.7890  -0.7819  -0.7810  -0.7483  -0.7465  -0.7383  -0.7279  -0.7273
    -0.7193  -0.7186  -0.7182  -0.7175  -0.7060  -0.7059  -0.6798  -0.6792
    -0.6770  -0.6746  -0.6742  -0.6373  -0.6370  -0.6264  -0.6261  -0.6109
    -0.6033  -0.6028  -0.5911  -0.5357  -0.5330  -0.5243  -0.5242  -0.5232
    -0.5228  -0.5178  -0.4983  -0.4975  -0.4892  -0.4891  -0.4870  -0.4868
    -0.4477  -0.4451  -0.4446  -0.4368  -0.4362  -0.4312  -0.4294  -0.4198
    -0.4136  -0.4101  -0.4097  -0.3675  -0.3672  -0.3589  -0.3554  -0.3552
    -0.2779  -0.2773  -0.2750  -0.2747  -0.2657  -0.2653  -0.2289  -0.2161
    -0.2158  -0.1882  -0.1870  -0.1839  -0.0625  -0.0615   0.0401   0.4552
     0.4556   0.4581   0.4587   0.5190   0.5199   0.9086   0.9089   0.9511
     0.9522   1.0589   1.1399   1.2507   1.2523   1.4713   1.4738   2.1051
     2.1067   2.2679   2.2691   2.3993   2.4002   2.5033   2.5048   2.6580
     2.8959   2.9011   3.0185   3.2436   3.2452   3.3274   3.3295   3.4282
     3.4434   3.6381   3.6416   3.7003   3.9001   3.9011   3.9627   3.9648
     4.2203   4.2280   4.2290   4.4714   4.5128   4.5145   4.5585   4.8948
     4.8958   4.9243   5.0595   5.1730   5.2313   5.2319   5.2915   5.3029
     5.7420   5.9496   6.0098   6.0192   6.0261   6.0280   6.0945   6.0951
     6.1779   6.2056   6.2300   6.2547   6.2577   6.2628   6.2749   6.2791
     6.3177   6.3188   6.4634   6.5346   6.7749   6.7910   6.8395   6.9170
     6.9661   6.9754   7.0324

          k =-0.5000 0.0000 0.1111 (136853 PWs)   bands (ev):

   -18.7491  -6.5633  -6.2596  -5.8616  -5.8588  -5.1818  -4.8496  -4.8480
    -4.8101  -4.8078  -4.4491  -4.4477  -4.3499  -4.3497  -4.3356  -4.3146
    -4.2864  -4.1828  -4.1818  -4.1581  -4.1146  -4.1145  -4.0456  -4.0453
    -4.0388  -4.0377  -4.0173  -4.0130  -4.0100  -3.9383  -3.9370  -3.9099
    -3.9080  -3.8970  -3.8966  -3.8736  -3.8736  -3.8511  -3.8428  -3.8424
    -3.8158  -3.7638  -3.7634  -3.7166  -3.7146  -3.6559  -3.6557  -3.6018
    -3.6017  -3.6007  -3.6003  -3.5659  -3.5257  -3.5254  -3.5200  -3.5190
    -3.5185  -3.4881  -3.4868  -3.4794  -3.4169  -3.4166  -3.4068  -3.3913
    -3.3842  -3.3119  -3.3112  -3.2783  -3.2768  -3.2504  -3.2495  -3.2370
    -3.2203  -3.1599  -3.1596  -3.1426  -3.1419  -3.0900  -3.0851  -3.0849
    -3.0474  -3.0157  -3.0146  -3.0074  -3.0063  -2.9930  -2.9929  -2.9851
    -2.9850  -2.9753  -2.9347  -2.8977  -2.8965  -2.8822  -2.8817  -2.8567
    -2.8463  -2.8462  -2.8245  -2.7813  -2.7797  -2.7714  -2.7706  -2.7313
    -2.7252  -2.7142  -2.7128  -2.6845  -2.6837  -2.6550  -2.6169  -2.6164
    -2.5944  -2.5877  -2.5736  -2.5732  -2.5229  -2.5223  -2.4898  -2.4675
    -2.4671  -2.4430  -2.4427  -2.4318  -2.4310  -2.4208  -2.3980  -2.3973
    -2.3533  -2.3526  -2.3519  -2.3354  -2.3337  -2.3300  -2.3197  -2.3195
    -2.3171  -2.3166  -2.3115  -2.2987  -2.2974  -2.2869  -2.2619  -2.2616
    -2.2601  -2.2595  -2.2591  -2.2563  -2.2557  -2.2280  -2.2250  -2.2108
    -2.2105  -2.1934  -2.1928  -2.1829  -2.1826  -2.1813  -2.1808  -2.1617
    -2.1604  -2.1592  -2.1584  -2.1417  -2.1158  -2.1153  -2.0767  -2.0746
    -2.0502  -2.0487  -2.0221  -2.0217  -1.9943  -1.9940  -1.9772  -1.9726
    -1.9457  -1.9227  -1.9220  -1.9178  -1.9172  -1.9131  -1.9060  -1.9055
    -1.8803  -1.8731  -1.8624  -1.8070  -1.8028  -1.8018  -1.7996  -1.7990
    -1.7604  -1.7443  -1.7428  -1.7153  -1.7149  -1.6546  -1.6537  -1.6259
    -1.6073  -1.6068  -1.5462  -1.5455  -1.5340  -1.5336  -1.5230  -1.5224
    -1.5197  -1.5097  -1.5091  -1.4538  -1.4531  -1.4415  -1.4413  -1.4409
    -1.4215  -1.4206  -1.3858  -1.3853  -1.3686  -1.3681  -1.3680  -1.3614
    -1.3564  -1.3470  -1.3459  -1.3279  -1.3272  -1.2856  -1.2849  -1.2730
    -1.2722  -1.2523  -1.2398  -1.1961  -1.1951  -1.1701  -1.1650  -1.1646
    -1.1359  -1.0841  -1.0838  -1.0827  -1.0820  -1.0768  -1.0763  -1.0659
    -1.0473  -1.0469  -1.0072  -1.0071  -0.9763  -0.9762  -0.9717  -0.9710
    -0.9629  -0.9469  -0.9466  -0.9456  -0.9426  -0.9422  -0.9056  -0.9044
    -0.9032  -0.9027  -0.8713  -0.8710  -0.8679  -0.8441  -0.8356  -0.8353
    -0.7890  -0.7819  -0.7810  -0.7483  -0.7465  -0.7383  -0.7279  -0.7273
    -0.7193  -0.7186  -0.7182  -0.7175  -0.7060  -0.7059  -0.6798  -0.6792
    -0.6770  -0.6746  -0.6742  -0.6373  -0.6370  -0.6264  -0.6261  -0.6109
    -0.6033  -0.6028  -0.5911  -0.5357  -0.5330  -0.5243  -0.5242  -0.5232
    -0.5228  -0.5178  -0.4983  -0.4975  -0.4892  -0.4891  -0.4870  -0.4868
    -0.4477  -0.4451  -0.4446  -0.4368  -0.4362  -0.4312  -0.4294  -0.4198
    -0.4136  -0.4101  -0.4097  -0.3675  -0.3672  -0.3589  -0.3554  -0.3552
    -0.2779  -0.2773  -0.2750  -0.2747  -0.2657  -0.2653  -0.2289  -0.2161
    -0.2158  -0.1882  -0.1870  -0.1839  -0.0625  -0.0615   0.0401   0.4552
     0.4556   0.4581   0.4587   0.5190   0.5199   0.9086   0.9089   0.9511
     0.9522   1.0589   1.1399   1.2507   1.2523   1.4713   1.4738   2.1051
     2.1067   2.2679   2.2691   2.3993   2.4002   2.5033   2.5048   2.6580
     2.8959   2.9011   3.0185   3.2436   3.2452   3.3274   3.3295   3.4282
     3.4434   3.6381   3.6416   3.7003   3.9001   3.9011   3.9627   3.9648
     4.2203   4.2280   4.2290   4.4714   4.5128   4.5145   4.5585   4.8948
     4.8958   4.9243   5.0595   5.1730   5.2313   5.2319   5.2915   5.3029
     5.7417   5.9498   6.0103   6.0192   6.0261   6.0280   6.0945   6.0951
     6.1779   6.2056   6.2300   6.2548   6.2576   6.2628   6.2748   6.2791
     6.3177   6.3188   6.4620   6.5338   6.7749   6.7928   6.8415   6.9155
     6.9655   6.9669   6.9754

          k =-0.2500 0.1443 0.1111 (136898 PWs)   bands (ev):

   -18.7491  -6.5633  -6.4695  -5.6775  -5.3857  -5.3271  -5.3270  -4.7887
    -4.7887  -4.6567  -4.6562  -4.5020  -4.4693  -4.4091  -4.3749  -4.3747
    -4.3421  -4.3421  -4.2135  -4.1717  -4.1717  -4.1116  -4.0903  -4.0902
    -3.9882  -3.9882  -3.9520  -3.9518  -3.9517  -3.9247  -3.9032  -3.9032
    -3.7971  -3.7960  -3.7960  -3.7751  -3.7583  -3.7583  -3.7459  -3.7458
    -3.7325  -3.7024  -3.7024  -3.7022  -3.7022  -3.6695  -3.6694  -3.6518
    -3.6517  -3.6363  -3.5926  -3.5926  -3.5632  -3.5476  -3.5474  -3.5435
    -3.5435  -3.4688  -3.4688  -3.4330  -3.4307  -3.4306  -3.3633  -3.3633
    -3.3477  -3.3476  -3.3164  -3.3162  -3.3155  -3.3152  -3.1621  -3.1621
    -3.1360  -3.1360  -3.1309  -3.1151  -3.1150  -3.0889  -3.0889  -3.0391
    -3.0391  -3.0227  -3.0227  -3.0025  -2.9535  -2.9535  -2.9340  -2.9291
    -2.9290  -2.8881  -2.8880  -2.8818  -2.8818  -2.8648  -2.8646  -2.8252
    -2.8252  -2.8034  -2.8033  -2.8001  -2.8001  -2.7974  -2.7713  -2.7196
    -2.7196  -2.7182  -2.6895  -2.6894  -2.6273  -2.6273  -2.5993  -2.5979
    -2.5847  -2.5846  -2.5795  -2.5496  -2.5496  -2.5402  -2.5224  -2.4964
    -2.4964  -2.4961  -2.4755  -2.4755  -2.4641  -2.4640  -2.4605  -2.4603
    -2.4529  -2.4067  -2.3739  -2.3739  -2.3584  -2.3443  -2.3379  -2.3377
    -2.3303  -2.3301  -2.3288  -2.2987  -2.2986  -2.2985  -2.2887  -2.2887
    -2.2712  -2.2437  -2.2433  -2.2427  -2.2420  -2.2419  -2.1969  -2.1651
    -2.1649  -2.1648  -2.1582  -2.1494  -2.1359  -2.1359  -2.1194  -2.1194
    -2.0850  -2.0844  -2.0842  -2.0658  -2.0638  -2.0637  -2.0306  -2.0304
    -1.9893  -1.9889  -1.9817  -1.9797  -1.9796  -1.9729  -1.9728  -1.9705
    -1.9704  -1.9631  -1.9628  -1.9461  -1.9460  -1.8187  -1.8185  -1.7864
    -1.7806  -1.7804  -1.7752  -1.7752  -1.7569  -1.7569  -1.7540  -1.7539
    -1.7521  -1.7295  -1.7204  -1.7203  -1.7174  -1.7088  -1.7088  -1.6859
    -1.6858  -1.6572  -1.6572  -1.6245  -1.6244  -1.6146  -1.6064  -1.5886
    -1.5885  -1.5857  -1.5671  -1.5548  -1.5548  -1.5473  -1.5473  -1.5203
    -1.5202  -1.5032  -1.5031  -1.4711  -1.4709  -1.4608  -1.4097  -1.4097
    -1.3973  -1.3971  -1.3965  -1.3720  -1.3695  -1.3355  -1.3348  -1.3347
    -1.3010  -1.2910  -1.2908  -1.2753  -1.2752  -1.2482  -1.2468  -1.2467
    -1.2171  -1.2143  -1.2142  -1.1515  -1.1513  -1.1379  -1.1376  -1.1215
    -1.1215  -1.1089  -1.1088  -1.0910  -1.0782  -1.0502  -1.0501  -1.0388
    -1.0109  -1.0004  -1.0002  -0.9888  -0.9888  -0.9863  -0.9808  -0.9806
    -0.9680  -0.9364  -0.9364  -0.9252  -0.9248  -0.9240  -0.9236  -0.8997
    -0.8812  -0.8808  -0.8601  -0.8598  -0.7670  -0.7541  -0.7485  -0.7482
    -0.7480  -0.7441  -0.7385  -0.7385  -0.7178  -0.7124  -0.6975  -0.6971
    -0.6826  -0.6825  -0.6733  -0.6530  -0.6527  -0.6513  -0.6429  -0.5712
    -0.5712  -0.5368  -0.5365  -0.5328  -0.5254  -0.5251  -0.5244  -0.5244
    -0.5109  -0.5108  -0.4955  -0.4702  -0.4555  -0.4353  -0.4352  -0.4238
    -0.4237  -0.4109  -0.4109  -0.4098  -0.4084  -0.4084  -0.3907  -0.3864
    -0.3863  -0.3556  -0.3540  -0.3540  -0.3420  -0.3419  -0.3226  -0.2904
    -0.2903  -0.2810  -0.2810  -0.2128  -0.2128  -0.1754  -0.1753  -0.1181
    -0.1153  -0.1152  -0.1058  -0.0861   0.1359   0.1367   0.4836   0.4836
     0.5749   0.5757   0.7689   0.7812   0.8013   0.9324   0.9326   1.3638
     1.3638   1.3825   1.6397   1.6739   1.6739   1.9507   1.9519   2.0305
     2.0305   2.0578   2.0585   2.2871   2.2871   2.3750   2.3750   2.4474
     2.5136   2.5150   2.6791   2.7761   3.2181   3.2181   3.2209   3.2212
     3.2762   3.2762   3.5682   3.5683   3.8500   3.8509   3.9532   4.2639
     4.3073   4.3079   4.5261   4.5290   4.6082   4.6083   4.6992   4.8175
     4.8176   4.9344   4.9347   5.1369   5.2392   5.3087   5.3088   5.4739
     5.4791   5.6666   5.6960   5.6965   5.7222   5.7223   5.7864   5.7866
     5.8321   6.0720   6.2178   6.3281   6.3941   6.4099   6.5210   6.5288
     6.5290   6.5419   6.5426   6.7269   6.7833   6.7840   6.8045   6.9745
     6.9864   7.0152   7.0317

          k =-0.2500-0.1443-0.1111 (136898 PWs)   bands (ev):

   -18.7491  -6.5633  -6.4695  -5.6775  -5.3857  -5.3271  -5.3271  -4.7887
    -4.7886  -4.6570  -4.6560  -4.5019  -4.4693  -4.4092  -4.3749  -4.3748
    -4.3421  -4.3419  -4.2135  -4.1719  -4.1716  -4.1114  -4.0904  -4.0902
    -3.9882  -3.9881  -3.9521  -3.9518  -3.9517  -3.9246  -3.9034  -3.9030
    -3.7970  -3.7962  -3.7959  -3.7750  -3.7585  -3.7582  -3.7460  -3.7459
    -3.7324  -3.7024  -3.7023  -3.7022  -3.7021  -3.6696  -3.6694  -3.6517
    -3.6517  -3.6362  -3.5928  -3.5924  -3.5634  -3.5475  -3.5474  -3.5436
    -3.5434  -3.4689  -3.4687  -3.4328  -3.4306  -3.4304  -3.3635  -3.3634
    -3.3476  -3.3475  -3.3162  -3.3160  -3.3157  -3.3157  -3.1622  -3.1621
    -3.1361  -3.1360  -3.1309  -3.1151  -3.1150  -3.0890  -3.0887  -3.0392
    -3.0391  -3.0228  -3.0227  -3.0024  -2.9536  -2.9532  -2.9341  -2.9292
    -2.9291  -2.8882  -2.8880  -2.8819  -2.8818  -2.8648  -2.8647  -2.8251
    -2.8250  -2.8034  -2.8032  -2.8001  -2.8000  -2.7974  -2.7713  -2.7197
    -2.7195  -2.7184  -2.6895  -2.6894  -2.6274  -2.6270  -2.5992  -2.5980
    -2.5845  -2.5844  -2.5796  -2.5498  -2.5493  -2.5402  -2.5223  -2.4966
    -2.4964  -2.4964  -2.4755  -2.4754  -2.4644  -2.4642  -2.4604  -2.4603
    -2.4529  -2.4066  -2.3740  -2.3739  -2.3583  -2.3444  -2.3378  -2.3378
    -2.3303  -2.3302  -2.3290  -2.2987  -2.2987  -2.2983  -2.2887  -2.2885
    -2.2711  -2.2439  -2.2435  -2.2428  -2.2418  -2.2417  -2.1971  -2.1653
    -2.1650  -2.1648  -2.1581  -2.1495  -2.1361  -2.1354  -2.1193  -2.1193
    -2.0850  -2.0843  -2.0842  -2.0658  -2.0638  -2.0637  -2.0305  -2.0304
    -1.9895  -1.9888  -1.9814  -1.9796  -1.9795  -1.9730  -1.9728  -1.9709
    -1.9703  -1.9629  -1.9628  -1.9462  -1.9461  -1.8187  -1.8186  -1.7863
    -1.7805  -1.7804  -1.7751  -1.7751  -1.7576  -1.7572  -1.7540  -1.7538
    -1.7516  -1.7295  -1.7203  -1.7202  -1.7175  -1.7088  -1.7083  -1.6861
    -1.6860  -1.6576  -1.6570  -1.6245  -1.6244  -1.6145  -1.6064  -1.5886
    -1.5884  -1.5854  -1.5671  -1.5550  -1.5550  -1.5475  -1.5473  -1.5201
    -1.5200  -1.5034  -1.5028  -1.4712  -1.4711  -1.4609  -1.4101  -1.4094
    -1.3972  -1.3971  -1.3969  -1.3722  -1.3692  -1.3355  -1.3347  -1.3344
    -1.3011  -1.2909  -1.2908  -1.2752  -1.2750  -1.2481  -1.2469  -1.2468
    -1.2172  -1.2143  -1.2142  -1.1516  -1.1516  -1.1378  -1.1377  -1.1217
    -1.1215  -1.1087  -1.1086  -1.0906  -1.0780  -1.0503  -1.0500  -1.0389
    -1.0106  -1.0003  -1.0002  -0.9890  -0.9889  -0.9867  -0.9809  -0.9808
    -0.9679  -0.9365  -0.9362  -0.9251  -0.9248  -0.9242  -0.9236  -0.8997
    -0.8813  -0.8811  -0.8599  -0.8597  -0.7668  -0.7541  -0.7484  -0.7482
    -0.7479  -0.7440  -0.7388  -0.7385  -0.7177  -0.7124  -0.6974  -0.6972
    -0.6826  -0.6825  -0.6735  -0.6528  -0.6527  -0.6515  -0.6430  -0.5713
    -0.5711  -0.5367  -0.5366  -0.5329  -0.5254  -0.5252  -0.5245  -0.5243
    -0.5109  -0.5107  -0.4955  -0.4701  -0.4556  -0.4353  -0.4353  -0.4239
    -0.4238  -0.4110  -0.4107  -0.4098  -0.4084  -0.4083  -0.3906  -0.3866
    -0.3864  -0.3556  -0.3540  -0.3539  -0.3420  -0.3419  -0.3227  -0.2904
    -0.2903  -0.2810  -0.2809  -0.2130  -0.2127  -0.1756  -0.1751  -0.1181
    -0.1154  -0.1151  -0.1060  -0.0861   0.1363   0.1366   0.4836   0.4836
     0.5752   0.5756   0.7685   0.7814   0.8013   0.9324   0.9325   1.3637
     1.3639   1.3826   1.6397   1.6738   1.6740   1.9510   1.9515   2.0304
     2.0306   2.0580   2.0583   2.2868   2.2872   2.3750   2.3750   2.4474
     2.5140   2.5145   2.6789   2.7762   3.2181   3.2183   3.2210   3.2212
     3.2760   3.2765   3.5680   3.5685   3.8503   3.8506   3.9532   4.2639
     4.3072   4.3075   4.5270   4.5277   4.6078   4.6088   4.6992   4.8170
     4.8178   4.9348   4.9350   5.1424   5.2392   5.3081   5.3093   5.4758
     5.4783   5.6636   5.6958   5.6961   5.7222   5.7223   5.7862   5.7871
     5.8308   6.0402   6.2138   6.3724   6.3919   6.3961   6.4958   6.5287
     6.5292   6.5423   6.5425   6.7291   6.7835   6.7839   6.9123   6.9418
     6.9822   7.0111   7.0152

          k = 0.2500 0.1443-0.1111 (136898 PWs)   bands (ev):

   -18.7491  -6.5633  -6.4695  -5.6775  -5.3857  -5.3271  -5.3271  -4.7887
    -4.7886  -4.6571  -4.6560  -4.5019  -4.4693  -4.4092  -4.3749  -4.3748
    -4.3421  -4.3419  -4.2135  -4.1719  -4.1716  -4.1114  -4.0903  -4.0902
    -3.9882  -3.9881  -3.9521  -3.9518  -3.9517  -3.9246  -3.9034  -3.9030
    -3.7971  -3.7962  -3.7959  -3.7750  -3.7585  -3.7582  -3.7460  -3.7459
    -3.7324  -3.7024  -3.7023  -3.7022  -3.7021  -3.6696  -3.6694  -3.6517
    -3.6517  -3.6362  -3.5928  -3.5924  -3.5634  -3.5475  -3.5474  -3.5436
    -3.5434  -3.4689  -3.4687  -3.4328  -3.4306  -3.4304  -3.3635  -3.3634
    -3.3476  -3.3475  -3.3162  -3.3160  -3.3157  -3.3157  -3.1622  -3.1621
    -3.1361  -3.1360  -3.1309  -3.1151  -3.1150  -3.0890  -3.0887  -3.0392
    -3.0391  -3.0228  -3.0227  -3.0024  -2.9536  -2.9532  -2.9341  -2.9292
    -2.9291  -2.8882  -2.8880  -2.8819  -2.8818  -2.8648  -2.8647  -2.8251
    -2.8250  -2.8034  -2.8032  -2.8001  -2.8000  -2.7974  -2.7713  -2.7197
    -2.7195  -2.7184  -2.6895  -2.6894  -2.6274  -2.6270  -2.5992  -2.5980
    -2.5845  -2.5844  -2.5796  -2.5498  -2.5493  -2.5402  -2.5223  -2.4966
    -2.4964  -2.4964  -2.4755  -2.4754  -2.4644  -2.4642  -2.4604  -2.4603
    -2.4529  -2.4066  -2.3740  -2.3739  -2.3583  -2.3444  -2.3378  -2.3378
    -2.3303  -2.3302  -2.3290  -2.2987  -2.2987  -2.2983  -2.2887  -2.2885
    -2.2711  -2.2439  -2.2435  -2.2428  -2.2418  -2.2417  -2.1971  -2.1653
    -2.1650  -2.1648  -2.1581  -2.1495  -2.1361  -2.1354  -2.1193  -2.1193
    -2.0850  -2.0843  -2.0842  -2.0658  -2.0638  -2.0637  -2.0305  -2.0304
    -1.9895  -1.9888  -1.9814  -1.9796  -1.9795  -1.9730  -1.9728  -1.9709
    -1.9703  -1.9629  -1.9628  -1.9462  -1.9461  -1.8187  -1.8186  -1.7863
    -1.7805  -1.7804  -1.7751  -1.7751  -1.7576  -1.7572  -1.7540  -1.7538
    -1.7516  -1.7295  -1.7203  -1.7202  -1.7175  -1.7088  -1.7083  -1.6861
    -1.6860  -1.6576  -1.6570  -1.6245  -1.6244  -1.6145  -1.6064  -1.5886
    -1.5884  -1.5854  -1.5671  -1.5550  -1.5550  -1.5475  -1.5473  -1.5201
    -1.5200  -1.5034  -1.5028  -1.4712  -1.4711  -1.4609  -1.4101  -1.4094
    -1.3972  -1.3971  -1.3969  -1.3722  -1.3692  -1.3355  -1.3347  -1.3344
    -1.3011  -1.2909  -1.2908  -1.2752  -1.2750  -1.2481  -1.2469  -1.2468
    -1.2172  -1.2143  -1.2142  -1.1516  -1.1516  -1.1378  -1.1377  -1.1217
    -1.1215  -1.1087  -1.1086  -1.0905  -1.0780  -1.0503  -1.0500  -1.0389
    -1.0106  -1.0003  -1.0002  -0.9890  -0.9889  -0.9867  -0.9809  -0.9808
    -0.9679  -0.9365  -0.9362  -0.9251  -0.9248  -0.9242  -0.9236  -0.8997
    -0.8813  -0.8811  -0.8599  -0.8597  -0.7668  -0.7541  -0.7484  -0.7482
    -0.7479  -0.7440  -0.7388  -0.7385  -0.7177  -0.7124  -0.6974  -0.6972
    -0.6826  -0.6825  -0.6735  -0.6528  -0.6527  -0.6515  -0.6430  -0.5712
    -0.5711  -0.5367  -0.5366  -0.5329  -0.5254  -0.5252  -0.5245  -0.5243
    -0.5109  -0.5107  -0.4955  -0.4701  -0.4556  -0.4353  -0.4353  -0.4239
    -0.4238  -0.4110  -0.4107  -0.4098  -0.4084  -0.4083  -0.3906  -0.3866
    -0.3864  -0.3556  -0.3540  -0.3539  -0.3420  -0.3419  -0.3227  -0.2904
    -0.2903  -0.2810  -0.2809  -0.2130  -0.2128  -0.1756  -0.1751  -0.1181
    -0.1154  -0.1151  -0.1060  -0.0861   0.1363   0.1366   0.4836   0.4836
     0.5752   0.5756   0.7685   0.7814   0.8013   0.9324   0.9325   1.3637
     1.3639   1.3826   1.6397   1.6738   1.6740   1.9510   1.9515   2.0304
     2.0306   2.0580   2.0583   2.2868   2.2872   2.3750   2.3750   2.4474
     2.5140   2.5145   2.6789   2.7762   3.2181   3.2183   3.2210   3.2212
     3.2760   3.2765   3.5680   3.5685   3.8503   3.8506   3.9532   4.2639
     4.3072   4.3075   4.5270   4.5277   4.6078   4.6088   4.6992   4.8170
     4.8178   4.9348   4.9350   5.1424   5.2392   5.3081   5.3093   5.4758
     5.4783   5.6635   5.6958   5.6961   5.7222   5.7223   5.7862   5.7871
     5.8308   6.0421   6.2132   6.3712   6.3905   6.3952   6.4921   6.5287
     6.5292   6.5423   6.5425   6.7304   6.7835   6.7839   6.9198   6.9488
     6.9858   7.0128   7.0192

          k = 0.0000-0.2887 0.1111 (136898 PWs)   bands (ev):

   -18.7491  -6.5633  -6.4695  -5.6775  -5.3857  -5.3271  -5.3271  -4.7887
    -4.7886  -4.6571  -4.6560  -4.5020  -4.4693  -4.4092  -4.3749  -4.3748
    -4.3421  -4.3420  -4.2135  -4.1718  -4.1717  -4.1114  -4.0904  -4.0902
    -3.9882  -3.9881  -3.9520  -3.9518  -3.9517  -3.9247  -3.9033  -3.9031
    -3.7971  -3.7961  -3.7960  -3.7751  -3.7585  -3.7582  -3.7459  -3.7459
    -3.7325  -3.7026  -3.7024  -3.7021  -3.7019  -3.6696  -3.6693  -3.6517
    -3.6517  -3.6362  -3.5928  -3.5925  -3.5634  -3.5476  -3.5474  -3.5436
    -3.5434  -3.4689  -3.4687  -3.4328  -3.4306  -3.4304  -3.3635  -3.3634
    -3.3476  -3.3475  -3.3164  -3.3160  -3.3157  -3.3154  -3.1622  -3.1621
    -3.1361  -3.1359  -3.1309  -3.1151  -3.1150  -3.0891  -3.0886  -3.0392
    -3.0391  -3.0228  -3.0226  -3.0024  -2.9537  -2.9532  -2.9341  -2.9292
    -2.9291  -2.8881  -2.8880  -2.8819  -2.8818  -2.8648  -2.8647  -2.8251
    -2.8250  -2.8035  -2.8032  -2.8001  -2.8000  -2.7973  -2.7713  -2.7197
    -2.7195  -2.7184  -2.6895  -2.6894  -2.6276  -2.6270  -2.5992  -2.5979
    -2.5845  -2.5844  -2.5796  -2.5496  -2.5495  -2.5402  -2.5223  -2.4965
    -2.4964  -2.4964  -2.4755  -2.4754  -2.4644  -2.4642  -2.4604  -2.4603
    -2.4529  -2.4066  -2.3740  -2.3739  -2.3583  -2.3444  -2.3378  -2.3377
    -2.3303  -2.3302  -2.3289  -2.2988  -2.2986  -2.2983  -2.2889  -2.2884
    -2.2711  -2.2439  -2.2436  -2.2427  -2.2419  -2.2417  -2.1971  -2.1653
    -2.1650  -2.1648  -2.1581  -2.1495  -2.1360  -2.1356  -2.1193  -2.1192
    -2.0850  -2.0844  -2.0842  -2.0658  -2.0638  -2.0637  -2.0305  -2.0304
    -1.9893  -1.9890  -1.9814  -1.9797  -1.9794  -1.9729  -1.9728  -1.9708
    -1.9704  -1.9630  -1.9627  -1.9462  -1.9461  -1.8187  -1.8185  -1.7863
    -1.7806  -1.7804  -1.7752  -1.7751  -1.7576  -1.7571  -1.7540  -1.7538
    -1.7516  -1.7295  -1.7203  -1.7202  -1.7174  -1.7089  -1.7083  -1.6861
    -1.6860  -1.6576  -1.6570  -1.6245  -1.6244  -1.6145  -1.6064  -1.5886
    -1.5884  -1.5854  -1.5671  -1.5549  -1.5549  -1.5475  -1.5473  -1.5201
    -1.5200  -1.5034  -1.5028  -1.4712  -1.4710  -1.4609  -1.4100  -1.4095
    -1.3972  -1.3971  -1.3968  -1.3723  -1.3692  -1.3355  -1.3347  -1.3344
    -1.3011  -1.2909  -1.2908  -1.2752  -1.2750  -1.2481  -1.2469  -1.2468
    -1.2172  -1.2143  -1.2142  -1.1517  -1.1515  -1.1379  -1.1376  -1.1219
    -1.1212  -1.1087  -1.1087  -1.0906  -1.0781  -1.0504  -1.0500  -1.0389
    -1.0107  -1.0003  -1.0001  -0.9890  -0.9889  -0.9867  -0.9809  -0.9808
    -0.9679  -0.9365  -0.9362  -0.9253  -0.9248  -0.9240  -0.9236  -0.8997
    -0.8813  -0.8810  -0.8599  -0.8597  -0.7669  -0.7541  -0.7485  -0.7482
    -0.7480  -0.7440  -0.7388  -0.7385  -0.7177  -0.7124  -0.6975  -0.6972
    -0.6825  -0.6825  -0.6734  -0.6529  -0.6527  -0.6514  -0.6430  -0.5712
    -0.5711  -0.5368  -0.5365  -0.5329  -0.5254  -0.5252  -0.5244  -0.5244
    -0.5110  -0.5107  -0.4955  -0.4701  -0.4556  -0.4354  -0.4352  -0.4239
    -0.4237  -0.4109  -0.4108  -0.4098  -0.4084  -0.4084  -0.3906  -0.3866
    -0.3864  -0.3556  -0.3540  -0.3538  -0.3420  -0.3418  -0.3226  -0.2904
    -0.2903  -0.2810  -0.2809  -0.2129  -0.2128  -0.1756  -0.1751  -0.1182
    -0.1154  -0.1152  -0.1060  -0.0861   0.1361   0.1367   0.4836   0.4836
     0.5750   0.5757   0.7687   0.7813   0.8013   0.9324   0.9326   1.3638
     1.3638   1.3826   1.6397   1.6739   1.6739   1.9508   1.9518   2.0304
     2.0306   2.0578   2.0585   2.2868   2.2871   2.3750   2.3750   2.4474
     2.5137   2.5148   2.6789   2.7762   3.2182   3.2182   3.2209   3.2212
     3.2760   3.2764   3.5682   3.5683   3.8501   3.8508   3.9531   4.2639
     4.3071   4.3077   4.5266   4.5284   4.6082   4.6085   4.6992   4.8172
     4.8177   4.9347   4.9350   5.1389   5.2392   5.3086   5.3088   5.4745
     5.4790   5.6655   5.6957   5.6962   5.7221   5.7223   5.7864   5.7869
     5.8316   6.0594   6.2167   6.3409   6.3937   6.4065   6.5096   6.5286
     6.5292   6.5422   6.5427   6.7320   6.7834   6.7840   6.8332   6.9675
     6.9839   7.0143   7.0322

          k = 0.0000 0.2887 0.1111 (136898 PWs)   bands (ev):

   -18.7491  -6.5633  -6.4695  -5.6775  -5.3857  -5.3271  -5.3271  -4.7887
    -4.7886  -4.6571  -4.6560  -4.5020  -4.4693  -4.4092  -4.3749  -4.3748
    -4.3421  -4.3420  -4.2135  -4.1718  -4.1717  -4.1114  -4.0904  -4.0902
    -3.9882  -3.9881  -3.9520  -3.9518  -3.9517  -3.9247  -3.9033  -3.9031
    -3.7971  -3.7961  -3.7960  -3.7751  -3.7585  -3.7582  -3.7459  -3.7459
    -3.7325  -3.7026  -3.7024  -3.7021  -3.7019  -3.6696  -3.6693  -3.6517
    -3.6517  -3.6362  -3.5928  -3.5925  -3.5634  -3.5476  -3.5474  -3.5436
    -3.5434  -3.4689  -3.4687  -3.4328  -3.4306  -3.4304  -3.3635  -3.3633
    -3.3476  -3.3475  -3.3164  -3.3160  -3.3157  -3.3154  -3.1622  -3.1621
    -3.1361  -3.1359  -3.1309  -3.1151  -3.1150  -3.0891  -3.0886  -3.0392
    -3.0391  -3.0228  -3.0226  -3.0024  -2.9537  -2.9532  -2.9341  -2.9292
    -2.9291  -2.8881  -2.8880  -2.8819  -2.8818  -2.8648  -2.8647  -2.8251
    -2.8250  -2.8035  -2.8032  -2.8001  -2.8000  -2.7973  -2.7713  -2.7197
    -2.7195  -2.7184  -2.6895  -2.6894  -2.6276  -2.6270  -2.5992  -2.5979
    -2.5845  -2.5844  -2.5796  -2.5496  -2.5495  -2.5402  -2.5223  -2.4965
    -2.4964  -2.4963  -2.4755  -2.4754  -2.4644  -2.4642  -2.4604  -2.4603
    -2.4529  -2.4066  -2.3740  -2.3739  -2.3583  -2.3444  -2.3378  -2.3377
    -2.3303  -2.3302  -2.3289  -2.2988  -2.2986  -2.2983  -2.2889  -2.2884
    -2.2711  -2.2439  -2.2436  -2.2427  -2.2419  -2.2417  -2.1971  -2.1653
    -2.1650  -2.1648  -2.1581  -2.1495  -2.1360  -2.1356  -2.1193  -2.1192
    -2.0850  -2.0843  -2.0842  -2.0658  -2.0638  -2.0637  -2.0305  -2.0304
    -1.9893  -1.9890  -1.9814  -1.9797  -1.9794  -1.9729  -1.9728  -1.9707
    -1.9704  -1.9630  -1.9627  -1.9462  -1.9461  -1.8187  -1.8185  -1.7863
    -1.7806  -1.7804  -1.7752  -1.7751  -1.7576  -1.7571  -1.7540  -1.7538
    -1.7516  -1.7295  -1.7203  -1.7202  -1.7174  -1.7089  -1.7083  -1.6861
    -1.6860  -1.6576  -1.6570  -1.6245  -1.6244  -1.6145  -1.6064  -1.5886
    -1.5884  -1.5854  -1.5671  -1.5549  -1.5549  -1.5475  -1.5473  -1.5201
    -1.5200  -1.5034  -1.5028  -1.4712  -1.4710  -1.4609  -1.4100  -1.4095
    -1.3972  -1.3971  -1.3968  -1.3723  -1.3692  -1.3355  -1.3347  -1.3344
    -1.3011  -1.2909  -1.2908  -1.2752  -1.2750  -1.2481  -1.2469  -1.2468
    -1.2173  -1.2143  -1.2142  -1.1516  -1.1515  -1.1379  -1.1376  -1.1219
    -1.1212  -1.1087  -1.1087  -1.0906  -1.0781  -1.0504  -1.0500  -1.0389
    -1.0107  -1.0003  -1.0001  -0.9890  -0.9889  -0.9867  -0.9809  -0.9808
    -0.9679  -0.9365  -0.9362  -0.9253  -0.9248  -0.9240  -0.9236  -0.8997
    -0.8813  -0.8810  -0.8599  -0.8597  -0.7669  -0.7541  -0.7485  -0.7482
    -0.7480  -0.7440  -0.7388  -0.7386  -0.7177  -0.7124  -0.6975  -0.6972
    -0.6826  -0.6825  -0.6734  -0.6529  -0.6527  -0.6514  -0.6430  -0.5712
    -0.5711  -0.5368  -0.5365  -0.5329  -0.5254  -0.5252  -0.5244  -0.5244
    -0.5110  -0.5107  -0.4955  -0.4701  -0.4556  -0.4354  -0.4352  -0.4239
    -0.4237  -0.4109  -0.4108  -0.4097  -0.4084  -0.4084  -0.3906  -0.3866
    -0.3864  -0.3556  -0.3540  -0.3538  -0.3420  -0.3418  -0.3226  -0.2904
    -0.2903  -0.2810  -0.2809  -0.2129  -0.2128  -0.1756  -0.1751  -0.1182
    -0.1154  -0.1152  -0.1060  -0.0861   0.1361   0.1367   0.4836   0.4836
     0.5750   0.5757   0.7687   0.7813   0.8013   0.9324   0.9326   1.3638
     1.3638   1.3826   1.6397   1.6739   1.6739   1.9508   1.9518   2.0304
     2.0306   2.0578   2.0585   2.2868   2.2871   2.3750   2.3750   2.4474
     2.5137   2.5148   2.6789   2.7762   3.2182   3.2182   3.2209   3.2212
     3.2760   3.2764   3.5682   3.5683   3.8501   3.8508   3.9531   4.2639
     4.3071   4.3077   4.5266   4.5284   4.6082   4.6085   4.6992   4.8172
     4.8177   4.9347   4.9350   5.1389   5.2392   5.3086   5.3088   5.4745
     5.4790   5.6658   5.6957   5.6962   5.7221   5.7223   5.7864   5.7869
     5.8316   6.0593   6.2156   6.3409   6.3937   6.4065   6.5088   6.5286
     6.5293   6.5422   6.5427   6.7307   6.7834   6.7840   6.8357   6.9713
     6.9867   7.0145   7.0395

     the Fermi energy is     1.5061 ev

!    total energy              =   -6604.42713336 Ry
     Harris-Foulkes estimate   =   -6604.42713334 Ry
     estimated scf accuracy    <          3.2E-09 Ry

     The total energy is the sum of the following terms:

     one-electron contribution =  -48108.29728700 Ry
     hartree contribution      =   24557.20602506 Ry
     xc contribution           =   -3204.94724765 Ry
     ewald contribution        =   20151.60848358 Ry
     smearing contrib. (-TS)   =       0.00289266 Ry

     convergence has been achieved in  24 iterations

     Writing output data file 7962841.save

     init_run     :    215.34s CPU    237.44s WALL (       1 calls)
     electrons    :  12197.45s CPU  14819.46s WALL (       1 calls)

     Called by init_run:
     wfcinit      :    174.97s CPU    195.87s WALL (       1 calls)
     potinit      :     10.75s CPU     11.38s WALL (       1 calls)

     Called by electrons:
     c_bands      :  10496.72s CPU  12968.07s WALL (      25 calls)
     sum_band     :   1355.43s CPU   1480.95s WALL (      25 calls)
     v_of_rho     :    101.90s CPU    122.36s WALL (      25 calls)
     newd         :    256.81s CPU    261.25s WALL (      25 calls)
     mix_rho      :      3.09s CPU      3.40s WALL (      25 calls)
     vdW_energy   :      8.89s CPU     18.95s WALL (      25 calls)
     vdW_ffts     :     49.98s CPU     55.65s WALL (      50 calls)
     vdW_v        :     13.36s CPU     14.20s WALL (      25 calls)

     Called by c_bands:
     init_us_2    :     32.90s CPU     33.49s WALL (     612 calls)
     cegterg      :  10202.50s CPU  12666.07s WALL (     300 calls)

     Called by *egterg:
     h_psi        :   4556.43s CPU   5109.31s WALL (    1731 calls)
     s_psi        :    458.32s CPU    510.46s WALL (    1731 calls)
     g_psi        :      6.13s CPU      6.22s WALL (    1419 calls)
     cdiaghg      :   2175.99s CPU   2182.83s WALL (    1707 calls)

     Called by h_psi:
     add_vuspsi   :    458.75s CPU    495.11s WALL (    1731 calls)

     General routines
     calbec       :   1279.45s CPU   1284.32s WALL (    2031 calls)
     fft          :    154.96s CPU    165.23s WALL (    1650 calls)
     ffts         :      1.49s CPU      1.77s WALL (      50 calls)
     fftw         :   2852.19s CPU   3363.37s WALL (  737962 calls)
     interpolate  :      3.94s CPU      4.75s WALL (      50 calls)
     davcio       :      0.00s CPU      0.44s WALL (      12 calls)

     Parallel routines
     fft_scatter  :   2168.51s CPU   2523.11s WALL (  739662 calls)

     PWSCF        :     3h26m CPU        4h11m WALL


   This run was terminated on:   8:54:10   1Jul2015            

=------------------------------------------------------------------------------=
   JOB DONE.
=------------------------------------------------------------------------------=
