Setting SGE environment for SCC

     Program PWSCF v.5.1.2 starts on 24Aug2015 at 11:11:55 

     This program is part of the open-source Quantum ESPRESSO suite
     for quantum simulation of materials; please cite
         "P. Giannozzi et al., J. Phys.:Condens. Matter 21 395502 (2009);
          URL http://www.quantum-espresso.org", 
     in publications or presentations arising from this work. More details at
     http://www.quantum-espresso.org/quote

     Parallel version (MPI), running on    32 processors
     R & G space division:  proc/nbgrp/npool/nimage =      32
     Reading input from bridge.O1.Au5455.d.2.7.phi.45.psi.0.in
Warning: card &IONS ignored
Warning: card / ignored
Warning: card &CELL ignored
Warning: card / ignored

     Current dimensions of program PWSCF are:
     Max number of different atomic species (ntypx) = 10
     Max number of k-points (npk) =  40000
     Max angular momentum in pseudopotentials (lmaxx) =  3

     IMPORTANT: XC functional enforced from input :
     Exchange-correlation      = VDW-DF ( 1  4  4  0 1 0)
     Any further DFT definition will be discarded
     Please, verify this is what you really want


     Subspace diagonalization in iterative solution of the eigenvalue problem:
     a serial algorithm will be used


     Parallelization info
     --------------------
     sticks:   dense  smooth     PW     G-vecs:    dense   smooth      PW
     Min         445     223     58                96775    34191    4534
     Max         446     224     59                96790    34246    4540
     Sum       14269    7147   1867              3097177  1095093  145167


     Title: 
     bridge.O1.Au5455.d.2.7.phi.45.psi.0                                        


     bravais-lattice index     =            4
     lattice parameter (alat)  =      22.7436  a.u.
     unit-cell volume          =   22924.1508 (a.u.)^3
     number of atoms/cell      =           67
     number of atomic types    =            3
     number of electrons       =       712.00
     number of Kohn-Sham states=          427
     kinetic-energy cutoff     =      50.0000  Ry
     charge density cutoff     =     400.0000  Ry
     convergence threshold     =      1.0E-08
     mixing beta               =       0.7000
     number of iterations used =            8  plain     mixing
     Exchange-correlation      = VDW-DF ( 1  4  4  0 1 0)

     celldm(1)=  22.743643  celldm(2)=   0.000000  celldm(3)=   2.250000
     celldm(4)=   0.000000  celldm(5)=   0.000000  celldm(6)=   0.000000

     crystal axes: (cart. coord. in units of alat)
               a(1) = (   1.000000   0.000000   0.000000 )  
               a(2) = (  -0.500000   0.866025   0.000000 )  
               a(3) = (   0.000000   0.000000   2.250000 )  

     reciprocal axes: (cart. coord. in units 2 pi/alat)
               b(1) = (  1.000000  0.577350 -0.000000 )  
               b(2) = (  0.000000  1.154701  0.000000 )  
               b(3) = (  0.000000 -0.000000  0.444444 )  


     PseudoPot. # 1 for Au read from file:
     /home/scc/andrejb/qe/pseudo/Au.pbe-nd-van.UPF
     MD5 check sum: 458681b50f36d87ef23c61b04bba420a
     Pseudo is Ultrasoft + core correction, Zval = 11.0
     Generated by new atomic code, or converted to UPF format
     Using radial grid of  985 points,  3 beta functions with: 
                l(1) =   1
                l(2) =   2
                l(3) =   2
     Q(r) pseudized with  8 coefficients,  rinner =    1.100   1.100   1.100
                                                       1.100   1.100

     PseudoPot. # 2 for H  read from file:
     /home/scc/andrejb/qe/pseudo/H.pbe-van_ak.UPF
     MD5 check sum: 403db7282739603aa925980fa9b8608d
     Pseudo is Ultrasoft, Zval =  1.0
     Generated by new atomic code, or converted to UPF format
     Using radial grid of  615 points,  1 beta functions with: 
                l(1) =   0
     Q(r) pseudized with  8 coefficients,  rinner =    0.800

     PseudoPot. # 3 for O  read from file:
     /home/scc/andrejb/qe/pseudo/O.pbe-van_ak.UPF
     MD5 check sum: 4b8c549914a63cae506c6ff22b5af4fe
     Pseudo is Ultrasoft, Zval =  6.0
     Generated by new atomic code, or converted to UPF format
     Using radial grid of  737 points,  4 beta functions with: 
                l(1) =   0
                l(2) =   0
                l(3) =   1
                l(4) =   1
     Q(r) pseudized with  8 coefficients,  rinner =    0.800   0.800   0.800


     vdW kernel table read from file vdW_kernel_table
     MD5 check sum: 48e77a2e26edf626eeb0eaa751ad5cac

     atomic species   valence    mass     pseudopotential
        Au            11.00   196.96657     Au( 1.00)
        H              1.00     1.01000     H ( 1.00)
        O              6.00    16.00000     O ( 1.00)

     No symmetry found



   Cartesian axes

     site n.     atom                  positions (alat units)
         1           O   tau(   1) = (   0.2915728   0.2885783   0.8373559  )
         2           H   tau(   2) = (   0.2856432   0.2238914   0.8856095  )
         3           H   tau(   3) = (   0.2973092   0.3513172   0.8881167  )
         4           Au  tau(   4) = (   0.3540481   0.6132292   0.0000000  )
         5           Au  tau(   5) = (   0.4790062   0.3967954   0.0000000  )
         6           Au  tau(   6) = (   0.6039644   0.1803616   0.0000000  )
         7           Au  tau(   7) = (   0.7289225  -0.0360723   0.0000000  )
         8           Au  tau(   8) = (   0.1041318   0.6132292   0.0000000  )
         9           Au  tau(   9) = (   0.2290899   0.3967954   0.0000000  )
        10           Au  tau(  10) = (   0.3540481   0.1803616   0.0000000  )
        11           Au  tau(  11) = (   0.4790062  -0.0360723   0.0000000  )
        12           Au  tau(  12) = (  -0.1457845   0.6132292   0.0000000  )
        13           Au  tau(  13) = (  -0.0208264   0.3967954   0.0000000  )
        14           Au  tau(  14) = (   0.1041318   0.1803616   0.0000000  )
        15           Au  tau(  15) = (   0.2290899  -0.0360723   0.0000000  )
        16           Au  tau(  16) = (  -0.3957008   0.6132292   0.0000000  )
        17           Au  tau(  17) = (  -0.2707426   0.3967954   0.0000000  )
        18           Au  tau(  18) = (  -0.1457845   0.1803616   0.0000000  )
        19           Au  tau(  19) = (  -0.0208264  -0.0360723   0.0000000  )
        20           Au  tau(  20) = (   0.4790062   0.6853738   0.2040557  )
        21           Au  tau(  21) = (   0.6039644   0.4689400   0.2040557  )
        22           Au  tau(  22) = (   0.7289225   0.2525061   0.2040557  )
        23           Au  tau(  23) = (   0.8538806   0.0360723   0.2040557  )
        24           Au  tau(  24) = (   0.2290899   0.6853738   0.2040557  )
        25           Au  tau(  25) = (   0.3540481   0.4689400   0.2040557  )
        26           Au  tau(  26) = (   0.4790062   0.2525061   0.2040557  )
        27           Au  tau(  27) = (   0.6039644   0.0360723   0.2040557  )
        28           Au  tau(  28) = (  -0.0208264   0.6853738   0.2040557  )
        29           Au  tau(  29) = (   0.1041318   0.4689400   0.2040557  )
        30           Au  tau(  30) = (   0.2290899   0.2525061   0.2040557  )
        31           Au  tau(  31) = (   0.3540481   0.0360723   0.2040557  )
        32           Au  tau(  32) = (  -0.2707426   0.6853738   0.2040557  )
        33           Au  tau(  33) = (  -0.1457845   0.4689400   0.2040557  )
        34           Au  tau(  34) = (  -0.0208264   0.2525061   0.2040557  )
        35           Au  tau(  35) = (   0.1041318   0.0360723   0.2040557  )
        36           Au  tau(  36) = (   0.3541162   0.7576593   0.4066483  )
        37           Au  tau(  37) = (   0.4791000   0.5411421   0.4066695  )
        38           Au  tau(  38) = (   0.6040570   0.3246862   0.4066617  )
        39           Au  tau(  39) = (   0.7290270   0.1081684   0.4066529  )
        40           Au  tau(  40) = (   0.1041162   0.7576236   0.4066247  )
        41           Au  tau(  41) = (   0.2291001   0.5411063   0.4066455  )
        42           Au  tau(  42) = (   0.3540567   0.3246505   0.4066380  )
        43           Au  tau(  43) = (   0.4790276   0.1081324   0.4066292  )
        44           Au  tau(  44) = (  -0.1458201   0.7576104   0.4066224  )
        45           Au  tau(  45) = (  -0.0208365   0.5410930   0.4066438  )
        46           Au  tau(  46) = (   0.1041202   0.3246372   0.4066359  )
        47           Au  tau(  47) = (   0.2290908   0.1081193   0.4066273  )
        48           Au  tau(  48) = (  -0.3958167   0.7575791   0.4065812  )
        49           Au  tau(  49) = (  -0.2708328   0.5410617   0.4066025  )
        50           Au  tau(  50) = (  -0.1458763   0.3246061   0.4065947  )
        51           Au  tau(  51) = (  -0.0209056   0.1080882   0.4065858  )
        52           Au  tau(  52) = (   0.3541085   0.6133344   0.6129762  )
        53           Au  tau(  53) = (   0.4790780   0.3968269   0.6129968  )
        54           Au  tau(  54) = (   0.6040356   0.1803811   0.6129859  )
        55           Au  tau(  55) = (   0.7290165  -0.0361221   0.6129385  )
        56           Au  tau(  56) = (   0.1041243   0.6133091   0.6130022  )
        57           Au  tau(  57) = (   0.2290941   0.3968013   0.6130241  )
        58           Au  tau(  58) = (   0.3540515   0.1803552   0.6130121  )
        59           Au  tau(  59) = (   0.4790323  -0.0361475   0.6129659  )
        60           Au  tau(  60) = (  -0.1458030   0.6133014   0.6129980  )
        61           Au  tau(  61) = (  -0.0208339   0.3967936   0.6130188  )
        62           Au  tau(  62) = (   0.1041239   0.1803477   0.6130083  )
        63           Au  tau(  63) = (   0.2291046  -0.0361554   0.6129607  )
        64           Au  tau(  64) = (  -0.3957908   0.6132739   0.6129471  )
        65           Au  tau(  65) = (  -0.2708208   0.3967658   0.6129688  )
        66           Au  tau(  66) = (  -0.1458636   0.1803200   0.6129569  )
        67           Au  tau(  67) = (  -0.0208823  -0.0361826   0.6129110  )

     number of k points=    12  Marzari-Vanderbilt smearing, width (Ry)=  0.0200
                       cart. coord. in units 2pi/alat
        k(    1) = (   0.2500000   0.4330127   0.1111111), wk =   0.1666667
        k(    2) = (   0.2500000  -0.1443376   0.1111111), wk =   0.1666667
        k(    3) = (  -0.2500000  -0.4330127   0.1111111), wk =   0.1666667
        k(    4) = (  -0.2500000   0.4330127  -0.1111111), wk =   0.1666667
        k(    5) = (   0.2500000  -0.4330127  -0.1111111), wk =   0.1666667
        k(    6) = (   0.5000000   0.0000000   0.1111111), wk =   0.1666667
        k(    7) = (  -0.5000000   0.0000000   0.1111111), wk =   0.1666667
        k(    8) = (  -0.2500000   0.1443376   0.1111111), wk =   0.1666667
        k(    9) = (  -0.2500000  -0.1443376  -0.1111111), wk =   0.1666667
        k(   10) = (   0.2500000   0.1443376  -0.1111111), wk =   0.1666667
        k(   11) = (   0.0000000  -0.2886751   0.1111111), wk =   0.1666667
        k(   12) = (   0.0000000   0.2886751   0.1111111), wk =   0.1666667

     Dense  grid:  3097177 G-vectors     FFT dimensions: ( 150, 150, 360)

     Smooth grid:  1095093 G-vectors     FFT dimensions: ( 108, 108, 240)

     Largest allocated arrays     est. size (Mb)     dimensions
        Kohn-Sham Wavefunctions        28.01 Mb     (    4299,  427)
        NL pseudopotentials            55.23 Mb     (    4299,  842)
        Each V/rho on FFT grid          4.12 Mb     (  270000)
        Each G-vector array             0.74 Mb     (   96788)
        G-vector shells                 0.16 Mb     (   21404)
     Largest temporary arrays     est. size (Mb)     dimensions
        Auxiliary wavefunctions       112.04 Mb     (    4299, 1708)
        Each subspace H/S matrix       44.51 Mb     (    1708, 1708)
        Each <psi_i|beta_j> matrix      5.49 Mb     (     842,  427)
        Arrays for rho mixing          32.96 Mb     (  270000,    8)

     Initial potential from superposition of free atoms
     Check: negative starting charge=   -1.730222

     starting charge  711.25682, renormalised to  712.00000

     negative rho (up, down):  1.732E+00 0.000E+00


     ************************************************************************
     *
     * You are using vdW-DF for exchange-correlation in this calculation.
     * Please cite the following three references that made this development
     * possible:
     *
     *   M. Dion, H. Rydberg, E. Schroder, D. C. Langreth, and
     *   B. I. Lundqvist, Phys. Rev. Lett. 92, 246401 (2004).
     *
     *   T. Thonhauser, V. R. Cooper, S. Li, A. Puzder, P. Hyldgaard, and
     *   D. C. Langreth, Phys. Rev. B 76, 125112 (2007).
     *
     *   G. Roman-Perez and J. M. Soler, Phys. Rev. Lett. 103, 096102 (2009).
     *
     *
     * If you are using vdW-DF2, please also cite:
     *
     *   K. Lee, E. D. Murray, L. Kong, B. I. Lundqvist, and
     *   D. C. Langreth, Phys. Rev. B 82, 081101(R) (2010).
     *
     *
     * If you are calculating the stress with vdW-DF, please also cite:
     *
     *   R. Sabatini, E. Kucukbenli, B. Kolb, T. Thonhauser, and
     *   S. de Gironcoli, J. Phys.: Condens. Matter 24, 424209 (2012).
     *
     ************************************************************************

     Carrying out vdW-DF run using the following parameters:

     Nqs =      20    Nr_points =    1024   r_max =   100.000
     q_mesh =
               0.00001000     0.04494208     0.09755937     0.15916263
               0.23128650     0.31572767     0.41458969     0.53033537
               0.66584808     0.82450364     1.01025438     1.22772762
               1.48234092     1.78043706     2.12944203     2.53805004
               3.01644009     3.57652955     4.23227104     5.00000000

     Gradients computed in reciprocal space

     ************************************************************************


     Starting wfc are  582 randomized atomic wfcs

     total cpu time spent up to now is      167.2 secs

     Self-consistent Calculation

     iteration #  1     ecut=    50.00 Ry     beta=0.70
     Davidson diagonalization with overlap
     ethr =  1.00E-02,  avg # of iterations =  3.0

     Threshold (ethr) on eigenvalues was too large:
     Diagonalizing with lowered threshold

     Davidson diagonalization with overlap
     ethr =  3.57E-04,  avg # of iterations =  5.0

     negative rho (up, down):  1.728E+00 0.000E+00

     total cpu time spent up to now is      823.3 secs

     total energy              =   -6602.75006486 Ry
     Harris-Foulkes estimate   =   -6605.05084849 Ry
     estimated scf accuracy    <       2.87747927 Ry

     iteration #  2     ecut=    50.00 Ry     beta=0.70
     Davidson diagonalization with overlap
     ethr =  4.04E-04,  avg # of iterations = 11.3

     negative rho (up, down):  1.725E+00 0.000E+00

     total cpu time spent up to now is     1816.2 secs

     total energy              =   -6595.97458317 Ry
     Harris-Foulkes estimate   =   -6610.34726048 Ry
     estimated scf accuracy    <      82.72185723 Ry

     iteration #  3     ecut=    50.00 Ry     beta=0.70
     Davidson diagonalization with overlap
     ethr =  4.04E-04,  avg # of iterations =  6.0

     negative rho (up, down):  1.734E+00 0.000E+00

     total cpu time spent up to now is     2451.7 secs

     total energy              =   -6603.00413343 Ry
     Harris-Foulkes estimate   =   -6605.02710099 Ry
     estimated scf accuracy    <       9.71997132 Ry

     iteration #  4     ecut=    50.00 Ry     beta=0.70
     Davidson diagonalization with overlap
     ethr =  4.04E-04,  avg # of iterations =  6.4

     negative rho (up, down):  1.736E+00 0.000E+00

     total cpu time spent up to now is     2867.7 secs

     total energy              =   -6603.20492896 Ry
     Harris-Foulkes estimate   =   -6605.43133567 Ry
     estimated scf accuracy    <      23.24985254 Ry

     iteration #  5     ecut=    50.00 Ry     beta=0.70
     Davidson diagonalization with overlap
     ethr =  4.04E-04,  avg # of iterations =  6.0

     negative rho (up, down):  1.746E+00 0.000E+00

     total cpu time spent up to now is     3260.3 secs

     total energy              =   -6604.33754448 Ry
     Harris-Foulkes estimate   =   -6604.60234414 Ry
     estimated scf accuracy    <       1.57614810 Ry

     iteration #  6     ecut=    50.00 Ry     beta=0.70
     Davidson diagonalization with overlap
     ethr =  2.21E-04,  avg # of iterations =  3.0

     negative rho (up, down):  1.750E+00 0.000E+00

     total cpu time spent up to now is     3564.7 secs

     total energy              =   -6604.41172706 Ry
     Harris-Foulkes estimate   =   -6604.47245463 Ry
     estimated scf accuracy    <       0.19032219 Ry

     iteration #  7     ecut=    50.00 Ry     beta=0.70
     Davidson diagonalization with overlap
     ethr =  2.67E-05,  avg # of iterations = 11.2

     negative rho (up, down):  1.753E+00 0.000E+00

     total cpu time spent up to now is     4054.8 secs

     total energy              =   -6604.42597346 Ry
     Harris-Foulkes estimate   =   -6604.45339057 Ry
     estimated scf accuracy    <       0.11346531 Ry

     iteration #  8     ecut=    50.00 Ry     beta=0.70
     Davidson diagonalization with overlap
     c_bands:  4 eigenvalues not converged
     c_bands:  4 eigenvalues not converged
     ethr =  1.59E-05,  avg # of iterations = 11.4

     negative rho (up, down):  1.754E+00 0.000E+00

     total cpu time spent up to now is     4499.2 secs

     total energy              =   -6604.42857807 Ry
     Harris-Foulkes estimate   =   -6604.44329273 Ry
     estimated scf accuracy    <       0.05207494 Ry

     iteration #  9     ecut=    50.00 Ry     beta=0.70
     Davidson diagonalization with overlap
     ethr =  7.31E-06,  avg # of iterations =  9.3

     negative rho (up, down):  1.755E+00 0.000E+00

     total cpu time spent up to now is     4932.6 secs

     total energy              =   -6604.43034952 Ry
     Harris-Foulkes estimate   =   -6604.43644493 Ry
     estimated scf accuracy    <       0.01863812 Ry

     iteration # 10     ecut=    50.00 Ry     beta=0.70
     Davidson diagonalization with overlap
     ethr =  2.62E-06,  avg # of iterations =  8.0

     negative rho (up, down):  1.756E+00 0.000E+00

     total cpu time spent up to now is     5353.0 secs

     total energy              =   -6604.43141295 Ry
     Harris-Foulkes estimate   =   -6604.43336212 Ry
     estimated scf accuracy    <       0.00705535 Ry

     iteration # 11     ecut=    50.00 Ry     beta=0.70
     Davidson diagonalization with overlap
     ethr =  9.91E-07,  avg # of iterations =  7.0

     negative rho (up, down):  1.757E+00 0.000E+00

     total cpu time spent up to now is     5727.3 secs

     total energy              =   -6604.43171864 Ry
     Harris-Foulkes estimate   =   -6604.43252216 Ry
     estimated scf accuracy    <       0.00369145 Ry

     iteration # 12     ecut=    50.00 Ry     beta=0.70
     Davidson diagonalization with overlap
     ethr =  5.18E-07,  avg # of iterations =  4.4

     negative rho (up, down):  1.758E+00 0.000E+00

     total cpu time spent up to now is     6042.6 secs

     total energy              =   -6604.43167297 Ry
     Harris-Foulkes estimate   =   -6604.43209070 Ry
     estimated scf accuracy    <       0.00080422 Ry

     iteration # 13     ecut=    50.00 Ry     beta=0.70
     Davidson diagonalization with overlap
     ethr =  1.13E-07,  avg # of iterations =  9.8

     negative rho (up, down):  1.758E+00 0.000E+00

     total cpu time spent up to now is     6510.8 secs

     total energy              =   -6604.43177859 Ry
     Harris-Foulkes estimate   =   -6604.43189794 Ry
     estimated scf accuracy    <       0.00037571 Ry

     iteration # 14     ecut=    50.00 Ry     beta=0.70
     Davidson diagonalization with overlap
     ethr =  5.28E-08,  avg # of iterations =  2.0

     negative rho (up, down):  1.757E+00 0.000E+00

     total cpu time spent up to now is     6808.9 secs

     total energy              =   -6604.43183007 Ry
     Harris-Foulkes estimate   =   -6604.43185890 Ry
     estimated scf accuracy    <       0.00010148 Ry

     iteration # 15     ecut=    50.00 Ry     beta=0.70
     Davidson diagonalization with overlap
     ethr =  1.43E-08,  avg # of iterations =  2.0

     negative rho (up, down):  1.757E+00 0.000E+00

     total cpu time spent up to now is     7101.9 secs

     total energy              =   -6604.43183972 Ry
     Harris-Foulkes estimate   =   -6604.43185899 Ry
     estimated scf accuracy    <       0.00011401 Ry

     iteration # 16     ecut=    50.00 Ry     beta=0.70
     Davidson diagonalization with overlap
     ethr =  1.43E-08,  avg # of iterations =  2.0

     negative rho (up, down):  1.757E+00 0.000E+00

     total cpu time spent up to now is     7385.2 secs

     total energy              =   -6604.43184613 Ry
     Harris-Foulkes estimate   =   -6604.43185210 Ry
     estimated scf accuracy    <       0.00002637 Ry

     iteration # 17     ecut=    50.00 Ry     beta=0.70
     Davidson diagonalization with overlap
     ethr =  3.70E-09,  avg # of iterations =  2.0

     negative rho (up, down):  1.757E+00 0.000E+00

     total cpu time spent up to now is     7673.7 secs

     total energy              =   -6604.43184735 Ry
     Harris-Foulkes estimate   =   -6604.43185250 Ry
     estimated scf accuracy    <       0.00003786 Ry

     iteration # 18     ecut=    50.00 Ry     beta=0.70
     Davidson diagonalization with overlap
     ethr =  3.70E-09,  avg # of iterations =  2.0

     negative rho (up, down):  1.757E+00 0.000E+00

     total cpu time spent up to now is     7969.6 secs

     total energy              =   -6604.43184959 Ry
     Harris-Foulkes estimate   =   -6604.43185076 Ry
     estimated scf accuracy    <       0.00000555 Ry

     iteration # 19     ecut=    50.00 Ry     beta=0.70
     Davidson diagonalization with overlap
     ethr =  7.79E-10,  avg # of iterations =  2.0

     negative rho (up, down):  1.757E+00 0.000E+00

     total cpu time spent up to now is     8259.9 secs

     total energy              =   -6604.43185024 Ry
     Harris-Foulkes estimate   =   -6604.43185044 Ry
     estimated scf accuracy    <       0.00000105 Ry

     iteration # 20     ecut=    50.00 Ry     beta=0.70
     Davidson diagonalization with overlap
     ethr =  1.47E-10,  avg # of iterations =  2.0

     negative rho (up, down):  1.757E+00 0.000E+00

     total cpu time spent up to now is     8535.1 secs

     total energy              =   -6604.43185046 Ry
     Harris-Foulkes estimate   =   -6604.43185045 Ry
     estimated scf accuracy    <       0.00000032 Ry

     iteration # 21     ecut=    50.00 Ry     beta=0.70
     Davidson diagonalization with overlap
     ethr =  4.44E-11,  avg # of iterations =  2.0

     negative rho (up, down):  1.757E+00 0.000E+00

     total cpu time spent up to now is     8818.2 secs

     total energy              =   -6604.43185054 Ry
     Harris-Foulkes estimate   =   -6604.43185053 Ry
     estimated scf accuracy    <       0.00000015 Ry

     iteration # 22     ecut=    50.00 Ry     beta=0.70
     Davidson diagonalization with overlap
     ethr =  2.12E-11,  avg # of iterations =  2.0

     negative rho (up, down):  1.757E+00 0.000E+00

     total cpu time spent up to now is     9101.8 secs

     total energy              =   -6604.43185055 Ry
     Harris-Foulkes estimate   =   -6604.43185057 Ry
     estimated scf accuracy    <       0.00000002 Ry

     iteration # 23     ecut=    50.00 Ry     beta=0.70
     Davidson diagonalization with overlap
     ethr =  2.52E-12,  avg # of iterations =  3.0

     negative rho (up, down):  1.757E+00 0.000E+00

     total cpu time spent up to now is     9441.4 secs

     total energy              =   -6604.43185056 Ry
     Harris-Foulkes estimate   =   -6604.43185055 Ry
     estimated scf accuracy    <       0.00000002 Ry

     iteration # 24     ecut=    50.00 Ry     beta=0.70
     Davidson diagonalization with overlap
     ethr =  2.52E-12,  avg # of iterations =  2.0

     negative rho (up, down):  1.757E+00 0.000E+00

     total cpu time spent up to now is     9731.7 secs

     End of self-consistent calculation

          k = 0.2500 0.4330 0.1111 (136853 PWs)   bands (ev):

   -19.3504  -7.1561  -6.1931  -5.7942  -5.7931  -5.1191  -4.7827  -4.7816
    -4.7499  -4.7434  -4.3821  -4.3815  -4.2837  -4.2828  -4.2692  -4.2474
    -4.2345  -4.1156  -4.1153  -4.0912  -4.0480  -4.0475  -3.9898  -3.9786
    -3.9770  -3.9723  -3.9525  -3.9487  -3.9446  -3.9034  -3.8735  -3.8427
    -3.8419  -3.8307  -3.8299  -3.8076  -3.8066  -3.7843  -3.7772  -3.7756
    -3.7548  -3.7022  -3.6967  -3.6683  -3.6487  -3.6448  -3.5902  -3.5805
    -3.5349  -3.5345  -3.5344  -3.5193  -3.4984  -3.4609  -3.4550  -3.4532
    -3.4516  -3.4453  -3.4220  -3.4217  -3.4124  -3.3515  -3.3471  -3.3422
    -3.3229  -3.3174  -3.2455  -3.2389  -3.2126  -3.2119  -3.1839  -3.1824
    -3.1697  -3.1521  -3.0940  -3.0915  -3.0759  -3.0755  -3.0235  -3.0199
    -3.0153  -2.9804  -2.9500  -2.9477  -2.9404  -2.9385  -2.9276  -2.9261
    -2.9201  -2.9169  -2.9086  -2.8683  -2.8305  -2.8300  -2.8160  -2.8157
    -2.7896  -2.7806  -2.7794  -2.7584  -2.7134  -2.7112  -2.7031  -2.6652
    -2.6585  -2.6470  -2.6459  -2.6187  -2.6148  -2.5873  -2.5516  -2.5489
    -2.5288  -2.5207  -2.5077  -2.5057  -2.4572  -2.4555  -2.4236  -2.4012
    -2.4005  -2.3770  -2.3751  -2.3657  -2.3641  -2.3544  -2.3326  -2.3307
    -2.2870  -2.2864  -2.2854  -2.2689  -2.2688  -2.2626  -2.2544  -2.2526
    -2.2519  -2.2505  -2.2443  -2.2329  -2.2325  -2.2243  -2.1966  -2.1957
    -2.1946  -2.1942  -2.1922  -2.1904  -2.1856  -2.1613  -2.1592  -2.1455
    -2.1424  -2.1266  -2.1260  -2.1171  -2.1167  -2.1159  -2.1132  -2.0960
    -2.0953  -2.0945  -2.0892  -2.0751  -2.0500  -2.0489  -2.0087  -2.0082
    -1.9840  -1.9837  -1.9584  -1.9560  -1.9292  -1.9264  -1.9109  -1.9062
    -1.8798  -1.8599  -1.8589  -1.8543  -1.8511  -1.8470  -1.8407  -1.8386
    -1.8128  -1.8078  -1.7982  -1.7434  -1.7390  -1.7364  -1.7346  -1.7276
    -1.7017  -1.6772  -1.6769  -1.6507  -1.6485  -1.5897  -1.5892  -1.5596
    -1.5524  -1.5401  -1.4907  -1.4795  -1.4739  -1.4678  -1.4598  -1.4568
    -1.4541  -1.4499  -1.4439  -1.4315  -1.3858  -1.3828  -1.3752  -1.3735
    -1.3616  -1.3566  -1.3464  -1.3193  -1.3104  -1.3030  -1.3025  -1.2999
    -1.2952  -1.2890  -1.2803  -1.2723  -1.2609  -1.2580  -1.2192  -1.2149
    -1.2086  -1.2004  -1.1858  -1.1730  -1.1301  -1.1257  -1.1041  -1.0986
    -1.0957  -1.0696  -1.0192  -1.0176  -1.0171  -1.0139  -1.0096  -1.0068
    -0.9960  -0.9826  -0.9804  -0.9418  -0.9402  -0.9113  -0.9104  -0.9047
    -0.9036  -0.8977  -0.8812  -0.8811  -0.8802  -0.8772  -0.8755  -0.8398
    -0.8374  -0.8366  -0.8323  -0.8064  -0.8032  -0.8010  -0.7765  -0.7687
    -0.7666  -0.7230  -0.7171  -0.7119  -0.6814  -0.6724  -0.6621  -0.6616
    -0.6551  -0.6539  -0.6521  -0.6491  -0.6389  -0.6370  -0.6142  -0.6135
    -0.6100  -0.6086  -0.6075  -0.5711  -0.5707  -0.5594  -0.5568  -0.5429
    -0.5376  -0.5317  -0.5247  -0.4693  -0.4680  -0.4590  -0.4586  -0.4564
    -0.4554  -0.4492  -0.4325  -0.4310  -0.4235  -0.4230  -0.4196  -0.4182
    -0.3815  -0.3795  -0.3784  -0.3709  -0.3699  -0.3650  -0.3633  -0.3482
    -0.3470  -0.3436  -0.3401  -0.3016  -0.3010  -0.2932  -0.2893  -0.2881
    -0.2120  -0.2115  -0.2090  -0.2083  -0.1993  -0.1979  -0.1627  -0.1504
    -0.1500  -0.1228  -0.1179  -0.1089   0.0025   0.0072   0.1065   0.5216
     0.5221   0.5247   0.5252   0.5864   0.5927   0.9740   0.9759   1.0167
     1.0190   1.1278   1.2081   1.3131   1.3263   1.5323   1.5546   2.1724
     2.1739   2.3308   2.3389   2.4650   2.4718   2.5707   2.5711   2.7249
     2.9559   2.9651   3.0861   3.3051   3.3166   3.3932   3.3954   3.4943
     3.5101   3.6907   3.6959   3.7661   3.9669   3.9675   4.0288   4.0311
     4.2858   4.2897   4.2991   4.5358   4.5769   4.5802   4.6238   4.9574
     4.9606   4.9878   5.0511   5.1233   5.2973   5.2985   5.3434   5.3905
     5.7054   5.9290   6.0691   6.0821   6.0881   6.1015   6.1569   6.1599
     6.2125   6.2689   6.2916   6.3144   6.3168   6.3275   6.3305   6.3731
     6.3805   6.4121   6.5006   6.5860   6.7034   6.7601   6.9159   6.9846
     7.0211   7.0322   7.0392

          k = 0.2500-0.1443 0.1111 (136898 PWs)   bands (ev):

   -19.3504  -7.1561  -6.4030  -5.6110  -5.3227  -5.2609  -5.2603  -4.7224
    -4.7218  -4.5944  -4.5897  -4.4391  -4.4109  -4.3422  -4.3168  -4.3094
    -4.2755  -4.2751  -4.1466  -4.1050  -4.1046  -4.0458  -4.0303  -4.0241
    -3.9218  -3.9212  -3.8880  -3.8849  -3.8847  -3.8653  -3.8380  -3.8362
    -3.7826  -3.7294  -3.7291  -3.7118  -3.7027  -3.6915  -3.6901  -3.6797
    -3.6670  -3.6594  -3.6360  -3.6354  -3.6352  -3.6236  -3.6034  -3.5965
    -3.5849  -3.5832  -3.5715  -3.5288  -3.5202  -3.4955  -3.4829  -3.4765
    -3.4763  -3.4546  -3.4019  -3.4010  -3.3675  -3.3649  -3.3492  -3.2963
    -3.2957  -3.2811  -3.2794  -3.2507  -3.2499  -3.2492  -3.2459  -3.0956
    -3.0948  -3.0711  -3.0694  -3.0617  -3.0488  -3.0459  -3.0231  -3.0213
    -2.9728  -2.9715  -2.9566  -2.9552  -2.9354  -2.8885  -2.8869  -2.8676
    -2.8632  -2.8618  -2.8223  -2.8210  -2.8150  -2.8124  -2.7992  -2.7962
    -2.7593  -2.7591  -2.7376  -2.7366  -2.7341  -2.7328  -2.7289  -2.6543
    -2.6522  -2.6505  -2.6231  -2.6221  -2.5624  -2.5600  -2.5328  -2.5305
    -2.5189  -2.5186  -2.5119  -2.4836  -2.4827  -2.4731  -2.4559  -2.4317
    -2.4311  -2.4267  -2.4099  -2.4081  -2.3987  -2.3970  -2.3959  -2.3917
    -2.3855  -2.3395  -2.3083  -2.3073  -2.2919  -2.2783  -2.2721  -2.2713
    -2.2644  -2.2635  -2.2618  -2.2333  -2.2328  -2.2306  -2.2225  -2.2222
    -2.2054  -2.1783  -2.1774  -2.1770  -2.1766  -2.1748  -2.1299  -2.1000
    -2.0990  -2.0973  -2.0922  -2.0823  -2.0715  -2.0693  -2.0529  -2.0527
    -2.0207  -2.0184  -2.0176  -2.0002  -1.9997  -1.9985  -1.9664  -1.9635
    -1.9249  -1.9219  -1.9167  -1.9141  -1.9139  -1.9093  -1.9073  -1.9059
    -1.9042  -1.9002  -1.8955  -1.8819  -1.8785  -1.7605  -1.7543  -1.7241
    -1.7187  -1.7141  -1.7088  -1.7074  -1.6969  -1.6918  -1.6906  -1.6891
    -1.6840  -1.6633  -1.6627  -1.6571  -1.6469  -1.6435  -1.6402  -1.6222
    -1.6178  -1.5954  -1.5902  -1.5621  -1.5567  -1.5489  -1.5393  -1.5235
    -1.5219  -1.5195  -1.5019  -1.4933  -1.4879  -1.4850  -1.4808  -1.4647
    -1.4548  -1.4495  -1.4370  -1.4185  -1.4038  -1.3936  -1.3877  -1.3447
    -1.3424  -1.3327  -1.3266  -1.3090  -1.3050  -1.3015  -1.2704  -1.2683
    -1.2638  -1.2329  -1.2249  -1.2196  -1.2091  -1.2078  -1.1830  -1.1810
    -1.1696  -1.1507  -1.1484  -1.1448  -1.0856  -1.0849  -1.0736  -1.0709
    -1.0564  -1.0554  -1.0440  -1.0418  -1.0249  -1.0124  -0.9846  -0.9840
    -0.9710  -0.9424  -0.9353  -0.9310  -0.9224  -0.9222  -0.9201  -0.9169
    -0.9072  -0.9009  -0.8720  -0.8711  -0.8622  -0.8600  -0.8588  -0.8457
    -0.8346  -0.8181  -0.8078  -0.7960  -0.7858  -0.7012  -0.6885  -0.6830
    -0.6826  -0.6780  -0.6728  -0.6709  -0.6482  -0.6437  -0.6336  -0.6301
    -0.6179  -0.6150  -0.6085  -0.5892  -0.5865  -0.5802  -0.5777  -0.5050
    -0.5043  -0.4730  -0.4671  -0.4660  -0.4613  -0.4581  -0.4573  -0.4544
    -0.4461  -0.4437  -0.4241  -0.4027  -0.3874  -0.3699  -0.3680  -0.3584
    -0.3564  -0.3455  -0.3448  -0.3443  -0.3423  -0.3397  -0.3248  -0.3203
    -0.3192  -0.2898  -0.2881  -0.2874  -0.2755  -0.2746  -0.2558  -0.2242
    -0.2235  -0.2150  -0.2130  -0.1472  -0.1456  -0.1097  -0.1096  -0.0516
    -0.0508  -0.0504  -0.0332  -0.0227   0.1976   0.2151   0.5500   0.5502
     0.6357   0.6518   0.8323   0.8595   0.8718   0.9962   1.0027   1.4303
     1.4307   1.4491   1.7074   1.7404   1.7412   2.0088   2.0269   2.0950
     2.0975   2.1181   2.1357   2.3522   2.3538   2.4411   2.4422   2.5061
     2.5723   2.5955   2.7467   2.8445   3.2805   3.2825   3.2837   3.2942
     3.3403   3.3456   3.6340   3.6353   3.9088   3.9216   4.0048   4.3306
     4.3677   4.3765   4.5649   4.5721   4.6708   4.6757   4.7645   4.8807
     4.8844   4.9983   5.0011   5.0534   5.3037   5.3684   5.3736   5.5054
     5.5455   5.7571   5.7603   5.7747   5.7875   5.7902   5.8448   5.8495
     5.9049   6.0173   6.2022   6.2657   6.4491   6.4591   6.5896   6.5922
     6.6004   6.6048   6.6252   6.7439   6.8172   6.8432   6.8537   6.9849
     7.0245   7.0490   7.0777

          k =-0.2500-0.4330 0.1111 (136853 PWs)   bands (ev):

   -19.3504  -7.1561  -6.1931  -5.7942  -5.7931  -5.1191  -4.7827  -4.7816
    -4.7499  -4.7434  -4.3821  -4.3815  -4.2837  -4.2828  -4.2692  -4.2474
    -4.2345  -4.1156  -4.1153  -4.0912  -4.0480  -4.0475  -3.9898  -3.9785
    -3.9770  -3.9723  -3.9525  -3.9487  -3.9446  -3.9034  -3.8735  -3.8427
    -3.8419  -3.8307  -3.8299  -3.8076  -3.8066  -3.7843  -3.7772  -3.7756
    -3.7548  -3.7022  -3.6967  -3.6683  -3.6487  -3.6448  -3.5902  -3.5805
    -3.5349  -3.5345  -3.5344  -3.5193  -3.4984  -3.4609  -3.4550  -3.4532
    -3.4516  -3.4453  -3.4220  -3.4217  -3.4124  -3.3515  -3.3471  -3.3422
    -3.3229  -3.3174  -3.2455  -3.2389  -3.2126  -3.2119  -3.1839  -3.1824
    -3.1697  -3.1521  -3.0940  -3.0915  -3.0759  -3.0755  -3.0235  -3.0199
    -3.0153  -2.9804  -2.9500  -2.9477  -2.9404  -2.9385  -2.9276  -2.9261
    -2.9201  -2.9169  -2.9086  -2.8683  -2.8305  -2.8300  -2.8160  -2.8157
    -2.7896  -2.7806  -2.7794  -2.7584  -2.7134  -2.7112  -2.7031  -2.6652
    -2.6585  -2.6470  -2.6459  -2.6187  -2.6148  -2.5873  -2.5516  -2.5489
    -2.5288  -2.5207  -2.5077  -2.5057  -2.4572  -2.4555  -2.4236  -2.4012
    -2.4005  -2.3770  -2.3751  -2.3657  -2.3641  -2.3544  -2.3326  -2.3307
    -2.2870  -2.2864  -2.2854  -2.2689  -2.2688  -2.2626  -2.2544  -2.2526
    -2.2519  -2.2505  -2.2443  -2.2329  -2.2325  -2.2243  -2.1966  -2.1957
    -2.1946  -2.1942  -2.1922  -2.1904  -2.1856  -2.1613  -2.1592  -2.1455
    -2.1424  -2.1266  -2.1260  -2.1171  -2.1167  -2.1159  -2.1132  -2.0960
    -2.0953  -2.0945  -2.0892  -2.0751  -2.0500  -2.0489  -2.0087  -2.0082
    -1.9840  -1.9837  -1.9584  -1.9560  -1.9292  -1.9264  -1.9109  -1.9062
    -1.8798  -1.8599  -1.8589  -1.8543  -1.8511  -1.8470  -1.8407  -1.8386
    -1.8128  -1.8078  -1.7982  -1.7434  -1.7390  -1.7364  -1.7346  -1.7276
    -1.7017  -1.6772  -1.6769  -1.6507  -1.6485  -1.5897  -1.5892  -1.5596
    -1.5524  -1.5401  -1.4907  -1.4795  -1.4739  -1.4678  -1.4598  -1.4568
    -1.4541  -1.4499  -1.4439  -1.4315  -1.3858  -1.3828  -1.3752  -1.3735
    -1.3616  -1.3566  -1.3464  -1.3193  -1.3104  -1.3030  -1.3025  -1.2999
    -1.2952  -1.2890  -1.2803  -1.2723  -1.2609  -1.2580  -1.2192  -1.2149
    -1.2086  -1.2004  -1.1858  -1.1730  -1.1301  -1.1257  -1.1041  -1.0986
    -1.0957  -1.0696  -1.0192  -1.0176  -1.0171  -1.0139  -1.0096  -1.0068
    -0.9960  -0.9826  -0.9804  -0.9418  -0.9403  -0.9113  -0.9104  -0.9047
    -0.9036  -0.8977  -0.8812  -0.8811  -0.8802  -0.8772  -0.8755  -0.8398
    -0.8374  -0.8366  -0.8323  -0.8064  -0.8032  -0.8010  -0.7765  -0.7687
    -0.7666  -0.7230  -0.7171  -0.7119  -0.6814  -0.6724  -0.6621  -0.6616
    -0.6551  -0.6539  -0.6521  -0.6491  -0.6389  -0.6370  -0.6142  -0.6135
    -0.6100  -0.6086  -0.6075  -0.5711  -0.5707  -0.5594  -0.5568  -0.5429
    -0.5376  -0.5317  -0.5247  -0.4693  -0.4680  -0.4590  -0.4586  -0.4564
    -0.4554  -0.4492  -0.4325  -0.4310  -0.4235  -0.4230  -0.4196  -0.4182
    -0.3815  -0.3795  -0.3784  -0.3709  -0.3699  -0.3650  -0.3633  -0.3482
    -0.3470  -0.3436  -0.3401  -0.3016  -0.3010  -0.2932  -0.2893  -0.2881
    -0.2120  -0.2115  -0.2090  -0.2083  -0.1993  -0.1979  -0.1627  -0.1504
    -0.1500  -0.1228  -0.1179  -0.1089   0.0025   0.0072   0.1065   0.5216
     0.5221   0.5247   0.5252   0.5864   0.5927   0.9740   0.9759   1.0167
     1.0190   1.1278   1.2081   1.3131   1.3263   1.5323   1.5546   2.1724
     2.1739   2.3308   2.3389   2.4650   2.4718   2.5707   2.5711   2.7249
     2.9559   2.9651   3.0861   3.3051   3.3166   3.3932   3.3954   3.4943
     3.5101   3.6907   3.6959   3.7661   3.9669   3.9675   4.0288   4.0311
     4.2858   4.2897   4.2991   4.5358   4.5769   4.5802   4.6238   4.9574
     4.9606   4.9878   5.0511   5.1233   5.2973   5.2985   5.3434   5.3905
     5.7053   5.9291   6.0696   6.0822   6.0881   6.1013   6.1569   6.1596
     6.2125   6.2688   6.2917   6.3144   6.3168   6.3275   6.3304   6.3737
     6.3805   6.4120   6.5002   6.5839   6.7044   6.7605   6.9179   6.9857
     7.0208   7.0324   7.0391

          k =-0.2500 0.4330-0.1111 (136853 PWs)   bands (ev):

   -19.3504  -7.1561  -6.1931  -5.7955  -5.7919  -5.1190  -4.7827  -4.7821
    -4.7509  -4.7424  -4.3822  -4.3808  -4.2832  -4.2828  -4.2687  -4.2475
    -4.2347  -4.1173  -4.1149  -4.0918  -4.0481  -4.0473  -3.9908  -3.9787
    -3.9784  -3.9731  -3.9511  -3.9494  -3.9436  -3.9025  -3.8728  -3.8433
    -3.8412  -3.8307  -3.8295  -3.8077  -3.8066  -3.7843  -3.7773  -3.7759
    -3.7510  -3.6975  -3.6971  -3.6623  -3.6490  -3.6460  -3.5904  -3.5901
    -3.5350  -3.5345  -3.5344  -3.5293  -3.4988  -3.4611  -3.4606  -3.4532
    -3.4519  -3.4485  -3.4226  -3.4154  -3.4070  -3.3514  -3.3510  -3.3352
    -3.3238  -3.3170  -3.2459  -3.2380  -3.2129  -3.2049  -3.1834  -3.1823
    -3.1696  -3.1526  -3.0944  -3.0937  -3.0763  -3.0743  -3.0250  -3.0200
    -3.0151  -2.9802  -2.9508  -2.9484  -2.9406  -2.9381  -2.9276  -2.9250
    -2.9200  -2.9153  -2.9085  -2.8680  -2.8311  -2.8295  -2.8163  -2.8147
    -2.7895  -2.7813  -2.7776  -2.7585  -2.7127  -2.7115  -2.7052  -2.6652
    -2.6584  -2.6472  -2.6458  -2.6190  -2.6165  -2.5873  -2.5512  -2.5484
    -2.5292  -2.5208  -2.5079  -2.5042  -2.4572  -2.4550  -2.4232  -2.4013
    -2.3995  -2.3780  -2.3771  -2.3649  -2.3643  -2.3544  -2.3329  -2.3313
    -2.2871  -2.2859  -2.2856  -2.2698  -2.2679  -2.2626  -2.2539  -2.2529
    -2.2522  -2.2513  -2.2443  -2.2334  -2.2316  -2.2212  -2.1963  -2.1953
    -2.1945  -2.1939  -2.1916  -2.1901  -2.1854  -2.1634  -2.1596  -2.1458
    -2.1441  -2.1268  -2.1257  -2.1172  -2.1165  -2.1160  -2.1138  -2.0963
    -2.0951  -2.0940  -2.0896  -2.0754  -2.0503  -2.0488  -2.0095  -2.0072
    -1.9847  -1.9826  -1.9574  -1.9541  -1.9301  -1.9287  -1.9132  -1.9067
    -1.8792  -1.8630  -1.8577  -1.8539  -1.8509  -1.8460  -1.8409  -1.8394
    -1.8133  -1.8081  -1.7971  -1.7416  -1.7403  -1.7369  -1.7349  -1.7295
    -1.6932  -1.6778  -1.6763  -1.6529  -1.6492  -1.5901  -1.5884  -1.5641
    -1.5456  -1.5395  -1.4957  -1.4795  -1.4717  -1.4676  -1.4601  -1.4571
    -1.4544  -1.4501  -1.4439  -1.4359  -1.3868  -1.3812  -1.3758  -1.3732
    -1.3706  -1.3570  -1.3301  -1.3209  -1.3156  -1.3033  -1.3022  -1.2981
    -1.2945  -1.2864  -1.2814  -1.2730  -1.2617  -1.2582  -1.2200  -1.2136
    -1.2084  -1.1972  -1.1845  -1.1729  -1.1312  -1.1271  -1.1041  -1.1001
    -1.0954  -1.0698  -1.0189  -1.0173  -1.0164  -1.0152  -1.0108  -1.0071
    -0.9981  -0.9821  -0.9799  -0.9417  -0.9408  -0.9116  -0.9097  -0.9048
    -0.9035  -0.8976  -0.8814  -0.8804  -0.8799  -0.8768  -0.8759  -0.8416
    -0.8373  -0.8360  -0.8306  -0.8059  -0.8042  -0.8004  -0.7760  -0.7695
    -0.7663  -0.7230  -0.7172  -0.7120  -0.6811  -0.6725  -0.6623  -0.6613
    -0.6551  -0.6531  -0.6526  -0.6492  -0.6403  -0.6350  -0.6140  -0.6137
    -0.6100  -0.6091  -0.6069  -0.5710  -0.5705  -0.5609  -0.5566  -0.5420
    -0.5374  -0.5332  -0.5246  -0.4692  -0.4676  -0.4592  -0.4584  -0.4566
    -0.4552  -0.4503  -0.4330  -0.4301  -0.4233  -0.4227  -0.4207  -0.4170
    -0.3815  -0.3796  -0.3781  -0.3712  -0.3690  -0.3645  -0.3633  -0.3521
    -0.3465  -0.3438  -0.3383  -0.3017  -0.3009  -0.2934  -0.2893  -0.2881
    -0.2118  -0.2115  -0.2091  -0.2077  -0.1993  -0.1982  -0.1628  -0.1506
    -0.1495  -0.1241  -0.1178  -0.1079   0.0018   0.0101   0.1079   0.5215
     0.5221   0.5245   0.5253   0.5826   0.5960   0.9745   0.9748   1.0154
     1.0202   1.1283   1.2082   1.3127   1.3273   1.5309   1.5552   2.1697
     2.1759   2.3296   2.3411   2.4603   2.4770   2.5707   2.5712   2.7247
     2.9590   2.9626   3.0852   3.3053   3.3158   3.3917   3.3975   3.4931
     3.5100   3.6892   3.6963   3.7661   3.9666   3.9677   4.0259   4.0351
     4.2852   4.2887   4.3003   4.5367   4.5754   4.5825   4.6232   4.9584
     4.9596   4.9877   5.0506   5.1244   5.2970   5.2988   5.3331   5.3941
     5.7170   5.9188   6.0734   6.0835   6.0892   6.1026   6.1578   6.1590
     6.2151   6.2632   6.2918   6.3147   6.3178   6.3257   6.3359   6.3712
     6.3816   6.4158   6.4885   6.5899   6.7089   6.7479   6.9226   6.9830
     7.0215   7.0241   7.0388

          k = 0.2500-0.4330-0.1111 (136853 PWs)   bands (ev):

   -19.3504  -7.1561  -6.1931  -5.7955  -5.7919  -5.1190  -4.7827  -4.7821
    -4.7509  -4.7424  -4.3822  -4.3808  -4.2832  -4.2828  -4.2687  -4.2475
    -4.2347  -4.1173  -4.1149  -4.0918  -4.0481  -4.0473  -3.9908  -3.9787
    -3.9784  -3.9731  -3.9511  -3.9494  -3.9436  -3.9025  -3.8728  -3.8433
    -3.8412  -3.8307  -3.8295  -3.8077  -3.8066  -3.7843  -3.7773  -3.7759
    -3.7510  -3.6975  -3.6971  -3.6623  -3.6490  -3.6460  -3.5904  -3.5901
    -3.5350  -3.5345  -3.5344  -3.5293  -3.4988  -3.4611  -3.4606  -3.4532
    -3.4519  -3.4485  -3.4226  -3.4154  -3.4070  -3.3514  -3.3510  -3.3352
    -3.3238  -3.3170  -3.2459  -3.2380  -3.2129  -3.2049  -3.1834  -3.1823
    -3.1696  -3.1526  -3.0944  -3.0937  -3.0763  -3.0743  -3.0250  -3.0200
    -3.0151  -2.9802  -2.9508  -2.9484  -2.9406  -2.9381  -2.9276  -2.9250
    -2.9200  -2.9153  -2.9085  -2.8680  -2.8311  -2.8295  -2.8163  -2.8147
    -2.7895  -2.7813  -2.7776  -2.7585  -2.7127  -2.7115  -2.7052  -2.6652
    -2.6584  -2.6472  -2.6458  -2.6190  -2.6165  -2.5873  -2.5512  -2.5484
    -2.5292  -2.5208  -2.5079  -2.5042  -2.4572  -2.4550  -2.4232  -2.4013
    -2.3995  -2.3780  -2.3771  -2.3649  -2.3643  -2.3544  -2.3329  -2.3313
    -2.2871  -2.2859  -2.2856  -2.2698  -2.2679  -2.2626  -2.2539  -2.2529
    -2.2522  -2.2513  -2.2443  -2.2334  -2.2316  -2.2212  -2.1963  -2.1953
    -2.1945  -2.1939  -2.1916  -2.1901  -2.1854  -2.1634  -2.1596  -2.1458
    -2.1441  -2.1268  -2.1257  -2.1172  -2.1165  -2.1160  -2.1138  -2.0963
    -2.0951  -2.0940  -2.0896  -2.0754  -2.0503  -2.0488  -2.0095  -2.0072
    -1.9847  -1.9826  -1.9574  -1.9541  -1.9301  -1.9287  -1.9132  -1.9067
    -1.8792  -1.8630  -1.8577  -1.8539  -1.8509  -1.8460  -1.8409  -1.8394
    -1.8133  -1.8081  -1.7971  -1.7416  -1.7403  -1.7369  -1.7349  -1.7295
    -1.6932  -1.6778  -1.6763  -1.6529  -1.6492  -1.5901  -1.5884  -1.5641
    -1.5456  -1.5395  -1.4957  -1.4795  -1.4717  -1.4676  -1.4601  -1.4571
    -1.4544  -1.4501  -1.4439  -1.4359  -1.3868  -1.3812  -1.3758  -1.3732
    -1.3706  -1.3570  -1.3301  -1.3209  -1.3156  -1.3033  -1.3022  -1.2981
    -1.2945  -1.2864  -1.2814  -1.2730  -1.2617  -1.2582  -1.2200  -1.2136
    -1.2084  -1.1972  -1.1845  -1.1729  -1.1312  -1.1271  -1.1041  -1.1001
    -1.0954  -1.0698  -1.0189  -1.0173  -1.0164  -1.0152  -1.0108  -1.0071
    -0.9981  -0.9821  -0.9799  -0.9417  -0.9408  -0.9116  -0.9097  -0.9048
    -0.9035  -0.8976  -0.8814  -0.8803  -0.8799  -0.8768  -0.8759  -0.8416
    -0.8373  -0.8360  -0.8306  -0.8059  -0.8042  -0.8004  -0.7760  -0.7695
    -0.7663  -0.7230  -0.7172  -0.7120  -0.6811  -0.6725  -0.6624  -0.6613
    -0.6551  -0.6531  -0.6526  -0.6492  -0.6403  -0.6350  -0.6140  -0.6137
    -0.6100  -0.6091  -0.6069  -0.5710  -0.5705  -0.5609  -0.5566  -0.5420
    -0.5374  -0.5332  -0.5246  -0.4692  -0.4676  -0.4592  -0.4584  -0.4566
    -0.4552  -0.4503  -0.4330  -0.4301  -0.4233  -0.4227  -0.4207  -0.4170
    -0.3815  -0.3796  -0.3781  -0.3712  -0.3690  -0.3645  -0.3633  -0.3521
    -0.3465  -0.3438  -0.3383  -0.3017  -0.3009  -0.2934  -0.2893  -0.2881
    -0.2118  -0.2115  -0.2091  -0.2077  -0.1993  -0.1982  -0.1628  -0.1506
    -0.1495  -0.1241  -0.1178  -0.1079   0.0018   0.0101   0.1079   0.5215
     0.5221   0.5245   0.5253   0.5826   0.5960   0.9745   0.9748   1.0154
     1.0202   1.1283   1.2082   1.3127   1.3273   1.5309   1.5552   2.1697
     2.1759   2.3296   2.3411   2.4603   2.4770   2.5707   2.5712   2.7247
     2.9590   2.9626   3.0852   3.3053   3.3158   3.3917   3.3975   3.4931
     3.5100   3.6892   3.6963   3.7661   3.9666   3.9677   4.0259   4.0351
     4.2852   4.2887   4.3003   4.5367   4.5754   4.5825   4.6232   4.9584
     4.9596   4.9877   5.0506   5.1244   5.2970   5.2988   5.3331   5.3941
     5.7171   5.9188   6.0729   6.0834   6.0893   6.1027   6.1580   6.1590
     6.2151   6.2632   6.2918   6.3146   6.3178   6.3258   6.3358   6.3710
     6.3815   6.4157   6.4892   6.5915   6.7079   6.7475   6.9218   6.9822
     7.0211   7.0244   7.0396

          k = 0.5000 0.0000 0.1111 (136853 PWs)   bands (ev):

   -19.3504  -7.1561  -6.1931  -5.7957  -5.7917  -5.1191  -4.7826  -4.7818
    -4.7510  -4.7423  -4.3826  -4.3809  -4.2839  -4.2828  -4.2689  -4.2474
    -4.2345  -4.1162  -4.1148  -4.0912  -4.0481  -4.0474  -3.9892  -3.9786
    -3.9774  -3.9723  -3.9529  -3.9491  -3.9437  -3.9041  -3.8729  -3.8435
    -3.8407  -3.8308  -3.8297  -3.8075  -3.8065  -3.7843  -3.7773  -3.7756
    -3.7547  -3.7024  -3.6968  -3.6685  -3.6495  -3.6440  -3.5904  -3.5804
    -3.5353  -3.5345  -3.5342  -3.5196  -3.4985  -3.4613  -3.4549  -3.4531
    -3.4516  -3.4455  -3.4226  -3.4205  -3.4124  -3.3517  -3.3472  -3.3419
    -3.3229  -3.3171  -3.2455  -3.2389  -3.2129  -3.2111  -3.1834  -3.1829
    -3.1697  -3.1524  -3.0942  -3.0918  -3.0759  -3.0751  -3.0235  -3.0200
    -3.0153  -2.9803  -2.9505  -2.9474  -2.9407  -2.9379  -2.9276  -2.9262
    -2.9201  -2.9166  -2.9088  -2.8683  -2.8311  -2.8295  -2.8161  -2.8153
    -2.7897  -2.7806  -2.7794  -2.7585  -2.7132  -2.7116  -2.7033  -2.6651
    -2.6584  -2.6475  -2.6452  -2.6189  -2.6147  -2.5873  -2.5517  -2.5485
    -2.5289  -2.5207  -2.5080  -2.5057  -2.4571  -2.4556  -2.4234  -2.4015
    -2.4004  -2.3778  -2.3752  -2.3656  -2.3638  -2.3545  -2.3330  -2.3304
    -2.2870  -2.2860  -2.2855  -2.2698  -2.2681  -2.2626  -2.2541  -2.2526
    -2.2519  -2.2505  -2.2444  -2.2333  -2.2319  -2.2246  -2.1971  -2.1957
    -2.1943  -2.1939  -2.1927  -2.1904  -2.1851  -2.1615  -2.1591  -2.1459
    -2.1420  -2.1269  -2.1258  -2.1172  -2.1164  -2.1156  -2.1134  -2.0966
    -2.0951  -2.0947  -2.0889  -2.0752  -2.0500  -2.0491  -2.0097  -2.0072
    -1.9846  -1.9832  -1.9573  -1.9560  -1.9293  -1.9264  -1.9115  -1.9060
    -1.8795  -1.8602  -1.8578  -1.8538  -1.8524  -1.8468  -1.8410  -1.8386
    -1.8133  -1.8068  -1.7984  -1.7433  -1.7390  -1.7384  -1.7344  -1.7284
    -1.7003  -1.6777  -1.6764  -1.6519  -1.6493  -1.5896  -1.5889  -1.5641
    -1.5432  -1.5400  -1.4870  -1.4798  -1.4769  -1.4689  -1.4592  -1.4565
    -1.4538  -1.4500  -1.4443  -1.4287  -1.3903  -1.3799  -1.3765  -1.3750
    -1.3644  -1.3575  -1.3496  -1.3197  -1.3120  -1.3032  -1.3023  -1.2997
    -1.2946  -1.2848  -1.2808  -1.2649  -1.2609  -1.2597  -1.2224  -1.2149
    -1.2090  -1.1986  -1.1826  -1.1727  -1.1297  -1.1273  -1.1039  -1.0993
    -1.0955  -1.0693  -1.0197  -1.0177  -1.0159  -1.0139  -1.0108  -1.0078
    -1.0003  -0.9819  -0.9792  -0.9420  -0.9416  -0.9115  -0.9103  -0.9054
    -0.9032  -0.8980  -0.8816  -0.8807  -0.8792  -0.8764  -0.8730  -0.8425
    -0.8373  -0.8361  -0.8307  -0.8073  -0.8047  -0.8004  -0.7767  -0.7698
    -0.7662  -0.7236  -0.7182  -0.7082  -0.6807  -0.6713  -0.6622  -0.6618
    -0.6555  -0.6537  -0.6509  -0.6487  -0.6405  -0.6359  -0.6145  -0.6137
    -0.6104  -0.6086  -0.6067  -0.5710  -0.5703  -0.5633  -0.5546  -0.5414
    -0.5382  -0.5291  -0.5244  -0.4691  -0.4673  -0.4591  -0.4584  -0.4573
    -0.4555  -0.4520  -0.4321  -0.4308  -0.4236  -0.4225  -0.4215  -0.4174
    -0.3815  -0.3799  -0.3779  -0.3712  -0.3693  -0.3643  -0.3617  -0.3487
    -0.3470  -0.3439  -0.3424  -0.3019  -0.3007  -0.2934  -0.2895  -0.2873
    -0.2122  -0.2110  -0.2089  -0.2080  -0.1995  -0.1989  -0.1630  -0.1505
    -0.1500  -0.1255  -0.1179  -0.1064   0.0014   0.0082   0.1068   0.5215
     0.5224   0.5245   0.5255   0.5813   0.5947   0.9730   0.9763   1.0151
     1.0208   1.1294   1.2097   1.3116   1.3309   1.5288   1.5566   2.1696
     2.1747   2.3281   2.3430   2.4598   2.4744   2.5702   2.5715   2.7248
     2.9540   2.9683   3.0864   3.3038   3.3184   3.3929   3.3962   3.4950
     3.5103   3.6841   3.7013   3.7670   3.9665   3.9680   4.0282   4.0311
     4.2846   4.2894   4.3019   4.5362   4.5757   4.5809   4.6238   4.9569
     4.9609   4.9889   5.0634   5.1200   5.2967   5.2996   5.3251   5.3792
     5.7798   5.8559   6.0821   6.0845   6.0870   6.1135   6.1556   6.1623
     6.2174   6.2652   6.2936   6.3110   6.3194   6.3226   6.3334   6.3782
     6.3806   6.4205   6.4317   6.6064   6.6905   6.7633   6.9352   6.9722
     7.0210   7.0306   7.0403

          k =-0.5000 0.0000 0.1111 (136853 PWs)   bands (ev):

   -19.3504  -7.1561  -6.1931  -5.7957  -5.7917  -5.1191  -4.7826  -4.7818
    -4.7510  -4.7423  -4.3826  -4.3809  -4.2839  -4.2828  -4.2689  -4.2474
    -4.2345  -4.1162  -4.1148  -4.0912  -4.0481  -4.0474  -3.9892  -3.9786
    -3.9774  -3.9723  -3.9529  -3.9491  -3.9437  -3.9041  -3.8729  -3.8435
    -3.8407  -3.8308  -3.8297  -3.8075  -3.8065  -3.7843  -3.7773  -3.7756
    -3.7547  -3.7024  -3.6968  -3.6685  -3.6495  -3.6440  -3.5904  -3.5804
    -3.5353  -3.5345  -3.5342  -3.5196  -3.4985  -3.4613  -3.4549  -3.4531
    -3.4516  -3.4455  -3.4226  -3.4205  -3.4124  -3.3517  -3.3472  -3.3419
    -3.3229  -3.3171  -3.2455  -3.2389  -3.2129  -3.2111  -3.1834  -3.1829
    -3.1697  -3.1524  -3.0942  -3.0918  -3.0759  -3.0751  -3.0235  -3.0200
    -3.0153  -2.9803  -2.9505  -2.9474  -2.9407  -2.9379  -2.9276  -2.9262
    -2.9201  -2.9166  -2.9088  -2.8683  -2.8311  -2.8295  -2.8161  -2.8153
    -2.7897  -2.7806  -2.7794  -2.7585  -2.7132  -2.7116  -2.7033  -2.6651
    -2.6584  -2.6475  -2.6452  -2.6189  -2.6147  -2.5873  -2.5517  -2.5485
    -2.5289  -2.5207  -2.5080  -2.5057  -2.4571  -2.4556  -2.4234  -2.4015
    -2.4004  -2.3778  -2.3752  -2.3655  -2.3638  -2.3545  -2.3330  -2.3304
    -2.2870  -2.2860  -2.2855  -2.2698  -2.2681  -2.2626  -2.2541  -2.2526
    -2.2519  -2.2505  -2.2444  -2.2333  -2.2319  -2.2246  -2.1971  -2.1957
    -2.1943  -2.1939  -2.1927  -2.1904  -2.1851  -2.1615  -2.1591  -2.1459
    -2.1420  -2.1269  -2.1258  -2.1172  -2.1164  -2.1156  -2.1134  -2.0966
    -2.0951  -2.0947  -2.0889  -2.0752  -2.0500  -2.0491  -2.0097  -2.0072
    -1.9846  -1.9832  -1.9573  -1.9560  -1.9293  -1.9264  -1.9115  -1.9060
    -1.8795  -1.8602  -1.8578  -1.8538  -1.8524  -1.8468  -1.8410  -1.8386
    -1.8133  -1.8068  -1.7984  -1.7433  -1.7390  -1.7384  -1.7344  -1.7284
    -1.7003  -1.6777  -1.6764  -1.6519  -1.6493  -1.5896  -1.5889  -1.5641
    -1.5432  -1.5400  -1.4870  -1.4798  -1.4769  -1.4689  -1.4592  -1.4565
    -1.4538  -1.4500  -1.4443  -1.4287  -1.3903  -1.3799  -1.3765  -1.3750
    -1.3644  -1.3575  -1.3496  -1.3197  -1.3120  -1.3032  -1.3023  -1.2997
    -1.2946  -1.2848  -1.2808  -1.2649  -1.2609  -1.2597  -1.2224  -1.2149
    -1.2090  -1.1986  -1.1826  -1.1727  -1.1297  -1.1273  -1.1039  -1.0993
    -1.0955  -1.0693  -1.0197  -1.0177  -1.0159  -1.0139  -1.0108  -1.0078
    -1.0003  -0.9819  -0.9792  -0.9420  -0.9416  -0.9115  -0.9103  -0.9054
    -0.9032  -0.8980  -0.8816  -0.8807  -0.8792  -0.8764  -0.8730  -0.8425
    -0.8373  -0.8361  -0.8307  -0.8073  -0.8047  -0.8004  -0.7767  -0.7698
    -0.7662  -0.7236  -0.7182  -0.7082  -0.6807  -0.6713  -0.6622  -0.6618
    -0.6555  -0.6537  -0.6509  -0.6487  -0.6405  -0.6359  -0.6145  -0.6137
    -0.6104  -0.6086  -0.6067  -0.5710  -0.5703  -0.5633  -0.5546  -0.5414
    -0.5382  -0.5291  -0.5244  -0.4691  -0.4673  -0.4591  -0.4584  -0.4573
    -0.4555  -0.4520  -0.4321  -0.4308  -0.4236  -0.4225  -0.4215  -0.4174
    -0.3815  -0.3799  -0.3779  -0.3712  -0.3693  -0.3643  -0.3617  -0.3487
    -0.3470  -0.3439  -0.3424  -0.3019  -0.3007  -0.2934  -0.2895  -0.2873
    -0.2122  -0.2110  -0.2089  -0.2080  -0.1995  -0.1989  -0.1630  -0.1505
    -0.1500  -0.1255  -0.1179  -0.1064   0.0014   0.0082   0.1068   0.5215
     0.5224   0.5245   0.5255   0.5813   0.5947   0.9730   0.9763   1.0151
     1.0208   1.1294   1.2097   1.3116   1.3309   1.5288   1.5566   2.1696
     2.1747   2.3281   2.3430   2.4598   2.4744   2.5702   2.5715   2.7248
     2.9540   2.9683   3.0864   3.3038   3.3184   3.3929   3.3962   3.4950
     3.5103   3.6841   3.7013   3.7670   3.9665   3.9680   4.0282   4.0311
     4.2846   4.2894   4.3019   4.5362   4.5757   4.5809   4.6238   4.9569
     4.9609   4.9889   5.0634   5.1200   5.2967   5.2996   5.3251   5.3792
     5.7798   5.8559   6.0821   6.0849   6.0874   6.1129   6.1556   6.1621
     6.2172   6.2651   6.2936   6.3109   6.3194   6.3224   6.3334   6.3782
     6.3813   6.4198   6.4322   6.6062   6.6906   6.7633   6.9356   6.9721
     7.0212   7.0309   7.0388

          k =-0.2500 0.1443 0.1111 (136898 PWs)   bands (ev):

   -19.3504  -7.1561  -6.4030  -5.6110  -5.3227  -5.2609  -5.2603  -4.7224
    -4.7218  -4.5944  -4.5897  -4.4391  -4.4109  -4.3422  -4.3168  -4.3094
    -4.2755  -4.2751  -4.1466  -4.1050  -4.1046  -4.0458  -4.0303  -4.0241
    -3.9218  -3.9212  -3.8880  -3.8849  -3.8847  -3.8653  -3.8380  -3.8362
    -3.7826  -3.7294  -3.7291  -3.7118  -3.7027  -3.6915  -3.6901  -3.6797
    -3.6670  -3.6594  -3.6360  -3.6354  -3.6352  -3.6236  -3.6034  -3.5965
    -3.5849  -3.5832  -3.5715  -3.5288  -3.5202  -3.4955  -3.4829  -3.4765
    -3.4763  -3.4546  -3.4019  -3.4010  -3.3675  -3.3649  -3.3492  -3.2963
    -3.2957  -3.2811  -3.2794  -3.2507  -3.2499  -3.2492  -3.2459  -3.0956
    -3.0948  -3.0711  -3.0694  -3.0617  -3.0488  -3.0459  -3.0231  -3.0213
    -2.9728  -2.9715  -2.9566  -2.9552  -2.9354  -2.8885  -2.8869  -2.8676
    -2.8632  -2.8618  -2.8223  -2.8210  -2.8150  -2.8123  -2.7992  -2.7962
    -2.7593  -2.7591  -2.7376  -2.7366  -2.7341  -2.7328  -2.7289  -2.6543
    -2.6522  -2.6505  -2.6231  -2.6221  -2.5624  -2.5600  -2.5328  -2.5305
    -2.5189  -2.5186  -2.5119  -2.4836  -2.4827  -2.4731  -2.4559  -2.4317
    -2.4311  -2.4267  -2.4099  -2.4081  -2.3987  -2.3970  -2.3959  -2.3917
    -2.3855  -2.3395  -2.3083  -2.3073  -2.2919  -2.2783  -2.2721  -2.2713
    -2.2644  -2.2635  -2.2618  -2.2333  -2.2328  -2.2306  -2.2225  -2.2222
    -2.2054  -2.1783  -2.1774  -2.1770  -2.1766  -2.1748  -2.1299  -2.1000
    -2.0990  -2.0973  -2.0922  -2.0823  -2.0715  -2.0693  -2.0529  -2.0527
    -2.0207  -2.0184  -2.0176  -2.0002  -1.9997  -1.9985  -1.9664  -1.9635
    -1.9249  -1.9219  -1.9167  -1.9141  -1.9139  -1.9093  -1.9073  -1.9059
    -1.9042  -1.9002  -1.8955  -1.8819  -1.8785  -1.7605  -1.7543  -1.7241
    -1.7187  -1.7141  -1.7088  -1.7074  -1.6969  -1.6918  -1.6906  -1.6891
    -1.6840  -1.6633  -1.6627  -1.6571  -1.6469  -1.6435  -1.6402  -1.6222
    -1.6178  -1.5954  -1.5902  -1.5620  -1.5567  -1.5489  -1.5393  -1.5235
    -1.5219  -1.5195  -1.5019  -1.4934  -1.4879  -1.4850  -1.4808  -1.4647
    -1.4548  -1.4495  -1.4370  -1.4185  -1.4038  -1.3936  -1.3877  -1.3447
    -1.3424  -1.3327  -1.3266  -1.3090  -1.3050  -1.3015  -1.2704  -1.2683
    -1.2638  -1.2329  -1.2249  -1.2196  -1.2091  -1.2078  -1.1830  -1.1810
    -1.1696  -1.1507  -1.1484  -1.1448  -1.0856  -1.0849  -1.0736  -1.0709
    -1.0564  -1.0554  -1.0440  -1.0418  -1.0249  -1.0124  -0.9846  -0.9840
    -0.9710  -0.9424  -0.9353  -0.9310  -0.9224  -0.9222  -0.9201  -0.9169
    -0.9072  -0.9009  -0.8720  -0.8711  -0.8622  -0.8600  -0.8588  -0.8457
    -0.8346  -0.8181  -0.8078  -0.7960  -0.7858  -0.7012  -0.6885  -0.6831
    -0.6826  -0.6780  -0.6728  -0.6709  -0.6482  -0.6437  -0.6336  -0.6301
    -0.6179  -0.6150  -0.6085  -0.5892  -0.5865  -0.5802  -0.5777  -0.5051
    -0.5043  -0.4730  -0.4671  -0.4660  -0.4613  -0.4581  -0.4573  -0.4544
    -0.4461  -0.4437  -0.4242  -0.4027  -0.3874  -0.3699  -0.3680  -0.3584
    -0.3564  -0.3455  -0.3448  -0.3443  -0.3423  -0.3397  -0.3248  -0.3203
    -0.3192  -0.2898  -0.2881  -0.2874  -0.2755  -0.2746  -0.2558  -0.2242
    -0.2235  -0.2150  -0.2130  -0.1472  -0.1456  -0.1097  -0.1095  -0.0516
    -0.0508  -0.0504  -0.0332  -0.0227   0.1976   0.2151   0.5500   0.5503
     0.6357   0.6518   0.8323   0.8595   0.8718   0.9962   1.0027   1.4303
     1.4307   1.4491   1.7074   1.7404   1.7412   2.0088   2.0269   2.0950
     2.0975   2.1181   2.1357   2.3522   2.3538   2.4411   2.4422   2.5061
     2.5723   2.5955   2.7467   2.8445   3.2805   3.2825   3.2837   3.2942
     3.3403   3.3456   3.6340   3.6353   3.9088   3.9216   4.0048   4.3306
     4.3677   4.3765   4.5649   4.5721   4.6708   4.6757   4.7645   4.8807
     4.8844   4.9983   5.0011   5.0534   5.3037   5.3684   5.3736   5.5054
     5.5455   5.7571   5.7603   5.7746   5.7875   5.7902   5.8448   5.8495
     5.9050   6.0165   6.2031   6.2656   6.4503   6.4584   6.5905   6.5924
     6.6009   6.6047   6.6277   6.7420   6.8179   6.8432   6.8537   6.9818
     7.0199   7.0476   7.0760

          k =-0.2500-0.1443-0.1111 (136898 PWs)   bands (ev):

   -19.3504  -7.1561  -6.4030  -5.6110  -5.3228  -5.2609  -5.2601  -4.7223
    -4.7216  -4.5952  -4.5899  -4.4391  -4.4108  -4.3428  -4.3154  -4.3093
    -4.2752  -4.2750  -4.1464  -4.1056  -4.1044  -4.0480  -4.0280  -4.0240
    -3.9216  -3.9211  -3.8883  -3.8850  -3.8846  -3.8669  -3.8371  -3.8364
    -3.7886  -3.7299  -3.7289  -3.7158  -3.6974  -3.6915  -3.6900  -3.6796
    -3.6720  -3.6471  -3.6359  -3.6354  -3.6350  -3.6228  -3.6037  -3.6023
    -3.5848  -3.5847  -3.5588  -3.5294  -3.5273  -3.4934  -3.4827  -3.4765
    -3.4763  -3.4540  -3.4019  -3.4018  -3.3667  -3.3648  -3.3504  -3.2965
    -3.2963  -3.2810  -3.2790  -3.2504  -3.2501  -3.2496  -3.2480  -3.0956
    -3.0948  -3.0711  -3.0664  -3.0638  -3.0488  -3.0460  -3.0232  -3.0224
    -2.9728  -2.9723  -2.9565  -2.9558  -2.9353  -2.8887  -2.8856  -2.8681
    -2.8633  -2.8619  -2.8223  -2.8214  -2.8151  -2.8123  -2.7992  -2.7980
    -2.7590  -2.7588  -2.7379  -2.7357  -2.7340  -2.7326  -2.7285  -2.6542
    -2.6540  -2.6512  -2.6231  -2.6222  -2.5623  -2.5572  -2.5325  -2.5320
    -2.5187  -2.5177  -2.5120  -2.4839  -2.4818  -2.4732  -2.4558  -2.4325
    -2.4315  -2.4285  -2.4097  -2.4090  -2.3991  -2.3984  -2.3956  -2.3899
    -2.3855  -2.3394  -2.3081  -2.3070  -2.2919  -2.2786  -2.2719  -2.2714
    -2.2646  -2.2638  -2.2620  -2.2332  -2.2328  -2.2291  -2.2226  -2.2217
    -2.2057  -2.1790  -2.1776  -2.1769  -2.1764  -2.1757  -2.1300  -2.0999
    -2.0989  -2.0980  -2.0920  -2.0824  -2.0716  -2.0674  -2.0526  -2.0525
    -2.0205  -2.0185  -2.0183  -1.9998  -1.9996  -1.9961  -1.9661  -1.9658
    -1.9251  -1.9218  -1.9168  -1.9141  -1.9138  -1.9081  -1.9073  -1.9060
    -1.9047  -1.8993  -1.8941  -1.8825  -1.8801  -1.7557  -1.7533  -1.7247
    -1.7169  -1.7127  -1.7087  -1.7072  -1.7003  -1.6916  -1.6901  -1.6893
    -1.6852  -1.6630  -1.6586  -1.6563  -1.6467  -1.6439  -1.6388  -1.6213
    -1.6158  -1.5928  -1.5864  -1.5749  -1.5610  -1.5491  -1.5422  -1.5264
    -1.5228  -1.5196  -1.5020  -1.4895  -1.4875  -1.4846  -1.4807  -1.4665
    -1.4550  -1.4421  -1.4382  -1.4267  -1.4055  -1.3980  -1.3733  -1.3456
    -1.3430  -1.3326  -1.3272  -1.3133  -1.3053  -1.3021  -1.2703  -1.2684
    -1.2626  -1.2317  -1.2259  -1.2172  -1.2088  -1.2078  -1.1831  -1.1797
    -1.1712  -1.1506  -1.1484  -1.1466  -1.0858  -1.0850  -1.0737  -1.0692
    -1.0562  -1.0550  -1.0437  -1.0403  -1.0245  -1.0120  -0.9846  -0.9834
    -0.9721  -0.9426  -0.9347  -0.9316  -0.9226  -0.9223  -0.9211  -0.9167
    -0.9091  -0.9008  -0.8719  -0.8710  -0.8616  -0.8601  -0.8554  -0.8481
    -0.8346  -0.8164  -0.8076  -0.7943  -0.7875  -0.7013  -0.6885  -0.6830
    -0.6826  -0.6786  -0.6724  -0.6703  -0.6482  -0.6455  -0.6335  -0.6294
    -0.6176  -0.6158  -0.6086  -0.5889  -0.5863  -0.5820  -0.5776  -0.5050
    -0.5048  -0.4720  -0.4678  -0.4664  -0.4607  -0.4590  -0.4573  -0.4553
    -0.4455  -0.4419  -0.4251  -0.4026  -0.3881  -0.3699  -0.3681  -0.3580
    -0.3572  -0.3455  -0.3447  -0.3440  -0.3416  -0.3401  -0.3247  -0.3203
    -0.3193  -0.2898  -0.2886  -0.2864  -0.2753  -0.2747  -0.2558  -0.2239
    -0.2238  -0.2145  -0.2132  -0.1470  -0.1460  -0.1099  -0.1093  -0.0516
    -0.0511  -0.0499  -0.0341  -0.0227   0.2008   0.2125   0.5500   0.5502
     0.6381   0.6500   0.8306   0.8626   0.8690   0.9962   1.0022   1.4303
     1.4311   1.4485   1.7075   1.7400   1.7422   2.0119   2.0232   2.0955
     2.0971   2.1196   2.1345   2.3508   2.3556   2.4412   2.4421   2.5067
     2.5751   2.5923   2.7458   2.8454   3.2806   3.2824   3.2850   3.2921
     3.3389   3.3479   3.6337   3.6358   3.9109   3.9205   4.0049   4.3305
     4.3689   4.3754   4.5635   4.5721   4.6729   4.6739   4.7645   4.8799
     4.8844   4.9988   5.0013   5.0550   5.3034   5.3678   5.3747   5.5130
     5.5421   5.7566   5.7601   5.7726   5.7881   5.7903   5.8450   5.8518
     5.8919   6.0077   6.2283   6.2601   6.4464   6.4581   6.5896   6.5912
     6.6001   6.6060   6.6318   6.7353   6.8236   6.8455   6.8525   6.9798
     7.0117   7.0518   7.0757

          k = 0.2500 0.1443-0.1111 (136898 PWs)   bands (ev):

   -19.3504  -7.1561  -6.4030  -5.6110  -5.3228  -5.2609  -5.2601  -4.7223
    -4.7216  -4.5952  -4.5899  -4.4391  -4.4108  -4.3428  -4.3154  -4.3093
    -4.2752  -4.2750  -4.1464  -4.1056  -4.1044  -4.0480  -4.0280  -4.0240
    -3.9216  -3.9211  -3.8883  -3.8850  -3.8846  -3.8669  -3.8371  -3.8364
    -3.7886  -3.7299  -3.7289  -3.7158  -3.6974  -3.6915  -3.6900  -3.6796
    -3.6720  -3.6471  -3.6359  -3.6354  -3.6350  -3.6228  -3.6037  -3.6023
    -3.5848  -3.5847  -3.5588  -3.5294  -3.5273  -3.4934  -3.4827  -3.4765
    -3.4763  -3.4540  -3.4019  -3.4018  -3.3667  -3.3648  -3.3504  -3.2965
    -3.2963  -3.2810  -3.2790  -3.2504  -3.2501  -3.2496  -3.2480  -3.0956
    -3.0948  -3.0711  -3.0664  -3.0638  -3.0488  -3.0460  -3.0232  -3.0224
    -2.9728  -2.9723  -2.9565  -2.9558  -2.9353  -2.8887  -2.8856  -2.8681
    -2.8633  -2.8619  -2.8223  -2.8214  -2.8151  -2.8123  -2.7992  -2.7980
    -2.7590  -2.7588  -2.7379  -2.7357  -2.7340  -2.7326  -2.7285  -2.6542
    -2.6540  -2.6511  -2.6231  -2.6222  -2.5623  -2.5572  -2.5325  -2.5320
    -2.5187  -2.5177  -2.5120  -2.4839  -2.4818  -2.4732  -2.4558  -2.4325
    -2.4315  -2.4285  -2.4097  -2.4090  -2.3991  -2.3984  -2.3956  -2.3899
    -2.3855  -2.3394  -2.3081  -2.3070  -2.2919  -2.2786  -2.2719  -2.2714
    -2.2646  -2.2638  -2.2620  -2.2332  -2.2328  -2.2291  -2.2226  -2.2216
    -2.2057  -2.1790  -2.1776  -2.1769  -2.1764  -2.1757  -2.1301  -2.0999
    -2.0989  -2.0980  -2.0920  -2.0824  -2.0716  -2.0674  -2.0526  -2.0525
    -2.0205  -2.0185  -2.0183  -1.9998  -1.9996  -1.9961  -1.9661  -1.9658
    -1.9251  -1.9218  -1.9168  -1.9141  -1.9138  -1.9081  -1.9073  -1.9060
    -1.9047  -1.8993  -1.8941  -1.8825  -1.8801  -1.7557  -1.7533  -1.7247
    -1.7169  -1.7127  -1.7087  -1.7072  -1.7003  -1.6916  -1.6901  -1.6893
    -1.6852  -1.6630  -1.6586  -1.6563  -1.6467  -1.6439  -1.6388  -1.6213
    -1.6158  -1.5928  -1.5864  -1.5749  -1.5610  -1.5491  -1.5422  -1.5264
    -1.5228  -1.5196  -1.5019  -1.4895  -1.4875  -1.4846  -1.4807  -1.4665
    -1.4550  -1.4420  -1.4382  -1.4267  -1.4055  -1.3980  -1.3733  -1.3456
    -1.3430  -1.3326  -1.3272  -1.3133  -1.3053  -1.3021  -1.2703  -1.2684
    -1.2626  -1.2317  -1.2259  -1.2172  -1.2088  -1.2078  -1.1831  -1.1797
    -1.1712  -1.1506  -1.1484  -1.1466  -1.0858  -1.0850  -1.0737  -1.0692
    -1.0562  -1.0550  -1.0437  -1.0403  -1.0245  -1.0120  -0.9846  -0.9834
    -0.9721  -0.9426  -0.9347  -0.9316  -0.9226  -0.9223  -0.9211  -0.9167
    -0.9091  -0.9008  -0.8719  -0.8710  -0.8616  -0.8601  -0.8554  -0.8481
    -0.8346  -0.8164  -0.8076  -0.7943  -0.7875  -0.7013  -0.6885  -0.6830
    -0.6826  -0.6786  -0.6724  -0.6703  -0.6482  -0.6455  -0.6335  -0.6293
    -0.6176  -0.6158  -0.6086  -0.5889  -0.5863  -0.5820  -0.5776  -0.5050
    -0.5048  -0.4720  -0.4678  -0.4664  -0.4607  -0.4590  -0.4573  -0.4553
    -0.4455  -0.4419  -0.4251  -0.4026  -0.3881  -0.3699  -0.3681  -0.3580
    -0.3572  -0.3455  -0.3447  -0.3440  -0.3416  -0.3401  -0.3247  -0.3203
    -0.3193  -0.2898  -0.2886  -0.2864  -0.2753  -0.2747  -0.2558  -0.2239
    -0.2238  -0.2145  -0.2131  -0.1470  -0.1460  -0.1099  -0.1093  -0.0516
    -0.0511  -0.0499  -0.0341  -0.0227   0.2008   0.2125   0.5500   0.5502
     0.6381   0.6500   0.8306   0.8626   0.8691   0.9962   1.0022   1.4303
     1.4311   1.4485   1.7075   1.7400   1.7422   2.0119   2.0232   2.0955
     2.0971   2.1196   2.1345   2.3508   2.3556   2.4412   2.4421   2.5067
     2.5751   2.5923   2.7458   2.8454   3.2806   3.2824   3.2850   3.2921
     3.3389   3.3479   3.6337   3.6358   3.9109   3.9205   4.0049   4.3305
     4.3689   4.3754   4.5635   4.5721   4.6729   4.6739   4.7645   4.8799
     4.8844   4.9988   5.0013   5.0550   5.3034   5.3678   5.3747   5.5130
     5.5421   5.7566   5.7602   5.7726   5.7881   5.7903   5.8450   5.8518
     5.8918   6.0086   6.2273   6.2601   6.4464   6.4569   6.5895   6.5911
     6.5999   6.6057   6.6290   6.7374   6.8231   6.8457   6.8523   6.9831
     7.0159   7.0533   7.0785

          k = 0.0000-0.2887 0.1111 (136898 PWs)   bands (ev):

   -19.3504  -7.1561  -6.4030  -5.6109  -5.3227  -5.2609  -5.2604  -4.7224
    -4.7218  -4.5944  -4.5896  -4.4391  -4.4109  -4.3423  -4.3171  -4.3096
    -4.2755  -4.2750  -4.1466  -4.1052  -4.1045  -4.0455  -4.0303  -4.0243
    -3.9218  -3.9212  -3.8880  -3.8849  -3.8847  -3.8654  -3.8380  -3.8362
    -3.7825  -3.7296  -3.7288  -3.7117  -3.7027  -3.6917  -3.6901  -3.6796
    -3.6669  -3.6596  -3.6361  -3.6353  -3.6350  -3.6233  -3.6036  -3.5966
    -3.5848  -3.5831  -3.5710  -3.5293  -3.5201  -3.4954  -3.4827  -3.4765
    -3.4763  -3.4549  -3.4019  -3.4011  -3.3673  -3.3649  -3.3493  -3.2966
    -3.2957  -3.2810  -3.2792  -3.2508  -3.2499  -3.2493  -3.2460  -3.0955
    -3.0949  -3.0710  -3.0695  -3.0616  -3.0488  -3.0461  -3.0232  -3.0211
    -2.9729  -2.9715  -2.9565  -2.9552  -2.9353  -2.8889  -2.8864  -2.8676
    -2.8633  -2.8618  -2.8224  -2.8210  -2.8151  -2.8126  -2.7991  -2.7964
    -2.7591  -2.7589  -2.7378  -2.7364  -2.7339  -2.7330  -2.7287  -2.6543
    -2.6526  -2.6504  -2.6231  -2.6221  -2.5625  -2.5598  -2.5328  -2.5304
    -2.5186  -2.5182  -2.5120  -2.4835  -2.4826  -2.4732  -2.4557  -2.4322
    -2.4317  -2.4269  -2.4098  -2.4082  -2.3990  -2.3966  -2.3953  -2.3919
    -2.3855  -2.3394  -2.3082  -2.3074  -2.2916  -2.2785  -2.2722  -2.2713
    -2.2645  -2.2637  -2.2620  -2.2332  -2.2327  -2.2307  -2.2226  -2.2218
    -2.2053  -2.1782  -2.1777  -2.1769  -2.1764  -2.1747  -2.1300  -2.1001
    -2.0990  -2.0974  -2.0921  -2.0824  -2.0714  -2.0696  -2.0526  -2.0525
    -2.0207  -2.0183  -2.0177  -1.9998  -1.9996  -1.9984  -1.9666  -1.9634
    -1.9249  -1.9218  -1.9163  -1.9144  -1.9137  -1.9092  -1.9075  -1.9063
    -1.9043  -1.8998  -1.8951  -1.8822  -1.8793  -1.7581  -1.7533  -1.7225
    -1.7198  -1.7133  -1.7093  -1.7077  -1.6983  -1.6918  -1.6898  -1.6877
    -1.6844  -1.6635  -1.6629  -1.6567  -1.6472  -1.6453  -1.6384  -1.6228
    -1.6183  -1.5961  -1.5904  -1.5641  -1.5568  -1.5487  -1.5391  -1.5269
    -1.5222  -1.5193  -1.5018  -1.4943  -1.4880  -1.4835  -1.4813  -1.4659
    -1.4540  -1.4521  -1.4376  -1.4222  -1.4037  -1.3905  -1.3792  -1.3445
    -1.3408  -1.3326  -1.3250  -1.3133  -1.3055  -1.3023  -1.2704  -1.2697
    -1.2565  -1.2338  -1.2226  -1.2210  -1.2085  -1.2075  -1.1837  -1.1796
    -1.1756  -1.1507  -1.1489  -1.1479  -1.0858  -1.0851  -1.0727  -1.0720
    -1.0557  -1.0546  -1.0434  -1.0402  -1.0247  -1.0123  -0.9847  -0.9828
    -0.9729  -0.9435  -0.9338  -0.9320  -0.9224  -0.9222  -0.9208  -0.9157
    -0.9120  -0.9008  -0.8718  -0.8715  -0.8609  -0.8601  -0.8535  -0.8452
    -0.8349  -0.8135  -0.8098  -0.7945  -0.7896  -0.7009  -0.6885  -0.6830
    -0.6827  -0.6782  -0.6742  -0.6695  -0.6488  -0.6469  -0.6326  -0.6300
    -0.6171  -0.6151  -0.6089  -0.5876  -0.5865  -0.5824  -0.5778  -0.5051
    -0.5038  -0.4716  -0.4688  -0.4665  -0.4607  -0.4591  -0.4573  -0.4571
    -0.4441  -0.4408  -0.4246  -0.4026  -0.3895  -0.3697  -0.3681  -0.3584
    -0.3575  -0.3453  -0.3444  -0.3438  -0.3414  -0.3398  -0.3248  -0.3204
    -0.3194  -0.2897  -0.2875  -0.2868  -0.2755  -0.2739  -0.2559  -0.2242
    -0.2236  -0.2146  -0.2139  -0.1477  -0.1444  -0.1100  -0.1093  -0.0516
    -0.0508  -0.0498  -0.0353  -0.0227   0.2031   0.2129   0.5501   0.5502
     0.6400   0.6491   0.8286   0.8576   0.8732   0.9972   1.0020   1.4301
     1.4308   1.4495   1.7069   1.7402   1.7412   2.0141   2.0235   2.0961
     2.0964   2.1212   2.1321   2.3526   2.3531   2.4414   2.4418   2.5063
     2.5766   2.5908   2.7465   2.8437   3.2804   3.2820   3.2869   3.2925
     3.3418   3.3443   3.6339   3.6356   3.9118   3.9194   4.0063   4.3307
     4.3691   4.3733   4.5447   4.5801   4.6699   4.6770   4.7645   4.8785
     4.8842   4.9996   5.0022   5.0679   5.3026   5.3681   5.3764   5.5225
     5.5390   5.7493   5.7590   5.7653   5.7882   5.7912   5.8456   5.8539
     5.8789   5.9851   6.2397   6.3390   6.4403   6.4561   6.5869   6.5906
     6.5935   6.6035   6.6183   6.6861   6.8452   6.8505   6.9116   6.9658
     6.9994   7.0578   7.0695

          k = 0.0000 0.2887 0.1111 (136898 PWs)   bands (ev):

   -19.3504  -7.1561  -6.4030  -5.6109  -5.3227  -5.2609  -5.2604  -4.7224
    -4.7218  -4.5944  -4.5896  -4.4391  -4.4109  -4.3423  -4.3171  -4.3096
    -4.2755  -4.2750  -4.1466  -4.1052  -4.1045  -4.0455  -4.0303  -4.0243
    -3.9218  -3.9212  -3.8880  -3.8849  -3.8847  -3.8654  -3.8380  -3.8362
    -3.7825  -3.7296  -3.7288  -3.7117  -3.7027  -3.6917  -3.6901  -3.6796
    -3.6669  -3.6596  -3.6361  -3.6353  -3.6350  -3.6233  -3.6036  -3.5966
    -3.5848  -3.5832  -3.5710  -3.5293  -3.5201  -3.4954  -3.4827  -3.4765
    -3.4763  -3.4549  -3.4019  -3.4011  -3.3673  -3.3649  -3.3493  -3.2965
    -3.2957  -3.2810  -3.2792  -3.2508  -3.2499  -3.2493  -3.2460  -3.0955
    -3.0949  -3.0710  -3.0695  -3.0616  -3.0488  -3.0461  -3.0232  -3.0211
    -2.9729  -2.9715  -2.9565  -2.9552  -2.9353  -2.8889  -2.8864  -2.8676
    -2.8633  -2.8618  -2.8224  -2.8210  -2.8151  -2.8126  -2.7991  -2.7964
    -2.7591  -2.7589  -2.7378  -2.7364  -2.7339  -2.7330  -2.7287  -2.6543
    -2.6526  -2.6504  -2.6231  -2.6221  -2.5625  -2.5598  -2.5328  -2.5304
    -2.5186  -2.5182  -2.5120  -2.4835  -2.4826  -2.4732  -2.4557  -2.4322
    -2.4317  -2.4269  -2.4098  -2.4082  -2.3990  -2.3966  -2.3953  -2.3919
    -2.3855  -2.3394  -2.3082  -2.3074  -2.2916  -2.2785  -2.2722  -2.2713
    -2.2645  -2.2637  -2.2620  -2.2332  -2.2327  -2.2307  -2.2226  -2.2218
    -2.2053  -2.1782  -2.1777  -2.1769  -2.1764  -2.1747  -2.1300  -2.1001
    -2.0990  -2.0974  -2.0921  -2.0824  -2.0714  -2.0696  -2.0526  -2.0525
    -2.0207  -2.0183  -2.0176  -1.9998  -1.9996  -1.9984  -1.9666  -1.9634
    -1.9249  -1.9218  -1.9163  -1.9144  -1.9137  -1.9092  -1.9075  -1.9063
    -1.9043  -1.8998  -1.8951  -1.8822  -1.8793  -1.7581  -1.7533  -1.7225
    -1.7198  -1.7133  -1.7093  -1.7077  -1.6983  -1.6918  -1.6898  -1.6877
    -1.6844  -1.6635  -1.6629  -1.6567  -1.6472  -1.6453  -1.6384  -1.6228
    -1.6183  -1.5961  -1.5904  -1.5641  -1.5568  -1.5487  -1.5391  -1.5269
    -1.5222  -1.5193  -1.5018  -1.4943  -1.4880  -1.4835  -1.4813  -1.4659
    -1.4540  -1.4521  -1.4376  -1.4222  -1.4037  -1.3905  -1.3792  -1.3445
    -1.3408  -1.3326  -1.3250  -1.3133  -1.3055  -1.3023  -1.2704  -1.2697
    -1.2565  -1.2338  -1.2226  -1.2210  -1.2084  -1.2075  -1.1837  -1.1796
    -1.1756  -1.1507  -1.1489  -1.1479  -1.0858  -1.0851  -1.0727  -1.0720
    -1.0557  -1.0546  -1.0434  -1.0402  -1.0247  -1.0123  -0.9847  -0.9828
    -0.9729  -0.9435  -0.9338  -0.9320  -0.9224  -0.9222  -0.9208  -0.9157
    -0.9120  -0.9008  -0.8718  -0.8715  -0.8609  -0.8601  -0.8535  -0.8452
    -0.8349  -0.8135  -0.8098  -0.7945  -0.7896  -0.7009  -0.6885  -0.6830
    -0.6827  -0.6782  -0.6742  -0.6695  -0.6488  -0.6469  -0.6326  -0.6300
    -0.6171  -0.6151  -0.6089  -0.5876  -0.5865  -0.5824  -0.5778  -0.5051
    -0.5038  -0.4716  -0.4688  -0.4665  -0.4607  -0.4591  -0.4573  -0.4571
    -0.4441  -0.4408  -0.4246  -0.4026  -0.3895  -0.3697  -0.3681  -0.3584
    -0.3575  -0.3454  -0.3444  -0.3438  -0.3414  -0.3398  -0.3248  -0.3204
    -0.3194  -0.2897  -0.2875  -0.2868  -0.2755  -0.2739  -0.2559  -0.2242
    -0.2236  -0.2146  -0.2139  -0.1477  -0.1444  -0.1100  -0.1093  -0.0516
    -0.0508  -0.0498  -0.0353  -0.0227   0.2031   0.2129   0.5501   0.5502
     0.6400   0.6491   0.8286   0.8576   0.8732   0.9972   1.0020   1.4301
     1.4308   1.4495   1.7069   1.7402   1.7412   2.0141   2.0235   2.0961
     2.0964   2.1212   2.1321   2.3526   2.3531   2.4414   2.4418   2.5063
     2.5766   2.5908   2.7465   2.8437   3.2804   3.2820   3.2869   3.2925
     3.3418   3.3443   3.6339   3.6356   3.9118   3.9194   4.0063   4.3307
     4.3691   4.3733   4.5447   4.5801   4.6699   4.6770   4.7645   4.8785
     4.8842   4.9996   5.0022   5.0679   5.3026   5.3681   5.3764   5.5224
     5.5389   5.7491   5.7590   5.7658   5.7882   5.7912   5.8456   5.8539
     5.8789   5.9849   6.2396   6.3384   6.4405   6.4575   6.5847   6.5896
     6.5937   6.6035   6.6168   6.6852   6.8452   6.8505   6.9134   6.9678
     7.0052   7.0586   7.0686

     the Fermi energy is     1.5744 ev

!    total energy              =   -6604.43185057 Ry
     Harris-Foulkes estimate   =   -6604.43185056 Ry
     estimated scf accuracy    <          9.6E-09 Ry

     The total energy is the sum of the following terms:

     one-electron contribution =  -48744.57866966 Ry
     hartree contribution      =   24876.88925180 Ry
     xc contribution           =   -3204.98338903 Ry
     ewald contribution        =   20468.23811314 Ry
     smearing contrib. (-TS)   =       0.00284318 Ry

     convergence has been achieved in  24 iterations

     Writing output data file 1708186.save

     init_run     :    152.52s CPU    166.47s WALL (       1 calls)
     electrons    :   8931.81s CPU   9565.04s WALL (       1 calls)

     Called by init_run:
     wfcinit      :    112.70s CPU    124.04s WALL (       1 calls)
     potinit      :     11.26s CPU     11.72s WALL (       1 calls)

     Called by electrons:
     c_bands      :   7307.97s CPU   7820.74s WALL (      25 calls)
     sum_band     :   1160.75s CPU   1263.00s WALL (      25 calls)
     v_of_rho     :    126.19s CPU    138.19s WALL (      25 calls)
     newd         :    347.83s CPU    353.41s WALL (      25 calls)
     mix_rho      :      3.76s CPU      4.14s WALL (      25 calls)
     vdW_energy   :      9.35s CPU     10.83s WALL (      25 calls)
     vdW_ffts     :     67.21s CPU     73.65s WALL (      50 calls)
     vdW_v        :     15.22s CPU     16.04s WALL (      25 calls)

     Called by c_bands:
     init_us_2    :     28.84s CPU     29.36s WALL (     612 calls)
     cegterg      :   7230.57s CPU   7741.50s WALL (     300 calls)

     Called by *egterg:
     h_psi        :   3181.32s CPU   3642.50s WALL (    1810 calls)
     s_psi        :    439.54s CPU    442.46s WALL (    1810 calls)
     g_psi        :      5.90s CPU      5.91s WALL (    1498 calls)
     cdiaghg      :   2233.57s CPU   2243.45s WALL (    1786 calls)

     Called by h_psi:
     add_vuspsi   :    440.95s CPU    444.05s WALL (    1810 calls)

     General routines
     calbec       :    646.10s CPU    649.42s WALL (    2110 calls)
     fft          :    152.57s CPU    162.83s WALL (    1650 calls)
     ffts         :      1.97s CPU      2.27s WALL (      50 calls)
     fftw         :   2157.02s CPU   2575.06s WALL (  720212 calls)
     interpolate  :      5.43s CPU      6.17s WALL (      50 calls)
     davcio       :      0.00s CPU      0.32s WALL (      12 calls)

     Parallel routines
     fft_scatter  :   1494.05s CPU   1763.68s WALL (  721912 calls)

     PWSCF        :     2h31m CPU        2h42m WALL


   This run was terminated on:  13:54:22  24Aug2015            

=------------------------------------------------------------------------------=
   JOB DONE.
=------------------------------------------------------------------------------=
