
     Program PWSCF v.5.1.2 starts on 24Aug2015 at 11:12:37 

     This program is part of the open-source Quantum ESPRESSO suite
     for quantum simulation of materials; please cite
         "P. Giannozzi et al., J. Phys.:Condens. Matter 21 395502 (2009);
          URL http://www.quantum-espresso.org", 
     in publications or presentations arising from this work. More details at
     http://www.quantum-espresso.org/quote

     Parallel version (MPI), running on    32 processors
     R & G space division:  proc/nbgrp/npool/nimage =      32
     Reading input from bridge.O1.Au5455.d.2.7.phi.45.psi.90.in
Warning: card &IONS ignored
Warning: card / ignored
Warning: card &CELL ignored
Warning: card / ignored

     Current dimensions of program PWSCF are:
     Max number of different atomic species (ntypx) = 10
     Max number of k-points (npk) =  40000
     Max angular momentum in pseudopotentials (lmaxx) =  3

     IMPORTANT: XC functional enforced from input :
     Exchange-correlation      = VDW-DF ( 1  4  4  0 1 0)
     Any further DFT definition will be discarded
     Please, verify this is what you really want


     Subspace diagonalization in iterative solution of the eigenvalue problem:
     a serial algorithm will be used


     Parallelization info
     --------------------
     sticks:   dense  smooth     PW     G-vecs:    dense   smooth      PW
     Min         445     223     58                96775    34191    4534
     Max         446     224     59                96790    34246    4540
     Sum       14269    7147   1867              3097177  1095093  145167


     Title: 
     bridge.O1.Au5455.d.2.7.phi.45.psi.90                                       


     bravais-lattice index     =            4
     lattice parameter (alat)  =      22.7436  a.u.
     unit-cell volume          =   22924.1508 (a.u.)^3
     number of atoms/cell      =           67
     number of atomic types    =            3
     number of electrons       =       712.00
     number of Kohn-Sham states=          427
     kinetic-energy cutoff     =      50.0000  Ry
     charge density cutoff     =     400.0000  Ry
     convergence threshold     =      1.0E-08
     mixing beta               =       0.7000
     number of iterations used =            8  plain     mixing
     Exchange-correlation      = VDW-DF ( 1  4  4  0 1 0)

     celldm(1)=  22.743643  celldm(2)=   0.000000  celldm(3)=   2.250000
     celldm(4)=   0.000000  celldm(5)=   0.000000  celldm(6)=   0.000000

     crystal axes: (cart. coord. in units of alat)
               a(1) = (   1.000000   0.000000   0.000000 )  
               a(2) = (  -0.500000   0.866025   0.000000 )  
               a(3) = (   0.000000   0.000000   2.250000 )  

     reciprocal axes: (cart. coord. in units 2 pi/alat)
               b(1) = (  1.000000  0.577350 -0.000000 )  
               b(2) = (  0.000000  1.154701  0.000000 )  
               b(3) = (  0.000000 -0.000000  0.444444 )  


     PseudoPot. # 1 for Au read from file:
     /home/scc/andrejb/qe/pseudo/Au.pbe-nd-van.UPF
     MD5 check sum: 458681b50f36d87ef23c61b04bba420a
     Pseudo is Ultrasoft + core correction, Zval = 11.0
     Generated by new atomic code, or converted to UPF format
     Using radial grid of  985 points,  3 beta functions with: 
                l(1) =   1
                l(2) =   2
                l(3) =   2
     Q(r) pseudized with  8 coefficients,  rinner =    1.100   1.100   1.100
                                                       1.100   1.100

     PseudoPot. # 2 for H  read from file:
     /home/scc/andrejb/qe/pseudo/H.pbe-van_ak.UPF
     MD5 check sum: 403db7282739603aa925980fa9b8608d
     Pseudo is Ultrasoft, Zval =  1.0
     Generated by new atomic code, or converted to UPF format
     Using radial grid of  615 points,  1 beta functions with: 
                l(1) =   0
     Q(r) pseudized with  8 coefficients,  rinner =    0.800

     PseudoPot. # 3 for O  read from file:
     /home/scc/andrejb/qe/pseudo/O.pbe-van_ak.UPF
     MD5 check sum: 4b8c549914a63cae506c6ff22b5af4fe
     Pseudo is Ultrasoft, Zval =  6.0
     Generated by new atomic code, or converted to UPF format
     Using radial grid of  737 points,  4 beta functions with: 
                l(1) =   0
                l(2) =   0
                l(3) =   1
                l(4) =   1
     Q(r) pseudized with  8 coefficients,  rinner =    0.800   0.800   0.800


     vdW kernel table read from file vdW_kernel_table
     MD5 check sum: 48e77a2e26edf626eeb0eaa751ad5cac

     atomic species   valence    mass     pseudopotential
        Au            11.00   196.96657     Au( 1.00)
        H              1.00     1.01000     H ( 1.00)
        O              6.00    16.00000     O ( 1.00)

     No symmetry found



   Cartesian axes

     site n.     atom                  positions (alat units)
         1           O   tau(   1) = (   0.2915728   0.2885783   0.8373559  )
         2           H   tau(   2) = (   0.2856432   0.2403247   0.7726691  )
         3           H   tau(   3) = (   0.2973092   0.2378175   0.9000949  )
         4           Au  tau(   4) = (   0.3540481   0.6132292   0.0000000  )
         5           Au  tau(   5) = (   0.4790062   0.3967954   0.0000000  )
         6           Au  tau(   6) = (   0.6039644   0.1803616   0.0000000  )
         7           Au  tau(   7) = (   0.7289225  -0.0360723   0.0000000  )
         8           Au  tau(   8) = (   0.1041318   0.6132292   0.0000000  )
         9           Au  tau(   9) = (   0.2290899   0.3967954   0.0000000  )
        10           Au  tau(  10) = (   0.3540481   0.1803616   0.0000000  )
        11           Au  tau(  11) = (   0.4790062  -0.0360723   0.0000000  )
        12           Au  tau(  12) = (  -0.1457845   0.6132292   0.0000000  )
        13           Au  tau(  13) = (  -0.0208264   0.3967954   0.0000000  )
        14           Au  tau(  14) = (   0.1041318   0.1803616   0.0000000  )
        15           Au  tau(  15) = (   0.2290899  -0.0360723   0.0000000  )
        16           Au  tau(  16) = (  -0.3957008   0.6132292   0.0000000  )
        17           Au  tau(  17) = (  -0.2707426   0.3967954   0.0000000  )
        18           Au  tau(  18) = (  -0.1457845   0.1803616   0.0000000  )
        19           Au  tau(  19) = (  -0.0208264  -0.0360723   0.0000000  )
        20           Au  tau(  20) = (   0.4790062   0.6853738   0.2040557  )
        21           Au  tau(  21) = (   0.6039644   0.4689400   0.2040557  )
        22           Au  tau(  22) = (   0.7289225   0.2525061   0.2040557  )
        23           Au  tau(  23) = (   0.8538806   0.0360723   0.2040557  )
        24           Au  tau(  24) = (   0.2290899   0.6853738   0.2040557  )
        25           Au  tau(  25) = (   0.3540481   0.4689400   0.2040557  )
        26           Au  tau(  26) = (   0.4790062   0.2525061   0.2040557  )
        27           Au  tau(  27) = (   0.6039644   0.0360723   0.2040557  )
        28           Au  tau(  28) = (  -0.0208264   0.6853738   0.2040557  )
        29           Au  tau(  29) = (   0.1041318   0.4689400   0.2040557  )
        30           Au  tau(  30) = (   0.2290899   0.2525061   0.2040557  )
        31           Au  tau(  31) = (   0.3540481   0.0360723   0.2040557  )
        32           Au  tau(  32) = (  -0.2707426   0.6853738   0.2040557  )
        33           Au  tau(  33) = (  -0.1457845   0.4689400   0.2040557  )
        34           Au  tau(  34) = (  -0.0208264   0.2525061   0.2040557  )
        35           Au  tau(  35) = (   0.1041318   0.0360723   0.2040557  )
        36           Au  tau(  36) = (   0.3541162   0.7576593   0.4066483  )
        37           Au  tau(  37) = (   0.4791000   0.5411421   0.4066695  )
        38           Au  tau(  38) = (   0.6040570   0.3246862   0.4066617  )
        39           Au  tau(  39) = (   0.7290270   0.1081684   0.4066529  )
        40           Au  tau(  40) = (   0.1041162   0.7576236   0.4066247  )
        41           Au  tau(  41) = (   0.2291001   0.5411063   0.4066455  )
        42           Au  tau(  42) = (   0.3540567   0.3246505   0.4066380  )
        43           Au  tau(  43) = (   0.4790276   0.1081324   0.4066292  )
        44           Au  tau(  44) = (  -0.1458201   0.7576104   0.4066224  )
        45           Au  tau(  45) = (  -0.0208365   0.5410930   0.4066438  )
        46           Au  tau(  46) = (   0.1041202   0.3246372   0.4066359  )
        47           Au  tau(  47) = (   0.2290908   0.1081193   0.4066273  )
        48           Au  tau(  48) = (  -0.3958167   0.7575791   0.4065812  )
        49           Au  tau(  49) = (  -0.2708328   0.5410617   0.4066025  )
        50           Au  tau(  50) = (  -0.1458763   0.3246061   0.4065947  )
        51           Au  tau(  51) = (  -0.0209056   0.1080882   0.4065858  )
        52           Au  tau(  52) = (   0.3541085   0.6133344   0.6129762  )
        53           Au  tau(  53) = (   0.4790780   0.3968269   0.6129968  )
        54           Au  tau(  54) = (   0.6040356   0.1803811   0.6129859  )
        55           Au  tau(  55) = (   0.7290165  -0.0361221   0.6129385  )
        56           Au  tau(  56) = (   0.1041243   0.6133091   0.6130022  )
        57           Au  tau(  57) = (   0.2290941   0.3968013   0.6130241  )
        58           Au  tau(  58) = (   0.3540515   0.1803552   0.6130121  )
        59           Au  tau(  59) = (   0.4790323  -0.0361475   0.6129659  )
        60           Au  tau(  60) = (  -0.1458030   0.6133014   0.6129980  )
        61           Au  tau(  61) = (  -0.0208339   0.3967936   0.6130188  )
        62           Au  tau(  62) = (   0.1041239   0.1803477   0.6130083  )
        63           Au  tau(  63) = (   0.2291046  -0.0361554   0.6129607  )
        64           Au  tau(  64) = (  -0.3957908   0.6132739   0.6129471  )
        65           Au  tau(  65) = (  -0.2708208   0.3967658   0.6129688  )
        66           Au  tau(  66) = (  -0.1458636   0.1803200   0.6129569  )
        67           Au  tau(  67) = (  -0.0208823  -0.0361826   0.6129110  )

     number of k points=    12  Marzari-Vanderbilt smearing, width (Ry)=  0.0200
                       cart. coord. in units 2pi/alat
        k(    1) = (   0.2500000   0.4330127   0.1111111), wk =   0.1666667
        k(    2) = (   0.2500000  -0.1443376   0.1111111), wk =   0.1666667
        k(    3) = (  -0.2500000  -0.4330127   0.1111111), wk =   0.1666667
        k(    4) = (  -0.2500000   0.4330127  -0.1111111), wk =   0.1666667
        k(    5) = (   0.2500000  -0.4330127  -0.1111111), wk =   0.1666667
        k(    6) = (   0.5000000   0.0000000   0.1111111), wk =   0.1666667
        k(    7) = (  -0.5000000   0.0000000   0.1111111), wk =   0.1666667
        k(    8) = (  -0.2500000   0.1443376   0.1111111), wk =   0.1666667
        k(    9) = (  -0.2500000  -0.1443376  -0.1111111), wk =   0.1666667
        k(   10) = (   0.2500000   0.1443376  -0.1111111), wk =   0.1666667
        k(   11) = (   0.0000000  -0.2886751   0.1111111), wk =   0.1666667
        k(   12) = (   0.0000000   0.2886751   0.1111111), wk =   0.1666667

     Dense  grid:  3097177 G-vectors     FFT dimensions: ( 150, 150, 360)

     Smooth grid:  1095093 G-vectors     FFT dimensions: ( 108, 108, 240)

     Largest allocated arrays     est. size (Mb)     dimensions
        Kohn-Sham Wavefunctions        28.01 Mb     (    4299,  427)
        NL pseudopotentials            55.23 Mb     (    4299,  842)
        Each V/rho on FFT grid          4.12 Mb     (  270000)
        Each G-vector array             0.74 Mb     (   96788)
        G-vector shells                 0.16 Mb     (   21404)
     Largest temporary arrays     est. size (Mb)     dimensions
        Auxiliary wavefunctions       112.04 Mb     (    4299, 1708)
        Each subspace H/S matrix       44.51 Mb     (    1708, 1708)
        Each <psi_i|beta_j> matrix      5.49 Mb     (     842,  427)
        Arrays for rho mixing          32.96 Mb     (  270000,    8)

     Initial potential from superposition of free atoms
     Check: negative starting charge=   -1.730233

     starting charge  711.25682, renormalised to  712.00000

     negative rho (up, down):  1.732E+00 0.000E+00


     ************************************************************************
     *
     * You are using vdW-DF for exchange-correlation in this calculation.
     * Please cite the following three references that made this development
     * possible:
     *
     *   M. Dion, H. Rydberg, E. Schroder, D. C. Langreth, and
     *   B. I. Lundqvist, Phys. Rev. Lett. 92, 246401 (2004).
     *
     *   T. Thonhauser, V. R. Cooper, S. Li, A. Puzder, P. Hyldgaard, and
     *   D. C. Langreth, Phys. Rev. B 76, 125112 (2007).
     *
     *   G. Roman-Perez and J. M. Soler, Phys. Rev. Lett. 103, 096102 (2009).
     *
     *
     * If you are using vdW-DF2, please also cite:
     *
     *   K. Lee, E. D. Murray, L. Kong, B. I. Lundqvist, and
     *   D. C. Langreth, Phys. Rev. B 82, 081101(R) (2010).
     *
     *
     * If you are calculating the stress with vdW-DF, please also cite:
     *
     *   R. Sabatini, E. Kucukbenli, B. Kolb, T. Thonhauser, and
     *   S. de Gironcoli, J. Phys.: Condens. Matter 24, 424209 (2012).
     *
     ************************************************************************

     Carrying out vdW-DF run using the following parameters:

     Nqs =      20    Nr_points =    1024   r_max =   100.000
     q_mesh =
               0.00001000     0.04494208     0.09755937     0.15916263
               0.23128650     0.31572767     0.41458969     0.53033537
               0.66584808     0.82450364     1.01025438     1.22772762
               1.48234092     1.78043706     2.12944203     2.53805004
               3.01644009     3.57652955     4.23227104     5.00000000

     Gradients computed in reciprocal space

     ************************************************************************


     Starting wfc are  582 randomized atomic wfcs

     total cpu time spent up to now is      209.4 secs

     Self-consistent Calculation

     iteration #  1     ecut=    50.00 Ry     beta=0.70
     Davidson diagonalization with overlap
     ethr =  1.00E-02,  avg # of iterations =  3.0

     Threshold (ethr) on eigenvalues was too large:
     Diagonalizing with lowered threshold

     Davidson diagonalization with overlap
     ethr =  3.40E-04,  avg # of iterations =  3.5

     negative rho (up, down):  1.727E+00 0.000E+00

     total cpu time spent up to now is      938.4 secs

     total energy              =   -6602.81015326 Ry
     Harris-Foulkes estimate   =   -6605.01515028 Ry
     estimated scf accuracy    <       2.76424867 Ry

     iteration #  2     ecut=    50.00 Ry     beta=0.70
     Davidson diagonalization with overlap
     ethr =  3.88E-04,  avg # of iterations = 11.4

     negative rho (up, down):  1.727E+00 0.000E+00

     total cpu time spent up to now is     1966.3 secs

     total energy              =   -6597.09160722 Ry
     Harris-Foulkes estimate   =   -6609.93534098 Ry
     estimated scf accuracy    <      70.33333050 Ry

     iteration #  3     ecut=    50.00 Ry     beta=0.70
     Davidson diagonalization with overlap
     ethr =  3.88E-04,  avg # of iterations =  6.3

     negative rho (up, down):  1.737E+00 0.000E+00

     total cpu time spent up to now is     2639.5 secs

     total energy              =   -6603.23305893 Ry
     Harris-Foulkes estimate   =   -6604.95951343 Ry
     estimated scf accuracy    <       7.59287095 Ry

     iteration #  4     ecut=    50.00 Ry     beta=0.70
     Davidson diagonalization with overlap
     ethr =  3.88E-04,  avg # of iterations =  6.6

     negative rho (up, down):  1.739E+00 0.000E+00

     total cpu time spent up to now is     3050.5 secs

     total energy              =   -6603.81145578 Ry
     Harris-Foulkes estimate   =   -6604.88391887 Ry
     estimated scf accuracy    <       8.02697919 Ry

     iteration #  5     ecut=    50.00 Ry     beta=0.70
     Davidson diagonalization with overlap
     ethr =  3.88E-04,  avg # of iterations =  6.6

     negative rho (up, down):  1.748E+00 0.000E+00

     total cpu time spent up to now is     3453.6 secs

     total energy              =   -6604.22115405 Ry
     Harris-Foulkes estimate   =   -6604.68946200 Ry
     estimated scf accuracy    <       4.01208855 Ry

     iteration #  6     ecut=    50.00 Ry     beta=0.70
     Davidson diagonalization with overlap
     ethr =  3.88E-04,  avg # of iterations =  3.0

     negative rho (up, down):  1.752E+00 0.000E+00

     total cpu time spent up to now is     3775.6 secs

     total energy              =   -6604.40675966 Ry
     Harris-Foulkes estimate   =   -6604.46042052 Ry
     estimated scf accuracy    <       0.17636233 Ry

     iteration #  7     ecut=    50.00 Ry     beta=0.70
     Davidson diagonalization with overlap
     ethr =  2.48E-05,  avg # of iterations = 11.5

     negative rho (up, down):  1.754E+00 0.000E+00

     total cpu time spent up to now is     4288.6 secs

     total energy              =   -6604.41806789 Ry
     Harris-Foulkes estimate   =   -6604.44642047 Ry
     estimated scf accuracy    <       0.12671385 Ry

     iteration #  8     ecut=    50.00 Ry     beta=0.70
     Davidson diagonalization with overlap
     ethr =  1.78E-05,  avg # of iterations =  3.9

     negative rho (up, down):  1.756E+00 0.000E+00

     total cpu time spent up to now is     4629.6 secs

     total energy              =   -6604.42121829 Ry
     Harris-Foulkes estimate   =   -6604.43486242 Ry
     estimated scf accuracy    <       0.05385498 Ry

     iteration #  9     ecut=    50.00 Ry     beta=0.70
     Davidson diagonalization with overlap
     ethr =  7.56E-06,  avg # of iterations =  5.3

     negative rho (up, down):  1.756E+00 0.000E+00

     total cpu time spent up to now is     4996.5 secs

     total energy              =   -6604.42136456 Ry
     Harris-Foulkes estimate   =   -6604.42775742 Ry
     estimated scf accuracy    <       0.02237730 Ry

     iteration # 10     ecut=    50.00 Ry     beta=0.70
     Davidson diagonalization with overlap
     ethr =  3.14E-06,  avg # of iterations =  5.9

     negative rho (up, down):  1.757E+00 0.000E+00

     total cpu time spent up to now is     5377.1 secs

     total energy              =   -6604.42139818 Ry
     Harris-Foulkes estimate   =   -6604.42392577 Ry
     estimated scf accuracy    <       0.00843349 Ry

     iteration # 11     ecut=    50.00 Ry     beta=0.70
     Davidson diagonalization with overlap
     ethr =  1.18E-06,  avg # of iterations =  3.9

     negative rho (up, down):  1.757E+00 0.000E+00

     total cpu time spent up to now is     5721.3 secs

     total energy              =   -6604.42142797 Ry
     Harris-Foulkes estimate   =   -6604.42256742 Ry
     estimated scf accuracy    <       0.00414820 Ry

     iteration # 12     ecut=    50.00 Ry     beta=0.70
     Davidson diagonalization with overlap
     ethr =  5.83E-07,  avg # of iterations =  2.2

     negative rho (up, down):  1.758E+00 0.000E+00

     total cpu time spent up to now is     6033.8 secs

     total energy              =   -6604.42137740 Ry
     Harris-Foulkes estimate   =   -6604.42188231 Ry
     estimated scf accuracy    <       0.00089505 Ry

     iteration # 13     ecut=    50.00 Ry     beta=0.70
     Davidson diagonalization with overlap
     ethr =  1.26E-07,  avg # of iterations =  5.9

     negative rho (up, down):  1.758E+00 0.000E+00

     total cpu time spent up to now is     6492.6 secs

     total energy              =   -6604.42140059 Ry
     Harris-Foulkes estimate   =   -6604.42182812 Ry
     estimated scf accuracy    <       0.00183325 Ry

     iteration # 14     ecut=    50.00 Ry     beta=0.70
     Davidson diagonalization with overlap
     ethr =  1.26E-07,  avg # of iterations =  2.0

     negative rho (up, down):  1.758E+00 0.000E+00

     total cpu time spent up to now is     6802.5 secs

     total energy              =   -6604.42160512 Ry
     Harris-Foulkes estimate   =   -6604.42163556 Ry
     estimated scf accuracy    <       0.00009245 Ry

     iteration # 15     ecut=    50.00 Ry     beta=0.70
     Davidson diagonalization with overlap
     ethr =  1.30E-08,  avg # of iterations =  2.6

     negative rho (up, down):  1.757E+00 0.000E+00

     total cpu time spent up to now is     7167.3 secs

     total energy              =   -6604.42161466 Ry
     Harris-Foulkes estimate   =   -6604.42163597 Ry
     estimated scf accuracy    <       0.00008499 Ry

     iteration # 16     ecut=    50.00 Ry     beta=0.70
     Davidson diagonalization with overlap
     ethr =  1.19E-08,  avg # of iterations =  2.0

     negative rho (up, down):  1.757E+00 0.000E+00

     total cpu time spent up to now is     7473.5 secs

     total energy              =   -6604.42161757 Ry
     Harris-Foulkes estimate   =   -6604.42163177 Ry
     estimated scf accuracy    <       0.00011994 Ry

     iteration # 17     ecut=    50.00 Ry     beta=0.70
     Davidson diagonalization with overlap
     ethr =  1.19E-08,  avg # of iterations =  1.0

     negative rho (up, down):  1.757E+00 0.000E+00

     total cpu time spent up to now is     7757.5 secs

     total energy              =   -6604.42162485 Ry
     Harris-Foulkes estimate   =   -6604.42162766 Ry
     estimated scf accuracy    <       0.00002123 Ry

     iteration # 18     ecut=    50.00 Ry     beta=0.70
     Davidson diagonalization with overlap
     ethr =  2.98E-09,  avg # of iterations =  2.0

     negative rho (up, down):  1.757E+00 0.000E+00

     total cpu time spent up to now is     8060.9 secs

     total energy              =   -6604.42162544 Ry
     Harris-Foulkes estimate   =   -6604.42162738 Ry
     estimated scf accuracy    <       0.00000758 Ry

     iteration # 19     ecut=    50.00 Ry     beta=0.70
     Davidson diagonalization with overlap
     ethr =  1.06E-09,  avg # of iterations =  2.0

     negative rho (up, down):  1.757E+00 0.000E+00

     total cpu time spent up to now is     8364.3 secs

     total energy              =   -6604.42162640 Ry
     Harris-Foulkes estimate   =   -6604.42162665 Ry
     estimated scf accuracy    <       0.00000092 Ry

     iteration # 20     ecut=    50.00 Ry     beta=0.70
     Davidson diagonalization with overlap
     ethr =  1.30E-10,  avg # of iterations =  2.0

     negative rho (up, down):  1.757E+00 0.000E+00

     total cpu time spent up to now is     8658.3 secs

     total energy              =   -6604.42162657 Ry
     Harris-Foulkes estimate   =   -6604.42162660 Ry
     estimated scf accuracy    <       0.00000016 Ry

     iteration # 21     ecut=    50.00 Ry     beta=0.70
     Davidson diagonalization with overlap
     ethr =  2.24E-11,  avg # of iterations =  2.9

     negative rho (up, down):  1.757E+00 0.000E+00

     total cpu time spent up to now is     9015.4 secs

     total energy              =   -6604.42162660 Ry
     Harris-Foulkes estimate   =   -6604.42162664 Ry
     estimated scf accuracy    <       0.00000021 Ry

     iteration # 22     ecut=    50.00 Ry     beta=0.70
     Davidson diagonalization with overlap
     ethr =  2.24E-11,  avg # of iterations =  2.0

     negative rho (up, down):  1.757E+00 0.000E+00

     total cpu time spent up to now is     9303.5 secs

     total energy              =   -6604.42162662 Ry
     Harris-Foulkes estimate   =   -6604.42162663 Ry
     estimated scf accuracy    <       0.00000002 Ry

     iteration # 23     ecut=    50.00 Ry     beta=0.70
     Davidson diagonalization with overlap
     ethr =  2.45E-12,  avg # of iterations =  3.0

     negative rho (up, down):  1.757E+00 0.000E+00

     total cpu time spent up to now is     9697.1 secs

     total energy              =   -6604.42162663 Ry
     Harris-Foulkes estimate   =   -6604.42162663 Ry
     estimated scf accuracy    <       0.00000003 Ry

     iteration # 24     ecut=    50.00 Ry     beta=0.70
     Davidson diagonalization with overlap
     ethr =  2.45E-12,  avg # of iterations =  2.2

     negative rho (up, down):  1.757E+00 0.000E+00

     total cpu time spent up to now is    10040.1 secs

     total energy              =   -6604.42162663 Ry
     Harris-Foulkes estimate   =   -6604.42162663 Ry
     estimated scf accuracy    <       0.00000003 Ry

     iteration # 25     ecut=    50.00 Ry     beta=0.70
     Davidson diagonalization with overlap
     ethr =  2.45E-12,  avg # of iterations =  2.0

     negative rho (up, down):  1.757E+00 0.000E+00

     total cpu time spent up to now is    10347.3 secs

     End of self-consistent calculation

          k = 0.2500 0.4330 0.1111 (136853 PWs)   bands (ev):

   -18.8315  -6.8736  -6.3308  -5.9347  -5.9324  -5.2544  -4.9244  -4.9234
    -4.8851  -4.8812  -4.5240  -4.5231  -4.4253  -4.4245  -4.4110  -4.3881
    -4.3655  -4.2586  -4.2563  -4.2330  -4.1900  -4.1894  -4.1230  -4.1205
    -4.1157  -4.1132  -4.0925  -4.0871  -4.0859  -4.0182  -4.0136  -3.9853
    -3.9840  -3.9729  -3.9717  -3.9490  -3.9485  -3.9264  -3.9180  -3.9176
    -3.8921  -3.8397  -3.8391  -3.7918  -3.7899  -3.7368  -3.7333  -3.6813
    -3.6777  -3.6767  -3.6761  -3.6409  -3.6082  -3.6055  -3.5954  -3.5945
    -3.5938  -3.5690  -3.5635  -3.5553  -3.4979  -3.4957  -3.4880  -3.4678
    -3.4604  -3.3895  -3.3869  -3.3593  -3.3546  -3.3314  -3.3262  -3.3119
    -3.2973  -3.2471  -3.2373  -3.2206  -3.2185  -3.1808  -3.1639  -3.1628
    -3.1240  -3.1132  -3.0916  -3.0844  -3.0823  -3.0747  -3.0720  -3.0641
    -3.0627  -3.0549  -3.0183  -3.0055  -2.9735  -2.9712  -2.9606  -2.9571
    -2.9312  -2.9243  -2.9211  -2.8925  -2.8551  -2.8532  -2.8466  -2.8084
    -2.8008  -2.7893  -2.7883  -2.7614  -2.7596  -2.7295  -2.6949  -2.6916
    -2.6734  -2.6632  -2.6510  -2.6492  -2.6001  -2.5996  -2.5665  -2.5451
    -2.5430  -2.5200  -2.5171  -2.5086  -2.5056  -2.4978  -2.4766  -2.4753
    -2.4301  -2.4289  -2.4279  -2.4134  -2.4120  -2.4043  -2.3987  -2.3977
    -2.3940  -2.3927  -2.3866  -2.3825  -2.3751  -2.3676  -2.3419  -2.3385
    -2.3371  -2.3350  -2.3334  -2.3322  -2.3304  -2.3055  -2.3038  -2.2886
    -2.2874  -2.2688  -2.2686  -2.2606  -2.2593  -2.2577  -2.2563  -2.2412
    -2.2378  -2.2350  -2.2346  -2.2198  -2.1926  -2.1905  -2.1508  -2.1501
    -2.1287  -2.1274  -2.1009  -2.0977  -2.0726  -2.0704  -2.0550  -2.0497
    -2.0228  -2.0069  -2.0040  -1.9973  -1.9920  -1.9890  -1.9819  -1.9796
    -1.9558  -1.9494  -1.9445  -1.8859  -1.8806  -1.8783  -1.8759  -1.8745
    -1.8463  -1.8206  -1.8191  -1.7929  -1.7906  -1.7348  -1.7329  -1.7021
    -1.6864  -1.6822  -1.6255  -1.6228  -1.6145  -1.6099  -1.6017  -1.5986
    -1.5949  -1.5898  -1.5852  -1.5346  -1.5310  -1.5246  -1.5175  -1.5162
    -1.5014  -1.4975  -1.4678  -1.4634  -1.4492  -1.4457  -1.4446  -1.4376
    -1.4326  -1.4286  -1.4222  -1.4046  -1.4026  -1.3686  -1.3604  -1.3538
    -1.3510  -1.3315  -1.3156  -1.2839  -1.2738  -1.2499  -1.2468  -1.2429
    -1.2135  -1.1735  -1.1657  -1.1604  -1.1586  -1.1552  -1.1526  -1.1455
    -1.1287  -1.1251  -1.0923  -1.0831  -1.0642  -1.0551  -1.0500  -1.0471
    -1.0423  -1.0293  -1.0260  -1.0229  -1.0204  -1.0185  -0.9978  -0.9814
    -0.9792  -0.9775  -0.9578  -0.9499  -0.9467  -0.9282  -0.9168  -0.9134
    -0.8875  -0.8643  -0.8586  -0.8454  -0.8212  -0.8158  -0.8076  -0.8019
    -0.7979  -0.7964  -0.7940  -0.7896  -0.7804  -0.7702  -0.7586  -0.7554
    -0.7517  -0.7494  -0.7474  -0.7139  -0.7134  -0.7030  -0.6912  -0.6847
    -0.6776  -0.6733  -0.6670  -0.6116  -0.6096  -0.6030  -0.6009  -0.5985
    -0.5960  -0.5841  -0.5743  -0.5725  -0.5654  -0.5647  -0.5629  -0.5535
    -0.5250  -0.5220  -0.5202  -0.5133  -0.5118  -0.5080  -0.5052  -0.4917
    -0.4871  -0.4868  -0.4755  -0.4453  -0.4442  -0.4360  -0.4326  -0.4305
    -0.3572  -0.3524  -0.3516  -0.3501  -0.3423  -0.3376  -0.3049  -0.2942
    -0.2924  -0.2607  -0.2593  -0.2552  -0.1407  -0.1359  -0.0367   0.3775
     0.3781   0.3831   0.3838   0.4462   0.4514   0.8285   0.8326   0.8741
     0.8752   0.9898   1.0665   1.1747   1.1816   1.3977   1.4105   2.0269
     2.0335   2.1894   2.1949   2.3250   2.3331   2.4279   2.4284   2.5822
     2.8194   2.8340   2.9447   3.1653   3.1745   3.2480   3.2512   3.3480
     3.3674   3.5654   3.5841   3.6201   3.8232   3.8260   3.8860   3.8938
     4.1412   4.1487   4.1582   4.3916   4.4339   4.4377   4.4787   4.8075
     4.8193   4.8467   4.9814   5.1551   5.1568   5.2113   5.2416   5.5290
     5.8163   5.9214   5.9384   5.9453   5.9552   6.0098   6.0179   6.0946
     6.1265   6.1452   6.1549   6.1813   6.1862   6.2052   6.2211   6.2420
     6.2479   6.4363   6.5733   6.7049   6.7634   6.8046   6.8857   6.8928
     6.9008   7.0044   7.0103

          k = 0.2500-0.1443 0.1111 (136898 PWs)   bands (ev):

   -18.8315  -6.8757  -6.5379  -5.7515  -5.4575  -5.4022  -5.4006  -4.8642
    -4.8633  -4.7324  -4.7307  -4.5759  -4.5470  -4.4842  -4.4527  -4.4484
    -4.4175  -4.4167  -4.2884  -4.2470  -4.2465  -4.1879  -4.1677  -4.1653
    -4.0642  -4.0630  -4.0281  -4.0267  -4.0265  -4.0002  -3.9789  -3.9782
    -3.8751  -3.8715  -3.8712  -3.8519  -3.8355  -3.8335  -3.8229  -3.8211
    -3.8101  -3.7801  -3.7786  -3.7776  -3.7768  -3.7476  -3.7460  -3.7284
    -3.7266  -3.7178  -3.6783  -3.6738  -3.6401  -3.6274  -3.6238  -3.6184
    -3.6182  -3.5455  -3.5441  -3.5122  -3.5097  -3.5059  -3.4400  -3.4381
    -3.4279  -3.4225  -3.3963  -3.3945  -3.3933  -3.3916  -3.2434  -3.2373
    -3.2238  -3.2137  -3.2104  -3.1922  -3.1909  -3.1718  -3.1663  -3.1227
    -3.1154  -3.1014  -3.0995  -3.0834  -3.0623  -3.0321  -3.0283  -3.0079
    -3.0055  -2.9961  -2.9654  -2.9640  -2.9560  -2.9550  -2.9400  -2.9232
    -2.9026  -2.9008  -2.8815  -2.8783  -2.8766  -2.8733  -2.8715  -2.7977
    -2.7964  -2.7926  -2.7658  -2.7633  -2.7065  -2.7013  -2.6755  -2.6741
    -2.6636  -2.6611  -2.6541  -2.6270  -2.6252  -2.6155  -2.5989  -2.5751
    -2.5735  -2.5702  -2.5526  -2.5519  -2.5430  -2.5402  -2.5377  -2.5359
    -2.5272  -2.4816  -2.4526  -2.4509  -2.4335  -2.4212  -2.4166  -2.4139
    -2.4074  -2.4052  -2.4039  -2.3764  -2.3755  -2.3744  -2.3657  -2.3635
    -2.3496  -2.3245  -2.3212  -2.3204  -2.3181  -2.3177  -2.2721  -2.2432
    -2.2422  -2.2401  -2.2351  -2.2245  -2.2162  -2.2135  -2.1954  -2.1949
    -2.1673  -2.1614  -2.1607  -2.1440  -2.1432  -2.1419  -2.1098  -2.1088
    -2.0725  -2.0638  -2.0613  -2.0578  -2.0572  -2.0522  -2.0502  -2.0471
    -2.0461  -2.0443  -2.0390  -2.0254  -2.0228  -1.9014  -1.8982  -1.8684
    -1.8602  -1.8572  -1.8509  -1.8496  -1.8384  -1.8339  -1.8316  -1.8300
    -1.8277  -1.8069  -1.8027  -1.8006  -1.7917  -1.7873  -1.7830  -1.7646
    -1.7622  -1.7359  -1.7341  -1.7052  -1.7039  -1.6924  -1.6840  -1.6666
    -1.6645  -1.6620  -1.6461  -1.6326  -1.6312  -1.6249  -1.6235  -1.6003
    -1.5983  -1.5843  -1.5813  -1.5493  -1.5463  -1.5391  -1.4951  -1.4888
    -1.4782  -1.4733  -1.4708  -1.4478  -1.4452  -1.4155  -1.4127  -1.4117
    -1.3801  -1.3709  -1.3683  -1.3522  -1.3503  -1.3316  -1.3275  -1.3241
    -1.2965  -1.2924  -1.2911  -1.2317  -1.2279  -1.2200  -1.2156  -1.2021
    -1.1997  -1.1868  -1.1857  -1.1684  -1.1555  -1.1326  -1.1266  -1.1217
    -1.0977  -1.0801  -1.0773  -1.0683  -1.0656  -1.0635  -1.0627  -1.0578
    -1.0431  -1.0227  -1.0155  -1.0089  -1.0029  -0.9999  -0.9991  -0.9789
    -0.9757  -0.9564  -0.9474  -0.9353  -0.8826  -0.8461  -0.8329  -0.8266
    -0.8257  -0.8174  -0.8142  -0.8054  -0.7935  -0.7796  -0.7736  -0.7637
    -0.7610  -0.7553  -0.7495  -0.7324  -0.7290  -0.7211  -0.7122  -0.6483
    -0.6465  -0.6131  -0.6093  -0.6070  -0.6019  -0.5995  -0.5988  -0.5894
    -0.5856  -0.5823  -0.5686  -0.5446  -0.5247  -0.5140  -0.5103  -0.5007
    -0.4972  -0.4879  -0.4873  -0.4860  -0.4837  -0.4826  -0.4673  -0.4627
    -0.4600  -0.4326  -0.4313  -0.4287  -0.4178  -0.4170  -0.3981  -0.3663
    -0.3654  -0.3571  -0.3540  -0.2907  -0.2877  -0.2540  -0.2526  -0.1969
    -0.1951  -0.1923  -0.1731  -0.1690   0.0606   0.0703   0.4071   0.4075
     0.4981   0.5088   0.6968   0.7178   0.7249   0.8532   0.8569   1.2877
     1.2884   1.3040   1.5700   1.5977   1.5988   1.8722   1.8863   1.9519
     1.9546   1.9774   1.9889   2.2090   2.2103   2.2980   2.2999   2.3796
     2.4354   2.4517   2.6015   2.7051   3.1321   3.1416   3.1445   3.1479
     3.1978   3.2006   3.4916   3.4927   3.7688   3.7809   3.8899   4.1867
     4.2221   4.2340   4.4449   4.4773   4.5238   4.5322   4.6253   4.7329
     4.7456   4.8571   4.8602   5.1598   5.2131   5.2355   5.3632   5.4267
     5.4561   5.6076   5.6213   5.6461   5.6483   5.7041   5.7110   5.7636
     5.8738   6.0717   6.2867   6.3151   6.3741   6.4450   6.4517   6.4627
     6.4685   6.5277   6.6458   6.6931   6.7102   6.8529   6.9282   6.9523
     6.9689   7.0280   7.0820

          k =-0.2500-0.4330 0.1111 (136853 PWs)   bands (ev):

   -18.8315  -6.8736  -6.3308  -5.9347  -5.9324  -5.2544  -4.9244  -4.9234
    -4.8851  -4.8812  -4.5240  -4.5231  -4.4253  -4.4245  -4.4110  -4.3881
    -4.3655  -4.2586  -4.2563  -4.2330  -4.1900  -4.1894  -4.1230  -4.1205
    -4.1157  -4.1132  -4.0925  -4.0871  -4.0859  -4.0182  -4.0136  -3.9853
    -3.9840  -3.9729  -3.9717  -3.9490  -3.9485  -3.9264  -3.9180  -3.9176
    -3.8921  -3.8397  -3.8391  -3.7918  -3.7899  -3.7368  -3.7333  -3.6813
    -3.6777  -3.6767  -3.6761  -3.6409  -3.6082  -3.6055  -3.5954  -3.5945
    -3.5938  -3.5690  -3.5635  -3.5553  -3.4979  -3.4957  -3.4880  -3.4678
    -3.4604  -3.3895  -3.3869  -3.3593  -3.3546  -3.3314  -3.3262  -3.3119
    -3.2973  -3.2471  -3.2373  -3.2206  -3.2185  -3.1808  -3.1639  -3.1628
    -3.1240  -3.1132  -3.0916  -3.0844  -3.0823  -3.0747  -3.0720  -3.0641
    -3.0627  -3.0549  -3.0183  -3.0055  -2.9735  -2.9712  -2.9606  -2.9571
    -2.9312  -2.9243  -2.9211  -2.8925  -2.8551  -2.8532  -2.8466  -2.8084
    -2.8008  -2.7893  -2.7883  -2.7614  -2.7596  -2.7295  -2.6949  -2.6916
    -2.6734  -2.6632  -2.6510  -2.6492  -2.6001  -2.5996  -2.5665  -2.5451
    -2.5430  -2.5200  -2.5171  -2.5086  -2.5056  -2.4978  -2.4766  -2.4753
    -2.4301  -2.4289  -2.4280  -2.4134  -2.4120  -2.4043  -2.3987  -2.3977
    -2.3940  -2.3927  -2.3866  -2.3825  -2.3751  -2.3676  -2.3419  -2.3385
    -2.3371  -2.3350  -2.3334  -2.3322  -2.3304  -2.3055  -2.3038  -2.2886
    -2.2874  -2.2688  -2.2686  -2.2606  -2.2593  -2.2577  -2.2563  -2.2412
    -2.2378  -2.2350  -2.2346  -2.2198  -2.1926  -2.1905  -2.1508  -2.1501
    -2.1287  -2.1274  -2.1009  -2.0977  -2.0726  -2.0704  -2.0550  -2.0497
    -2.0228  -2.0069  -2.0040  -1.9973  -1.9920  -1.9890  -1.9819  -1.9796
    -1.9558  -1.9494  -1.9445  -1.8859  -1.8806  -1.8783  -1.8759  -1.8745
    -1.8463  -1.8206  -1.8191  -1.7929  -1.7906  -1.7348  -1.7329  -1.7021
    -1.6864  -1.6822  -1.6255  -1.6228  -1.6145  -1.6099  -1.6017  -1.5986
    -1.5949  -1.5898  -1.5852  -1.5346  -1.5310  -1.5246  -1.5175  -1.5162
    -1.5014  -1.4975  -1.4678  -1.4634  -1.4492  -1.4457  -1.4446  -1.4376
    -1.4326  -1.4286  -1.4222  -1.4046  -1.4026  -1.3686  -1.3604  -1.3538
    -1.3510  -1.3315  -1.3156  -1.2839  -1.2738  -1.2499  -1.2468  -1.2429
    -1.2135  -1.1735  -1.1657  -1.1604  -1.1586  -1.1552  -1.1526  -1.1455
    -1.1287  -1.1251  -1.0923  -1.0831  -1.0642  -1.0551  -1.0500  -1.0471
    -1.0423  -1.0293  -1.0260  -1.0229  -1.0204  -1.0185  -0.9978  -0.9814
    -0.9792  -0.9775  -0.9578  -0.9499  -0.9467  -0.9282  -0.9168  -0.9134
    -0.8875  -0.8643  -0.8586  -0.8454  -0.8212  -0.8158  -0.8076  -0.8019
    -0.7979  -0.7964  -0.7940  -0.7896  -0.7804  -0.7702  -0.7586  -0.7554
    -0.7517  -0.7494  -0.7474  -0.7139  -0.7134  -0.7030  -0.6912  -0.6847
    -0.6776  -0.6733  -0.6670  -0.6116  -0.6096  -0.6030  -0.6009  -0.5985
    -0.5960  -0.5841  -0.5743  -0.5725  -0.5654  -0.5647  -0.5629  -0.5535
    -0.5250  -0.5220  -0.5202  -0.5133  -0.5118  -0.5080  -0.5052  -0.4917
    -0.4871  -0.4868  -0.4755  -0.4453  -0.4442  -0.4360  -0.4326  -0.4305
    -0.3572  -0.3524  -0.3516  -0.3501  -0.3423  -0.3377  -0.3049  -0.2942
    -0.2924  -0.2607  -0.2593  -0.2552  -0.1407  -0.1359  -0.0367   0.3775
     0.3781   0.3831   0.3838   0.4462   0.4514   0.8285   0.8326   0.8741
     0.8752   0.9898   1.0665   1.1747   1.1816   1.3977   1.4105   2.0269
     2.0335   2.1894   2.1949   2.3250   2.3331   2.4279   2.4284   2.5822
     2.8194   2.8340   2.9447   3.1653   3.1745   3.2480   3.2512   3.3480
     3.3674   3.5654   3.5841   3.6201   3.8232   3.8260   3.8860   3.8938
     4.1412   4.1487   4.1582   4.3916   4.4339   4.4377   4.4787   4.8075
     4.8193   4.8467   4.9814   5.1551   5.1568   5.2113   5.2416   5.5291
     5.8155   5.9213   5.9383   5.9453   5.9552   6.0098   6.0179   6.0942
     6.1267   6.1462   6.1570   6.1815   6.1861   6.2050   6.2209   6.2420
     6.2486   6.4372   6.5740   6.6887   6.7637   6.8040   6.8851   6.8928
     6.8999   7.0050   7.0257

          k =-0.2500 0.4330-0.1111 (136853 PWs)   bands (ev):

   -18.8315  -6.8735  -6.3310  -5.9341  -5.9330  -5.2547  -4.9242  -4.9231
    -4.8840  -4.8821  -4.5249  -4.5224  -4.4256  -4.4248  -4.4108  -4.3881
    -4.3653  -4.2588  -4.2560  -4.2330  -4.1899  -4.1895  -4.1229  -4.1205
    -4.1147  -4.1131  -4.0926  -4.0884  -4.0847  -4.0191  -4.0129  -3.9858
    -3.9826  -3.9725  -3.9721  -3.9495  -3.9483  -3.9260  -3.9185  -3.9176
    -3.8932  -3.8405  -3.8388  -3.7924  -3.7889  -3.7368  -3.7342  -3.6824
    -3.6778  -3.6765  -3.6761  -3.6414  -3.6097  -3.6049  -3.5954  -3.5948
    -3.5934  -3.5667  -3.5637  -3.5557  -3.4984  -3.4952  -3.4875  -3.4681
    -3.4596  -3.3891  -3.3875  -3.3588  -3.3536  -3.3301  -3.3264  -3.3118
    -3.2986  -3.2453  -3.2377  -3.2203  -3.2174  -3.1816  -3.1659  -3.1628
    -3.1250  -3.1078  -3.0920  -3.0904  -3.0819  -3.0798  -3.0721  -3.0637
    -3.0621  -3.0539  -3.0196  -3.0020  -2.9733  -2.9702  -2.9596  -2.9584
    -2.9308  -2.9248  -2.9227  -2.8908  -2.8548  -2.8538  -2.8452  -2.8080
    -2.8005  -2.7891  -2.7887  -2.7615  -2.7588  -2.7296  -2.6942  -2.6932
    -2.6729  -2.6632  -2.6503  -2.6496  -2.6016  -2.5987  -2.5663  -2.5440
    -2.5434  -2.5217  -2.5171  -2.5083  -2.5066  -2.4976  -2.4772  -2.4748
    -2.4307  -2.4283  -2.4276  -2.4136  -2.4124  -2.4044  -2.3993  -2.3981
    -2.3943  -2.3925  -2.3866  -2.3803  -2.3746  -2.3675  -2.3421  -2.3388
    -2.3369  -2.3352  -2.3342  -2.3317  -2.3307  -2.3065  -2.3037  -2.2892
    -2.2867  -2.2693  -2.2684  -2.2614  -2.2584  -2.2576  -2.2559  -2.2413
    -2.2374  -2.2357  -2.2342  -2.2200  -2.1921  -2.1911  -2.1513  -2.1497
    -2.1286  -2.1277  -2.0984  -2.0980  -2.0735  -2.0704  -2.0563  -2.0498
    -2.0219  -2.0076  -2.0009  -1.9945  -1.9929  -1.9892  -1.9833  -1.9810
    -1.9559  -1.9508  -1.9443  -1.8856  -1.8836  -1.8782  -1.8750  -1.8735
    -1.8429  -1.8214  -1.8181  -1.7935  -1.7907  -1.7359  -1.7317  -1.7029
    -1.6846  -1.6829  -1.6261  -1.6228  -1.6137  -1.6096  -1.6014  -1.5992
    -1.5953  -1.5904  -1.5848  -1.5418  -1.5280  -1.5226  -1.5182  -1.5165
    -1.5053  -1.4972  -1.4641  -1.4631  -1.4489  -1.4469  -1.4445  -1.4379
    -1.4333  -1.4261  -1.4224  -1.4042  -1.4029  -1.3702  -1.3605  -1.3579
    -1.3502  -1.3320  -1.3155  -1.2769  -1.2739  -1.2479  -1.2448  -1.2424
    -1.2139  -1.1724  -1.1650  -1.1599  -1.1579  -1.1553  -1.1522  -1.1438
    -1.1331  -1.1240  -1.0899  -1.0845  -1.0654  -1.0554  -1.0502  -1.0469
    -1.0426  -1.0314  -1.0268  -1.0230  -1.0216  -1.0178  -0.9974  -0.9829
    -0.9801  -0.9784  -0.9673  -0.9498  -0.9455  -0.9323  -0.9179  -0.9108
    -0.8892  -0.8621  -0.8581  -0.8424  -0.8174  -0.8145  -0.8056  -0.8041
    -0.7985  -0.7961  -0.7935  -0.7875  -0.7811  -0.7679  -0.7582  -0.7563
    -0.7523  -0.7503  -0.7426  -0.7138  -0.7128  -0.7017  -0.6952  -0.6809
    -0.6784  -0.6695  -0.6634  -0.6117  -0.6093  -0.6025  -0.6010  -0.5994
    -0.5949  -0.5913  -0.5740  -0.5704  -0.5656  -0.5642  -0.5623  -0.5540
    -0.5243  -0.5228  -0.5203  -0.5128  -0.5098  -0.5063  -0.5039  -0.4912
    -0.4898  -0.4868  -0.4841  -0.4455  -0.4435  -0.4369  -0.4318  -0.4302
    -0.3580  -0.3529  -0.3509  -0.3498  -0.3425  -0.3402  -0.3057  -0.2939
    -0.2920  -0.2619  -0.2603  -0.2529  -0.1427  -0.1362  -0.0375   0.3777
     0.3789   0.3827   0.3836   0.4458   0.4504   0.8299   0.8330   0.8735
     0.8747   0.9902   1.0665   1.1742   1.1824   1.3987   1.4096   2.0279
     2.0326   2.1897   2.1950   2.3267   2.3299   2.4276   2.4286   2.5822
     2.8195   2.8349   2.9457   3.1673   3.1741   3.2486   3.2513   3.3505
     3.3671   3.5664   3.5835   3.6231   3.8218   3.8267   3.8847   3.8912
     4.1399   4.1516   4.1568   4.3921   4.4313   4.4375   4.4804   4.8081
     4.8199   4.8429   4.9779   5.1543   5.1568   5.2106   5.2375   5.5297
     5.8168   5.9287   5.9402   5.9446   5.9537   6.0100   6.0193   6.0977
     6.1239   6.1423   6.1579   6.1809   6.1885   6.2063   6.2267   6.2368
     6.2470   6.4380   6.5723   6.6885   6.7621   6.8033   6.8763   6.8932
     6.8983   7.0080   7.0280

          k = 0.2500-0.4330-0.1111 (136853 PWs)   bands (ev):

   -18.8315  -6.8735  -6.3310  -5.9341  -5.9330  -5.2547  -4.9242  -4.9231
    -4.8840  -4.8821  -4.5249  -4.5224  -4.4256  -4.4248  -4.4108  -4.3881
    -4.3653  -4.2588  -4.2560  -4.2330  -4.1899  -4.1895  -4.1229  -4.1205
    -4.1147  -4.1131  -4.0926  -4.0884  -4.0847  -4.0191  -4.0129  -3.9858
    -3.9826  -3.9725  -3.9721  -3.9495  -3.9483  -3.9260  -3.9185  -3.9176
    -3.8932  -3.8405  -3.8388  -3.7924  -3.7889  -3.7368  -3.7342  -3.6824
    -3.6778  -3.6765  -3.6761  -3.6414  -3.6097  -3.6049  -3.5954  -3.5948
    -3.5934  -3.5667  -3.5637  -3.5557  -3.4984  -3.4952  -3.4875  -3.4681
    -3.4596  -3.3891  -3.3875  -3.3588  -3.3536  -3.3301  -3.3264  -3.3118
    -3.2986  -3.2453  -3.2377  -3.2203  -3.2174  -3.1816  -3.1659  -3.1628
    -3.1250  -3.1078  -3.0920  -3.0904  -3.0819  -3.0798  -3.0721  -3.0637
    -3.0621  -3.0539  -3.0196  -3.0020  -2.9733  -2.9702  -2.9596  -2.9584
    -2.9308  -2.9248  -2.9227  -2.8908  -2.8548  -2.8538  -2.8452  -2.8080
    -2.8005  -2.7891  -2.7887  -2.7615  -2.7588  -2.7296  -2.6942  -2.6932
    -2.6729  -2.6632  -2.6503  -2.6496  -2.6016  -2.5987  -2.5663  -2.5440
    -2.5434  -2.5217  -2.5171  -2.5083  -2.5066  -2.4976  -2.4772  -2.4748
    -2.4307  -2.4283  -2.4276  -2.4136  -2.4124  -2.4044  -2.3993  -2.3981
    -2.3943  -2.3925  -2.3866  -2.3803  -2.3746  -2.3675  -2.3421  -2.3388
    -2.3369  -2.3352  -2.3342  -2.3317  -2.3307  -2.3065  -2.3037  -2.2892
    -2.2867  -2.2693  -2.2684  -2.2614  -2.2584  -2.2576  -2.2559  -2.2413
    -2.2374  -2.2357  -2.2342  -2.2200  -2.1921  -2.1911  -2.1513  -2.1497
    -2.1286  -2.1277  -2.0984  -2.0980  -2.0735  -2.0704  -2.0563  -2.0498
    -2.0219  -2.0076  -2.0009  -1.9945  -1.9929  -1.9892  -1.9833  -1.9810
    -1.9559  -1.9508  -1.9443  -1.8856  -1.8836  -1.8782  -1.8750  -1.8735
    -1.8429  -1.8214  -1.8181  -1.7935  -1.7907  -1.7359  -1.7317  -1.7029
    -1.6846  -1.6829  -1.6261  -1.6228  -1.6137  -1.6096  -1.6014  -1.5992
    -1.5953  -1.5904  -1.5848  -1.5418  -1.5280  -1.5226  -1.5182  -1.5165
    -1.5053  -1.4972  -1.4641  -1.4631  -1.4489  -1.4469  -1.4445  -1.4379
    -1.4333  -1.4261  -1.4224  -1.4042  -1.4029  -1.3702  -1.3605  -1.3580
    -1.3502  -1.3320  -1.3155  -1.2769  -1.2739  -1.2479  -1.2448  -1.2424
    -1.2139  -1.1724  -1.1650  -1.1599  -1.1579  -1.1553  -1.1522  -1.1438
    -1.1331  -1.1240  -1.0899  -1.0845  -1.0654  -1.0554  -1.0502  -1.0469
    -1.0426  -1.0314  -1.0268  -1.0230  -1.0216  -1.0178  -0.9974  -0.9829
    -0.9801  -0.9784  -0.9673  -0.9498  -0.9455  -0.9323  -0.9179  -0.9108
    -0.8892  -0.8621  -0.8581  -0.8424  -0.8174  -0.8145  -0.8056  -0.8041
    -0.7985  -0.7961  -0.7935  -0.7875  -0.7811  -0.7679  -0.7582  -0.7563
    -0.7523  -0.7503  -0.7426  -0.7138  -0.7128  -0.7017  -0.6952  -0.6809
    -0.6784  -0.6695  -0.6634  -0.6117  -0.6093  -0.6025  -0.6010  -0.5994
    -0.5949  -0.5913  -0.5740  -0.5704  -0.5656  -0.5642  -0.5623  -0.5540
    -0.5243  -0.5228  -0.5203  -0.5128  -0.5098  -0.5063  -0.5039  -0.4912
    -0.4898  -0.4868  -0.4841  -0.4455  -0.4435  -0.4369  -0.4318  -0.4302
    -0.3580  -0.3529  -0.3509  -0.3498  -0.3425  -0.3402  -0.3057  -0.2939
    -0.2920  -0.2619  -0.2603  -0.2529  -0.1427  -0.1362  -0.0375   0.3777
     0.3789   0.3827   0.3836   0.4458   0.4504   0.8299   0.8330   0.8735
     0.8747   0.9902   1.0665   1.1742   1.1824   1.3987   1.4096   2.0279
     2.0326   2.1897   2.1950   2.3267   2.3299   2.4276   2.4286   2.5822
     2.8195   2.8349   2.9457   3.1673   3.1741   3.2486   3.2513   3.3505
     3.3671   3.5664   3.5835   3.6231   3.8218   3.8267   3.8847   3.8912
     4.1399   4.1516   4.1568   4.3921   4.4313   4.4374   4.4804   4.8081
     4.8199   4.8429   4.9779   5.1543   5.1568   5.2106   5.2375   5.5296
     5.8177   5.9286   5.9404   5.9446   5.9537   6.0100   6.0193   6.0980
     6.1239   6.1422   6.1552   6.1809   6.1882   6.2063   6.2265   6.2366
     6.2467   6.4371   6.5717   6.7048   6.7618   6.8044   6.8769   6.8935
     6.8985   7.0063   7.0153

          k = 0.5000 0.0000 0.1111 (136853 PWs)   bands (ev):

   -18.8315  -6.8736  -6.3308  -5.9338  -5.9333  -5.2544  -4.9255  -4.9224
    -4.8849  -4.8815  -4.5249  -4.5220  -4.4254  -4.4245  -4.4105  -4.3880
    -4.3653  -4.2591  -4.2566  -4.2334  -4.1900  -4.1893  -4.1231  -4.1200
    -4.1177  -4.1125  -4.0923  -4.0891  -4.0838  -4.0201  -4.0118  -3.9858
    -3.9830  -3.9729  -3.9714  -3.9492  -3.9485  -3.9262  -3.9184  -3.9173
    -3.8921  -3.8399  -3.8389  -3.7924  -3.7889  -3.7347  -3.7329  -3.6790
    -3.6777  -3.6769  -3.6757  -3.6413  -3.6077  -3.6043  -3.5974  -3.5953
    -3.5933  -3.5746  -3.5639  -3.5555  -3.4976  -3.4950  -3.4913  -3.4671
    -3.4598  -3.3932  -3.3862  -3.3633  -3.3531  -3.3280  -3.3260  -3.3118
    -3.2961  -3.2407  -3.2379  -3.2206  -3.2184  -3.1775  -3.1675  -3.1625
    -3.1230  -3.1102  -3.0955  -3.0897  -3.0817  -3.0797  -3.0721  -3.0642
    -3.0620  -3.0528  -3.0164  -3.0059  -2.9741  -2.9695  -2.9604  -2.9543
    -2.9310  -2.9249  -2.9212  -2.8906  -2.8553  -2.8535  -2.8465  -2.8090
    -2.8008  -2.7899  -2.7879  -2.7625  -2.7571  -2.7295  -2.6937  -2.6934
    -2.6734  -2.6632  -2.6510  -2.6488  -2.6018  -2.5982  -2.5662  -2.5444
    -2.5426  -2.5217  -2.5187  -2.5085  -2.5055  -2.4976  -2.4774  -2.4751
    -2.4310  -2.4291  -2.4271  -2.4135  -2.4124  -2.4044  -2.3987  -2.3973
    -2.3943  -2.3928  -2.3867  -2.3800  -2.3749  -2.3687  -2.3419  -2.3390
    -2.3363  -2.3356  -2.3342  -2.3326  -2.3297  -2.3064  -2.3039  -2.2888
    -2.2869  -2.2693  -2.2685  -2.2622  -2.2592  -2.2582  -2.2543  -2.2416
    -2.2388  -2.2348  -2.2331  -2.2204  -2.1926  -2.1908  -2.1513  -2.1496
    -2.1288  -2.1275  -2.0998  -2.0969  -2.0727  -2.0704  -2.0556  -2.0496
    -2.0221  -2.0067  -2.0037  -1.9963  -1.9923  -1.9872  -1.9826  -1.9799
    -1.9566  -1.9484  -1.9448  -1.8864  -1.8836  -1.8789  -1.8755  -1.8738
    -1.8450  -1.8214  -1.8181  -1.7943  -1.7905  -1.7359  -1.7321  -1.7034
    -1.6848  -1.6813  -1.6259  -1.6221  -1.6159  -1.6094  -1.6016  -1.5983
    -1.5948  -1.5900  -1.5848  -1.5339  -1.5286  -1.5237  -1.5174  -1.5153
    -1.5011  -1.4967  -1.4709  -1.4636  -1.4497  -1.4465  -1.4450  -1.4385
    -1.4360  -1.4276  -1.4221  -1.4054  -1.4017  -1.3661  -1.3624  -1.3552
    -1.3493  -1.3321  -1.3155  -1.2811  -1.2745  -1.2487  -1.2460  -1.2439
    -1.2148  -1.1739  -1.1645  -1.1603  -1.1584  -1.1536  -1.1520  -1.1428
    -1.1305  -1.1268  -1.0898  -1.0820  -1.0648  -1.0548  -1.0510  -1.0467
    -1.0419  -1.0385  -1.0281  -1.0228  -1.0209  -1.0183  -0.9908  -0.9816
    -0.9793  -0.9776  -0.9564  -0.9490  -0.9439  -0.9348  -0.9152  -0.9111
    -0.9011  -0.8676  -0.8604  -0.8420  -0.8196  -0.8121  -0.8060  -0.8036
    -0.7974  -0.7956  -0.7938  -0.7884  -0.7804  -0.7667  -0.7585  -0.7571
    -0.7524  -0.7498  -0.7402  -0.7135  -0.7129  -0.7045  -0.6972  -0.6836
    -0.6789  -0.6681  -0.6573  -0.6115  -0.6078  -0.6029  -0.6007  -0.5979
    -0.5969  -0.5929  -0.5748  -0.5710  -0.5666  -0.5644  -0.5633  -0.5552
    -0.5240  -0.5230  -0.5209  -0.5129  -0.5108  -0.5065  -0.5020  -0.4907
    -0.4883  -0.4856  -0.4836  -0.4469  -0.4428  -0.4368  -0.4314  -0.4294
    -0.3577  -0.3523  -0.3511  -0.3497  -0.3423  -0.3408  -0.3057  -0.2943
    -0.2923  -0.2630  -0.2608  -0.2521  -0.1417  -0.1353  -0.0366   0.3777
     0.3790   0.3829   0.3835   0.4423   0.4527   0.8298   0.8321   0.8718
     0.8769   0.9917   1.0670   1.1724   1.1856   1.3928   1.4141   2.0268
     2.0332   2.1853   2.1997   2.3189   2.3361   2.4277   2.4285   2.5821
     2.8197   2.8363   2.9458   3.1632   3.1786   3.2478   3.2523   3.3505
     3.3672   3.5564   3.5902   3.6237   3.8225   3.8262   3.8813   3.8959
     4.1390   4.1470   4.1627   4.3924   4.4291   4.4381   4.4806   4.8098
     4.8194   4.8430   4.9757   5.1528   5.1584   5.2018   5.2496   5.5331
     5.8058   5.9226   5.9423   5.9509   5.9577   6.0104   6.0190   6.0917
     6.1192   6.1493   6.1528   6.1825   6.1906   6.1982   6.2218   6.2404
     6.2507   6.4369   6.5784   6.6938   6.7648   6.8156   6.8797   6.8938
     6.9021   7.0056   7.0198

          k =-0.5000 0.0000 0.1111 (136853 PWs)   bands (ev):

   -18.8315  -6.8736  -6.3308  -5.9338  -5.9333  -5.2544  -4.9255  -4.9224
    -4.8849  -4.8815  -4.5249  -4.5220  -4.4254  -4.4245  -4.4105  -4.3880
    -4.3653  -4.2591  -4.2566  -4.2334  -4.1900  -4.1893  -4.1231  -4.1200
    -4.1177  -4.1125  -4.0923  -4.0891  -4.0838  -4.0201  -4.0118  -3.9858
    -3.9830  -3.9729  -3.9714  -3.9492  -3.9485  -3.9262  -3.9184  -3.9173
    -3.8921  -3.8399  -3.8389  -3.7924  -3.7889  -3.7347  -3.7329  -3.6790
    -3.6777  -3.6769  -3.6757  -3.6413  -3.6077  -3.6043  -3.5974  -3.5953
    -3.5933  -3.5746  -3.5639  -3.5555  -3.4976  -3.4950  -3.4913  -3.4671
    -3.4598  -3.3932  -3.3862  -3.3633  -3.3531  -3.3280  -3.3260  -3.3118
    -3.2961  -3.2407  -3.2379  -3.2206  -3.2184  -3.1775  -3.1675  -3.1625
    -3.1230  -3.1102  -3.0955  -3.0897  -3.0817  -3.0797  -3.0721  -3.0642
    -3.0620  -3.0528  -3.0164  -3.0059  -2.9741  -2.9695  -2.9604  -2.9543
    -2.9310  -2.9249  -2.9212  -2.8906  -2.8553  -2.8535  -2.8465  -2.8090
    -2.8008  -2.7899  -2.7879  -2.7625  -2.7571  -2.7295  -2.6937  -2.6934
    -2.6734  -2.6632  -2.6510  -2.6488  -2.6018  -2.5982  -2.5662  -2.5444
    -2.5426  -2.5217  -2.5187  -2.5085  -2.5055  -2.4976  -2.4774  -2.4751
    -2.4310  -2.4291  -2.4271  -2.4135  -2.4124  -2.4044  -2.3987  -2.3973
    -2.3943  -2.3928  -2.3867  -2.3800  -2.3749  -2.3687  -2.3419  -2.3390
    -2.3363  -2.3356  -2.3342  -2.3326  -2.3297  -2.3064  -2.3039  -2.2888
    -2.2869  -2.2693  -2.2685  -2.2622  -2.2592  -2.2582  -2.2543  -2.2416
    -2.2388  -2.2348  -2.2331  -2.2204  -2.1926  -2.1908  -2.1513  -2.1496
    -2.1288  -2.1275  -2.0998  -2.0969  -2.0727  -2.0704  -2.0556  -2.0496
    -2.0221  -2.0067  -2.0037  -1.9963  -1.9923  -1.9872  -1.9826  -1.9799
    -1.9566  -1.9484  -1.9448  -1.8864  -1.8836  -1.8789  -1.8755  -1.8738
    -1.8450  -1.8214  -1.8181  -1.7943  -1.7905  -1.7359  -1.7321  -1.7034
    -1.6848  -1.6813  -1.6259  -1.6221  -1.6159  -1.6094  -1.6016  -1.5983
    -1.5948  -1.5900  -1.5848  -1.5339  -1.5286  -1.5237  -1.5174  -1.5153
    -1.5011  -1.4967  -1.4709  -1.4636  -1.4497  -1.4465  -1.4450  -1.4385
    -1.4360  -1.4276  -1.4221  -1.4054  -1.4017  -1.3661  -1.3624  -1.3552
    -1.3493  -1.3321  -1.3155  -1.2811  -1.2745  -1.2487  -1.2460  -1.2439
    -1.2148  -1.1739  -1.1645  -1.1603  -1.1584  -1.1535  -1.1520  -1.1428
    -1.1305  -1.1268  -1.0898  -1.0820  -1.0648  -1.0548  -1.0510  -1.0467
    -1.0419  -1.0385  -1.0281  -1.0228  -1.0209  -1.0183  -0.9908  -0.9816
    -0.9793  -0.9776  -0.9564  -0.9490  -0.9439  -0.9348  -0.9152  -0.9111
    -0.9011  -0.8676  -0.8604  -0.8420  -0.8196  -0.8121  -0.8060  -0.8036
    -0.7974  -0.7956  -0.7938  -0.7884  -0.7804  -0.7667  -0.7585  -0.7571
    -0.7524  -0.7498  -0.7402  -0.7135  -0.7129  -0.7045  -0.6972  -0.6836
    -0.6789  -0.6681  -0.6573  -0.6115  -0.6078  -0.6029  -0.6007  -0.5979
    -0.5969  -0.5929  -0.5748  -0.5710  -0.5666  -0.5644  -0.5633  -0.5552
    -0.5240  -0.5230  -0.5209  -0.5129  -0.5109  -0.5065  -0.5020  -0.4907
    -0.4883  -0.4856  -0.4836  -0.4469  -0.4428  -0.4368  -0.4314  -0.4294
    -0.3577  -0.3523  -0.3511  -0.3497  -0.3423  -0.3408  -0.3057  -0.2943
    -0.2923  -0.2630  -0.2608  -0.2521  -0.1417  -0.1353  -0.0366   0.3777
     0.3790   0.3829   0.3835   0.4423   0.4527   0.8298   0.8321   0.8718
     0.8769   0.9917   1.0670   1.1724   1.1856   1.3928   1.4141   2.0268
     2.0332   2.1853   2.1997   2.3189   2.3361   2.4277   2.4285   2.5821
     2.8197   2.8363   2.9458   3.1632   3.1786   3.2478   3.2523   3.3505
     3.3672   3.5564   3.5902   3.6237   3.8225   3.8262   3.8813   3.8959
     4.1390   4.1470   4.1627   4.3924   4.4291   4.4381   4.4806   4.8098
     4.8194   4.8430   4.9757   5.1528   5.1584   5.2018   5.2496   5.5331
     5.8058   5.9226   5.9422   5.9510   5.9577   6.0104   6.0191   6.0918
     6.1191   6.1491   6.1530   6.1825   6.1905   6.1982   6.2218   6.2405
     6.2506   6.4370   6.5783   6.6937   6.7651   6.8159   6.8797   6.8937
     6.9028   7.0057   7.0198

          k =-0.2500 0.1443 0.1111 (136898 PWs)   bands (ev):

   -18.8315  -6.8757  -6.5379  -5.7515  -5.4575  -5.4022  -5.4006  -4.8642
    -4.8633  -4.7324  -4.7307  -4.5759  -4.5470  -4.4842  -4.4527  -4.4484
    -4.4175  -4.4167  -4.2884  -4.2470  -4.2465  -4.1879  -4.1677  -4.1653
    -4.0642  -4.0630  -4.0281  -4.0267  -4.0265  -4.0002  -3.9789  -3.9782
    -3.8751  -3.8715  -3.8712  -3.8519  -3.8355  -3.8335  -3.8229  -3.8211
    -3.8101  -3.7801  -3.7786  -3.7776  -3.7768  -3.7476  -3.7460  -3.7284
    -3.7266  -3.7178  -3.6783  -3.6738  -3.6401  -3.6274  -3.6238  -3.6184
    -3.6182  -3.5455  -3.5441  -3.5122  -3.5097  -3.5058  -3.4400  -3.4381
    -3.4279  -3.4225  -3.3963  -3.3945  -3.3933  -3.3916  -3.2434  -3.2373
    -3.2238  -3.2137  -3.2104  -3.1922  -3.1909  -3.1718  -3.1663  -3.1227
    -3.1154  -3.1014  -3.0995  -3.0834  -3.0623  -3.0320  -3.0283  -3.0079
    -3.0055  -2.9961  -2.9654  -2.9640  -2.9560  -2.9550  -2.9400  -2.9232
    -2.9026  -2.9007  -2.8815  -2.8783  -2.8766  -2.8733  -2.8715  -2.7977
    -2.7964  -2.7926  -2.7658  -2.7633  -2.7065  -2.7013  -2.6755  -2.6741
    -2.6636  -2.6611  -2.6541  -2.6270  -2.6252  -2.6155  -2.5989  -2.5752
    -2.5735  -2.5702  -2.5526  -2.5519  -2.5430  -2.5402  -2.5377  -2.5359
    -2.5272  -2.4816  -2.4526  -2.4509  -2.4335  -2.4212  -2.4167  -2.4139
    -2.4074  -2.4052  -2.4039  -2.3764  -2.3755  -2.3744  -2.3657  -2.3635
    -2.3496  -2.3245  -2.3212  -2.3204  -2.3181  -2.3177  -2.2720  -2.2432
    -2.2422  -2.2401  -2.2351  -2.2245  -2.2162  -2.2135  -2.1954  -2.1949
    -2.1673  -2.1614  -2.1607  -2.1440  -2.1432  -2.1419  -2.1098  -2.1088
    -2.0725  -2.0638  -2.0613  -2.0578  -2.0572  -2.0522  -2.0502  -2.0471
    -2.0461  -2.0443  -2.0390  -2.0254  -2.0228  -1.9014  -1.8982  -1.8684
    -1.8602  -1.8572  -1.8509  -1.8496  -1.8384  -1.8339  -1.8316  -1.8300
    -1.8277  -1.8069  -1.8027  -1.8006  -1.7917  -1.7873  -1.7830  -1.7646
    -1.7622  -1.7359  -1.7341  -1.7052  -1.7039  -1.6924  -1.6840  -1.6666
    -1.6645  -1.6620  -1.6461  -1.6326  -1.6312  -1.6249  -1.6235  -1.6003
    -1.5983  -1.5843  -1.5813  -1.5493  -1.5463  -1.5391  -1.4951  -1.4888
    -1.4782  -1.4733  -1.4708  -1.4478  -1.4452  -1.4155  -1.4127  -1.4117
    -1.3801  -1.3709  -1.3683  -1.3522  -1.3503  -1.3316  -1.3275  -1.3241
    -1.2965  -1.2924  -1.2911  -1.2317  -1.2279  -1.2200  -1.2156  -1.2021
    -1.1997  -1.1868  -1.1857  -1.1684  -1.1555  -1.1326  -1.1266  -1.1217
    -1.0977  -1.0801  -1.0773  -1.0683  -1.0655  -1.0635  -1.0627  -1.0578
    -1.0431  -1.0227  -1.0155  -1.0089  -1.0029  -0.9998  -0.9991  -0.9789
    -0.9757  -0.9564  -0.9474  -0.9353  -0.8826  -0.8461  -0.8329  -0.8266
    -0.8257  -0.8174  -0.8142  -0.8054  -0.7935  -0.7796  -0.7736  -0.7636
    -0.7610  -0.7553  -0.7495  -0.7324  -0.7290  -0.7211  -0.7122  -0.6483
    -0.6465  -0.6131  -0.6093  -0.6070  -0.6019  -0.5995  -0.5989  -0.5894
    -0.5856  -0.5823  -0.5686  -0.5446  -0.5247  -0.5140  -0.5103  -0.5007
    -0.4972  -0.4879  -0.4873  -0.4860  -0.4837  -0.4827  -0.4673  -0.4627
    -0.4600  -0.4326  -0.4313  -0.4287  -0.4178  -0.4170  -0.3981  -0.3663
    -0.3654  -0.3571  -0.3540  -0.2907  -0.2877  -0.2540  -0.2526  -0.1969
    -0.1951  -0.1923  -0.1731  -0.1690   0.0606   0.0703   0.4071   0.4075
     0.4981   0.5088   0.6968   0.7178   0.7249   0.8532   0.8569   1.2877
     1.2884   1.3040   1.5700   1.5977   1.5988   1.8722   1.8863   1.9519
     1.9547   1.9774   1.9889   2.2090   2.2103   2.2980   2.2999   2.3796
     2.4354   2.4517   2.6015   2.7051   3.1321   3.1416   3.1445   3.1479
     3.1978   3.2006   3.4916   3.4927   3.7688   3.7809   3.8899   4.1867
     4.2221   4.2340   4.4448   4.4773   4.5238   4.5322   4.6253   4.7329
     4.7456   4.8571   4.8602   5.1598   5.2131   5.2355   5.3633   5.4267
     5.4560   5.6076   5.6213   5.6461   5.6483   5.7041   5.7110   5.7633
     5.8754   6.0689   6.2858   6.3146   6.3738   6.4447   6.4519   6.4626
     6.4677   6.5354   6.6514   6.6935   6.7102   6.8500   6.9263   6.9520
     6.9689   7.0271   7.0769

          k =-0.2500-0.1443-0.1111 (136898 PWs)   bands (ev):

   -18.8315  -6.8759  -6.5377  -5.7511  -5.4574  -5.4027  -5.4009  -4.8644
    -4.8633  -4.7316  -4.7305  -4.5759  -4.5470  -4.4840  -4.4538  -4.4487
    -4.4175  -4.4169  -4.2885  -4.2467  -4.2466  -4.1868  -4.1683  -4.1656
    -4.0637  -4.0632  -4.0280  -4.0270  -4.0264  -4.0003  -3.9790  -3.9782
    -3.8753  -3.8720  -3.8711  -3.8513  -3.8358  -3.8335  -3.8227  -3.8211
    -3.8096  -3.7796  -3.7786  -3.7776  -3.7769  -3.7478  -3.7461  -3.7285
    -3.7268  -3.7166  -3.6792  -3.6738  -3.6395  -3.6270  -3.6234  -3.6186
    -3.6182  -3.5454  -3.5441  -3.5115  -3.5102  -3.5062  -3.4401  -3.4386
    -3.4270  -3.4225  -3.3976  -3.3943  -3.3935  -3.3917  -3.2471  -3.2366
    -3.2225  -3.2136  -3.2095  -3.1931  -3.1909  -3.1722  -3.1666  -3.1219
    -3.1154  -3.1037  -3.0987  -3.0790  -3.0636  -3.0325  -3.0200  -3.0112
    -3.0055  -2.9970  -2.9653  -2.9612  -2.9562  -2.9529  -2.9433  -2.9339
    -2.9022  -2.8995  -2.8813  -2.8785  -2.8761  -2.8727  -2.8695  -2.7979
    -2.7966  -2.7933  -2.7653  -2.7626  -2.7041  -2.7038  -2.6756  -2.6738
    -2.6620  -2.6607  -2.6541  -2.6267  -2.6257  -2.6156  -2.5991  -2.5767
    -2.5746  -2.5691  -2.5530  -2.5517  -2.5437  -2.5395  -2.5372  -2.5357
    -2.5272  -2.4815  -2.4521  -2.4504  -2.4354  -2.4223  -2.4161  -2.4136
    -2.4083  -2.4056  -2.4037  -2.3762  -2.3750  -2.3742  -2.3646  -2.3630
    -2.3495  -2.3239  -2.3220  -2.3201  -2.3182  -2.3173  -2.2722  -2.2441
    -2.2428  -2.2401  -2.2352  -2.2246  -2.2146  -2.2129  -2.1950  -2.1948
    -2.1675  -2.1620  -2.1606  -2.1435  -2.1430  -2.1413  -2.1119  -2.1086
    -2.0724  -2.0637  -2.0611  -2.0590  -2.0566  -2.0519  -2.0503  -2.0482
    -2.0467  -2.0423  -2.0397  -2.0253  -2.0230  -1.9005  -1.8976  -1.8662
    -1.8600  -1.8567  -1.8504  -1.8498  -1.8426  -1.8358  -1.8311  -1.8297
    -1.8269  -1.8063  -1.8015  -1.8003  -1.7920  -1.7857  -1.7837  -1.7643
    -1.7624  -1.7349  -1.7337  -1.7110  -1.7040  -1.6928  -1.6844  -1.6671
    -1.6648  -1.6621  -1.6461  -1.6321  -1.6311  -1.6247  -1.6235  -1.6010
    -1.5980  -1.5831  -1.5805  -1.5499  -1.5466  -1.5413  -1.4909  -1.4892
    -1.4768  -1.4740  -1.4720  -1.4479  -1.4449  -1.4155  -1.4140  -1.4110
    -1.3815  -1.3696  -1.3681  -1.3523  -1.3507  -1.3354  -1.3251  -1.3231
    -1.2956  -1.2920  -1.2906  -1.2314  -1.2289  -1.2202  -1.2150  -1.2038
    -1.2001  -1.1896  -1.1853  -1.1680  -1.1555  -1.1349  -1.1265  -1.1178
    -1.0967  -1.0810  -1.0757  -1.0670  -1.0651  -1.0640  -1.0605  -1.0581
    -1.0431  -1.0288  -1.0170  -1.0116  -1.0016  -0.9999  -0.9966  -0.9813
    -0.9695  -0.9554  -0.9434  -0.9343  -0.8868  -0.8451  -0.8321  -0.8268
    -0.8259  -0.8173  -0.8144  -0.8055  -0.7936  -0.7805  -0.7735  -0.7701
    -0.7603  -0.7563  -0.7473  -0.7326  -0.7271  -0.7211  -0.7127  -0.6479
    -0.6466  -0.6125  -0.6090  -0.6078  -0.6012  -0.6001  -0.5993  -0.5955
    -0.5857  -0.5768  -0.5663  -0.5445  -0.5319  -0.5131  -0.5111  -0.5009
    -0.4986  -0.4896  -0.4866  -0.4859  -0.4837  -0.4786  -0.4673  -0.4625
    -0.4595  -0.4327  -0.4297  -0.4279  -0.4172  -0.4157  -0.3981  -0.3667
    -0.3657  -0.3571  -0.3548  -0.2890  -0.2876  -0.2539  -0.2526  -0.1961
    -0.1951  -0.1924  -0.1749  -0.1691   0.0623   0.0704   0.4072   0.4077
     0.4998   0.5086   0.6950   0.7169   0.7269   0.8539   0.8568   1.2873
     1.2883   1.3058   1.5693   1.5974   1.5983   1.8732   1.8869   1.9503
     1.9540   1.9787   1.9887   2.2078   2.2095   2.2983   2.2999   2.3792
     2.4357   2.4524   2.6024   2.7034   3.1315   3.1418   3.1436   3.1481
     3.1967   3.1999   3.4899   3.4927   3.7678   3.7816   3.8885   4.1888
     4.2220   4.2339   4.4468   4.4784   4.5276   4.5322   4.6211   4.7397
     4.7428   4.8534   4.8609   5.1565   5.2247   5.2338   5.3643   5.4283
     5.4560   5.6151   5.6205   5.6434   5.6476   5.6999   5.7118   5.7586
     5.8756   6.0676   6.2850   6.3119   6.3753   6.4432   6.4520   6.4572
     6.4707   6.5342   6.6519   6.7002   6.7085   6.8494   6.9250   6.9566
     6.9672   7.0249   7.0751

          k = 0.2500 0.1443-0.1111 (136898 PWs)   bands (ev):

   -18.8315  -6.8759  -6.5377  -5.7511  -5.4574  -5.4027  -5.4009  -4.8644
    -4.8633  -4.7316  -4.7305  -4.5759  -4.5470  -4.4840  -4.4538  -4.4487
    -4.4175  -4.4169  -4.2885  -4.2467  -4.2466  -4.1868  -4.1683  -4.1656
    -4.0637  -4.0632  -4.0280  -4.0270  -4.0264  -4.0003  -3.9790  -3.9782
    -3.8753  -3.8720  -3.8711  -3.8513  -3.8358  -3.8335  -3.8227  -3.8211
    -3.8096  -3.7796  -3.7786  -3.7776  -3.7769  -3.7477  -3.7461  -3.7285
    -3.7268  -3.7166  -3.6792  -3.6738  -3.6395  -3.6270  -3.6234  -3.6186
    -3.6182  -3.5454  -3.5441  -3.5115  -3.5102  -3.5062  -3.4401  -3.4386
    -3.4270  -3.4225  -3.3976  -3.3943  -3.3935  -3.3917  -3.2471  -3.2366
    -3.2225  -3.2136  -3.2095  -3.1931  -3.1909  -3.1722  -3.1666  -3.1219
    -3.1154  -3.1037  -3.0987  -3.0790  -3.0636  -3.0325  -3.0200  -3.0112
    -3.0055  -2.9970  -2.9653  -2.9612  -2.9562  -2.9529  -2.9433  -2.9339
    -2.9022  -2.8995  -2.8813  -2.8785  -2.8761  -2.8727  -2.8695  -2.7979
    -2.7966  -2.7933  -2.7653  -2.7626  -2.7041  -2.7038  -2.6756  -2.6738
    -2.6620  -2.6607  -2.6541  -2.6267  -2.6257  -2.6156  -2.5991  -2.5767
    -2.5746  -2.5691  -2.5530  -2.5517  -2.5437  -2.5395  -2.5372  -2.5357
    -2.5272  -2.4815  -2.4521  -2.4504  -2.4353  -2.4223  -2.4161  -2.4136
    -2.4083  -2.4056  -2.4037  -2.3762  -2.3750  -2.3742  -2.3646  -2.3630
    -2.3495  -2.3239  -2.3220  -2.3201  -2.3182  -2.3173  -2.2722  -2.2441
    -2.2428  -2.2401  -2.2352  -2.2246  -2.2146  -2.2129  -2.1950  -2.1948
    -2.1675  -2.1620  -2.1606  -2.1435  -2.1430  -2.1413  -2.1119  -2.1086
    -2.0724  -2.0637  -2.0611  -2.0590  -2.0566  -2.0519  -2.0503  -2.0482
    -2.0467  -2.0423  -2.0397  -2.0253  -2.0230  -1.9005  -1.8976  -1.8662
    -1.8600  -1.8567  -1.8504  -1.8498  -1.8426  -1.8358  -1.8311  -1.8297
    -1.8269  -1.8064  -1.8015  -1.8003  -1.7920  -1.7857  -1.7837  -1.7643
    -1.7624  -1.7349  -1.7337  -1.7110  -1.7040  -1.6928  -1.6844  -1.6671
    -1.6648  -1.6621  -1.6461  -1.6321  -1.6311  -1.6247  -1.6235  -1.6010
    -1.5980  -1.5831  -1.5805  -1.5499  -1.5466  -1.5413  -1.4909  -1.4892
    -1.4768  -1.4740  -1.4720  -1.4479  -1.4449  -1.4155  -1.4140  -1.4111
    -1.3815  -1.3696  -1.3681  -1.3523  -1.3507  -1.3354  -1.3251  -1.3231
    -1.2956  -1.2920  -1.2906  -1.2314  -1.2289  -1.2202  -1.2150  -1.2038
    -1.2001  -1.1896  -1.1853  -1.1680  -1.1555  -1.1349  -1.1265  -1.1178
    -1.0967  -1.0810  -1.0757  -1.0670  -1.0651  -1.0640  -1.0605  -1.0581
    -1.0431  -1.0288  -1.0170  -1.0116  -1.0016  -0.9999  -0.9966  -0.9813
    -0.9695  -0.9554  -0.9434  -0.9343  -0.8868  -0.8451  -0.8321  -0.8268
    -0.8259  -0.8173  -0.8144  -0.8055  -0.7936  -0.7805  -0.7734  -0.7701
    -0.7603  -0.7563  -0.7473  -0.7326  -0.7271  -0.7211  -0.7127  -0.6479
    -0.6466  -0.6125  -0.6090  -0.6078  -0.6012  -0.6001  -0.5993  -0.5955
    -0.5857  -0.5768  -0.5663  -0.5445  -0.5319  -0.5131  -0.5111  -0.5009
    -0.4986  -0.4896  -0.4866  -0.4859  -0.4837  -0.4786  -0.4673  -0.4626
    -0.4595  -0.4327  -0.4297  -0.4279  -0.4172  -0.4157  -0.3981  -0.3667
    -0.3657  -0.3571  -0.3548  -0.2890  -0.2876  -0.2539  -0.2526  -0.1961
    -0.1951  -0.1924  -0.1749  -0.1691   0.0623   0.0704   0.4072   0.4077
     0.4998   0.5086   0.6950   0.7169   0.7269   0.8539   0.8568   1.2873
     1.2883   1.3058   1.5693   1.5974   1.5983   1.8732   1.8869   1.9503
     1.9540   1.9787   1.9887   2.2078   2.2095   2.2983   2.2999   2.3792
     2.4357   2.4524   2.6024   2.7034   3.1315   3.1418   3.1436   3.1481
     3.1967   3.1999   3.4899   3.4927   3.7678   3.7816   3.8885   4.1888
     4.2220   4.2339   4.4468   4.4784   4.5276   4.5322   4.6211   4.7397
     4.7428   4.8534   4.8609   5.1565   5.2247   5.2338   5.3642   5.4283
     5.4561   5.6151   5.6205   5.6434   5.6476   5.6999   5.7118   5.7590
     5.8740   6.0703   6.2859   6.3121   6.3755   6.4432   6.4521   6.4572
     6.4705   6.5284   6.6468   6.6994   6.7086   6.8518   6.9272   6.9569
     6.9670   7.0269   7.0802

          k = 0.0000-0.2887 0.1111 (136898 PWs)   bands (ev):

   -18.8315  -6.8758  -6.5378  -5.7515  -5.4575  -5.4023  -5.4006  -4.8641
    -4.8632  -4.7328  -4.7309  -4.5759  -4.5470  -4.4845  -4.4517  -4.4486
    -4.4174  -4.4165  -4.2884  -4.2470  -4.2464  -4.1882  -4.1671  -4.1654
    -4.0638  -4.0631  -4.0281  -4.0268  -4.0265  -4.0006  -3.9787  -3.9783
    -3.8765  -3.8722  -3.8712  -3.8525  -3.8355  -3.8335  -3.8219  -3.8214
    -3.8113  -3.7787  -3.7783  -3.7777  -3.7768  -3.7473  -3.7455  -3.7285
    -3.7266  -3.7197  -3.6763  -3.6726  -3.6420  -3.6255  -3.6245  -3.6184
    -3.6181  -3.5451  -3.5441  -3.5124  -3.5076  -3.5069  -3.4398  -3.4384
    -3.4276  -3.4225  -3.3964  -3.3942  -3.3936  -3.3920  -3.2476  -3.2370
    -3.2244  -3.2130  -3.2089  -3.1919  -3.1912  -3.1678  -3.1657  -3.1232
    -3.1153  -3.1071  -3.0988  -3.0803  -3.0662  -3.0316  -3.0232  -3.0102
    -3.0060  -2.9925  -2.9657  -2.9611  -2.9567  -2.9549  -2.9408  -2.9323
    -2.9021  -2.8984  -2.8811  -2.8789  -2.8765  -2.8754  -2.8699  -2.7983
    -2.7973  -2.7928  -2.7653  -2.7634  -2.7050  -2.7022  -2.6755  -2.6743
    -2.6619  -2.6599  -2.6540  -2.6265  -2.6257  -2.6156  -2.5989  -2.5770
    -2.5735  -2.5724  -2.5527  -2.5519  -2.5423  -2.5410  -2.5372  -2.5335
    -2.5272  -2.4815  -2.4520  -2.4502  -2.4339  -2.4219  -2.4166  -2.4138
    -2.4074  -2.4058  -2.4041  -2.3762  -2.3752  -2.3738  -2.3651  -2.3629
    -2.3495  -2.3242  -2.3214  -2.3205  -2.3185  -2.3172  -2.2723  -2.2437
    -2.2418  -2.2403  -2.2352  -2.2246  -2.2153  -2.2134  -2.1952  -2.1947
    -2.1675  -2.1612  -2.1606  -2.1443  -2.1433  -2.1419  -2.1106  -2.1085
    -2.0723  -2.0636  -2.0610  -2.0589  -2.0568  -2.0524  -2.0514  -2.0483
    -2.0463  -2.0417  -2.0405  -2.0256  -2.0238  -1.9020  -1.8979  -1.8651
    -1.8594  -1.8576  -1.8507  -1.8501  -1.8401  -1.8346  -1.8314  -1.8303
    -1.8256  -1.8066  -1.8027  -1.8000  -1.7919  -1.7873  -1.7833  -1.7645
    -1.7626  -1.7363  -1.7340  -1.7062  -1.7038  -1.6931  -1.6840  -1.6675
    -1.6652  -1.6621  -1.6463  -1.6325  -1.6312  -1.6245  -1.6240  -1.5992
    -1.5979  -1.5860  -1.5811  -1.5517  -1.5471  -1.5379  -1.4933  -1.4888
    -1.4760  -1.4736  -1.4702  -1.4479  -1.4449  -1.4155  -1.4144  -1.4122
    -1.3786  -1.3705  -1.3695  -1.3520  -1.3509  -1.3285  -1.3268  -1.3213
    -1.2954  -1.2916  -1.2912  -1.2315  -1.2298  -1.2201  -1.2169  -1.2044
    -1.1995  -1.1872  -1.1860  -1.1680  -1.1550  -1.1404  -1.1261  -1.1153
    -1.0915  -1.0844  -1.0774  -1.0687  -1.0650  -1.0639  -1.0602  -1.0570
    -1.0430  -1.0386  -1.0181  -1.0143  -1.0022  -1.0004  -0.9974  -0.9797
    -0.9664  -0.9581  -0.9388  -0.9349  -0.8750  -0.8444  -0.8326  -0.8270
    -0.8261  -0.8192  -0.8140  -0.7969  -0.7937  -0.7866  -0.7760  -0.7670
    -0.7611  -0.7564  -0.7517  -0.7308  -0.7284  -0.7210  -0.7152  -0.6483
    -0.6451  -0.6125  -0.6100  -0.6087  -0.6015  -0.6005  -0.5990  -0.5971
    -0.5863  -0.5715  -0.5670  -0.5445  -0.5306  -0.5128  -0.5104  -0.5008
    -0.4989  -0.4905  -0.4877  -0.4850  -0.4841  -0.4779  -0.4676  -0.4628
    -0.4604  -0.4326  -0.4312  -0.4262  -0.4178  -0.4153  -0.3981  -0.3667
    -0.3653  -0.3571  -0.3559  -0.2904  -0.2859  -0.2544  -0.2522  -0.1967
    -0.1943  -0.1917  -0.1766  -0.1692   0.0646   0.0701   0.4072   0.4076
     0.5034   0.5053   0.6919   0.7174   0.7274   0.8546   0.8560   1.2873
     1.2883   1.3051   1.5691   1.5973   1.5985   1.8786   1.8822   1.9499
     1.9543   1.9833   1.9839   2.2065   2.2111   2.2986   2.2995   2.3805
     2.4409   2.4453   2.6024   2.7038   3.1320   3.1417   3.1448   3.1469
     3.1957   3.2019   3.4905   3.4924   3.7725   3.7770   3.8880   4.1887
     4.2238   4.2308   4.4562   4.4675   4.5264   4.5331   4.6221   4.7363
     4.7467   4.8555   4.8595   5.1568   5.2189   5.2388   5.3787   5.4159
     5.4513   5.6150   5.6194   5.6438   5.6475   5.7044   5.7109   5.7630
     5.8733   6.0813   6.2823   6.3119   6.3620   6.4419   6.4509   6.4621
     6.4670   6.5239   6.6502   6.7037   6.7078   6.8638   6.9234   6.9561
     6.9640   7.0284   7.0748

          k = 0.0000 0.2887 0.1111 (136898 PWs)   bands (ev):

   -18.8315  -6.8758  -6.5378  -5.7515  -5.4575  -5.4023  -5.4006  -4.8641
    -4.8632  -4.7328  -4.7309  -4.5759  -4.5470  -4.4845  -4.4517  -4.4486
    -4.4174  -4.4165  -4.2884  -4.2470  -4.2464  -4.1883  -4.1671  -4.1654
    -4.0638  -4.0631  -4.0281  -4.0268  -4.0265  -4.0006  -3.9787  -3.9783
    -3.8765  -3.8722  -3.8712  -3.8525  -3.8355  -3.8335  -3.8219  -3.8214
    -3.8113  -3.7787  -3.7783  -3.7777  -3.7768  -3.7473  -3.7455  -3.7285
    -3.7266  -3.7197  -3.6763  -3.6726  -3.6420  -3.6255  -3.6244  -3.6184
    -3.6181  -3.5451  -3.5441  -3.5124  -3.5076  -3.5069  -3.4398  -3.4384
    -3.4276  -3.4225  -3.3964  -3.3942  -3.3936  -3.3920  -3.2476  -3.2370
    -3.2244  -3.2130  -3.2089  -3.1919  -3.1912  -3.1678  -3.1657  -3.1232
    -3.1153  -3.1071  -3.0988  -3.0802  -3.0662  -3.0316  -3.0232  -3.0101
    -3.0060  -2.9925  -2.9657  -2.9611  -2.9567  -2.9549  -2.9408  -2.9323
    -2.9021  -2.8984  -2.8811  -2.8789  -2.8765  -2.8754  -2.8699  -2.7983
    -2.7973  -2.7928  -2.7653  -2.7634  -2.7050  -2.7022  -2.6755  -2.6743
    -2.6619  -2.6599  -2.6540  -2.6265  -2.6257  -2.6156  -2.5989  -2.5770
    -2.5735  -2.5723  -2.5527  -2.5520  -2.5423  -2.5410  -2.5372  -2.5335
    -2.5272  -2.4815  -2.4520  -2.4502  -2.4339  -2.4219  -2.4166  -2.4138
    -2.4074  -2.4058  -2.4041  -2.3762  -2.3752  -2.3738  -2.3651  -2.3629
    -2.3495  -2.3242  -2.3214  -2.3205  -2.3185  -2.3172  -2.2723  -2.2437
    -2.2418  -2.2403  -2.2352  -2.2246  -2.2153  -2.2134  -2.1952  -2.1947
    -2.1675  -2.1612  -2.1606  -2.1443  -2.1433  -2.1419  -2.1106  -2.1085
    -2.0723  -2.0636  -2.0610  -2.0589  -2.0568  -2.0524  -2.0514  -2.0483
    -2.0463  -2.0417  -2.0405  -2.0256  -2.0238  -1.9020  -1.8979  -1.8651
    -1.8594  -1.8576  -1.8507  -1.8501  -1.8401  -1.8346  -1.8314  -1.8303
    -1.8256  -1.8066  -1.8027  -1.8000  -1.7919  -1.7873  -1.7833  -1.7645
    -1.7626  -1.7363  -1.7340  -1.7062  -1.7038  -1.6931  -1.6840  -1.6675
    -1.6652  -1.6621  -1.6463  -1.6325  -1.6312  -1.6245  -1.6240  -1.5992
    -1.5979  -1.5860  -1.5811  -1.5517  -1.5471  -1.5379  -1.4933  -1.4888
    -1.4761  -1.4736  -1.4702  -1.4479  -1.4449  -1.4155  -1.4144  -1.4122
    -1.3786  -1.3705  -1.3695  -1.3520  -1.3509  -1.3285  -1.3268  -1.3213
    -1.2954  -1.2916  -1.2912  -1.2315  -1.2298  -1.2201  -1.2169  -1.2044
    -1.1995  -1.1872  -1.1860  -1.1680  -1.1550  -1.1404  -1.1261  -1.1153
    -1.0915  -1.0844  -1.0774  -1.0687  -1.0650  -1.0639  -1.0602  -1.0570
    -1.0430  -1.0386  -1.0181  -1.0143  -1.0022  -1.0004  -0.9974  -0.9797
    -0.9664  -0.9581  -0.9388  -0.9349  -0.8750  -0.8444  -0.8326  -0.8270
    -0.8261  -0.8192  -0.8140  -0.7969  -0.7937  -0.7866  -0.7760  -0.7670
    -0.7611  -0.7564  -0.7517  -0.7308  -0.7284  -0.7210  -0.7152  -0.6482
    -0.6451  -0.6125  -0.6100  -0.6087  -0.6015  -0.6005  -0.5990  -0.5971
    -0.5863  -0.5715  -0.5670  -0.5445  -0.5306  -0.5128  -0.5104  -0.5008
    -0.4989  -0.4905  -0.4877  -0.4850  -0.4841  -0.4779  -0.4676  -0.4629
    -0.4604  -0.4325  -0.4312  -0.4262  -0.4178  -0.4153  -0.3981  -0.3667
    -0.3653  -0.3571  -0.3559  -0.2904  -0.2859  -0.2544  -0.2522  -0.1968
    -0.1943  -0.1917  -0.1766  -0.1693   0.0646   0.0701   0.4072   0.4076
     0.5034   0.5053   0.6919   0.7174   0.7274   0.8546   0.8560   1.2873
     1.2883   1.3051   1.5690   1.5973   1.5985   1.8786   1.8822   1.9499
     1.9543   1.9833   1.9839   2.2065   2.2111   2.2986   2.2995   2.3805
     2.4409   2.4453   2.6024   2.7038   3.1320   3.1417   3.1448   3.1469
     3.1957   3.2019   3.4905   3.4924   3.7725   3.7770   3.8880   4.1887
     4.2238   4.2308   4.4562   4.4675   4.5264   4.5331   4.6221   4.7363
     4.7467   4.8555   4.8595   5.1568   5.2189   5.2388   5.3789   5.4159
     5.4509   5.6150   5.6194   5.6438   5.6475   5.7044   5.7109   5.7625
     5.8768   6.0768   6.2792   6.3104   6.3616   6.4417   6.4508   6.4620
     6.4667   6.5360   6.6528   6.7036   6.7077   6.8557   6.9235   6.9551
     6.9634   7.0375   7.0827

     the Fermi energy is     1.4331 ev

!    total energy              =   -6604.42162664 Ry
     Harris-Foulkes estimate   =   -6604.42162663 Ry
     estimated scf accuracy    <          2.4E-09 Ry

     The total energy is the sum of the following terms:

     one-electron contribution =  -48786.45768261 Ry
     hartree contribution      =   24894.28571304 Ry
     xc contribution           =   -3205.01648709 Ry
     ewald contribution        =   20492.76399702 Ry
     smearing contrib. (-TS)   =       0.00283301 Ry

     convergence has been achieved in  25 iterations

     Writing output data file 3609263.save

     init_run     :    161.76s CPU    205.05s WALL (       1 calls)
     electrons    :   9293.20s CPU  10138.50s WALL (       1 calls)

     Called by init_run:
     wfcinit      :    128.44s CPU    164.12s WALL (       1 calls)
     potinit      :     10.14s CPU     16.28s WALL (       1 calls)

     Called by electrons:
     c_bands      :   7577.76s CPU   8247.50s WALL (      26 calls)
     sum_band     :   1281.50s CPU   1431.05s WALL (      26 calls)
     v_of_rho     :    121.65s CPU    140.02s WALL (      26 calls)
     newd         :    322.60s CPU    328.25s WALL (      26 calls)
     mix_rho      :      3.59s CPU      4.00s WALL (      26 calls)
     vdW_energy   :      9.16s CPU     12.00s WALL (      26 calls)
     vdW_ffts     :     63.06s CPU     72.30s WALL (      52 calls)
     vdW_v        :     16.34s CPU     17.97s WALL (      26 calls)

     Called by c_bands:
     init_us_2    :     21.58s CPU     22.28s WALL (     636 calls)
     cegterg      :   7485.90s CPU   8151.68s WALL (     312 calls)

     Called by *egterg:
     h_psi        :   3604.71s CPU   4185.78s WALL (    1579 calls)
     s_psi        :    446.66s CPU    456.63s WALL (    1579 calls)
     g_psi        :      6.25s CPU      6.27s WALL (    1255 calls)
     cdiaghg      :   1971.16s CPU   1979.43s WALL (    1555 calls)

     Called by h_psi:
     add_vuspsi   :    447.57s CPU    461.12s WALL (    1579 calls)

     General routines
     calbec       :    681.91s CPU    686.27s WALL (    1891 calls)
     fft          :    130.92s CPU    145.29s WALL (    1716 calls)
     ffts         :      1.82s CPU      2.06s WALL (      52 calls)
     fftw         :   2284.25s CPU   2821.95s WALL (  757642 calls)
     interpolate  :      5.11s CPU      5.91s WALL (      52 calls)
     davcio       :      0.01s CPU      0.20s WALL (      12 calls)

     Parallel routines
     fft_scatter  :   1541.79s CPU   1922.29s WALL (  759410 calls)

     PWSCF        :     2h37m CPU        2h52m WALL


   This run was terminated on:  14: 5:24  24Aug2015            

=------------------------------------------------------------------------------=
   JOB DONE.
=------------------------------------------------------------------------------=
