Setting SGE environment for SCC

     Program PWSCF v.5.1.2 starts on  2Jul2015 at  3:24:42 

     This program is part of the open-source Quantum ESPRESSO suite
     for quantum simulation of materials; please cite
         "P. Giannozzi et al., J. Phys.:Condens. Matter 21 395502 (2009);
          URL http://www.quantum-espresso.org", 
     in publications or presentations arising from this work. More details at
     http://www.quantum-espresso.org/quote

     Parallel version (MPI), running on    32 processors
     R & G space division:  proc/nbgrp/npool/nimage =      32
     Reading input from bridge.H2.Au5455.d.2.1.phi.45.psi.90.in
Warning: card &IONS ignored
Warning: card / ignored
Warning: card &CELL ignored
Warning: card / ignored

     Current dimensions of program PWSCF are:
     Max number of different atomic species (ntypx) = 10
     Max number of k-points (npk) =  40000
     Max angular momentum in pseudopotentials (lmaxx) =  3

     IMPORTANT: XC functional enforced from input :
     Exchange-correlation      = VDW-DF ( 1  4  4  0 1 0)
     Any further DFT definition will be discarded
     Please, verify this is what you really want


     Subspace diagonalization in iterative solution of the eigenvalue problem:
     a serial algorithm will be used


     Parallelization info
     --------------------
     sticks:   dense  smooth     PW     G-vecs:    dense   smooth      PW
     Min         445     223     58                96775    34191    4534
     Max         446     224     59                96790    34246    4540
     Sum       14269    7147   1867              3097177  1095093  145167


     Title: 
     bridge.H2.Au5455.d.2.1.phi.45.psi.90                                       


     bravais-lattice index     =            4
     lattice parameter (alat)  =      22.7436  a.u.
     unit-cell volume          =   22924.1508 (a.u.)^3
     number of atoms/cell      =           67
     number of atomic types    =            3
     number of electrons       =       712.00
     number of Kohn-Sham states=          427
     kinetic-energy cutoff     =      50.0000  Ry
     charge density cutoff     =     400.0000  Ry
     convergence threshold     =      1.0E-08
     mixing beta               =       0.7000
     number of iterations used =            8  plain     mixing
     Exchange-correlation      = VDW-DF ( 1  4  4  0 1 0)

     celldm(1)=  22.743643  celldm(2)=   0.000000  celldm(3)=   2.250000
     celldm(4)=   0.000000  celldm(5)=   0.000000  celldm(6)=   0.000000

     crystal axes: (cart. coord. in units of alat)
               a(1) = (   1.000000   0.000000   0.000000 )  
               a(2) = (  -0.500000   0.866025   0.000000 )  
               a(3) = (   0.000000   0.000000   2.250000 )  

     reciprocal axes: (cart. coord. in units 2 pi/alat)
               b(1) = (  1.000000  0.577350 -0.000000 )  
               b(2) = (  0.000000  1.154701  0.000000 )  
               b(3) = (  0.000000 -0.000000  0.444444 )  


     PseudoPot. # 1 for Au read from file:
     /home/scc/andrejb/qe/pseudo/Au.pbe-nd-van.UPF
     MD5 check sum: 458681b50f36d87ef23c61b04bba420a
     Pseudo is Ultrasoft + core correction, Zval = 11.0
     Generated by new atomic code, or converted to UPF format
     Using radial grid of  985 points,  3 beta functions with: 
                l(1) =   1
                l(2) =   2
                l(3) =   2
     Q(r) pseudized with  8 coefficients,  rinner =    1.100   1.100   1.100
                                                       1.100   1.100

     PseudoPot. # 2 for H  read from file:
     /home/scc/andrejb/qe/pseudo/H.pbe-van_ak.UPF
     MD5 check sum: 403db7282739603aa925980fa9b8608d
     Pseudo is Ultrasoft, Zval =  1.0
     Generated by new atomic code, or converted to UPF format
     Using radial grid of  615 points,  1 beta functions with: 
                l(1) =   0
     Q(r) pseudized with  8 coefficients,  rinner =    0.800

     PseudoPot. # 3 for O  read from file:
     /home/scc/andrejb/qe/pseudo/O.pbe-van_ak.UPF
     MD5 check sum: 4b8c549914a63cae506c6ff22b5af4fe
     Pseudo is Ultrasoft, Zval =  6.0
     Generated by new atomic code, or converted to UPF format
     Using radial grid of  737 points,  4 beta functions with: 
                l(1) =   0
                l(2) =   0
                l(3) =   1
                l(4) =   1
     Q(r) pseudized with  8 coefficients,  rinner =    0.800   0.800   0.800


     vdW kernel table read from file vdW_kernel_table
     MD5 check sum: 48e77a2e26edf626eeb0eaa751ad5cac

     atomic species   valence    mass     pseudopotential
        Au            11.00   196.96657     Au( 1.00)
        H              1.00     1.01000     H ( 1.00)
        O              6.00    16.00000     O ( 1.00)

     No symmetry found



   Cartesian axes

     site n.     atom                  positions (alat units)
         1           O   tau(   1) = (   0.2937541   0.2113033   0.8114150  )
         2           H   tau(   2) = (   0.2915728   0.2885783   0.7875031  )
         3           H   tau(   3) = (   0.2874926   0.1686747   0.7429364  )
         4           Au  tau(   4) = (   0.3540481   0.6132292   0.0000000  )
         5           Au  tau(   5) = (   0.4790062   0.3967954   0.0000000  )
         6           Au  tau(   6) = (   0.6039644   0.1803616   0.0000000  )
         7           Au  tau(   7) = (   0.7289225  -0.0360723   0.0000000  )
         8           Au  tau(   8) = (   0.1041318   0.6132292   0.0000000  )
         9           Au  tau(   9) = (   0.2290899   0.3967954   0.0000000  )
        10           Au  tau(  10) = (   0.3540481   0.1803616   0.0000000  )
        11           Au  tau(  11) = (   0.4790062  -0.0360723   0.0000000  )
        12           Au  tau(  12) = (  -0.1457845   0.6132292   0.0000000  )
        13           Au  tau(  13) = (  -0.0208264   0.3967954   0.0000000  )
        14           Au  tau(  14) = (   0.1041318   0.1803616   0.0000000  )
        15           Au  tau(  15) = (   0.2290899  -0.0360723   0.0000000  )
        16           Au  tau(  16) = (  -0.3957008   0.6132292   0.0000000  )
        17           Au  tau(  17) = (  -0.2707426   0.3967954   0.0000000  )
        18           Au  tau(  18) = (  -0.1457845   0.1803616   0.0000000  )
        19           Au  tau(  19) = (  -0.0208264  -0.0360723   0.0000000  )
        20           Au  tau(  20) = (   0.4790062   0.6853738   0.2040557  )
        21           Au  tau(  21) = (   0.6039644   0.4689400   0.2040557  )
        22           Au  tau(  22) = (   0.7289225   0.2525061   0.2040557  )
        23           Au  tau(  23) = (   0.8538806   0.0360723   0.2040557  )
        24           Au  tau(  24) = (   0.2290899   0.6853738   0.2040557  )
        25           Au  tau(  25) = (   0.3540481   0.4689400   0.2040557  )
        26           Au  tau(  26) = (   0.4790062   0.2525061   0.2040557  )
        27           Au  tau(  27) = (   0.6039644   0.0360723   0.2040557  )
        28           Au  tau(  28) = (  -0.0208264   0.6853738   0.2040557  )
        29           Au  tau(  29) = (   0.1041318   0.4689400   0.2040557  )
        30           Au  tau(  30) = (   0.2290899   0.2525061   0.2040557  )
        31           Au  tau(  31) = (   0.3540481   0.0360723   0.2040557  )
        32           Au  tau(  32) = (  -0.2707426   0.6853738   0.2040557  )
        33           Au  tau(  33) = (  -0.1457845   0.4689400   0.2040557  )
        34           Au  tau(  34) = (  -0.0208264   0.2525061   0.2040557  )
        35           Au  tau(  35) = (   0.1041318   0.0360723   0.2040557  )
        36           Au  tau(  36) = (   0.3541162   0.7576593   0.4066483  )
        37           Au  tau(  37) = (   0.4791000   0.5411421   0.4066695  )
        38           Au  tau(  38) = (   0.6040570   0.3246862   0.4066617  )
        39           Au  tau(  39) = (   0.7290270   0.1081684   0.4066529  )
        40           Au  tau(  40) = (   0.1041162   0.7576236   0.4066247  )
        41           Au  tau(  41) = (   0.2291001   0.5411063   0.4066455  )
        42           Au  tau(  42) = (   0.3540567   0.3246505   0.4066380  )
        43           Au  tau(  43) = (   0.4790276   0.1081324   0.4066292  )
        44           Au  tau(  44) = (  -0.1458201   0.7576104   0.4066224  )
        45           Au  tau(  45) = (  -0.0208365   0.5410930   0.4066438  )
        46           Au  tau(  46) = (   0.1041202   0.3246372   0.4066359  )
        47           Au  tau(  47) = (   0.2290908   0.1081193   0.4066273  )
        48           Au  tau(  48) = (  -0.3958167   0.7575791   0.4065812  )
        49           Au  tau(  49) = (  -0.2708328   0.5410617   0.4066025  )
        50           Au  tau(  50) = (  -0.1458763   0.3246061   0.4065947  )
        51           Au  tau(  51) = (  -0.0209056   0.1080882   0.4065858  )
        52           Au  tau(  52) = (   0.3541085   0.6133344   0.6129762  )
        53           Au  tau(  53) = (   0.4790780   0.3968269   0.6129968  )
        54           Au  tau(  54) = (   0.6040356   0.1803811   0.6129859  )
        55           Au  tau(  55) = (   0.7290165  -0.0361221   0.6129385  )
        56           Au  tau(  56) = (   0.1041243   0.6133091   0.6130022  )
        57           Au  tau(  57) = (   0.2290941   0.3968013   0.6130241  )
        58           Au  tau(  58) = (   0.3540515   0.1803552   0.6130121  )
        59           Au  tau(  59) = (   0.4790323  -0.0361475   0.6129659  )
        60           Au  tau(  60) = (  -0.1458030   0.6133014   0.6129980  )
        61           Au  tau(  61) = (  -0.0208339   0.3967936   0.6130188  )
        62           Au  tau(  62) = (   0.1041239   0.1803477   0.6130083  )
        63           Au  tau(  63) = (   0.2291046  -0.0361554   0.6129607  )
        64           Au  tau(  64) = (  -0.3957908   0.6132739   0.6129471  )
        65           Au  tau(  65) = (  -0.2708208   0.3967658   0.6129688  )
        66           Au  tau(  66) = (  -0.1458636   0.1803200   0.6129569  )
        67           Au  tau(  67) = (  -0.0208823  -0.0361826   0.6129110  )

     number of k points=    12  Marzari-Vanderbilt smearing, width (Ry)=  0.0200
                       cart. coord. in units 2pi/alat
        k(    1) = (   0.2500000   0.4330127   0.1111111), wk =   0.1666667
        k(    2) = (   0.2500000  -0.1443376   0.1111111), wk =   0.1666667
        k(    3) = (  -0.2500000  -0.4330127   0.1111111), wk =   0.1666667
        k(    4) = (  -0.2500000   0.4330127  -0.1111111), wk =   0.1666667
        k(    5) = (   0.2500000  -0.4330127  -0.1111111), wk =   0.1666667
        k(    6) = (   0.5000000   0.0000000   0.1111111), wk =   0.1666667
        k(    7) = (  -0.5000000   0.0000000   0.1111111), wk =   0.1666667
        k(    8) = (  -0.2500000   0.1443376   0.1111111), wk =   0.1666667
        k(    9) = (  -0.2500000  -0.1443376  -0.1111111), wk =   0.1666667
        k(   10) = (   0.2500000   0.1443376  -0.1111111), wk =   0.1666667
        k(   11) = (   0.0000000  -0.2886751   0.1111111), wk =   0.1666667
        k(   12) = (   0.0000000   0.2886751   0.1111111), wk =   0.1666667

     Dense  grid:  3097177 G-vectors     FFT dimensions: ( 150, 150, 360)

     Smooth grid:  1095093 G-vectors     FFT dimensions: ( 108, 108, 240)

     Largest allocated arrays     est. size (Mb)     dimensions
        Kohn-Sham Wavefunctions        28.01 Mb     (    4299,  427)
        NL pseudopotentials            55.23 Mb     (    4299,  842)
        Each V/rho on FFT grid          4.12 Mb     (  270000)
        Each G-vector array             0.74 Mb     (   96788)
        G-vector shells                 0.16 Mb     (   21404)
     Largest temporary arrays     est. size (Mb)     dimensions
        Auxiliary wavefunctions       112.04 Mb     (    4299, 1708)
        Each subspace H/S matrix       44.51 Mb     (    1708, 1708)
        Each <psi_i|beta_j> matrix      5.49 Mb     (     842,  427)
        Arrays for rho mixing          32.96 Mb     (  270000,    8)

     Initial potential from superposition of free atoms
     Check: negative starting charge=   -1.730284

     starting charge  711.25682, renormalised to  712.00000

     negative rho (up, down):  1.732E+00 0.000E+00


     ************************************************************************
     *
     * You are using vdW-DF for exchange-correlation in this calculation.
     * Please cite the following three references that made this development
     * possible:
     *
     *   M. Dion, H. Rydberg, E. Schroder, D. C. Langreth, and
     *   B. I. Lundqvist, Phys. Rev. Lett. 92, 246401 (2004).
     *
     *   T. Thonhauser, V. R. Cooper, S. Li, A. Puzder, P. Hyldgaard, and
     *   D. C. Langreth, Phys. Rev. B 76, 125112 (2007).
     *
     *   G. Roman-Perez and J. M. Soler, Phys. Rev. Lett. 103, 096102 (2009).
     *
     *
     * If you are using vdW-DF2, please also cite:
     *
     *   K. Lee, E. D. Murray, L. Kong, B. I. Lundqvist, and
     *   D. C. Langreth, Phys. Rev. B 82, 081101(R) (2010).
     *
     *
     * If you are calculating the stress with vdW-DF, please also cite:
     *
     *   R. Sabatini, E. Kucukbenli, B. Kolb, T. Thonhauser, and
     *   S. de Gironcoli, J. Phys.: Condens. Matter 24, 424209 (2012).
     *
     ************************************************************************

     Carrying out vdW-DF run using the following parameters:

     Nqs =      20    Nr_points =    1024   r_max =   100.000
     q_mesh =
               0.00001000     0.04494208     0.09755937     0.15916263
               0.23128650     0.31572767     0.41458969     0.53033537
               0.66584808     0.82450364     1.01025438     1.22772762
               1.48234092     1.78043706     2.12944203     2.53805004
               3.01644009     3.57652955     4.23227104     5.00000000

     Gradients computed in reciprocal space

     ************************************************************************


     Starting wfc are  582 randomized atomic wfcs

     total cpu time spent up to now is      218.5 secs

     Self-consistent Calculation

     iteration #  1     ecut=    50.00 Ry     beta=0.70
     Davidson diagonalization with overlap
     ethr =  1.00E-02,  avg # of iterations =  3.0

     Threshold (ethr) on eigenvalues was too large:
     Diagonalizing with lowered threshold

     Davidson diagonalization with overlap
     ethr =  3.29E-04,  avg # of iterations =  4.0

     negative rho (up, down):  1.726E+00 0.000E+00

     total cpu time spent up to now is     1076.2 secs

     total energy              =   -6602.79286789 Ry
     Harris-Foulkes estimate   =   -6604.93595456 Ry
     estimated scf accuracy    <       2.68955216 Ry

     iteration #  2     ecut=    50.00 Ry     beta=0.70
     Davidson diagonalization with overlap
     ethr =  3.78E-04,  avg # of iterations = 11.0

     negative rho (up, down):  1.726E+00 0.000E+00

     total cpu time spent up to now is     2233.4 secs

     total energy              =   -6597.42250592 Ry
     Harris-Foulkes estimate   =   -6609.64984494 Ry
     estimated scf accuracy    <      65.95885763 Ry

     iteration #  3     ecut=    50.00 Ry     beta=0.70
     Davidson diagonalization with overlap
     ethr =  3.78E-04,  avg # of iterations =  6.0

     negative rho (up, down):  1.736E+00 0.000E+00

     total cpu time spent up to now is     3039.1 secs

     total energy              =   -6603.14514236 Ry
     Harris-Foulkes estimate   =   -6604.93323597 Ry
     estimated scf accuracy    <       7.96741904 Ry

     iteration #  4     ecut=    50.00 Ry     beta=0.70
     Davidson diagonalization with overlap
     ethr =  3.78E-04,  avg # of iterations =  5.3

     negative rho (up, down):  1.739E+00 0.000E+00

     total cpu time spent up to now is     3514.9 secs

     total energy              =   -6603.69821705 Ry
     Harris-Foulkes estimate   =   -6604.88709438 Ry
     estimated scf accuracy    <       9.39811208 Ry

     iteration #  5     ecut=    50.00 Ry     beta=0.70
     Davidson diagonalization with overlap
     ethr =  3.78E-04,  avg # of iterations =  6.3

     negative rho (up, down):  1.747E+00 0.000E+00

     total cpu time spent up to now is     3982.4 secs

     total energy              =   -6604.16635473 Ry
     Harris-Foulkes estimate   =   -6604.62422607 Ry
     estimated scf accuracy    <       3.70568321 Ry

     iteration #  6     ecut=    50.00 Ry     beta=0.70
     Davidson diagonalization with overlap
     ethr =  3.78E-04,  avg # of iterations =  3.0

     negative rho (up, down):  1.751E+00 0.000E+00

     total cpu time spent up to now is     4396.6 secs

     total energy              =   -6604.34393746 Ry
     Harris-Foulkes estimate   =   -6604.39980743 Ry
     estimated scf accuracy    <       0.18938086 Ry

     iteration #  7     ecut=    50.00 Ry     beta=0.70
     Davidson diagonalization with overlap
     ethr =  2.66E-05,  avg # of iterations =  9.4

     negative rho (up, down):  1.754E+00 0.000E+00

     total cpu time spent up to now is     4957.6 secs

     total energy              =   -6604.35677088 Ry
     Harris-Foulkes estimate   =   -6604.38516157 Ry
     estimated scf accuracy    <       0.13059779 Ry

     iteration #  8     ecut=    50.00 Ry     beta=0.70
     Davidson diagonalization with overlap
     ethr =  1.83E-05,  avg # of iterations =  4.8

     negative rho (up, down):  1.755E+00 0.000E+00

     total cpu time spent up to now is     5389.8 secs

     total energy              =   -6604.36056566 Ry
     Harris-Foulkes estimate   =   -6604.37362918 Ry
     estimated scf accuracy    <       0.05252754 Ry

     iteration #  9     ecut=    50.00 Ry     beta=0.70
     Davidson diagonalization with overlap
     ethr =  7.38E-06,  avg # of iterations =  5.8

     negative rho (up, down):  1.756E+00 0.000E+00

     total cpu time spent up to now is     5861.5 secs

     total energy              =   -6604.36138391 Ry
     Harris-Foulkes estimate   =   -6604.36709868 Ry
     estimated scf accuracy    <       0.02020051 Ry

     iteration # 10     ecut=    50.00 Ry     beta=0.70
     Davidson diagonalization with overlap
     c_bands:  1 eigenvalues not converged
     c_bands:  1 eigenvalues not converged
     ethr =  2.84E-06,  avg # of iterations =  9.3

     negative rho (up, down):  1.756E+00 0.000E+00

     total cpu time spent up to now is     6369.5 secs

     total energy              =   -6604.36214080 Ry
     Harris-Foulkes estimate   =   -6604.36392175 Ry
     estimated scf accuracy    <       0.00600810 Ry

     iteration # 11     ecut=    50.00 Ry     beta=0.70
     Davidson diagonalization with overlap
     ethr =  8.44E-07,  avg # of iterations =  3.2

     negative rho (up, down):  1.757E+00 0.000E+00

     total cpu time spent up to now is     6784.0 secs

     total energy              =   -6604.36231284 Ry
     Harris-Foulkes estimate   =   -6604.36319926 Ry
     estimated scf accuracy    <       0.00301412 Ry

     iteration # 12     ecut=    50.00 Ry     beta=0.70
     Davidson diagonalization with overlap
     ethr =  4.23E-07,  avg # of iterations =  2.0

     negative rho (up, down):  1.757E+00 0.000E+00

     total cpu time spent up to now is     7166.3 secs

     total energy              =   -6604.36252221 Ry
     Harris-Foulkes estimate   =   -6604.36272039 Ry
     estimated scf accuracy    <       0.00042259 Ry

     iteration # 13     ecut=    50.00 Ry     beta=0.70
     Davidson diagonalization with overlap
     ethr =  5.94E-08,  avg # of iterations =  3.0

     negative rho (up, down):  1.757E+00 0.000E+00

     total cpu time spent up to now is     7669.8 secs

     total energy              =   -6604.36252232 Ry
     Harris-Foulkes estimate   =   -6604.36275014 Ry
     estimated scf accuracy    <       0.00100817 Ry

     iteration # 14     ecut=    50.00 Ry     beta=0.70
     Davidson diagonalization with overlap
     ethr =  5.94E-08,  avg # of iterations =  2.0

     negative rho (up, down):  1.757E+00 0.000E+00

     total cpu time spent up to now is     8051.0 secs

     total energy              =   -6604.36263150 Ry
     Harris-Foulkes estimate   =   -6604.36264519 Ry
     estimated scf accuracy    <       0.00004384 Ry

     iteration # 15     ecut=    50.00 Ry     beta=0.70
     Davidson diagonalization with overlap
     ethr =  6.16E-09,  avg # of iterations =  2.0

     negative rho (up, down):  1.757E+00 0.000E+00

     total cpu time spent up to now is     8498.6 secs

     total energy              =   -6604.36262884 Ry
     Harris-Foulkes estimate   =   -6604.36264899 Ry
     estimated scf accuracy    <       0.00012014 Ry

     iteration # 16     ecut=    50.00 Ry     beta=0.70
     Davidson diagonalization with overlap
     ethr =  6.16E-09,  avg # of iterations =  2.0

     negative rho (up, down):  1.757E+00 0.000E+00

     total cpu time spent up to now is     8889.1 secs

     total energy              =   -6604.36263224 Ry
     Harris-Foulkes estimate   =   -6604.36264895 Ry
     estimated scf accuracy    <       0.00015378 Ry

     iteration # 17     ecut=    50.00 Ry     beta=0.70
     Davidson diagonalization with overlap
     ethr =  6.16E-09,  avg # of iterations =  1.8

     negative rho (up, down):  1.757E+00 0.000E+00

     total cpu time spent up to now is     9267.0 secs

     total energy              =   -6604.36263983 Ry
     Harris-Foulkes estimate   =   -6604.36264161 Ry
     estimated scf accuracy    <       0.00000566 Ry

     iteration # 18     ecut=    50.00 Ry     beta=0.70
     Davidson diagonalization with overlap
     ethr =  7.95E-10,  avg # of iterations =  2.5

     negative rho (up, down):  1.757E+00 0.000E+00

     total cpu time spent up to now is     9731.0 secs

     total energy              =   -6604.36263975 Ry
     Harris-Foulkes estimate   =   -6604.36264237 Ry
     estimated scf accuracy    <       0.00001151 Ry

     iteration # 19     ecut=    50.00 Ry     beta=0.70
     Davidson diagonalization with overlap
     ethr =  7.95E-10,  avg # of iterations =  2.0

     negative rho (up, down):  1.757E+00 0.000E+00

     total cpu time spent up to now is    10122.4 secs

     total energy              =   -6604.36264096 Ry
     Harris-Foulkes estimate   =   -6604.36264122 Ry
     estimated scf accuracy    <       0.00000100 Ry

     iteration # 20     ecut=    50.00 Ry     beta=0.70
     Davidson diagonalization with overlap
     ethr =  1.40E-10,  avg # of iterations =  2.0

     negative rho (up, down):  1.757E+00 0.000E+00

     total cpu time spent up to now is    10518.7 secs

     total energy              =   -6604.36264110 Ry
     Harris-Foulkes estimate   =   -6604.36264115 Ry
     estimated scf accuracy    <       0.00000015 Ry

     iteration # 21     ecut=    50.00 Ry     beta=0.70
     Davidson diagonalization with overlap
     ethr =  2.11E-11,  avg # of iterations =  2.0

     negative rho (up, down):  1.757E+00 0.000E+00

     total cpu time spent up to now is    10962.0 secs

     total energy              =   -6604.36264113 Ry
     Harris-Foulkes estimate   =   -6604.36264114 Ry
     estimated scf accuracy    <       0.00000005 Ry

     iteration # 22     ecut=    50.00 Ry     beta=0.70
     Davidson diagonalization with overlap
     ethr =  6.56E-12,  avg # of iterations =  2.5

     negative rho (up, down):  1.757E+00 0.000E+00

     total cpu time spent up to now is    11473.6 secs

     total energy              =   -6604.36264113 Ry
     Harris-Foulkes estimate   =   -6604.36264115 Ry
     estimated scf accuracy    <       0.00000009 Ry

     iteration # 23     ecut=    50.00 Ry     beta=0.70
     Davidson diagonalization with overlap
     ethr =  6.56E-12,  avg # of iterations =  3.0

     negative rho (up, down):  1.757E+00 0.000E+00

     total cpu time spent up to now is    11928.9 secs

     total energy              =   -6604.36264114 Ry
     Harris-Foulkes estimate   =   -6604.36264115 Ry
     estimated scf accuracy    <       0.00000002 Ry

     iteration # 24     ecut=    50.00 Ry     beta=0.70
     Davidson diagonalization with overlap
     ethr =  2.58E-12,  avg # of iterations =  2.0

     negative rho (up, down):  1.757E+00 0.000E+00

     total cpu time spent up to now is    12343.5 secs

     total energy              =   -6604.36264115 Ry
     Harris-Foulkes estimate   =   -6604.36264115 Ry
     estimated scf accuracy    <       0.00000002 Ry

     iteration # 25     ecut=    50.00 Ry     beta=0.70
     Davidson diagonalization with overlap
     ethr =  2.58E-12,  avg # of iterations =  2.0

     negative rho (up, down):  1.757E+00 0.000E+00

     total cpu time spent up to now is    12725.3 secs

     End of self-consistent calculation

          k = 0.2500 0.4330 0.1111 (136853 PWs)   bands (ev):

   -19.2918  -7.4596  -6.4181  -6.0223  -6.0163  -5.3545  -5.0142  -5.0072
    -4.9932  -4.9674  -4.6155  -4.6068  -4.5271  -4.5086  -4.4978  -4.4883
    -4.4690  -4.3452  -4.3389  -4.3164  -4.2820  -4.2729  -4.2682  -4.2059
    -4.2033  -4.1996  -4.1874  -4.1763  -4.1677  -4.1447  -4.1009  -4.0805
    -4.0669  -4.0616  -4.0561  -4.0337  -4.0319  -4.0169  -4.0027  -4.0009
    -3.9902  -3.9405  -3.9243  -3.9164  -3.8730  -3.8639  -3.8292  -3.8055
    -3.7684  -3.7607  -3.7586  -3.7417  -3.7245  -3.7009  -3.6915  -3.6801
    -3.6773  -3.6735  -3.6582  -3.6489  -3.6402  -3.5894  -3.5811  -3.5766
    -3.5496  -3.5391  -3.4744  -3.4696  -3.4521  -3.4388  -3.4160  -3.4108
    -3.3944  -3.3758  -3.3285  -3.3172  -3.3053  -3.3011  -3.2600  -3.2532
    -3.2360  -3.2054  -3.1823  -3.1776  -3.1724  -3.1667  -3.1624  -3.1555
    -3.1483  -3.1466  -3.1332  -3.0962  -3.0635  -3.0552  -3.0522  -3.0437
    -3.0166  -3.0143  -3.0060  -2.9887  -2.9385  -2.9362  -2.9299  -2.9004
    -2.8861  -2.8745  -2.8725  -2.8480  -2.8436  -2.8128  -2.7929  -2.7769
    -2.7639  -2.7490  -2.7409  -2.7344  -2.6946  -2.6876  -2.6533  -2.6401
    -2.6314  -2.6123  -2.6019  -2.5965  -2.5876  -2.5859  -2.5740  -2.5673
    -2.5300  -2.5197  -2.5135  -2.5058  -2.5041  -2.4988  -2.4909  -2.4854
    -2.4807  -2.4792  -2.4737  -2.4701  -2.4635  -2.4571  -2.4418  -2.4295
    -2.4227  -2.4192  -2.4182  -2.4146  -2.4045  -2.3974  -2.3919  -2.3773
    -2.3758  -2.3591  -2.3530  -2.3507  -2.3465  -2.3436  -2.3412  -2.3323
    -2.3213  -2.3192  -2.3136  -2.3014  -2.2830  -2.2713  -2.2356  -2.2326
    -2.2221  -2.2156  -2.1987  -2.1871  -2.1652  -2.1575  -2.1493  -2.1339
    -2.1200  -2.1074  -2.0954  -2.0878  -2.0784  -2.0775  -2.0701  -2.0659
    -2.0441  -2.0388  -2.0276  -1.9833  -1.9683  -1.9653  -1.9606  -1.9445
    -1.9380  -1.9097  -1.9037  -1.8811  -1.8758  -1.8286  -1.8238  -1.7961
    -1.7829  -1.7682  -1.7277  -1.7138  -1.7092  -1.7005  -1.6917  -1.6842
    -1.6809  -1.6768  -1.6708  -1.6447  -1.6210  -1.6085  -1.6027  -1.6021
    -1.5874  -1.5744  -1.5715  -1.5537  -1.5444  -1.5378  -1.5329  -1.5241
    -1.5214  -1.5174  -1.5078  -1.4915  -1.4881  -1.4657  -1.4522  -1.4460
    -1.4317  -1.4263  -1.4012  -1.3978  -1.3681  -1.3491  -1.3363  -1.3305
    -1.3089  -1.2917  -1.2606  -1.2547  -1.2471  -1.2417  -1.2369  -1.2332
    -1.2196  -1.2177  -1.1903  -1.1734  -1.1678  -1.1467  -1.1405  -1.1349
    -1.1292  -1.1262  -1.1136  -1.1122  -1.1073  -1.1024  -1.0916  -1.0696
    -1.0661  -1.0621  -1.0517  -1.0406  -1.0315  -1.0247  -1.0048  -0.9926
    -0.9822  -0.9566  -0.9430  -0.9308  -0.9112  -0.9040  -0.9000  -0.8891
    -0.8856  -0.8832  -0.8782  -0.8736  -0.8622  -0.8511  -0.8463  -0.8431
    -0.8368  -0.8360  -0.8285  -0.8008  -0.7990  -0.7851  -0.7775  -0.7670
    -0.7621  -0.7569  -0.7514  -0.6975  -0.6957  -0.6923  -0.6865  -0.6832
    -0.6796  -0.6680  -0.6590  -0.6545  -0.6513  -0.6509  -0.6454  -0.6243
    -0.6164  -0.6064  -0.6059  -0.5981  -0.5938  -0.5919  -0.5885  -0.5746
    -0.5705  -0.5692  -0.5390  -0.5320  -0.5301  -0.5220  -0.5151  -0.4995
    -0.4493  -0.4375  -0.4361  -0.4328  -0.4283  -0.4145  -0.3894  -0.3819
    -0.3790  -0.3474  -0.3406  -0.2954  -0.2262  -0.2187  -0.1241   0.2889
     0.2906   0.3001   0.3005   0.3647   0.3895   0.7426   0.7463   0.7857
     0.7896   0.9158   0.9870   1.0942   1.1046   1.3157   1.3449   1.9441
     1.9554   2.1043   2.1132   2.2395   2.2617   2.3423   2.3441   2.4973
     2.7358   2.7557   2.8664   3.0850   3.0952   3.1590   3.1626   3.2622
     3.2818   3.4871   3.5055   3.5338   3.7350   3.7433   3.8028   3.8125
     4.0526   4.0641   4.0795   4.3038   4.3411   4.3495   4.3950   4.7219
     4.7307   4.7569   4.8938   5.0700   5.0732   5.1397   5.1679   5.6248
     5.8303   5.8429   5.8611   5.8940   5.9142   5.9227   5.9386   6.0310
     6.0503   6.0674   6.0978   6.1026   6.1289   6.1439   6.1487   6.1692
     6.2511   6.5889   6.6128   6.7315   6.7688   6.7864   6.7999   6.8117
     6.8287   6.9211   6.9941

          k = 0.2500-0.1443 0.1111 (136898 PWs)   bands (ev):

   -19.2918  -7.4597  -6.6274  -5.8369  -5.5571  -5.4888  -5.4847  -4.9524
    -4.9470  -4.8339  -4.8155  -4.6895  -4.6451  -4.5685  -4.5632  -4.5358
    -4.5037  -4.5003  -4.3737  -4.3310  -4.3299  -4.2898  -4.2661  -4.2512
    -4.1697  -4.1471  -4.1291  -4.1111  -4.1095  -4.1009  -4.0717  -4.0623
    -4.0358  -3.9576  -3.9554  -3.9500  -3.9403  -3.9190  -3.9174  -3.9068
    -3.9008  -3.8951  -3.8667  -3.8648  -3.8601  -3.8476  -3.8378  -3.8267
    -3.8134  -3.8106  -3.8031  -3.7728  -3.7471  -3.7218  -3.7114  -3.7028
    -3.7015  -3.6849  -3.6288  -3.6272  -3.6022  -3.5934  -3.5758  -3.5220
    -3.5206  -3.5067  -3.5005  -3.4861  -3.4835  -3.4789  -3.4654  -3.3291
    -3.3204  -3.3083  -3.3031  -3.2832  -3.2771  -3.2691  -3.2566  -3.2508
    -3.2028  -3.2005  -3.1857  -3.1846  -3.1606  -3.1271  -3.1231  -3.0964
    -3.0913  -3.0883  -3.0559  -3.0527  -3.0403  -3.0378  -3.0262  -3.0101
    -2.9922  -2.9899  -2.9777  -2.9648  -2.9627  -2.9613  -2.9518  -2.8892
    -2.8866  -2.8734  -2.8529  -2.8484  -2.8054  -2.7854  -2.7690  -2.7583
    -2.7524  -2.7492  -2.7366  -2.7168  -2.7100  -2.7004  -2.6888  -2.6691
    -2.6641  -2.6539  -2.6433  -2.6384  -2.6323  -2.6282  -2.6249  -2.6124
    -2.6093  -2.5651  -2.5511  -2.5409  -2.5147  -2.5112  -2.5074  -2.4995
    -2.4937  -2.4914  -2.4880  -2.4707  -2.4643  -2.4585  -2.4524  -2.4493
    -2.4391  -2.4191  -2.4124  -2.4061  -2.4050  -2.4017  -2.3575  -2.3395
    -2.3299  -2.3264  -2.3225  -2.3173  -2.3073  -2.3017  -2.2809  -2.2798
    -2.2636  -2.2516  -2.2484  -2.2411  -2.2330  -2.2309  -2.2019  -2.1965
    -2.1707  -2.1627  -2.1529  -2.1477  -2.1454  -2.1414  -2.1390  -2.1347
    -2.1321  -2.1289  -2.1191  -2.1136  -2.1112  -2.0223  -1.9913  -1.9872
    -1.9518  -1.9490  -1.9370  -1.9355  -1.9287  -1.9272  -1.9179  -1.9147
    -1.9059  -1.9003  -1.8916  -1.8891  -1.8816  -1.8722  -1.8631  -1.8546
    -1.8412  -1.8244  -1.8198  -1.8011  -1.7851  -1.7839  -1.7748  -1.7536
    -1.7524  -1.7483  -1.7367  -1.7248  -1.7184  -1.7131  -1.7099  -1.6968
    -1.6878  -1.6753  -1.6711  -1.6406  -1.6344  -1.6196  -1.6022  -1.5788
    -1.5699  -1.5603  -1.5507  -1.5338  -1.5282  -1.5097  -1.5007  -1.4925
    -1.4696  -1.4659  -1.4587  -1.4403  -1.4371  -1.4263  -1.4178  -1.4065
    -1.3923  -1.3808  -1.3748  -1.3273  -1.3174  -1.3119  -1.3060  -1.3010
    -1.2898  -1.2831  -1.2739  -1.2651  -1.2565  -1.2408  -1.2164  -1.2120
    -1.1947  -1.1737  -1.1647  -1.1579  -1.1537  -1.1514  -1.1484  -1.1467
    -1.1268  -1.1210  -1.1073  -1.1029  -1.0874  -1.0839  -1.0816  -1.0707
    -1.0520  -1.0438  -1.0341  -1.0214  -0.9838  -0.9342  -0.9304  -0.9153
    -0.9138  -0.9046  -0.9017  -0.8860  -0.8836  -0.8682  -0.8650  -0.8518
    -0.8483  -0.8461  -0.8372  -0.8229  -0.8137  -0.8073  -0.7872  -0.7317
    -0.7310  -0.7014  -0.6951  -0.6901  -0.6869  -0.6840  -0.6817  -0.6759
    -0.6721  -0.6565  -0.6376  -0.6268  -0.6041  -0.5980  -0.5964  -0.5880
    -0.5815  -0.5753  -0.5723  -0.5701  -0.5672  -0.5556  -0.5533  -0.5489
    -0.5329  -0.5191  -0.5152  -0.5052  -0.5012  -0.4866  -0.4816  -0.4515
    -0.4460  -0.4421  -0.4303  -0.3723  -0.3682  -0.3442  -0.3421  -0.2869
    -0.2853  -0.2794  -0.2608  -0.2340  -0.0219   0.0078   0.3215   0.3221
     0.4143   0.4444   0.6171   0.6385   0.6651   0.7644   0.7752   1.2015
     1.2036   1.2191   1.4919   1.5119   1.5138   1.7878   1.8135   1.8620
     1.8646   1.8919   1.9158   2.1180   2.1235   2.2137   2.2146   2.3014
     2.3514   2.3795   2.5198   2.6250   3.0428   3.0532   3.0560   3.0656
     3.1072   3.1176   3.4046   3.4071   3.6840   3.7017   3.8108   4.1039
     4.1386   4.1447   4.3690   4.3988   4.4371   4.4525   4.5408   4.6530
     4.6643   4.7690   4.7759   5.0704   5.1306   5.1522   5.3176   5.3583
     5.4984   5.5239   5.5326   5.5580   5.5665   5.6079   5.6285   5.6971
     6.0337   6.0726   6.2223   6.3023   6.3434   6.3547   6.3656   6.3787
     6.3907   6.6092   6.6160   6.6222   6.7709   6.8364   6.8778   6.9050
     6.9417   7.1203   7.1518

          k =-0.2500-0.4330 0.1111 (136853 PWs)   bands (ev):

   -19.2918  -7.4595  -6.4181  -6.0223  -6.0163  -5.3545  -5.0142  -5.0072
    -4.9932  -4.9674  -4.6155  -4.6068  -4.5271  -4.5086  -4.4978  -4.4883
    -4.4690  -4.3452  -4.3389  -4.3164  -4.2820  -4.2729  -4.2682  -4.2059
    -4.2033  -4.1996  -4.1874  -4.1763  -4.1677  -4.1447  -4.1009  -4.0805
    -4.0669  -4.0616  -4.0561  -4.0337  -4.0319  -4.0169  -4.0027  -4.0009
    -3.9902  -3.9405  -3.9243  -3.9164  -3.8730  -3.8639  -3.8292  -3.8055
    -3.7684  -3.7607  -3.7586  -3.7417  -3.7245  -3.7009  -3.6915  -3.6801
    -3.6773  -3.6735  -3.6582  -3.6489  -3.6402  -3.5894  -3.5811  -3.5766
    -3.5496  -3.5391  -3.4744  -3.4696  -3.4521  -3.4388  -3.4160  -3.4108
    -3.3944  -3.3758  -3.3285  -3.3172  -3.3053  -3.3011  -3.2600  -3.2532
    -3.2360  -3.2054  -3.1823  -3.1776  -3.1724  -3.1667  -3.1624  -3.1555
    -3.1483  -3.1466  -3.1332  -3.0962  -3.0635  -3.0552  -3.0522  -3.0437
    -3.0166  -3.0143  -3.0060  -2.9887  -2.9385  -2.9362  -2.9299  -2.9004
    -2.8861  -2.8745  -2.8725  -2.8480  -2.8436  -2.8128  -2.7929  -2.7769
    -2.7639  -2.7490  -2.7409  -2.7344  -2.6946  -2.6876  -2.6533  -2.6401
    -2.6314  -2.6123  -2.6019  -2.5965  -2.5876  -2.5859  -2.5740  -2.5673
    -2.5300  -2.5197  -2.5135  -2.5058  -2.5041  -2.4988  -2.4909  -2.4854
    -2.4807  -2.4792  -2.4737  -2.4701  -2.4635  -2.4571  -2.4418  -2.4295
    -2.4227  -2.4192  -2.4182  -2.4146  -2.4045  -2.3974  -2.3919  -2.3773
    -2.3758  -2.3591  -2.3530  -2.3507  -2.3465  -2.3436  -2.3412  -2.3323
    -2.3213  -2.3192  -2.3136  -2.3014  -2.2830  -2.2713  -2.2356  -2.2326
    -2.2221  -2.2156  -2.1987  -2.1871  -2.1652  -2.1575  -2.1493  -2.1339
    -2.1200  -2.1074  -2.0954  -2.0878  -2.0784  -2.0775  -2.0701  -2.0659
    -2.0441  -2.0388  -2.0276  -1.9833  -1.9683  -1.9653  -1.9606  -1.9445
    -1.9380  -1.9097  -1.9037  -1.8811  -1.8758  -1.8286  -1.8238  -1.7961
    -1.7829  -1.7682  -1.7277  -1.7138  -1.7092  -1.7005  -1.6917  -1.6842
    -1.6809  -1.6768  -1.6708  -1.6447  -1.6210  -1.6085  -1.6027  -1.6021
    -1.5874  -1.5744  -1.5715  -1.5537  -1.5444  -1.5378  -1.5329  -1.5241
    -1.5214  -1.5174  -1.5078  -1.4915  -1.4881  -1.4657  -1.4522  -1.4460
    -1.4317  -1.4263  -1.4012  -1.3978  -1.3681  -1.3491  -1.3363  -1.3305
    -1.3089  -1.2917  -1.2606  -1.2547  -1.2471  -1.2417  -1.2369  -1.2332
    -1.2196  -1.2177  -1.1903  -1.1734  -1.1678  -1.1467  -1.1405  -1.1349
    -1.1292  -1.1262  -1.1136  -1.1122  -1.1073  -1.1024  -1.0916  -1.0696
    -1.0661  -1.0621  -1.0517  -1.0406  -1.0315  -1.0247  -1.0048  -0.9926
    -0.9822  -0.9566  -0.9430  -0.9308  -0.9112  -0.9040  -0.9000  -0.8891
    -0.8856  -0.8832  -0.8782  -0.8736  -0.8622  -0.8511  -0.8463  -0.8431
    -0.8368  -0.8360  -0.8285  -0.8008  -0.7990  -0.7851  -0.7775  -0.7670
    -0.7621  -0.7569  -0.7514  -0.6975  -0.6957  -0.6923  -0.6865  -0.6832
    -0.6796  -0.6680  -0.6590  -0.6545  -0.6513  -0.6509  -0.6454  -0.6243
    -0.6164  -0.6064  -0.6059  -0.5981  -0.5938  -0.5919  -0.5885  -0.5746
    -0.5705  -0.5692  -0.5390  -0.5320  -0.5301  -0.5220  -0.5151  -0.4995
    -0.4493  -0.4375  -0.4361  -0.4328  -0.4283  -0.4145  -0.3894  -0.3819
    -0.3790  -0.3474  -0.3406  -0.2954  -0.2262  -0.2187  -0.1241   0.2889
     0.2906   0.3001   0.3005   0.3647   0.3895   0.7426   0.7463   0.7857
     0.7896   0.9158   0.9870   1.0942   1.1046   1.3157   1.3449   1.9441
     1.9554   2.1043   2.1132   2.2395   2.2617   2.3423   2.3441   2.4973
     2.7358   2.7557   2.8664   3.0850   3.0952   3.1590   3.1626   3.2622
     3.2818   3.4871   3.5055   3.5338   3.7350   3.7433   3.8028   3.8125
     4.0526   4.0641   4.0795   4.3038   4.3411   4.3495   4.3950   4.7219
     4.7307   4.7569   4.8938   5.0700   5.0732   5.1397   5.1679   5.6248
     5.8303   5.8429   5.8611   5.8941   5.9142   5.9227   5.9387   6.0310
     6.0504   6.0674   6.0978   6.1026   6.1289   6.1440   6.1487   6.1691
     6.2510   6.5884   6.6128   6.7318   6.7701   6.7843   6.7989   6.8119
     6.8302   6.9212   6.9963

          k =-0.2500 0.4330-0.1111 (136853 PWs)   bands (ev):

   -19.2918  -7.4596  -6.4178  -6.0238  -6.0150  -5.3539  -5.0192  -5.0079
    -4.9915  -4.9661  -4.6107  -4.6064  -4.5203  -4.5091  -4.4992  -4.4919
    -4.4691  -4.3634  -4.3383  -4.3205  -4.2798  -4.2731  -4.2586  -4.2062
    -4.2043  -4.2000  -4.1842  -4.1759  -4.1678  -4.1424  -4.0987  -4.0735
    -4.0703  -4.0611  -4.0558  -4.0419  -4.0319  -4.0123  -4.0079  -4.0011
    -3.9818  -3.9385  -3.9243  -3.9057  -3.8769  -3.8708  -3.8286  -3.8165
    -3.7685  -3.7628  -3.7585  -3.7519  -3.7234  -3.7014  -3.6978  -3.6813
    -3.6768  -3.6748  -3.6533  -3.6412  -3.6340  -3.5882  -3.5868  -3.5656
    -3.5478  -3.5418  -3.4726  -3.4656  -3.4508  -3.4361  -3.4180  -3.4069
    -3.3946  -3.3766  -3.3314  -3.3230  -3.3103  -3.3000  -3.2631  -3.2537
    -3.2337  -3.2050  -3.1922  -3.1787  -3.1713  -3.1673  -3.1640  -3.1483
    -3.1479  -3.1424  -3.1299  -3.0973  -3.0644  -3.0537  -3.0486  -3.0436
    -3.0158  -3.0138  -3.0100  -2.9846  -2.9396  -2.9369  -2.9279  -2.8992
    -2.8860  -2.8742  -2.8717  -2.8579  -2.8396  -2.8117  -2.7914  -2.7783
    -2.7645  -2.7484  -2.7384  -2.7354  -2.6947  -2.6837  -2.6533  -2.6424
    -2.6304  -2.6157  -2.6032  -2.6007  -2.5904  -2.5854  -2.5726  -2.5643
    -2.5385  -2.5194  -2.5115  -2.5059  -2.5047  -2.4987  -2.4902  -2.4859
    -2.4826  -2.4785  -2.4739  -2.4702  -2.4624  -2.4517  -2.4462  -2.4302
    -2.4226  -2.4199  -2.4182  -2.4150  -2.4101  -2.3967  -2.3950  -2.3792
    -2.3727  -2.3545  -2.3520  -2.3493  -2.3465  -2.3431  -2.3388  -2.3338
    -2.3210  -2.3189  -2.3148  -2.3049  -2.2818  -2.2730  -2.2356  -2.2332
    -2.2197  -2.2167  -2.1958  -2.1853  -2.1607  -2.1574  -2.1504  -2.1366
    -2.1122  -2.1013  -2.0902  -2.0838  -2.0787  -2.0703  -2.0671  -2.0603
    -2.0482  -2.0429  -2.0306  -1.9923  -1.9704  -1.9667  -1.9608  -1.9519
    -1.9311  -1.9092  -1.9027  -1.8899  -1.8747  -1.8302  -1.8208  -1.8026
    -1.7731  -1.7665  -1.7326  -1.7156  -1.7087  -1.6987  -1.6938  -1.6897
    -1.6815  -1.6775  -1.6700  -1.6592  -1.6232  -1.6101  -1.6054  -1.6022
    -1.5910  -1.5845  -1.5599  -1.5501  -1.5404  -1.5345  -1.5323  -1.5268
    -1.5201  -1.5103  -1.5068  -1.4914  -1.4866  -1.4797  -1.4541  -1.4401
    -1.4376  -1.4266  -1.3984  -1.3743  -1.3629  -1.3459  -1.3355  -1.3309
    -1.3092  -1.2898  -1.2666  -1.2524  -1.2438  -1.2409  -1.2360  -1.2323
    -1.2209  -1.2149  -1.2049  -1.1823  -1.1651  -1.1453  -1.1415  -1.1346
    -1.1314  -1.1268  -1.1209  -1.1091  -1.1062  -1.1029  -1.0965  -1.0714
    -1.0640  -1.0612  -1.0603  -1.0395  -1.0289  -1.0218  -1.0020  -0.9903
    -0.9830  -0.9543  -0.9487  -0.9290  -0.9115  -0.9007  -0.8970  -0.8920
    -0.8862  -0.8827  -0.8780  -0.8691  -0.8643  -0.8520  -0.8463  -0.8451
    -0.8366  -0.8342  -0.8266  -0.8003  -0.7988  -0.7881  -0.7778  -0.7657
    -0.7592  -0.7538  -0.7493  -0.6976  -0.6956  -0.6896  -0.6883  -0.6826
    -0.6794  -0.6723  -0.6593  -0.6538  -0.6523  -0.6502  -0.6449  -0.6257
    -0.6131  -0.6087  -0.6052  -0.5981  -0.5933  -0.5913  -0.5844  -0.5745
    -0.5732  -0.5700  -0.5430  -0.5304  -0.5270  -0.5221  -0.5166  -0.5020
    -0.4499  -0.4384  -0.4349  -0.4320  -0.4283  -0.4162  -0.3900  -0.3803
    -0.3788  -0.3471  -0.3423  -0.2984  -0.2246  -0.2151  -0.1209   0.2892
     0.2909   0.2996   0.3005   0.3646   0.3862   0.7398   0.7467   0.7856
     0.7899   0.9141   0.9896   1.0949   1.1065   1.3196   1.3424   1.9440
     1.9530   2.1044   2.1138   2.2438   2.2576   2.3426   2.3437   2.4964
     2.7346   2.7551   2.8668   3.0885   3.0915   3.1589   3.1633   3.2607
     3.2820   3.4924   3.5015   3.5351   3.7349   3.7441   3.8057   3.8077
     4.0522   4.0685   4.0758   4.3049   4.3417   4.3500   4.3952   4.7171
     4.7361   4.7519   4.8935   5.0716   5.0722   5.1455   5.1604   5.6246
     5.8218   5.8516   5.8653   5.8985   5.9137   5.9246   5.9388   6.0302
     6.0556   6.0629   6.0980   6.1007   6.1348   6.1458   6.1508   6.1619
     6.2503   6.5891   6.6130   6.7271   6.7761   6.7823   6.7917   6.8059
     6.8282   6.9210   7.0030

          k = 0.2500-0.4330-0.1111 (136853 PWs)   bands (ev):

   -19.2918  -7.4596  -6.4178  -6.0238  -6.0150  -5.3539  -5.0192  -5.0079
    -4.9915  -4.9661  -4.6107  -4.6064  -4.5203  -4.5091  -4.4992  -4.4919
    -4.4691  -4.3634  -4.3383  -4.3205  -4.2798  -4.2731  -4.2586  -4.2061
    -4.2043  -4.2000  -4.1842  -4.1759  -4.1678  -4.1424  -4.0987  -4.0735
    -4.0703  -4.0611  -4.0558  -4.0419  -4.0319  -4.0123  -4.0079  -4.0011
    -3.9818  -3.9384  -3.9243  -3.9057  -3.8769  -3.8708  -3.8286  -3.8165
    -3.7685  -3.7628  -3.7585  -3.7519  -3.7234  -3.7014  -3.6978  -3.6813
    -3.6768  -3.6748  -3.6533  -3.6412  -3.6340  -3.5882  -3.5868  -3.5656
    -3.5478  -3.5418  -3.4726  -3.4656  -3.4508  -3.4361  -3.4180  -3.4069
    -3.3946  -3.3766  -3.3314  -3.3230  -3.3103  -3.3000  -3.2631  -3.2537
    -3.2337  -3.2050  -3.1922  -3.1787  -3.1713  -3.1673  -3.1640  -3.1483
    -3.1479  -3.1424  -3.1299  -3.0973  -3.0644  -3.0537  -3.0487  -3.0436
    -3.0158  -3.0138  -3.0100  -2.9846  -2.9396  -2.9369  -2.9279  -2.8992
    -2.8860  -2.8742  -2.8717  -2.8579  -2.8396  -2.8117  -2.7914  -2.7783
    -2.7645  -2.7484  -2.7384  -2.7354  -2.6947  -2.6837  -2.6533  -2.6424
    -2.6304  -2.6157  -2.6032  -2.6007  -2.5904  -2.5854  -2.5726  -2.5643
    -2.5385  -2.5194  -2.5115  -2.5059  -2.5047  -2.4987  -2.4902  -2.4859
    -2.4826  -2.4785  -2.4739  -2.4702  -2.4624  -2.4517  -2.4462  -2.4302
    -2.4226  -2.4199  -2.4182  -2.4150  -2.4101  -2.3967  -2.3950  -2.3792
    -2.3727  -2.3545  -2.3520  -2.3493  -2.3465  -2.3431  -2.3388  -2.3338
    -2.3210  -2.3189  -2.3148  -2.3049  -2.2818  -2.2730  -2.2356  -2.2332
    -2.2197  -2.2167  -2.1958  -2.1853  -2.1607  -2.1574  -2.1504  -2.1366
    -2.1122  -2.1013  -2.0902  -2.0838  -2.0787  -2.0703  -2.0671  -2.0603
    -2.0482  -2.0429  -2.0306  -1.9923  -1.9704  -1.9667  -1.9608  -1.9519
    -1.9311  -1.9092  -1.9027  -1.8899  -1.8747  -1.8302  -1.8208  -1.8026
    -1.7731  -1.7665  -1.7326  -1.7156  -1.7087  -1.6987  -1.6938  -1.6897
    -1.6815  -1.6775  -1.6700  -1.6592  -1.6232  -1.6101  -1.6054  -1.6022
    -1.5910  -1.5845  -1.5599  -1.5501  -1.5404  -1.5345  -1.5323  -1.5268
    -1.5201  -1.5103  -1.5068  -1.4914  -1.4866  -1.4797  -1.4541  -1.4401
    -1.4376  -1.4266  -1.3984  -1.3743  -1.3629  -1.3459  -1.3355  -1.3309
    -1.3092  -1.2898  -1.2666  -1.2524  -1.2438  -1.2409  -1.2360  -1.2323
    -1.2209  -1.2149  -1.2049  -1.1823  -1.1651  -1.1453  -1.1415  -1.1346
    -1.1314  -1.1268  -1.1209  -1.1091  -1.1062  -1.1029  -1.0965  -1.0714
    -1.0640  -1.0612  -1.0603  -1.0395  -1.0289  -1.0218  -1.0020  -0.9903
    -0.9830  -0.9543  -0.9487  -0.9290  -0.9115  -0.9007  -0.8970  -0.8920
    -0.8862  -0.8827  -0.8780  -0.8691  -0.8643  -0.8520  -0.8463  -0.8451
    -0.8366  -0.8342  -0.8266  -0.8003  -0.7988  -0.7881  -0.7778  -0.7657
    -0.7592  -0.7538  -0.7493  -0.6976  -0.6956  -0.6896  -0.6883  -0.6826
    -0.6794  -0.6723  -0.6593  -0.6538  -0.6523  -0.6502  -0.6449  -0.6257
    -0.6131  -0.6087  -0.6052  -0.5981  -0.5933  -0.5913  -0.5844  -0.5745
    -0.5732  -0.5700  -0.5430  -0.5304  -0.5270  -0.5221  -0.5166  -0.5020
    -0.4499  -0.4384  -0.4349  -0.4320  -0.4283  -0.4162  -0.3900  -0.3803
    -0.3788  -0.3471  -0.3423  -0.2984  -0.2246  -0.2151  -0.1209   0.2892
     0.2909   0.2996   0.3005   0.3646   0.3862   0.7398   0.7467   0.7856
     0.7899   0.9141   0.9896   1.0949   1.1065   1.3196   1.3424   1.9440
     1.9530   2.1044   2.1138   2.2438   2.2576   2.3426   2.3437   2.4964
     2.7346   2.7551   2.8668   3.0885   3.0915   3.1589   3.1633   3.2607
     3.2820   3.4924   3.5015   3.5351   3.7349   3.7441   3.8057   3.8077
     4.0522   4.0685   4.0758   4.3049   4.3417   4.3500   4.3952   4.7171
     4.7361   4.7519   4.8935   5.0716   5.0722   5.1455   5.1604   5.6247
     5.8218   5.8516   5.8653   5.8986   5.9137   5.9246   5.9387   6.0302
     6.0556   6.0629   6.0980   6.1007   6.1349   6.1458   6.1508   6.1618
     6.2504   6.5894   6.6129   6.7280   6.7738   6.7866   6.7912   6.8059
     6.8269   6.9208   6.9998

          k = 0.5000 0.0000 0.1111 (136853 PWs)   bands (ev):

   -19.2918  -7.4594  -6.4183  -6.0239  -6.0147  -5.3548  -5.0162  -5.0074
    -4.9930  -4.9656  -4.6129  -4.6070  -4.5234  -4.5091  -4.4979  -4.4910
    -4.4690  -4.3563  -4.3391  -4.3193  -4.2828  -4.2728  -4.2579  -4.2057
    -4.2042  -4.1984  -4.1837  -4.1761  -4.1678  -4.1441  -4.0992  -4.0727
    -4.0685  -4.0625  -4.0564  -4.0427  -4.0325  -4.0120  -4.0087  -4.0021
    -3.9848  -3.9407  -3.9239  -3.9051  -3.8775  -3.8705  -3.8281  -3.8131
    -3.7670  -3.7615  -3.7590  -3.7529  -3.7238  -3.6993  -3.6958  -3.6809
    -3.6768  -3.6740  -3.6514  -3.6435  -3.6375  -3.5889  -3.5846  -3.5705
    -3.5482  -3.5424  -3.4731  -3.4655  -3.4545  -3.4371  -3.4177  -3.4076
    -3.3945  -3.3762  -3.3276  -3.3227  -3.3094  -3.3009  -3.2602  -3.2574
    -3.2335  -3.2041  -3.1909  -3.1802  -3.1729  -3.1669  -3.1626  -3.1503
    -3.1483  -3.1432  -3.1271  -3.0953  -3.0628  -3.0552  -3.0489  -3.0432
    -3.0176  -3.0137  -3.0095  -2.9837  -2.9399  -2.9376  -2.9295  -2.8993
    -2.8859  -2.8752  -2.8722  -2.8560  -2.8410  -2.8117  -2.7852  -2.7814
    -2.7634  -2.7485  -2.7397  -2.7349  -2.6979  -2.6848  -2.6548  -2.6346
    -2.6307  -2.6143  -2.6061  -2.5972  -2.5902  -2.5852  -2.5742  -2.5659
    -2.5285  -2.5177  -2.5130  -2.5079  -2.5030  -2.5008  -2.4891  -2.4854
    -2.4839  -2.4794  -2.4738  -2.4707  -2.4636  -2.4540  -2.4416  -2.4312
    -2.4239  -2.4186  -2.4178  -2.4150  -2.4099  -2.3959  -2.3933  -2.3773
    -2.3741  -2.3575  -2.3533  -2.3501  -2.3440  -2.3434  -2.3392  -2.3343
    -2.3223  -2.3194  -2.3135  -2.3039  -2.2811  -2.2727  -2.2343  -2.2332
    -2.2234  -2.2165  -2.1964  -2.1821  -2.1620  -2.1575  -2.1496  -2.1382
    -2.1165  -2.1036  -2.0932  -2.0848  -2.0781  -2.0722  -2.0689  -2.0640
    -2.0469  -2.0392  -2.0323  -1.9826  -1.9750  -1.9663  -1.9606  -1.9521
    -1.9338  -1.9087  -1.9031  -1.8869  -1.8750  -1.8282  -1.8203  -1.7988
    -1.7760  -1.7672  -1.7292  -1.7111  -1.7074  -1.6986  -1.6902  -1.6872
    -1.6802  -1.6784  -1.6716  -1.6474  -1.6283  -1.6103  -1.6054  -1.6011
    -1.5893  -1.5839  -1.5815  -1.5500  -1.5415  -1.5361  -1.5319  -1.5255
    -1.5209  -1.5103  -1.5080  -1.4905  -1.4868  -1.4633  -1.4539  -1.4443
    -1.4397  -1.4281  -1.4013  -1.3953  -1.3603  -1.3531  -1.3345  -1.3289
    -1.3083  -1.2796  -1.2634  -1.2507  -1.2426  -1.2410  -1.2379  -1.2309
    -1.2254  -1.2170  -1.1959  -1.1795  -1.1680  -1.1475  -1.1436  -1.1363
    -1.1301  -1.1284  -1.1171  -1.1090  -1.1063  -1.1028  -1.0855  -1.0678
    -1.0654  -1.0629  -1.0573  -1.0353  -1.0330  -1.0262  -1.0046  -0.9961
    -0.9839  -0.9574  -0.9475  -0.9333  -0.9102  -0.9041  -0.8975  -0.8925
    -0.8861  -0.8836  -0.8801  -0.8676  -0.8657  -0.8477  -0.8459  -0.8449
    -0.8364  -0.8352  -0.8192  -0.8000  -0.7987  -0.7941  -0.7804  -0.7643
    -0.7598  -0.7540  -0.7391  -0.6989  -0.6932  -0.6900  -0.6893  -0.6845
    -0.6800  -0.6724  -0.6607  -0.6533  -0.6514  -0.6500  -0.6454  -0.6267
    -0.6138  -0.6091  -0.6052  -0.5988  -0.5931  -0.5912  -0.5834  -0.5758
    -0.5744  -0.5685  -0.5406  -0.5320  -0.5277  -0.5221  -0.5173  -0.5051
    -0.4490  -0.4380  -0.4353  -0.4298  -0.4273  -0.4179  -0.3905  -0.3796
    -0.3776  -0.3476  -0.3462  -0.2951  -0.2244  -0.2127  -0.1185   0.2892
     0.2908   0.2999   0.3011   0.3557   0.3868   0.7358   0.7475   0.7853
     0.7923   0.9176   0.9920   1.0916   1.1176   1.3112   1.3473   1.9361
     1.9570   2.0998   2.1225   2.2338   2.2654   2.3418   2.3447   2.4969
     2.7336   2.7583   2.8646   3.0836   3.0950   3.1550   3.1678   3.2600
     3.2823   3.4810   3.5099   3.5306   3.7355   3.7433   3.7991   3.8187
     4.0551   4.0621   4.0834   4.3036   4.3387   4.3573   4.3920   4.7159
     4.7336   4.7607   4.8905   5.0708   5.0735   5.1349   5.1804   5.6270
     5.8257   5.8523   5.8641   5.8785   5.9154   5.9260   5.9363   6.0159
     6.0481   6.0719   6.0988   6.1071   6.1209   6.1358   6.1506   6.1811
     6.2486   6.5794   6.6216   6.7372   6.7764   6.7886   6.7958   6.8093
     6.8436   6.9219   7.0019

          k =-0.5000 0.0000 0.1111 (136853 PWs)   bands (ev):

   -19.2918  -7.4594  -6.4183  -6.0239  -6.0147  -5.3548  -5.0162  -5.0074
    -4.9930  -4.9656  -4.6129  -4.6070  -4.5234  -4.5091  -4.4979  -4.4910
    -4.4690  -4.3563  -4.3391  -4.3193  -4.2828  -4.2728  -4.2579  -4.2057
    -4.2042  -4.1984  -4.1837  -4.1761  -4.1678  -4.1441  -4.0992  -4.0727
    -4.0685  -4.0625  -4.0564  -4.0427  -4.0325  -4.0120  -4.0087  -4.0021
    -3.9848  -3.9407  -3.9239  -3.9051  -3.8775  -3.8705  -3.8281  -3.8131
    -3.7670  -3.7615  -3.7590  -3.7529  -3.7238  -3.6993  -3.6958  -3.6809
    -3.6768  -3.6740  -3.6514  -3.6435  -3.6375  -3.5889  -3.5846  -3.5705
    -3.5482  -3.5424  -3.4731  -3.4655  -3.4545  -3.4371  -3.4177  -3.4076
    -3.3945  -3.3762  -3.3276  -3.3227  -3.3094  -3.3009  -3.2602  -3.2574
    -3.2335  -3.2041  -3.1909  -3.1802  -3.1729  -3.1669  -3.1626  -3.1503
    -3.1483  -3.1432  -3.1271  -3.0953  -3.0628  -3.0552  -3.0489  -3.0432
    -3.0176  -3.0137  -3.0095  -2.9837  -2.9399  -2.9376  -2.9295  -2.8993
    -2.8859  -2.8752  -2.8722  -2.8560  -2.8410  -2.8117  -2.7852  -2.7814
    -2.7634  -2.7485  -2.7397  -2.7349  -2.6979  -2.6848  -2.6549  -2.6346
    -2.6307  -2.6143  -2.6061  -2.5972  -2.5902  -2.5852  -2.5742  -2.5659
    -2.5285  -2.5177  -2.5130  -2.5079  -2.5030  -2.5008  -2.4891  -2.4854
    -2.4839  -2.4794  -2.4738  -2.4707  -2.4636  -2.4540  -2.4416  -2.4312
    -2.4239  -2.4186  -2.4178  -2.4150  -2.4099  -2.3959  -2.3933  -2.3773
    -2.3741  -2.3575  -2.3533  -2.3501  -2.3440  -2.3434  -2.3392  -2.3343
    -2.3223  -2.3194  -2.3135  -2.3039  -2.2811  -2.2727  -2.2343  -2.2332
    -2.2234  -2.2165  -2.1964  -2.1821  -2.1620  -2.1575  -2.1496  -2.1382
    -2.1165  -2.1036  -2.0932  -2.0848  -2.0781  -2.0722  -2.0689  -2.0640
    -2.0469  -2.0392  -2.0323  -1.9826  -1.9750  -1.9663  -1.9606  -1.9521
    -1.9338  -1.9087  -1.9031  -1.8869  -1.8750  -1.8282  -1.8203  -1.7988
    -1.7760  -1.7672  -1.7292  -1.7111  -1.7074  -1.6986  -1.6902  -1.6872
    -1.6802  -1.6784  -1.6716  -1.6474  -1.6283  -1.6103  -1.6054  -1.6011
    -1.5893  -1.5839  -1.5815  -1.5500  -1.5415  -1.5361  -1.5319  -1.5255
    -1.5209  -1.5103  -1.5080  -1.4905  -1.4868  -1.4633  -1.4539  -1.4443
    -1.4397  -1.4281  -1.4013  -1.3953  -1.3603  -1.3531  -1.3345  -1.3289
    -1.3083  -1.2796  -1.2634  -1.2507  -1.2426  -1.2410  -1.2379  -1.2309
    -1.2254  -1.2170  -1.1959  -1.1795  -1.1680  -1.1475  -1.1436  -1.1363
    -1.1301  -1.1284  -1.1171  -1.1090  -1.1063  -1.1028  -1.0855  -1.0678
    -1.0654  -1.0629  -1.0573  -1.0353  -1.0330  -1.0262  -1.0046  -0.9961
    -0.9839  -0.9574  -0.9475  -0.9333  -0.9102  -0.9041  -0.8975  -0.8925
    -0.8861  -0.8836  -0.8801  -0.8676  -0.8657  -0.8477  -0.8459  -0.8449
    -0.8364  -0.8352  -0.8192  -0.8000  -0.7987  -0.7941  -0.7804  -0.7643
    -0.7598  -0.7540  -0.7391  -0.6989  -0.6932  -0.6900  -0.6893  -0.6845
    -0.6800  -0.6724  -0.6607  -0.6533  -0.6514  -0.6500  -0.6454  -0.6267
    -0.6137  -0.6091  -0.6052  -0.5988  -0.5931  -0.5912  -0.5834  -0.5758
    -0.5744  -0.5685  -0.5406  -0.5320  -0.5277  -0.5221  -0.5173  -0.5051
    -0.4490  -0.4380  -0.4353  -0.4298  -0.4273  -0.4179  -0.3905  -0.3796
    -0.3776  -0.3476  -0.3462  -0.2951  -0.2244  -0.2127  -0.1185   0.2892
     0.2908   0.2999   0.3011   0.3557   0.3868   0.7358   0.7475   0.7853
     0.7923   0.9176   0.9920   1.0916   1.1176   1.3112   1.3473   1.9360
     1.9570   2.0998   2.1225   2.2338   2.2654   2.3418   2.3447   2.4969
     2.7336   2.7583   2.8646   3.0836   3.0950   3.1550   3.1678   3.2600
     3.2823   3.4810   3.5099   3.5306   3.7355   3.7433   3.7991   3.8187
     4.0551   4.0621   4.0834   4.3036   4.3387   4.3573   4.3920   4.7159
     4.7336   4.7607   4.8905   5.0708   5.0735   5.1349   5.1804   5.6270
     5.8257   5.8523   5.8641   5.8785   5.9154   5.9260   5.9363   6.0159
     6.0481   6.0719   6.0988   6.1072   6.1209   6.1358   6.1506   6.1809
     6.2489   6.5795   6.6217   6.7372   6.7760   6.7899   6.7958   6.8089
     6.8434   6.9219   7.0018

          k =-0.2500 0.1443 0.1111 (136898 PWs)   bands (ev):

   -19.2918  -7.4597  -6.6274  -5.8369  -5.5571  -5.4888  -5.4847  -4.9524
    -4.9470  -4.8339  -4.8155  -4.6895  -4.6451  -4.5685  -4.5632  -4.5358
    -4.5037  -4.5003  -4.3737  -4.3310  -4.3299  -4.2898  -4.2661  -4.2512
    -4.1697  -4.1471  -4.1291  -4.1111  -4.1095  -4.1009  -4.0717  -4.0623
    -4.0358  -3.9576  -3.9554  -3.9500  -3.9403  -3.9190  -3.9174  -3.9068
    -3.9008  -3.8951  -3.8667  -3.8648  -3.8601  -3.8476  -3.8378  -3.8267
    -3.8134  -3.8106  -3.8031  -3.7728  -3.7471  -3.7219  -3.7114  -3.7028
    -3.7015  -3.6849  -3.6288  -3.6272  -3.6022  -3.5934  -3.5758  -3.5220
    -3.5206  -3.5067  -3.5005  -3.4861  -3.4835  -3.4789  -3.4654  -3.3291
    -3.3204  -3.3083  -3.3031  -3.2832  -3.2770  -3.2691  -3.2566  -3.2508
    -3.2028  -3.2005  -3.1857  -3.1846  -3.1606  -3.1271  -3.1231  -3.0964
    -3.0913  -3.0883  -3.0559  -3.0527  -3.0403  -3.0378  -3.0262  -3.0101
    -2.9922  -2.9899  -2.9777  -2.9648  -2.9627  -2.9613  -2.9518  -2.8892
    -2.8866  -2.8734  -2.8529  -2.8484  -2.8054  -2.7854  -2.7690  -2.7583
    -2.7524  -2.7492  -2.7366  -2.7168  -2.7100  -2.7004  -2.6888  -2.6691
    -2.6641  -2.6539  -2.6433  -2.6384  -2.6323  -2.6282  -2.6249  -2.6124
    -2.6093  -2.5651  -2.5511  -2.5409  -2.5147  -2.5112  -2.5074  -2.4995
    -2.4937  -2.4914  -2.4880  -2.4707  -2.4643  -2.4585  -2.4524  -2.4493
    -2.4391  -2.4191  -2.4124  -2.4061  -2.4050  -2.4017  -2.3574  -2.3395
    -2.3299  -2.3264  -2.3225  -2.3173  -2.3073  -2.3017  -2.2809  -2.2798
    -2.2636  -2.2516  -2.2484  -2.2411  -2.2330  -2.2309  -2.2019  -2.1965
    -2.1707  -2.1627  -2.1529  -2.1477  -2.1454  -2.1414  -2.1390  -2.1347
    -2.1321  -2.1289  -2.1191  -2.1136  -2.1112  -2.0223  -1.9913  -1.9872
    -1.9518  -1.9490  -1.9370  -1.9355  -1.9287  -1.9272  -1.9179  -1.9147
    -1.9059  -1.9003  -1.8916  -1.8890  -1.8816  -1.8722  -1.8631  -1.8546
    -1.8411  -1.8244  -1.8199  -1.8011  -1.7851  -1.7839  -1.7748  -1.7536
    -1.7524  -1.7483  -1.7367  -1.7248  -1.7184  -1.7131  -1.7099  -1.6968
    -1.6878  -1.6753  -1.6711  -1.6406  -1.6344  -1.6196  -1.6022  -1.5788
    -1.5699  -1.5603  -1.5507  -1.5338  -1.5282  -1.5097  -1.5007  -1.4925
    -1.4696  -1.4659  -1.4587  -1.4403  -1.4371  -1.4263  -1.4178  -1.4065
    -1.3922  -1.3808  -1.3748  -1.3273  -1.3174  -1.3119  -1.3060  -1.3010
    -1.2898  -1.2831  -1.2739  -1.2651  -1.2565  -1.2408  -1.2164  -1.2120
    -1.1947  -1.1737  -1.1647  -1.1579  -1.1537  -1.1514  -1.1484  -1.1467
    -1.1267  -1.1210  -1.1073  -1.1029  -1.0874  -1.0839  -1.0816  -1.0707
    -1.0520  -1.0438  -1.0341  -1.0214  -0.9838  -0.9342  -0.9304  -0.9153
    -0.9138  -0.9046  -0.9017  -0.8860  -0.8836  -0.8682  -0.8650  -0.8518
    -0.8483  -0.8461  -0.8372  -0.8229  -0.8137  -0.8073  -0.7872  -0.7318
    -0.7310  -0.7014  -0.6951  -0.6901  -0.6869  -0.6840  -0.6817  -0.6759
    -0.6721  -0.6565  -0.6376  -0.6268  -0.6041  -0.5980  -0.5964  -0.5880
    -0.5815  -0.5753  -0.5723  -0.5701  -0.5672  -0.5556  -0.5533  -0.5489
    -0.5329  -0.5191  -0.5152  -0.5052  -0.5012  -0.4866  -0.4816  -0.4515
    -0.4460  -0.4421  -0.4303  -0.3723  -0.3682  -0.3442  -0.3421  -0.2869
    -0.2853  -0.2794  -0.2608  -0.2340  -0.0219   0.0078   0.3215   0.3221
     0.4143   0.4444   0.6171   0.6385   0.6651   0.7644   0.7752   1.2015
     1.2036   1.2191   1.4919   1.5119   1.5138   1.7878   1.8135   1.8620
     1.8646   1.8919   1.9158   2.1180   2.1235   2.2137   2.2146   2.3014
     2.3514   2.3795   2.5198   2.6250   3.0428   3.0532   3.0560   3.0656
     3.1072   3.1176   3.4046   3.4071   3.6840   3.7017   3.8108   4.1039
     4.1386   4.1447   4.3690   4.3988   4.4371   4.4525   4.5408   4.6530
     4.6643   4.7690   4.7759   5.0704   5.1306   5.1522   5.3176   5.3583
     5.4985   5.5239   5.5326   5.5580   5.5665   5.6079   5.6285   5.6971
     6.0334   6.0724   6.2224   6.3025   6.3435   6.3548   6.3656   6.3788
     6.3909   6.6101   6.6143   6.6241   6.7747   6.8362   6.8774   6.9050
     6.9413   7.1153   7.1463

          k =-0.2500-0.1443-0.1111 (136898 PWs)   bands (ev):

   -19.2918  -7.4597  -6.6275  -5.8377  -5.5572  -5.4872  -5.4847  -4.9503
    -4.9473  -4.8403  -4.8156  -4.6879  -4.6449  -4.5739  -4.5518  -4.5361
    -4.5024  -4.5006  -4.3722  -4.3353  -4.3297  -4.2949  -4.2591  -4.2519
    -4.1634  -4.1477  -4.1378  -4.1114  -4.1097  -4.1024  -4.0718  -4.0623
    -4.0437  -3.9613  -3.9551  -3.9453  -3.9300  -3.9186  -3.9165  -3.9076
    -3.9023  -3.8829  -3.8667  -3.8630  -3.8604  -3.8556  -3.8372  -3.8337
    -3.8114  -3.8094  -3.7988  -3.7701  -3.7562  -3.7244  -3.7124  -3.7032
    -3.7011  -3.6838  -3.6287  -3.6262  -3.6003  -3.5927  -3.5769  -3.5238
    -3.5220  -3.5077  -3.5045  -3.4857  -3.4841  -3.4784  -3.4666  -3.3228
    -3.3203  -3.3055  -3.3017  -3.2844  -3.2775  -3.2681  -3.2555  -3.2490
    -3.2023  -3.2007  -3.1866  -3.1823  -3.1647  -3.1252  -3.1131  -3.1054
    -3.0932  -3.0880  -3.0553  -3.0481  -3.0411  -3.0386  -3.0310  -3.0248
    -2.9915  -2.9885  -2.9692  -2.9669  -2.9625  -2.9584  -2.9496  -2.8944
    -2.8862  -2.8771  -2.8515  -2.8485  -2.8001  -2.7884  -2.7638  -2.7619
    -2.7515  -2.7459  -2.7355  -2.7180  -2.7115  -2.6999  -2.6877  -2.6715
    -2.6636  -2.6561  -2.6444  -2.6390  -2.6349  -2.6290  -2.6241  -2.6127
    -2.6093  -2.5647  -2.5531  -2.5377  -2.5263  -2.5104  -2.5071  -2.4997
    -2.4940  -2.4919  -2.4877  -2.4682  -2.4625  -2.4557  -2.4510  -2.4444
    -2.4410  -2.4160  -2.4137  -2.4095  -2.4037  -2.4008  -2.3564  -2.3388
    -2.3339  -2.3268  -2.3225  -2.3086  -2.3069  -2.2974  -2.2803  -2.2792
    -2.2661  -2.2559  -2.2496  -2.2400  -2.2327  -2.2285  -2.2121  -2.1969
    -2.1718  -2.1618  -2.1509  -2.1470  -2.1451  -2.1432  -2.1385  -2.1362
    -2.1334  -2.1295  -2.1245  -2.1124  -2.1044  -2.0072  -1.9901  -1.9880
    -1.9537  -1.9481  -1.9386  -1.9354  -1.9322  -1.9237  -1.9198  -1.9168
    -1.9073  -1.8965  -1.8941  -1.8885  -1.8810  -1.8703  -1.8613  -1.8550
    -1.8407  -1.8242  -1.8184  -1.8082  -1.7978  -1.7854  -1.7718  -1.7534
    -1.7492  -1.7481  -1.7362  -1.7207  -1.7154  -1.7105  -1.7096  -1.6949
    -1.6884  -1.6756  -1.6678  -1.6467  -1.6363  -1.6249  -1.5870  -1.5818
    -1.5670  -1.5609  -1.5470  -1.5333  -1.5294  -1.5216  -1.5036  -1.4950
    -1.4742  -1.4597  -1.4573  -1.4422  -1.4365  -1.4325  -1.4162  -1.4029
    -1.3899  -1.3783  -1.3752  -1.3380  -1.3227  -1.3161  -1.3078  -1.3017
    -1.2933  -1.2791  -1.2736  -1.2564  -1.2466  -1.2401  -1.2143  -1.2113
    -1.1912  -1.1742  -1.1627  -1.1571  -1.1515  -1.1495  -1.1481  -1.1446
    -1.1325  -1.1267  -1.1105  -1.1011  -1.0869  -1.0842  -1.0761  -1.0717
    -1.0551  -1.0379  -1.0297  -1.0201  -0.9850  -0.9378  -0.9293  -0.9161
    -0.9144  -0.9043  -0.9011  -0.8863  -0.8828  -0.8684  -0.8643  -0.8573
    -0.8495  -0.8464  -0.8349  -0.8237  -0.8140  -0.8072  -0.7909  -0.7349
    -0.7293  -0.7014  -0.6948  -0.6912  -0.6883  -0.6844  -0.6811  -0.6769
    -0.6692  -0.6559  -0.6380  -0.6267  -0.6098  -0.6010  -0.5964  -0.5883
    -0.5811  -0.5781  -0.5719  -0.5679  -0.5654  -0.5558  -0.5523  -0.5490
    -0.5317  -0.5187  -0.5141  -0.5058  -0.5007  -0.4859  -0.4812  -0.4522
    -0.4454  -0.4415  -0.4288  -0.3734  -0.3677  -0.3452  -0.3411  -0.2865
    -0.2856  -0.2793  -0.2610  -0.2373  -0.0212   0.0134   0.3213   0.3222
     0.4141   0.4441   0.6174   0.6407   0.6604   0.7641   0.7732   1.2009
     1.2047   1.2182   1.4919   1.5114   1.5152   1.7871   1.8134   1.8609
     1.8685   1.8920   1.9157   2.1189   2.1243   2.2128   2.2149   2.3008
     2.3518   2.3803   2.5183   2.6243   3.0433   3.0526   3.0569   3.0645
     3.1093   3.1165   3.4035   3.4077   3.6836   3.7020   3.8109   4.1038
     4.1373   4.1468   4.3690   4.3991   4.4427   4.4507   4.5386   4.6570
     4.6620   4.7694   4.7727   5.0679   5.1394   5.1470   5.3167   5.3590
     5.4967   5.5247   5.5310   5.5609   5.5644   5.6126   5.6234   5.6959
     6.0338   6.0723   6.2192   6.3069   6.3411   6.3621   6.3649   6.3758
     6.3882   6.6053   6.6132   6.6240   6.7755   6.8364   6.8794   6.9069
     6.9421   7.1117   7.1452

          k = 0.2500 0.1443-0.1111 (136898 PWs)   bands (ev):

   -19.2918  -7.4597  -6.6275  -5.8377  -5.5572  -5.4872  -5.4847  -4.9503
    -4.9473  -4.8403  -4.8156  -4.6879  -4.6449  -4.5739  -4.5518  -4.5361
    -4.5024  -4.5006  -4.3722  -4.3353  -4.3297  -4.2949  -4.2591  -4.2519
    -4.1634  -4.1477  -4.1378  -4.1114  -4.1097  -4.1024  -4.0718  -4.0623
    -4.0437  -3.9613  -3.9551  -3.9453  -3.9300  -3.9186  -3.9165  -3.9076
    -3.9023  -3.8829  -3.8667  -3.8630  -3.8604  -3.8556  -3.8372  -3.8337
    -3.8114  -3.8095  -3.7988  -3.7701  -3.7562  -3.7244  -3.7124  -3.7032
    -3.7011  -3.6838  -3.6287  -3.6262  -3.6003  -3.5927  -3.5769  -3.5238
    -3.5220  -3.5077  -3.5045  -3.4857  -3.4841  -3.4784  -3.4666  -3.3228
    -3.3203  -3.3055  -3.3017  -3.2844  -3.2775  -3.2681  -3.2555  -3.2490
    -3.2023  -3.2007  -3.1866  -3.1823  -3.1647  -3.1252  -3.1131  -3.1054
    -3.0932  -3.0880  -3.0553  -3.0481  -3.0411  -3.0386  -3.0310  -3.0248
    -2.9915  -2.9885  -2.9692  -2.9669  -2.9625  -2.9584  -2.9496  -2.8944
    -2.8862  -2.8771  -2.8515  -2.8485  -2.8001  -2.7884  -2.7638  -2.7619
    -2.7515  -2.7459  -2.7355  -2.7180  -2.7115  -2.6999  -2.6877  -2.6715
    -2.6636  -2.6561  -2.6444  -2.6390  -2.6349  -2.6290  -2.6241  -2.6127
    -2.6093  -2.5647  -2.5531  -2.5377  -2.5263  -2.5104  -2.5071  -2.4997
    -2.4940  -2.4919  -2.4877  -2.4682  -2.4625  -2.4557  -2.4510  -2.4444
    -2.4410  -2.4160  -2.4137  -2.4095  -2.4037  -2.4008  -2.3564  -2.3388
    -2.3339  -2.3268  -2.3225  -2.3086  -2.3069  -2.2974  -2.2803  -2.2792
    -2.2661  -2.2559  -2.2496  -2.2400  -2.2327  -2.2285  -2.2121  -2.1969
    -2.1718  -2.1618  -2.1509  -2.1470  -2.1451  -2.1432  -2.1385  -2.1362
    -2.1334  -2.1295  -2.1245  -2.1124  -2.1044  -2.0072  -1.9901  -1.9880
    -1.9537  -1.9481  -1.9386  -1.9354  -1.9322  -1.9237  -1.9198  -1.9169
    -1.9073  -1.8965  -1.8941  -1.8885  -1.8810  -1.8703  -1.8613  -1.8550
    -1.8407  -1.8242  -1.8184  -1.8082  -1.7978  -1.7854  -1.7718  -1.7534
    -1.7492  -1.7481  -1.7362  -1.7207  -1.7154  -1.7105  -1.7096  -1.6949
    -1.6884  -1.6756  -1.6678  -1.6467  -1.6363  -1.6249  -1.5870  -1.5818
    -1.5670  -1.5609  -1.5470  -1.5333  -1.5294  -1.5216  -1.5036  -1.4950
    -1.4742  -1.4597  -1.4573  -1.4422  -1.4365  -1.4325  -1.4162  -1.4029
    -1.3899  -1.3783  -1.3752  -1.3380  -1.3227  -1.3161  -1.3078  -1.3016
    -1.2933  -1.2791  -1.2736  -1.2564  -1.2466  -1.2401  -1.2143  -1.2113
    -1.1912  -1.1742  -1.1627  -1.1571  -1.1515  -1.1495  -1.1481  -1.1446
    -1.1325  -1.1267  -1.1105  -1.1011  -1.0869  -1.0842  -1.0761  -1.0717
    -1.0551  -1.0379  -1.0297  -1.0201  -0.9850  -0.9378  -0.9293  -0.9161
    -0.9144  -0.9043  -0.9011  -0.8863  -0.8828  -0.8684  -0.8643  -0.8573
    -0.8495  -0.8464  -0.8349  -0.8237  -0.8140  -0.8072  -0.7909  -0.7349
    -0.7293  -0.7014  -0.6948  -0.6912  -0.6883  -0.6844  -0.6811  -0.6769
    -0.6692  -0.6559  -0.6380  -0.6267  -0.6098  -0.6010  -0.5964  -0.5883
    -0.5811  -0.5781  -0.5719  -0.5679  -0.5654  -0.5558  -0.5523  -0.5491
    -0.5317  -0.5187  -0.5141  -0.5058  -0.5007  -0.4859  -0.4812  -0.4522
    -0.4454  -0.4415  -0.4288  -0.3734  -0.3677  -0.3452  -0.3411  -0.2865
    -0.2856  -0.2793  -0.2610  -0.2373  -0.0212   0.0134   0.3213   0.3222
     0.4141   0.4441   0.6174   0.6407   0.6604   0.7641   0.7732   1.2009
     1.2047   1.2182   1.4919   1.5114   1.5152   1.7871   1.8134   1.8609
     1.8685   1.8920   1.9157   2.1189   2.1243   2.2128   2.2149   2.3008
     2.3518   2.3803   2.5183   2.6243   3.0433   3.0526   3.0569   3.0645
     3.1093   3.1165   3.4035   3.4076   3.6836   3.7020   3.8109   4.1038
     4.1373   4.1468   4.3690   4.3991   4.4427   4.4507   4.5386   4.6570
     4.6620   4.7694   4.7727   5.0679   5.1394   5.1470   5.3167   5.3590
     5.4967   5.5247   5.5310   5.5609   5.5644   5.6126   5.6234   5.6959
     6.0341   6.0724   6.2192   6.3067   6.3410   6.3621   6.3649   6.3758
     6.3881   6.6058   6.6129   6.6232   6.7722   6.8363   6.8797   6.9069
     6.9426   7.1178   7.1497

          k = 0.0000-0.2887 0.1111 (136898 PWs)   bands (ev):

   -19.2918  -7.4598  -6.6273  -5.8365  -5.5571  -5.4882  -5.4856  -4.9517
    -4.9473  -4.8352  -4.8153  -4.6888  -4.6450  -4.5723  -4.5571  -4.5378
    -4.5027  -4.5007  -4.3721  -4.3348  -4.3296  -4.2911  -4.2631  -4.2518
    -4.1644  -4.1478  -4.1353  -4.1113  -4.1098  -4.1026  -4.0721  -4.0626
    -4.0414  -3.9615  -3.9560  -3.9451  -3.9326  -3.9185  -3.9151  -3.9073
    -3.9024  -3.8850  -3.8668  -3.8631  -3.8602  -3.8535  -3.8360  -3.8329
    -3.8120  -3.8100  -3.7996  -3.7711  -3.7526  -3.7212  -3.7113  -3.7053
    -3.7015  -3.6836  -3.6291  -3.6262  -3.6034  -3.5937  -3.5757  -3.5234
    -3.5212  -3.5069  -3.5025  -3.4851  -3.4822  -3.4799  -3.4666  -3.3276
    -3.3199  -3.3064  -3.2986  -3.2855  -3.2766  -3.2705  -3.2570  -3.2472
    -3.2025  -3.2007  -3.1873  -3.1824  -3.1648  -3.1252  -3.1142  -3.1044
    -3.0917  -3.0878  -3.0554  -3.0498  -3.0408  -3.0365  -3.0307  -3.0226
    -2.9915  -2.9877  -2.9751  -2.9659  -2.9621  -2.9581  -2.9487  -2.8901
    -2.8856  -2.8767  -2.8539  -2.8485  -2.7962  -2.7931  -2.7655  -2.7609
    -2.7506  -2.7461  -2.7359  -2.7145  -2.7124  -2.7007  -2.6916  -2.6708
    -2.6646  -2.6535  -2.6423  -2.6382  -2.6348  -2.6269  -2.6236  -2.6159
    -2.6093  -2.5645  -2.5540  -2.5368  -2.5257  -2.5126  -2.5096  -2.4998
    -2.4964  -2.4909  -2.4868  -2.4717  -2.4638  -2.4560  -2.4509  -2.4437
    -2.4399  -2.4190  -2.4133  -2.4091  -2.4037  -2.4012  -2.3556  -2.3432
    -2.3326  -2.3261  -2.3226  -2.3125  -2.3074  -2.2976  -2.2809  -2.2784
    -2.2657  -2.2529  -2.2483  -2.2447  -2.2316  -2.2269  -2.2071  -2.1970
    -2.1705  -2.1676  -2.1508  -2.1476  -2.1457  -2.1422  -2.1397  -2.1364
    -2.1345  -2.1296  -2.1237  -2.1136  -2.1031  -2.0240  -1.9874  -1.9689
    -1.9554  -1.9488  -1.9386  -1.9351  -1.9313  -1.9217  -1.9197  -1.9144
    -1.9103  -1.8991  -1.8940  -1.8897  -1.8808  -1.8714  -1.8607  -1.8544
    -1.8396  -1.8264  -1.8179  -1.8018  -1.7945  -1.7834  -1.7711  -1.7578
    -1.7486  -1.7476  -1.7364  -1.7259  -1.7159  -1.7117  -1.7082  -1.6914
    -1.6858  -1.6787  -1.6698  -1.6450  -1.6338  -1.6225  -1.5905  -1.5812
    -1.5655  -1.5625  -1.5485  -1.5332  -1.5289  -1.5211  -1.5042  -1.4933
    -1.4718  -1.4612  -1.4565  -1.4392  -1.4350  -1.4250  -1.4179  -1.4019
    -1.3904  -1.3829  -1.3756  -1.3470  -1.3240  -1.3159  -1.3057  -1.2971
    -1.2936  -1.2787  -1.2719  -1.2601  -1.2546  -1.2408  -1.2133  -1.2036
    -1.1969  -1.1750  -1.1610  -1.1582  -1.1520  -1.1500  -1.1488  -1.1429
    -1.1371  -1.1267  -1.1109  -1.1031  -1.0861  -1.0841  -1.0758  -1.0694
    -1.0588  -1.0331  -1.0260  -1.0132  -0.9801  -0.9406  -0.9308  -0.9158
    -0.9139  -0.9071  -0.9000  -0.8856  -0.8812  -0.8734  -0.8628  -0.8562
    -0.8477  -0.8448  -0.8372  -0.8229  -0.8110  -0.8076  -0.8024  -0.7348
    -0.7307  -0.7002  -0.6953  -0.6927  -0.6885  -0.6851  -0.6806  -0.6781
    -0.6692  -0.6546  -0.6368  -0.6267  -0.6099  -0.6017  -0.5961  -0.5878
    -0.5809  -0.5782  -0.5717  -0.5679  -0.5661  -0.5554  -0.5521  -0.5484
    -0.5337  -0.5192  -0.5152  -0.5046  -0.5008  -0.4832  -0.4800  -0.4516
    -0.4460  -0.4403  -0.4268  -0.3733  -0.3678  -0.3446  -0.3417  -0.2869
    -0.2846  -0.2795  -0.2608  -0.2459  -0.0143   0.0181   0.3214   0.3222
     0.4207   0.4421   0.6101   0.6379   0.6576   0.7663   0.7726   1.2005
     1.2049   1.2172   1.4921   1.5121   1.5146   1.7927   1.8096   1.8613
     1.8685   1.8961   1.9090   2.1193   2.1240   2.2127   2.2151   2.3028
     2.3565   2.3726   2.5173   2.6258   3.0460   3.0536   3.0562   3.0639
     3.1113   3.1153   3.4063   3.4071   3.6901   3.6984   3.8120   4.1013
     4.1353   4.1463   4.3710   4.3943   4.4378   4.4441   4.5433   4.6499
     4.6617   4.7741   4.7781   5.0691   5.1359   5.1504   5.3311   5.3454
     5.4941   5.5155   5.5316   5.5602   5.5663   5.6137   5.6308   5.6992
     6.0312   6.0819   6.2079   6.3032   6.3366   6.3537   6.3629   6.3835
     6.3945   6.6092   6.6189   6.6207   6.7781   6.8488   6.8657   6.9220
     6.9300   7.1225   7.1339

          k = 0.0000 0.2887 0.1111 (136898 PWs)   bands (ev):

   -19.2918  -7.4598  -6.6273  -5.8365  -5.5571  -5.4882  -5.4856  -4.9517
    -4.9473  -4.8352  -4.8153  -4.6888  -4.6450  -4.5723  -4.5571  -4.5378
    -4.5027  -4.5007  -4.3721  -4.3348  -4.3296  -4.2911  -4.2631  -4.2518
    -4.1644  -4.1478  -4.1353  -4.1113  -4.1098  -4.1026  -4.0721  -4.0626
    -4.0414  -3.9615  -3.9560  -3.9451  -3.9326  -3.9184  -3.9151  -3.9073
    -3.9024  -3.8850  -3.8668  -3.8631  -3.8602  -3.8535  -3.8360  -3.8329
    -3.8120  -3.8100  -3.7996  -3.7711  -3.7526  -3.7212  -3.7113  -3.7053
    -3.7015  -3.6836  -3.6291  -3.6262  -3.6034  -3.5937  -3.5757  -3.5234
    -3.5212  -3.5069  -3.5025  -3.4851  -3.4822  -3.4799  -3.4666  -3.3276
    -3.3199  -3.3064  -3.2986  -3.2855  -3.2766  -3.2705  -3.2570  -3.2472
    -3.2025  -3.2007  -3.1873  -3.1824  -3.1648  -3.1252  -3.1142  -3.1044
    -3.0917  -3.0878  -3.0554  -3.0498  -3.0408  -3.0365  -3.0307  -3.0226
    -2.9915  -2.9877  -2.9751  -2.9659  -2.9621  -2.9581  -2.9487  -2.8901
    -2.8856  -2.8767  -2.8539  -2.8485  -2.7961  -2.7931  -2.7655  -2.7609
    -2.7506  -2.7461  -2.7359  -2.7145  -2.7124  -2.7007  -2.6916  -2.6708
    -2.6646  -2.6535  -2.6423  -2.6382  -2.6348  -2.6269  -2.6236  -2.6159
    -2.6093  -2.5645  -2.5540  -2.5368  -2.5257  -2.5126  -2.5096  -2.4998
    -2.4964  -2.4909  -2.4868  -2.4717  -2.4638  -2.4560  -2.4509  -2.4437
    -2.4399  -2.4190  -2.4133  -2.4091  -2.4037  -2.4012  -2.3556  -2.3432
    -2.3326  -2.3261  -2.3226  -2.3125  -2.3074  -2.2976  -2.2809  -2.2784
    -2.2657  -2.2529  -2.2483  -2.2447  -2.2316  -2.2269  -2.2071  -2.1970
    -2.1705  -2.1676  -2.1508  -2.1476  -2.1457  -2.1422  -2.1397  -2.1364
    -2.1345  -2.1296  -2.1237  -2.1136  -2.1031  -2.0240  -1.9874  -1.9689
    -1.9554  -1.9488  -1.9386  -1.9351  -1.9313  -1.9217  -1.9197  -1.9144
    -1.9103  -1.8991  -1.8940  -1.8897  -1.8808  -1.8714  -1.8607  -1.8544
    -1.8396  -1.8264  -1.8179  -1.8018  -1.7945  -1.7834  -1.7711  -1.7578
    -1.7486  -1.7476  -1.7364  -1.7259  -1.7159  -1.7117  -1.7082  -1.6914
    -1.6858  -1.6787  -1.6698  -1.6450  -1.6338  -1.6225  -1.5905  -1.5812
    -1.5656  -1.5625  -1.5485  -1.5332  -1.5289  -1.5211  -1.5042  -1.4933
    -1.4718  -1.4612  -1.4565  -1.4392  -1.4350  -1.4250  -1.4179  -1.4019
    -1.3904  -1.3829  -1.3756  -1.3470  -1.3240  -1.3159  -1.3056  -1.2971
    -1.2936  -1.2787  -1.2719  -1.2601  -1.2546  -1.2408  -1.2133  -1.2036
    -1.1969  -1.1750  -1.1610  -1.1582  -1.1520  -1.1500  -1.1488  -1.1429
    -1.1371  -1.1267  -1.1109  -1.1031  -1.0861  -1.0841  -1.0758  -1.0694
    -1.0588  -1.0331  -1.0260  -1.0132  -0.9801  -0.9406  -0.9308  -0.9158
    -0.9139  -0.9071  -0.9000  -0.8856  -0.8812  -0.8734  -0.8628  -0.8562
    -0.8477  -0.8448  -0.8372  -0.8229  -0.8110  -0.8076  -0.8024  -0.7348
    -0.7307  -0.7002  -0.6953  -0.6927  -0.6885  -0.6851  -0.6806  -0.6781
    -0.6692  -0.6546  -0.6368  -0.6267  -0.6099  -0.6017  -0.5961  -0.5878
    -0.5809  -0.5782  -0.5717  -0.5679  -0.5661  -0.5554  -0.5521  -0.5484
    -0.5337  -0.5192  -0.5152  -0.5046  -0.5008  -0.4832  -0.4800  -0.4516
    -0.4460  -0.4403  -0.4267  -0.3733  -0.3678  -0.3446  -0.3417  -0.2869
    -0.2846  -0.2795  -0.2608  -0.2459  -0.0143   0.0181   0.3214   0.3222
     0.4207   0.4421   0.6100   0.6379   0.6576   0.7663   0.7726   1.2005
     1.2049   1.2172   1.4921   1.5121   1.5146   1.7927   1.8096   1.8613
     1.8685   1.8961   1.9090   2.1193   2.1240   2.2127   2.2151   2.3028
     2.3565   2.3726   2.5173   2.6258   3.0460   3.0536   3.0562   3.0639
     3.1113   3.1153   3.4063   3.4071   3.6901   3.6984   3.8120   4.1013
     4.1353   4.1463   4.3710   4.3943   4.4378   4.4441   4.5433   4.6499
     4.6617   4.7741   4.7781   5.0691   5.1359   5.1504   5.3311   5.3454
     5.4941   5.5155   5.5316   5.5602   5.5663   5.6137   5.6308   5.6992
     6.0314   6.0818   6.2080   6.3031   6.3364   6.3538   6.3629   6.3835
     6.3947   6.6074   6.6192   6.6225   6.7747   6.8476   6.8657   6.9224
     6.9303   7.1276   7.1389

     the Fermi energy is     1.3530 ev

!    total energy              =   -6604.36264115 Ry
     Harris-Foulkes estimate   =   -6604.36264115 Ry
     estimated scf accuracy    <          2.5E-09 Ry

     The total energy is the sum of the following terms:

     one-electron contribution =  -48926.19772695 Ry
     hartree contribution      =   24961.81048307 Ry
     xc contribution           =   -3205.10693696 Ry
     ewald contribution        =   20565.12888529 Ry
     smearing contrib. (-TS)   =       0.00265439 Ry

     convergence has been achieved in  25 iterations

     Writing output data file 1716061.save

     init_run     :    205.63s CPU    216.75s WALL (       1 calls)
     electrons    :  11678.80s CPU  12507.48s WALL (       1 calls)

     Called by init_run:
     wfcinit      :    173.37s CPU    183.49s WALL (       1 calls)
     potinit      :     10.38s CPU     10.92s WALL (       1 calls)

     Called by electrons:
     c_bands      :  10027.40s CPU  10729.11s WALL (      26 calls)
     sum_band     :   1279.08s CPU   1387.37s WALL (      26 calls)
     v_of_rho     :    107.79s CPU    121.10s WALL (      26 calls)
     newd         :    272.68s CPU    277.20s WALL (      26 calls)
     mix_rho      :      2.86s CPU      3.26s WALL (      26 calls)
     vdW_energy   :     10.70s CPU     12.65s WALL (      26 calls)
     vdW_ffts     :     51.58s CPU     57.69s WALL (      52 calls)
     vdW_v        :     14.53s CPU     15.42s WALL (      26 calls)

     Called by c_bands:
     init_us_2    :     32.36s CPU     32.95s WALL (     636 calls)
     cegterg      :   9703.93s CPU  10403.38s WALL (     312 calls)

     Called by *egterg:
     h_psi        :   3895.88s CPU   4377.28s WALL (    1546 calls)
     s_psi        :    453.42s CPU    466.29s WALL (    1546 calls)
     g_psi        :      6.54s CPU      6.58s WALL (    1222 calls)
     cdiaghg      :   1890.72s CPU   1896.10s WALL (    1522 calls)

     Called by h_psi:
     add_vuspsi   :    451.88s CPU    477.79s WALL (    1546 calls)

     General routines
     calbec       :   1324.22s CPU   1328.62s WALL (    1858 calls)
     fft          :    133.56s CPU    144.12s WALL (    1716 calls)
     ffts         :      1.63s CPU      1.93s WALL (      52 calls)
     fftw         :   2328.32s CPU   2771.38s WALL (  761778 calls)
     interpolate  :      4.21s CPU      5.04s WALL (      52 calls)
     davcio       :      0.00s CPU      0.49s WALL (      12 calls)

     Parallel routines
     fft_scatter  :   1632.87s CPU   1935.34s WALL (  763546 calls)

     PWSCF        :     3h18m CPU        3h32m WALL


   This run was terminated on:   6:57: 9   2Jul2015            

=------------------------------------------------------------------------------=
   JOB DONE.
=------------------------------------------------------------------------------=
