
     Program PWSCF v.5.1.2 starts on  2Jul2015 at  6: 9:41 

     This program is part of the open-source Quantum ESPRESSO suite
     for quantum simulation of materials; please cite
         "P. Giannozzi et al., J. Phys.:Condens. Matter 21 395502 (2009);
          URL http://www.quantum-espresso.org", 
     in publications or presentations arising from this work. More details at
     http://www.quantum-espresso.org/quote

     Parallel version (MPI), running on    32 processors
     R & G space division:  proc/nbgrp/npool/nimage =      32
     Reading input from bridge.H2.Au5455.d.2.4.phi.45.psi.90.in
Warning: card &IONS ignored
Warning: card / ignored
Warning: card &CELL ignored
Warning: card / ignored

     Current dimensions of program PWSCF are:
     Max number of different atomic species (ntypx) = 10
     Max number of k-points (npk) =  40000
     Max angular momentum in pseudopotentials (lmaxx) =  3

     IMPORTANT: XC functional enforced from input :
     Exchange-correlation      = VDW-DF ( 1  4  4  0 1 0)
     Any further DFT definition will be discarded
     Please, verify this is what you really want


     Subspace diagonalization in iterative solution of the eigenvalue problem:
     a serial algorithm will be used


     Parallelization info
     --------------------
     sticks:   dense  smooth     PW     G-vecs:    dense   smooth      PW
     Min         445     223     58                96775    34191    4534
     Max         446     224     59                96790    34246    4540
     Sum       14269    7147   1867              3097177  1095093  145167


     Title: 
     bridge.H2.Au5455.d.2.4.phi.45.psi.90                                       


     bravais-lattice index     =            4
     lattice parameter (alat)  =      22.7436  a.u.
     unit-cell volume          =   22924.1508 (a.u.)^3
     number of atoms/cell      =           67
     number of atomic types    =            3
     number of electrons       =       712.00
     number of Kohn-Sham states=          427
     kinetic-energy cutoff     =      50.0000  Ry
     charge density cutoff     =     400.0000  Ry
     convergence threshold     =      1.0E-08
     mixing beta               =       0.7000
     number of iterations used =            8  plain     mixing
     Exchange-correlation      = VDW-DF ( 1  4  4  0 1 0)

     celldm(1)=  22.743643  celldm(2)=   0.000000  celldm(3)=   2.250000
     celldm(4)=   0.000000  celldm(5)=   0.000000  celldm(6)=   0.000000

     crystal axes: (cart. coord. in units of alat)
               a(1) = (   1.000000   0.000000   0.000000 )  
               a(2) = (  -0.500000   0.866025   0.000000 )  
               a(3) = (   0.000000   0.000000   2.250000 )  

     reciprocal axes: (cart. coord. in units 2 pi/alat)
               b(1) = (  1.000000  0.577350 -0.000000 )  
               b(2) = (  0.000000  1.154701  0.000000 )  
               b(3) = (  0.000000 -0.000000  0.444444 )  


     PseudoPot. # 1 for Au read from file:
     /home/scc/andrejb/qe/pseudo/Au.pbe-nd-van.UPF
     MD5 check sum: 458681b50f36d87ef23c61b04bba420a
     Pseudo is Ultrasoft + core correction, Zval = 11.0
     Generated by new atomic code, or converted to UPF format
     Using radial grid of  985 points,  3 beta functions with: 
                l(1) =   1
                l(2) =   2
                l(3) =   2
     Q(r) pseudized with  8 coefficients,  rinner =    1.100   1.100   1.100
                                                       1.100   1.100

     PseudoPot. # 2 for H  read from file:
     /home/scc/andrejb/qe/pseudo/H.pbe-van_ak.UPF
     MD5 check sum: 403db7282739603aa925980fa9b8608d
     Pseudo is Ultrasoft, Zval =  1.0
     Generated by new atomic code, or converted to UPF format
     Using radial grid of  615 points,  1 beta functions with: 
                l(1) =   0
     Q(r) pseudized with  8 coefficients,  rinner =    0.800

     PseudoPot. # 3 for O  read from file:
     /home/scc/andrejb/qe/pseudo/O.pbe-van_ak.UPF
     MD5 check sum: 4b8c549914a63cae506c6ff22b5af4fe
     Pseudo is Ultrasoft, Zval =  6.0
     Generated by new atomic code, or converted to UPF format
     Using radial grid of  737 points,  4 beta functions with: 
                l(1) =   0
                l(2) =   0
                l(3) =   1
                l(4) =   1
     Q(r) pseudized with  8 coefficients,  rinner =    0.800   0.800   0.800


     vdW kernel table read from file vdW_kernel_table
     MD5 check sum: 48e77a2e26edf626eeb0eaa751ad5cac

     atomic species   valence    mass     pseudopotential
        Au            11.00   196.96657     Au( 1.00)
        H              1.00     1.01000     H ( 1.00)
        O              6.00    16.00000     O ( 1.00)

     No symmetry found



   Cartesian axes

     site n.     atom                  positions (alat units)
         1           O   tau(   1) = (   0.2937541   0.2113033   1.0108264  )
         2           H   tau(   2) = (   0.2915728   0.2885783   0.9869145  )
         3           H   tau(   3) = (   0.2874926   0.1686747   0.9423478  )
         4           Au  tau(   4) = (   0.3540481   0.6132292   0.0000000  )
         5           Au  tau(   5) = (   0.4790062   0.3967954   0.0000000  )
         6           Au  tau(   6) = (   0.6039644   0.1803616   0.0000000  )
         7           Au  tau(   7) = (   0.7289225  -0.0360723   0.0000000  )
         8           Au  tau(   8) = (   0.1041318   0.6132292   0.0000000  )
         9           Au  tau(   9) = (   0.2290899   0.3967954   0.0000000  )
        10           Au  tau(  10) = (   0.3540481   0.1803616   0.0000000  )
        11           Au  tau(  11) = (   0.4790062  -0.0360723   0.0000000  )
        12           Au  tau(  12) = (  -0.1457845   0.6132292   0.0000000  )
        13           Au  tau(  13) = (  -0.0208264   0.3967954   0.0000000  )
        14           Au  tau(  14) = (   0.1041318   0.1803616   0.0000000  )
        15           Au  tau(  15) = (   0.2290899  -0.0360723   0.0000000  )
        16           Au  tau(  16) = (  -0.3957008   0.6132292   0.0000000  )
        17           Au  tau(  17) = (  -0.2707426   0.3967954   0.0000000  )
        18           Au  tau(  18) = (  -0.1457845   0.1803616   0.0000000  )
        19           Au  tau(  19) = (  -0.0208264  -0.0360723   0.0000000  )
        20           Au  tau(  20) = (   0.4790062   0.6853738   0.2040557  )
        21           Au  tau(  21) = (   0.6039644   0.4689400   0.2040557  )
        22           Au  tau(  22) = (   0.7289225   0.2525061   0.2040557  )
        23           Au  tau(  23) = (   0.8538806   0.0360723   0.2040557  )
        24           Au  tau(  24) = (   0.2290899   0.6853738   0.2040557  )
        25           Au  tau(  25) = (   0.3540481   0.4689400   0.2040557  )
        26           Au  tau(  26) = (   0.4790062   0.2525061   0.2040557  )
        27           Au  tau(  27) = (   0.6039644   0.0360723   0.2040557  )
        28           Au  tau(  28) = (  -0.0208264   0.6853738   0.2040557  )
        29           Au  tau(  29) = (   0.1041318   0.4689400   0.2040557  )
        30           Au  tau(  30) = (   0.2290899   0.2525061   0.2040557  )
        31           Au  tau(  31) = (   0.3540481   0.0360723   0.2040557  )
        32           Au  tau(  32) = (  -0.2707426   0.6853738   0.2040557  )
        33           Au  tau(  33) = (  -0.1457845   0.4689400   0.2040557  )
        34           Au  tau(  34) = (  -0.0208264   0.2525061   0.2040557  )
        35           Au  tau(  35) = (   0.1041318   0.0360723   0.2040557  )
        36           Au  tau(  36) = (   0.3541162   0.7576593   0.4066483  )
        37           Au  tau(  37) = (   0.4791000   0.5411421   0.4066695  )
        38           Au  tau(  38) = (   0.6040570   0.3246862   0.4066617  )
        39           Au  tau(  39) = (   0.7290270   0.1081684   0.4066529  )
        40           Au  tau(  40) = (   0.1041162   0.7576236   0.4066247  )
        41           Au  tau(  41) = (   0.2291001   0.5411063   0.4066455  )
        42           Au  tau(  42) = (   0.3540567   0.3246505   0.4066380  )
        43           Au  tau(  43) = (   0.4790276   0.1081324   0.4066292  )
        44           Au  tau(  44) = (  -0.1458201   0.7576104   0.4066224  )
        45           Au  tau(  45) = (  -0.0208365   0.5410930   0.4066438  )
        46           Au  tau(  46) = (   0.1041202   0.3246372   0.4066359  )
        47           Au  tau(  47) = (   0.2290908   0.1081193   0.4066273  )
        48           Au  tau(  48) = (  -0.3958167   0.7575791   0.4065812  )
        49           Au  tau(  49) = (  -0.2708328   0.5410617   0.4066025  )
        50           Au  tau(  50) = (  -0.1458763   0.3246061   0.4065947  )
        51           Au  tau(  51) = (  -0.0209056   0.1080882   0.4065858  )
        52           Au  tau(  52) = (   0.3541085   0.6133344   0.6129762  )
        53           Au  tau(  53) = (   0.4790780   0.3968269   0.6129968  )
        54           Au  tau(  54) = (   0.6040356   0.1803811   0.6129859  )
        55           Au  tau(  55) = (   0.7290165  -0.0361221   0.6129385  )
        56           Au  tau(  56) = (   0.1041243   0.6133091   0.6130022  )
        57           Au  tau(  57) = (   0.2290941   0.3968013   0.6130241  )
        58           Au  tau(  58) = (   0.3540515   0.1803552   0.6130121  )
        59           Au  tau(  59) = (   0.4790323  -0.0361475   0.6129659  )
        60           Au  tau(  60) = (  -0.1458030   0.6133014   0.6129980  )
        61           Au  tau(  61) = (  -0.0208339   0.3967936   0.6130188  )
        62           Au  tau(  62) = (   0.1041239   0.1803477   0.6130083  )
        63           Au  tau(  63) = (   0.2291046  -0.0361554   0.6129607  )
        64           Au  tau(  64) = (  -0.3957908   0.6132739   0.6129471  )
        65           Au  tau(  65) = (  -0.2708208   0.3967658   0.6129688  )
        66           Au  tau(  66) = (  -0.1458636   0.1803200   0.6129569  )
        67           Au  tau(  67) = (  -0.0208823  -0.0361826   0.6129110  )

     number of k points=    12  Marzari-Vanderbilt smearing, width (Ry)=  0.0200
                       cart. coord. in units 2pi/alat
        k(    1) = (   0.2500000   0.4330127   0.1111111), wk =   0.1666667
        k(    2) = (   0.2500000  -0.1443376   0.1111111), wk =   0.1666667
        k(    3) = (  -0.2500000  -0.4330127   0.1111111), wk =   0.1666667
        k(    4) = (  -0.2500000   0.4330127  -0.1111111), wk =   0.1666667
        k(    5) = (   0.2500000  -0.4330127  -0.1111111), wk =   0.1666667
        k(    6) = (   0.5000000   0.0000000   0.1111111), wk =   0.1666667
        k(    7) = (  -0.5000000   0.0000000   0.1111111), wk =   0.1666667
        k(    8) = (  -0.2500000   0.1443376   0.1111111), wk =   0.1666667
        k(    9) = (  -0.2500000  -0.1443376  -0.1111111), wk =   0.1666667
        k(   10) = (   0.2500000   0.1443376  -0.1111111), wk =   0.1666667
        k(   11) = (   0.0000000  -0.2886751   0.1111111), wk =   0.1666667
        k(   12) = (   0.0000000   0.2886751   0.1111111), wk =   0.1666667

     Dense  grid:  3097177 G-vectors     FFT dimensions: ( 150, 150, 360)

     Smooth grid:  1095093 G-vectors     FFT dimensions: ( 108, 108, 240)

     Largest allocated arrays     est. size (Mb)     dimensions
        Kohn-Sham Wavefunctions        28.01 Mb     (    4299,  427)
        NL pseudopotentials            55.23 Mb     (    4299,  842)
        Each V/rho on FFT grid          4.12 Mb     (  270000)
        Each G-vector array             0.74 Mb     (   96788)
        G-vector shells                 0.16 Mb     (   21404)
     Largest temporary arrays     est. size (Mb)     dimensions
        Auxiliary wavefunctions       112.04 Mb     (    4299, 1708)
        Each subspace H/S matrix       44.51 Mb     (    1708, 1708)
        Each <psi_i|beta_j> matrix      5.49 Mb     (     842,  427)
        Arrays for rho mixing          32.96 Mb     (  270000,    8)

     Initial potential from superposition of free atoms
     Check: negative starting charge=   -1.730085

     starting charge  711.25682, renormalised to  712.00000

     negative rho (up, down):  1.732E+00 0.000E+00


     ************************************************************************
     *
     * You are using vdW-DF for exchange-correlation in this calculation.
     * Please cite the following three references that made this development
     * possible:
     *
     *   M. Dion, H. Rydberg, E. Schroder, D. C. Langreth, and
     *   B. I. Lundqvist, Phys. Rev. Lett. 92, 246401 (2004).
     *
     *   T. Thonhauser, V. R. Cooper, S. Li, A. Puzder, P. Hyldgaard, and
     *   D. C. Langreth, Phys. Rev. B 76, 125112 (2007).
     *
     *   G. Roman-Perez and J. M. Soler, Phys. Rev. Lett. 103, 096102 (2009).
     *
     *
     * If you are using vdW-DF2, please also cite:
     *
     *   K. Lee, E. D. Murray, L. Kong, B. I. Lundqvist, and
     *   D. C. Langreth, Phys. Rev. B 82, 081101(R) (2010).
     *
     *
     * If you are calculating the stress with vdW-DF, please also cite:
     *
     *   R. Sabatini, E. Kucukbenli, B. Kolb, T. Thonhauser, and
     *   S. de Gironcoli, J. Phys.: Condens. Matter 24, 424209 (2012).
     *
     ************************************************************************

     Carrying out vdW-DF run using the following parameters:

     Nqs =      20    Nr_points =    1024   r_max =   100.000
     q_mesh =
               0.00001000     0.04494208     0.09755937     0.15916263
               0.23128650     0.31572767     0.41458969     0.53033537
               0.66584808     0.82450364     1.01025438     1.22772762
               1.48234092     1.78043706     2.12944203     2.53805004
               3.01644009     3.57652955     4.23227104     5.00000000

     Gradients computed in reciprocal space

     ************************************************************************


     Starting wfc are  582 randomized atomic wfcs

     total cpu time spent up to now is      181.5 secs

     Self-consistent Calculation

     iteration #  1     ecut=    50.00 Ry     beta=0.70
     Davidson diagonalization with overlap
     ethr =  1.00E-02,  avg # of iterations =  3.0

     Threshold (ethr) on eigenvalues was too large:
     Diagonalizing with lowered threshold

     Davidson diagonalization with overlap
     ethr =  3.54E-04,  avg # of iterations =  5.8

     negative rho (up, down):  1.728E+00 0.000E+00

     total cpu time spent up to now is      818.2 secs

     total energy              =   -6602.76504093 Ry
     Harris-Foulkes estimate   =   -6605.04636394 Ry
     estimated scf accuracy    <       2.85434339 Ry

     iteration #  2     ecut=    50.00 Ry     beta=0.70
     Davidson diagonalization with overlap
     ethr =  4.01E-04,  avg # of iterations = 11.3

     negative rho (up, down):  1.727E+00 0.000E+00

     total cpu time spent up to now is     1690.1 secs

     total energy              =   -6596.61345791 Ry
     Harris-Foulkes estimate   =   -6610.21072912 Ry
     estimated scf accuracy    <      75.94599667 Ry

     iteration #  3     ecut=    50.00 Ry     beta=0.70
     Davidson diagonalization with overlap
     ethr =  4.01E-04,  avg # of iterations =  6.0

     negative rho (up, down):  1.737E+00 0.000E+00

     total cpu time spent up to now is     2290.1 secs

     total energy              =   -6602.97840652 Ry
     Harris-Foulkes estimate   =   -6605.10663024 Ry
     estimated scf accuracy    <      10.44831302 Ry

     iteration #  4     ecut=    50.00 Ry     beta=0.70
     Davidson diagonalization with overlap
     ethr =  4.01E-04,  avg # of iterations =  6.9

     negative rho (up, down):  1.738E+00 0.000E+00

     total cpu time spent up to now is     2751.6 secs

     total energy              =   -6603.28431049 Ry
     Harris-Foulkes estimate   =   -6605.32404279 Ry
     estimated scf accuracy    <      20.30276010 Ry

     iteration #  5     ecut=    50.00 Ry     beta=0.70
     Davidson diagonalization with overlap
     ethr =  4.01E-04,  avg # of iterations =  6.3

     negative rho (up, down):  1.748E+00 0.000E+00

     total cpu time spent up to now is     3181.5 secs

     total energy              =   -6604.34669353 Ry
     Harris-Foulkes estimate   =   -6604.60991864 Ry
     estimated scf accuracy    <       1.79550523 Ry

     iteration #  6     ecut=    50.00 Ry     beta=0.70
     Davidson diagonalization with overlap
     ethr =  2.52E-04,  avg # of iterations =  3.0

     negative rho (up, down):  1.754E+00 0.000E+00

     total cpu time spent up to now is     3547.7 secs

     total energy              =   -6604.43297408 Ry
     Harris-Foulkes estimate   =   -6604.46238830 Ry
     estimated scf accuracy    <       0.08891095 Ry

     iteration #  7     ecut=    50.00 Ry     beta=0.70
     Davidson diagonalization with overlap
     ethr =  1.25E-05,  avg # of iterations = 11.0

     negative rho (up, down):  1.755E+00 0.000E+00

     total cpu time spent up to now is     4114.6 secs

     total energy              =   -6604.43342160 Ry
     Harris-Foulkes estimate   =   -6604.45094882 Ry
     estimated scf accuracy    <       0.06528734 Ry

     iteration #  8     ecut=    50.00 Ry     beta=0.70
     Davidson diagonalization with overlap
     ethr =  9.17E-06,  avg # of iterations =  5.7

     negative rho (up, down):  1.756E+00 0.000E+00

     total cpu time spent up to now is     4490.3 secs

     total energy              =   -6604.43157936 Ry
     Harris-Foulkes estimate   =   -6604.44415814 Ry
     estimated scf accuracy    <       0.04648340 Ry

     iteration #  9     ecut=    50.00 Ry     beta=0.70
     Davidson diagonalization with overlap
     ethr =  6.53E-06,  avg # of iterations =  6.6

     negative rho (up, down):  1.756E+00 0.000E+00

     total cpu time spent up to now is     4841.7 secs

     total energy              =   -6604.43171815 Ry
     Harris-Foulkes estimate   =   -6604.43709002 Ry
     estimated scf accuracy    <       0.02035046 Ry

     iteration # 10     ecut=    50.00 Ry     beta=0.70
     Davidson diagonalization with overlap
     c_bands:  1 eigenvalues not converged
     ethr =  2.86E-06,  avg # of iterations =  7.3

     negative rho (up, down):  1.757E+00 0.000E+00

     total cpu time spent up to now is     5218.5 secs

     total energy              =   -6604.43060809 Ry
     Harris-Foulkes estimate   =   -6604.43387948 Ry
     estimated scf accuracy    <       0.01162608 Ry

     iteration # 11     ecut=    50.00 Ry     beta=0.70
     Davidson diagonalization with overlap
     ethr =  1.63E-06,  avg # of iterations =  6.8

     negative rho (up, down):  1.758E+00 0.000E+00

     total cpu time spent up to now is     5624.2 secs

     total energy              =   -6604.43058198 Ry
     Harris-Foulkes estimate   =   -6604.43158163 Ry
     estimated scf accuracy    <       0.00509202 Ry

     iteration # 12     ecut=    50.00 Ry     beta=0.70
     Davidson diagonalization with overlap
     ethr =  7.15E-07,  avg # of iterations =  1.7

     negative rho (up, down):  1.758E+00 0.000E+00

     total cpu time spent up to now is     5955.9 secs

     total energy              =   -6604.42965840 Ry
     Harris-Foulkes estimate   =   -6604.43096799 Ry
     estimated scf accuracy    <       0.00210235 Ry

     iteration # 13     ecut=    50.00 Ry     beta=0.70
     Davidson diagonalization with overlap
     c_bands:  1 eigenvalues not converged
     c_bands:  1 eigenvalues not converged
     c_bands:  1 eigenvalues not converged
     c_bands:  1 eigenvalues not converged
     ethr =  2.95E-07,  avg # of iterations = 13.9

     negative rho (up, down):  1.758E+00 0.000E+00

     total cpu time spent up to now is     6498.1 secs

     total energy              =   -6604.42997442 Ry
     Harris-Foulkes estimate   =   -6604.43005443 Ry
     estimated scf accuracy    <       0.00016237 Ry

     iteration # 14     ecut=    50.00 Ry     beta=0.70
     Davidson diagonalization with overlap
     ethr =  2.28E-08,  avg # of iterations =  3.6

     negative rho (up, down):  1.758E+00 0.000E+00

     total cpu time spent up to now is     6979.2 secs

     total energy              =   -6604.42998804 Ry
     Harris-Foulkes estimate   =   -6604.43005162 Ry
     estimated scf accuracy    <       0.00023593 Ry

     iteration # 15     ecut=    50.00 Ry     beta=0.70
     Davidson diagonalization with overlap
     ethr =  2.28E-08,  avg # of iterations =  2.0

     negative rho (up, down):  1.758E+00 0.000E+00

     total cpu time spent up to now is     7264.9 secs

     total energy              =   -6604.43000438 Ry
     Harris-Foulkes estimate   =   -6604.43004103 Ry
     estimated scf accuracy    <       0.00030589 Ry

     iteration # 16     ecut=    50.00 Ry     beta=0.70
     Davidson diagonalization with overlap
     ethr =  2.28E-08,  avg # of iterations =  1.0

     negative rho (up, down):  1.758E+00 0.000E+00

     total cpu time spent up to now is     7515.2 secs

     total energy              =   -6604.43002213 Ry
     Harris-Foulkes estimate   =   -6604.43002962 Ry
     estimated scf accuracy    <       0.00003806 Ry

     iteration # 17     ecut=    50.00 Ry     beta=0.70
     Davidson diagonalization with overlap
     ethr =  5.35E-09,  avg # of iterations =  2.0

     negative rho (up, down):  1.758E+00 0.000E+00

     total cpu time spent up to now is     7881.6 secs

     total energy              =   -6604.43002480 Ry
     Harris-Foulkes estimate   =   -6604.43002710 Ry
     estimated scf accuracy    <       0.00000908 Ry

     iteration # 18     ecut=    50.00 Ry     beta=0.70
     Davidson diagonalization with overlap
     ethr =  1.27E-09,  avg # of iterations =  2.0

     negative rho (up, down):  1.758E+00 0.000E+00

     total cpu time spent up to now is     8246.1 secs

     total energy              =   -6604.43002596 Ry
     Harris-Foulkes estimate   =   -6604.43002659 Ry
     estimated scf accuracy    <       0.00000239 Ry

     iteration # 19     ecut=    50.00 Ry     beta=0.70
     Davidson diagonalization with overlap
     ethr =  3.35E-10,  avg # of iterations =  2.0

     negative rho (up, down):  1.758E+00 0.000E+00

     total cpu time spent up to now is     8549.1 secs

     total energy              =   -6604.43002634 Ry
     Harris-Foulkes estimate   =   -6604.43002650 Ry
     estimated scf accuracy    <       0.00000098 Ry

     iteration # 20     ecut=    50.00 Ry     beta=0.70
     Davidson diagonalization with overlap
     ethr =  1.38E-10,  avg # of iterations =  2.0

     negative rho (up, down):  1.758E+00 0.000E+00

     total cpu time spent up to now is     8840.6 secs

     total energy              =   -6604.43002649 Ry
     Harris-Foulkes estimate   =   -6604.43002654 Ry
     estimated scf accuracy    <       0.00000031 Ry

     iteration # 21     ecut=    50.00 Ry     beta=0.70
     Davidson diagonalization with overlap
     ethr =  4.39E-11,  avg # of iterations =  2.0

     negative rho (up, down):  1.758E+00 0.000E+00

     total cpu time spent up to now is     9171.5 secs

     total energy              =   -6604.43002654 Ry
     Harris-Foulkes estimate   =   -6604.43002655 Ry
     estimated scf accuracy    <       0.00000007 Ry

     iteration # 22     ecut=    50.00 Ry     beta=0.70
     Davidson diagonalization with overlap
     ethr =  1.00E-11,  avg # of iterations =  2.0

     negative rho (up, down):  1.758E+00 0.000E+00

     total cpu time spent up to now is     9453.2 secs

     total energy              =   -6604.43002656 Ry
     Harris-Foulkes estimate   =   -6604.43002656 Ry
     estimated scf accuracy    <       0.00000003 Ry

     iteration # 23     ecut=    50.00 Ry     beta=0.70
     Davidson diagonalization with overlap
     ethr =  3.70E-12,  avg # of iterations =  3.0

     negative rho (up, down):  1.758E+00 0.000E+00

     total cpu time spent up to now is     9790.3 secs

     total energy              =   -6604.43002656 Ry
     Harris-Foulkes estimate   =   -6604.43002657 Ry
     estimated scf accuracy    <       0.00000005 Ry

     iteration # 24     ecut=    50.00 Ry     beta=0.70
     Davidson diagonalization with overlap
     ethr =  3.70E-12,  avg # of iterations =  3.0

     negative rho (up, down):  1.758E+00 0.000E+00

     total cpu time spent up to now is    10165.0 secs

     End of self-consistent calculation

          k = 0.2500 0.4330 0.1111 (136853 PWs)   bands (ev):

   -18.5859  -6.4491  -6.4025  -6.0498  -6.0495  -5.3713  -5.0382  -5.0382
    -4.9990  -4.9980  -4.6380  -4.6378  -4.5393  -4.5392  -4.5252  -4.5027
    -4.4775  -4.3718  -4.3714  -4.3475  -4.3041  -4.3040  -4.2351  -4.2349
    -4.2278  -4.2276  -4.2069  -4.2006  -4.2003  -4.1285  -4.1270  -4.0986
    -4.0985  -4.0864  -4.0862  -4.0631  -4.0630  -4.0406  -4.0320  -4.0319
    -4.0051  -3.9530  -3.9529  -3.9051  -3.9051  -3.8451  -3.8450  -3.7911
    -3.7911  -3.7902  -3.7900  -3.7552  -3.7154  -3.7153  -3.7095  -3.7082
    -3.7081  -3.6772  -3.6766  -3.6683  -3.6066  -3.6063  -3.5970  -3.5810
    -3.5740  -3.5011  -3.5009  -3.4678  -3.4667  -3.4397  -3.4393  -3.4265
    -3.4097  -3.3492  -3.3489  -3.3318  -3.3317  -3.2796  -3.2745  -3.2745
    -3.2364  -3.2051  -3.2042  -3.1965  -3.1964  -3.1826  -3.1825  -3.1749
    -3.1746  -3.1652  -3.1244  -3.0866  -3.0863  -3.0718  -3.0715  -3.0455
    -3.0359  -3.0358  -3.0147  -2.9700  -2.9697  -2.9602  -2.9207  -2.9147
    -2.9032  -2.9030  -2.8737  -2.8730  -2.8445  -2.8065  -2.8063  -2.7841
    -2.7771  -2.7631  -2.7626  -2.7122  -2.7120  -2.6794  -2.6567  -2.6566
    -2.6325  -2.6319  -2.6217  -2.6209  -2.6130  -2.6100  -2.5868  -2.5866
    -2.5427  -2.5425  -2.5411  -2.5242  -2.5239  -2.5192  -2.5097  -2.5070
    -2.5064  -2.5059  -2.5012  -2.4880  -2.4875  -2.4787  -2.4516  -2.4513
    -2.4499  -2.4490  -2.4484  -2.4460  -2.4453  -2.4173  -2.4142  -2.4004
    -2.4003  -2.3826  -2.3825  -2.3724  -2.3722  -2.3708  -2.3702  -2.3508
    -2.3499  -2.3491  -2.3479  -2.3315  -2.3049  -2.3048  -2.2652  -2.2649
    -2.2392  -2.2389  -2.2118  -2.2116  -2.1837  -2.1836  -2.1655  -2.1619
    -2.1348  -2.1130  -2.1125  -2.1071  -2.1068  -2.1025  -2.0956  -2.0948
    -2.0691  -2.0630  -2.0531  -1.9950  -1.9922  -1.9911  -1.9887  -1.9885
    -1.9514  -1.9329  -1.9326  -1.9048  -1.9045  -1.8443  -1.8439  -1.8152
    -1.7968  -1.7966  -1.7354  -1.7353  -1.7237  -1.7230  -1.7125  -1.7118
    -1.7091  -1.6993  -1.6985  -1.6434  -1.6429  -1.6309  -1.6305  -1.6304
    -1.6111  -1.6098  -1.5751  -1.5747  -1.5577  -1.5574  -1.5573  -1.5511
    -1.5459  -1.5363  -1.5351  -1.5171  -1.5170  -1.4756  -1.4748  -1.4629
    -1.4619  -1.4426  -1.4287  -1.3856  -1.3848  -1.3593  -1.3545  -1.3541
    -1.3252  -1.2736  -1.2732  -1.2722  -1.2717  -1.2664  -1.2656  -1.2554
    -1.2371  -1.2365  -1.1971  -1.1963  -1.1659  -1.1656  -1.1609  -1.1608
    -1.1523  -1.1364  -1.1360  -1.1354  -1.1322  -1.1320  -1.0955  -1.0933
    -1.0927  -1.0923  -1.0609  -1.0606  -1.0574  -1.0336  -1.0256  -1.0246
    -0.9787  -0.9717  -0.9704  -0.9361  -0.9280  -0.9167  -0.9166  -0.9089
    -0.9084  -0.9078  -0.9068  -0.8955  -0.8953  -0.8694  -0.8694  -0.8664
    -0.8640  -0.8638  -0.8269  -0.8266  -0.8162  -0.8158  -0.8003  -0.7930
    -0.7921  -0.7808  -0.7247  -0.7233  -0.7139  -0.7136  -0.7129  -0.7122
    -0.7073  -0.6879  -0.6870  -0.6787  -0.6787  -0.6766  -0.6764  -0.6372
    -0.6347  -0.6342  -0.6264  -0.6256  -0.6207  -0.6189  -0.6097  -0.6037
    -0.5997  -0.5992  -0.5898  -0.5569  -0.5567  -0.5483  -0.5450  -0.5445
    -0.4673  -0.4666  -0.4645  -0.4643  -0.4552  -0.4549  -0.4185  -0.4056
    -0.4055  -0.3783  -0.3756  -0.3733  -0.2525  -0.2508  -0.1495   0.2658
     0.2660   0.2690   0.2690   0.3295   0.3304   0.7188   0.7195   0.7620
     0.7623   0.8696   0.9502   1.0600   1.0636   1.2801   1.2863   1.9160
     1.9167   2.0783   2.0793   2.2095   2.2110   2.3145   2.3146   2.4687
     2.7061   2.7113   2.8289   3.0526   3.0572   3.1387   3.1391   3.2388
     3.2538   3.4402   3.4591   3.5104   3.7108   3.7114   3.7732   3.7751
     4.0310   4.0382   4.0397   4.2817   4.3238   4.3243   4.3689   4.7046
     4.7068   4.7350   4.8697   5.0414   5.0422   5.0649   5.1078   5.3142
     5.6790   5.8295   5.8350   5.8393   5.8526   5.9048   5.9057   5.9917
     6.0149   6.0300   6.0411   6.0678   6.0692   6.0930   6.0998   6.1282
     6.1290   6.3688   6.5443   6.6465   6.6826   6.7724   6.7755   6.7796
     6.7861   6.8969   6.9867

          k = 0.2500-0.1443 0.1111 (136898 PWs)   bands (ev):

   -18.5859  -6.6590  -6.4025  -5.8669  -5.5752  -5.5166  -5.5165  -4.9782
    -4.9781  -4.8461  -4.8458  -4.6902  -4.6601  -4.5985  -4.5645  -4.5643
    -4.5315  -4.5315  -4.4030  -4.3612  -4.3611  -4.3011  -4.2798  -4.2797
    -4.1777  -4.1776  -4.1415  -4.1413  -4.1412  -4.1139  -4.0927  -4.0926
    -3.9870  -3.9855  -3.9854  -3.9645  -3.9477  -3.9477  -3.9353  -3.9352
    -3.9215  -3.8918  -3.8918  -3.8917  -3.8916  -3.8583  -3.8582  -3.8412
    -3.8411  -3.8264  -3.7829  -3.7828  -3.7528  -3.7373  -3.7371  -3.7330
    -3.7330  -3.6583  -3.6582  -3.6226  -3.6203  -3.6202  -3.5528  -3.5528
    -3.5373  -3.5371  -3.5061  -3.5058  -3.5049  -3.5047  -3.3514  -3.3513
    -3.3256  -3.3255  -3.3205  -3.3045  -3.3045  -3.2784  -3.2783  -3.2286
    -3.2286  -3.2123  -3.2122  -3.1920  -3.1431  -3.1431  -3.1235  -3.1185
    -3.1184  -3.0775  -3.0775  -3.0712  -3.0711  -3.0544  -3.0542  -3.0148
    -3.0148  -2.9930  -2.9928  -2.9899  -2.9898  -2.9867  -2.9093  -2.9092
    -2.9080  -2.8791  -2.8790  -2.8169  -2.8167  -2.7888  -2.7873  -2.7743
    -2.7742  -2.7689  -2.7392  -2.7392  -2.7297  -2.7119  -2.6862  -2.6860
    -2.6858  -2.6651  -2.6650  -2.6539  -2.6535  -2.6501  -2.6499  -2.6422
    -2.6127  -2.5964  -2.5633  -2.5633  -2.5479  -2.5337  -2.5271  -2.5270
    -2.5198  -2.5197  -2.5183  -2.4883  -2.4881  -2.4878  -2.4782  -2.4781
    -2.4606  -2.4332  -2.4326  -2.4324  -2.4317  -2.4314  -2.3864  -2.3547
    -2.3544  -2.3543  -2.3469  -2.3389  -2.3255  -2.3252  -2.3089  -2.3089
    -2.2753  -2.2735  -2.2734  -2.2545  -2.2530  -2.2529  -2.2201  -2.2200
    -2.1794  -2.1787  -2.1712  -2.1692  -2.1691  -2.1624  -2.1623  -2.1601
    -2.1598  -2.1527  -2.1524  -2.1359  -2.1358  -2.0084  -2.0082  -1.9759
    -1.9696  -1.9694  -1.9646  -1.9646  -1.9464  -1.9463  -1.9433  -1.9431
    -1.9416  -1.9190  -1.9105  -1.9102  -1.9068  -1.8984  -1.8983  -1.8753
    -1.8753  -1.8466  -1.8466  -1.8142  -1.8141  -1.8041  -1.7958  -1.7782
    -1.7781  -1.7752  -1.7567  -1.7445  -1.7444  -1.7368  -1.7368  -1.7100
    -1.7100  -1.6925  -1.6923  -1.6607  -1.6605  -1.6501  -1.5997  -1.5996
    -1.5870  -1.5867  -1.5860  -1.5614  -1.5589  -1.5251  -1.5244  -1.5242
    -1.4906  -1.4803  -1.4802  -1.4647  -1.4647  -1.4379  -1.4363  -1.4362
    -1.4067  -1.4038  -1.4038  -1.3411  -1.3409  -1.3275  -1.3273  -1.3111
    -1.3110  -1.2985  -1.2984  -1.2805  -1.2677  -1.2398  -1.2397  -1.2284
    -1.2005  -1.1899  -1.1898  -1.1783  -1.1783  -1.1758  -1.1704  -1.1702
    -1.1575  -1.1261  -1.1259  -1.1149  -1.1143  -1.1134  -1.1131  -1.0893
    -1.0707  -1.0703  -1.0496  -1.0492  -0.9566  -0.9429  -0.9374  -0.9374
    -0.9339  -0.9282  -0.9281  -0.9075  -0.9025  -0.8870  -0.8868  -0.8725
    -0.8724  -0.8629  -0.8426  -0.8425  -0.8408  -0.8326  -0.7608  -0.7607
    -0.7266  -0.7261  -0.7223  -0.7150  -0.7146  -0.7139  -0.7138  -0.7005
    -0.7003  -0.6850  -0.6597  -0.6452  -0.6249  -0.6247  -0.6136  -0.6132
    -0.6007  -0.6003  -0.5993  -0.5981  -0.5978  -0.5906  -0.5802  -0.5758
    -0.5756  -0.5451  -0.5436  -0.5434  -0.5316  -0.5314  -0.5121  -0.4799
    -0.4798  -0.4706  -0.4706  -0.4025  -0.4022  -0.3644  -0.3643  -0.3061
    -0.3054  -0.3052  -0.2951  -0.2772  -0.0535  -0.0529   0.2941   0.2942
     0.3854   0.3862   0.5790   0.5924   0.6119   0.7428   0.7430   1.1743
     1.1743   1.1929   1.4502   1.4844   1.4844   1.7612   1.7625   1.8409
     1.8410   1.8682   1.8689   2.0974   2.0976   2.1855   2.1856   2.2576
     2.3244   2.3254   2.4895   2.5867   3.0280   3.0285   3.0314   3.0318
     3.0865   3.0868   3.3786   3.3787   3.6600   3.6615   3.7624   4.0743
     4.1174   4.1183   4.3313   4.3405   4.4182   4.4190   4.5096   4.6275
     4.6283   4.7448   4.7451   5.0496   5.1171   5.1195   5.1709   5.2867
     5.3213   5.5063   5.5070   5.5323   5.5329   5.5961   5.5969   5.6392
     5.7391   5.9949   6.1959   6.2080   6.2206   6.3392   6.3394   6.3522
     6.3530   6.5390   6.5930   6.5944   6.6368   6.7550   6.7953   6.8255
     6.8271   6.9837   7.0211

          k =-0.2500-0.4330 0.1111 (136853 PWs)   bands (ev):

   -18.5859  -6.4491  -6.4025  -6.0498  -6.0495  -5.3713  -5.0382  -5.0382
    -4.9990  -4.9980  -4.6380  -4.6378  -4.5393  -4.5392  -4.5252  -4.5027
    -4.4775  -4.3718  -4.3714  -4.3475  -4.3041  -4.3040  -4.2351  -4.2349
    -4.2278  -4.2276  -4.2069  -4.2006  -4.2003  -4.1285  -4.1270  -4.0986
    -4.0985  -4.0864  -4.0862  -4.0631  -4.0630  -4.0406  -4.0320  -4.0319
    -4.0051  -3.9530  -3.9529  -3.9051  -3.9051  -3.8451  -3.8450  -3.7911
    -3.7911  -3.7902  -3.7900  -3.7552  -3.7154  -3.7153  -3.7095  -3.7082
    -3.7081  -3.6772  -3.6766  -3.6683  -3.6066  -3.6063  -3.5970  -3.5810
    -3.5740  -3.5011  -3.5009  -3.4678  -3.4667  -3.4397  -3.4393  -3.4265
    -3.4097  -3.3492  -3.3489  -3.3318  -3.3317  -3.2796  -3.2745  -3.2745
    -3.2364  -3.2051  -3.2042  -3.1965  -3.1964  -3.1826  -3.1825  -3.1749
    -3.1746  -3.1652  -3.1244  -3.0866  -3.0863  -3.0718  -3.0715  -3.0455
    -3.0359  -3.0358  -3.0147  -2.9700  -2.9697  -2.9602  -2.9207  -2.9147
    -2.9032  -2.9030  -2.8737  -2.8730  -2.8445  -2.8065  -2.8063  -2.7841
    -2.7771  -2.7631  -2.7626  -2.7122  -2.7120  -2.6794  -2.6567  -2.6566
    -2.6325  -2.6319  -2.6217  -2.6209  -2.6130  -2.6100  -2.5868  -2.5866
    -2.5427  -2.5425  -2.5411  -2.5242  -2.5239  -2.5192  -2.5097  -2.5070
    -2.5064  -2.5059  -2.5012  -2.4880  -2.4875  -2.4787  -2.4516  -2.4513
    -2.4499  -2.4490  -2.4484  -2.4460  -2.4453  -2.4173  -2.4142  -2.4004
    -2.4003  -2.3826  -2.3825  -2.3724  -2.3722  -2.3708  -2.3702  -2.3508
    -2.3499  -2.3491  -2.3479  -2.3315  -2.3049  -2.3048  -2.2651  -2.2649
    -2.2392  -2.2389  -2.2118  -2.2116  -2.1837  -2.1836  -2.1655  -2.1619
    -2.1348  -2.1130  -2.1125  -2.1071  -2.1068  -2.1025  -2.0956  -2.0948
    -2.0691  -2.0630  -2.0531  -1.9950  -1.9922  -1.9911  -1.9887  -1.9885
    -1.9514  -1.9329  -1.9326  -1.9048  -1.9045  -1.8443  -1.8439  -1.8152
    -1.7968  -1.7966  -1.7354  -1.7353  -1.7237  -1.7230  -1.7125  -1.7118
    -1.7091  -1.6993  -1.6985  -1.6434  -1.6429  -1.6309  -1.6305  -1.6304
    -1.6111  -1.6098  -1.5751  -1.5747  -1.5577  -1.5574  -1.5573  -1.5511
    -1.5459  -1.5363  -1.5351  -1.5171  -1.5170  -1.4756  -1.4748  -1.4629
    -1.4619  -1.4426  -1.4287  -1.3856  -1.3848  -1.3593  -1.3545  -1.3541
    -1.3252  -1.2736  -1.2732  -1.2722  -1.2717  -1.2664  -1.2656  -1.2554
    -1.2371  -1.2365  -1.1971  -1.1963  -1.1659  -1.1656  -1.1609  -1.1608
    -1.1523  -1.1364  -1.1360  -1.1354  -1.1322  -1.1320  -1.0955  -1.0933
    -1.0927  -1.0923  -1.0609  -1.0606  -1.0574  -1.0336  -1.0256  -1.0246
    -0.9787  -0.9717  -0.9704  -0.9361  -0.9280  -0.9167  -0.9166  -0.9089
    -0.9084  -0.9078  -0.9068  -0.8955  -0.8953  -0.8694  -0.8694  -0.8664
    -0.8640  -0.8638  -0.8269  -0.8266  -0.8162  -0.8158  -0.8003  -0.7930
    -0.7921  -0.7808  -0.7247  -0.7233  -0.7139  -0.7136  -0.7129  -0.7122
    -0.7073  -0.6879  -0.6870  -0.6787  -0.6787  -0.6766  -0.6764  -0.6372
    -0.6347  -0.6342  -0.6264  -0.6256  -0.6207  -0.6189  -0.6097  -0.6037
    -0.5997  -0.5992  -0.5898  -0.5569  -0.5567  -0.5483  -0.5450  -0.5445
    -0.4673  -0.4666  -0.4645  -0.4643  -0.4552  -0.4549  -0.4185  -0.4056
    -0.4055  -0.3783  -0.3756  -0.3733  -0.2525  -0.2508  -0.1495   0.2658
     0.2660   0.2690   0.2690   0.3295   0.3304   0.7188   0.7195   0.7620
     0.7623   0.8696   0.9502   1.0600   1.0636   1.2801   1.2863   1.9160
     1.9167   2.0783   2.0793   2.2095   2.2110   2.3145   2.3146   2.4687
     2.7061   2.7113   2.8289   3.0526   3.0572   3.1387   3.1391   3.2388
     3.2538   3.4402   3.4591   3.5104   3.7108   3.7114   3.7732   3.7751
     4.0310   4.0382   4.0397   4.2817   4.3238   4.3243   4.3689   4.7046
     4.7068   4.7350   4.8697   5.0414   5.0422   5.0649   5.1078   5.3142
     5.6786   5.8295   5.8350   5.8393   5.8526   5.9048   5.9057   5.9917
     6.0149   6.0305   6.0412   6.0678   6.0692   6.0929   6.0998   6.1282
     6.1290   6.3708   6.5441   6.6423   6.6827   6.7688   6.7757   6.7795
     6.7861   6.8969   6.9895

          k =-0.2500 0.4330-0.1111 (136853 PWs)   bands (ev):

   -18.5859  -6.4490  -6.4025  -6.0511  -6.0481  -5.3713  -5.0387  -5.0377
    -5.0003  -4.9967  -4.6385  -4.6372  -4.5394  -4.5391  -4.5250  -4.5027
    -4.4775  -4.3722  -4.3713  -4.3475  -4.3042  -4.3040  -4.2352  -4.2348
    -4.2279  -4.2275  -4.2068  -4.2019  -4.1991  -4.1295  -4.1260  -4.0992
    -4.0975  -4.0865  -4.0861  -4.0631  -4.0630  -4.0406  -4.0322  -4.0319
    -4.0053  -3.9533  -3.9527  -3.9060  -3.9041  -3.8451  -3.8450  -3.7912
    -3.7911  -3.7904  -3.7897  -3.7553  -3.7155  -3.7154  -3.7094  -3.7082
    -3.7081  -3.6772  -3.6766  -3.6683  -3.6066  -3.6064  -3.5969  -3.5808
    -3.5737  -3.5016  -3.5008  -3.4676  -3.4668  -3.4398  -3.4389  -3.4264
    -3.4098  -3.3494  -3.3490  -3.3321  -3.3311  -3.2795  -3.2746  -3.2745
    -3.2362  -3.2051  -3.2043  -3.1971  -3.1957  -3.1828  -3.1824  -3.1748
    -3.1744  -3.1653  -3.1243  -3.0874  -3.0857  -3.0717  -3.0714  -3.0456
    -3.0363  -3.0354  -3.0147  -2.9708  -2.9689  -2.9605  -2.9206  -2.9147
    -2.9037  -2.9024  -2.8740  -2.8732  -2.8446  -2.8064  -2.8060  -2.7841
    -2.7772  -2.7631  -2.7627  -2.7125  -2.7118  -2.6792  -2.6569  -2.6567
    -2.6326  -2.6320  -2.6218  -2.6205  -2.6131  -2.6101  -2.5872  -2.5864
    -2.5427  -2.5420  -2.5412  -2.5246  -2.5234  -2.5193  -2.5096  -2.5072
    -2.5064  -2.5057  -2.5011  -2.4882  -2.4868  -2.4787  -2.4516  -2.4511
    -2.4496  -2.4492  -2.4485  -2.4460  -2.4450  -2.4176  -2.4142  -2.4004
    -2.4002  -2.3829  -2.3823  -2.3723  -2.3721  -2.3713  -2.3699  -2.3512
    -2.3498  -2.3492  -2.3476  -2.3315  -2.3054  -2.3046  -2.2659  -2.2643
    -2.2396  -2.2386  -2.2116  -2.2113  -2.1839  -2.1834  -2.1655  -2.1617
    -2.1347  -2.1128  -2.1125  -2.1073  -2.1067  -2.1027  -2.0958  -2.0947
    -2.0690  -2.0626  -2.0531  -1.9951  -1.9923  -1.9914  -1.9891  -1.9883
    -1.9515  -1.9337  -1.9317  -1.9047  -1.9046  -1.8447  -1.8432  -1.8155
    -1.7969  -1.7963  -1.7358  -1.7348  -1.7239  -1.7227  -1.7124  -1.7118
    -1.7093  -1.6997  -1.6982  -1.6432  -1.6430  -1.6309  -1.6308  -1.6305
    -1.6110  -1.6098  -1.5752  -1.5747  -1.5580  -1.5576  -1.5570  -1.5508
    -1.5459  -1.5362  -1.5353  -1.5173  -1.5166  -1.4755  -1.4747  -1.4627
    -1.4620  -1.4424  -1.4287  -1.3859  -1.3846  -1.3595  -1.3546  -1.3542
    -1.3253  -1.2737  -1.2733  -1.2724  -1.2716  -1.2667  -1.2656  -1.2554
    -1.2374  -1.2361  -1.1972  -1.1960  -1.1660  -1.1657  -1.1611  -1.1606
    -1.1523  -1.1366  -1.1360  -1.1353  -1.1321  -1.1317  -1.0955  -1.0935
    -1.0926  -1.0923  -1.0610  -1.0607  -1.0570  -1.0340  -1.0256  -1.0243
    -0.9788  -0.9716  -0.9703  -0.9362  -0.9278  -0.9168  -0.9164  -0.9087
    -0.9084  -0.9077  -0.9070  -0.8955  -0.8954  -0.8697  -0.8691  -0.8664
    -0.8641  -0.8639  -0.8267  -0.8265  -0.8162  -0.8158  -0.8004  -0.7931
    -0.7922  -0.7806  -0.7247  -0.7232  -0.7139  -0.7136  -0.7130  -0.7122
    -0.7072  -0.6879  -0.6870  -0.6788  -0.6787  -0.6765  -0.6764  -0.6373
    -0.6347  -0.6342  -0.6264  -0.6257  -0.6208  -0.6189  -0.6096  -0.6034
    -0.5999  -0.5990  -0.5902  -0.5571  -0.5565  -0.5484  -0.5449  -0.5446
    -0.4674  -0.4666  -0.4644  -0.4643  -0.4552  -0.4550  -0.4184  -0.4058
    -0.4054  -0.3786  -0.3753  -0.3733  -0.2525  -0.2508  -0.1495   0.2658
     0.2661   0.2687   0.2692   0.3296   0.3302   0.7189   0.7195   0.7619
     0.7622   0.8696   0.9503   1.0598   1.0640   1.2797   1.2867   1.9159
     1.9166   2.0782   2.0795   2.2096   2.2110   2.3142   2.3149   2.4685
     2.7064   2.7112   2.8289   3.0521   3.0577   3.1384   3.1394   3.2387
     3.2539   3.4397   3.4596   3.5106   3.7104   3.7118   3.7733   3.7751
     4.0307   4.0382   4.0395   4.2822   4.3233   4.3245   4.3687   4.7044
     4.7069   4.7341   4.8698   5.0413   5.0422   5.0663   5.1074   5.3125
     5.6819   5.8296   5.8352   5.8390   5.8497   5.9050   5.9056   5.9922
     6.0152   6.0311   6.0414   6.0674   6.0697   6.0927   6.1006   6.1280
     6.1295   6.3730   6.5377   6.6446   6.6823   6.7682   6.7751   6.7807
     6.7859   6.8970   6.9871

          k = 0.2500-0.4330-0.1111 (136853 PWs)   bands (ev):

   -18.5859  -6.4490  -6.4025  -6.0511  -6.0481  -5.3713  -5.0387  -5.0377
    -5.0003  -4.9967  -4.6385  -4.6372  -4.5394  -4.5391  -4.5250  -4.5027
    -4.4775  -4.3722  -4.3713  -4.3475  -4.3042  -4.3040  -4.2352  -4.2348
    -4.2279  -4.2275  -4.2068  -4.2019  -4.1991  -4.1295  -4.1260  -4.0992
    -4.0975  -4.0865  -4.0861  -4.0631  -4.0630  -4.0406  -4.0322  -4.0319
    -4.0053  -3.9533  -3.9527  -3.9060  -3.9041  -3.8451  -3.8450  -3.7912
    -3.7911  -3.7904  -3.7897  -3.7553  -3.7155  -3.7154  -3.7094  -3.7082
    -3.7081  -3.6772  -3.6766  -3.6683  -3.6066  -3.6064  -3.5969  -3.5808
    -3.5737  -3.5016  -3.5008  -3.4676  -3.4668  -3.4398  -3.4389  -3.4264
    -3.4098  -3.3494  -3.3490  -3.3321  -3.3311  -3.2795  -3.2746  -3.2745
    -3.2362  -3.2051  -3.2043  -3.1971  -3.1957  -3.1828  -3.1824  -3.1748
    -3.1744  -3.1653  -3.1243  -3.0874  -3.0857  -3.0717  -3.0714  -3.0456
    -3.0363  -3.0354  -3.0147  -2.9708  -2.9689  -2.9605  -2.9206  -2.9147
    -2.9037  -2.9024  -2.8740  -2.8732  -2.8446  -2.8064  -2.8060  -2.7841
    -2.7772  -2.7631  -2.7627  -2.7125  -2.7118  -2.6792  -2.6569  -2.6567
    -2.6326  -2.6320  -2.6218  -2.6205  -2.6131  -2.6101  -2.5872  -2.5864
    -2.5427  -2.5420  -2.5412  -2.5246  -2.5234  -2.5193  -2.5096  -2.5072
    -2.5064  -2.5057  -2.5011  -2.4882  -2.4868  -2.4787  -2.4516  -2.4511
    -2.4496  -2.4492  -2.4485  -2.4460  -2.4450  -2.4176  -2.4142  -2.4004
    -2.4002  -2.3829  -2.3823  -2.3723  -2.3721  -2.3713  -2.3699  -2.3512
    -2.3498  -2.3492  -2.3476  -2.3315  -2.3054  -2.3046  -2.2659  -2.2643
    -2.2396  -2.2386  -2.2116  -2.2113  -2.1839  -2.1834  -2.1655  -2.1617
    -2.1347  -2.1128  -2.1125  -2.1073  -2.1067  -2.1027  -2.0958  -2.0947
    -2.0690  -2.0626  -2.0531  -1.9951  -1.9923  -1.9914  -1.9891  -1.9883
    -1.9515  -1.9337  -1.9317  -1.9047  -1.9046  -1.8447  -1.8432  -1.8155
    -1.7969  -1.7963  -1.7358  -1.7348  -1.7239  -1.7227  -1.7124  -1.7118
    -1.7093  -1.6997  -1.6982  -1.6432  -1.6430  -1.6309  -1.6308  -1.6305
    -1.6110  -1.6098  -1.5752  -1.5747  -1.5580  -1.5576  -1.5570  -1.5508
    -1.5459  -1.5362  -1.5353  -1.5173  -1.5166  -1.4755  -1.4747  -1.4627
    -1.4620  -1.4424  -1.4287  -1.3859  -1.3846  -1.3595  -1.3546  -1.3542
    -1.3253  -1.2737  -1.2733  -1.2724  -1.2716  -1.2667  -1.2656  -1.2554
    -1.2374  -1.2361  -1.1972  -1.1960  -1.1660  -1.1657  -1.1611  -1.1606
    -1.1523  -1.1366  -1.1360  -1.1353  -1.1321  -1.1317  -1.0955  -1.0935
    -1.0926  -1.0923  -1.0610  -1.0607  -1.0570  -1.0340  -1.0256  -1.0243
    -0.9788  -0.9716  -0.9703  -0.9362  -0.9278  -0.9168  -0.9164  -0.9087
    -0.9084  -0.9077  -0.9070  -0.8955  -0.8954  -0.8697  -0.8691  -0.8664
    -0.8641  -0.8639  -0.8267  -0.8265  -0.8162  -0.8158  -0.8004  -0.7931
    -0.7922  -0.7806  -0.7247  -0.7232  -0.7139  -0.7136  -0.7130  -0.7122
    -0.7072  -0.6879  -0.6870  -0.6788  -0.6787  -0.6765  -0.6764  -0.6373
    -0.6347  -0.6342  -0.6264  -0.6257  -0.6208  -0.6189  -0.6096  -0.6034
    -0.5999  -0.5990  -0.5902  -0.5571  -0.5565  -0.5484  -0.5449  -0.5446
    -0.4674  -0.4666  -0.4644  -0.4643  -0.4552  -0.4550  -0.4184  -0.4058
    -0.4054  -0.3786  -0.3753  -0.3733  -0.2525  -0.2508  -0.1495   0.2658
     0.2661   0.2687   0.2692   0.3296   0.3302   0.7189   0.7195   0.7619
     0.7622   0.8696   0.9503   1.0598   1.0640   1.2797   1.2867   1.9159
     1.9166   2.0782   2.0795   2.2096   2.2110   2.3142   2.3149   2.4685
     2.7064   2.7112   2.8289   3.0521   3.0577   3.1384   3.1394   3.2387
     3.2539   3.4397   3.4596   3.5106   3.7104   3.7118   3.7733   3.7751
     4.0307   4.0382   4.0395   4.2822   4.3233   4.3245   4.3687   4.7044
     4.7069   4.7341   4.8698   5.0413   5.0422   5.0663   5.1074   5.3125
     5.6822   5.8296   5.8351   5.8390   5.8496   5.9050   5.9056   5.9922
     6.0151   6.0306   6.0413   6.0674   6.0697   6.0928   6.1005   6.1280
     6.1295   6.3711   6.5383   6.6485   6.6816   6.7708   6.7756   6.7806
     6.7858   6.8970   6.9842

          k = 0.5000 0.0000 0.1111 (136853 PWs)   bands (ev):

   -18.5859  -6.4490  -6.4025  -6.0512  -6.0481  -5.3713  -5.0390  -5.0374
    -5.0002  -4.9968  -4.6385  -4.6371  -4.5394  -4.5392  -4.5250  -4.5027
    -4.4775  -4.3722  -4.3712  -4.3475  -4.3041  -4.3040  -4.2352  -4.2347
    -4.2283  -4.2272  -4.2068  -4.2020  -4.1990  -4.1294  -4.1262  -4.0993
    -4.0974  -4.0864  -4.0861  -4.0631  -4.0630  -4.0406  -4.0322  -4.0319
    -4.0053  -3.9532  -3.9528  -3.9061  -3.9041  -3.8451  -3.8449  -3.7912
    -3.7911  -3.7903  -3.7897  -3.7553  -3.7156  -3.7154  -3.7094  -3.7085
    -3.7079  -3.6773  -3.6765  -3.6684  -3.6066  -3.6064  -3.5969  -3.5809
    -3.5737  -3.5016  -3.5008  -3.4673  -3.4671  -3.4398  -3.4389  -3.4264
    -3.4098  -3.3495  -3.3489  -3.3319  -3.3313  -3.2795  -3.2746  -3.2744
    -3.2362  -3.2052  -3.2042  -3.1970  -3.1958  -3.1827  -3.1824  -3.1749
    -3.1745  -3.1654  -3.1243  -3.0872  -3.0858  -3.0717  -3.0715  -3.0456
    -3.0359  -3.0358  -3.0147  -2.9706  -2.9691  -2.9605  -2.9206  -2.9147
    -2.9037  -2.9024  -2.8738  -2.8734  -2.8446  -2.8064  -2.8059  -2.7841
    -2.7772  -2.7631  -2.7627  -2.7124  -2.7118  -2.6793  -2.6570  -2.6567
    -2.6325  -2.6321  -2.6216  -2.6206  -2.6133  -2.6100  -2.5871  -2.5865
    -2.5428  -2.5419  -2.5411  -2.5247  -2.5233  -2.5192  -2.5095  -2.5071
    -2.5065  -2.5058  -2.5012  -2.4883  -2.4869  -2.4787  -2.4516  -2.4512
    -2.4496  -2.4490  -2.4486  -2.4460  -2.4451  -2.4176  -2.4142  -2.4004
    -2.4002  -2.3829  -2.3823  -2.3723  -2.3722  -2.3712  -2.3700  -2.3510
    -2.3500  -2.3490  -2.3478  -2.3315  -2.3052  -2.3048  -2.2660  -2.2642
    -2.2397  -2.2385  -2.2116  -2.2114  -2.1838  -2.1835  -2.1655  -2.1618
    -2.1347  -2.1129  -2.1124  -2.1073  -2.1068  -2.1026  -2.0956  -2.0949
    -2.0690  -2.0626  -2.0530  -1.9950  -1.9923  -1.9914  -1.9890  -1.9884
    -1.9515  -1.9336  -1.9318  -1.9049  -1.9045  -1.8447  -1.8433  -1.8155
    -1.7968  -1.7964  -1.7357  -1.7349  -1.7236  -1.7230  -1.7123  -1.7120
    -1.7093  -1.6992  -1.6987  -1.6435  -1.6427  -1.6310  -1.6308  -1.6305
    -1.6107  -1.6100  -1.5751  -1.5748  -1.5579  -1.5576  -1.5571  -1.5508
    -1.5460  -1.5361  -1.5354  -1.5174  -1.5166  -1.4753  -1.4749  -1.4626
    -1.4621  -1.4425  -1.4287  -1.3858  -1.3848  -1.3595  -1.3546  -1.3541
    -1.3253  -1.2736  -1.2734  -1.2723  -1.2718  -1.2664  -1.2659  -1.2554
    -1.2372  -1.2362  -1.1971  -1.1962  -1.1659  -1.1657  -1.1612  -1.1605
    -1.1523  -1.1367  -1.1359  -1.1353  -1.1321  -1.1318  -1.0953  -1.0937
    -1.0926  -1.0923  -1.0609  -1.0605  -1.0573  -1.0339  -1.0255  -1.0245
    -0.9787  -0.9714  -0.9706  -0.9362  -0.9279  -0.9169  -0.9164  -0.9088
    -0.9084  -0.9076  -0.9071  -0.8956  -0.8953  -0.8697  -0.8690  -0.8665
    -0.8642  -0.8637  -0.8268  -0.8265  -0.8162  -0.8157  -0.8005  -0.7929
    -0.7923  -0.7806  -0.7247  -0.7233  -0.7138  -0.7138  -0.7127  -0.7124
    -0.7072  -0.6876  -0.6873  -0.6787  -0.6786  -0.6766  -0.6763  -0.6373
    -0.6346  -0.6343  -0.6262  -0.6259  -0.6209  -0.6190  -0.6100  -0.6032
    -0.5995  -0.5992  -0.5901  -0.5570  -0.5566  -0.5484  -0.5449  -0.5446
    -0.4671  -0.4668  -0.4644  -0.4643  -0.4551  -0.4550  -0.4184  -0.4057
    -0.4054  -0.3778  -0.3762  -0.3733  -0.2521  -0.2511  -0.1495   0.2659
     0.2660   0.2687   0.2693   0.3293   0.3304   0.7188   0.7196   0.7615
     0.7626   0.8695   0.9503   1.0606   1.0632   1.2811   1.2853   1.9159
     1.9165   2.0781   2.0796   2.2096   2.2110   2.3138   2.3153   2.4686
     2.7064   2.7111   2.8290   3.0532   3.0567   3.1380   3.1398   3.2387
     3.2539   3.4431   3.4563   3.5106   3.7106   3.7116   3.7738   3.7744
     4.0308   4.0381   4.0397   4.2821   4.3235   4.3244   4.3687   4.7047
     4.7066   4.7345   4.8699   5.0412   5.0423   5.0820   5.1004   5.2895
     5.7117   5.8223   5.8299   5.8366   5.8389   5.9049   5.9058   5.9941
     6.0148   6.0383   6.0478   6.0670   6.0681   6.0929   6.1047   6.1284
     6.1289   6.4038   6.4822   6.6553   6.6822   6.7697   6.7763   6.7791
     6.7858   6.8972   6.9911

          k =-0.5000 0.0000 0.1111 (136853 PWs)   bands (ev):

   -18.5859  -6.4490  -6.4025  -6.0512  -6.0481  -5.3713  -5.0390  -5.0374
    -5.0002  -4.9968  -4.6385  -4.6371  -4.5394  -4.5392  -4.5250  -4.5027
    -4.4775  -4.3722  -4.3712  -4.3475  -4.3041  -4.3040  -4.2352  -4.2347
    -4.2283  -4.2272  -4.2068  -4.2020  -4.1990  -4.1294  -4.1262  -4.0993
    -4.0974  -4.0864  -4.0861  -4.0631  -4.0630  -4.0406  -4.0322  -4.0319
    -4.0053  -3.9532  -3.9528  -3.9061  -3.9041  -3.8451  -3.8449  -3.7912
    -3.7911  -3.7903  -3.7897  -3.7553  -3.7156  -3.7154  -3.7094  -3.7085
    -3.7079  -3.6773  -3.6765  -3.6684  -3.6066  -3.6064  -3.5969  -3.5809
    -3.5737  -3.5016  -3.5008  -3.4673  -3.4671  -3.4398  -3.4389  -3.4264
    -3.4098  -3.3495  -3.3489  -3.3319  -3.3313  -3.2795  -3.2746  -3.2744
    -3.2362  -3.2052  -3.2042  -3.1970  -3.1958  -3.1827  -3.1824  -3.1749
    -3.1745  -3.1654  -3.1243  -3.0872  -3.0858  -3.0717  -3.0715  -3.0456
    -3.0359  -3.0358  -3.0147  -2.9706  -2.9691  -2.9605  -2.9206  -2.9147
    -2.9037  -2.9024  -2.8738  -2.8734  -2.8446  -2.8064  -2.8059  -2.7841
    -2.7772  -2.7631  -2.7627  -2.7124  -2.7118  -2.6793  -2.6570  -2.6567
    -2.6325  -2.6321  -2.6216  -2.6206  -2.6133  -2.6100  -2.5871  -2.5865
    -2.5428  -2.5419  -2.5411  -2.5247  -2.5233  -2.5192  -2.5095  -2.5071
    -2.5065  -2.5058  -2.5012  -2.4883  -2.4869  -2.4787  -2.4516  -2.4512
    -2.4496  -2.4490  -2.4486  -2.4460  -2.4451  -2.4176  -2.4142  -2.4004
    -2.4002  -2.3829  -2.3823  -2.3723  -2.3722  -2.3712  -2.3700  -2.3510
    -2.3500  -2.3490  -2.3478  -2.3315  -2.3052  -2.3048  -2.2660  -2.2642
    -2.2397  -2.2385  -2.2116  -2.2114  -2.1838  -2.1835  -2.1655  -2.1618
    -2.1347  -2.1129  -2.1124  -2.1073  -2.1068  -2.1026  -2.0956  -2.0949
    -2.0690  -2.0626  -2.0530  -1.9950  -1.9923  -1.9914  -1.9890  -1.9884
    -1.9515  -1.9336  -1.9318  -1.9049  -1.9045  -1.8447  -1.8433  -1.8155
    -1.7968  -1.7964  -1.7357  -1.7349  -1.7236  -1.7230  -1.7123  -1.7120
    -1.7093  -1.6992  -1.6987  -1.6435  -1.6427  -1.6310  -1.6308  -1.6305
    -1.6107  -1.6100  -1.5751  -1.5748  -1.5579  -1.5576  -1.5571  -1.5508
    -1.5460  -1.5361  -1.5354  -1.5174  -1.5166  -1.4753  -1.4749  -1.4626
    -1.4621  -1.4425  -1.4287  -1.3858  -1.3848  -1.3595  -1.3546  -1.3541
    -1.3253  -1.2736  -1.2734  -1.2723  -1.2718  -1.2664  -1.2659  -1.2554
    -1.2372  -1.2362  -1.1971  -1.1962  -1.1659  -1.1657  -1.1612  -1.1605
    -1.1523  -1.1367  -1.1359  -1.1353  -1.1321  -1.1318  -1.0953  -1.0937
    -1.0926  -1.0923  -1.0609  -1.0605  -1.0573  -1.0339  -1.0255  -1.0245
    -0.9787  -0.9714  -0.9706  -0.9362  -0.9279  -0.9169  -0.9164  -0.9088
    -0.9084  -0.9076  -0.9071  -0.8956  -0.8953  -0.8697  -0.8690  -0.8665
    -0.8642  -0.8637  -0.8268  -0.8265  -0.8162  -0.8157  -0.8005  -0.7929
    -0.7923  -0.7806  -0.7247  -0.7233  -0.7138  -0.7138  -0.7127  -0.7124
    -0.7072  -0.6876  -0.6873  -0.6787  -0.6786  -0.6766  -0.6763  -0.6373
    -0.6346  -0.6343  -0.6262  -0.6259  -0.6209  -0.6190  -0.6100  -0.6032
    -0.5995  -0.5992  -0.5901  -0.5570  -0.5566  -0.5484  -0.5449  -0.5446
    -0.4671  -0.4668  -0.4644  -0.4643  -0.4551  -0.4550  -0.4184  -0.4057
    -0.4054  -0.3778  -0.3762  -0.3733  -0.2521  -0.2511  -0.1495   0.2659
     0.2660   0.2687   0.2693   0.3293   0.3304   0.7188   0.7196   0.7615
     0.7626   0.8695   0.9503   1.0606   1.0632   1.2811   1.2853   1.9159
     1.9165   2.0781   2.0796   2.2096   2.2110   2.3138   2.3153   2.4686
     2.7064   2.7111   2.8290   3.0532   3.0567   3.1380   3.1398   3.2387
     3.2539   3.4431   3.4563   3.5106   3.7106   3.7116   3.7738   3.7744
     4.0308   4.0381   4.0397   4.2821   4.3235   4.3244   4.3687   4.7047
     4.7066   4.7345   4.8699   5.0412   5.0423   5.0820   5.1004   5.2895
     5.7116   5.8223   5.8299   5.8366   5.8389   5.9049   5.9058   5.9941
     6.0148   6.0384   6.0479   6.0670   6.0681   6.0929   6.1047   6.1284
     6.1289   6.4041   6.4821   6.6551   6.6818   6.7693   6.7764   6.7791
     6.7858   6.8970   6.9913

          k =-0.2500 0.1443 0.1111 (136898 PWs)   bands (ev):

   -18.5859  -6.6590  -6.4025  -5.8669  -5.5752  -5.5166  -5.5165  -4.9782
    -4.9781  -4.8461  -4.8458  -4.6902  -4.6601  -4.5985  -4.5645  -4.5643
    -4.5315  -4.5315  -4.4030  -4.3612  -4.3611  -4.3011  -4.2798  -4.2797
    -4.1777  -4.1776  -4.1415  -4.1413  -4.1412  -4.1139  -4.0927  -4.0926
    -3.9870  -3.9855  -3.9854  -3.9645  -3.9477  -3.9477  -3.9353  -3.9352
    -3.9215  -3.8918  -3.8918  -3.8917  -3.8916  -3.8583  -3.8582  -3.8412
    -3.8411  -3.8264  -3.7829  -3.7828  -3.7528  -3.7373  -3.7371  -3.7330
    -3.7330  -3.6583  -3.6582  -3.6226  -3.6203  -3.6201  -3.5528  -3.5528
    -3.5373  -3.5371  -3.5061  -3.5058  -3.5049  -3.5047  -3.3514  -3.3513
    -3.3256  -3.3255  -3.3205  -3.3045  -3.3045  -3.2784  -3.2783  -3.2286
    -3.2286  -3.2123  -3.2122  -3.1920  -3.1431  -3.1431  -3.1235  -3.1185
    -3.1184  -3.0775  -3.0775  -3.0711  -3.0711  -3.0544  -3.0542  -3.0148
    -3.0148  -2.9930  -2.9928  -2.9899  -2.9898  -2.9867  -2.9093  -2.9092
    -2.9080  -2.8791  -2.8790  -2.8169  -2.8167  -2.7888  -2.7873  -2.7743
    -2.7742  -2.7689  -2.7392  -2.7392  -2.7297  -2.7119  -2.6862  -2.6860
    -2.6858  -2.6651  -2.6650  -2.6539  -2.6535  -2.6501  -2.6499  -2.6422
    -2.6127  -2.5964  -2.5633  -2.5633  -2.5479  -2.5337  -2.5271  -2.5270
    -2.5198  -2.5197  -2.5183  -2.4882  -2.4881  -2.4878  -2.4782  -2.4781
    -2.4606  -2.4332  -2.4325  -2.4324  -2.4317  -2.4314  -2.3864  -2.3547
    -2.3544  -2.3543  -2.3469  -2.3389  -2.3255  -2.3252  -2.3089  -2.3089
    -2.2753  -2.2735  -2.2734  -2.2545  -2.2530  -2.2529  -2.2201  -2.2200
    -2.1794  -2.1787  -2.1712  -2.1692  -2.1691  -2.1624  -2.1623  -2.1601
    -2.1598  -2.1527  -2.1524  -2.1359  -2.1358  -2.0084  -2.0082  -1.9759
    -1.9696  -1.9694  -1.9646  -1.9646  -1.9464  -1.9463  -1.9432  -1.9431
    -1.9416  -1.9190  -1.9105  -1.9102  -1.9068  -1.8984  -1.8983  -1.8753
    -1.8753  -1.8467  -1.8466  -1.8142  -1.8141  -1.8041  -1.7958  -1.7782
    -1.7781  -1.7752  -1.7567  -1.7445  -1.7444  -1.7368  -1.7368  -1.7100
    -1.7100  -1.6925  -1.6923  -1.6607  -1.6605  -1.6501  -1.5997  -1.5996
    -1.5870  -1.5867  -1.5860  -1.5614  -1.5589  -1.5251  -1.5244  -1.5242
    -1.4906  -1.4803  -1.4802  -1.4647  -1.4647  -1.4379  -1.4363  -1.4362
    -1.4067  -1.4038  -1.4038  -1.3411  -1.3409  -1.3275  -1.3273  -1.3111
    -1.3110  -1.2985  -1.2984  -1.2805  -1.2677  -1.2398  -1.2397  -1.2284
    -1.2005  -1.1899  -1.1898  -1.1783  -1.1783  -1.1758  -1.1704  -1.1702
    -1.1574  -1.1261  -1.1259  -1.1149  -1.1143  -1.1134  -1.1131  -1.0893
    -1.0707  -1.0703  -1.0496  -1.0492  -0.9566  -0.9429  -0.9374  -0.9374
    -0.9339  -0.9281  -0.9281  -0.9075  -0.9025  -0.8870  -0.8868  -0.8725
    -0.8724  -0.8629  -0.8426  -0.8425  -0.8407  -0.8326  -0.7608  -0.7607
    -0.7266  -0.7261  -0.7223  -0.7150  -0.7146  -0.7139  -0.7138  -0.7005
    -0.7003  -0.6850  -0.6597  -0.6452  -0.6249  -0.6247  -0.6136  -0.6132
    -0.6007  -0.6003  -0.5993  -0.5981  -0.5978  -0.5906  -0.5802  -0.5758
    -0.5756  -0.5451  -0.5436  -0.5434  -0.5316  -0.5314  -0.5121  -0.4799
    -0.4798  -0.4706  -0.4706  -0.4025  -0.4022  -0.3644  -0.3643  -0.3061
    -0.3054  -0.3052  -0.2951  -0.2772  -0.0535  -0.0528   0.2941   0.2942
     0.3854   0.3862   0.5790   0.5924   0.6119   0.7428   0.7430   1.1743
     1.1743   1.1929   1.4503   1.4844   1.4844   1.7612   1.7625   1.8409
     1.8410   1.8682   1.8689   2.0974   2.0976   2.1855   2.1856   2.2576
     2.3244   2.3254   2.4895   2.5867   3.0280   3.0285   3.0314   3.0318
     3.0865   3.0868   3.3786   3.3787   3.6600   3.6615   3.7624   4.0743
     4.1174   4.1183   4.3313   4.3405   4.4182   4.4190   4.5096   4.6275
     4.6283   4.7448   4.7451   5.0496   5.1171   5.1195   5.1709   5.2868
     5.3213   5.5063   5.5070   5.5323   5.5329   5.5961   5.5969   5.6391
     5.7394   5.9940   6.1961   6.2081   6.2210   6.3392   6.3394   6.3522
     6.3530   6.5356   6.5930   6.5944   6.6490   6.7471   6.7973   6.8255
     6.8272   6.9790   7.0199

          k =-0.2500-0.1443-0.1111 (136898 PWs)   bands (ev):

   -18.5859  -6.6590  -6.4025  -5.8669  -5.5752  -5.5166  -5.5165  -4.9781
    -4.9781  -4.8465  -4.8455  -4.6902  -4.6601  -4.5987  -4.5645  -4.5643
    -4.5316  -4.5313  -4.4030  -4.3613  -4.3611  -4.3009  -4.2799  -4.2797
    -4.1776  -4.1775  -4.1415  -4.1413  -4.1412  -4.1139  -4.0929  -4.0924
    -3.9869  -3.9856  -3.9854  -3.9644  -3.9479  -3.9476  -3.9353  -3.9352
    -3.9214  -3.8919  -3.8918  -3.8916  -3.8915  -3.8585  -3.8582  -3.8411
    -3.8411  -3.8263  -3.7830  -3.7828  -3.7529  -3.7373  -3.7371  -3.7330
    -3.7329  -3.6584  -3.6582  -3.6225  -3.6202  -3.6200  -3.5530  -3.5529
    -3.5371  -3.5371  -3.5058  -3.5056  -3.5053  -3.5051  -3.3515  -3.3514
    -3.3256  -3.3255  -3.3204  -3.3046  -3.3045  -3.2784  -3.2781  -3.2287
    -3.2286  -3.2124  -3.2122  -3.1919  -3.1431  -3.1429  -3.1236  -3.1186
    -3.1185  -3.0776  -3.0775  -3.0712  -3.0711  -3.0544  -3.0542  -3.0146
    -3.0145  -2.9930  -2.9928  -2.9899  -2.9897  -2.9866  -2.9093  -2.9092
    -2.9082  -2.8792  -2.8790  -2.8169  -2.8165  -2.7887  -2.7874  -2.7741
    -2.7740  -2.7690  -2.7393  -2.7389  -2.7298  -2.7118  -2.6863  -2.6862
    -2.6859  -2.6651  -2.6649  -2.6541  -2.6538  -2.6501  -2.6498  -2.6423
    -2.6127  -2.5963  -2.5634  -2.5633  -2.5478  -2.5339  -2.5271  -2.5269
    -2.5199  -2.5197  -2.5184  -2.4882  -2.4881  -2.4878  -2.4782  -2.4780
    -2.4605  -2.4335  -2.4330  -2.4322  -2.4315  -2.4313  -2.3865  -2.3549
    -2.3545  -2.3543  -2.3468  -2.3389  -2.3256  -2.3250  -2.3088  -2.3087
    -2.2753  -2.2734  -2.2733  -2.2546  -2.2530  -2.2529  -2.2201  -2.2200
    -2.1796  -2.1785  -2.1710  -2.1691  -2.1690  -2.1625  -2.1624  -2.1605
    -2.1598  -2.1526  -2.1523  -2.1360  -2.1359  -2.0084  -2.0082  -1.9759
    -1.9695  -1.9693  -1.9645  -1.9644  -1.9471  -1.9467  -1.9432  -1.9429
    -1.9411  -1.9190  -1.9104  -1.9102  -1.9069  -1.8984  -1.8978  -1.8755
    -1.8755  -1.8471  -1.8464  -1.8142  -1.8140  -1.8040  -1.7958  -1.7782
    -1.7780  -1.7749  -1.7567  -1.7446  -1.7446  -1.7370  -1.7368  -1.7098
    -1.7098  -1.6927  -1.6921  -1.6608  -1.6607  -1.6502  -1.6000  -1.5993
    -1.5870  -1.5866  -1.5864  -1.5617  -1.5587  -1.5250  -1.5243  -1.5240
    -1.4907  -1.4802  -1.4801  -1.4647  -1.4645  -1.4379  -1.4364  -1.4362
    -1.4068  -1.4038  -1.4037  -1.3412  -1.3411  -1.3275  -1.3273  -1.3111
    -1.3111  -1.2982  -1.2982  -1.2800  -1.2676  -1.2401  -1.2396  -1.2285
    -1.2002  -1.1900  -1.1897  -1.1784  -1.1784  -1.1761  -1.1705  -1.1704
    -1.1574  -1.1261  -1.1258  -1.1147  -1.1146  -1.1134  -1.1129  -1.0893
    -1.0710  -1.0705  -1.0495  -1.0491  -0.9564  -0.9429  -0.9374  -0.9374
    -0.9336  -0.9285  -0.9280  -0.9073  -0.9025  -0.8871  -0.8867  -0.8725
    -0.8725  -0.8631  -0.8425  -0.8423  -0.8409  -0.8327  -0.7608  -0.7606
    -0.7265  -0.7260  -0.7224  -0.7150  -0.7147  -0.7140  -0.7138  -0.7007
    -0.7000  -0.6850  -0.6596  -0.6453  -0.6249  -0.6248  -0.6136  -0.6133
    -0.6012  -0.6002  -0.5994  -0.5981  -0.5978  -0.5903  -0.5802  -0.5760
    -0.5756  -0.5451  -0.5435  -0.5432  -0.5315  -0.5314  -0.5122  -0.4799
    -0.4798  -0.4706  -0.4705  -0.4025  -0.4024  -0.3646  -0.3641  -0.3061
    -0.3054  -0.3052  -0.2953  -0.2772  -0.0534  -0.0527   0.2941   0.2942
     0.3854   0.3862   0.5788   0.5923   0.6118   0.7428   0.7430   1.1742
     1.1744   1.1931   1.4503   1.4844   1.4845   1.7611   1.7624   1.8408
     1.8410   1.8682   1.8689   2.0972   2.0976   2.1855   2.1856   2.2576
     2.3244   2.3254   2.4893   2.5868   3.0277   3.0290   3.0314   3.0318
     3.0865   3.0869   3.3782   3.3790   3.6601   3.6614   3.7624   4.0744
     4.1173   4.1181   4.3312   4.3405   4.4184   4.4191   4.5095   4.6274
     4.6282   4.7450   4.7455   5.0494   5.1184   5.1196   5.1696   5.2871
     5.3221   5.5063   5.5067   5.5320   5.5330   5.5955   5.5976   5.6391
     5.7387   5.9901   6.2029   6.2058   6.2208   6.3393   6.3396   6.3521
     6.3533   6.5359   6.5927   6.5944   6.6489   6.7445   6.7992   6.8260
     6.8277   6.9789   7.0212

          k = 0.2500 0.1443-0.1111 (136898 PWs)   bands (ev):

   -18.5859  -6.6590  -6.4025  -5.8669  -5.5752  -5.5166  -5.5165  -4.9781
    -4.9781  -4.8465  -4.8455  -4.6902  -4.6601  -4.5987  -4.5645  -4.5643
    -4.5316  -4.5313  -4.4030  -4.3613  -4.3611  -4.3009  -4.2799  -4.2797
    -4.1776  -4.1775  -4.1415  -4.1413  -4.1412  -4.1139  -4.0929  -4.0924
    -3.9869  -3.9856  -3.9854  -3.9644  -3.9479  -3.9476  -3.9353  -3.9352
    -3.9214  -3.8919  -3.8918  -3.8916  -3.8915  -3.8585  -3.8582  -3.8411
    -3.8411  -3.8263  -3.7830  -3.7828  -3.7529  -3.7373  -3.7371  -3.7330
    -3.7329  -3.6584  -3.6582  -3.6225  -3.6202  -3.6200  -3.5530  -3.5529
    -3.5371  -3.5371  -3.5058  -3.5056  -3.5053  -3.5051  -3.3515  -3.3514
    -3.3256  -3.3255  -3.3204  -3.3046  -3.3045  -3.2784  -3.2781  -3.2287
    -3.2286  -3.2124  -3.2122  -3.1919  -3.1431  -3.1429  -3.1236  -3.1186
    -3.1185  -3.0776  -3.0775  -3.0712  -3.0711  -3.0544  -3.0542  -3.0146
    -3.0145  -2.9930  -2.9928  -2.9899  -2.9897  -2.9866  -2.9093  -2.9092
    -2.9082  -2.8792  -2.8790  -2.8169  -2.8165  -2.7887  -2.7874  -2.7741
    -2.7740  -2.7690  -2.7393  -2.7389  -2.7298  -2.7118  -2.6863  -2.6862
    -2.6859  -2.6651  -2.6649  -2.6541  -2.6538  -2.6501  -2.6498  -2.6423
    -2.6127  -2.5963  -2.5634  -2.5633  -2.5478  -2.5339  -2.5271  -2.5269
    -2.5199  -2.5197  -2.5184  -2.4882  -2.4881  -2.4878  -2.4782  -2.4780
    -2.4605  -2.4335  -2.4330  -2.4322  -2.4315  -2.4313  -2.3865  -2.3549
    -2.3545  -2.3543  -2.3468  -2.3389  -2.3256  -2.3250  -2.3088  -2.3087
    -2.2753  -2.2734  -2.2733  -2.2546  -2.2530  -2.2529  -2.2201  -2.2200
    -2.1796  -2.1785  -2.1710  -2.1691  -2.1690  -2.1625  -2.1624  -2.1605
    -2.1597  -2.1526  -2.1523  -2.1360  -2.1359  -2.0084  -2.0082  -1.9759
    -1.9695  -1.9693  -1.9645  -1.9644  -1.9471  -1.9467  -1.9432  -1.9430
    -1.9411  -1.9190  -1.9104  -1.9102  -1.9069  -1.8984  -1.8978  -1.8755
    -1.8755  -1.8471  -1.8464  -1.8142  -1.8140  -1.8040  -1.7958  -1.7782
    -1.7780  -1.7749  -1.7567  -1.7446  -1.7446  -1.7370  -1.7368  -1.7098
    -1.7098  -1.6927  -1.6921  -1.6608  -1.6607  -1.6502  -1.6000  -1.5993
    -1.5870  -1.5866  -1.5864  -1.5617  -1.5587  -1.5250  -1.5243  -1.5240
    -1.4907  -1.4802  -1.4801  -1.4647  -1.4645  -1.4379  -1.4364  -1.4363
    -1.4068  -1.4038  -1.4037  -1.3412  -1.3411  -1.3275  -1.3273  -1.3111
    -1.3111  -1.2982  -1.2982  -1.2800  -1.2676  -1.2401  -1.2396  -1.2285
    -1.2002  -1.1900  -1.1897  -1.1784  -1.1784  -1.1761  -1.1705  -1.1704
    -1.1574  -1.1261  -1.1258  -1.1147  -1.1146  -1.1134  -1.1130  -1.0893
    -1.0710  -1.0705  -1.0495  -1.0491  -0.9564  -0.9429  -0.9374  -0.9374
    -0.9336  -0.9285  -0.9281  -0.9073  -0.9025  -0.8871  -0.8867  -0.8725
    -0.8725  -0.8631  -0.8425  -0.8423  -0.8409  -0.8327  -0.7608  -0.7606
    -0.7265  -0.7260  -0.7224  -0.7150  -0.7147  -0.7140  -0.7138  -0.7007
    -0.7000  -0.6850  -0.6596  -0.6453  -0.6249  -0.6248  -0.6136  -0.6133
    -0.6012  -0.6002  -0.5994  -0.5981  -0.5978  -0.5903  -0.5802  -0.5760
    -0.5756  -0.5451  -0.5435  -0.5432  -0.5315  -0.5314  -0.5122  -0.4799
    -0.4798  -0.4706  -0.4705  -0.4025  -0.4024  -0.3646  -0.3641  -0.3061
    -0.3054  -0.3052  -0.2953  -0.2772  -0.0534  -0.0527   0.2941   0.2942
     0.3854   0.3862   0.5788   0.5923   0.6118   0.7428   0.7430   1.1742
     1.1744   1.1931   1.4503   1.4844   1.4845   1.7611   1.7624   1.8408
     1.8410   1.8682   1.8689   2.0972   2.0976   2.1855   2.1856   2.2576
     2.3244   2.3254   2.4893   2.5868   3.0277   3.0290   3.0314   3.0318
     3.0865   3.0869   3.3782   3.3790   3.6601   3.6614   3.7624   4.0744
     4.1173   4.1181   4.3312   4.3405   4.4184   4.4191   4.5095   4.6274
     4.6282   4.7450   4.7455   5.0494   5.1184   5.1196   5.1696   5.2871
     5.3221   5.5063   5.5067   5.5320   5.5330   5.5955   5.5976   5.6392
     5.7382   5.9913   6.2029   6.2057   6.2205   6.3393   6.3396   6.3521
     6.3533   6.5398   6.5926   6.5944   6.6340   6.7533   6.7978   6.8258
     6.8279   6.9830   7.0228

          k = 0.0000-0.2887 0.1111 (136898 PWs)   bands (ev):

   -18.5859  -6.6590  -6.4025  -5.8669  -5.5752  -5.5166  -5.5165  -4.9781
    -4.9780  -4.8465  -4.8455  -4.6902  -4.6601  -4.5987  -4.5646  -4.5642
    -4.5315  -4.5314  -4.4030  -4.3612  -4.3612  -4.3009  -4.2799  -4.2797
    -4.1776  -4.1775  -4.1415  -4.1413  -4.1412  -4.1139  -4.0927  -4.0926
    -3.9869  -3.9856  -3.9854  -3.9645  -3.9479  -3.9477  -3.9353  -3.9352
    -3.9215  -3.8919  -3.8918  -3.8916  -3.8914  -3.8584  -3.8582  -3.8411
    -3.8411  -3.8263  -3.7830  -3.7828  -3.7529  -3.7374  -3.7370  -3.7330
    -3.7329  -3.6584  -3.6582  -3.6225  -3.6202  -3.6200  -3.5530  -3.5529
    -3.5372  -3.5370  -3.5060  -3.5056  -3.5053  -3.5049  -3.3516  -3.3514
    -3.3257  -3.3255  -3.3204  -3.3046  -3.3045  -3.2784  -3.2780  -3.2287
    -3.2286  -3.2124  -3.2122  -3.1918  -3.1432  -3.1428  -3.1236  -3.1186
    -3.1185  -3.0776  -3.0775  -3.0712  -3.0711  -3.0545  -3.0542  -3.0146
    -3.0145  -2.9930  -2.9928  -2.9899  -2.9897  -2.9866  -2.9093  -2.9091
    -2.9082  -2.8792  -2.8790  -2.8170  -2.8165  -2.7887  -2.7873  -2.7742
    -2.7740  -2.7690  -2.7392  -2.7390  -2.7298  -2.7118  -2.6863  -2.6861
    -2.6859  -2.6651  -2.6649  -2.6541  -2.6537  -2.6502  -2.6497  -2.6423
    -2.6128  -2.5963  -2.5635  -2.5633  -2.5478  -2.5339  -2.5271  -2.5269
    -2.5199  -2.5197  -2.5184  -2.4883  -2.4879  -2.4878  -2.4783  -2.4779
    -2.4605  -2.4334  -2.4330  -2.4324  -2.4315  -2.4312  -2.3865  -2.3549
    -2.3545  -2.3543  -2.3469  -2.3390  -2.3255  -2.3252  -2.3088  -2.3087
    -2.2752  -2.2735  -2.2733  -2.2545  -2.2530  -2.2528  -2.2202  -2.2199
    -2.1794  -2.1786  -2.1710  -2.1692  -2.1689  -2.1625  -2.1623  -2.1603
    -2.1599  -2.1528  -2.1522  -2.1361  -2.1358  -2.0086  -2.0081  -1.9759
    -1.9696  -1.9692  -1.9646  -1.9645  -1.9471  -1.9466  -1.9432  -1.9429
    -1.9412  -1.9190  -1.9105  -1.9100  -1.9069  -1.8984  -1.8979  -1.8756
    -1.8755  -1.8470  -1.8464  -1.8143  -1.8140  -1.8040  -1.7958  -1.7782
    -1.7779  -1.7749  -1.7567  -1.7446  -1.7445  -1.7370  -1.7368  -1.7099
    -1.7098  -1.6927  -1.6921  -1.6609  -1.6606  -1.6502  -1.5999  -1.5994
    -1.5870  -1.5865  -1.5864  -1.5617  -1.5587  -1.5251  -1.5243  -1.5240
    -1.4907  -1.4803  -1.4800  -1.4647  -1.4645  -1.4378  -1.4365  -1.4362
    -1.4068  -1.4038  -1.4037  -1.3413  -1.3410  -1.3277  -1.3271  -1.3114
    -1.3108  -1.2983  -1.2981  -1.2800  -1.2676  -1.2400  -1.2396  -1.2285
    -1.2002  -1.1900  -1.1896  -1.1784  -1.1784  -1.1761  -1.1706  -1.1702
    -1.1574  -1.1261  -1.1258  -1.1151  -1.1144  -1.1132  -1.1130  -1.0893
    -1.0711  -1.0703  -1.0497  -1.0490  -0.9565  -0.9429  -0.9374  -0.9374
    -0.9337  -0.9284  -0.9281  -0.9073  -0.9025  -0.8872  -0.8866  -0.8725
    -0.8724  -0.8630  -0.8426  -0.8425  -0.8407  -0.8327  -0.7607  -0.7607
    -0.7266  -0.7259  -0.7224  -0.7152  -0.7146  -0.7139  -0.7138  -0.7007
    -0.7001  -0.6850  -0.6596  -0.6452  -0.6250  -0.6248  -0.6136  -0.6132
    -0.6013  -0.6003  -0.5994  -0.5980  -0.5978  -0.5900  -0.5802  -0.5760
    -0.5756  -0.5451  -0.5434  -0.5433  -0.5315  -0.5314  -0.5122  -0.4799
    -0.4798  -0.4706  -0.4705  -0.4025  -0.4024  -0.3646  -0.3641  -0.3062
    -0.3054  -0.3052  -0.2954  -0.2772  -0.0538  -0.0521   0.2941   0.2942
     0.3849   0.3868   0.5792   0.5920   0.6118   0.7427   0.7432   1.1743
     1.1743   1.1931   1.4502   1.4844   1.4845   1.7603   1.7635   1.8408
     1.8411   1.8677   1.8694   2.0972   2.0976   2.1854   2.1856   2.2575
     2.3238   2.3261   2.4893   2.5867   3.0281   3.0287   3.0311   3.0321
     3.0865   3.0869   3.3786   3.3786   3.6592   3.6622   3.7627   4.0744
     4.1168   4.1186   4.3245   4.3459   4.4186   4.4188   4.5095   4.6275
     4.6280   4.7450   4.7457   5.0497   5.1172   5.1193   5.1715   5.2953
     5.3231   5.5056   5.5070   5.5327   5.5328   5.5964   5.5968   5.6403
     5.7282   5.9673   6.2000   6.2052   6.2563   6.3390   6.3397   6.3517
     6.3537   6.5481   6.5918   6.5950   6.6247   6.7218   6.8201   6.8268
     6.8341   6.9612   7.0494

          k = 0.0000 0.2887 0.1111 (136898 PWs)   bands (ev):

   -18.5859  -6.6590  -6.4025  -5.8669  -5.5752  -5.5166  -5.5165  -4.9781
    -4.9780  -4.8465  -4.8455  -4.6902  -4.6601  -4.5987  -4.5646  -4.5642
    -4.5315  -4.5314  -4.4030  -4.3612  -4.3612  -4.3009  -4.2799  -4.2797
    -4.1776  -4.1775  -4.1415  -4.1413  -4.1412  -4.1139  -4.0927  -4.0926
    -3.9869  -3.9856  -3.9854  -3.9645  -3.9479  -3.9476  -3.9353  -3.9352
    -3.9215  -3.8919  -3.8918  -3.8916  -3.8914  -3.8584  -3.8582  -3.8411
    -3.8411  -3.8263  -3.7830  -3.7828  -3.7529  -3.7374  -3.7370  -3.7330
    -3.7329  -3.6584  -3.6582  -3.6225  -3.6203  -3.6200  -3.5530  -3.5529
    -3.5372  -3.5370  -3.5060  -3.5056  -3.5053  -3.5049  -3.3516  -3.3514
    -3.3257  -3.3255  -3.3204  -3.3046  -3.3045  -3.2784  -3.2780  -3.2287
    -3.2286  -3.2124  -3.2122  -3.1918  -3.1432  -3.1428  -3.1236  -3.1186
    -3.1185  -3.0776  -3.0775  -3.0713  -3.0711  -3.0545  -3.0542  -3.0146
    -3.0146  -2.9930  -2.9928  -2.9899  -2.9897  -2.9866  -2.9094  -2.9091
    -2.9082  -2.8792  -2.8790  -2.8170  -2.8165  -2.7887  -2.7873  -2.7742
    -2.7740  -2.7690  -2.7391  -2.7390  -2.7298  -2.7118  -2.6863  -2.6861
    -2.6859  -2.6651  -2.6649  -2.6541  -2.6537  -2.6502  -2.6497  -2.6423
    -2.6128  -2.5963  -2.5635  -2.5633  -2.5478  -2.5339  -2.5271  -2.5269
    -2.5199  -2.5197  -2.5184  -2.4883  -2.4879  -2.4878  -2.4783  -2.4779
    -2.4605  -2.4334  -2.4330  -2.4324  -2.4315  -2.4312  -2.3865  -2.3548
    -2.3545  -2.3542  -2.3469  -2.3389  -2.3255  -2.3252  -2.3088  -2.3087
    -2.2752  -2.2735  -2.2733  -2.2545  -2.2530  -2.2528  -2.2202  -2.2199
    -2.1794  -2.1786  -2.1710  -2.1692  -2.1689  -2.1625  -2.1623  -2.1603
    -2.1599  -2.1528  -2.1522  -2.1361  -2.1358  -2.0086  -2.0081  -1.9759
    -1.9696  -1.9692  -1.9646  -1.9645  -1.9471  -1.9466  -1.9432  -1.9429
    -1.9412  -1.9190  -1.9106  -1.9100  -1.9069  -1.8984  -1.8979  -1.8756
    -1.8755  -1.8470  -1.8464  -1.8143  -1.8140  -1.8040  -1.7958  -1.7782
    -1.7779  -1.7749  -1.7567  -1.7446  -1.7445  -1.7370  -1.7368  -1.7099
    -1.7098  -1.6927  -1.6921  -1.6609  -1.6606  -1.6502  -1.5999  -1.5994
    -1.5870  -1.5865  -1.5864  -1.5617  -1.5587  -1.5251  -1.5243  -1.5240
    -1.4907  -1.4803  -1.4800  -1.4647  -1.4645  -1.4378  -1.4365  -1.4362
    -1.4068  -1.4038  -1.4037  -1.3413  -1.3410  -1.3277  -1.3271  -1.3114
    -1.3108  -1.2983  -1.2981  -1.2800  -1.2676  -1.2400  -1.2396  -1.2285
    -1.2002  -1.1900  -1.1896  -1.1784  -1.1784  -1.1761  -1.1706  -1.1702
    -1.1574  -1.1261  -1.1258  -1.1151  -1.1144  -1.1133  -1.1130  -1.0893
    -1.0711  -1.0703  -1.0497  -1.0490  -0.9565  -0.9429  -0.9374  -0.9374
    -0.9337  -0.9284  -0.9281  -0.9073  -0.9025  -0.8872  -0.8866  -0.8725
    -0.8724  -0.8630  -0.8426  -0.8425  -0.8408  -0.8327  -0.7607  -0.7606
    -0.7266  -0.7259  -0.7224  -0.7152  -0.7146  -0.7139  -0.7138  -0.7007
    -0.7001  -0.6850  -0.6596  -0.6452  -0.6250  -0.6248  -0.6136  -0.6132
    -0.6014  -0.6003  -0.5994  -0.5980  -0.5978  -0.5900  -0.5802  -0.5760
    -0.5757  -0.5451  -0.5434  -0.5433  -0.5315  -0.5314  -0.5122  -0.4799
    -0.4798  -0.4706  -0.4705  -0.4025  -0.4024  -0.3646  -0.3641  -0.3062
    -0.3054  -0.3052  -0.2954  -0.2772  -0.0538  -0.0521   0.2941   0.2942
     0.3849   0.3868   0.5792   0.5920   0.6118   0.7427   0.7432   1.1743
     1.1743   1.1931   1.4502   1.4844   1.4845   1.7603   1.7634   1.8408
     1.8411   1.8677   1.8694   2.0972   2.0976   2.1854   2.1856   2.2575
     2.3238   2.3261   2.4893   2.5867   3.0281   3.0287   3.0311   3.0321
     3.0865   3.0869   3.3786   3.3786   3.6592   3.6622   3.7627   4.0744
     4.1168   4.1186   4.3245   4.3459   4.4186   4.4188   4.5095   4.6275
     4.6280   4.7450   4.7457   5.0497   5.1172   5.1193   5.1715   5.2953
     5.3231   5.5056   5.5070   5.5327   5.5328   5.5964   5.5968   5.6403
     5.7290   5.9663   6.1991   6.2048   6.2561   6.3390   6.3397   6.3518
     6.3537   6.5454   6.5917   6.5950   6.6388   6.7113   6.8198   6.8269
     6.8344   6.9675   7.0535

     the Fermi energy is     1.3167 ev

!    total energy              =   -6604.43002657 Ry
     Harris-Foulkes estimate   =   -6604.43002657 Ry
     estimated scf accuracy    <          2.5E-09 Ry

     The total energy is the sum of the following terms:

     one-electron contribution =  -48248.39686768 Ry
     hartree contribution      =   24622.40348195 Ry
     xc contribution           =   -3204.94936270 Ry
     ewald contribution        =   20226.50982677 Ry
     smearing contrib. (-TS)   =       0.00289509 Ry

     convergence has been achieved in  24 iterations

     Writing output data file 8338743.save

     init_run     :    169.11s CPU    180.26s WALL (       1 calls)
     electrons    :   9428.10s CPU   9984.02s WALL (       1 calls)

     Called by init_run:
     wfcinit      :    139.48s CPU    149.63s WALL (       1 calls)
     potinit      :      9.65s CPU     10.01s WALL (       1 calls)

     Called by electrons:
     c_bands      :   8121.31s CPU   8570.34s WALL (      25 calls)
     sum_band     :   1019.67s CPU   1115.09s WALL (      25 calls)
     v_of_rho     :     62.80s CPU     70.74s WALL (      25 calls)
     newd         :    231.50s CPU    234.58s WALL (      25 calls)
     mix_rho      :      1.92s CPU      2.17s WALL (      25 calls)
     vdW_energy   :      5.98s CPU      6.45s WALL (      25 calls)
     vdW_ffts     :     28.73s CPU     32.74s WALL (      50 calls)
     vdW_v        :      9.82s CPU     10.53s WALL (      25 calls)

     Called by c_bands:
     init_us_2    :     15.08s CPU     15.46s WALL (     612 calls)
     cegterg      :   7837.93s CPU   8285.13s WALL (     300 calls)

     Called by *egterg:
     h_psi        :   3056.23s CPU   3465.31s WALL (    1749 calls)
     s_psi        :    277.74s CPU    279.70s WALL (    1749 calls)
     g_psi        :      6.26s CPU      6.29s WALL (    1437 calls)
     cdiaghg      :   1714.98s CPU   1719.79s WALL (    1725 calls)

     Called by h_psi:
     add_vuspsi   :    275.86s CPU    277.70s WALL (    1749 calls)

     General routines
     calbec       :   1017.22s CPU   1020.48s WALL (    2049 calls)
     fft          :    148.44s CPU    155.95s WALL (    1650 calls)
     ffts         :      0.88s CPU      1.12s WALL (      50 calls)
     fftw         :   2150.95s CPU   2591.92s WALL (  721516 calls)
     interpolate  :      2.40s CPU      2.99s WALL (      50 calls)
     davcio       :      0.01s CPU      0.21s WALL (      12 calls)

     Parallel routines
     fft_scatter  :   1597.69s CPU   1903.43s WALL (  723216 calls)

     PWSCF        :     2h40m CPU        2h49m WALL


   This run was terminated on:   8:59:21   2Jul2015            

=------------------------------------------------------------------------------=
   JOB DONE.
=------------------------------------------------------------------------------=
