Setting SGE environment for SCC

     Program PWSCF v.5.1.2 starts on  1Jul2015 at 22:17:58 

     This program is part of the open-source Quantum ESPRESSO suite
     for quantum simulation of materials; please cite
         "P. Giannozzi et al., J. Phys.:Condens. Matter 21 395502 (2009);
          URL http://www.quantum-espresso.org", 
     in publications or presentations arising from this work. More details at
     http://www.quantum-espresso.org/quote

     Parallel version (MPI), running on    32 processors
     R & G space division:  proc/nbgrp/npool/nimage =      32
     Reading input from bridge.H2.Au5455.d.2.4.phi.0.psi.90.in
Warning: card &IONS ignored
Warning: card / ignored
Warning: card &CELL ignored
Warning: card / ignored

     Current dimensions of program PWSCF are:
     Max number of different atomic species (ntypx) = 10
     Max number of k-points (npk) =  40000
     Max angular momentum in pseudopotentials (lmaxx) =  3

     IMPORTANT: XC functional enforced from input :
     Exchange-correlation      = VDW-DF ( 1  4  4  0 1 0)
     Any further DFT definition will be discarded
     Please, verify this is what you really want


     Subspace diagonalization in iterative solution of the eigenvalue problem:
     a serial algorithm will be used


     Parallelization info
     --------------------
     sticks:   dense  smooth     PW     G-vecs:    dense   smooth      PW
     Min         445     223     58                96775    34191    4534
     Max         446     224     59                96790    34246    4540
     Sum       14269    7147   1867              3097177  1095093  145167


     Title: 
     bridge.H2.Au5455.d.2.4.phi.0.psi.90                                        


     bravais-lattice index     =            4
     lattice parameter (alat)  =      22.7436  a.u.
     unit-cell volume          =   22924.1508 (a.u.)^3
     number of atoms/cell      =           67
     number of atomic types    =            3
     number of electrons       =       712.00
     number of Kohn-Sham states=          427
     kinetic-energy cutoff     =      50.0000  Ry
     charge density cutoff     =     400.0000  Ry
     convergence threshold     =      1.0E-08
     mixing beta               =       0.7000
     number of iterations used =            8  plain     mixing
     Exchange-correlation      = VDW-DF ( 1  4  4  0 1 0)

     celldm(1)=  22.743643  celldm(2)=   0.000000  celldm(3)=   2.250000
     celldm(4)=   0.000000  celldm(5)=   0.000000  celldm(6)=   0.000000

     crystal axes: (cart. coord. in units of alat)
               a(1) = (   1.000000   0.000000   0.000000 )  
               a(2) = (  -0.500000   0.866025   0.000000 )  
               a(3) = (   0.000000   0.000000   2.250000 )  

     reciprocal axes: (cart. coord. in units 2 pi/alat)
               b(1) = (  1.000000  0.577350 -0.000000 )  
               b(2) = (  0.000000  1.154701  0.000000 )  
               b(3) = (  0.000000 -0.000000  0.444444 )  


     PseudoPot. # 1 for Au read from file:
     /home/scc/andrejb/qe/pseudo/Au.pbe-nd-van.UPF
     MD5 check sum: 458681b50f36d87ef23c61b04bba420a
     Pseudo is Ultrasoft + core correction, Zval = 11.0
     Generated by new atomic code, or converted to UPF format
     Using radial grid of  985 points,  3 beta functions with: 
                l(1) =   1
                l(2) =   2
                l(3) =   2
     Q(r) pseudized with  8 coefficients,  rinner =    1.100   1.100   1.100
                                                       1.100   1.100

     PseudoPot. # 2 for H  read from file:
     /home/scc/andrejb/qe/pseudo/H.pbe-van_ak.UPF
     MD5 check sum: 403db7282739603aa925980fa9b8608d
     Pseudo is Ultrasoft, Zval =  1.0
     Generated by new atomic code, or converted to UPF format
     Using radial grid of  615 points,  1 beta functions with: 
                l(1) =   0
     Q(r) pseudized with  8 coefficients,  rinner =    0.800

     PseudoPot. # 3 for O  read from file:
     /home/scc/andrejb/qe/pseudo/O.pbe-van_ak.UPF
     MD5 check sum: 4b8c549914a63cae506c6ff22b5af4fe
     Pseudo is Ultrasoft, Zval =  6.0
     Generated by new atomic code, or converted to UPF format
     Using radial grid of  737 points,  4 beta functions with: 
                l(1) =   0
                l(2) =   0
                l(3) =   1
                l(4) =   1
     Q(r) pseudized with  8 coefficients,  rinner =    0.800   0.800   0.800


     vdW kernel table read from file vdW_kernel_table
     MD5 check sum: 48e77a2e26edf626eeb0eaa751ad5cac

     atomic species   valence    mass     pseudopotential
        Au            11.00   196.96657     Au( 1.00)
        H              1.00     1.01000     H ( 1.00)
        O              6.00    16.00000     O ( 1.00)

     No symmetry found



   Cartesian axes

     site n.     atom                  positions (alat units)
         1           O   tau(   1) = (   0.3100235   0.2113033   1.0022804  )
         2           H   tau(   2) = (   0.2915728   0.2885783   0.9869145  )
         3           H   tau(   3) = (   0.2571742   0.1686747   0.9582862  )
         4           Au  tau(   4) = (   0.3540481   0.6132292   0.0000000  )
         5           Au  tau(   5) = (   0.4790062   0.3967954   0.0000000  )
         6           Au  tau(   6) = (   0.6039644   0.1803616   0.0000000  )
         7           Au  tau(   7) = (   0.7289225  -0.0360723   0.0000000  )
         8           Au  tau(   8) = (   0.1041318   0.6132292   0.0000000  )
         9           Au  tau(   9) = (   0.2290899   0.3967954   0.0000000  )
        10           Au  tau(  10) = (   0.3540481   0.1803616   0.0000000  )
        11           Au  tau(  11) = (   0.4790062  -0.0360723   0.0000000  )
        12           Au  tau(  12) = (  -0.1457845   0.6132292   0.0000000  )
        13           Au  tau(  13) = (  -0.0208264   0.3967954   0.0000000  )
        14           Au  tau(  14) = (   0.1041318   0.1803616   0.0000000  )
        15           Au  tau(  15) = (   0.2290899  -0.0360723   0.0000000  )
        16           Au  tau(  16) = (  -0.3957008   0.6132292   0.0000000  )
        17           Au  tau(  17) = (  -0.2707426   0.3967954   0.0000000  )
        18           Au  tau(  18) = (  -0.1457845   0.1803616   0.0000000  )
        19           Au  tau(  19) = (  -0.0208264  -0.0360723   0.0000000  )
        20           Au  tau(  20) = (   0.4790062   0.6853738   0.2040557  )
        21           Au  tau(  21) = (   0.6039644   0.4689400   0.2040557  )
        22           Au  tau(  22) = (   0.7289225   0.2525061   0.2040557  )
        23           Au  tau(  23) = (   0.8538806   0.0360723   0.2040557  )
        24           Au  tau(  24) = (   0.2290899   0.6853738   0.2040557  )
        25           Au  tau(  25) = (   0.3540481   0.4689400   0.2040557  )
        26           Au  tau(  26) = (   0.4790062   0.2525061   0.2040557  )
        27           Au  tau(  27) = (   0.6039644   0.0360723   0.2040557  )
        28           Au  tau(  28) = (  -0.0208264   0.6853738   0.2040557  )
        29           Au  tau(  29) = (   0.1041318   0.4689400   0.2040557  )
        30           Au  tau(  30) = (   0.2290899   0.2525061   0.2040557  )
        31           Au  tau(  31) = (   0.3540481   0.0360723   0.2040557  )
        32           Au  tau(  32) = (  -0.2707426   0.6853738   0.2040557  )
        33           Au  tau(  33) = (  -0.1457845   0.4689400   0.2040557  )
        34           Au  tau(  34) = (  -0.0208264   0.2525061   0.2040557  )
        35           Au  tau(  35) = (   0.1041318   0.0360723   0.2040557  )
        36           Au  tau(  36) = (   0.3541162   0.7576593   0.4066483  )
        37           Au  tau(  37) = (   0.4791000   0.5411421   0.4066695  )
        38           Au  tau(  38) = (   0.6040570   0.3246862   0.4066617  )
        39           Au  tau(  39) = (   0.7290270   0.1081684   0.4066529  )
        40           Au  tau(  40) = (   0.1041162   0.7576236   0.4066247  )
        41           Au  tau(  41) = (   0.2291001   0.5411063   0.4066455  )
        42           Au  tau(  42) = (   0.3540567   0.3246505   0.4066380  )
        43           Au  tau(  43) = (   0.4790276   0.1081324   0.4066292  )
        44           Au  tau(  44) = (  -0.1458201   0.7576104   0.4066224  )
        45           Au  tau(  45) = (  -0.0208365   0.5410930   0.4066438  )
        46           Au  tau(  46) = (   0.1041202   0.3246372   0.4066359  )
        47           Au  tau(  47) = (   0.2290908   0.1081193   0.4066273  )
        48           Au  tau(  48) = (  -0.3958167   0.7575791   0.4065812  )
        49           Au  tau(  49) = (  -0.2708328   0.5410617   0.4066025  )
        50           Au  tau(  50) = (  -0.1458763   0.3246061   0.4065947  )
        51           Au  tau(  51) = (  -0.0209056   0.1080882   0.4065858  )
        52           Au  tau(  52) = (   0.3541085   0.6133344   0.6129762  )
        53           Au  tau(  53) = (   0.4790780   0.3968269   0.6129968  )
        54           Au  tau(  54) = (   0.6040356   0.1803811   0.6129859  )
        55           Au  tau(  55) = (   0.7290165  -0.0361221   0.6129385  )
        56           Au  tau(  56) = (   0.1041243   0.6133091   0.6130022  )
        57           Au  tau(  57) = (   0.2290941   0.3968013   0.6130241  )
        58           Au  tau(  58) = (   0.3540515   0.1803552   0.6130121  )
        59           Au  tau(  59) = (   0.4790323  -0.0361475   0.6129659  )
        60           Au  tau(  60) = (  -0.1458030   0.6133014   0.6129980  )
        61           Au  tau(  61) = (  -0.0208339   0.3967936   0.6130188  )
        62           Au  tau(  62) = (   0.1041239   0.1803477   0.6130083  )
        63           Au  tau(  63) = (   0.2291046  -0.0361554   0.6129607  )
        64           Au  tau(  64) = (  -0.3957908   0.6132739   0.6129471  )
        65           Au  tau(  65) = (  -0.2708208   0.3967658   0.6129688  )
        66           Au  tau(  66) = (  -0.1458636   0.1803200   0.6129569  )
        67           Au  tau(  67) = (  -0.0208823  -0.0361826   0.6129110  )

     number of k points=    12  Marzari-Vanderbilt smearing, width (Ry)=  0.0200
                       cart. coord. in units 2pi/alat
        k(    1) = (   0.2500000   0.4330127   0.1111111), wk =   0.1666667
        k(    2) = (   0.2500000  -0.1443376   0.1111111), wk =   0.1666667
        k(    3) = (  -0.2500000  -0.4330127   0.1111111), wk =   0.1666667
        k(    4) = (  -0.2500000   0.4330127  -0.1111111), wk =   0.1666667
        k(    5) = (   0.2500000  -0.4330127  -0.1111111), wk =   0.1666667
        k(    6) = (   0.5000000   0.0000000   0.1111111), wk =   0.1666667
        k(    7) = (  -0.5000000   0.0000000   0.1111111), wk =   0.1666667
        k(    8) = (  -0.2500000   0.1443376   0.1111111), wk =   0.1666667
        k(    9) = (  -0.2500000  -0.1443376  -0.1111111), wk =   0.1666667
        k(   10) = (   0.2500000   0.1443376  -0.1111111), wk =   0.1666667
        k(   11) = (   0.0000000  -0.2886751   0.1111111), wk =   0.1666667
        k(   12) = (   0.0000000   0.2886751   0.1111111), wk =   0.1666667

     Dense  grid:  3097177 G-vectors     FFT dimensions: ( 150, 150, 360)

     Smooth grid:  1095093 G-vectors     FFT dimensions: ( 108, 108, 240)

     Largest allocated arrays     est. size (Mb)     dimensions
        Kohn-Sham Wavefunctions        28.01 Mb     (    4299,  427)
        NL pseudopotentials            55.23 Mb     (    4299,  842)
        Each V/rho on FFT grid          4.12 Mb     (  270000)
        Each G-vector array             0.74 Mb     (   96788)
        G-vector shells                 0.16 Mb     (   21404)
     Largest temporary arrays     est. size (Mb)     dimensions
        Auxiliary wavefunctions       112.04 Mb     (    4299, 1708)
        Each subspace H/S matrix       44.51 Mb     (    1708, 1708)
        Each <psi_i|beta_j> matrix      5.49 Mb     (     842,  427)
        Arrays for rho mixing          32.96 Mb     (  270000,    8)

     Initial potential from superposition of free atoms
     Check: negative starting charge=   -1.730068

     starting charge  711.25682, renormalised to  712.00000

     negative rho (up, down):  1.732E+00 0.000E+00


     ************************************************************************
     *
     * You are using vdW-DF for exchange-correlation in this calculation.
     * Please cite the following three references that made this development
     * possible:
     *
     *   M. Dion, H. Rydberg, E. Schroder, D. C. Langreth, and
     *   B. I. Lundqvist, Phys. Rev. Lett. 92, 246401 (2004).
     *
     *   T. Thonhauser, V. R. Cooper, S. Li, A. Puzder, P. Hyldgaard, and
     *   D. C. Langreth, Phys. Rev. B 76, 125112 (2007).
     *
     *   G. Roman-Perez and J. M. Soler, Phys. Rev. Lett. 103, 096102 (2009).
     *
     *
     * If you are using vdW-DF2, please also cite:
     *
     *   K. Lee, E. D. Murray, L. Kong, B. I. Lundqvist, and
     *   D. C. Langreth, Phys. Rev. B 82, 081101(R) (2010).
     *
     *
     * If you are calculating the stress with vdW-DF, please also cite:
     *
     *   R. Sabatini, E. Kucukbenli, B. Kolb, T. Thonhauser, and
     *   S. de Gironcoli, J. Phys.: Condens. Matter 24, 424209 (2012).
     *
     ************************************************************************

     Carrying out vdW-DF run using the following parameters:

     Nqs =      20    Nr_points =    1024   r_max =   100.000
     q_mesh =
               0.00001000     0.04494208     0.09755937     0.15916263
               0.23128650     0.31572767     0.41458969     0.53033537
               0.66584808     0.82450364     1.01025438     1.22772762
               1.48234092     1.78043706     2.12944203     2.53805004
               3.01644009     3.57652955     4.23227104     5.00000000

     Gradients computed in reciprocal space

     ************************************************************************


     Starting wfc are  582 randomized atomic wfcs

     total cpu time spent up to now is      142.8 secs

     Self-consistent Calculation

     iteration #  1     ecut=    50.00 Ry     beta=0.70
     Davidson diagonalization with overlap
     ethr =  1.00E-02,  avg # of iterations =  3.0

     Threshold (ethr) on eigenvalues was too large:
     Diagonalizing with lowered threshold

     Davidson diagonalization with overlap
     ethr =  3.54E-04,  avg # of iterations =  5.3

     negative rho (up, down):  1.728E+00 0.000E+00

     total cpu time spent up to now is      718.8 secs

     total energy              =   -6602.76475601 Ry
     Harris-Foulkes estimate   =   -6605.04748986 Ry
     estimated scf accuracy    <       2.85564246 Ry

     iteration #  2     ecut=    50.00 Ry     beta=0.70
     Davidson diagonalization with overlap
     ethr =  4.01E-04,  avg # of iterations = 11.6

     negative rho (up, down):  1.726E+00 0.000E+00

     total cpu time spent up to now is     1613.2 secs

     total energy              =   -6596.58289792 Ry
     Harris-Foulkes estimate   =   -6610.21141495 Ry
     estimated scf accuracy    <      76.16977423 Ry

     iteration #  3     ecut=    50.00 Ry     beta=0.70
     Davidson diagonalization with overlap
     ethr =  4.01E-04,  avg # of iterations =  6.0

     negative rho (up, down):  1.737E+00 0.000E+00

     total cpu time spent up to now is     2175.9 secs

     total energy              =   -6603.01896005 Ry
     Harris-Foulkes estimate   =   -6605.08203347 Ry
     estimated scf accuracy    <       9.94746798 Ry

     iteration #  4     ecut=    50.00 Ry     beta=0.70
     Davidson diagonalization with overlap
     ethr =  4.01E-04,  avg # of iterations =  6.9

     negative rho (up, down):  1.738E+00 0.000E+00

     total cpu time spent up to now is     2528.9 secs

     total energy              =   -6603.37402519 Ry
     Harris-Foulkes estimate   =   -6605.25397277 Ry
     estimated scf accuracy    <      18.09807437 Ry

     iteration #  5     ecut=    50.00 Ry     beta=0.70
     Davidson diagonalization with overlap
     ethr =  4.01E-04,  avg # of iterations =  5.9

     negative rho (up, down):  1.748E+00 0.000E+00

     total cpu time spent up to now is     2911.4 secs

     total energy              =   -6604.33600017 Ry
     Harris-Foulkes estimate   =   -6604.61875334 Ry
     estimated scf accuracy    <       2.01580171 Ry

     iteration #  6     ecut=    50.00 Ry     beta=0.70
     Davidson diagonalization with overlap
     ethr =  2.83E-04,  avg # of iterations =  2.9

     negative rho (up, down):  1.753E+00 0.000E+00

     total cpu time spent up to now is     3302.7 secs

     total energy              =   -6604.43180571 Ry
     Harris-Foulkes estimate   =   -6604.46253429 Ry
     estimated scf accuracy    <       0.09179774 Ry

     iteration #  7     ecut=    50.00 Ry     beta=0.70
     Davidson diagonalization with overlap
     ethr =  1.29E-05,  avg # of iterations = 12.6

     negative rho (up, down):  1.755E+00 0.000E+00

     total cpu time spent up to now is     3996.4 secs

     total energy              =   -6604.43234570 Ry
     Harris-Foulkes estimate   =   -6604.45206187 Ry
     estimated scf accuracy    <       0.07626434 Ry

     iteration #  8     ecut=    50.00 Ry     beta=0.70
     Davidson diagonalization with overlap
     c_bands:  1 eigenvalues not converged
     ethr =  1.07E-05,  avg # of iterations =  5.4

     negative rho (up, down):  1.756E+00 0.000E+00

     total cpu time spent up to now is     4455.6 secs

     total energy              =   -6604.43177727 Ry
     Harris-Foulkes estimate   =   -6604.44453178 Ry
     estimated scf accuracy    <       0.04682224 Ry

     iteration #  9     ecut=    50.00 Ry     beta=0.70
     Davidson diagonalization with overlap
     ethr =  6.58E-06,  avg # of iterations =  8.5

     negative rho (up, down):  1.756E+00 0.000E+00

     total cpu time spent up to now is     4849.5 secs

     total energy              =   -6604.43179099 Ry
     Harris-Foulkes estimate   =   -6604.43729720 Ry
     estimated scf accuracy    <       0.02030711 Ry

     iteration # 10     ecut=    50.00 Ry     beta=0.70
     Davidson diagonalization with overlap
     ethr =  2.85E-06,  avg # of iterations =  5.5

     negative rho (up, down):  1.757E+00 0.000E+00

     total cpu time spent up to now is     5156.2 secs

     total energy              =   -6604.43083164 Ry
     Harris-Foulkes estimate   =   -6604.43401812 Ry
     estimated scf accuracy    <       0.01136102 Ry

     iteration # 11     ecut=    50.00 Ry     beta=0.70
     Davidson diagonalization with overlap
     c_bands:  1 eigenvalues not converged
     c_bands:  1 eigenvalues not converged
     c_bands:  1 eigenvalues not converged
     ethr =  1.60E-06,  avg # of iterations = 10.2

     negative rho (up, down):  1.758E+00 0.000E+00

     total cpu time spent up to now is     5546.3 secs

     total energy              =   -6604.43072877 Ry
     Harris-Foulkes estimate   =   -6604.43185842 Ry
     estimated scf accuracy    <       0.00541432 Ry

     iteration # 12     ecut=    50.00 Ry     beta=0.70
     Davidson diagonalization with overlap
     ethr =  7.60E-07,  avg # of iterations =  2.9

     negative rho (up, down):  1.758E+00 0.000E+00

     total cpu time spent up to now is     5795.9 secs

     total energy              =   -6604.42982764 Ry
     Harris-Foulkes estimate   =   -6604.43113924 Ry
     estimated scf accuracy    <       0.00207037 Ry

     iteration # 13     ecut=    50.00 Ry     beta=0.70
     Davidson diagonalization with overlap
     c_bands:  2 eigenvalues not converged
     c_bands:  2 eigenvalues not converged
     c_bands:  1 eigenvalues not converged
     c_bands:  2 eigenvalues not converged
     ethr =  2.91E-07,  avg # of iterations = 13.3

     negative rho (up, down):  1.758E+00 0.000E+00

     total cpu time spent up to now is     6243.8 secs

     total energy              =   -6604.43014589 Ry
     Harris-Foulkes estimate   =   -6604.43023333 Ry
     estimated scf accuracy    <       0.00017998 Ry

     iteration # 14     ecut=    50.00 Ry     beta=0.70
     Davidson diagonalization with overlap
     ethr =  2.53E-08,  avg # of iterations =  5.8

     negative rho (up, down):  1.758E+00 0.000E+00

     total cpu time spent up to now is     6618.8 secs

     total energy              =   -6604.43016697 Ry
     Harris-Foulkes estimate   =   -6604.43022600 Ry
     estimated scf accuracy    <       0.00020977 Ry

     iteration # 15     ecut=    50.00 Ry     beta=0.70
     Davidson diagonalization with overlap
     ethr =  2.53E-08,  avg # of iterations =  2.0

     negative rho (up, down):  1.758E+00 0.000E+00

     total cpu time spent up to now is     6869.3 secs

     total energy              =   -6604.43017658 Ry
     Harris-Foulkes estimate   =   -6604.43021925 Ry
     estimated scf accuracy    <       0.00032783 Ry

     iteration # 16     ecut=    50.00 Ry     beta=0.70
     Davidson diagonalization with overlap
     ethr =  2.53E-08,  avg # of iterations =  1.0

     negative rho (up, down):  1.758E+00 0.000E+00

     total cpu time spent up to now is     7090.9 secs

     total energy              =   -6604.43019541 Ry
     Harris-Foulkes estimate   =   -6604.43020700 Ry
     estimated scf accuracy    <       0.00006720 Ry

     iteration # 17     ecut=    50.00 Ry     beta=0.70
     Davidson diagonalization with overlap
     ethr =  9.44E-09,  avg # of iterations =  2.0

     negative rho (up, down):  1.758E+00 0.000E+00

     total cpu time spent up to now is     7327.9 secs

     total energy              =   -6604.43019882 Ry
     Harris-Foulkes estimate   =   -6604.43020466 Ry
     estimated scf accuracy    <       0.00002674 Ry

     iteration # 18     ecut=    50.00 Ry     beta=0.70
     Davidson diagonalization with overlap
     ethr =  3.76E-09,  avg # of iterations =  2.0

     negative rho (up, down):  1.758E+00 0.000E+00

     total cpu time spent up to now is     7571.0 secs

     total energy              =   -6604.43020166 Ry
     Harris-Foulkes estimate   =   -6604.43020280 Ry
     estimated scf accuracy    <       0.00000593 Ry

     iteration # 19     ecut=    50.00 Ry     beta=0.70
     Davidson diagonalization with overlap
     ethr =  8.34E-10,  avg # of iterations =  2.0

     negative rho (up, down):  1.758E+00 0.000E+00

     total cpu time spent up to now is     7809.4 secs

     total energy              =   -6604.43020224 Ry
     Harris-Foulkes estimate   =   -6604.43020261 Ry
     estimated scf accuracy    <       0.00000164 Ry

     iteration # 20     ecut=    50.00 Ry     beta=0.70
     Davidson diagonalization with overlap
     ethr =  2.30E-10,  avg # of iterations =  2.0

     negative rho (up, down):  1.758E+00 0.000E+00

     total cpu time spent up to now is     8047.8 secs

     total energy              =   -6604.43020247 Ry
     Harris-Foulkes estimate   =   -6604.43020262 Ry
     estimated scf accuracy    <       0.00000083 Ry

     iteration # 21     ecut=    50.00 Ry     beta=0.70
     Davidson diagonalization with overlap
     ethr =  1.16E-10,  avg # of iterations =  2.0

     negative rho (up, down):  1.758E+00 0.000E+00

     total cpu time spent up to now is     8288.4 secs

     total energy              =   -6604.43020259 Ry
     Harris-Foulkes estimate   =   -6604.43020263 Ry
     estimated scf accuracy    <       0.00000029 Ry

     iteration # 22     ecut=    50.00 Ry     beta=0.70
     Davidson diagonalization with overlap
     ethr =  4.08E-11,  avg # of iterations =  2.0

     negative rho (up, down):  1.758E+00 0.000E+00

     total cpu time spent up to now is     8534.8 secs

     End of self-consistent calculation

          k = 0.2500 0.4330 0.1111 (136853 PWs)   bands (ev):

   -18.6425  -6.4578  -6.4089  -6.0097  -6.0094  -5.3313  -4.9981  -4.9980
    -4.9589  -4.9579  -4.5979  -4.5978  -4.4992  -4.4992  -4.4851  -4.4628
    -4.4372  -4.3317  -4.3313  -4.3074  -4.2640  -4.2639  -4.1950  -4.1948
    -4.1877  -4.1876  -4.1668  -4.1606  -4.1603  -4.0884  -4.0868  -4.0585
    -4.0584  -4.0463  -4.0461  -4.0230  -4.0230  -4.0005  -3.9920  -3.9919
    -3.9651  -3.9129  -3.9129  -3.8650  -3.8650  -3.8051  -3.8050  -3.7511
    -3.7510  -3.7502  -3.7499  -3.7151  -3.6753  -3.6752  -3.6694  -3.6681
    -3.6680  -3.6372  -3.6365  -3.6283  -3.5665  -3.5663  -3.5569  -3.5409
    -3.5339  -3.4610  -3.4609  -3.4278  -3.4266  -3.3996  -3.3993  -3.3864
    -3.3696  -3.3091  -3.3089  -3.2917  -3.2917  -3.2395  -3.2345  -3.2344
    -3.1964  -3.1651  -3.1641  -3.1564  -3.1563  -3.1426  -3.1424  -3.1348
    -3.1345  -3.1251  -3.0843  -3.0465  -3.0462  -3.0317  -3.0314  -3.0055
    -2.9958  -2.9957  -2.9745  -2.9299  -2.9296  -2.9202  -2.8807  -2.8746
    -2.8631  -2.8630  -2.8337  -2.8330  -2.8044  -2.7664  -2.7663  -2.7440
    -2.7370  -2.7230  -2.7225  -2.6729  -2.6720  -2.6669  -2.6393  -2.6166
    -2.6165  -2.5923  -2.5918  -2.5811  -2.5808  -2.5701  -2.5469  -2.5467
    -2.5027  -2.5025  -2.5011  -2.4841  -2.4838  -2.4791  -2.4695  -2.4673
    -2.4663  -2.4660  -2.4611  -2.4478  -2.4474  -2.4384  -2.4114  -2.4113
    -2.4098  -2.4091  -2.4084  -2.4060  -2.4052  -2.3772  -2.3742  -2.3603
    -2.3601  -2.3426  -2.3424  -2.3323  -2.3322  -2.3308  -2.3301  -2.3108
    -2.3099  -2.3091  -2.3078  -2.2915  -2.2648  -2.2647  -2.2251  -2.2249
    -2.1991  -2.1988  -2.1717  -2.1716  -2.1437  -2.1435  -2.1256  -2.1219
    -2.0949  -2.0728  -2.0724  -2.0670  -2.0668  -2.0625  -2.0556  -2.0547
    -2.0292  -2.0230  -2.0129  -1.9552  -1.9521  -1.9511  -1.9487  -1.9484
    -1.9112  -1.8929  -1.8926  -1.8646  -1.8646  -1.8042  -1.8038  -1.7751
    -1.7567  -1.7565  -1.6953  -1.6952  -1.6837  -1.6829  -1.6724  -1.6718
    -1.6691  -1.6592  -1.6584  -1.6033  -1.6030  -1.5907  -1.5906  -1.5904
    -1.5712  -1.5698  -1.5351  -1.5347  -1.5176  -1.5175  -1.5173  -1.5110
    -1.5058  -1.4963  -1.4951  -1.4770  -1.4769  -1.4358  -1.4347  -1.4229
    -1.4218  -1.4024  -1.3888  -1.3456  -1.3447  -1.3193  -1.3144  -1.3141
    -1.2851  -1.2336  -1.2333  -1.2322  -1.2316  -1.2263  -1.2255  -1.2153
    -1.1971  -1.1965  -1.1571  -1.1562  -1.1258  -1.1257  -1.1209  -1.1207
    -1.1123  -1.0964  -1.0959  -1.0955  -1.0922  -1.0919  -1.0559  -1.0534
    -1.0527  -1.0522  -1.0208  -1.0207  -1.0174  -0.9939  -0.9855  -0.9846
    -0.9386  -0.9317  -0.9304  -0.8961  -0.8882  -0.8767  -0.8766  -0.8691
    -0.8684  -0.8678  -0.8668  -0.8555  -0.8553  -0.8294  -0.8293  -0.8263
    -0.8240  -0.8237  -0.7868  -0.7866  -0.7768  -0.7759  -0.7605  -0.7531
    -0.7521  -0.7408  -0.6848  -0.6834  -0.6745  -0.6737  -0.6734  -0.6724
    -0.6675  -0.6533  -0.6474  -0.6450  -0.6386  -0.6379  -0.6365  -0.6346
    -0.5970  -0.5944  -0.5941  -0.5862  -0.5855  -0.5805  -0.5788  -0.5678
    -0.5629  -0.5593  -0.5591  -0.5168  -0.5167  -0.5083  -0.5049  -0.5045
    -0.4273  -0.4266  -0.4244  -0.4242  -0.4151  -0.4149  -0.3784  -0.3656
    -0.3655  -0.3378  -0.3351  -0.3333  -0.2124  -0.2107  -0.1095   0.3058
     0.3061   0.3090   0.3091   0.3696   0.3706   0.7589   0.7595   0.8020
     0.8023   0.9099   0.9903   1.1000   1.1038   1.3201   1.3266   1.9561
     1.9568   2.1183   2.1193   2.2494   2.2513   2.3546   2.3547   2.5088
     2.7462   2.7513   2.8690   3.0926   3.0973   3.1788   3.1791   3.2789
     3.2939   3.4797   3.4990   3.5504   3.7509   3.7514   3.8133   3.8152
     4.0710   4.0783   4.0798   4.3217   4.3638   4.3644   4.4090   4.7448
     4.7468   4.7748   4.9096   5.0790   5.0821   5.0854   5.1491   5.2885
     5.6759   5.8696   5.8751   5.8791   5.8837   5.9451   5.9454   6.0198
     6.0335   6.0564   6.0804   6.1074   6.1088   6.1229   6.1377   6.1681
     6.1692   6.3456   6.5552   6.6515   6.7137   6.7489   6.8148   6.8193
     6.8263   6.9369   7.0084

          k = 0.2500-0.1443 0.1111 (136898 PWs)   bands (ev):

   -18.6425  -6.6189  -6.4578  -5.8268  -5.5352  -5.4765  -5.4764  -4.9381
    -4.9380  -4.8061  -4.8057  -4.6504  -4.6199  -4.5585  -4.5244  -4.5242
    -4.4914  -4.4914  -4.3629  -4.3211  -4.3211  -4.2610  -4.2397  -4.2396
    -4.1376  -4.1376  -4.1014  -4.1012  -4.1011  -4.0739  -4.0526  -4.0526
    -3.9469  -3.9454  -3.9453  -3.9245  -3.9076  -3.9076  -3.8952  -3.8951
    -3.8815  -3.8518  -3.8517  -3.8516  -3.8516  -3.8184  -3.8183  -3.8011
    -3.8011  -3.7863  -3.7428  -3.7426  -3.7127  -3.6972  -3.6970  -3.6929
    -3.6929  -3.6182  -3.6182  -3.5825  -3.5802  -3.5801  -3.5127  -3.5127
    -3.4971  -3.4971  -3.4659  -3.4657  -3.4649  -3.4647  -3.3114  -3.3113
    -3.2856  -3.2855  -3.2804  -3.2644  -3.2644  -3.2383  -3.2383  -3.1885
    -3.1885  -3.1722  -3.1722  -3.1519  -3.1031  -3.1029  -3.0834  -3.0784
    -3.0784  -3.0375  -3.0374  -3.0311  -3.0310  -3.0142  -3.0141  -2.9747
    -2.9747  -2.9529  -2.9528  -2.9497  -2.9497  -2.9466  -2.8692  -2.8691
    -2.8678  -2.8390  -2.8389  -2.7768  -2.7767  -2.7487  -2.7473  -2.7342
    -2.7341  -2.7289  -2.6991  -2.6991  -2.6897  -2.6722  -2.6677  -2.6460
    -2.6458  -2.6455  -2.6250  -2.6249  -2.6135  -2.6134  -2.6100  -2.6098
    -2.6022  -2.5563  -2.5233  -2.5233  -2.5079  -2.4937  -2.4871  -2.4870
    -2.4797  -2.4796  -2.4782  -2.4482  -2.4481  -2.4479  -2.4381  -2.4381
    -2.4206  -2.3930  -2.3926  -2.3924  -2.3916  -2.3914  -2.3463  -2.3146
    -2.3143  -2.3143  -2.3070  -2.2988  -2.2854  -2.2853  -2.2688  -2.2688
    -2.2352  -2.2335  -2.2334  -2.2146  -2.2130  -2.2129  -2.1801  -2.1799
    -2.1393  -2.1386  -2.1312  -2.1291  -2.1290  -2.1224  -2.1223  -2.1199
    -2.1199  -2.1126  -2.1124  -2.0958  -2.0957  -1.9684  -1.9681  -1.9359
    -1.9297  -1.9294  -1.9246  -1.9245  -1.9063  -1.9063  -1.9032  -1.9031
    -1.9016  -1.8789  -1.8704  -1.8702  -1.8670  -1.8584  -1.8582  -1.8353
    -1.8352  -1.8066  -1.8066  -1.7741  -1.7740  -1.7641  -1.7558  -1.7381
    -1.7380  -1.7351  -1.7166  -1.7044  -1.7043  -1.6968  -1.6967  -1.6699
    -1.6699  -1.6525  -1.6523  -1.6206  -1.6205  -1.6101  -1.5595  -1.5595
    -1.5469  -1.5468  -1.5459  -1.5214  -1.5189  -1.4850  -1.4843  -1.4842
    -1.4507  -1.4403  -1.4402  -1.4247  -1.4246  -1.3979  -1.3963  -1.3962
    -1.3666  -1.3638  -1.3637  -1.3010  -1.3009  -1.2875  -1.2872  -1.2711
    -1.2710  -1.2584  -1.2583  -1.2404  -1.2277  -1.1998  -1.1996  -1.1883
    -1.1607  -1.1499  -1.1498  -1.1382  -1.1382  -1.1358  -1.1303  -1.1302
    -1.1174  -1.0860  -1.0859  -1.0747  -1.0745  -1.0735  -1.0732  -1.0492
    -1.0307  -1.0304  -1.0095  -1.0093  -0.9168  -0.9029  -0.8974  -0.8974
    -0.8939  -0.8882  -0.8880  -0.8678  -0.8623  -0.8470  -0.8468  -0.8324
    -0.8324  -0.8229  -0.8027  -0.8025  -0.8008  -0.7925  -0.7207  -0.7207
    -0.6876  -0.6863  -0.6823  -0.6755  -0.6748  -0.6739  -0.6738  -0.6625
    -0.6605  -0.6542  -0.6359  -0.6196  -0.6047  -0.5848  -0.5844  -0.5733
    -0.5730  -0.5605  -0.5600  -0.5593  -0.5578  -0.5577  -0.5401  -0.5358
    -0.5356  -0.5051  -0.5035  -0.5033  -0.4914  -0.4914  -0.4720  -0.4398
    -0.4398  -0.4305  -0.4305  -0.3623  -0.3623  -0.3244  -0.3244  -0.2663
    -0.2652  -0.2651  -0.2547  -0.2369  -0.0136  -0.0124   0.3342   0.3342
     0.4254   0.4264   0.6190   0.6328   0.6519   0.7829   0.7831   1.2144
     1.2144   1.2329   1.4904   1.5244   1.5245   1.8011   1.8027   1.8809
     1.8811   1.9083   1.9090   2.1375   2.1376   2.2256   2.2256   2.2978
     2.3642   2.3656   2.5295   2.6268   3.0679   3.0688   3.0714   3.0718
     3.1266   3.1268   3.4186   3.4188   3.7004   3.7014   3.8019   4.1144
     4.1577   4.1583   4.3722   4.3786   4.4586   4.4588   4.5496   4.6677
     4.6683   4.7849   4.7851   5.0890   5.1433   5.1588   5.1604   5.3224
     5.3473   5.5466   5.5470   5.5722   5.5730   5.6354   5.6377   5.6724
     5.7376   6.0173   6.1939   6.2343   6.2455   6.3791   6.3795   6.3922
     6.3932   6.5207   6.6209   6.6333   6.6351   6.7523   6.8096   6.8600
     6.8700   6.9843   7.0016

          k =-0.2500-0.4330 0.1111 (136853 PWs)   bands (ev):

   -18.6425  -6.4578  -6.4089  -6.0097  -6.0094  -5.3313  -4.9981  -4.9980
    -4.9589  -4.9579  -4.5979  -4.5978  -4.4992  -4.4992  -4.4851  -4.4628
    -4.4372  -4.3317  -4.3313  -4.3074  -4.2640  -4.2639  -4.1950  -4.1948
    -4.1877  -4.1876  -4.1668  -4.1606  -4.1603  -4.0884  -4.0868  -4.0585
    -4.0584  -4.0463  -4.0461  -4.0230  -4.0230  -4.0005  -3.9920  -3.9919
    -3.9651  -3.9129  -3.9129  -3.8650  -3.8650  -3.8051  -3.8050  -3.7511
    -3.7510  -3.7502  -3.7499  -3.7151  -3.6753  -3.6752  -3.6694  -3.6681
    -3.6680  -3.6372  -3.6365  -3.6283  -3.5665  -3.5663  -3.5569  -3.5409
    -3.5339  -3.4610  -3.4609  -3.4278  -3.4266  -3.3996  -3.3993  -3.3864
    -3.3696  -3.3091  -3.3089  -3.2917  -3.2917  -3.2395  -3.2345  -3.2344
    -3.1964  -3.1651  -3.1641  -3.1564  -3.1563  -3.1426  -3.1424  -3.1348
    -3.1345  -3.1251  -3.0843  -3.0465  -3.0462  -3.0317  -3.0314  -3.0055
    -2.9958  -2.9957  -2.9745  -2.9299  -2.9296  -2.9202  -2.8807  -2.8746
    -2.8631  -2.8630  -2.8337  -2.8330  -2.8044  -2.7664  -2.7663  -2.7440
    -2.7370  -2.7230  -2.7225  -2.6729  -2.6720  -2.6669  -2.6393  -2.6166
    -2.6165  -2.5923  -2.5918  -2.5811  -2.5808  -2.5701  -2.5469  -2.5467
    -2.5027  -2.5025  -2.5011  -2.4841  -2.4838  -2.4791  -2.4695  -2.4673
    -2.4663  -2.4660  -2.4611  -2.4478  -2.4474  -2.4384  -2.4114  -2.4113
    -2.4098  -2.4091  -2.4084  -2.4060  -2.4052  -2.3772  -2.3742  -2.3604
    -2.3601  -2.3426  -2.3425  -2.3323  -2.3322  -2.3308  -2.3301  -2.3108
    -2.3099  -2.3091  -2.3078  -2.2915  -2.2648  -2.2647  -2.2251  -2.2249
    -2.1991  -2.1988  -2.1717  -2.1716  -2.1437  -2.1435  -2.1256  -2.1219
    -2.0949  -2.0728  -2.0724  -2.0670  -2.0668  -2.0625  -2.0556  -2.0547
    -2.0292  -2.0230  -2.0129  -1.9552  -1.9521  -1.9511  -1.9487  -1.9484
    -1.9112  -1.8929  -1.8926  -1.8646  -1.8646  -1.8042  -1.8038  -1.7751
    -1.7567  -1.7565  -1.6953  -1.6952  -1.6837  -1.6829  -1.6724  -1.6718
    -1.6691  -1.6592  -1.6584  -1.6033  -1.6030  -1.5907  -1.5906  -1.5904
    -1.5712  -1.5698  -1.5351  -1.5347  -1.5176  -1.5175  -1.5173  -1.5110
    -1.5058  -1.4963  -1.4951  -1.4771  -1.4769  -1.4358  -1.4347  -1.4229
    -1.4218  -1.4024  -1.3888  -1.3456  -1.3447  -1.3193  -1.3144  -1.3141
    -1.2851  -1.2336  -1.2333  -1.2322  -1.2316  -1.2263  -1.2255  -1.2153
    -1.1971  -1.1965  -1.1571  -1.1562  -1.1258  -1.1257  -1.1209  -1.1207
    -1.1123  -1.0964  -1.0959  -1.0955  -1.0922  -1.0919  -1.0559  -1.0534
    -1.0527  -1.0522  -1.0208  -1.0207  -1.0174  -0.9939  -0.9855  -0.9846
    -0.9386  -0.9317  -0.9304  -0.8961  -0.8882  -0.8767  -0.8766  -0.8691
    -0.8684  -0.8678  -0.8668  -0.8555  -0.8553  -0.8294  -0.8293  -0.8263
    -0.8240  -0.8237  -0.7868  -0.7866  -0.7768  -0.7759  -0.7605  -0.7531
    -0.7521  -0.7408  -0.6848  -0.6834  -0.6745  -0.6737  -0.6734  -0.6724
    -0.6675  -0.6533  -0.6474  -0.6450  -0.6386  -0.6379  -0.6365  -0.6346
    -0.5970  -0.5944  -0.5941  -0.5862  -0.5855  -0.5805  -0.5788  -0.5678
    -0.5629  -0.5593  -0.5591  -0.5168  -0.5167  -0.5083  -0.5049  -0.5045
    -0.4273  -0.4266  -0.4244  -0.4242  -0.4151  -0.4149  -0.3784  -0.3656
    -0.3655  -0.3378  -0.3351  -0.3333  -0.2124  -0.2107  -0.1095   0.3058
     0.3061   0.3090   0.3091   0.3696   0.3706   0.7589   0.7595   0.8020
     0.8023   0.9099   0.9903   1.1000   1.1038   1.3201   1.3266   1.9561
     1.9568   2.1183   2.1193   2.2494   2.2513   2.3546   2.3547   2.5088
     2.7462   2.7513   2.8690   3.0926   3.0973   3.1788   3.1791   3.2789
     3.2939   3.4797   3.4990   3.5504   3.7509   3.7514   3.8133   3.8152
     4.0710   4.0783   4.0798   4.3217   4.3638   4.3644   4.4090   4.7448
     4.7468   4.7748   4.9096   5.0790   5.0821   5.0854   5.1491   5.2885
     5.6755   5.8696   5.8751   5.8791   5.8836   5.9451   5.9454   6.0209
     6.0335   6.0564   6.0804   6.1074   6.1088   6.1227   6.1377   6.1681
     6.1692   6.3474   6.5556   6.6450   6.7111   6.7492   6.8147   6.8193
     6.8262   6.9371   7.0285

          k =-0.2500 0.4330-0.1111 (136853 PWs)   bands (ev):

   -18.6425  -6.4578  -6.4089  -6.0110  -6.0081  -5.3312  -4.9986  -4.9976
    -4.9599  -4.9569  -4.5984  -4.5971  -4.4993  -4.4991  -4.4849  -4.4629
    -4.4372  -4.3322  -4.3311  -4.3074  -4.2641  -4.2639  -4.1950  -4.1948
    -4.1880  -4.1873  -4.1667  -4.1619  -4.1592  -4.0890  -4.0862  -4.0591
    -4.0575  -4.0464  -4.0460  -4.0230  -4.0229  -4.0005  -3.9921  -3.9918
    -3.9652  -3.9132  -3.9127  -3.8660  -3.8640  -3.8051  -3.8050  -3.7511
    -3.7510  -3.7504  -3.7497  -3.7153  -3.6754  -3.6753  -3.6694  -3.6682
    -3.6680  -3.6371  -3.6366  -3.6283  -3.5666  -3.5662  -3.5568  -3.5408
    -3.5336  -3.4615  -3.4607  -3.4274  -3.4268  -3.3998  -3.3989  -3.3863
    -3.3697  -3.3093  -3.3090  -3.2920  -3.2911  -3.2395  -3.2346  -3.2344
    -3.1963  -3.1648  -3.1645  -3.1570  -3.1556  -3.1427  -3.1424  -3.1347
    -3.1344  -3.1252  -3.0842  -3.0472  -3.0457  -3.0317  -3.0312  -3.0056
    -2.9963  -2.9952  -2.9745  -2.9306  -2.9289  -2.9204  -2.8805  -2.8746
    -2.8637  -2.8623  -2.8339  -2.8332  -2.8045  -2.7663  -2.7660  -2.7440
    -2.7371  -2.7231  -2.7226  -2.6731  -2.6717  -2.6670  -2.6392  -2.6168
    -2.6166  -2.5924  -2.5920  -2.5813  -2.5804  -2.5702  -2.5474  -2.5464
    -2.5026  -2.5021  -2.5011  -2.4847  -2.4833  -2.4792  -2.4694  -2.4673
    -2.4665  -2.4658  -2.4610  -2.4483  -2.4467  -2.4384  -2.4116  -2.4109
    -2.4096  -2.4091  -2.4086  -2.4057  -2.4052  -2.3775  -2.3742  -2.3603
    -2.3601  -2.3429  -2.3422  -2.3323  -2.3320  -2.3311  -2.3300  -2.3113
    -2.3097  -2.3088  -2.3079  -2.2914  -2.2653  -2.2646  -2.2260  -2.2241
    -2.1996  -2.1984  -2.1715  -2.1712  -2.1439  -2.1432  -2.1257  -2.1218
    -2.0947  -2.0726  -2.0724  -2.0673  -2.0666  -2.0626  -2.0557  -2.0547
    -2.0291  -2.0225  -2.0129  -1.9553  -1.9521  -1.9515  -1.9490  -1.9484
    -1.9112  -1.8936  -1.8918  -1.8648  -1.8644  -1.8046  -1.8032  -1.7754
    -1.7568  -1.7564  -1.6957  -1.6948  -1.6837  -1.6828  -1.6726  -1.6716
    -1.6692  -1.6595  -1.6583  -1.6032  -1.6030  -1.5911  -1.5908  -1.5903
    -1.5709  -1.5698  -1.5351  -1.5349  -1.5178  -1.5176  -1.5171  -1.5108
    -1.5059  -1.4964  -1.4951  -1.4774  -1.4765  -1.4354  -1.4348  -1.4226
    -1.4219  -1.4023  -1.3888  -1.3460  -1.3444  -1.3195  -1.3144  -1.3142
    -1.2853  -1.2339  -1.2331  -1.2323  -1.2316  -1.2266  -1.2256  -1.2154
    -1.1973  -1.1960  -1.1571  -1.1561  -1.1259  -1.1257  -1.1212  -1.1204
    -1.1123  -1.0964  -1.0961  -1.0952  -1.0920  -1.0917  -1.0556  -1.0538
    -1.0527  -1.0521  -1.0210  -1.0205  -1.0171  -0.9942  -0.9856  -0.9842
    -0.9387  -0.9314  -0.9305  -0.8962  -0.8880  -0.8770  -0.8764  -0.8688
    -0.8684  -0.8676  -0.8671  -0.8555  -0.8554  -0.8297  -0.8290  -0.8264
    -0.8240  -0.8239  -0.7867  -0.7865  -0.7766  -0.7759  -0.7606  -0.7531
    -0.7523  -0.7406  -0.6848  -0.6833  -0.6744  -0.6739  -0.6735  -0.6723
    -0.6675  -0.6531  -0.6473  -0.6452  -0.6386  -0.6378  -0.6364  -0.6346
    -0.5971  -0.5946  -0.5938  -0.5864  -0.5854  -0.5806  -0.5788  -0.5675
    -0.5629  -0.5596  -0.5589  -0.5170  -0.5166  -0.5084  -0.5050  -0.5045
    -0.4272  -0.4267  -0.4244  -0.4242  -0.4151  -0.4148  -0.3783  -0.3657
    -0.3653  -0.3380  -0.3351  -0.3333  -0.2122  -0.2109  -0.1094   0.3058
     0.3062   0.3088   0.3093   0.3693   0.3707   0.7589   0.7596   0.8020
     0.8022   0.9098   0.9904   1.1001   1.1039   1.3207   1.3260   1.9562
     1.9565   2.1188   2.1190   2.2497   2.2511   2.3543   2.3550   2.5086
     2.7465   2.7512   2.8690   3.0929   3.0970   3.1783   3.1796   3.2787
     3.2939   3.4814   3.4974   3.5507   3.7505   3.7518   3.8140   3.8146
     4.0708   4.0783   4.0797   4.3223   4.3635   4.3645   4.4088   4.7444
     4.7470   4.7745   4.9100   5.0806   5.0822   5.0944   5.1442   5.2721
     5.7010   5.8568   5.8698   5.8759   5.8798   5.9449   5.9458   6.0303
     6.0412   6.0566   6.0803   6.1068   6.1095   6.1253   6.1372   6.1683
     6.1692   6.3644   6.5083   6.6594   6.7085   6.7481   6.8155   6.8189
     6.8259   6.9370   7.0268

          k = 0.2500-0.4330-0.1111 (136853 PWs)   bands (ev):

   -18.6425  -6.4578  -6.4089  -6.0110  -6.0081  -5.3312  -4.9986  -4.9976
    -4.9599  -4.9569  -4.5984  -4.5971  -4.4993  -4.4991  -4.4849  -4.4629
    -4.4372  -4.3322  -4.3311  -4.3074  -4.2641  -4.2639  -4.1950  -4.1948
    -4.1880  -4.1873  -4.1667  -4.1619  -4.1592  -4.0890  -4.0862  -4.0591
    -4.0575  -4.0464  -4.0460  -4.0230  -4.0229  -4.0005  -3.9921  -3.9918
    -3.9652  -3.9132  -3.9127  -3.8660  -3.8640  -3.8051  -3.8050  -3.7511
    -3.7510  -3.7504  -3.7497  -3.7153  -3.6754  -3.6753  -3.6694  -3.6682
    -3.6680  -3.6371  -3.6366  -3.6283  -3.5666  -3.5662  -3.5568  -3.5408
    -3.5336  -3.4615  -3.4607  -3.4274  -3.4268  -3.3998  -3.3989  -3.3863
    -3.3697  -3.3093  -3.3090  -3.2920  -3.2911  -3.2395  -3.2346  -3.2344
    -3.1963  -3.1648  -3.1645  -3.1570  -3.1556  -3.1427  -3.1424  -3.1347
    -3.1344  -3.1252  -3.0842  -3.0472  -3.0457  -3.0317  -3.0312  -3.0056
    -2.9963  -2.9952  -2.9745  -2.9306  -2.9289  -2.9204  -2.8805  -2.8746
    -2.8637  -2.8623  -2.8339  -2.8332  -2.8045  -2.7663  -2.7660  -2.7440
    -2.7371  -2.7231  -2.7226  -2.6731  -2.6717  -2.6670  -2.6392  -2.6168
    -2.6166  -2.5924  -2.5920  -2.5813  -2.5804  -2.5702  -2.5474  -2.5464
    -2.5026  -2.5021  -2.5011  -2.4847  -2.4833  -2.4792  -2.4694  -2.4673
    -2.4665  -2.4658  -2.4610  -2.4483  -2.4467  -2.4384  -2.4116  -2.4109
    -2.4096  -2.4091  -2.4086  -2.4057  -2.4052  -2.3775  -2.3742  -2.3603
    -2.3601  -2.3429  -2.3422  -2.3323  -2.3320  -2.3311  -2.3300  -2.3113
    -2.3097  -2.3088  -2.3079  -2.2914  -2.2653  -2.2646  -2.2260  -2.2241
    -2.1996  -2.1984  -2.1715  -2.1712  -2.1439  -2.1432  -2.1257  -2.1218
    -2.0947  -2.0726  -2.0724  -2.0673  -2.0666  -2.0626  -2.0557  -2.0547
    -2.0291  -2.0225  -2.0129  -1.9553  -1.9521  -1.9515  -1.9490  -1.9484
    -1.9112  -1.8936  -1.8918  -1.8648  -1.8644  -1.8046  -1.8032  -1.7754
    -1.7568  -1.7563  -1.6957  -1.6948  -1.6837  -1.6828  -1.6726  -1.6716
    -1.6692  -1.6595  -1.6583  -1.6032  -1.6030  -1.5911  -1.5908  -1.5903
    -1.5709  -1.5698  -1.5351  -1.5349  -1.5178  -1.5176  -1.5171  -1.5108
    -1.5059  -1.4964  -1.4951  -1.4774  -1.4765  -1.4354  -1.4348  -1.4226
    -1.4219  -1.4023  -1.3888  -1.3460  -1.3444  -1.3195  -1.3144  -1.3142
    -1.2853  -1.2339  -1.2331  -1.2323  -1.2316  -1.2266  -1.2256  -1.2154
    -1.1973  -1.1960  -1.1571  -1.1561  -1.1259  -1.1257  -1.1212  -1.1204
    -1.1123  -1.0964  -1.0961  -1.0952  -1.0920  -1.0917  -1.0556  -1.0538
    -1.0527  -1.0521  -1.0210  -1.0205  -1.0171  -0.9942  -0.9856  -0.9842
    -0.9387  -0.9314  -0.9305  -0.8962  -0.8880  -0.8770  -0.8764  -0.8688
    -0.8684  -0.8676  -0.8671  -0.8555  -0.8554  -0.8297  -0.8290  -0.8264
    -0.8240  -0.8239  -0.7867  -0.7865  -0.7766  -0.7759  -0.7606  -0.7531
    -0.7523  -0.7406  -0.6848  -0.6833  -0.6744  -0.6739  -0.6735  -0.6723
    -0.6675  -0.6531  -0.6473  -0.6452  -0.6386  -0.6378  -0.6364  -0.6346
    -0.5971  -0.5946  -0.5938  -0.5864  -0.5854  -0.5806  -0.5788  -0.5675
    -0.5629  -0.5596  -0.5589  -0.5170  -0.5166  -0.5084  -0.5050  -0.5045
    -0.4272  -0.4267  -0.4244  -0.4242  -0.4151  -0.4148  -0.3783  -0.3657
    -0.3653  -0.3380  -0.3351  -0.3333  -0.2122  -0.2109  -0.1094   0.3058
     0.3062   0.3088   0.3093   0.3693   0.3707   0.7589   0.7596   0.8020
     0.8022   0.9098   0.9904   1.1001   1.1039   1.3207   1.3260   1.9562
     1.9565   2.1188   2.1190   2.2497   2.2511   2.3543   2.3550   2.5086
     2.7465   2.7512   2.8690   3.0929   3.0970   3.1783   3.1796   3.2787
     3.2939   3.4814   3.4974   3.5507   3.7505   3.7518   3.8140   3.8146
     4.0708   4.0783   4.0797   4.3223   4.3635   4.3645   4.4088   4.7444
     4.7470   4.7745   4.9100   5.0806   5.0822   5.0944   5.1442   5.2721
     5.7011   5.8566   5.8698   5.8759   5.8798   5.9449   5.9458   6.0302
     6.0416   6.0568   6.0803   6.1068   6.1096   6.1254   6.1370   6.1683
     6.1691   6.3627   6.5107   6.6658   6.7003   6.7480   6.8154   6.8188
     6.8259   6.9370   7.0277

          k = 0.5000 0.0000 0.1111 (136853 PWs)   bands (ev):

   -18.6425  -6.4578  -6.4089  -6.0111  -6.0080  -5.3312  -4.9989  -4.9973
    -4.9600  -4.9568  -4.5984  -4.5971  -4.4993  -4.4991  -4.4849  -4.4628
    -4.4372  -4.3322  -4.3311  -4.3075  -4.2640  -4.2639  -4.1951  -4.1947
    -4.1882  -4.1871  -4.1667  -4.1620  -4.1590  -4.0889  -4.0863  -4.0592
    -4.0574  -4.0464  -4.0460  -4.0230  -4.0229  -4.0005  -3.9921  -3.9918
    -3.9652  -3.9132  -3.9127  -3.8660  -3.8640  -3.8051  -3.8049  -3.7512
    -3.7511  -3.7502  -3.7497  -3.7152  -3.6754  -3.6752  -3.6693  -3.6684
    -3.6678  -3.6372  -3.6365  -3.6283  -3.5665  -3.5663  -3.5567  -3.5408
    -3.5336  -3.4614  -3.4607  -3.4275  -3.4268  -3.3998  -3.3988  -3.3863
    -3.3697  -3.3094  -3.3089  -3.2919  -3.2912  -3.2395  -3.2345  -3.2344
    -3.1962  -3.1650  -3.1643  -3.1569  -3.1557  -3.1426  -3.1424  -3.1348
    -3.1344  -3.1252  -3.0842  -3.0472  -3.0457  -3.0316  -3.0313  -3.0056
    -2.9958  -2.9957  -2.9745  -2.9305  -2.9290  -2.9204  -2.8806  -2.8746
    -2.8636  -2.8623  -2.8338  -2.8332  -2.8045  -2.7664  -2.7659  -2.7440
    -2.7371  -2.7230  -2.7227  -2.6726  -2.6721  -2.6671  -2.6392  -2.6169
    -2.6165  -2.5923  -2.5921  -2.5812  -2.5805  -2.5702  -2.5472  -2.5465
    -2.5027  -2.5019  -2.5011  -2.4847  -2.4832  -2.4792  -2.4694  -2.4673
    -2.4665  -2.4660  -2.4611  -2.4482  -2.4468  -2.4383  -2.4114  -2.4111
    -2.4096  -2.4089  -2.4087  -2.4058  -2.4052  -2.3775  -2.3742  -2.3604
    -2.3601  -2.3428  -2.3423  -2.3323  -2.3321  -2.3310  -2.3300  -2.3111
    -2.3099  -2.3086  -2.3080  -2.2914  -2.2652  -2.2648  -2.2260  -2.2241
    -2.1997  -2.1984  -2.1716  -2.1713  -2.1438  -2.1434  -2.1257  -2.1218
    -2.0947  -2.0727  -2.0722  -2.0673  -2.0667  -2.0626  -2.0554  -2.0549
    -2.0292  -2.0226  -2.0128  -1.9552  -1.9520  -1.9516  -1.9490  -1.9484
    -1.9112  -1.8935  -1.8919  -1.8648  -1.8644  -1.8045  -1.8032  -1.7754
    -1.7568  -1.7563  -1.6956  -1.6949  -1.6835  -1.6830  -1.6723  -1.6719
    -1.6692  -1.6591  -1.6587  -1.6034  -1.6027  -1.5910  -1.5907  -1.5905
    -1.5706  -1.5701  -1.5351  -1.5348  -1.5178  -1.5176  -1.5171  -1.5107
    -1.5059  -1.4962  -1.4953  -1.4772  -1.4766  -1.4353  -1.4350  -1.4223
    -1.4222  -1.4023  -1.3888  -1.3458  -1.3447  -1.3196  -1.3145  -1.3142
    -1.2853  -1.2336  -1.2334  -1.2322  -1.2317  -1.2263  -1.2259  -1.2154
    -1.1971  -1.1962  -1.1569  -1.1563  -1.1258  -1.1257  -1.1211  -1.1205
    -1.1122  -1.0966  -1.0959  -1.0952  -1.0921  -1.0917  -1.0553  -1.0541
    -1.0525  -1.0523  -1.0208  -1.0205  -1.0173  -0.9942  -0.9853  -0.9846
    -0.9387  -0.9312  -0.9308  -0.8962  -0.8881  -0.8770  -0.8764  -0.8688
    -0.8684  -0.8675  -0.8672  -0.8555  -0.8553  -0.8297  -0.8289  -0.8264
    -0.8241  -0.8238  -0.7867  -0.7864  -0.7766  -0.7759  -0.7607  -0.7530
    -0.7524  -0.7406  -0.6847  -0.6834  -0.6741  -0.6738  -0.6733  -0.6725
    -0.6675  -0.6534  -0.6475  -0.6449  -0.6386  -0.6378  -0.6364  -0.6347
    -0.5971  -0.5946  -0.5938  -0.5861  -0.5857  -0.5806  -0.5788  -0.5675
    -0.5630  -0.5594  -0.5591  -0.5169  -0.5166  -0.5084  -0.5048  -0.5046
    -0.4270  -0.4268  -0.4244  -0.4242  -0.4151  -0.4149  -0.3784  -0.3656
    -0.3654  -0.3372  -0.3359  -0.3333  -0.2118  -0.2113  -0.1094   0.3059
     0.3061   0.3087   0.3093   0.3695   0.3705   0.7589   0.7596   0.8016
     0.8026   0.9098   0.9904   1.1011   1.1029   1.3223   1.3244   1.9557
     1.9569   2.1184   2.1194   2.2498   2.2510   2.3539   2.3554   2.5086
     2.7465   2.7510   2.8691   3.0939   3.0961   3.1779   3.1799   3.2788
     3.2940   3.4853   3.4936   3.5506   3.7506   3.7518   3.8138   3.8146
     4.0709   4.0786   4.0794   4.3222   4.3633   4.3647   4.4088   4.7449
     4.7465   4.7746   4.9100   5.0808   5.0823   5.1089   5.1380   5.2546
     5.7228   5.8380   5.8697   5.8767   5.8785   5.9451   5.9457   6.0280
     6.0529   6.0582   6.0807   6.1071   6.1080   6.1292   6.1357   6.1681
     6.1691   6.3843   6.4712   6.6715   6.7047   6.7456   6.8164   6.8182
     6.8259   6.9372   7.0255

          k =-0.5000 0.0000 0.1111 (136853 PWs)   bands (ev):

   -18.6425  -6.4578  -6.4089  -6.0111  -6.0080  -5.3312  -4.9989  -4.9973
    -4.9600  -4.9568  -4.5984  -4.5971  -4.4993  -4.4991  -4.4849  -4.4628
    -4.4372  -4.3322  -4.3311  -4.3075  -4.2640  -4.2639  -4.1951  -4.1947
    -4.1882  -4.1871  -4.1667  -4.1620  -4.1590  -4.0889  -4.0863  -4.0592
    -4.0574  -4.0464  -4.0460  -4.0230  -4.0229  -4.0005  -3.9921  -3.9918
    -3.9652  -3.9132  -3.9127  -3.8660  -3.8640  -3.8051  -3.8049  -3.7512
    -3.7511  -3.7502  -3.7497  -3.7152  -3.6754  -3.6752  -3.6693  -3.6684
    -3.6678  -3.6372  -3.6365  -3.6283  -3.5665  -3.5663  -3.5567  -3.5408
    -3.5336  -3.4614  -3.4607  -3.4275  -3.4268  -3.3998  -3.3988  -3.3863
    -3.3697  -3.3094  -3.3089  -3.2919  -3.2912  -3.2395  -3.2345  -3.2344
    -3.1962  -3.1650  -3.1643  -3.1569  -3.1557  -3.1426  -3.1424  -3.1348
    -3.1344  -3.1252  -3.0842  -3.0472  -3.0457  -3.0316  -3.0313  -3.0056
    -2.9958  -2.9957  -2.9745  -2.9305  -2.9290  -2.9204  -2.8806  -2.8746
    -2.8636  -2.8623  -2.8338  -2.8332  -2.8045  -2.7664  -2.7659  -2.7440
    -2.7371  -2.7230  -2.7227  -2.6726  -2.6721  -2.6671  -2.6392  -2.6169
    -2.6165  -2.5923  -2.5921  -2.5812  -2.5805  -2.5702  -2.5472  -2.5465
    -2.5027  -2.5019  -2.5011  -2.4847  -2.4832  -2.4792  -2.4694  -2.4673
    -2.4665  -2.4660  -2.4611  -2.4482  -2.4468  -2.4383  -2.4114  -2.4111
    -2.4096  -2.4089  -2.4087  -2.4058  -2.4052  -2.3775  -2.3742  -2.3604
    -2.3601  -2.3428  -2.3423  -2.3323  -2.3321  -2.3310  -2.3300  -2.3111
    -2.3099  -2.3086  -2.3080  -2.2914  -2.2652  -2.2648  -2.2260  -2.2241
    -2.1997  -2.1984  -2.1716  -2.1713  -2.1438  -2.1434  -2.1257  -2.1218
    -2.0947  -2.0727  -2.0722  -2.0673  -2.0667  -2.0626  -2.0554  -2.0549
    -2.0292  -2.0226  -2.0128  -1.9552  -1.9520  -1.9516  -1.9490  -1.9484
    -1.9112  -1.8935  -1.8919  -1.8648  -1.8644  -1.8045  -1.8032  -1.7754
    -1.7568  -1.7563  -1.6956  -1.6949  -1.6835  -1.6830  -1.6723  -1.6719
    -1.6692  -1.6591  -1.6587  -1.6034  -1.6027  -1.5910  -1.5907  -1.5905
    -1.5706  -1.5701  -1.5351  -1.5348  -1.5178  -1.5176  -1.5171  -1.5107
    -1.5059  -1.4962  -1.4953  -1.4772  -1.4766  -1.4353  -1.4350  -1.4223
    -1.4222  -1.4023  -1.3888  -1.3458  -1.3447  -1.3196  -1.3145  -1.3142
    -1.2853  -1.2336  -1.2334  -1.2322  -1.2317  -1.2263  -1.2259  -1.2154
    -1.1971  -1.1962  -1.1569  -1.1563  -1.1258  -1.1257  -1.1211  -1.1205
    -1.1122  -1.0966  -1.0959  -1.0952  -1.0921  -1.0917  -1.0553  -1.0541
    -1.0525  -1.0523  -1.0208  -1.0205  -1.0173  -0.9942  -0.9853  -0.9846
    -0.9387  -0.9312  -0.9308  -0.8962  -0.8881  -0.8770  -0.8764  -0.8688
    -0.8684  -0.8675  -0.8672  -0.8555  -0.8553  -0.8297  -0.8289  -0.8264
    -0.8241  -0.8238  -0.7867  -0.7864  -0.7766  -0.7759  -0.7607  -0.7529
    -0.7524  -0.7406  -0.6847  -0.6834  -0.6741  -0.6738  -0.6733  -0.6725
    -0.6675  -0.6534  -0.6475  -0.6449  -0.6386  -0.6378  -0.6364  -0.6347
    -0.5971  -0.5946  -0.5938  -0.5861  -0.5857  -0.5806  -0.5788  -0.5675
    -0.5630  -0.5594  -0.5591  -0.5169  -0.5166  -0.5084  -0.5048  -0.5046
    -0.4270  -0.4268  -0.4244  -0.4242  -0.4151  -0.4149  -0.3784  -0.3656
    -0.3654  -0.3372  -0.3359  -0.3333  -0.2118  -0.2113  -0.1094   0.3059
     0.3061   0.3087   0.3093   0.3695   0.3705   0.7589   0.7596   0.8016
     0.8026   0.9098   0.9904   1.1011   1.1029   1.3223   1.3244   1.9557
     1.9569   2.1184   2.1194   2.2498   2.2510   2.3539   2.3554   2.5086
     2.7465   2.7510   2.8691   3.0939   3.0961   3.1779   3.1799   3.2788
     3.2940   3.4853   3.4936   3.5506   3.7506   3.7518   3.8138   3.8146
     4.0709   4.0786   4.0794   4.3222   4.3633   4.3647   4.4088   4.7449
     4.7465   4.7746   4.9100   5.0808   5.0823   5.1089   5.1380   5.2546
     5.7222   5.8381   5.8697   5.8767   5.8785   5.9451   5.9457   6.0278
     6.0535   6.0593   6.0807   6.1071   6.1081   6.1292   6.1353   6.1681
     6.1691   6.3859   6.4710   6.6693   6.6999   6.7451   6.8164   6.8182
     6.8259   6.9370   7.0292

          k =-0.2500 0.1443 0.1111 (136898 PWs)   bands (ev):

   -18.6425  -6.6189  -6.4578  -5.8268  -5.5352  -5.4765  -5.4764  -4.9381
    -4.9380  -4.8061  -4.8057  -4.6504  -4.6199  -4.5585  -4.5244  -4.5242
    -4.4914  -4.4914  -4.3629  -4.3211  -4.3211  -4.2610  -4.2397  -4.2396
    -4.1376  -4.1376  -4.1014  -4.1012  -4.1011  -4.0739  -4.0526  -4.0526
    -3.9469  -3.9454  -3.9453  -3.9245  -3.9077  -3.9076  -3.8952  -3.8951
    -3.8815  -3.8518  -3.8517  -3.8516  -3.8516  -3.8184  -3.8183  -3.8011
    -3.8011  -3.7863  -3.7428  -3.7426  -3.7127  -3.6972  -3.6970  -3.6929
    -3.6929  -3.6182  -3.6182  -3.5825  -3.5802  -3.5801  -3.5127  -3.5127
    -3.4971  -3.4971  -3.4659  -3.4657  -3.4649  -3.4647  -3.3114  -3.3113
    -3.2856  -3.2855  -3.2804  -3.2644  -3.2644  -3.2383  -3.2383  -3.1885
    -3.1885  -3.1722  -3.1722  -3.1519  -3.1031  -3.1029  -3.0835  -3.0784
    -3.0784  -3.0375  -3.0374  -3.0311  -3.0310  -3.0142  -3.0141  -2.9747
    -2.9747  -2.9529  -2.9528  -2.9497  -2.9497  -2.9466  -2.8692  -2.8691
    -2.8678  -2.8390  -2.8389  -2.7768  -2.7767  -2.7487  -2.7473  -2.7342
    -2.7341  -2.7289  -2.6991  -2.6991  -2.6897  -2.6722  -2.6677  -2.6460
    -2.6458  -2.6455  -2.6250  -2.6249  -2.6135  -2.6134  -2.6100  -2.6098
    -2.6022  -2.5563  -2.5233  -2.5233  -2.5079  -2.4937  -2.4871  -2.4870
    -2.4797  -2.4796  -2.4782  -2.4482  -2.4480  -2.4479  -2.4381  -2.4381
    -2.4206  -2.3930  -2.3926  -2.3924  -2.3917  -2.3914  -2.3463  -2.3146
    -2.3143  -2.3143  -2.3070  -2.2988  -2.2854  -2.2853  -2.2688  -2.2688
    -2.2352  -2.2335  -2.2334  -2.2146  -2.2130  -2.2129  -2.1801  -2.1799
    -2.1392  -2.1386  -2.1312  -2.1291  -2.1290  -2.1224  -2.1223  -2.1199
    -2.1199  -2.1126  -2.1124  -2.0958  -2.0957  -1.9684  -1.9681  -1.9359
    -1.9297  -1.9294  -1.9246  -1.9245  -1.9063  -1.9063  -1.9032  -1.9031
    -1.9016  -1.8789  -1.8704  -1.8702  -1.8670  -1.8584  -1.8582  -1.8353
    -1.8352  -1.8066  -1.8066  -1.7741  -1.7740  -1.7641  -1.7558  -1.7381
    -1.7380  -1.7351  -1.7167  -1.7044  -1.7043  -1.6968  -1.6967  -1.6699
    -1.6699  -1.6525  -1.6523  -1.6206  -1.6205  -1.6101  -1.5595  -1.5595
    -1.5469  -1.5468  -1.5459  -1.5214  -1.5189  -1.4850  -1.4843  -1.4842
    -1.4507  -1.4403  -1.4402  -1.4247  -1.4246  -1.3979  -1.3963  -1.3962
    -1.3666  -1.3638  -1.3637  -1.3010  -1.3009  -1.2875  -1.2872  -1.2711
    -1.2710  -1.2584  -1.2583  -1.2404  -1.2277  -1.1998  -1.1996  -1.1883
    -1.1607  -1.1499  -1.1498  -1.1382  -1.1382  -1.1358  -1.1303  -1.1302
    -1.1174  -1.0860  -1.0859  -1.0747  -1.0745  -1.0735  -1.0732  -1.0492
    -1.0307  -1.0304  -1.0095  -1.0093  -0.9168  -0.9029  -0.8974  -0.8974
    -0.8939  -0.8882  -0.8880  -0.8678  -0.8623  -0.8470  -0.8468  -0.8324
    -0.8324  -0.8229  -0.8027  -0.8025  -0.8008  -0.7926  -0.7207  -0.7207
    -0.6876  -0.6863  -0.6823  -0.6755  -0.6748  -0.6739  -0.6738  -0.6625
    -0.6605  -0.6542  -0.6359  -0.6196  -0.6047  -0.5848  -0.5844  -0.5733
    -0.5731  -0.5605  -0.5600  -0.5593  -0.5578  -0.5577  -0.5401  -0.5358
    -0.5356  -0.5051  -0.5035  -0.5033  -0.4914  -0.4914  -0.4720  -0.4398
    -0.4398  -0.4306  -0.4305  -0.3623  -0.3623  -0.3244  -0.3244  -0.2663
    -0.2652  -0.2651  -0.2547  -0.2369  -0.0136  -0.0124   0.3342   0.3342
     0.4254   0.4264   0.6190   0.6328   0.6519   0.7829   0.7831   1.2144
     1.2144   1.2329   1.4904   1.5244   1.5245   1.8011   1.8027   1.8809
     1.8811   1.9083   1.9090   2.1375   2.1376   2.2256   2.2256   2.2978
     2.3642   2.3656   2.5295   2.6268   3.0679   3.0688   3.0714   3.0718
     3.1266   3.1268   3.4186   3.4188   3.7004   3.7014   3.8019   4.1144
     4.1577   4.1583   4.3722   4.3786   4.4586   4.4588   4.5496   4.6677
     4.6683   4.7849   4.7851   5.0890   5.1433   5.1588   5.1604   5.3224
     5.3473   5.5466   5.5470   5.5722   5.5730   5.6354   5.6377   5.6725
     5.7368   6.0178   6.1946   6.2359   6.2456   6.3791   6.3795   6.3922
     6.3932   6.5155   6.6263   6.6331   6.6347   6.7478   6.8142   6.8600
     6.8706   6.9779   7.0007

          k =-0.2500-0.1443-0.1111 (136898 PWs)   bands (ev):

   -18.6425  -6.6189  -6.4578  -5.8268  -5.5352  -5.4765  -5.4764  -4.9381
    -4.9380  -4.8064  -4.8054  -4.6504  -4.6199  -4.5586  -4.5244  -4.5242
    -4.4915  -4.4913  -4.3629  -4.3212  -4.3210  -4.2609  -4.2398  -4.2397
    -4.1375  -4.1375  -4.1015  -4.1012  -4.1011  -4.0738  -4.0528  -4.0524
    -3.9468  -3.9455  -3.9453  -3.9244  -3.9078  -3.9076  -3.8953  -3.8952
    -3.8815  -3.8518  -3.8517  -3.8516  -3.8514  -3.8185  -3.8183  -3.8011
    -3.8010  -3.7861  -3.7429  -3.7426  -3.7129  -3.6972  -3.6970  -3.6930
    -3.6928  -3.6183  -3.6181  -3.5824  -3.5801  -3.5799  -3.5129  -3.5128
    -3.4971  -3.4970  -3.4657  -3.4655  -3.4652  -3.4651  -3.3114  -3.3114
    -3.2856  -3.2855  -3.2804  -3.2645  -3.2644  -3.2383  -3.2380  -3.1886
    -3.1885  -3.1723  -3.1721  -3.1518  -3.1031  -3.1028  -3.0835  -3.0786
    -3.0785  -3.0375  -3.0374  -3.0312  -3.0311  -3.0144  -3.0141  -2.9745
    -2.9745  -2.9529  -2.9528  -2.9497  -2.9496  -2.9466  -2.8692  -2.8691
    -2.8681  -2.8391  -2.8389  -2.7768  -2.7765  -2.7486  -2.7473  -2.7340
    -2.7339  -2.7289  -2.6993  -2.6988  -2.6897  -2.6721  -2.6677  -2.6461
    -2.6459  -2.6457  -2.6249  -2.6248  -2.6139  -2.6137  -2.6099  -2.6098
    -2.6022  -2.5562  -2.5234  -2.5233  -2.5078  -2.4939  -2.4871  -2.4870
    -2.4798  -2.4796  -2.4783  -2.4482  -2.4481  -2.4477  -2.4382  -2.4379
    -2.4204  -2.3934  -2.3928  -2.3922  -2.3915  -2.3913  -2.3464  -2.3148
    -2.3144  -2.3142  -2.3069  -2.2989  -2.2856  -2.2848  -2.2687  -2.2686
    -2.2351  -2.2334  -2.2333  -2.2146  -2.2130  -2.2129  -2.1801  -2.1799
    -2.1395  -2.1383  -2.1309  -2.1291  -2.1289  -2.1225  -2.1223  -2.1204
    -2.1198  -2.1126  -2.1123  -2.0959  -2.0958  -1.9684  -1.9682  -1.9359
    -1.9296  -1.9294  -1.9244  -1.9244  -1.9071  -1.9066  -1.9032  -1.9030
    -1.9010  -1.8789  -1.8703  -1.8701  -1.8671  -1.8583  -1.8578  -1.8355
    -1.8354  -1.8070  -1.8064  -1.7741  -1.7740  -1.7639  -1.7558  -1.7381
    -1.7379  -1.7348  -1.7166  -1.7045  -1.7045  -1.6970  -1.6968  -1.6698
    -1.6697  -1.6527  -1.6521  -1.6209  -1.6206  -1.6102  -1.5600  -1.5592
    -1.5468  -1.5466  -1.5464  -1.5216  -1.5186  -1.4850  -1.4843  -1.4839
    -1.4508  -1.4402  -1.4401  -1.4246  -1.4244  -1.3978  -1.3964  -1.3962
    -1.3667  -1.3638  -1.3637  -1.3012  -1.3010  -1.2875  -1.2873  -1.2712
    -1.2709  -1.2582  -1.2581  -1.2399  -1.2275  -1.1999  -1.1996  -1.1884
    -1.1605  -1.1499  -1.1497  -1.1384  -1.1383  -1.1362  -1.1305  -1.1303
    -1.1173  -1.0861  -1.0858  -1.0750  -1.0744  -1.0736  -1.0729  -1.0493
    -1.0310  -1.0306  -1.0094  -1.0091  -0.9166  -0.9030  -0.8974  -0.8974
    -0.8936  -0.8884  -0.8881  -0.8675  -0.8624  -0.8471  -0.8468  -0.8325
    -0.8324  -0.8230  -0.8027  -0.8023  -0.8009  -0.7927  -0.7207  -0.7205
    -0.6875  -0.6861  -0.6823  -0.6756  -0.6748  -0.6739  -0.6738  -0.6627
    -0.6603  -0.6541  -0.6359  -0.6195  -0.6048  -0.5848  -0.5845  -0.5734
    -0.5731  -0.5604  -0.5600  -0.5593  -0.5578  -0.5577  -0.5401  -0.5359
    -0.5357  -0.5051  -0.5034  -0.5032  -0.4914  -0.4913  -0.4721  -0.4398
    -0.4397  -0.4305  -0.4304  -0.3625  -0.3622  -0.3247  -0.3241  -0.2663
    -0.2654  -0.2650  -0.2550  -0.2369  -0.0133  -0.0123   0.3342   0.3342
     0.4255   0.4264   0.6190   0.6326   0.6519   0.7829   0.7831   1.2143
     1.2145   1.2331   1.4904   1.5244   1.5246   1.8012   1.8026   1.8809
     1.8810   1.9083   1.9090   2.1373   2.1376   2.2256   2.2256   2.2977
     2.3643   2.3655   2.5293   2.6268   3.0683   3.0686   3.0715   3.0718
     3.1265   3.1270   3.4184   3.4190   3.7003   3.7015   3.8021   4.1144
     4.1574   4.1582   4.3691   4.3806   4.4581   4.4595   4.5497   4.6675
     4.6684   4.7852   4.7856   5.0897   5.1398   5.1587   5.1648   5.3267
     5.3495   5.5461   5.5468   5.5724   5.5729   5.6362   5.6373   5.6752
     5.7259   5.9852   6.2210   6.2411   6.2523   6.3793   6.3796   6.3925
     6.3933   6.5207   6.6217   6.6328   6.6345   6.7322   6.8290   6.8596
     6.8731   6.9727   7.0126

          k = 0.2500 0.1443-0.1111 (136898 PWs)   bands (ev):

   -18.6425  -6.6189  -6.4578  -5.8268  -5.5352  -5.4765  -5.4764  -4.9381
    -4.9380  -4.8064  -4.8054  -4.6504  -4.6199  -4.5586  -4.5244  -4.5242
    -4.4915  -4.4913  -4.3629  -4.3212  -4.3210  -4.2609  -4.2398  -4.2396
    -4.1375  -4.1375  -4.1015  -4.1012  -4.1011  -4.0738  -4.0528  -4.0524
    -3.9468  -3.9455  -3.9453  -3.9244  -3.9078  -3.9076  -3.8953  -3.8952
    -3.8815  -3.8518  -3.8517  -3.8516  -3.8514  -3.8185  -3.8183  -3.8011
    -3.8010  -3.7861  -3.7429  -3.7426  -3.7129  -3.6972  -3.6970  -3.6930
    -3.6928  -3.6183  -3.6181  -3.5824  -3.5801  -3.5799  -3.5129  -3.5128
    -3.4971  -3.4970  -3.4657  -3.4655  -3.4652  -3.4651  -3.3114  -3.3114
    -3.2856  -3.2855  -3.2804  -3.2645  -3.2644  -3.2383  -3.2380  -3.1886
    -3.1885  -3.1723  -3.1721  -3.1518  -3.1031  -3.1028  -3.0835  -3.0786
    -3.0785  -3.0375  -3.0374  -3.0312  -3.0311  -3.0143  -3.0141  -2.9745
    -2.9745  -2.9529  -2.9528  -2.9497  -2.9496  -2.9466  -2.8692  -2.8691
    -2.8681  -2.8391  -2.8389  -2.7768  -2.7765  -2.7486  -2.7473  -2.7340
    -2.7339  -2.7289  -2.6993  -2.6988  -2.6897  -2.6721  -2.6677  -2.6461
    -2.6459  -2.6457  -2.6249  -2.6248  -2.6139  -2.6137  -2.6099  -2.6098
    -2.6022  -2.5562  -2.5234  -2.5233  -2.5078  -2.4939  -2.4871  -2.4870
    -2.4798  -2.4796  -2.4783  -2.4482  -2.4481  -2.4477  -2.4382  -2.4379
    -2.4204  -2.3934  -2.3928  -2.3922  -2.3915  -2.3913  -2.3464  -2.3148
    -2.3144  -2.3142  -2.3069  -2.2988  -2.2856  -2.2848  -2.2687  -2.2687
    -2.2351  -2.2334  -2.2333  -2.2146  -2.2130  -2.2129  -2.1801  -2.1799
    -2.1395  -2.1383  -2.1309  -2.1291  -2.1289  -2.1225  -2.1223  -2.1204
    -2.1198  -2.1126  -2.1123  -2.0959  -2.0958  -1.9684  -1.9682  -1.9359
    -1.9296  -1.9294  -1.9244  -1.9244  -1.9071  -1.9066  -1.9032  -1.9030
    -1.9010  -1.8789  -1.8703  -1.8701  -1.8671  -1.8583  -1.8578  -1.8355
    -1.8354  -1.8070  -1.8064  -1.7741  -1.7740  -1.7639  -1.7558  -1.7381
    -1.7379  -1.7349  -1.7166  -1.7045  -1.7045  -1.6970  -1.6968  -1.6698
    -1.6697  -1.6527  -1.6521  -1.6209  -1.6206  -1.6102  -1.5600  -1.5592
    -1.5468  -1.5466  -1.5464  -1.5216  -1.5186  -1.4850  -1.4843  -1.4839
    -1.4508  -1.4402  -1.4401  -1.4246  -1.4244  -1.3978  -1.3964  -1.3962
    -1.3667  -1.3638  -1.3637  -1.3012  -1.3010  -1.2875  -1.2872  -1.2712
    -1.2709  -1.2582  -1.2581  -1.2399  -1.2275  -1.1999  -1.1996  -1.1884
    -1.1605  -1.1499  -1.1497  -1.1384  -1.1383  -1.1362  -1.1305  -1.1303
    -1.1173  -1.0861  -1.0858  -1.0750  -1.0744  -1.0736  -1.0729  -1.0493
    -1.0310  -1.0306  -1.0094  -1.0091  -0.9166  -0.9030  -0.8974  -0.8974
    -0.8936  -0.8884  -0.8881  -0.8675  -0.8623  -0.8471  -0.8468  -0.8325
    -0.8324  -0.8230  -0.8027  -0.8023  -0.8009  -0.7926  -0.7207  -0.7205
    -0.6875  -0.6861  -0.6823  -0.6756  -0.6748  -0.6739  -0.6738  -0.6627
    -0.6603  -0.6541  -0.6359  -0.6195  -0.6048  -0.5848  -0.5845  -0.5734
    -0.5731  -0.5604  -0.5600  -0.5593  -0.5578  -0.5577  -0.5401  -0.5359
    -0.5357  -0.5050  -0.5034  -0.5033  -0.4914  -0.4913  -0.4721  -0.4398
    -0.4397  -0.4305  -0.4304  -0.3625  -0.3622  -0.3247  -0.3241  -0.2663
    -0.2654  -0.2650  -0.2550  -0.2369  -0.0133  -0.0123   0.3342   0.3342
     0.4255   0.4264   0.6190   0.6326   0.6519   0.7829   0.7831   1.2143
     1.2145   1.2331   1.4904   1.5244   1.5246   1.8012   1.8026   1.8809
     1.8810   1.9083   1.9090   2.1373   2.1376   2.2256   2.2256   2.2977
     2.3643   2.3655   2.5293   2.6268   3.0683   3.0686   3.0715   3.0718
     3.1265   3.1270   3.4184   3.4190   3.7003   3.7015   3.8021   4.1144
     4.1574   4.1582   4.3691   4.3806   4.4581   4.4595   4.5497   4.6675
     4.6684   4.7852   4.7856   5.0897   5.1398   5.1587   5.1648   5.3267
     5.3496   5.5461   5.5468   5.5724   5.5729   5.6362   5.6373   5.6754
     5.7247   5.9875   6.2222   6.2410   6.2524   6.3793   6.3796   6.3924
     6.3933   6.5215   6.6033   6.6331   6.6344   6.7441   6.8294   6.8595
     6.8740   6.9727   7.0164

          k = 0.0000-0.2887 0.1111 (136898 PWs)   bands (ev):

   -18.6425  -6.6189  -6.4578  -5.8268  -5.5352  -5.4765  -5.4764  -4.9381
    -4.9380  -4.8065  -4.8054  -4.6504  -4.6199  -4.5586  -4.5245  -4.5241
    -4.4914  -4.4913  -4.3629  -4.3211  -4.3211  -4.2609  -4.2398  -4.2396
    -4.1375  -4.1375  -4.1014  -4.1012  -4.1011  -4.0739  -4.0527  -4.0525
    -3.9468  -3.9455  -3.9453  -3.9244  -3.9078  -3.9076  -3.8953  -3.8951
    -3.8815  -3.8519  -3.8517  -3.8515  -3.8513  -3.8185  -3.8183  -3.8010
    -3.8010  -3.7861  -3.7429  -3.7426  -3.7128  -3.6973  -3.6969  -3.6929
    -3.6928  -3.6183  -3.6181  -3.5824  -3.5802  -3.5799  -3.5129  -3.5128
    -3.4971  -3.4969  -3.4659  -3.4655  -3.4652  -3.4649  -3.3115  -3.3113
    -3.2856  -3.2854  -3.2804  -3.2645  -3.2644  -3.2384  -3.2380  -3.1886
    -3.1885  -3.1723  -3.1721  -3.1518  -3.1032  -3.1027  -3.0835  -3.0786
    -3.0784  -3.0376  -3.0374  -3.0312  -3.0310  -3.0144  -3.0141  -2.9746
    -2.9745  -2.9530  -2.9527  -2.9497  -2.9496  -2.9466  -2.8693  -2.8691
    -2.8681  -2.8391  -2.8389  -2.7770  -2.7765  -2.7486  -2.7473  -2.7341
    -2.7339  -2.7289  -2.6991  -2.6990  -2.6897  -2.6719  -2.6678  -2.6461
    -2.6459  -2.6457  -2.6249  -2.6248  -2.6139  -2.6136  -2.6100  -2.6097
    -2.6022  -2.5562  -2.5234  -2.5233  -2.5078  -2.4938  -2.4871  -2.4870
    -2.4799  -2.4796  -2.4783  -2.4482  -2.4480  -2.4477  -2.4383  -2.4378
    -2.4204  -2.3933  -2.3929  -2.3924  -2.3915  -2.3912  -2.3465  -2.3148
    -2.3144  -2.3142  -2.3070  -2.2989  -2.2855  -2.2851  -2.2687  -2.2686
    -2.2351  -2.2335  -2.2333  -2.2146  -2.2130  -2.2129  -2.1801  -2.1798
    -2.1392  -2.1386  -2.1309  -2.1291  -2.1289  -2.1224  -2.1223  -2.1202
    -2.1199  -2.1127  -2.1121  -2.0960  -2.0957  -1.9685  -1.9680  -1.9359
    -1.9297  -1.9293  -1.9245  -1.9244  -1.9070  -1.9066  -1.9032  -1.9029
    -1.9011  -1.8789  -1.8705  -1.8700  -1.8671  -1.8584  -1.8578  -1.8355
    -1.8354  -1.8070  -1.8064  -1.7742  -1.7739  -1.7639  -1.7558  -1.7381
    -1.7379  -1.7349  -1.7166  -1.7045  -1.7044  -1.6969  -1.6968  -1.6698
    -1.6697  -1.6527  -1.6521  -1.6209  -1.6205  -1.6102  -1.5598  -1.5593
    -1.5469  -1.5465  -1.5463  -1.5216  -1.5186  -1.4850  -1.4843  -1.4839
    -1.4508  -1.4404  -1.4400  -1.4247  -1.4244  -1.3978  -1.3964  -1.3962
    -1.3667  -1.3638  -1.3636  -1.3012  -1.3010  -1.2876  -1.2871  -1.2714
    -1.2707  -1.2582  -1.2581  -1.2400  -1.2275  -1.1999  -1.1995  -1.1884
    -1.1605  -1.1500  -1.1496  -1.1384  -1.1383  -1.1361  -1.1306  -1.1302
    -1.1173  -1.0861  -1.0857  -1.0752  -1.0745  -1.0733  -1.0730  -1.0492
    -1.0312  -1.0304  -1.0096  -1.0090  -0.9167  -0.9030  -0.8974  -0.8974
    -0.8936  -0.8884  -0.8881  -0.8675  -0.8623  -0.8472  -0.8466  -0.8324
    -0.8323  -0.8230  -0.8028  -0.8023  -0.8008  -0.7927  -0.7207  -0.7206
    -0.6874  -0.6862  -0.6823  -0.6755  -0.6749  -0.6739  -0.6738  -0.6634
    -0.6602  -0.6538  -0.6359  -0.6195  -0.6048  -0.5848  -0.5844  -0.5734
    -0.5730  -0.5604  -0.5600  -0.5593  -0.5579  -0.5576  -0.5401  -0.5359
    -0.5356  -0.5050  -0.5035  -0.5031  -0.4915  -0.4913  -0.4721  -0.4398
    -0.4397  -0.4305  -0.4304  -0.3624  -0.3623  -0.3247  -0.3242  -0.2664
    -0.2653  -0.2651  -0.2550  -0.2369  -0.0137  -0.0119   0.3342   0.3342
     0.4250   0.4268   0.6194   0.6322   0.6519   0.7827   0.7832   1.2144
     1.2144   1.2331   1.4904   1.5245   1.5245   1.8005   1.8035   1.8809
     1.8811   1.9078   1.9094   2.1373   2.1376   2.2255   2.2257   2.2976
     2.3638   2.3662   2.5293   2.6267   3.0684   3.0687   3.0712   3.0720
     3.1265   3.1269   3.4187   3.4187   3.6996   3.7022   3.8023   4.1144
     4.1571   4.1585   4.3638   4.3851   4.4585   4.4591   4.5496   4.6675
     4.6683   4.7851   4.7857   5.0897   5.1415   5.1591   5.1652   5.3333
     5.3475   5.5458   5.5470   5.5727   5.5729   5.6359   5.6372   5.6779
     5.7154   5.9724   6.2166   6.2433   6.2790   6.3792   6.3797   6.3920
     6.3938   6.5291   6.5994   6.6327   6.6350   6.7199   6.8529   6.8572
     6.8722   6.9579   7.0348

          k = 0.0000 0.2887 0.1111 (136898 PWs)   bands (ev):

   -18.6425  -6.6189  -6.4578  -5.8268  -5.5352  -5.4765  -5.4764  -4.9380
    -4.9380  -4.8065  -4.8054  -4.6504  -4.6199  -4.5586  -4.5245  -4.5241
    -4.4914  -4.4913  -4.3629  -4.3211  -4.3211  -4.2609  -4.2398  -4.2396
    -4.1375  -4.1375  -4.1014  -4.1012  -4.1011  -4.0739  -4.0526  -4.0525
    -3.9468  -3.9455  -3.9453  -3.9244  -3.9078  -3.9076  -3.8953  -3.8951
    -3.8815  -3.8519  -3.8517  -3.8515  -3.8513  -3.8185  -3.8183  -3.8011
    -3.8010  -3.7861  -3.7429  -3.7426  -3.7128  -3.6973  -3.6969  -3.6929
    -3.6928  -3.6183  -3.6181  -3.5824  -3.5802  -3.5799  -3.5129  -3.5128
    -3.4971  -3.4969  -3.4659  -3.4655  -3.4652  -3.4649  -3.3115  -3.3113
    -3.2856  -3.2854  -3.2804  -3.2645  -3.2644  -3.2384  -3.2380  -3.1886
    -3.1885  -3.1723  -3.1721  -3.1518  -3.1032  -3.1027  -3.0835  -3.0786
    -3.0784  -3.0376  -3.0374  -3.0312  -3.0310  -3.0144  -3.0141  -2.9746
    -2.9745  -2.9530  -2.9527  -2.9497  -2.9496  -2.9466  -2.8693  -2.8691
    -2.8680  -2.8391  -2.8389  -2.7770  -2.7765  -2.7486  -2.7473  -2.7341
    -2.7339  -2.7289  -2.6991  -2.6990  -2.6897  -2.6720  -2.6678  -2.6460
    -2.6459  -2.6457  -2.6249  -2.6248  -2.6139  -2.6136  -2.6100  -2.6097
    -2.6022  -2.5562  -2.5234  -2.5233  -2.5078  -2.4938  -2.4871  -2.4870
    -2.4799  -2.4796  -2.4783  -2.4482  -2.4480  -2.4477  -2.4383  -2.4378
    -2.4204  -2.3933  -2.3929  -2.3924  -2.3915  -2.3912  -2.3465  -2.3148
    -2.3144  -2.3142  -2.3070  -2.2989  -2.2855  -2.2851  -2.2687  -2.2686
    -2.2351  -2.2335  -2.2333  -2.2146  -2.2130  -2.2129  -2.1801  -2.1798
    -2.1392  -2.1386  -2.1309  -2.1291  -2.1289  -2.1224  -2.1223  -2.1202
    -2.1199  -2.1127  -2.1121  -2.0960  -2.0957  -1.9685  -1.9680  -1.9359
    -1.9297  -1.9293  -1.9245  -1.9244  -1.9070  -1.9066  -1.9032  -1.9029
    -1.9011  -1.8789  -1.8705  -1.8700  -1.8671  -1.8584  -1.8578  -1.8355
    -1.8354  -1.8070  -1.8064  -1.7742  -1.7739  -1.7639  -1.7558  -1.7381
    -1.7379  -1.7349  -1.7166  -1.7045  -1.7044  -1.6969  -1.6968  -1.6698
    -1.6697  -1.6527  -1.6521  -1.6209  -1.6205  -1.6102  -1.5598  -1.5593
    -1.5469  -1.5465  -1.5463  -1.5216  -1.5186  -1.4850  -1.4843  -1.4839
    -1.4508  -1.4404  -1.4400  -1.4246  -1.4244  -1.3978  -1.3964  -1.3962
    -1.3667  -1.3638  -1.3636  -1.3012  -1.3010  -1.2876  -1.2871  -1.2714
    -1.2707  -1.2582  -1.2581  -1.2400  -1.2275  -1.1999  -1.1995  -1.1884
    -1.1605  -1.1500  -1.1496  -1.1384  -1.1383  -1.1361  -1.1306  -1.1302
    -1.1173  -1.0861  -1.0857  -1.0752  -1.0745  -1.0733  -1.0730  -1.0493
    -1.0312  -1.0304  -1.0096  -1.0090  -0.9167  -0.9030  -0.8974  -0.8974
    -0.8936  -0.8884  -0.8881  -0.8675  -0.8623  -0.8472  -0.8466  -0.8324
    -0.8323  -0.8230  -0.8028  -0.8023  -0.8008  -0.7927  -0.7207  -0.7206
    -0.6874  -0.6862  -0.6823  -0.6755  -0.6749  -0.6739  -0.6738  -0.6634
    -0.6602  -0.6538  -0.6359  -0.6195  -0.6048  -0.5848  -0.5844  -0.5734
    -0.5730  -0.5604  -0.5600  -0.5593  -0.5579  -0.5576  -0.5401  -0.5359
    -0.5356  -0.5050  -0.5035  -0.5031  -0.4915  -0.4913  -0.4721  -0.4398
    -0.4397  -0.4305  -0.4304  -0.3624  -0.3623  -0.3247  -0.3242  -0.2664
    -0.2653  -0.2651  -0.2550  -0.2369  -0.0137  -0.0119   0.3342   0.3342
     0.4250   0.4268   0.6194   0.6322   0.6519   0.7827   0.7832   1.2144
     1.2144   1.2331   1.4904   1.5245   1.5245   1.8004   1.8035   1.8809
     1.8811   1.9078   1.9094   2.1373   2.1376   2.2255   2.2257   2.2976
     2.3638   2.3662   2.5293   2.6267   3.0684   3.0687   3.0712   3.0720
     3.1265   3.1269   3.4187   3.4187   3.6996   3.7022   3.8023   4.1144
     4.1571   4.1585   4.3638   4.3851   4.4585   4.4591   4.5496   4.6675
     4.6683   4.7851   4.7857   5.0897   5.1414   5.1591   5.1652   5.3332
     5.3475   5.5458   5.5470   5.5727   5.5729   5.6359   5.6372   5.6779
     5.7159   5.9716   6.2151   6.2433   6.2798   6.3792   6.3797   6.3920
     6.3938   6.5251   6.6113   6.6325   6.6350   6.7097   6.8539   6.8573
     6.8727   6.9627   7.0355

     the Fermi energy is     1.3568 ev

!    total energy              =   -6604.43020264 Ry
     Harris-Foulkes estimate   =   -6604.43020263 Ry
     estimated scf accuracy    <          7.5E-09 Ry

     The total energy is the sum of the following terms:

     one-electron contribution =  -48261.70662539 Ry
     hartree contribution      =   24630.07538868 Ry
     xc contribution           =   -3204.94970953 Ry
     ewald contribution        =   20232.14784658 Ry
     smearing contrib. (-TS)   =       0.00289701 Ry

     convergence has been achieved in  22 iterations

     Writing output data file 9159710.save

     init_run     :    134.24s CPU    141.34s WALL (       1 calls)
     electrons    :   8034.05s CPU   8392.48s WALL (       1 calls)

     Called by init_run:
     wfcinit      :    104.11s CPU    110.49s WALL (       1 calls)
     potinit      :     11.22s CPU     11.65s WALL (       1 calls)

     Called by electrons:
     c_bands      :   6870.13s CPU   7154.91s WALL (      23 calls)
     sum_band     :    877.13s CPU    940.25s WALL (      23 calls)
     v_of_rho     :     65.65s CPU     73.32s WALL (      23 calls)
     newd         :    230.52s CPU    233.02s WALL (      23 calls)
     mix_rho      :      1.94s CPU      2.18s WALL (      23 calls)
     vdW_energy   :      5.12s CPU      5.53s WALL (      23 calls)
     vdW_ffts     :     31.34s CPU     35.24s WALL (      46 calls)
     vdW_v        :      9.21s CPU      9.81s WALL (      23 calls)

     Called by c_bands:
     init_us_2    :     11.26s CPU     11.58s WALL (     564 calls)
     cegterg      :   6739.45s CPU   7023.00s WALL (     276 calls)

     Called by *egterg:
     h_psi        :   2700.60s CPU   2951.17s WALL (    1737 calls)
     s_psi        :    378.24s CPU    380.31s WALL (    1737 calls)
     g_psi        :      5.29s CPU      5.38s WALL (    1449 calls)
     cdiaghg      :   2178.28s CPU   2184.38s WALL (    1713 calls)

     Called by h_psi:
     add_vuspsi   :    378.46s CPU    380.59s WALL (    1737 calls)

     General routines
     calbec       :    649.73s CPU    651.87s WALL (    2013 calls)
     fft          :    105.03s CPU    112.35s WALL (    1518 calls)
     ffts         :      0.88s CPU      1.07s WALL (      46 calls)
     fftw         :   2129.03s CPU   2410.61s WALL (  666476 calls)
     interpolate  :      2.39s CPU      2.90s WALL (      46 calls)
     davcio       :      0.02s CPU      0.17s WALL (      12 calls)

     Parallel routines
     fft_scatter  :   1571.68s CPU   1790.50s WALL (  668040 calls)

     PWSCF        :     2h16m CPU        2h22m WALL


   This run was terminated on:   0:40:31   2Jul2015            

=------------------------------------------------------------------------------=
   JOB DONE.
=------------------------------------------------------------------------------=
