
     Program PWSCF v.5.1.2 starts on 24Aug2015 at 11:12: 1 

     This program is part of the open-source Quantum ESPRESSO suite
     for quantum simulation of materials; please cite
         "P. Giannozzi et al., J. Phys.:Condens. Matter 21 395502 (2009);
          URL http://www.quantum-espresso.org", 
     in publications or presentations arising from this work. More details at
     http://www.quantum-espresso.org/quote

     Parallel version (MPI), running on    32 processors
     R & G space division:  proc/nbgrp/npool/nimage =      32
     Reading input from bridge.O1.Au5455.d.2.7.phi.0.psi.90.in
Warning: card &IONS ignored
Warning: card / ignored
Warning: card &CELL ignored
Warning: card / ignored

     Current dimensions of program PWSCF are:
     Max number of different atomic species (ntypx) = 10
     Max number of k-points (npk) =  40000
     Max angular momentum in pseudopotentials (lmaxx) =  3

     IMPORTANT: XC functional enforced from input :
     Exchange-correlation      = VDW-DF ( 1  4  4  0 1 0)
     Any further DFT definition will be discarded
     Please, verify this is what you really want


     Subspace diagonalization in iterative solution of the eigenvalue problem:
     a serial algorithm will be used


     Parallelization info
     --------------------
     sticks:   dense  smooth     PW     G-vecs:    dense   smooth      PW
     Min         445     223     58                96775    34191    4534
     Max         446     224     59                96790    34246    4540
     Sum       14269    7147   1867              3097177  1095093  145167


     Title: 
     bridge.O1.Au5455.d.2.7.phi.0.psi.90                                        


     bravais-lattice index     =            4
     lattice parameter (alat)  =      22.7436  a.u.
     unit-cell volume          =   22924.1508 (a.u.)^3
     number of atoms/cell      =           67
     number of atomic types    =            3
     number of electrons       =       712.00
     number of Kohn-Sham states=          427
     kinetic-energy cutoff     =      50.0000  Ry
     charge density cutoff     =     400.0000  Ry
     convergence threshold     =      1.0E-08
     mixing beta               =       0.7000
     number of iterations used =            8  plain     mixing
     Exchange-correlation      = VDW-DF ( 1  4  4  0 1 0)

     celldm(1)=  22.743643  celldm(2)=   0.000000  celldm(3)=   2.250000
     celldm(4)=   0.000000  celldm(5)=   0.000000  celldm(6)=   0.000000

     crystal axes: (cart. coord. in units of alat)
               a(1) = (   1.000000   0.000000   0.000000 )  
               a(2) = (  -0.500000   0.866025   0.000000 )  
               a(3) = (   0.000000   0.000000   2.250000 )  

     reciprocal axes: (cart. coord. in units 2 pi/alat)
               b(1) = (  1.000000  0.577350 -0.000000 )  
               b(2) = (  0.000000  1.154701  0.000000 )  
               b(3) = (  0.000000 -0.000000  0.444444 )  


     PseudoPot. # 1 for Au read from file:
     /home/scc/andrejb/qe/pseudo/Au.pbe-nd-van.UPF
     MD5 check sum: 458681b50f36d87ef23c61b04bba420a
     Pseudo is Ultrasoft + core correction, Zval = 11.0
     Generated by new atomic code, or converted to UPF format
     Using radial grid of  985 points,  3 beta functions with: 
                l(1) =   1
                l(2) =   2
                l(3) =   2
     Q(r) pseudized with  8 coefficients,  rinner =    1.100   1.100   1.100
                                                       1.100   1.100

     PseudoPot. # 2 for H  read from file:
     /home/scc/andrejb/qe/pseudo/H.pbe-van_ak.UPF
     MD5 check sum: 403db7282739603aa925980fa9b8608d
     Pseudo is Ultrasoft, Zval =  1.0
     Generated by new atomic code, or converted to UPF format
     Using radial grid of  615 points,  1 beta functions with: 
                l(1) =   0
     Q(r) pseudized with  8 coefficients,  rinner =    0.800

     PseudoPot. # 3 for O  read from file:
     /home/scc/andrejb/qe/pseudo/O.pbe-van_ak.UPF
     MD5 check sum: 4b8c549914a63cae506c6ff22b5af4fe
     Pseudo is Ultrasoft, Zval =  6.0
     Generated by new atomic code, or converted to UPF format
     Using radial grid of  737 points,  4 beta functions with: 
                l(1) =   0
                l(2) =   0
                l(3) =   1
                l(4) =   1
     Q(r) pseudized with  8 coefficients,  rinner =    0.800   0.800   0.800


     vdW kernel table read from file vdW_kernel_table
     MD5 check sum: 48e77a2e26edf626eeb0eaa751ad5cac

     atomic species   valence    mass     pseudopotential
        Au            11.00   196.96657     Au( 1.00)
        H              1.00     1.01000     H ( 1.00)
        O              6.00    16.00000     O ( 1.00)

     No symmetry found



   Cartesian axes

     site n.     atom                  positions (alat units)
         1           O   tau(   1) = (   0.2915728   0.2885783   0.8373559  )
         2           H   tau(   2) = (   0.2416394   0.2403247   0.7958083  )
         3           H   tau(   3) = (   0.3399922   0.2378175   0.8776628  )
         4           Au  tau(   4) = (   0.3540481   0.6132292   0.0000000  )
         5           Au  tau(   5) = (   0.4790062   0.3967954   0.0000000  )
         6           Au  tau(   6) = (   0.6039644   0.1803616   0.0000000  )
         7           Au  tau(   7) = (   0.7289225  -0.0360723   0.0000000  )
         8           Au  tau(   8) = (   0.1041318   0.6132292   0.0000000  )
         9           Au  tau(   9) = (   0.2290899   0.3967954   0.0000000  )
        10           Au  tau(  10) = (   0.3540481   0.1803616   0.0000000  )
        11           Au  tau(  11) = (   0.4790062  -0.0360723   0.0000000  )
        12           Au  tau(  12) = (  -0.1457845   0.6132292   0.0000000  )
        13           Au  tau(  13) = (  -0.0208264   0.3967954   0.0000000  )
        14           Au  tau(  14) = (   0.1041318   0.1803616   0.0000000  )
        15           Au  tau(  15) = (   0.2290899  -0.0360723   0.0000000  )
        16           Au  tau(  16) = (  -0.3957008   0.6132292   0.0000000  )
        17           Au  tau(  17) = (  -0.2707426   0.3967954   0.0000000  )
        18           Au  tau(  18) = (  -0.1457845   0.1803616   0.0000000  )
        19           Au  tau(  19) = (  -0.0208264  -0.0360723   0.0000000  )
        20           Au  tau(  20) = (   0.4790062   0.6853738   0.2040557  )
        21           Au  tau(  21) = (   0.6039644   0.4689400   0.2040557  )
        22           Au  tau(  22) = (   0.7289225   0.2525061   0.2040557  )
        23           Au  tau(  23) = (   0.8538806   0.0360723   0.2040557  )
        24           Au  tau(  24) = (   0.2290899   0.6853738   0.2040557  )
        25           Au  tau(  25) = (   0.3540481   0.4689400   0.2040557  )
        26           Au  tau(  26) = (   0.4790062   0.2525061   0.2040557  )
        27           Au  tau(  27) = (   0.6039644   0.0360723   0.2040557  )
        28           Au  tau(  28) = (  -0.0208264   0.6853738   0.2040557  )
        29           Au  tau(  29) = (   0.1041318   0.4689400   0.2040557  )
        30           Au  tau(  30) = (   0.2290899   0.2525061   0.2040557  )
        31           Au  tau(  31) = (   0.3540481   0.0360723   0.2040557  )
        32           Au  tau(  32) = (  -0.2707426   0.6853738   0.2040557  )
        33           Au  tau(  33) = (  -0.1457845   0.4689400   0.2040557  )
        34           Au  tau(  34) = (  -0.0208264   0.2525061   0.2040557  )
        35           Au  tau(  35) = (   0.1041318   0.0360723   0.2040557  )
        36           Au  tau(  36) = (   0.3541162   0.7576593   0.4066483  )
        37           Au  tau(  37) = (   0.4791000   0.5411421   0.4066695  )
        38           Au  tau(  38) = (   0.6040570   0.3246862   0.4066617  )
        39           Au  tau(  39) = (   0.7290270   0.1081684   0.4066529  )
        40           Au  tau(  40) = (   0.1041162   0.7576236   0.4066247  )
        41           Au  tau(  41) = (   0.2291001   0.5411063   0.4066455  )
        42           Au  tau(  42) = (   0.3540567   0.3246505   0.4066380  )
        43           Au  tau(  43) = (   0.4790276   0.1081324   0.4066292  )
        44           Au  tau(  44) = (  -0.1458201   0.7576104   0.4066224  )
        45           Au  tau(  45) = (  -0.0208365   0.5410930   0.4066438  )
        46           Au  tau(  46) = (   0.1041202   0.3246372   0.4066359  )
        47           Au  tau(  47) = (   0.2290908   0.1081193   0.4066273  )
        48           Au  tau(  48) = (  -0.3958167   0.7575791   0.4065812  )
        49           Au  tau(  49) = (  -0.2708328   0.5410617   0.4066025  )
        50           Au  tau(  50) = (  -0.1458763   0.3246061   0.4065947  )
        51           Au  tau(  51) = (  -0.0209056   0.1080882   0.4065858  )
        52           Au  tau(  52) = (   0.3541085   0.6133344   0.6129762  )
        53           Au  tau(  53) = (   0.4790780   0.3968269   0.6129968  )
        54           Au  tau(  54) = (   0.6040356   0.1803811   0.6129859  )
        55           Au  tau(  55) = (   0.7290165  -0.0361221   0.6129385  )
        56           Au  tau(  56) = (   0.1041243   0.6133091   0.6130022  )
        57           Au  tau(  57) = (   0.2290941   0.3968013   0.6130241  )
        58           Au  tau(  58) = (   0.3540515   0.1803552   0.6130121  )
        59           Au  tau(  59) = (   0.4790323  -0.0361475   0.6129659  )
        60           Au  tau(  60) = (  -0.1458030   0.6133014   0.6129980  )
        61           Au  tau(  61) = (  -0.0208339   0.3967936   0.6130188  )
        62           Au  tau(  62) = (   0.1041239   0.1803477   0.6130083  )
        63           Au  tau(  63) = (   0.2291046  -0.0361554   0.6129607  )
        64           Au  tau(  64) = (  -0.3957908   0.6132739   0.6129471  )
        65           Au  tau(  65) = (  -0.2708208   0.3967658   0.6129688  )
        66           Au  tau(  66) = (  -0.1458636   0.1803200   0.6129569  )
        67           Au  tau(  67) = (  -0.0208823  -0.0361826   0.6129110  )

     number of k points=    12  Marzari-Vanderbilt smearing, width (Ry)=  0.0200
                       cart. coord. in units 2pi/alat
        k(    1) = (   0.2500000   0.4330127   0.1111111), wk =   0.1666667
        k(    2) = (   0.2500000  -0.1443376   0.1111111), wk =   0.1666667
        k(    3) = (  -0.2500000  -0.4330127   0.1111111), wk =   0.1666667
        k(    4) = (  -0.2500000   0.4330127  -0.1111111), wk =   0.1666667
        k(    5) = (   0.2500000  -0.4330127  -0.1111111), wk =   0.1666667
        k(    6) = (   0.5000000   0.0000000   0.1111111), wk =   0.1666667
        k(    7) = (  -0.5000000   0.0000000   0.1111111), wk =   0.1666667
        k(    8) = (  -0.2500000   0.1443376   0.1111111), wk =   0.1666667
        k(    9) = (  -0.2500000  -0.1443376  -0.1111111), wk =   0.1666667
        k(   10) = (   0.2500000   0.1443376  -0.1111111), wk =   0.1666667
        k(   11) = (   0.0000000  -0.2886751   0.1111111), wk =   0.1666667
        k(   12) = (   0.0000000   0.2886751   0.1111111), wk =   0.1666667

     Dense  grid:  3097177 G-vectors     FFT dimensions: ( 150, 150, 360)

     Smooth grid:  1095093 G-vectors     FFT dimensions: ( 108, 108, 240)

     Largest allocated arrays     est. size (Mb)     dimensions
        Kohn-Sham Wavefunctions        28.01 Mb     (    4299,  427)
        NL pseudopotentials            55.23 Mb     (    4299,  842)
        Each V/rho on FFT grid          4.12 Mb     (  270000)
        Each G-vector array             0.74 Mb     (   96788)
        G-vector shells                 0.16 Mb     (   21404)
     Largest temporary arrays     est. size (Mb)     dimensions
        Auxiliary wavefunctions       112.04 Mb     (    4299, 1708)
        Each subspace H/S matrix       44.51 Mb     (    1708, 1708)
        Each <psi_i|beta_j> matrix      5.49 Mb     (     842,  427)
        Arrays for rho mixing          32.96 Mb     (  270000,    8)

     Initial potential from superposition of free atoms
     Check: negative starting charge=   -1.730294

     starting charge  711.25682, renormalised to  712.00000

     negative rho (up, down):  1.732E+00 0.000E+00


     ************************************************************************
     *
     * You are using vdW-DF for exchange-correlation in this calculation.
     * Please cite the following three references that made this development
     * possible:
     *
     *   M. Dion, H. Rydberg, E. Schroder, D. C. Langreth, and
     *   B. I. Lundqvist, Phys. Rev. Lett. 92, 246401 (2004).
     *
     *   T. Thonhauser, V. R. Cooper, S. Li, A. Puzder, P. Hyldgaard, and
     *   D. C. Langreth, Phys. Rev. B 76, 125112 (2007).
     *
     *   G. Roman-Perez and J. M. Soler, Phys. Rev. Lett. 103, 096102 (2009).
     *
     *
     * If you are using vdW-DF2, please also cite:
     *
     *   K. Lee, E. D. Murray, L. Kong, B. I. Lundqvist, and
     *   D. C. Langreth, Phys. Rev. B 82, 081101(R) (2010).
     *
     *
     * If you are calculating the stress with vdW-DF, please also cite:
     *
     *   R. Sabatini, E. Kucukbenli, B. Kolb, T. Thonhauser, and
     *   S. de Gironcoli, J. Phys.: Condens. Matter 24, 424209 (2012).
     *
     ************************************************************************

     Carrying out vdW-DF run using the following parameters:

     Nqs =      20    Nr_points =    1024   r_max =   100.000
     q_mesh =
               0.00001000     0.04494208     0.09755937     0.15916263
               0.23128650     0.31572767     0.41458969     0.53033537
               0.66584808     0.82450364     1.01025438     1.22772762
               1.48234092     1.78043706     2.12944203     2.53805004
               3.01644009     3.57652955     4.23227104     5.00000000

     Gradients computed in reciprocal space

     ************************************************************************


     Starting wfc are  582 randomized atomic wfcs

     total cpu time spent up to now is      244.3 secs

     Self-consistent Calculation

     iteration #  1     ecut=    50.00 Ry     beta=0.70
     Davidson diagonalization with overlap
     ethr =  1.00E-02,  avg # of iterations =  3.0

     Threshold (ethr) on eigenvalues was too large:
     Diagonalizing with lowered threshold

     Davidson diagonalization with overlap
     ethr =  3.46E-04,  avg # of iterations =  3.7

     negative rho (up, down):  1.727E+00 0.000E+00

     total cpu time spent up to now is      992.4 secs

     total energy              =   -6602.78924969 Ry
     Harris-Foulkes estimate   =   -6605.02480281 Ry
     estimated scf accuracy    <       2.80258738 Ry

     iteration #  2     ecut=    50.00 Ry     beta=0.70
     Davidson diagonalization with overlap
     ethr =  3.94E-04,  avg # of iterations = 11.0

     negative rho (up, down):  1.726E+00 0.000E+00

     total cpu time spent up to now is     2228.1 secs

     total energy              =   -6596.76893839 Ry
     Harris-Foulkes estimate   =   -6610.12102182 Ry
     estimated scf accuracy    <      74.39850062 Ry

     iteration #  3     ecut=    50.00 Ry     beta=0.70
     Davidson diagonalization with overlap
     ethr =  3.94E-04,  avg # of iterations =  6.5

     negative rho (up, down):  1.737E+00 0.000E+00

     total cpu time spent up to now is     3045.4 secs

     total energy              =   -6603.24496954 Ry
     Harris-Foulkes estimate   =   -6604.99195824 Ry
     estimated scf accuracy    <       7.66267468 Ry

     iteration #  4     ecut=    50.00 Ry     beta=0.70
     Davidson diagonalization with overlap
     ethr =  3.94E-04,  avg # of iterations =  6.3

     negative rho (up, down):  1.739E+00 0.000E+00

     total cpu time spent up to now is     3540.5 secs

     total energy              =   -6603.41017201 Ry
     Harris-Foulkes estimate   =   -6605.28221761 Ry
     estimated scf accuracy    <      19.06431004 Ry

     iteration #  5     ecut=    50.00 Ry     beta=0.70
     Davidson diagonalization with overlap
     ethr =  3.94E-04,  avg # of iterations =  6.9

     negative rho (up, down):  1.748E+00 0.000E+00

     total cpu time spent up to now is     4029.1 secs

     total energy              =   -6604.34598140 Ry
     Harris-Foulkes estimate   =   -6604.57743050 Ry
     estimated scf accuracy    <       1.35531286 Ry

     iteration #  6     ecut=    50.00 Ry     beta=0.70
     Davidson diagonalization with overlap
     ethr =  1.90E-04,  avg # of iterations =  3.1

     negative rho (up, down):  1.752E+00 0.000E+00

     total cpu time spent up to now is     4433.4 secs

     total energy              =   -6604.41271632 Ry
     Harris-Foulkes estimate   =   -6604.45912962 Ry
     estimated scf accuracy    <       0.14051705 Ry

     iteration #  7     ecut=    50.00 Ry     beta=0.70
     Davidson diagonalization with overlap
     ethr =  1.97E-05,  avg # of iterations = 12.7

     negative rho (up, down):  1.754E+00 0.000E+00

     total cpu time spent up to now is     5132.8 secs

     total energy              =   -6604.42225551 Ry
     Harris-Foulkes estimate   =   -6604.44684208 Ry
     estimated scf accuracy    <       0.10028466 Ry

     iteration #  8     ecut=    50.00 Ry     beta=0.70
     Davidson diagonalization with overlap
     ethr =  1.41E-05,  avg # of iterations =  3.7

     negative rho (up, down):  1.755E+00 0.000E+00

     total cpu time spent up to now is     5554.7 secs

     total energy              =   -6604.42495803 Ry
     Harris-Foulkes estimate   =   -6604.43763058 Ry
     estimated scf accuracy    <       0.04461433 Ry

     iteration #  9     ecut=    50.00 Ry     beta=0.70
     Davidson diagonalization with overlap
     ethr =  6.27E-06,  avg # of iterations =  6.6

     negative rho (up, down):  1.756E+00 0.000E+00

     total cpu time spent up to now is     6014.2 secs

     total energy              =   -6604.42675844 Ry
     Harris-Foulkes estimate   =   -6604.43158771 Ry
     estimated scf accuracy    <       0.01443178 Ry

     iteration # 10     ecut=    50.00 Ry     beta=0.70
     Davidson diagonalization with overlap
     ethr =  2.03E-06,  avg # of iterations =  6.3

     negative rho (up, down):  1.757E+00 0.000E+00

     total cpu time spent up to now is     6479.9 secs

     total energy              =   -6604.42762143 Ry
     Harris-Foulkes estimate   =   -6604.42930045 Ry
     estimated scf accuracy    <       0.00549492 Ry

     iteration # 11     ecut=    50.00 Ry     beta=0.70
     Davidson diagonalization with overlap
     ethr =  7.72E-07,  avg # of iterations =  3.0

     negative rho (up, down):  1.757E+00 0.000E+00

     total cpu time spent up to now is     6868.8 secs

     total energy              =   -6604.42800700 Ry
     Harris-Foulkes estimate   =   -6604.42863852 Ry
     estimated scf accuracy    <       0.00235585 Ry

     iteration # 12     ecut=    50.00 Ry     beta=0.70
     Davidson diagonalization with overlap
     ethr =  3.31E-07,  avg # of iterations =  2.0

     negative rho (up, down):  1.757E+00 0.000E+00

     total cpu time spent up to now is     7222.9 secs

     total energy              =   -6604.42815763 Ry
     Harris-Foulkes estimate   =   -6604.42833331 Ry
     estimated scf accuracy    <       0.00038766 Ry

     iteration # 13     ecut=    50.00 Ry     beta=0.70
     Davidson diagonalization with overlap
     ethr =  5.44E-08,  avg # of iterations =  4.0

     negative rho (up, down):  1.757E+00 0.000E+00

     total cpu time spent up to now is     7650.9 secs

     total energy              =   -6604.42817895 Ry
     Harris-Foulkes estimate   =   -6604.42829685 Ry
     estimated scf accuracy    <       0.00044770 Ry

     iteration # 14     ecut=    50.00 Ry     beta=0.70
     Davidson diagonalization with overlap
     ethr =  5.44E-08,  avg # of iterations =  2.0

     negative rho (up, down):  1.757E+00 0.000E+00

     total cpu time spent up to now is     7983.1 secs

     total energy              =   -6604.42823140 Ry
     Harris-Foulkes estimate   =   -6604.42825367 Ry
     estimated scf accuracy    <       0.00010224 Ry

     iteration # 15     ecut=    50.00 Ry     beta=0.70
     Davidson diagonalization with overlap
     ethr =  1.44E-08,  avg # of iterations =  2.0

     negative rho (up, down):  1.757E+00 0.000E+00

     total cpu time spent up to now is     8324.4 secs

     total energy              =   -6604.42824229 Ry
     Harris-Foulkes estimate   =   -6604.42824839 Ry
     estimated scf accuracy    <       0.00004154 Ry

     iteration # 16     ecut=    50.00 Ry     beta=0.70
     Davidson diagonalization with overlap
     ethr =  5.83E-09,  avg # of iterations =  2.0

     negative rho (up, down):  1.757E+00 0.000E+00

     total cpu time spent up to now is     8590.8 secs

     total energy              =   -6604.42824520 Ry
     Harris-Foulkes estimate   =   -6604.42824594 Ry
     estimated scf accuracy    <       0.00000191 Ry

     iteration # 17     ecut=    50.00 Ry     beta=0.70
     Davidson diagonalization with overlap
     ethr =  2.69E-10,  avg # of iterations =  3.0

     negative rho (up, down):  1.757E+00 0.000E+00

     total cpu time spent up to now is     8961.3 secs

     total energy              =   -6604.42824519 Ry
     Harris-Foulkes estimate   =   -6604.42824631 Ry
     estimated scf accuracy    <       0.00000502 Ry

     iteration # 18     ecut=    50.00 Ry     beta=0.70
     Davidson diagonalization with overlap
     ethr =  2.69E-10,  avg # of iterations =  2.0

     negative rho (up, down):  1.757E+00 0.000E+00

     total cpu time spent up to now is     9258.4 secs

     total energy              =   -6604.42824565 Ry
     Harris-Foulkes estimate   =   -6604.42824593 Ry
     estimated scf accuracy    <       0.00000107 Ry

     iteration # 19     ecut=    50.00 Ry     beta=0.70
     Davidson diagonalization with overlap
     ethr =  1.51E-10,  avg # of iterations =  2.0

     negative rho (up, down):  1.757E+00 0.000E+00

     total cpu time spent up to now is     9548.1 secs

     total energy              =   -6604.42824579 Ry
     Harris-Foulkes estimate   =   -6604.42824585 Ry
     estimated scf accuracy    <       0.00000028 Ry

     iteration # 20     ecut=    50.00 Ry     beta=0.70
     Davidson diagonalization with overlap
     ethr =  3.98E-11,  avg # of iterations =  2.0

     negative rho (up, down):  1.757E+00 0.000E+00

     total cpu time spent up to now is     9925.2 secs

     total energy              =   -6604.42824582 Ry
     Harris-Foulkes estimate   =   -6604.42824584 Ry
     estimated scf accuracy    <       0.00000007 Ry

     iteration # 21     ecut=    50.00 Ry     beta=0.70
     Davidson diagonalization with overlap
     ethr =  1.04E-11,  avg # of iterations =  2.0

     negative rho (up, down):  1.757E+00 0.000E+00

     total cpu time spent up to now is    10285.1 secs

     total energy              =   -6604.42824583 Ry
     Harris-Foulkes estimate   =   -6604.42824585 Ry
     estimated scf accuracy    <       0.00000020 Ry

     iteration # 22     ecut=    50.00 Ry     beta=0.70
     Davidson diagonalization with overlap
     ethr =  1.04E-11,  avg # of iterations =  2.0

     negative rho (up, down):  1.757E+00 0.000E+00

     total cpu time spent up to now is    10619.9 secs

     End of self-consistent calculation

          k = 0.2500 0.4330 0.1111 (136853 PWs)   bands (ev):

   -19.1239  -6.9933  -6.3204  -5.9220  -5.9212  -5.2449  -4.9107  -4.9105
    -4.8737  -4.8711  -4.5106  -4.5099  -4.4118  -4.4114  -4.3977  -4.3749
    -4.3554  -4.2445  -4.2433  -4.2196  -4.1764  -4.1761  -4.1085  -4.1076
    -4.1020  -4.1013  -4.0792  -4.0744  -4.0726  -4.0076  -4.0016  -3.9714
    -3.9705  -3.9590  -3.9586  -3.9357  -3.9352  -3.9128  -3.9047  -3.9044
    -3.8793  -3.8264  -3.8257  -3.7779  -3.7767  -3.7232  -3.7203  -3.6688
    -3.6648  -3.6631  -3.6630  -3.6276  -3.5950  -3.5918  -3.5819  -3.5809
    -3.5807  -3.5533  -3.5508  -3.5421  -3.4855  -3.4821  -3.4739  -3.4551
    -3.4466  -3.3769  -3.3745  -3.3449  -3.3421  -3.3247  -3.3134  -3.2987
    -3.2894  -3.2608  -3.2238  -3.2130  -3.2049  -3.2012  -3.1541  -3.1496
    -3.1413  -3.1086  -3.0794  -3.0783  -3.0696  -3.0685  -3.0576  -3.0551
    -3.0500  -3.0473  -3.0384  -2.9976  -2.9599  -2.9586  -2.9461  -2.9449
    -2.9180  -2.9104  -2.9098  -2.8864  -2.8425  -2.8416  -2.8338  -2.7950
    -2.7876  -2.7760  -2.7757  -2.7490  -2.7470  -2.7166  -2.6817  -2.6799
    -2.6594  -2.6498  -2.6376  -2.6365  -2.5872  -2.5862  -2.5534  -2.5309
    -2.5300  -2.5081  -2.5050  -2.4949  -2.4939  -2.4840  -2.4637  -2.4620
    -2.4166  -2.4157  -2.4147  -2.3993  -2.3984  -2.3909  -2.3855  -2.3842
    -2.3816  -2.3796  -2.3731  -2.3669  -2.3620  -2.3574  -2.3295  -2.3258
    -2.3241  -2.3235  -2.3216  -2.3206  -2.3182  -2.2938  -2.2899  -2.2763
    -2.2746  -2.2560  -2.2553  -2.2472  -2.2462  -2.2451  -2.2438  -2.2309
    -2.2248  -2.2228  -2.2223  -2.2075  -2.1789  -2.1784  -2.1374  -2.1370
    -2.1150  -2.1142  -2.0877  -2.0857  -2.0613  -2.0583  -2.0434  -2.0371
    -2.0099  -1.9978  -1.9896  -1.9831  -1.9811  -1.9764  -1.9692  -1.9682
    -1.9465  -1.9384  -1.9314  -1.8780  -1.8707  -1.8663  -1.8645  -1.8625
    -1.8325  -1.8068  -1.8059  -1.7805  -1.7793  -1.7209  -1.7196  -1.6933
    -1.6753  -1.6703  -1.6262  -1.6101  -1.6042  -1.5969  -1.5931  -1.5863
    -1.5848  -1.5807  -1.5725  -1.5582  -1.5188  -1.5099  -1.5059  -1.5033
    -1.4956  -1.4855  -1.4605  -1.4504  -1.4375  -1.4343  -1.4321  -1.4270
    -1.4241  -1.4133  -1.4104  -1.3918  -1.3902  -1.3810  -1.3520  -1.3429
    -1.3379  -1.3191  -1.3021  -1.2749  -1.2623  -1.2499  -1.2326  -1.2306
    -1.2048  -1.1979  -1.1505  -1.1488  -1.1461  -1.1418  -1.1392  -1.1310
    -1.1252  -1.1119  -1.0956  -1.0728  -1.0686  -1.0420  -1.0397  -1.0345
    -1.0298  -1.0279  -1.0116  -1.0101  -1.0082  -1.0065  -1.0005  -0.9688
    -0.9664  -0.9657  -0.9544  -0.9366  -0.9335  -0.9262  -0.9049  -0.8989
    -0.8838  -0.8516  -0.8464  -0.8303  -0.8099  -0.7983  -0.7923  -0.7912
    -0.7849  -0.7835  -0.7802  -0.7753  -0.7690  -0.7576  -0.7444  -0.7421
    -0.7388  -0.7374  -0.7340  -0.7003  -0.6999  -0.6917  -0.6813  -0.6705
    -0.6661  -0.6547  -0.6413  -0.5982  -0.5971  -0.5886  -0.5881  -0.5866
    -0.5811  -0.5770  -0.5610  -0.5588  -0.5528  -0.5514  -0.5500  -0.5408
    -0.5108  -0.5088  -0.5078  -0.4994  -0.4985  -0.4930  -0.4923  -0.4774
    -0.4737  -0.4720  -0.4603  -0.4317  -0.4294  -0.4232  -0.4181  -0.4154
    -0.3430  -0.3394  -0.3381  -0.3373  -0.3284  -0.3274  -0.2922  -0.2802
    -0.2797  -0.2505  -0.2472  -0.2241  -0.1257  -0.1219  -0.0224   0.3916
     0.3927   0.3958   0.3970   0.4552   0.4700   0.8434   0.8463   0.8860
     0.8902   1.0032   1.0813   1.1873   1.1975   1.4083   1.4266   2.0398
     2.0463   2.2008   2.2097   2.3350   2.3455   2.4413   2.4422   2.5959
     2.8321   2.8385   2.9591   3.1802   3.1862   3.2615   3.2653   3.3638
     3.3810   3.5723   3.5813   3.6362   3.8373   3.8388   3.8975   3.9034
     4.1557   4.1619   4.1704   4.4059   4.4449   4.4516   4.4940   4.8263
     4.8298   4.8573   4.9914   5.1659   5.1687   5.2085   5.2280   5.4522
     5.7889   5.9208   5.9500   5.9585   5.9642   6.0266   6.0296   6.0986
     6.1391   6.1460   6.1590   6.1900   6.1960   6.2128   6.2289   6.2494
     6.2613   6.4418   6.5677   6.7000   6.7500   6.7714   6.8961   6.9002
     6.9122   7.0167   7.0215

          k = 0.2500-0.1443 0.1111 (136898 PWs)   bands (ev):

   -19.1239  -6.9937  -6.5297  -5.7390  -5.4485  -5.3892  -5.3884  -4.8508
    -4.8503  -4.7199  -4.7183  -4.5640  -4.5360  -4.4707  -4.4401  -4.4377
    -4.4040  -4.4036  -4.2751  -4.2334  -4.2332  -4.1742  -4.1543  -4.1529
    -4.0501  -4.0499  -4.0140  -4.0138  -4.0133  -3.9874  -3.9653  -3.9649
    -3.8631  -3.8580  -3.8580  -3.8382  -3.8211  -3.8207  -3.8096  -3.8084
    -3.7964  -3.7664  -3.7651  -3.7642  -3.7638  -3.7340  -3.7329  -3.7142
    -3.7137  -3.7034  -3.6650  -3.6603  -3.6269  -3.6150  -3.6124  -3.6051
    -3.6050  -3.5319  -3.5309  -3.4989  -3.4975  -3.4942  -3.4259  -3.4251
    -3.4136  -3.4099  -3.3841  -3.3807  -3.3796  -3.3783  -3.2772  -3.2249
    -3.2198  -3.2008  -3.1966  -3.1877  -3.1779  -3.1751  -3.1529  -3.1449
    -3.1023  -3.0988  -3.0863  -3.0840  -3.0647  -3.0185  -3.0168  -2.9977
    -2.9927  -2.9916  -2.9519  -2.9510  -2.9438  -2.9422  -2.9277  -2.9270
    -2.8890  -2.8882  -2.8674  -2.8659  -2.8633  -2.8624  -2.8588  -2.7849
    -2.7833  -2.7807  -2.7525  -2.7509  -2.6925  -2.6901  -2.6620  -2.6614
    -2.6489  -2.6478  -2.6411  -2.6135  -2.6123  -2.6020  -2.5857  -2.5636
    -2.5609  -2.5588  -2.5398  -2.5387  -2.5291  -2.5268  -2.5260  -2.5239
    -2.5138  -2.4682  -2.4382  -2.4374  -2.4224  -2.4084  -2.4026  -2.4010
    -2.3944  -2.3924  -2.3906  -2.3639  -2.3617  -2.3614  -2.3517  -2.3508
    -2.3360  -2.3099  -2.3082  -2.3070  -2.3053  -2.3050  -2.2587  -2.2312
    -2.2287  -2.2273  -2.2217  -2.2110  -2.2026  -2.2012  -2.1818  -2.1817
    -2.1532  -2.1492  -2.1473  -2.1324  -2.1301  -2.1287  -2.1002  -2.0959
    -2.0580  -2.0504  -2.0478  -2.0457  -2.0437  -2.0418  -2.0376  -2.0360
    -2.0337  -2.0317  -2.0271  -2.0133  -2.0112  -1.8976  -1.8858  -1.8651
    -1.8501  -1.8455  -1.8389  -1.8374  -1.8321  -1.8216  -1.8206  -1.8173
    -1.8152  -1.7984  -1.7921  -1.7881  -1.7852  -1.7736  -1.7718  -1.7523
    -1.7498  -1.7238  -1.7211  -1.7009  -1.6906  -1.6792  -1.6729  -1.6540
    -1.6514  -1.6491  -1.6325  -1.6219  -1.6181  -1.6134  -1.6109  -1.5926
    -1.5849  -1.5763  -1.5687  -1.5519  -1.5348  -1.5295  -1.4841  -1.4761
    -1.4697  -1.4620  -1.4590  -1.4343  -1.4327  -1.4131  -1.4010  -1.3991
    -1.3850  -1.3588  -1.3564  -1.3409  -1.3378  -1.3308  -1.3130  -1.3114
    -1.2821  -1.2789  -1.2776  -1.2372  -1.2165  -1.2126  -1.2041  -1.1980
    -1.1867  -1.1809  -1.1728  -1.1601  -1.1541  -1.1414  -1.1144  -1.1133
    -1.0999  -1.0679  -1.0655  -1.0544  -1.0522  -1.0513  -1.0475  -1.0455
    -1.0353  -1.0296  -1.0024  -1.0010  -0.9909  -0.9877  -0.9851  -0.9672
    -0.9601  -0.9468  -0.9311  -0.9233  -0.8990  -0.8295  -0.8183  -0.8131
    -0.8125  -0.8048  -0.8025  -0.7965  -0.7795  -0.7675  -0.7639  -0.7557
    -0.7475  -0.7403  -0.7380  -0.7188  -0.7166  -0.7079  -0.6909  -0.6340
    -0.6324  -0.6019  -0.5958  -0.5937  -0.5894  -0.5868  -0.5860  -0.5823
    -0.5737  -0.5699  -0.5356  -0.5312  -0.5178  -0.4987  -0.4964  -0.4872
    -0.4853  -0.4753  -0.4738  -0.4724  -0.4709  -0.4656  -0.4544  -0.4493
    -0.4460  -0.4192  -0.4170  -0.4149  -0.4042  -0.4023  -0.3846  -0.3533
    -0.3527  -0.3438  -0.3425  -0.2759  -0.2738  -0.2396  -0.2394  -0.1818
    -0.1810  -0.1796  -0.1563  -0.1547   0.0707   0.0943   0.4208   0.4212
     0.5082   0.5270   0.7069   0.7312   0.7453   0.8661   0.8736   1.3012
     1.3015   1.3191   1.5798   1.6107   1.6129   1.8816   1.9019   1.9648
     1.9677   1.9888   2.0057   2.2207   2.2245   2.3118   2.3133   2.3838
     2.4455   2.4677   2.6157   2.7152   3.1478   3.1534   3.1562   3.1640
     3.2082   3.2164   3.5042   3.5062   3.7784   3.7947   3.8905   4.2018
     4.2362   4.2468   4.4393   4.4832   4.5415   4.5433   4.6349   4.7523
     4.7559   4.8676   4.8740   5.1709   5.2348   5.2436   5.3090   5.4225
     5.4455   5.6285   5.6336   5.6581   5.6603   5.7133   5.7203   5.7690
     5.8589   6.0549   6.2633   6.3267   6.3459   6.4581   6.4627   6.4700
     6.4830   6.5363   6.6572   6.7065   6.7237   6.8329   6.9091   6.9289
     6.9742   7.0417   7.0713

          k =-0.2500-0.4330 0.1111 (136853 PWs)   bands (ev):

   -19.1239  -6.9933  -6.3204  -5.9220  -5.9212  -5.2449  -4.9107  -4.9105
    -4.8737  -4.8711  -4.5106  -4.5099  -4.4118  -4.4114  -4.3977  -4.3749
    -4.3554  -4.2445  -4.2433  -4.2196  -4.1764  -4.1761  -4.1085  -4.1076
    -4.1020  -4.1013  -4.0792  -4.0744  -4.0726  -4.0076  -4.0016  -3.9714
    -3.9705  -3.9590  -3.9586  -3.9357  -3.9352  -3.9128  -3.9047  -3.9044
    -3.8793  -3.8264  -3.8257  -3.7780  -3.7767  -3.7231  -3.7203  -3.6688
    -3.6648  -3.6631  -3.6630  -3.6276  -3.5951  -3.5918  -3.5819  -3.5809
    -3.5807  -3.5533  -3.5508  -3.5421  -3.4855  -3.4821  -3.4739  -3.4551
    -3.4466  -3.3769  -3.3745  -3.3449  -3.3421  -3.3247  -3.3134  -3.2987
    -3.2894  -3.2608  -3.2238  -3.2130  -3.2049  -3.2012  -3.1541  -3.1496
    -3.1413  -3.1086  -3.0794  -3.0783  -3.0696  -3.0685  -3.0576  -3.0551
    -3.0500  -3.0473  -3.0384  -2.9976  -2.9599  -2.9586  -2.9461  -2.9449
    -2.9180  -2.9104  -2.9098  -2.8864  -2.8425  -2.8416  -2.8338  -2.7950
    -2.7876  -2.7760  -2.7757  -2.7490  -2.7470  -2.7166  -2.6817  -2.6799
    -2.6594  -2.6498  -2.6376  -2.6365  -2.5872  -2.5862  -2.5534  -2.5309
    -2.5300  -2.5081  -2.5050  -2.4949  -2.4939  -2.4840  -2.4637  -2.4620
    -2.4166  -2.4156  -2.4147  -2.3993  -2.3984  -2.3909  -2.3855  -2.3842
    -2.3816  -2.3796  -2.3731  -2.3669  -2.3620  -2.3574  -2.3295  -2.3258
    -2.3241  -2.3235  -2.3216  -2.3206  -2.3182  -2.2938  -2.2899  -2.2763
    -2.2746  -2.2560  -2.2553  -2.2472  -2.2462  -2.2451  -2.2438  -2.2309
    -2.2248  -2.2228  -2.2223  -2.2075  -2.1789  -2.1784  -2.1374  -2.1370
    -2.1150  -2.1142  -2.0877  -2.0857  -2.0613  -2.0583  -2.0434  -2.0371
    -2.0099  -1.9978  -1.9896  -1.9832  -1.9811  -1.9764  -1.9692  -1.9682
    -1.9465  -1.9384  -1.9314  -1.8780  -1.8707  -1.8663  -1.8645  -1.8625
    -1.8325  -1.8068  -1.8059  -1.7805  -1.7793  -1.7209  -1.7196  -1.6933
    -1.6753  -1.6703  -1.6262  -1.6101  -1.6042  -1.5969  -1.5931  -1.5863
    -1.5848  -1.5807  -1.5725  -1.5582  -1.5188  -1.5099  -1.5059  -1.5033
    -1.4956  -1.4855  -1.4605  -1.4504  -1.4375  -1.4343  -1.4321  -1.4270
    -1.4241  -1.4133  -1.4104  -1.3918  -1.3902  -1.3810  -1.3520  -1.3429
    -1.3379  -1.3191  -1.3021  -1.2749  -1.2623  -1.2499  -1.2326  -1.2306
    -1.2048  -1.1979  -1.1505  -1.1488  -1.1461  -1.1418  -1.1392  -1.1310
    -1.1252  -1.1119  -1.0956  -1.0728  -1.0686  -1.0420  -1.0398  -1.0345
    -1.0298  -1.0279  -1.0116  -1.0101  -1.0082  -1.0065  -1.0005  -0.9688
    -0.9664  -0.9657  -0.9544  -0.9366  -0.9335  -0.9262  -0.9048  -0.8989
    -0.8838  -0.8516  -0.8464  -0.8303  -0.8099  -0.7983  -0.7923  -0.7912
    -0.7849  -0.7835  -0.7803  -0.7753  -0.7690  -0.7576  -0.7444  -0.7421
    -0.7388  -0.7374  -0.7340  -0.7003  -0.6999  -0.6917  -0.6813  -0.6705
    -0.6661  -0.6547  -0.6413  -0.5982  -0.5971  -0.5886  -0.5881  -0.5866
    -0.5811  -0.5770  -0.5610  -0.5588  -0.5528  -0.5514  -0.5500  -0.5408
    -0.5108  -0.5088  -0.5078  -0.4994  -0.4985  -0.4930  -0.4923  -0.4774
    -0.4737  -0.4720  -0.4603  -0.4317  -0.4294  -0.4232  -0.4181  -0.4154
    -0.3430  -0.3394  -0.3381  -0.3373  -0.3284  -0.3274  -0.2922  -0.2802
    -0.2797  -0.2505  -0.2472  -0.2241  -0.1257  -0.1219  -0.0224   0.3916
     0.3927   0.3958   0.3970   0.4552   0.4700   0.8434   0.8463   0.8860
     0.8902   1.0032   1.0813   1.1873   1.1975   1.4083   1.4266   2.0398
     2.0463   2.2008   2.2097   2.3350   2.3455   2.4413   2.4422   2.5959
     2.8321   2.8385   2.9591   3.1802   3.1862   3.2615   3.2653   3.3638
     3.3810   3.5723   3.5813   3.6362   3.8373   3.8388   3.8975   3.9034
     4.1557   4.1619   4.1704   4.4059   4.4449   4.4516   4.4940   4.8263
     4.8298   4.8573   4.9914   5.1659   5.1687   5.2085   5.2280   5.4523
     5.7884   5.9208   5.9500   5.9585   5.9641   6.0266   6.0296   6.0978
     6.1394   6.1488   6.1587   6.1900   6.1961   6.2128   6.2281   6.2494
     6.2615   6.4415   6.5688   6.6937   6.7498   6.7703   6.8960   6.9001
     6.9122   7.0182   7.0265

          k =-0.2500 0.4330-0.1111 (136853 PWs)   bands (ev):

   -19.1239  -6.9933  -6.3204  -5.9231  -5.9200  -5.2449  -4.9113  -4.9099
    -4.8746  -4.8703  -4.5110  -4.5094  -4.4120  -4.4113  -4.3975  -4.3749
    -4.3552  -4.2453  -4.2427  -4.2196  -4.1764  -4.1761  -4.1084  -4.1076
    -4.1028  -4.1007  -4.0792  -4.0754  -4.0718  -4.0081  -4.0011  -3.9720
    -3.9696  -3.9591  -3.9585  -3.9356  -3.9352  -3.9127  -3.9050  -3.9041
    -3.8794  -3.8267  -3.8255  -3.7787  -3.7759  -3.7232  -3.7203  -3.6688
    -3.6644  -3.6631  -3.6630  -3.6278  -3.5956  -3.5918  -3.5819  -3.5813
    -3.5804  -3.5534  -3.5508  -3.5425  -3.4851  -3.4820  -3.4739  -3.4549
    -3.4464  -3.3789  -3.3748  -3.3448  -3.3412  -3.3220  -3.3126  -3.2988
    -3.2913  -3.2619  -3.2238  -3.2112  -3.2051  -3.2032  -3.1522  -3.1500
    -3.1420  -3.1083  -3.0801  -3.0774  -3.0695  -3.0683  -3.0590  -3.0550
    -3.0496  -3.0468  -3.0386  -2.9974  -2.9606  -2.9581  -2.9461  -2.9451
    -2.9181  -2.9107  -2.9097  -2.8861  -2.8433  -2.8408  -2.8334  -2.7950
    -2.7875  -2.7766  -2.7750  -2.7480  -2.7471  -2.7167  -2.6815  -2.6807
    -2.6594  -2.6498  -2.6386  -2.6363  -2.5873  -2.5865  -2.5532  -2.5312
    -2.5302  -2.5072  -2.5048  -2.4955  -2.4932  -2.4841  -2.4643  -2.4612
    -2.4163  -2.4153  -2.4148  -2.3994  -2.3985  -2.3910  -2.3850  -2.3836
    -2.3816  -2.3795  -2.3732  -2.3688  -2.3617  -2.3589  -2.3294  -2.3267
    -2.3240  -2.3235  -2.3215  -2.3193  -2.3180  -2.2928  -2.2899  -2.2757
    -2.2740  -2.2562  -2.2555  -2.2474  -2.2461  -2.2449  -2.2441  -2.2297
    -2.2264  -2.2229  -2.2222  -2.2073  -2.1793  -2.1785  -2.1383  -2.1364
    -2.1157  -2.1139  -2.0883  -2.0850  -2.0597  -2.0575  -2.0420  -2.0367
    -2.0103  -1.9980  -1.9901  -1.9852  -1.9798  -1.9769  -1.9704  -1.9678
    -1.9450  -1.9381  -1.9321  -1.8816  -1.8705  -1.8664  -1.8631  -1.8619
    -1.8356  -1.8077  -1.8049  -1.7798  -1.7787  -1.7215  -1.7197  -1.6915
    -1.6775  -1.6707  -1.6230  -1.6091  -1.6052  -1.5970  -1.5911  -1.5864
    -1.5825  -1.5801  -1.5726  -1.5532  -1.5195  -1.5105  -1.5076  -1.5038
    -1.4903  -1.4860  -1.4687  -1.4507  -1.4364  -1.4333  -1.4322  -1.4288
    -1.4238  -1.4155  -1.4095  -1.3914  -1.3904  -1.3738  -1.3525  -1.3420
    -1.3379  -1.3182  -1.3033  -1.2922  -1.2608  -1.2506  -1.2328  -1.2299
    -1.2037  -1.1970  -1.1495  -1.1475  -1.1461  -1.1443  -1.1394  -1.1321
    -1.1223  -1.1105  -1.0958  -1.0704  -1.0683  -1.0421  -1.0391  -1.0342
    -1.0312  -1.0267  -1.0123  -1.0112  -1.0072  -1.0058  -1.0029  -0.9701
    -0.9668  -0.9654  -0.9478  -0.9375  -0.9346  -0.9278  -0.9033  -0.8990
    -0.8807  -0.8527  -0.8471  -0.8333  -0.8105  -0.8013  -0.7924  -0.7890
    -0.7850  -0.7834  -0.7808  -0.7777  -0.7690  -0.7566  -0.7440  -0.7427
    -0.7382  -0.7376  -0.7340  -0.7004  -0.6997  -0.6933  -0.6807  -0.6697
    -0.6655  -0.6547  -0.6493  -0.5982  -0.5965  -0.5889  -0.5875  -0.5860
    -0.5820  -0.5742  -0.5615  -0.5595  -0.5530  -0.5512  -0.5504  -0.5402
    -0.5107  -0.5092  -0.5067  -0.5007  -0.4978  -0.4937  -0.4926  -0.4792
    -0.4738  -0.4728  -0.4554  -0.4313  -0.4299  -0.4231  -0.4193  -0.4152
    -0.3425  -0.3396  -0.3380  -0.3364  -0.3292  -0.3259  -0.2921  -0.2803
    -0.2793  -0.2529  -0.2472  -0.2223  -0.1271  -0.1156  -0.0200   0.3915
     0.3923   0.3957   0.3975   0.4519   0.4746   0.8409   0.8472   0.8855
     0.8913   1.0044   1.0799   1.1838   1.1994   1.4035   1.4298   2.0381
     2.0492   2.1987   2.2133   2.3313   2.3512   2.4415   2.4421   2.5955
     2.8301   2.8409   2.9558   3.1743   3.1881   3.2609   3.2681   3.3617
     3.3809   3.5613   3.5891   3.6379   3.8362   3.8398   3.8982   3.9078
     4.1540   4.1589   4.1739   4.4068   4.4447   4.4541   4.4929   4.8216
     4.8337   4.8562   4.9939   5.1671   5.1702   5.2000   5.2347   5.4523
     5.8013   5.9164   5.9418   5.9556   5.9662   6.0224   6.0310   6.0991
     6.1220   6.1588   6.1666   6.1916   6.2028   6.2061   6.2320   6.2505
     6.2657   6.4442   6.5522   6.6971   6.7498   6.7657   6.8959   6.9010
     6.9054   7.0163   7.0433

          k = 0.2500-0.4330-0.1111 (136853 PWs)   bands (ev):

   -19.1239  -6.9933  -6.3204  -5.9231  -5.9200  -5.2449  -4.9113  -4.9099
    -4.8746  -4.8703  -4.5110  -4.5094  -4.4120  -4.4113  -4.3975  -4.3749
    -4.3552  -4.2453  -4.2427  -4.2196  -4.1764  -4.1761  -4.1084  -4.1076
    -4.1028  -4.1007  -4.0792  -4.0754  -4.0718  -4.0081  -4.0011  -3.9720
    -3.9696  -3.9591  -3.9585  -3.9356  -3.9352  -3.9127  -3.9050  -3.9041
    -3.8794  -3.8267  -3.8255  -3.7787  -3.7759  -3.7232  -3.7203  -3.6688
    -3.6644  -3.6631  -3.6630  -3.6278  -3.5956  -3.5918  -3.5819  -3.5813
    -3.5804  -3.5534  -3.5508  -3.5425  -3.4851  -3.4820  -3.4739  -3.4549
    -3.4464  -3.3789  -3.3748  -3.3448  -3.3412  -3.3220  -3.3126  -3.2988
    -3.2913  -3.2619  -3.2238  -3.2112  -3.2051  -3.2032  -3.1522  -3.1500
    -3.1420  -3.1083  -3.0801  -3.0774  -3.0695  -3.0683  -3.0590  -3.0550
    -3.0496  -3.0468  -3.0386  -2.9974  -2.9606  -2.9581  -2.9461  -2.9451
    -2.9181  -2.9107  -2.9097  -2.8861  -2.8433  -2.8408  -2.8334  -2.7950
    -2.7875  -2.7766  -2.7750  -2.7480  -2.7471  -2.7167  -2.6815  -2.6807
    -2.6594  -2.6498  -2.6386  -2.6363  -2.5873  -2.5865  -2.5532  -2.5312
    -2.5302  -2.5072  -2.5048  -2.4955  -2.4932  -2.4841  -2.4643  -2.4612
    -2.4163  -2.4153  -2.4148  -2.3994  -2.3985  -2.3910  -2.3850  -2.3836
    -2.3816  -2.3795  -2.3732  -2.3688  -2.3617  -2.3589  -2.3294  -2.3267
    -2.3240  -2.3235  -2.3215  -2.3193  -2.3180  -2.2928  -2.2899  -2.2757
    -2.2740  -2.2562  -2.2555  -2.2474  -2.2461  -2.2449  -2.2441  -2.2297
    -2.2264  -2.2229  -2.2222  -2.2073  -2.1793  -2.1785  -2.1383  -2.1364
    -2.1157  -2.1139  -2.0883  -2.0850  -2.0597  -2.0575  -2.0420  -2.0367
    -2.0103  -1.9980  -1.9901  -1.9852  -1.9798  -1.9769  -1.9704  -1.9678
    -1.9450  -1.9381  -1.9321  -1.8816  -1.8705  -1.8664  -1.8631  -1.8619
    -1.8356  -1.8077  -1.8049  -1.7798  -1.7787  -1.7215  -1.7197  -1.6915
    -1.6775  -1.6707  -1.6230  -1.6091  -1.6052  -1.5970  -1.5911  -1.5864
    -1.5825  -1.5801  -1.5726  -1.5532  -1.5195  -1.5105  -1.5076  -1.5038
    -1.4903  -1.4860  -1.4687  -1.4507  -1.4364  -1.4333  -1.4322  -1.4288
    -1.4238  -1.4155  -1.4095  -1.3914  -1.3904  -1.3738  -1.3525  -1.3420
    -1.3379  -1.3182  -1.3033  -1.2922  -1.2608  -1.2506  -1.2328  -1.2299
    -1.2037  -1.1970  -1.1495  -1.1475  -1.1461  -1.1443  -1.1394  -1.1321
    -1.1223  -1.1105  -1.0958  -1.0704  -1.0683  -1.0421  -1.0391  -1.0342
    -1.0312  -1.0267  -1.0123  -1.0112  -1.0073  -1.0058  -1.0029  -0.9701
    -0.9668  -0.9654  -0.9478  -0.9375  -0.9346  -0.9278  -0.9033  -0.8990
    -0.8807  -0.8527  -0.8471  -0.8333  -0.8105  -0.8013  -0.7924  -0.7890
    -0.7850  -0.7834  -0.7808  -0.7777  -0.7690  -0.7566  -0.7440  -0.7427
    -0.7382  -0.7376  -0.7340  -0.7004  -0.6997  -0.6933  -0.6807  -0.6697
    -0.6655  -0.6547  -0.6493  -0.5982  -0.5965  -0.5889  -0.5875  -0.5860
    -0.5820  -0.5742  -0.5615  -0.5595  -0.5530  -0.5512  -0.5504  -0.5402
    -0.5107  -0.5092  -0.5067  -0.5007  -0.4978  -0.4937  -0.4926  -0.4792
    -0.4738  -0.4728  -0.4554  -0.4313  -0.4299  -0.4231  -0.4193  -0.4152
    -0.3425  -0.3396  -0.3380  -0.3364  -0.3292  -0.3259  -0.2921  -0.2803
    -0.2793  -0.2529  -0.2472  -0.2223  -0.1271  -0.1156  -0.0200   0.3915
     0.3923   0.3957   0.3975   0.4519   0.4746   0.8409   0.8472   0.8855
     0.8913   1.0044   1.0799   1.1838   1.1994   1.4035   1.4298   2.0381
     2.0492   2.1987   2.2133   2.3313   2.3512   2.4415   2.4421   2.5955
     2.8301   2.8409   2.9558   3.1743   3.1881   3.2609   3.2681   3.3617
     3.3809   3.5613   3.5891   3.6379   3.8362   3.8398   3.8982   3.9078
     4.1540   4.1589   4.1739   4.4068   4.4447   4.4541   4.4929   4.8216
     4.8337   4.8562   4.9939   5.1671   5.1702   5.2000   5.2347   5.4523
     5.8014   5.9165   5.9418   5.9556   5.9662   6.0224   6.0310   6.0994
     6.1224   6.1581   6.1655   6.1915   6.2021   6.2058   6.2324   6.2505
     6.2657   6.4447   6.5516   6.7051   6.7525   6.7651   6.8963   6.9016
     6.9054   7.0173   7.0281

          k = 0.5000 0.0000 0.1111 (136853 PWs)   bands (ev):

   -19.1239  -6.9933  -6.3204  -5.9230  -5.9202  -5.2447  -4.9120  -4.9095
    -4.8750  -4.8700  -4.5113  -4.5087  -4.4119  -4.4111  -4.3972  -4.3749
    -4.3551  -4.2452  -4.2435  -4.2201  -4.1766  -4.1759  -4.1085  -4.1069
    -4.1049  -4.1004  -4.0790  -4.0762  -4.0709  -4.0094  -3.9999  -3.9723
    -3.9695  -3.9592  -3.9581  -3.9356  -3.9353  -3.9127  -3.9049  -3.9042
    -3.8788  -3.8264  -3.8254  -3.7788  -3.7757  -3.7209  -3.7197  -3.6654
    -3.6647  -3.6633  -3.6627  -3.6277  -3.5928  -3.5912  -3.5842  -3.5819
    -3.5804  -3.5619  -3.5506  -3.5425  -3.4831  -3.4822  -3.4795  -3.4536
    -3.4465  -3.3852  -3.3745  -3.3530  -3.3402  -3.3140  -3.3134  -3.2985
    -3.2824  -3.2520  -3.2240  -3.2194  -3.2054  -3.2015  -3.1544  -3.1496
    -3.1430  -3.1087  -3.0820  -3.0766  -3.0688  -3.0673  -3.0579  -3.0549
    -3.0489  -3.0463  -3.0391  -2.9977  -2.9604  -2.9583  -2.9464  -2.9438
    -2.9180  -2.9112  -2.9086  -2.8866  -2.8432  -2.8408  -2.8348  -2.7955
    -2.7876  -2.7765  -2.7752  -2.7494  -2.7460  -2.7166  -2.6812  -2.6800
    -2.6599  -2.6498  -2.6380  -2.6362  -2.5876  -2.5858  -2.5528  -2.5309
    -2.5294  -2.5092  -2.5060  -2.4951  -2.4929  -2.4839  -2.4640  -2.4618
    -2.4167  -2.4154  -2.4139  -2.3994  -2.3986  -2.3910  -2.3848  -2.3838
    -2.3811  -2.3797  -2.3732  -2.3649  -2.3620  -2.3588  -2.3299  -2.3251
    -2.3244  -2.3233  -2.3217  -2.3202  -2.3176  -2.2947  -2.2900  -2.2773
    -2.2738  -2.2569  -2.2555  -2.2497  -2.2463  -2.2454  -2.2429  -2.2297
    -2.2260  -2.2225  -2.2214  -2.2077  -2.1791  -2.1784  -2.1379  -2.1364
    -2.1153  -2.1141  -2.0863  -2.0845  -2.0647  -2.0580  -2.0447  -2.0369
    -2.0107  -2.0036  -1.9909  -1.9832  -1.9799  -1.9762  -1.9711  -1.9679
    -1.9455  -1.9358  -1.9317  -1.8746  -1.8690  -1.8673  -1.8651  -1.8624
    -1.8317  -1.8077  -1.8049  -1.7807  -1.7781  -1.7218  -1.7193  -1.6914
    -1.6798  -1.6688  -1.6259  -1.6105  -1.6043  -1.5963  -1.5883  -1.5866
    -1.5817  -1.5805  -1.5723  -1.5530  -1.5193  -1.5082  -1.5049  -1.5039
    -1.4991  -1.4853  -1.4667  -1.4514  -1.4415  -1.4336  -1.4318  -1.4276
    -1.4237  -1.4140  -1.4095  -1.3930  -1.3890  -1.3779  -1.3513  -1.3427
    -1.3371  -1.3188  -1.3022  -1.2828  -1.2626  -1.2487  -1.2332  -1.2310
    -1.2065  -1.1964  -1.1510  -1.1490  -1.1458  -1.1409  -1.1398  -1.1316
    -1.1227  -1.1133  -1.0889  -1.0731  -1.0687  -1.0432  -1.0393  -1.0344
    -1.0308  -1.0280  -1.0135  -1.0104  -1.0092  -1.0060  -0.9981  -0.9692
    -0.9662  -0.9653  -0.9536  -0.9383  -0.9327  -0.9240  -0.9040  -0.8995
    -0.8841  -0.8533  -0.8471  -0.8339  -0.8095  -0.8003  -0.7925  -0.7907
    -0.7850  -0.7843  -0.7800  -0.7762  -0.7680  -0.7564  -0.7445  -0.7436
    -0.7391  -0.7365  -0.7325  -0.7004  -0.6996  -0.6916  -0.6829  -0.6704
    -0.6660  -0.6544  -0.6366  -0.5981  -0.5961  -0.5893  -0.5878  -0.5859
    -0.5818  -0.5774  -0.5610  -0.5586  -0.5530  -0.5512  -0.5496  -0.5425
    -0.5109  -0.5086  -0.5073  -0.4997  -0.4988  -0.4933  -0.4928  -0.4761
    -0.4736  -0.4721  -0.4594  -0.4326  -0.4290  -0.4232  -0.4183  -0.4168
    -0.3434  -0.3389  -0.3379  -0.3370  -0.3288  -0.3267  -0.2922  -0.2804
    -0.2792  -0.2500  -0.2472  -0.2253  -0.1273  -0.1206  -0.0224   0.3920
     0.3928   0.3957   0.3970   0.4556   0.4690   0.8439   0.8467   0.8847
     0.8906   1.0037   1.0814   1.1857   1.1989   1.4056   1.4289   2.0406
     2.0463   2.1984   2.2119   2.3321   2.3479   2.4414   2.4421   2.5958
     2.8319   2.8406   2.9587   3.1765   3.1893   3.2616   3.2658   3.3644
     3.3809   3.5577   3.5934   3.6372   3.8369   3.8393   3.8950   3.9071
     4.1561   4.1586   4.1731   4.4064   4.4433   4.4523   4.4937   4.8252
     4.8309   4.8581   4.9889   5.1634   5.1700   5.1804   5.2506   5.4686
     5.7738   5.9355   5.9474   5.9577   5.9655   6.0242   6.0303   6.1044
     6.1200   6.1468   6.1642   6.1890   6.1980   6.2083   6.2299   6.2534
     6.2636   6.4369   6.5751   6.6883   6.7418   6.7957   6.8917   6.9059
     6.9116   7.0141   7.0234

          k =-0.5000 0.0000 0.1111 (136853 PWs)   bands (ev):

   -19.1239  -6.9933  -6.3204  -5.9230  -5.9202  -5.2447  -4.9120  -4.9095
    -4.8750  -4.8700  -4.5113  -4.5087  -4.4119  -4.4111  -4.3972  -4.3749
    -4.3551  -4.2452  -4.2435  -4.2201  -4.1766  -4.1759  -4.1085  -4.1069
    -4.1049  -4.1004  -4.0790  -4.0762  -4.0709  -4.0094  -3.9999  -3.9723
    -3.9695  -3.9592  -3.9581  -3.9356  -3.9353  -3.9127  -3.9049  -3.9042
    -3.8788  -3.8264  -3.8254  -3.7788  -3.7757  -3.7209  -3.7197  -3.6654
    -3.6647  -3.6633  -3.6627  -3.6277  -3.5928  -3.5912  -3.5842  -3.5819
    -3.5804  -3.5619  -3.5506  -3.5425  -3.4831  -3.4822  -3.4795  -3.4536
    -3.4465  -3.3852  -3.3745  -3.3530  -3.3402  -3.3140  -3.3134  -3.2985
    -3.2824  -3.2520  -3.2240  -3.2194  -3.2054  -3.2015  -3.1544  -3.1496
    -3.1430  -3.1087  -3.0820  -3.0766  -3.0688  -3.0673  -3.0579  -3.0549
    -3.0489  -3.0463  -3.0391  -2.9977  -2.9604  -2.9583  -2.9464  -2.9438
    -2.9180  -2.9112  -2.9086  -2.8866  -2.8432  -2.8408  -2.8348  -2.7955
    -2.7876  -2.7765  -2.7752  -2.7494  -2.7460  -2.7166  -2.6812  -2.6800
    -2.6599  -2.6498  -2.6380  -2.6362  -2.5876  -2.5858  -2.5528  -2.5309
    -2.5294  -2.5092  -2.5060  -2.4951  -2.4929  -2.4839  -2.4640  -2.4618
    -2.4167  -2.4154  -2.4139  -2.3994  -2.3986  -2.3910  -2.3848  -2.3838
    -2.3811  -2.3797  -2.3732  -2.3649  -2.3620  -2.3588  -2.3299  -2.3251
    -2.3244  -2.3233  -2.3217  -2.3202  -2.3176  -2.2947  -2.2900  -2.2773
    -2.2738  -2.2569  -2.2555  -2.2497  -2.2463  -2.2454  -2.2429  -2.2297
    -2.2260  -2.2225  -2.2214  -2.2077  -2.1791  -2.1784  -2.1379  -2.1364
    -2.1153  -2.1141  -2.0863  -2.0845  -2.0647  -2.0580  -2.0447  -2.0369
    -2.0107  -2.0036  -1.9909  -1.9832  -1.9799  -1.9762  -1.9711  -1.9679
    -1.9455  -1.9358  -1.9317  -1.8746  -1.8690  -1.8673  -1.8651  -1.8624
    -1.8317  -1.8077  -1.8049  -1.7807  -1.7781  -1.7218  -1.7193  -1.6914
    -1.6798  -1.6688  -1.6259  -1.6105  -1.6043  -1.5963  -1.5883  -1.5866
    -1.5817  -1.5805  -1.5723  -1.5530  -1.5193  -1.5082  -1.5049  -1.5039
    -1.4991  -1.4853  -1.4667  -1.4514  -1.4415  -1.4336  -1.4318  -1.4276
    -1.4237  -1.4140  -1.4095  -1.3930  -1.3890  -1.3779  -1.3513  -1.3427
    -1.3371  -1.3188  -1.3022  -1.2828  -1.2626  -1.2487  -1.2332  -1.2310
    -1.2065  -1.1964  -1.1510  -1.1490  -1.1458  -1.1409  -1.1398  -1.1316
    -1.1227  -1.1133  -1.0889  -1.0731  -1.0687  -1.0432  -1.0393  -1.0344
    -1.0308  -1.0280  -1.0135  -1.0104  -1.0092  -1.0060  -0.9981  -0.9692
    -0.9662  -0.9653  -0.9536  -0.9383  -0.9327  -0.9240  -0.9040  -0.8995
    -0.8841  -0.8533  -0.8471  -0.8339  -0.8095  -0.8003  -0.7925  -0.7907
    -0.7850  -0.7843  -0.7800  -0.7762  -0.7680  -0.7564  -0.7445  -0.7436
    -0.7391  -0.7365  -0.7325  -0.7004  -0.6996  -0.6916  -0.6829  -0.6704
    -0.6660  -0.6544  -0.6366  -0.5981  -0.5961  -0.5893  -0.5878  -0.5859
    -0.5818  -0.5774  -0.5610  -0.5586  -0.5530  -0.5512  -0.5496  -0.5425
    -0.5109  -0.5086  -0.5073  -0.4997  -0.4987  -0.4933  -0.4928  -0.4761
    -0.4736  -0.4721  -0.4594  -0.4326  -0.4290  -0.4232  -0.4183  -0.4168
    -0.3434  -0.3389  -0.3379  -0.3370  -0.3288  -0.3267  -0.2922  -0.2804
    -0.2792  -0.2500  -0.2472  -0.2253  -0.1273  -0.1206  -0.0224   0.3920
     0.3928   0.3957   0.3970   0.4556   0.4690   0.8439   0.8467   0.8847
     0.8906   1.0037   1.0814   1.1857   1.1989   1.4056   1.4289   2.0406
     2.0463   2.1984   2.2119   2.3321   2.3479   2.4414   2.4421   2.5958
     2.8319   2.8406   2.9587   3.1765   3.1893   3.2616   3.2658   3.3644
     3.3809   3.5577   3.5934   3.6372   3.8369   3.8393   3.8950   3.9071
     4.1561   4.1586   4.1731   4.4064   4.4433   4.4523   4.4937   4.8252
     4.8309   4.8581   4.9889   5.1634   5.1700   5.1804   5.2506   5.4687
     5.7735   5.9355   5.9474   5.9578   5.9655   6.0242   6.0303   6.1042
     6.1214   6.1461   6.1641   6.1889   6.1980   6.2080   6.2298   6.2534
     6.2634   6.4378   6.5748   6.6864   6.7428   6.7992   6.8916   6.9058
     6.9126   7.0181   7.0250

          k =-0.2500 0.1443 0.1111 (136898 PWs)   bands (ev):

   -19.1239  -6.9937  -6.5297  -5.7390  -5.4484  -5.3892  -5.3884  -4.8508
    -4.8503  -4.7199  -4.7183  -4.5640  -4.5360  -4.4707  -4.4401  -4.4377
    -4.4040  -4.4036  -4.2751  -4.2334  -4.2332  -4.1741  -4.1543  -4.1529
    -4.0501  -4.0499  -4.0140  -4.0138  -4.0133  -3.9874  -3.9653  -3.9649
    -3.8631  -3.8580  -3.8580  -3.8382  -3.8211  -3.8207  -3.8096  -3.8084
    -3.7964  -3.7664  -3.7651  -3.7642  -3.7638  -3.7340  -3.7329  -3.7142
    -3.7137  -3.7034  -3.6650  -3.6603  -3.6269  -3.6150  -3.6124  -3.6051
    -3.6050  -3.5319  -3.5309  -3.4989  -3.4975  -3.4942  -3.4259  -3.4251
    -3.4136  -3.4099  -3.3841  -3.3807  -3.3796  -3.3783  -3.2772  -3.2249
    -3.2198  -3.2008  -3.1966  -3.1877  -3.1779  -3.1751  -3.1529  -3.1449
    -3.1023  -3.0988  -3.0863  -3.0840  -3.0647  -3.0185  -3.0168  -2.9977
    -2.9927  -2.9916  -2.9519  -2.9510  -2.9438  -2.9422  -2.9277  -2.9270
    -2.8890  -2.8882  -2.8674  -2.8659  -2.8633  -2.8624  -2.8588  -2.7849
    -2.7833  -2.7807  -2.7525  -2.7509  -2.6925  -2.6901  -2.6620  -2.6614
    -2.6489  -2.6478  -2.6411  -2.6135  -2.6123  -2.6020  -2.5857  -2.5636
    -2.5609  -2.5588  -2.5398  -2.5387  -2.5291  -2.5268  -2.5260  -2.5239
    -2.5138  -2.4682  -2.4382  -2.4374  -2.4224  -2.4084  -2.4026  -2.4010
    -2.3944  -2.3924  -2.3906  -2.3639  -2.3617  -2.3614  -2.3517  -2.3508
    -2.3360  -2.3099  -2.3082  -2.3070  -2.3053  -2.3050  -2.2587  -2.2312
    -2.2287  -2.2273  -2.2217  -2.2110  -2.2025  -2.2012  -2.1818  -2.1817
    -2.1532  -2.1492  -2.1473  -2.1324  -2.1301  -2.1287  -2.1002  -2.0959
    -2.0580  -2.0504  -2.0478  -2.0457  -2.0437  -2.0418  -2.0376  -2.0360
    -2.0337  -2.0317  -2.0271  -2.0133  -2.0112  -1.8976  -1.8858  -1.8651
    -1.8501  -1.8455  -1.8389  -1.8374  -1.8321  -1.8216  -1.8206  -1.8173
    -1.8152  -1.7984  -1.7921  -1.7881  -1.7852  -1.7736  -1.7718  -1.7523
    -1.7498  -1.7238  -1.7211  -1.7009  -1.6906  -1.6792  -1.6729  -1.6540
    -1.6514  -1.6491  -1.6325  -1.6219  -1.6181  -1.6134  -1.6109  -1.5926
    -1.5849  -1.5763  -1.5687  -1.5519  -1.5348  -1.5295  -1.4841  -1.4761
    -1.4697  -1.4620  -1.4590  -1.4343  -1.4327  -1.4131  -1.4010  -1.3991
    -1.3850  -1.3588  -1.3564  -1.3409  -1.3378  -1.3308  -1.3130  -1.3113
    -1.2821  -1.2789  -1.2776  -1.2372  -1.2165  -1.2126  -1.2041  -1.1980
    -1.1867  -1.1809  -1.1728  -1.1601  -1.1541  -1.1414  -1.1144  -1.1133
    -1.0999  -1.0679  -1.0655  -1.0544  -1.0522  -1.0513  -1.0475  -1.0455
    -1.0353  -1.0296  -1.0024  -1.0010  -0.9909  -0.9877  -0.9851  -0.9672
    -0.9601  -0.9468  -0.9311  -0.9233  -0.8990  -0.8295  -0.8184  -0.8131
    -0.8125  -0.8048  -0.8025  -0.7965  -0.7795  -0.7675  -0.7639  -0.7557
    -0.7475  -0.7403  -0.7380  -0.7188  -0.7166  -0.7080  -0.6909  -0.6340
    -0.6324  -0.6019  -0.5958  -0.5937  -0.5894  -0.5868  -0.5860  -0.5823
    -0.5737  -0.5699  -0.5356  -0.5312  -0.5178  -0.4987  -0.4964  -0.4872
    -0.4853  -0.4753  -0.4738  -0.4724  -0.4709  -0.4656  -0.4544  -0.4493
    -0.4460  -0.4192  -0.4170  -0.4149  -0.4042  -0.4023  -0.3846  -0.3533
    -0.3527  -0.3438  -0.3425  -0.2759  -0.2738  -0.2396  -0.2394  -0.1818
    -0.1810  -0.1796  -0.1563  -0.1547   0.0707   0.0943   0.4208   0.4212
     0.5082   0.5270   0.7069   0.7311   0.7453   0.8661   0.8736   1.3012
     1.3015   1.3191   1.5798   1.6107   1.6129   1.8816   1.9019   1.9648
     1.9677   1.9888   2.0057   2.2207   2.2245   2.3118   2.3133   2.3838
     2.4455   2.4677   2.6157   2.7152   3.1478   3.1534   3.1562   3.1640
     3.2082   3.2164   3.5042   3.5062   3.7784   3.7947   3.8905   4.2018
     4.2362   4.2468   4.4393   4.4832   4.5415   4.5433   4.6349   4.7523
     4.7559   4.8676   4.8740   5.1709   5.2348   5.2436   5.3090   5.4226
     5.4454   5.6285   5.6336   5.6581   5.6603   5.7134   5.7203   5.7686
     5.8592   6.0541   6.2634   6.3269   6.3448   6.4580   6.4625   6.4697
     6.4824   6.5425   6.6616   6.7065   6.7236   6.8322   6.9078   6.9279
     6.9750   7.0397   7.0681

          k =-0.2500-0.1443-0.1111 (136898 PWs)   bands (ev):

   -19.1239  -6.9937  -6.5297  -5.7390  -5.4484  -5.3892  -5.3885  -4.8508
    -4.8503  -4.7198  -4.7184  -4.5641  -4.5360  -4.4707  -4.4402  -4.4377
    -4.4040  -4.4035  -4.2751  -4.2335  -4.2331  -4.1739  -4.1544  -4.1530
    -4.0501  -4.0498  -4.0141  -4.0137  -4.0134  -3.9875  -3.9653  -3.9649
    -3.8635  -3.8582  -3.8578  -3.8382  -3.8211  -3.8207  -3.8095  -3.8083
    -3.7964  -3.7665  -3.7651  -3.7641  -3.7637  -3.7340  -3.7329  -3.7142
    -3.7136  -3.7032  -3.6649  -3.6603  -3.6273  -3.6143  -3.6119  -3.6052
    -3.6048  -3.5318  -3.5309  -3.4994  -3.4972  -3.4938  -3.4264  -3.4253
    -3.4133  -3.4101  -3.3858  -3.3805  -3.3796  -3.3787  -3.2739  -3.2240
    -3.2210  -3.2012  -3.1987  -3.1866  -3.1777  -3.1752  -3.1526  -3.1453
    -3.1022  -3.0994  -3.0857  -3.0843  -3.0649  -3.0187  -3.0167  -2.9978
    -2.9925  -2.9918  -2.9517  -2.9511  -2.9438  -2.9425  -2.9291  -2.9256
    -2.8889  -2.8877  -2.8678  -2.8664  -2.8631  -2.8620  -2.8586  -2.7840
    -2.7832  -2.7811  -2.7526  -2.7507  -2.6927  -2.6913  -2.6618  -2.6607
    -2.6490  -2.6477  -2.6412  -2.6133  -2.6127  -2.6021  -2.5857  -2.5628
    -2.5609  -2.5584  -2.5396  -2.5388  -2.5289  -2.5275  -2.5259  -2.5238
    -2.5139  -2.4680  -2.4386  -2.4373  -2.4219  -2.4085  -2.4019  -2.4017
    -2.3945  -2.3926  -2.3906  -2.3642  -2.3620  -2.3618  -2.3519  -2.3504
    -2.3357  -2.3093  -2.3084  -2.3069  -2.3057  -2.3045  -2.2588  -2.2314
    -2.2287  -2.2273  -2.2217  -2.2111  -2.2045  -2.2010  -2.1819  -2.1814
    -2.1536  -2.1480  -2.1473  -2.1350  -2.1297  -2.1284  -2.0981  -2.0959
    -2.0575  -2.0503  -2.0481  -2.0464  -2.0441  -2.0420  -2.0383  -2.0360
    -2.0339  -2.0317  -2.0277  -2.0141  -2.0104  -1.9051  -1.8851  -1.8634
    -1.8494  -1.8450  -1.8392  -1.8369  -1.8299  -1.8224  -1.8187  -1.8175
    -1.8156  -1.8016  -1.7922  -1.7879  -1.7855  -1.7731  -1.7712  -1.7533
    -1.7505  -1.7252  -1.7208  -1.6936  -1.6911  -1.6786  -1.6719  -1.6532
    -1.6518  -1.6487  -1.6323  -1.6250  -1.6182  -1.6138  -1.6106  -1.5890
    -1.5847  -1.5781  -1.5693  -1.5502  -1.5352  -1.5276  -1.4867  -1.4757
    -1.4708  -1.4609  -1.4597  -1.4345  -1.4334  -1.4137  -1.4006  -1.3984
    -1.3859  -1.3627  -1.3552  -1.3390  -1.3376  -1.3287  -1.3147  -1.3112
    -1.2828  -1.2797  -1.2781  -1.2392  -1.2152  -1.2130  -1.2027  -1.1924
    -1.1869  -1.1763  -1.1723  -1.1675  -1.1539  -1.1415  -1.1141  -1.1127
    -1.1003  -1.0695  -1.0637  -1.0568  -1.0521  -1.0514  -1.0479  -1.0457
    -1.0298  -1.0291  -1.0034  -1.0021  -0.9905  -0.9877  -0.9839  -0.9710
    -0.9648  -0.9446  -0.9324  -0.9223  -0.8904  -0.8318  -0.8182  -0.8130
    -0.8121  -0.8058  -0.8017  -0.7945  -0.7793  -0.7691  -0.7621  -0.7531
    -0.7474  -0.7410  -0.7384  -0.7195  -0.7151  -0.7077  -0.6954  -0.6345
    -0.6339  -0.5994  -0.5959  -0.5949  -0.5888  -0.5880  -0.5859  -0.5828
    -0.5731  -0.5690  -0.5396  -0.5311  -0.5136  -0.4986  -0.4967  -0.4866
    -0.4846  -0.4746  -0.4741  -0.4720  -0.4710  -0.4683  -0.4540  -0.4490
    -0.4467  -0.4191  -0.4179  -0.4153  -0.4045  -0.4034  -0.3847  -0.3531
    -0.3524  -0.3434  -0.3415  -0.2773  -0.2739  -0.2397  -0.2392  -0.1821
    -0.1809  -0.1796  -0.1558  -0.1550   0.0755   0.0875   0.4208   0.4210
     0.5133   0.5224   0.7029   0.7318   0.7477   0.8670   0.8727   1.3014
     1.3019   1.3178   1.5821   1.6109   1.6136   1.8880   1.8922   1.9658
     1.9664   1.9935   2.0021   2.2213   2.2251   2.3121   2.3128   2.3852
     2.4509   2.4600   2.6159   2.7182   3.1462   3.1526   3.1571   3.1619
     3.2101   3.2163   3.5040   3.5069   3.7853   3.7902   3.8907   4.2009
     4.2402   4.2436   4.4450   4.4738   4.5377   4.5470   4.6372   4.7464
     4.7578   4.8704   4.8722   5.1723   5.2247   5.2494   5.3113   5.4231
     5.4465   5.6273   5.6319   5.6588   5.6607   5.7190   5.7231   5.7588
     5.8581   6.0432   6.2692   6.3169   6.3641   6.4604   6.4646   6.4757
     6.4796   6.5404   6.6526   6.7100   6.7171   6.8206   6.9182   6.9356
     6.9706   7.0346   7.0752

          k = 0.2500 0.1443-0.1111 (136898 PWs)   bands (ev):

   -19.1239  -6.9938  -6.5297  -5.7390  -5.4484  -5.3892  -5.3885  -4.8508
    -4.8503  -4.7198  -4.7184  -4.5641  -4.5360  -4.4707  -4.4402  -4.4377
    -4.4040  -4.4035  -4.2750  -4.2335  -4.2331  -4.1739  -4.1544  -4.1530
    -4.0501  -4.0498  -4.0141  -4.0137  -4.0134  -3.9875  -3.9653  -3.9649
    -3.8635  -3.8582  -3.8578  -3.8382  -3.8211  -3.8207  -3.8095  -3.8083
    -3.7964  -3.7665  -3.7651  -3.7641  -3.7637  -3.7340  -3.7328  -3.7142
    -3.7136  -3.7032  -3.6649  -3.6603  -3.6273  -3.6143  -3.6119  -3.6052
    -3.6048  -3.5318  -3.5309  -3.4994  -3.4972  -3.4938  -3.4264  -3.4253
    -3.4133  -3.4101  -3.3857  -3.3805  -3.3796  -3.3787  -3.2739  -3.2240
    -3.2210  -3.2012  -3.1987  -3.1866  -3.1777  -3.1753  -3.1526  -3.1453
    -3.1022  -3.0994  -3.0857  -3.0843  -3.0649  -3.0187  -3.0167  -2.9978
    -2.9925  -2.9918  -2.9517  -2.9511  -2.9438  -2.9425  -2.9291  -2.9256
    -2.8889  -2.8877  -2.8678  -2.8664  -2.8631  -2.8620  -2.8586  -2.7840
    -2.7832  -2.7811  -2.7526  -2.7507  -2.6927  -2.6913  -2.6618  -2.6607
    -2.6490  -2.6477  -2.6412  -2.6133  -2.6127  -2.6021  -2.5857  -2.5628
    -2.5609  -2.5584  -2.5396  -2.5388  -2.5289  -2.5275  -2.5259  -2.5238
    -2.5139  -2.4680  -2.4386  -2.4373  -2.4219  -2.4085  -2.4019  -2.4017
    -2.3945  -2.3926  -2.3906  -2.3642  -2.3620  -2.3618  -2.3519  -2.3504
    -2.3357  -2.3093  -2.3084  -2.3069  -2.3057  -2.3045  -2.2588  -2.2314
    -2.2287  -2.2273  -2.2217  -2.2111  -2.2045  -2.2010  -2.1819  -2.1814
    -2.1536  -2.1480  -2.1473  -2.1350  -2.1297  -2.1284  -2.0981  -2.0959
    -2.0575  -2.0503  -2.0481  -2.0464  -2.0441  -2.0420  -2.0383  -2.0360
    -2.0339  -2.0317  -2.0277  -2.0141  -2.0104  -1.9051  -1.8851  -1.8634
    -1.8494  -1.8450  -1.8392  -1.8369  -1.8299  -1.8224  -1.8187  -1.8175
    -1.8156  -1.8016  -1.7922  -1.7879  -1.7854  -1.7731  -1.7712  -1.7533
    -1.7505  -1.7252  -1.7208  -1.6936  -1.6911  -1.6786  -1.6719  -1.6532
    -1.6518  -1.6487  -1.6323  -1.6250  -1.6182  -1.6138  -1.6106  -1.5890
    -1.5847  -1.5781  -1.5693  -1.5502  -1.5352  -1.5276  -1.4867  -1.4757
    -1.4708  -1.4609  -1.4597  -1.4345  -1.4334  -1.4137  -1.4006  -1.3984
    -1.3859  -1.3627  -1.3552  -1.3390  -1.3376  -1.3287  -1.3147  -1.3112
    -1.2828  -1.2797  -1.2781  -1.2392  -1.2152  -1.2130  -1.2027  -1.1924
    -1.1869  -1.1763  -1.1723  -1.1675  -1.1539  -1.1415  -1.1141  -1.1127
    -1.1003  -1.0695  -1.0637  -1.0568  -1.0521  -1.0514  -1.0479  -1.0456
    -1.0298  -1.0291  -1.0034  -1.0021  -0.9905  -0.9877  -0.9839  -0.9710
    -0.9648  -0.9446  -0.9324  -0.9223  -0.8904  -0.8318  -0.8182  -0.8130
    -0.8121  -0.8058  -0.8017  -0.7945  -0.7793  -0.7691  -0.7620  -0.7531
    -0.7474  -0.7410  -0.7385  -0.7195  -0.7151  -0.7076  -0.6954  -0.6345
    -0.6339  -0.5994  -0.5959  -0.5950  -0.5888  -0.5880  -0.5859  -0.5828
    -0.5731  -0.5690  -0.5396  -0.5311  -0.5136  -0.4985  -0.4967  -0.4866
    -0.4846  -0.4746  -0.4741  -0.4720  -0.4710  -0.4683  -0.4540  -0.4490
    -0.4467  -0.4191  -0.4179  -0.4153  -0.4045  -0.4034  -0.3847  -0.3531
    -0.3524  -0.3434  -0.3415  -0.2773  -0.2739  -0.2397  -0.2392  -0.1821
    -0.1809  -0.1796  -0.1558  -0.1550   0.0755   0.0875   0.4208   0.4210
     0.5133   0.5224   0.7029   0.7318   0.7477   0.8670   0.8727   1.3014
     1.3019   1.3178   1.5821   1.6109   1.6136   1.8880   1.8922   1.9658
     1.9664   1.9935   2.0021   2.2213   2.2251   2.3121   2.3128   2.3852
     2.4509   2.4600   2.6159   2.7182   3.1462   3.1526   3.1571   3.1619
     3.2101   3.2163   3.5040   3.5069   3.7853   3.7902   3.8907   4.2009
     4.2402   4.2436   4.4450   4.4738   4.5377   4.5470   4.6372   4.7464
     4.7578   4.8704   4.8722   5.1723   5.2247   5.2494   5.3112   5.4231
     5.4467   5.6273   5.6319   5.6588   5.6607   5.7190   5.7231   5.7592
     5.8564   6.0453   6.2701   6.3166   6.3640   6.4605   6.4645   6.4754
     6.4793   6.5367   6.6522   6.7088   6.7166   6.8222   6.9185   6.9353
     6.9711   7.0381   7.0798

          k = 0.0000-0.2887 0.1111 (136898 PWs)   bands (ev):

   -19.1239  -6.9937  -6.5297  -5.7391  -5.4485  -5.3891  -5.3883  -4.8506
    -4.8502  -4.7204  -4.7187  -4.5641  -4.5360  -4.4711  -4.4389  -4.4378
    -4.4039  -4.4032  -4.2750  -4.2337  -4.2330  -4.1746  -4.1536  -4.1531
    -4.0500  -4.0498  -4.0141  -4.0137  -4.0133  -3.9878  -3.9652  -3.9648
    -3.8647  -3.8584  -3.8577  -3.8393  -3.8211  -3.8207  -3.8087  -3.8086
    -3.7978  -3.7653  -3.7651  -3.7640  -3.7638  -3.7335  -3.7323  -3.7141
    -3.7138  -3.7064  -3.6612  -3.6596  -3.6298  -3.6130  -3.6122  -3.6050
    -3.6048  -3.5311  -3.5310  -3.5003  -3.4952  -3.4939  -3.4260  -3.4254
    -3.4142  -3.4100  -3.3831  -3.3805  -3.3797  -3.3788  -3.2763  -3.2244
    -3.2201  -3.2006  -3.1971  -3.1842  -3.1778  -3.1753  -3.1528  -3.1520
    -3.1022  -3.1008  -3.0859  -3.0838  -3.0646  -3.0181  -3.0169  -2.9975
    -2.9926  -2.9909  -2.9523  -2.9513  -2.9436  -2.9432  -2.9281  -2.9253
    -2.8887  -2.8879  -2.8679  -2.8661  -2.8633  -2.8630  -2.8584  -2.7848
    -2.7840  -2.7808  -2.7522  -2.7514  -2.6920  -2.6898  -2.6624  -2.6612
    -2.6483  -2.6475  -2.6412  -2.6129  -2.6125  -2.6021  -2.5858  -2.5638
    -2.5613  -2.5599  -2.5398  -2.5389  -2.5291  -2.5277  -2.5248  -2.5223
    -2.5138  -2.4681  -2.4382  -2.4373  -2.4209  -2.4081  -2.4027  -2.4014
    -2.3938  -2.3934  -2.3907  -2.3633  -2.3620  -2.3614  -2.3521  -2.3508
    -2.3359  -2.3105  -2.3085  -2.3081  -2.3051  -2.3046  -2.2589  -2.2306
    -2.2281  -2.2276  -2.2216  -2.2112  -2.2036  -2.2014  -2.1818  -2.1814
    -2.1532  -2.1485  -2.1475  -2.1321  -2.1295  -2.1287  -2.0990  -2.0963
    -2.0579  -2.0503  -2.0478  -2.0442  -2.0437  -2.0422  -2.0379  -2.0360
    -2.0331  -2.0309  -2.0287  -2.0151  -2.0118  -1.8969  -1.8854  -1.8706
    -1.8480  -1.8459  -1.8384  -1.8372  -1.8293  -1.8222  -1.8194  -1.8179
    -1.8143  -1.7975  -1.7922  -1.7879  -1.7849  -1.7758  -1.7710  -1.7519
    -1.7501  -1.7234  -1.7215  -1.7000  -1.6911  -1.6796  -1.6734  -1.6559
    -1.6525  -1.6488  -1.6326  -1.6236  -1.6180  -1.6128  -1.6110  -1.5931
    -1.5849  -1.5772  -1.5686  -1.5494  -1.5358  -1.5297  -1.4870  -1.4755
    -1.4706  -1.4614  -1.4588  -1.4345  -1.4320  -1.4064  -1.4007  -1.3985
    -1.3892  -1.3588  -1.3563  -1.3397  -1.3380  -1.3245  -1.3135  -1.3114
    -1.2817  -1.2789  -1.2781  -1.2396  -1.2158  -1.2132  -1.2043  -1.1988
    -1.1861  -1.1819  -1.1730  -1.1655  -1.1545  -1.1413  -1.1132  -1.1113
    -1.1006  -1.0693  -1.0653  -1.0559  -1.0518  -1.0513  -1.0470  -1.0462
    -1.0302  -1.0294  -1.0032  -1.0014  -0.9913  -0.9883  -0.9860  -0.9675
    -0.9600  -0.9477  -0.9270  -0.9242  -0.8974  -0.8291  -0.8182  -0.8129
    -0.8125  -0.8073  -0.8020  -0.7956  -0.7795  -0.7679  -0.7637  -0.7532
    -0.7478  -0.7418  -0.7370  -0.7190  -0.7166  -0.7075  -0.6929  -0.6343
    -0.6328  -0.6021  -0.5959  -0.5944  -0.5897  -0.5868  -0.5865  -0.5835
    -0.5728  -0.5694  -0.5364  -0.5311  -0.5149  -0.4989  -0.4973  -0.4875
    -0.4852  -0.4750  -0.4741  -0.4730  -0.4711  -0.4642  -0.4541  -0.4494
    -0.4469  -0.4191  -0.4161  -0.4147  -0.4041  -0.4030  -0.3846  -0.3535
    -0.3520  -0.3439  -0.3414  -0.2767  -0.2741  -0.2402  -0.2388  -0.1826
    -0.1803  -0.1795  -0.1575  -0.1549   0.0703   0.0962   0.4208   0.4212
     0.5083   0.5273   0.7047   0.7319   0.7460   0.8664   0.8735   1.3010
     1.3016   1.3198   1.5804   1.6105   1.6129   1.8823   1.9006   1.9642
     1.9672   1.9900   2.0052   2.2194   2.2250   2.3121   2.3131   2.3849
     2.4460   2.4655   2.6165   2.7159   3.1478   3.1533   3.1562   3.1633
     3.2074   3.2175   3.5040   3.5065   3.7803   3.7934   3.8889   4.2019
     4.2366   4.2452   4.4542   4.4702   4.5401   4.5439   4.6354   4.7517
     4.7569   4.8693   4.8741   5.1708   5.2364   5.2458   5.3199   5.4009
     5.4467   5.6286   5.6321   5.6568   5.6615   5.7168   5.7213   5.7591
     5.8703   6.0662   6.2719   6.3091   6.3350   6.4538   6.4643   6.4733
     6.4827   6.5345   6.6595   6.7146   6.7221   6.8434   6.8821   6.9449
     6.9698   7.0423   7.0643

          k = 0.0000 0.2887 0.1111 (136898 PWs)   bands (ev):

   -19.1239  -6.9937  -6.5297  -5.7391  -5.4485  -5.3891  -5.3883  -4.8506
    -4.8502  -4.7204  -4.7187  -4.5641  -4.5360  -4.4711  -4.4389  -4.4378
    -4.4039  -4.4032  -4.2750  -4.2337  -4.2330  -4.1746  -4.1536  -4.1531
    -4.0500  -4.0498  -4.0141  -4.0137  -4.0133  -3.9878  -3.9652  -3.9648
    -3.8647  -3.8584  -3.8577  -3.8393  -3.8210  -3.8207  -3.8087  -3.8086
    -3.7978  -3.7653  -3.7651  -3.7640  -3.7638  -3.7335  -3.7323  -3.7141
    -3.7138  -3.7064  -3.6612  -3.6596  -3.6298  -3.6130  -3.6122  -3.6050
    -3.6048  -3.5311  -3.5310  -3.5003  -3.4952  -3.4939  -3.4260  -3.4254
    -3.4142  -3.4100  -3.3831  -3.3805  -3.3797  -3.3788  -3.2763  -3.2244
    -3.2201  -3.2006  -3.1971  -3.1842  -3.1778  -3.1753  -3.1528  -3.1520
    -3.1022  -3.1008  -3.0859  -3.0838  -3.0646  -3.0181  -3.0169  -2.9975
    -2.9926  -2.9909  -2.9523  -2.9513  -2.9436  -2.9432  -2.9281  -2.9253
    -2.8887  -2.8879  -2.8679  -2.8661  -2.8633  -2.8630  -2.8584  -2.7848
    -2.7841  -2.7808  -2.7522  -2.7514  -2.6920  -2.6898  -2.6624  -2.6612
    -2.6483  -2.6475  -2.6412  -2.6129  -2.6125  -2.6021  -2.5858  -2.5638
    -2.5613  -2.5599  -2.5398  -2.5389  -2.5291  -2.5277  -2.5248  -2.5223
    -2.5138  -2.4681  -2.4382  -2.4373  -2.4209  -2.4081  -2.4027  -2.4014
    -2.3938  -2.3934  -2.3907  -2.3633  -2.3620  -2.3614  -2.3521  -2.3508
    -2.3359  -2.3105  -2.3085  -2.3081  -2.3051  -2.3046  -2.2589  -2.2306
    -2.2281  -2.2276  -2.2216  -2.2112  -2.2036  -2.2014  -2.1818  -2.1814
    -2.1532  -2.1485  -2.1475  -2.1321  -2.1295  -2.1287  -2.0990  -2.0963
    -2.0579  -2.0503  -2.0478  -2.0442  -2.0437  -2.0422  -2.0379  -2.0360
    -2.0331  -2.0309  -2.0287  -2.0151  -2.0118  -1.8969  -1.8854  -1.8706
    -1.8480  -1.8459  -1.8384  -1.8372  -1.8293  -1.8222  -1.8194  -1.8179
    -1.8143  -1.7975  -1.7922  -1.7879  -1.7849  -1.7758  -1.7710  -1.7519
    -1.7501  -1.7234  -1.7215  -1.7000  -1.6911  -1.6796  -1.6734  -1.6559
    -1.6525  -1.6488  -1.6326  -1.6236  -1.6180  -1.6128  -1.6110  -1.5931
    -1.5849  -1.5772  -1.5686  -1.5494  -1.5358  -1.5298  -1.4870  -1.4755
    -1.4706  -1.4614  -1.4588  -1.4345  -1.4320  -1.4064  -1.4007  -1.3985
    -1.3892  -1.3588  -1.3562  -1.3397  -1.3380  -1.3245  -1.3135  -1.3114
    -1.2817  -1.2789  -1.2781  -1.2396  -1.2158  -1.2132  -1.2043  -1.1988
    -1.1861  -1.1819  -1.1730  -1.1655  -1.1545  -1.1413  -1.1132  -1.1113
    -1.1006  -1.0693  -1.0653  -1.0559  -1.0518  -1.0513  -1.0470  -1.0462
    -1.0302  -1.0295  -1.0032  -1.0014  -0.9913  -0.9883  -0.9860  -0.9675
    -0.9600  -0.9477  -0.9270  -0.9242  -0.8974  -0.8291  -0.8182  -0.8129
    -0.8125  -0.8074  -0.8020  -0.7956  -0.7795  -0.7679  -0.7637  -0.7532
    -0.7478  -0.7418  -0.7370  -0.7190  -0.7166  -0.7075  -0.6929  -0.6343
    -0.6328  -0.6021  -0.5959  -0.5944  -0.5897  -0.5868  -0.5865  -0.5835
    -0.5728  -0.5694  -0.5364  -0.5311  -0.5149  -0.4989  -0.4973  -0.4875
    -0.4852  -0.4750  -0.4741  -0.4730  -0.4711  -0.4642  -0.4541  -0.4494
    -0.4469  -0.4191  -0.4161  -0.4148  -0.4041  -0.4030  -0.3846  -0.3535
    -0.3520  -0.3439  -0.3414  -0.2767  -0.2741  -0.2402  -0.2388  -0.1826
    -0.1803  -0.1795  -0.1575  -0.1549   0.0703   0.0962   0.4208   0.4212
     0.5083   0.5273   0.7047   0.7319   0.7460   0.8664   0.8735   1.3010
     1.3016   1.3198   1.5804   1.6105   1.6129   1.8823   1.9006   1.9642
     1.9672   1.9900   2.0052   2.2194   2.2250   2.3121   2.3131   2.3849
     2.4460   2.4655   2.6165   2.7159   3.1478   3.1533   3.1562   3.1633
     3.2074   3.2175   3.5040   3.5065   3.7803   3.7934   3.8889   4.2019
     4.2366   4.2452   4.4542   4.4702   4.5401   4.5439   4.6354   4.7517
     4.7569   4.8693   4.8741   5.1708   5.2364   5.2458   5.3200   5.4008
     5.4466   5.6285   5.6321   5.6568   5.6615   5.7168   5.7214   5.7586
     5.8725   6.0639   6.2702   6.3091   6.3342   6.4535   6.4642   6.4731
     6.4828   6.5423   6.6573   6.7147   6.7222   6.8383   6.8822   6.9449
     6.9697   7.0474   7.0736

     the Fermi energy is     1.4464 ev

!    total energy              =   -6604.42824585 Ry
     Harris-Foulkes estimate   =   -6604.42824585 Ry
     estimated scf accuracy    <          4.0E-09 Ry

     The total energy is the sum of the following terms:

     one-electron contribution =  -48784.77853165 Ry
     hartree contribution      =   24893.70345853 Ry
     xc contribution           =   -3204.99646525 Ry
     ewald contribution        =   20491.64043251 Ry
     smearing contrib. (-TS)   =       0.00286002 Ry

     convergence has been achieved in  22 iterations

     Writing output data file 3312736.save

     init_run     :    225.50s CPU    235.44s WALL (       1 calls)
     electrons    :   9761.16s CPU  10376.26s WALL (       1 calls)

     Called by init_run:
     wfcinit      :    167.83s CPU    176.19s WALL (       1 calls)
     potinit      :     16.04s CPU     17.22s WALL (       1 calls)

     Called by electrons:
     c_bands      :   8343.78s CPU   8850.41s WALL (      23 calls)
     sum_band     :   1047.95s CPU   1134.31s WALL (      23 calls)
     v_of_rho     :    111.74s CPU    128.85s WALL (      23 calls)
     newd         :    273.88s CPU    278.95s WALL (      23 calls)
     mix_rho      :      2.70s CPU      3.06s WALL (      23 calls)
     vdW_energy   :      7.07s CPU      9.33s WALL (      23 calls)
     vdW_ffts     :     59.94s CPU     68.39s WALL (      46 calls)
     vdW_v        :     13.17s CPU     14.35s WALL (      23 calls)

     Called by c_bands:
     init_us_2    :     11.48s CPU     11.96s WALL (     564 calls)
     cegterg      :   8241.70s CPU   8730.63s WALL (     276 calls)

     Called by *egterg:
     h_psi        :   3606.15s CPU   3974.21s WALL (    1460 calls)
     s_psi        :    488.28s CPU    495.01s WALL (    1460 calls)
     g_psi        :      6.16s CPU      6.34s WALL (    1172 calls)
     cdiaghg      :   2385.30s CPU   2401.20s WALL (    1436 calls)

     Called by h_psi:
     add_vuspsi   :    494.75s CPU    503.86s WALL (    1460 calls)

     General routines
     calbec       :    752.02s CPU    756.92s WALL (    1736 calls)
     fft          :    146.12s CPU    160.15s WALL (    1518 calls)
     ffts         :      1.64s CPU      1.86s WALL (      46 calls)
     fftw         :   2904.78s CPU   3307.33s WALL (  674060 calls)
     interpolate  :      4.58s CPU      5.41s WALL (      46 calls)
     davcio       :      0.01s CPU      0.20s WALL (      12 calls)

     Parallel routines
     fft_scatter  :   2146.12s CPU   2476.67s WALL (  675624 calls)

     PWSCF        :     2h46m CPU        2h57m WALL


   This run was terminated on:  14: 9:23  24Aug2015            

=------------------------------------------------------------------------------=
   JOB DONE.
=------------------------------------------------------------------------------=
