Setting SGE environment for SCC

     Program PWSCF v.5.1.2 starts on 23Aug2015 at 23:39:49 

     This program is part of the open-source Quantum ESPRESSO suite
     for quantum simulation of materials; please cite
         "P. Giannozzi et al., J. Phys.:Condens. Matter 21 395502 (2009);
          URL http://www.quantum-espresso.org", 
     in publications or presentations arising from this work. More details at
     http://www.quantum-espresso.org/quote

     Parallel version (MPI), running on    32 processors
     R & G space division:  proc/nbgrp/npool/nimage =      32
     Reading input from bridge.H2.Au5455.d.2.4.phi.0.psi.90.in
Warning: card &IONS ignored
Warning: card / ignored
Warning: card &CELL ignored
Warning: card / ignored

     Current dimensions of program PWSCF are:
     Max number of different atomic species (ntypx) = 10
     Max number of k-points (npk) =  40000
     Max angular momentum in pseudopotentials (lmaxx) =  3

     IMPORTANT: XC functional enforced from input :
     Exchange-correlation      = VDW-DF ( 1  4  4  0 1 0)
     Any further DFT definition will be discarded
     Please, verify this is what you really want


     Subspace diagonalization in iterative solution of the eigenvalue problem:
     a serial algorithm will be used


     Parallelization info
     --------------------
     sticks:   dense  smooth     PW     G-vecs:    dense   smooth      PW
     Min         445     223     58                96775    34191    4534
     Max         446     224     59                96790    34246    4540
     Sum       14269    7147   1867              3097177  1095093  145167


     Title: 
     bridge.H2.Au5455.d.2.4.phi.0.psi.90                                        


     bravais-lattice index     =            4
     lattice parameter (alat)  =      22.7436  a.u.
     unit-cell volume          =   22924.1508 (a.u.)^3
     number of atoms/cell      =           67
     number of atomic types    =            3
     number of electrons       =       712.00
     number of Kohn-Sham states=          427
     kinetic-energy cutoff     =      50.0000  Ry
     charge density cutoff     =     400.0000  Ry
     convergence threshold     =      1.0E-08
     mixing beta               =       0.7000
     number of iterations used =            8  plain     mixing
     Exchange-correlation      = VDW-DF ( 1  4  4  0 1 0)

     celldm(1)=  22.743643  celldm(2)=   0.000000  celldm(3)=   2.250000
     celldm(4)=   0.000000  celldm(5)=   0.000000  celldm(6)=   0.000000

     crystal axes: (cart. coord. in units of alat)
               a(1) = (   1.000000   0.000000   0.000000 )  
               a(2) = (  -0.500000   0.866025   0.000000 )  
               a(3) = (   0.000000   0.000000   2.250000 )  

     reciprocal axes: (cart. coord. in units 2 pi/alat)
               b(1) = (  1.000000  0.577350 -0.000000 )  
               b(2) = (  0.000000  1.154701  0.000000 )  
               b(3) = (  0.000000 -0.000000  0.444444 )  


     PseudoPot. # 1 for Au read from file:
     /home/scc/andrejb/qe/pseudo/Au.pbe-nd-van.UPF
     MD5 check sum: 458681b50f36d87ef23c61b04bba420a
     Pseudo is Ultrasoft + core correction, Zval = 11.0
     Generated by new atomic code, or converted to UPF format
     Using radial grid of  985 points,  3 beta functions with: 
                l(1) =   1
                l(2) =   2
                l(3) =   2
     Q(r) pseudized with  8 coefficients,  rinner =    1.100   1.100   1.100
                                                       1.100   1.100

     PseudoPot. # 2 for H  read from file:
     /home/scc/andrejb/qe/pseudo/H.pbe-van_ak.UPF
     MD5 check sum: 403db7282739603aa925980fa9b8608d
     Pseudo is Ultrasoft, Zval =  1.0
     Generated by new atomic code, or converted to UPF format
     Using radial grid of  615 points,  1 beta functions with: 
                l(1) =   0
     Q(r) pseudized with  8 coefficients,  rinner =    0.800

     PseudoPot. # 3 for O  read from file:
     /home/scc/andrejb/qe/pseudo/O.pbe-van_ak.UPF
     MD5 check sum: 4b8c549914a63cae506c6ff22b5af4fe
     Pseudo is Ultrasoft, Zval =  6.0
     Generated by new atomic code, or converted to UPF format
     Using radial grid of  737 points,  4 beta functions with: 
                l(1) =   0
                l(2) =   0
                l(3) =   1
                l(4) =   1
     Q(r) pseudized with  8 coefficients,  rinner =    0.800   0.800   0.800


     vdW kernel table read from file vdW_kernel_table
     MD5 check sum: 48e77a2e26edf626eeb0eaa751ad5cac

     atomic species   valence    mass     pseudopotential
        Au            11.00   196.96657     Au( 1.00)
        H              1.00     1.01000     H ( 1.00)
        O              6.00    16.00000     O ( 1.00)

     No symmetry found



   Cartesian axes

     site n.     atom                  positions (alat units)
         1           O   tau(   1) = (   0.3100235   0.2113033   0.8277953  )
         2           H   tau(   2) = (   0.2915728   0.2885783   0.8124295  )
         3           H   tau(   3) = (   0.2571742   0.1686747   0.7838011  )
         4           Au  tau(   4) = (   0.3540481   0.6132292   0.0000000  )
         5           Au  tau(   5) = (   0.4790062   0.3967954   0.0000000  )
         6           Au  tau(   6) = (   0.6039644   0.1803616   0.0000000  )
         7           Au  tau(   7) = (   0.7289225  -0.0360723   0.0000000  )
         8           Au  tau(   8) = (   0.1041318   0.6132292   0.0000000  )
         9           Au  tau(   9) = (   0.2290899   0.3967954   0.0000000  )
        10           Au  tau(  10) = (   0.3540481   0.1803616   0.0000000  )
        11           Au  tau(  11) = (   0.4790062  -0.0360723   0.0000000  )
        12           Au  tau(  12) = (  -0.1457845   0.6132292   0.0000000  )
        13           Au  tau(  13) = (  -0.0208264   0.3967954   0.0000000  )
        14           Au  tau(  14) = (   0.1041318   0.1803616   0.0000000  )
        15           Au  tau(  15) = (   0.2290899  -0.0360723   0.0000000  )
        16           Au  tau(  16) = (  -0.3957008   0.6132292   0.0000000  )
        17           Au  tau(  17) = (  -0.2707426   0.3967954   0.0000000  )
        18           Au  tau(  18) = (  -0.1457845   0.1803616   0.0000000  )
        19           Au  tau(  19) = (  -0.0208264  -0.0360723   0.0000000  )
        20           Au  tau(  20) = (   0.4790062   0.6853738   0.2040557  )
        21           Au  tau(  21) = (   0.6039644   0.4689400   0.2040557  )
        22           Au  tau(  22) = (   0.7289225   0.2525061   0.2040557  )
        23           Au  tau(  23) = (   0.8538806   0.0360723   0.2040557  )
        24           Au  tau(  24) = (   0.2290899   0.6853738   0.2040557  )
        25           Au  tau(  25) = (   0.3540481   0.4689400   0.2040557  )
        26           Au  tau(  26) = (   0.4790062   0.2525061   0.2040557  )
        27           Au  tau(  27) = (   0.6039644   0.0360723   0.2040557  )
        28           Au  tau(  28) = (  -0.0208264   0.6853738   0.2040557  )
        29           Au  tau(  29) = (   0.1041318   0.4689400   0.2040557  )
        30           Au  tau(  30) = (   0.2290899   0.2525061   0.2040557  )
        31           Au  tau(  31) = (   0.3540481   0.0360723   0.2040557  )
        32           Au  tau(  32) = (  -0.2707426   0.6853738   0.2040557  )
        33           Au  tau(  33) = (  -0.1457845   0.4689400   0.2040557  )
        34           Au  tau(  34) = (  -0.0208264   0.2525061   0.2040557  )
        35           Au  tau(  35) = (   0.1041318   0.0360723   0.2040557  )
        36           Au  tau(  36) = (   0.3541162   0.7576593   0.4066483  )
        37           Au  tau(  37) = (   0.4791000   0.5411421   0.4066695  )
        38           Au  tau(  38) = (   0.6040570   0.3246862   0.4066617  )
        39           Au  tau(  39) = (   0.7290270   0.1081684   0.4066529  )
        40           Au  tau(  40) = (   0.1041162   0.7576236   0.4066247  )
        41           Au  tau(  41) = (   0.2291001   0.5411063   0.4066455  )
        42           Au  tau(  42) = (   0.3540567   0.3246505   0.4066380  )
        43           Au  tau(  43) = (   0.4790276   0.1081324   0.4066292  )
        44           Au  tau(  44) = (  -0.1458201   0.7576104   0.4066224  )
        45           Au  tau(  45) = (  -0.0208365   0.5410930   0.4066438  )
        46           Au  tau(  46) = (   0.1041202   0.3246372   0.4066359  )
        47           Au  tau(  47) = (   0.2290908   0.1081193   0.4066273  )
        48           Au  tau(  48) = (  -0.3958167   0.7575791   0.4065812  )
        49           Au  tau(  49) = (  -0.2708328   0.5410617   0.4066025  )
        50           Au  tau(  50) = (  -0.1458763   0.3246061   0.4065947  )
        51           Au  tau(  51) = (  -0.0209056   0.1080882   0.4065858  )
        52           Au  tau(  52) = (   0.3541085   0.6133344   0.6129762  )
        53           Au  tau(  53) = (   0.4790780   0.3968269   0.6129968  )
        54           Au  tau(  54) = (   0.6040356   0.1803811   0.6129859  )
        55           Au  tau(  55) = (   0.7290165  -0.0361221   0.6129385  )
        56           Au  tau(  56) = (   0.1041243   0.6133091   0.6130022  )
        57           Au  tau(  57) = (   0.2290941   0.3968013   0.6130241  )
        58           Au  tau(  58) = (   0.3540515   0.1803552   0.6130121  )
        59           Au  tau(  59) = (   0.4790323  -0.0361475   0.6129659  )
        60           Au  tau(  60) = (  -0.1458030   0.6133014   0.6129980  )
        61           Au  tau(  61) = (  -0.0208339   0.3967936   0.6130188  )
        62           Au  tau(  62) = (   0.1041239   0.1803477   0.6130083  )
        63           Au  tau(  63) = (   0.2291046  -0.0361554   0.6129607  )
        64           Au  tau(  64) = (  -0.3957908   0.6132739   0.6129471  )
        65           Au  tau(  65) = (  -0.2708208   0.3967658   0.6129688  )
        66           Au  tau(  66) = (  -0.1458636   0.1803200   0.6129569  )
        67           Au  tau(  67) = (  -0.0208823  -0.0361826   0.6129110  )

     number of k points=    12  Marzari-Vanderbilt smearing, width (Ry)=  0.0200
                       cart. coord. in units 2pi/alat
        k(    1) = (   0.2500000   0.4330127   0.1111111), wk =   0.1666667
        k(    2) = (   0.2500000  -0.1443376   0.1111111), wk =   0.1666667
        k(    3) = (  -0.2500000  -0.4330127   0.1111111), wk =   0.1666667
        k(    4) = (  -0.2500000   0.4330127  -0.1111111), wk =   0.1666667
        k(    5) = (   0.2500000  -0.4330127  -0.1111111), wk =   0.1666667
        k(    6) = (   0.5000000   0.0000000   0.1111111), wk =   0.1666667
        k(    7) = (  -0.5000000   0.0000000   0.1111111), wk =   0.1666667
        k(    8) = (  -0.2500000   0.1443376   0.1111111), wk =   0.1666667
        k(    9) = (  -0.2500000  -0.1443376  -0.1111111), wk =   0.1666667
        k(   10) = (   0.2500000   0.1443376  -0.1111111), wk =   0.1666667
        k(   11) = (   0.0000000  -0.2886751   0.1111111), wk =   0.1666667
        k(   12) = (   0.0000000   0.2886751   0.1111111), wk =   0.1666667

     Dense  grid:  3097177 G-vectors     FFT dimensions: ( 150, 150, 360)

     Smooth grid:  1095093 G-vectors     FFT dimensions: ( 108, 108, 240)

     Largest allocated arrays     est. size (Mb)     dimensions
        Kohn-Sham Wavefunctions        28.01 Mb     (    4299,  427)
        NL pseudopotentials            55.23 Mb     (    4299,  842)
        Each V/rho on FFT grid          4.12 Mb     (  270000)
        Each G-vector array             0.74 Mb     (   96788)
        G-vector shells                 0.16 Mb     (   21404)
     Largest temporary arrays     est. size (Mb)     dimensions
        Auxiliary wavefunctions       112.04 Mb     (    4299, 1708)
        Each subspace H/S matrix       44.51 Mb     (    1708, 1708)
        Each <psi_i|beta_j> matrix      5.49 Mb     (     842,  427)
        Arrays for rho mixing          32.96 Mb     (  270000,    8)

     Initial potential from superposition of free atoms
     Check: negative starting charge=   -1.730375

     starting charge  711.25682, renormalised to  712.00000

     negative rho (up, down):  1.732E+00 0.000E+00


     ************************************************************************
     *
     * You are using vdW-DF for exchange-correlation in this calculation.
     * Please cite the following three references that made this development
     * possible:
     *
     *   M. Dion, H. Rydberg, E. Schroder, D. C. Langreth, and
     *   B. I. Lundqvist, Phys. Rev. Lett. 92, 246401 (2004).
     *
     *   T. Thonhauser, V. R. Cooper, S. Li, A. Puzder, P. Hyldgaard, and
     *   D. C. Langreth, Phys. Rev. B 76, 125112 (2007).
     *
     *   G. Roman-Perez and J. M. Soler, Phys. Rev. Lett. 103, 096102 (2009).
     *
     *
     * If you are using vdW-DF2, please also cite:
     *
     *   K. Lee, E. D. Murray, L. Kong, B. I. Lundqvist, and
     *   D. C. Langreth, Phys. Rev. B 82, 081101(R) (2010).
     *
     *
     * If you are calculating the stress with vdW-DF, please also cite:
     *
     *   R. Sabatini, E. Kucukbenli, B. Kolb, T. Thonhauser, and
     *   S. de Gironcoli, J. Phys.: Condens. Matter 24, 424209 (2012).
     *
     ************************************************************************

     Carrying out vdW-DF run using the following parameters:

     Nqs =      20    Nr_points =    1024   r_max =   100.000
     q_mesh =
               0.00001000     0.04494208     0.09755937     0.15916263
               0.23128650     0.31572767     0.41458969     0.53033537
               0.66584808     0.82450364     1.01025438     1.22772762
               1.48234092     1.78043706     2.12944203     2.53805004
               3.01644009     3.57652955     4.23227104     5.00000000

     Gradients computed in reciprocal space

     ************************************************************************


     Starting wfc are  582 randomized atomic wfcs

     total cpu time spent up to now is      164.4 secs

     Self-consistent Calculation

     iteration #  1     ecut=    50.00 Ry     beta=0.70
     Davidson diagonalization with overlap
     ethr =  1.00E-02,  avg # of iterations =  3.0

     Threshold (ethr) on eigenvalues was too large:
     Diagonalizing with lowered threshold

     Davidson diagonalization with overlap
     ethr =  3.39E-04,  avg # of iterations =  3.7

     negative rho (up, down):  1.727E+00 0.000E+00

     total cpu time spent up to now is      790.5 secs

     total energy              =   -6602.80352268 Ry
     Harris-Foulkes estimate   =   -6605.00021857 Ry
     estimated scf accuracy    <       2.75697021 Ry

     iteration #  2     ecut=    50.00 Ry     beta=0.70
     Davidson diagonalization with overlap
     ethr =  3.87E-04,  avg # of iterations = 11.3

     negative rho (up, down):  1.726E+00 0.000E+00

     total cpu time spent up to now is     1773.0 secs

     total energy              =   -6596.92660358 Ry
     Harris-Foulkes estimate   =   -6610.05039763 Ry
     estimated scf accuracy    <      73.11699723 Ry

     iteration #  3     ecut=    50.00 Ry     beta=0.70
     Davidson diagonalization with overlap
     ethr =  3.87E-04,  avg # of iterations =  5.5

     negative rho (up, down):  1.736E+00 0.000E+00

     total cpu time spent up to now is     2382.7 secs

     total energy              =   -6603.30654553 Ry
     Harris-Foulkes estimate   =   -6604.99173533 Ry
     estimated scf accuracy    <       7.25315033 Ry

     iteration #  4     ecut=    50.00 Ry     beta=0.70
     Davidson diagonalization with overlap
     ethr =  3.87E-04,  avg # of iterations =  6.0

     negative rho (up, down):  1.739E+00 0.000E+00

     total cpu time spent up to now is     2774.3 secs

     total energy              =   -6603.17827176 Ry
     Harris-Foulkes estimate   =   -6605.48365323 Ry
     estimated scf accuracy    <      25.92097821 Ry

     iteration #  5     ecut=    50.00 Ry     beta=0.70
     Davidson diagonalization with overlap
     ethr =  3.87E-04,  avg # of iterations =  5.5

     negative rho (up, down):  1.748E+00 0.000E+00

     total cpu time spent up to now is     3134.6 secs

     total energy              =   -6604.36331599 Ry
     Harris-Foulkes estimate   =   -6604.52625491 Ry
     estimated scf accuracy    <       0.73070021 Ry

     iteration #  6     ecut=    50.00 Ry     beta=0.70
     Davidson diagonalization with overlap
     ethr =  1.03E-04,  avg # of iterations =  6.7

     negative rho (up, down):  1.752E+00 0.000E+00

     total cpu time spent up to now is     3488.8 secs

     total energy              =   -6604.40328570 Ry
     Harris-Foulkes estimate   =   -6604.44435001 Ry
     estimated scf accuracy    <       0.12035196 Ry

     iteration #  7     ecut=    50.00 Ry     beta=0.70
     Davidson diagonalization with overlap
     ethr =  1.69E-05,  avg # of iterations = 11.0

     negative rho (up, down):  1.754E+00 0.000E+00

     total cpu time spent up to now is     3954.7 secs

     total energy              =   -6604.41311982 Ry
     Harris-Foulkes estimate   =   -6604.43367750 Ry
     estimated scf accuracy    <       0.07922453 Ry

     iteration #  8     ecut=    50.00 Ry     beta=0.70
     Davidson diagonalization with overlap
     ethr =  1.11E-05,  avg # of iterations =  4.3

     negative rho (up, down):  1.755E+00 0.000E+00

     total cpu time spent up to now is     4283.6 secs

     total energy              =   -6604.41605176 Ry
     Harris-Foulkes estimate   =   -6604.42712996 Ry
     estimated scf accuracy    <       0.03673559 Ry

     iteration #  9     ecut=    50.00 Ry     beta=0.70
     Davidson diagonalization with overlap
     ethr =  5.16E-06,  avg # of iterations =  4.5

     negative rho (up, down):  1.756E+00 0.000E+00

     total cpu time spent up to now is     4624.2 secs

     total energy              =   -6604.41923517 Ry
     Harris-Foulkes estimate   =   -6604.42236691 Ry
     estimated scf accuracy    <       0.00833763 Ry

     iteration # 10     ecut=    50.00 Ry     beta=0.70
     Davidson diagonalization with overlap
     ethr =  1.17E-06,  avg # of iterations =  5.5

     negative rho (up, down):  1.756E+00 0.000E+00

     total cpu time spent up to now is     4988.4 secs

     total energy              =   -6604.42037195 Ry
     Harris-Foulkes estimate   =   -6604.42145789 Ry
     estimated scf accuracy    <       0.00348367 Ry

     iteration # 11     ecut=    50.00 Ry     beta=0.70
     Davidson diagonalization with overlap
     ethr =  4.89E-07,  avg # of iterations =  2.0

     negative rho (up, down):  1.757E+00 0.000E+00

     total cpu time spent up to now is     5268.9 secs

     total energy              =   -6604.42079206 Ry
     Harris-Foulkes estimate   =   -6604.42112906 Ry
     estimated scf accuracy    <       0.00110027 Ry

     iteration # 12     ecut=    50.00 Ry     beta=0.70
     Davidson diagonalization with overlap
     ethr =  1.55E-07,  avg # of iterations =  2.0

     negative rho (up, down):  1.757E+00 0.000E+00

     total cpu time spent up to now is     5543.5 secs

     total energy              =   -6604.42093666 Ry
     Harris-Foulkes estimate   =   -6604.42099244 Ry
     estimated scf accuracy    <       0.00017760 Ry

     iteration # 13     ecut=    50.00 Ry     beta=0.70
     Davidson diagonalization with overlap
     ethr =  2.49E-08,  avg # of iterations =  3.0

     negative rho (up, down):  1.757E+00 0.000E+00

     total cpu time spent up to now is     5868.5 secs

     total energy              =   -6604.42093951 Ry
     Harris-Foulkes estimate   =   -6604.42099179 Ry
     estimated scf accuracy    <       0.00021144 Ry

     iteration # 14     ecut=    50.00 Ry     beta=0.70
     Davidson diagonalization with overlap
     ethr =  2.49E-08,  avg # of iterations =  2.0

     negative rho (up, down):  1.757E+00 0.000E+00

     total cpu time spent up to now is     6143.9 secs

     total energy              =   -6604.42095890 Ry
     Harris-Foulkes estimate   =   -6604.42097628 Ry
     estimated scf accuracy    <       0.00012388 Ry

     iteration # 15     ecut=    50.00 Ry     beta=0.70
     Davidson diagonalization with overlap
     ethr =  1.74E-08,  avg # of iterations =  1.0

     negative rho (up, down):  1.757E+00 0.000E+00

     total cpu time spent up to now is     6397.9 secs

     total energy              =   -6604.42096818 Ry
     Harris-Foulkes estimate   =   -6604.42096929 Ry
     estimated scf accuracy    <       0.00000754 Ry

     iteration # 16     ecut=    50.00 Ry     beta=0.70
     Davidson diagonalization with overlap
     ethr =  1.06E-09,  avg # of iterations =  2.0

     negative rho (up, down):  1.757E+00 0.000E+00

     total cpu time spent up to now is     6669.6 secs

     total energy              =   -6604.42096847 Ry
     Harris-Foulkes estimate   =   -6604.42096915 Ry
     estimated scf accuracy    <       0.00000257 Ry

     iteration # 17     ecut=    50.00 Ry     beta=0.70
     Davidson diagonalization with overlap
     ethr =  3.61E-10,  avg # of iterations =  2.0

     negative rho (up, down):  1.757E+00 0.000E+00

     total cpu time spent up to now is     6941.1 secs

     total energy              =   -6604.42096869 Ry
     Harris-Foulkes estimate   =   -6604.42096896 Ry
     estimated scf accuracy    <       0.00000090 Ry

     iteration # 18     ecut=    50.00 Ry     beta=0.70
     Davidson diagonalization with overlap
     ethr =  1.26E-10,  avg # of iterations =  2.0

     negative rho (up, down):  1.757E+00 0.000E+00

     total cpu time spent up to now is     7232.0 secs

     total energy              =   -6604.42096877 Ry
     Harris-Foulkes estimate   =   -6604.42096890 Ry
     estimated scf accuracy    <       0.00000047 Ry

     iteration # 19     ecut=    50.00 Ry     beta=0.70
     Davidson diagonalization with overlap
     ethr =  6.62E-11,  avg # of iterations =  3.0

     negative rho (up, down):  1.757E+00 0.000E+00

     total cpu time spent up to now is     7516.4 secs

     total energy              =   -6604.42096880 Ry
     Harris-Foulkes estimate   =   -6604.42096884 Ry
     estimated scf accuracy    <       0.00000006 Ry

     iteration # 20     ecut=    50.00 Ry     beta=0.70
     Davidson diagonalization with overlap
     ethr =  8.30E-12,  avg # of iterations =  3.0

     negative rho (up, down):  1.757E+00 0.000E+00

     total cpu time spent up to now is     7822.2 secs

     End of self-consistent calculation

          k = 0.2500 0.4330 0.1111 (136853 PWs)   bands (ev):

   -19.3933  -7.2184  -6.3765  -5.9788  -5.9758  -5.3055  -4.9666  -4.9654
    -4.9390  -4.9261  -4.5662  -4.5646  -4.4677  -4.4662  -4.4526  -4.4289
    -4.4257  -4.3007  -4.2980  -4.2748  -4.2313  -4.2304  -4.1691  -4.1628
    -4.1602  -4.1582  -4.1374  -4.1328  -4.1265  -4.0830  -4.0566  -4.0272
    -4.0251  -4.0144  -4.0136  -3.9904  -3.9899  -3.9675  -3.9598  -3.9589
    -3.9354  -3.8817  -3.8809  -3.8338  -3.8313  -3.7857  -3.7783  -3.7350
    -3.7215  -3.7177  -3.7173  -3.6835  -3.6721  -3.6500  -3.6381  -3.6366
    -3.6361  -3.6146  -3.6061  -3.5992  -3.5825  -3.5404  -3.5352  -3.5154
    -3.5031  -3.4982  -3.4311  -3.4160  -3.4028  -3.3954  -3.3703  -3.3678
    -3.3528  -3.3362  -3.2801  -3.2767  -3.2612  -3.2605  -3.2108  -3.2062
    -3.1934  -3.1636  -3.1374  -3.1337  -3.1264  -3.1213  -3.1152  -3.1097
    -3.1060  -3.0994  -3.0924  -3.0543  -3.0170  -3.0129  -3.0031  -3.0013
    -2.9726  -2.9678  -2.9654  -2.9481  -2.8968  -2.8953  -2.8861  -2.8525
    -2.8441  -2.8314  -2.8307  -2.8053  -2.7980  -2.7706  -2.7399  -2.7352
    -2.7173  -2.7046  -2.6945  -2.6920  -2.6453  -2.6427  -2.6088  -2.5893
    -2.5862  -2.5649  -2.5617  -2.5524  -2.5492  -2.5405  -2.5197  -2.5168
    -2.4838  -2.4718  -2.4697  -2.4577  -2.4558  -2.4485  -2.4451  -2.4398
    -2.4392  -2.4339  -2.4291  -2.4273  -2.4201  -2.4160  -2.3991  -2.3831
    -2.3802  -2.3788  -2.3775  -2.3753  -2.3720  -2.3494  -2.3468  -2.3329
    -2.3298  -2.3220  -2.3105  -2.3078  -2.3029  -2.3017  -2.2993  -2.2922
    -2.2847  -2.2792  -2.2756  -2.2659  -2.2418  -2.2336  -2.1945  -2.1916
    -2.1759  -2.1717  -2.1604  -2.1430  -2.1178  -2.1134  -2.1044  -2.0960
    -2.0820  -2.0639  -2.0472  -2.0463  -2.0375  -2.0343  -2.0277  -2.0245
    -2.0092  -1.9969  -1.9920  -1.9530  -1.9280  -1.9242  -1.9207  -1.9176
    -1.8906  -1.8644  -1.8625  -1.8576  -1.8361  -1.8030  -1.7789  -1.7745
    -1.7383  -1.7269  -1.7000  -1.6662  -1.6645  -1.6578  -1.6522  -1.6446
    -1.6409  -1.6354  -1.6290  -1.6251  -1.5734  -1.5706  -1.5627  -1.5594
    -1.5493  -1.5405  -1.5190  -1.5066  -1.5046  -1.4913  -1.4891  -1.4859
    -1.4795  -1.4724  -1.4657  -1.4619  -1.4461  -1.4449  -1.4100  -1.4004
    -1.3951  -1.3805  -1.3668  -1.3568  -1.3209  -1.3170  -1.2895  -1.2871
    -1.2840  -1.2568  -1.2082  -1.2063  -1.2036  -1.2011  -1.1958  -1.1907
    -1.1831  -1.1704  -1.1639  -1.1336  -1.1251  -1.0986  -1.0962  -1.0923
    -1.0877  -1.0851  -1.0717  -1.0663  -1.0646  -1.0629  -1.0570  -1.0266
    -1.0235  -1.0203  -1.0155  -0.9937  -0.9897  -0.9851  -0.9666  -0.9542
    -0.9465  -0.9107  -0.9026  -0.8896  -0.8682  -0.8574  -0.8514  -0.8479
    -0.8422  -0.8411  -0.8370  -0.8294  -0.8256  -0.8098  -0.8019  -0.7977
    -0.7957  -0.7940  -0.7845  -0.7575  -0.7551  -0.7470  -0.7395  -0.7278
    -0.7216  -0.7141  -0.7049  -0.6539  -0.6530  -0.6453  -0.6440  -0.6416
    -0.6395  -0.6308  -0.6175  -0.6114  -0.6090  -0.6082  -0.6061  -0.5840
    -0.5696  -0.5645  -0.5632  -0.5553  -0.5521  -0.5498  -0.5470  -0.5358
    -0.5300  -0.5282  -0.4950  -0.4883  -0.4834  -0.4793  -0.4728  -0.4492
    -0.4006  -0.3961  -0.3931  -0.3906  -0.3844  -0.3757  -0.3472  -0.3370
    -0.3360  -0.3063  -0.3033  -0.2358  -0.1804  -0.1706  -0.0785   0.3351
     0.3361   0.3409   0.3416   0.3966   0.4342   0.7854   0.7900   0.8298
     0.8313   0.9511   1.0267   1.1291   1.1495   1.3455   1.3888   1.9806
     1.9988   2.1408   2.1582   2.2701   2.3086   2.3860   2.3864   2.5404
     2.7765   2.7838   2.9047   3.1179   3.1401   3.2052   3.2081   3.3049
     3.3250   3.4975   3.5431   3.5794   3.7803   3.7844   3.8390   3.8591
     4.0896   4.1045   4.1273   4.3502   4.3828   4.3966   4.4409   4.7710
     4.7753   4.7967   4.9381   5.1125   5.1138   5.1403   5.2050   5.5820
     5.8111   5.8860   5.8991   5.9075   5.9294   5.9688   5.9758   6.0486
     6.0787   6.1095   6.1332   6.1373   6.1462   6.1773   6.1905   6.2059
     6.2285   6.5243   6.5979   6.7034   6.7621   6.7757   6.8376   6.8489
     6.8680   6.9617   7.0096

          k = 0.2500-0.1443 0.1111 (136898 PWs)   bands (ev):

   -19.3933  -7.2184  -6.5864  -5.7947  -5.5093  -5.4445  -5.4438  -4.9061
    -4.9055  -4.7809  -4.7734  -4.6258  -4.5985  -4.5260  -4.5004  -4.4943
    -4.4592  -4.4583  -4.3300  -4.2884  -4.2873  -4.2304  -4.2123  -4.2089
    -4.1055  -4.1050  -4.0694  -4.0684  -4.0680  -4.0471  -4.0207  -4.0196
    -3.9369  -3.9134  -3.9124  -3.8953  -3.8764  -3.8756  -3.8710  -3.8639
    -3.8537  -3.8270  -3.8208  -3.8195  -3.8187  -3.7931  -3.7897  -3.7733
    -3.7688  -3.7647  -3.7418  -3.7198  -3.6940  -3.6782  -3.6683  -3.6596
    -3.6593  -3.5892  -3.5860  -3.5845  -3.5546  -3.5498  -3.5094  -3.4801
    -3.4744  -3.4650  -3.4629  -3.4379  -3.4361  -3.4347  -3.4223  -3.2795
    -3.2788  -3.2580  -3.2565  -3.2400  -3.2331  -3.2270  -3.2097  -3.2078
    -3.1581  -3.1573  -3.1416  -3.1390  -3.1199  -3.0756  -3.0735  -3.0548
    -3.0485  -3.0458  -3.0084  -3.0060  -2.9980  -2.9967  -2.9841  -2.9829
    -2.9454  -2.9450  -2.9252  -2.9229  -2.9198  -2.9188  -2.9122  -2.8415
    -2.8390  -2.8356  -2.8101  -2.8070  -2.7512  -2.7462  -2.7187  -2.7154
    -2.7050  -2.7046  -2.6952  -2.6704  -2.6682  -2.6570  -2.6413  -2.6218
    -2.6170  -2.6114  -2.5957  -2.5945  -2.5870  -2.5839  -2.5818  -2.5752
    -2.5679  -2.5227  -2.4986  -2.4940  -2.4861  -2.4678  -2.4598  -2.4585
    -2.4522  -2.4491  -2.4454  -2.4269  -2.4179  -2.4171  -2.4082  -2.4070
    -2.3928  -2.3740  -2.3657  -2.3628  -2.3610  -2.3606  -2.3136  -2.2993
    -2.2841  -2.2829  -2.2786  -2.2657  -2.2618  -2.2576  -2.2373  -2.2371
    -2.2172  -2.2076  -2.2039  -2.1926  -2.1888  -2.1853  -2.1657  -2.1529
    -2.1328  -2.1177  -2.1047  -2.1041  -2.1004  -2.0978  -2.0954  -2.0938
    -2.0893  -2.0866  -2.0851  -2.0687  -2.0676  -2.0186  -1.9443  -1.9394
    -1.9064  -1.9034  -1.8980  -1.8922  -1.8916  -1.8788  -1.8759  -1.8747
    -1.8700  -1.8570  -1.8488  -1.8463  -1.8436  -1.8315  -1.8298  -1.8104
    -1.8069  -1.7803  -1.7772  -1.7614  -1.7501  -1.7366  -1.7316  -1.7226
    -1.7087  -1.7054  -1.6965  -1.6899  -1.6742  -1.6721  -1.6672  -1.6605
    -1.6426  -1.6368  -1.6260  -1.6246  -1.5925  -1.5842  -1.5666  -1.5338
    -1.5328  -1.5173  -1.5153  -1.4961  -1.4896  -1.4837  -1.4585  -1.4566
    -1.4434  -1.4160  -1.4137  -1.4072  -1.3938  -1.3927  -1.3701  -1.3689
    -1.3426  -1.3388  -1.3340  -1.3331  -1.2737  -1.2702  -1.2623  -1.2599
    -1.2459  -1.2389  -1.2303  -1.2243  -1.2118  -1.1981  -1.1726  -1.1699
    -1.1555  -1.1248  -1.1218  -1.1166  -1.1090  -1.1068  -1.1058  -1.1044
    -1.0964  -1.0844  -1.0621  -1.0594  -1.0477  -1.0442  -1.0422  -1.0242
    -1.0193  -1.0045  -0.9940  -0.9803  -0.9502  -0.8873  -0.8778  -0.8704
    -0.8698  -0.8629  -0.8608  -0.8478  -0.8380  -0.8265  -0.8208  -0.8124
    -0.8056  -0.7994  -0.7957  -0.7788  -0.7725  -0.7641  -0.7511  -0.6894
    -0.6883  -0.6594  -0.6518  -0.6505  -0.6463  -0.6420  -0.6414  -0.6359
    -0.6321  -0.6214  -0.5923  -0.5854  -0.5676  -0.5548  -0.5520  -0.5451
    -0.5374  -0.5346  -0.5304  -0.5281  -0.5259  -0.5122  -0.5105  -0.5059
    -0.4873  -0.4756  -0.4739  -0.4628  -0.4590  -0.4400  -0.4364  -0.4090
    -0.4035  -0.3997  -0.3860  -0.3305  -0.3210  -0.2969  -0.2966  -0.2388
    -0.2387  -0.2364  -0.2146  -0.1893   0.0135   0.0565   0.3651   0.3654
     0.4513   0.4855   0.6499   0.6813   0.7054   0.8087   0.8190   1.2454
     1.2463   1.2613   1.5291   1.5552   1.5558   1.8231   1.8505   1.9063
     1.9096   1.9325   1.9580   2.1637   2.1658   2.2567   2.2576   2.3286
     2.3871   2.4185   2.5614   2.6655   3.0830   3.0959   3.0996   3.1135
     3.1511   3.1591   3.4469   3.4504   3.7226   3.7432   3.8346   4.1463
     4.1799   4.1929   4.3976   4.4160   4.4826   4.4947   4.5830   4.6896
     4.7119   4.8116   4.8188   5.1143   5.1665   5.2006   5.3419   5.3689
     5.4574   5.5715   5.5783   5.5965   5.6074   5.6459   5.6726   5.7228
     5.9733   6.0620   6.2624   6.2936   6.3149   6.4049   6.4068   6.4104
     6.4353   6.5949   6.6499   6.6580   6.7335   6.8419   6.8773   6.8956
     6.9478   7.0922   7.1117

          k =-0.2500-0.4330 0.1111 (136853 PWs)   bands (ev):

   -19.3933  -7.2184  -6.3765  -5.9788  -5.9758  -5.3055  -4.9666  -4.9654
    -4.9390  -4.9261  -4.5662  -4.5646  -4.4677  -4.4662  -4.4526  -4.4289
    -4.4257  -4.3007  -4.2980  -4.2748  -4.2313  -4.2304  -4.1691  -4.1628
    -4.1602  -4.1582  -4.1374  -4.1328  -4.1265  -4.0830  -4.0566  -4.0272
    -4.0251  -4.0144  -4.0136  -3.9904  -3.9899  -3.9675  -3.9598  -3.9589
    -3.9354  -3.8817  -3.8809  -3.8338  -3.8313  -3.7857  -3.7783  -3.7350
    -3.7215  -3.7177  -3.7173  -3.6835  -3.6721  -3.6500  -3.6381  -3.6366
    -3.6361  -3.6146  -3.6061  -3.5992  -3.5825  -3.5404  -3.5352  -3.5154
    -3.5031  -3.4982  -3.4311  -3.4160  -3.4028  -3.3954  -3.3703  -3.3678
    -3.3528  -3.3362  -3.2801  -3.2767  -3.2612  -3.2605  -3.2108  -3.2062
    -3.1934  -3.1636  -3.1374  -3.1337  -3.1264  -3.1213  -3.1152  -3.1097
    -3.1060  -3.0994  -3.0924  -3.0543  -3.0170  -3.0129  -3.0031  -3.0013
    -2.9726  -2.9678  -2.9654  -2.9481  -2.8968  -2.8953  -2.8861  -2.8525
    -2.8441  -2.8314  -2.8307  -2.8053  -2.7980  -2.7706  -2.7399  -2.7352
    -2.7173  -2.7046  -2.6945  -2.6920  -2.6453  -2.6427  -2.6088  -2.5893
    -2.5862  -2.5649  -2.5617  -2.5524  -2.5492  -2.5405  -2.5197  -2.5168
    -2.4838  -2.4718  -2.4697  -2.4577  -2.4558  -2.4485  -2.4451  -2.4398
    -2.4392  -2.4339  -2.4291  -2.4273  -2.4201  -2.4160  -2.3991  -2.3832
    -2.3802  -2.3788  -2.3775  -2.3753  -2.3720  -2.3494  -2.3468  -2.3329
    -2.3297  -2.3220  -2.3105  -2.3078  -2.3029  -2.3017  -2.2993  -2.2922
    -2.2847  -2.2792  -2.2756  -2.2659  -2.2418  -2.2336  -2.1945  -2.1916
    -2.1759  -2.1717  -2.1604  -2.1430  -2.1178  -2.1134  -2.1044  -2.0960
    -2.0820  -2.0639  -2.0472  -2.0463  -2.0375  -2.0343  -2.0277  -2.0245
    -2.0092  -1.9969  -1.9920  -1.9530  -1.9280  -1.9242  -1.9207  -1.9176
    -1.8906  -1.8644  -1.8625  -1.8576  -1.8361  -1.8030  -1.7789  -1.7745
    -1.7383  -1.7269  -1.7000  -1.6662  -1.6645  -1.6578  -1.6522  -1.6446
    -1.6409  -1.6354  -1.6290  -1.6251  -1.5734  -1.5706  -1.5627  -1.5594
    -1.5493  -1.5405  -1.5190  -1.5066  -1.5046  -1.4913  -1.4891  -1.4859
    -1.4795  -1.4724  -1.4657  -1.4619  -1.4461  -1.4449  -1.4100  -1.4004
    -1.3951  -1.3805  -1.3668  -1.3568  -1.3209  -1.3170  -1.2895  -1.2871
    -1.2840  -1.2568  -1.2082  -1.2063  -1.2036  -1.2011  -1.1958  -1.1907
    -1.1831  -1.1704  -1.1639  -1.1336  -1.1251  -1.0986  -1.0962  -1.0923
    -1.0877  -1.0851  -1.0717  -1.0663  -1.0646  -1.0629  -1.0570  -1.0266
    -1.0235  -1.0203  -1.0155  -0.9937  -0.9897  -0.9851  -0.9666  -0.9542
    -0.9465  -0.9107  -0.9026  -0.8896  -0.8682  -0.8574  -0.8514  -0.8479
    -0.8422  -0.8411  -0.8370  -0.8294  -0.8256  -0.8098  -0.8019  -0.7977
    -0.7957  -0.7940  -0.7845  -0.7575  -0.7551  -0.7470  -0.7395  -0.7278
    -0.7216  -0.7141  -0.7049  -0.6539  -0.6530  -0.6453  -0.6440  -0.6416
    -0.6395  -0.6308  -0.6175  -0.6114  -0.6090  -0.6082  -0.6061  -0.5840
    -0.5696  -0.5645  -0.5632  -0.5553  -0.5521  -0.5498  -0.5470  -0.5358
    -0.5300  -0.5282  -0.4950  -0.4883  -0.4834  -0.4793  -0.4728  -0.4492
    -0.4006  -0.3961  -0.3931  -0.3906  -0.3844  -0.3757  -0.3472  -0.3370
    -0.3360  -0.3063  -0.3033  -0.2358  -0.1804  -0.1706  -0.0785   0.3351
     0.3361   0.3409   0.3416   0.3966   0.4342   0.7854   0.7900   0.8298
     0.8313   0.9511   1.0267   1.1291   1.1495   1.3455   1.3888   1.9806
     1.9988   2.1408   2.1582   2.2701   2.3086   2.3860   2.3864   2.5404
     2.7765   2.7838   2.9047   3.1179   3.1401   3.2052   3.2081   3.3049
     3.3250   3.4975   3.5431   3.5794   3.7803   3.7844   3.8390   3.8591
     4.0896   4.1045   4.1273   4.3502   4.3828   4.3966   4.4409   4.7710
     4.7753   4.7967   4.9381   5.1125   5.1138   5.1403   5.2050   5.5820
     5.8110   5.8860   5.8991   5.9075   5.9294   5.9688   5.9758   6.0486
     6.0787   6.1096   6.1332   6.1372   6.1461   6.1773   6.1905   6.2063
     6.2279   6.5247   6.5981   6.7039   6.7631   6.7744   6.8375   6.8489
     6.8682   6.9617   7.0113

          k =-0.2500 0.4330-0.1111 (136853 PWs)   bands (ev):

   -19.3933  -7.2183  -6.3765  -5.9803  -5.9743  -5.3056  -4.9664  -4.9661
    -4.9397  -4.9250  -4.5660  -4.5644  -4.4672  -4.4665  -4.4523  -4.4290
    -4.4261  -4.3019  -4.2972  -4.2749  -4.2314  -4.2307  -4.1680  -4.1630
    -4.1615  -4.1580  -4.1357  -4.1332  -4.1270  -4.0828  -4.0564  -4.0273
    -4.0243  -4.0143  -4.0137  -3.9908  -3.9899  -3.9674  -3.9602  -3.9591
    -3.9351  -3.8821  -3.8805  -3.8339  -3.8302  -3.7843  -3.7779  -3.7357
    -3.7210  -3.7176  -3.7174  -3.6831  -3.6737  -3.6503  -3.6414  -3.6365
    -3.6352  -3.6205  -3.6064  -3.5980  -3.5803  -3.5403  -3.5367  -3.5139
    -3.5023  -3.4982  -3.4306  -3.4188  -3.4009  -3.3941  -3.3704  -3.3646
    -3.3528  -3.3359  -3.2808  -3.2776  -3.2623  -3.2584  -3.2117  -3.2065
    -3.1937  -3.1629  -3.1373  -3.1349  -3.1242  -3.1233  -3.1165  -3.1083
    -3.1047  -3.0996  -3.0924  -3.0535  -3.0179  -3.0126  -3.0031  -3.0005
    -2.9724  -2.9677  -2.9642  -2.9484  -2.8969  -2.8948  -2.8886  -2.8519
    -2.8441  -2.8316  -2.8304  -2.8050  -2.8016  -2.7707  -2.7394  -2.7338
    -2.7170  -2.7047  -2.6945  -2.6910  -2.6443  -2.6434  -2.6091  -2.5903
    -2.5852  -2.5658  -2.5615  -2.5522  -2.5492  -2.5406  -2.5205  -2.5175
    -2.4823  -2.4712  -2.4695  -2.4572  -2.4557  -2.4508  -2.4447  -2.4402
    -2.4389  -2.4338  -2.4280  -2.4275  -2.4192  -2.4157  -2.3976  -2.3826
    -2.3808  -2.3782  -2.3769  -2.3735  -2.3722  -2.3501  -2.3477  -2.3318
    -2.3301  -2.3262  -2.3106  -2.3077  -2.3034  -2.3004  -2.2989  -2.2928
    -2.2838  -2.2779  -2.2769  -2.2663  -2.2418  -2.2338  -2.1948  -2.1917
    -2.1770  -2.1714  -2.1644  -2.1406  -2.1202  -2.1139  -2.1024  -2.0970
    -2.0865  -2.0639  -2.0502  -2.0442  -2.0375  -2.0343  -2.0277  -2.0239
    -2.0081  -1.9962  -1.9905  -1.9499  -1.9256  -1.9229  -1.9201  -1.9179
    -1.8919  -1.8669  -1.8605  -1.8575  -1.8348  -1.8035  -1.7799  -1.7715
    -1.7423  -1.7265  -1.6965  -1.6668  -1.6635  -1.6548  -1.6498  -1.6434
    -1.6409  -1.6356  -1.6290  -1.6267  -1.5756  -1.5688  -1.5623  -1.5598
    -1.5481  -1.5426  -1.5319  -1.5079  -1.5034  -1.4916  -1.4885  -1.4863
    -1.4791  -1.4718  -1.4656  -1.4563  -1.4457  -1.4435  -1.4102  -1.3992
    -1.3945  -1.3808  -1.3764  -1.3564  -1.3208  -1.3139  -1.2906  -1.2873
    -1.2839  -1.2563  -1.2091  -1.2049  -1.2031  -1.2007  -1.1972  -1.1903
    -1.1798  -1.1733  -1.1612  -1.1314  -1.1250  -1.0996  -1.0968  -1.0911
    -1.0886  -1.0853  -1.0728  -1.0676  -1.0654  -1.0617  -1.0590  -1.0259
    -1.0223  -1.0212  -1.0152  -0.9959  -0.9906  -0.9840  -0.9641  -0.9556
    -0.9410  -0.9116  -0.9033  -0.8949  -0.8668  -0.8609  -0.8494  -0.8486
    -0.8425  -0.8411  -0.8371  -0.8308  -0.8250  -0.8099  -0.8012  -0.8003
    -0.7946  -0.7935  -0.7837  -0.7561  -0.7556  -0.7496  -0.7403  -0.7267
    -0.7213  -0.7114  -0.7022  -0.6543  -0.6524  -0.6458  -0.6449  -0.6419
    -0.6396  -0.6298  -0.6175  -0.6122  -0.6091  -0.6072  -0.6066  -0.5853
    -0.5672  -0.5651  -0.5626  -0.5560  -0.5522  -0.5501  -0.5477  -0.5355
    -0.5297  -0.5285  -0.4938  -0.4877  -0.4822  -0.4774  -0.4750  -0.4540
    -0.4013  -0.3953  -0.3934  -0.3898  -0.3854  -0.3731  -0.3474  -0.3366
    -0.3350  -0.3068  -0.3034  -0.2384  -0.1834  -0.1640  -0.0759   0.3349
     0.3363   0.3407   0.3418   0.3960   0.4317   0.7835   0.7907   0.8282
     0.8329   0.9493   1.0294   1.1305   1.1499   1.3505   1.3853   1.9804
     1.9962   2.1415   2.1581   2.2744   2.3055   2.3859   2.3866   2.5400
     2.7768   2.7815   2.9053   3.1222   3.1349   3.2030   3.2101   3.3039
     3.3253   3.5095   3.5332   3.5797   3.7797   3.7852   3.8416   3.8537
     4.0985   4.1023   4.1233   4.3501   4.3841   4.3987   4.4392   4.7646
     4.7782   4.8015   4.9381   5.1123   5.1147   5.1629   5.1825   5.5692
     5.8190   5.8860   5.9003   5.9058   5.9226   5.9671   5.9767   6.0446
     6.0807   6.1100   6.1306   6.1388   6.1565   6.1845   6.1911   6.2100
     6.2206   6.5362   6.5831   6.7226   6.7496   6.7685   6.8396   6.8475
     6.8600   6.9614   7.0445

          k = 0.2500-0.4330-0.1111 (136853 PWs)   bands (ev):

   -19.3933  -7.2183  -6.3765  -5.9803  -5.9743  -5.3056  -4.9664  -4.9661
    -4.9397  -4.9250  -4.5660  -4.5644  -4.4672  -4.4665  -4.4523  -4.4290
    -4.4261  -4.3019  -4.2972  -4.2749  -4.2314  -4.2307  -4.1680  -4.1630
    -4.1615  -4.1580  -4.1357  -4.1332  -4.1270  -4.0828  -4.0564  -4.0273
    -4.0243  -4.0143  -4.0137  -3.9908  -3.9899  -3.9674  -3.9602  -3.9591
    -3.9351  -3.8821  -3.8805  -3.8339  -3.8302  -3.7843  -3.7779  -3.7357
    -3.7210  -3.7176  -3.7174  -3.6831  -3.6737  -3.6503  -3.6414  -3.6365
    -3.6352  -3.6205  -3.6064  -3.5980  -3.5803  -3.5403  -3.5367  -3.5139
    -3.5023  -3.4982  -3.4306  -3.4188  -3.4009  -3.3941  -3.3704  -3.3646
    -3.3528  -3.3359  -3.2808  -3.2776  -3.2623  -3.2584  -3.2117  -3.2065
    -3.1937  -3.1629  -3.1373  -3.1349  -3.1242  -3.1233  -3.1165  -3.1083
    -3.1047  -3.0996  -3.0924  -3.0535  -3.0179  -3.0126  -3.0031  -3.0005
    -2.9724  -2.9677  -2.9642  -2.9484  -2.8969  -2.8948  -2.8886  -2.8519
    -2.8441  -2.8316  -2.8304  -2.8050  -2.8016  -2.7707  -2.7394  -2.7338
    -2.7170  -2.7047  -2.6945  -2.6910  -2.6443  -2.6434  -2.6091  -2.5903
    -2.5851  -2.5658  -2.5615  -2.5522  -2.5492  -2.5406  -2.5205  -2.5175
    -2.4823  -2.4713  -2.4695  -2.4572  -2.4557  -2.4508  -2.4447  -2.4402
    -2.4389  -2.4338  -2.4280  -2.4275  -2.4192  -2.4157  -2.3976  -2.3826
    -2.3808  -2.3782  -2.3769  -2.3735  -2.3722  -2.3501  -2.3477  -2.3318
    -2.3301  -2.3262  -2.3106  -2.3077  -2.3034  -2.3004  -2.2989  -2.2928
    -2.2838  -2.2779  -2.2769  -2.2663  -2.2418  -2.2338  -2.1948  -2.1917
    -2.1770  -2.1714  -2.1644  -2.1406  -2.1202  -2.1139  -2.1024  -2.0970
    -2.0865  -2.0639  -2.0502  -2.0442  -2.0375  -2.0343  -2.0277  -2.0239
    -2.0081  -1.9962  -1.9905  -1.9499  -1.9256  -1.9229  -1.9201  -1.9179
    -1.8919  -1.8669  -1.8605  -1.8575  -1.8348  -1.8035  -1.7799  -1.7715
    -1.7423  -1.7265  -1.6965  -1.6668  -1.6635  -1.6548  -1.6498  -1.6434
    -1.6409  -1.6356  -1.6290  -1.6267  -1.5756  -1.5688  -1.5623  -1.5598
    -1.5481  -1.5426  -1.5319  -1.5079  -1.5034  -1.4916  -1.4885  -1.4863
    -1.4791  -1.4718  -1.4656  -1.4563  -1.4457  -1.4435  -1.4102  -1.3992
    -1.3945  -1.3808  -1.3764  -1.3564  -1.3208  -1.3139  -1.2906  -1.2873
    -1.2839  -1.2563  -1.2091  -1.2049  -1.2031  -1.2007  -1.1972  -1.1903
    -1.1798  -1.1733  -1.1612  -1.1314  -1.1250  -1.0996  -1.0968  -1.0911
    -1.0886  -1.0853  -1.0728  -1.0676  -1.0654  -1.0617  -1.0590  -1.0259
    -1.0223  -1.0212  -1.0152  -0.9959  -0.9906  -0.9840  -0.9641  -0.9556
    -0.9410  -0.9116  -0.9033  -0.8949  -0.8668  -0.8609  -0.8494  -0.8486
    -0.8425  -0.8411  -0.8371  -0.8308  -0.8250  -0.8099  -0.8012  -0.8003
    -0.7946  -0.7935  -0.7837  -0.7561  -0.7556  -0.7496  -0.7403  -0.7267
    -0.7213  -0.7114  -0.7022  -0.6543  -0.6524  -0.6458  -0.6449  -0.6419
    -0.6396  -0.6298  -0.6175  -0.6122  -0.6091  -0.6072  -0.6066  -0.5853
    -0.5672  -0.5651  -0.5626  -0.5560  -0.5522  -0.5501  -0.5477  -0.5355
    -0.5297  -0.5285  -0.4938  -0.4877  -0.4822  -0.4774  -0.4750  -0.4540
    -0.4013  -0.3953  -0.3934  -0.3898  -0.3854  -0.3731  -0.3474  -0.3366
    -0.3350  -0.3068  -0.3034  -0.2384  -0.1834  -0.1640  -0.0759   0.3349
     0.3363   0.3407   0.3418   0.3960   0.4317   0.7835   0.7907   0.8282
     0.8329   0.9493   1.0294   1.1305   1.1499   1.3505   1.3853   1.9804
     1.9962   2.1415   2.1581   2.2744   2.3055   2.3859   2.3866   2.5400
     2.7768   2.7815   2.9053   3.1222   3.1349   3.2030   3.2101   3.3039
     3.3253   3.5095   3.5332   3.5797   3.7797   3.7852   3.8416   3.8537
     4.0985   4.1023   4.1233   4.3501   4.3841   4.3987   4.4392   4.7646
     4.7782   4.8015   4.9381   5.1123   5.1147   5.1629   5.1825   5.5692
     5.8191   5.8860   5.9002   5.9058   5.9226   5.9671   5.9766   6.0446
     6.0805   6.1099   6.1306   6.1388   6.1565   6.1848   6.1910   6.2114
     6.2193   6.5359   6.5833   6.7251   6.7495   6.7678   6.8393   6.8474
     6.8590   6.9615   7.0444

          k = 0.5000 0.0000 0.1111 (136853 PWs)   bands (ev):

   -19.3933  -7.2183  -6.3767  -5.9803  -5.9742  -5.3058  -4.9668  -4.9653
    -4.9398  -4.9248  -4.5664  -4.5643  -4.4673  -4.4667  -4.4523  -4.4290
    -4.4262  -4.3013  -4.2975  -4.2748  -4.2318  -4.2304  -4.1683  -4.1627
    -4.1618  -4.1567  -4.1355  -4.1335  -4.1260  -4.0835  -4.0562  -4.0271
    -4.0240  -4.0143  -4.0136  -3.9908  -3.9902  -3.9673  -3.9603  -3.9595
    -3.9355  -3.8820  -3.8805  -3.8339  -3.8300  -3.7822  -3.7781  -3.7359
    -3.7211  -3.7176  -3.7174  -3.6829  -3.6765  -3.6504  -3.6441  -3.6367
    -3.6348  -3.6231  -3.6062  -3.5978  -3.5784  -3.5407  -3.5369  -3.5136
    -3.5015  -3.4985  -3.4293  -3.4213  -3.3990  -3.3933  -3.3696  -3.3633
    -3.3528  -3.3358  -3.2806  -3.2779  -3.2611  -3.2588  -3.2107  -3.2086
    -3.1940  -3.1625  -3.1367  -3.1339  -3.1257  -3.1234  -3.1173  -3.1084
    -3.1051  -3.0996  -3.0911  -3.0532  -3.0173  -3.0133  -3.0020  -3.0006
    -2.9722  -2.9662  -2.9644  -2.9491  -2.8962  -2.8953  -2.8916  -2.8523
    -2.8441  -2.8313  -2.8310  -2.8076  -2.8015  -2.7706  -2.7371  -2.7336
    -2.7177  -2.7046  -2.6930  -2.6901  -2.6460  -2.6427  -2.6091  -2.5871
    -2.5851  -2.5695  -2.5621  -2.5502  -2.5489  -2.5404  -2.5211  -2.5180
    -2.4785  -2.4715  -2.4692  -2.4577  -2.4559  -2.4461  -2.4431  -2.4404
    -2.4387  -2.4353  -2.4305  -2.4278  -2.4196  -2.4125  -2.3994  -2.3831
    -2.3806  -2.3772  -2.3767  -2.3743  -2.3724  -2.3542  -2.3479  -2.3357
    -2.3306  -2.3268  -2.3108  -2.3087  -2.3021  -2.3007  -2.2986  -2.2901
    -2.2845  -2.2783  -2.2770  -2.2658  -2.2416  -2.2341  -2.1934  -2.1921
    -2.1781  -2.1719  -2.1650  -2.1404  -2.1283  -2.1149  -2.1056  -2.0956
    -2.0849  -2.0645  -2.0504  -2.0429  -2.0378  -2.0342  -2.0277  -2.0241
    -2.0049  -1.9945  -1.9915  -1.9401  -1.9261  -1.9227  -1.9209  -1.9180
    -1.8884  -1.8682  -1.8606  -1.8573  -1.8348  -1.8044  -1.7794  -1.7718
    -1.7425  -1.7269  -1.6960  -1.6673  -1.6624  -1.6544  -1.6465  -1.6430
    -1.6409  -1.6349  -1.6295  -1.6281  -1.5779  -1.5661  -1.5616  -1.5597
    -1.5545  -1.5428  -1.5380  -1.5059  -1.5035  -1.4915  -1.4888  -1.4851
    -1.4791  -1.4691  -1.4657  -1.4552  -1.4451  -1.4443  -1.4108  -1.3988
    -1.3947  -1.3844  -1.3753  -1.3565  -1.3206  -1.3132  -1.2910  -1.2872
    -1.2830  -1.2555  -1.2093  -1.2049  -1.2029  -1.2003  -1.1977  -1.1900
    -1.1804  -1.1733  -1.1586  -1.1320  -1.1254  -1.0997  -1.0978  -1.0918
    -1.0882  -1.0861  -1.0721  -1.0674  -1.0655  -1.0627  -1.0568  -1.0255
    -1.0232  -1.0211  -1.0152  -0.9959  -0.9897  -0.9849  -0.9640  -0.9569
    -0.9412  -0.9115  -0.9036  -0.8959  -0.8660  -0.8615  -0.8504  -0.8484
    -0.8425  -0.8410  -0.8377  -0.8303  -0.8253  -0.8090  -0.8016  -0.8003
    -0.7945  -0.7935  -0.7827  -0.7560  -0.7555  -0.7502  -0.7408  -0.7265
    -0.7217  -0.7110  -0.6985  -0.6545  -0.6519  -0.6460  -0.6453  -0.6430
    -0.6395  -0.6298  -0.6182  -0.6115  -0.6089  -0.6070  -0.6065  -0.5862
    -0.5675  -0.5654  -0.5623  -0.5558  -0.5524  -0.5499  -0.5474  -0.5358
    -0.5299  -0.5283  -0.4929  -0.4877  -0.4820  -0.4773  -0.4747  -0.4558
    -0.4015  -0.3950  -0.3935  -0.3893  -0.3854  -0.3733  -0.3474  -0.3365
    -0.3347  -0.3071  -0.3035  -0.2379  -0.1821  -0.1673  -0.0766   0.3355
     0.3362   0.3406   0.3419   0.3957   0.4291   0.7836   0.7907   0.8290
     0.8324   0.9491   1.0304   1.1313   1.1520   1.3500   1.3861   1.9787
     1.9965   2.1416   2.1583   2.2732   2.3057   2.3852   2.3872   2.5402
     2.7749   2.7834   2.9058   3.1227   3.1360   3.2019   3.2099   3.3046
     3.3254   3.5120   3.5319   3.5766   3.7806   3.7846   3.8390   3.8559
     4.0991   4.1010   4.1256   4.3493   4.3824   4.4009   4.4387   4.7656
     4.7772   4.8043   4.9349   5.1119   5.1144   5.1576   5.1942   5.5645
     5.8230   5.8832   5.8964   5.9043   5.9215   5.9691   5.9748   6.0478
     6.0747   6.1120   6.1338   6.1386   6.1529   6.1756   6.1897   6.2119
     6.2285   6.5358   6.5872   6.7241   6.7580   6.7678   6.8420   6.8473
     6.8605   6.9631   7.0344

          k =-0.5000 0.0000 0.1111 (136853 PWs)   bands (ev):

   -19.3933  -7.2183  -6.3767  -5.9803  -5.9742  -5.3058  -4.9668  -4.9653
    -4.9398  -4.9248  -4.5664  -4.5643  -4.4673  -4.4667  -4.4523  -4.4290
    -4.4262  -4.3013  -4.2975  -4.2748  -4.2318  -4.2304  -4.1683  -4.1627
    -4.1618  -4.1567  -4.1355  -4.1335  -4.1260  -4.0835  -4.0562  -4.0271
    -4.0240  -4.0143  -4.0136  -3.9908  -3.9902  -3.9673  -3.9602  -3.9595
    -3.9355  -3.8820  -3.8805  -3.8339  -3.8300  -3.7822  -3.7781  -3.7359
    -3.7211  -3.7176  -3.7174  -3.6829  -3.6765  -3.6504  -3.6441  -3.6367
    -3.6348  -3.6231  -3.6062  -3.5978  -3.5784  -3.5407  -3.5369  -3.5136
    -3.5015  -3.4985  -3.4293  -3.4213  -3.3990  -3.3933  -3.3696  -3.3633
    -3.3528  -3.3358  -3.2806  -3.2779  -3.2611  -3.2588  -3.2107  -3.2086
    -3.1940  -3.1625  -3.1367  -3.1339  -3.1257  -3.1234  -3.1173  -3.1084
    -3.1051  -3.0996  -3.0911  -3.0532  -3.0173  -3.0133  -3.0020  -3.0006
    -2.9722  -2.9662  -2.9644  -2.9491  -2.8962  -2.8953  -2.8916  -2.8523
    -2.8441  -2.8313  -2.8311  -2.8076  -2.8015  -2.7706  -2.7371  -2.7336
    -2.7177  -2.7046  -2.6930  -2.6901  -2.6460  -2.6427  -2.6091  -2.5871
    -2.5851  -2.5695  -2.5621  -2.5502  -2.5489  -2.5404  -2.5211  -2.5180
    -2.4785  -2.4715  -2.4692  -2.4577  -2.4559  -2.4461  -2.4431  -2.4404
    -2.4387  -2.4353  -2.4305  -2.4278  -2.4196  -2.4125  -2.3994  -2.3831
    -2.3806  -2.3772  -2.3767  -2.3743  -2.3724  -2.3542  -2.3479  -2.3357
    -2.3306  -2.3268  -2.3108  -2.3087  -2.3021  -2.3007  -2.2986  -2.2901
    -2.2845  -2.2783  -2.2770  -2.2658  -2.2416  -2.2341  -2.1934  -2.1921
    -2.1781  -2.1719  -2.1650  -2.1404  -2.1283  -2.1149  -2.1056  -2.0956
    -2.0849  -2.0645  -2.0504  -2.0429  -2.0378  -2.0342  -2.0277  -2.0241
    -2.0049  -1.9945  -1.9915  -1.9401  -1.9261  -1.9227  -1.9209  -1.9180
    -1.8884  -1.8682  -1.8606  -1.8573  -1.8348  -1.8044  -1.7794  -1.7718
    -1.7425  -1.7269  -1.6960  -1.6673  -1.6624  -1.6544  -1.6465  -1.6430
    -1.6409  -1.6349  -1.6295  -1.6281  -1.5779  -1.5661  -1.5616  -1.5597
    -1.5545  -1.5428  -1.5380  -1.5059  -1.5035  -1.4915  -1.4888  -1.4851
    -1.4791  -1.4691  -1.4657  -1.4552  -1.4451  -1.4443  -1.4108  -1.3988
    -1.3947  -1.3844  -1.3753  -1.3565  -1.3206  -1.3132  -1.2910  -1.2872
    -1.2830  -1.2555  -1.2093  -1.2049  -1.2028  -1.2003  -1.1977  -1.1900
    -1.1804  -1.1733  -1.1586  -1.1320  -1.1254  -1.0997  -1.0978  -1.0918
    -1.0882  -1.0861  -1.0721  -1.0674  -1.0655  -1.0627  -1.0568  -1.0255
    -1.0232  -1.0211  -1.0152  -0.9959  -0.9897  -0.9849  -0.9640  -0.9569
    -0.9412  -0.9115  -0.9036  -0.8959  -0.8660  -0.8615  -0.8504  -0.8484
    -0.8425  -0.8410  -0.8377  -0.8303  -0.8253  -0.8090  -0.8016  -0.8003
    -0.7945  -0.7935  -0.7827  -0.7560  -0.7555  -0.7502  -0.7408  -0.7265
    -0.7217  -0.7110  -0.6985  -0.6545  -0.6519  -0.6460  -0.6453  -0.6430
    -0.6395  -0.6298  -0.6182  -0.6115  -0.6089  -0.6070  -0.6065  -0.5862
    -0.5675  -0.5654  -0.5623  -0.5558  -0.5524  -0.5499  -0.5474  -0.5358
    -0.5299  -0.5283  -0.4929  -0.4877  -0.4820  -0.4773  -0.4747  -0.4558
    -0.4015  -0.3950  -0.3935  -0.3893  -0.3854  -0.3733  -0.3474  -0.3365
    -0.3347  -0.3071  -0.3035  -0.2379  -0.1821  -0.1673  -0.0766   0.3355
     0.3362   0.3406   0.3419   0.3957   0.4291   0.7836   0.7907   0.8290
     0.8324   0.9491   1.0304   1.1313   1.1520   1.3500   1.3861   1.9787
     1.9965   2.1416   2.1583   2.2732   2.3057   2.3852   2.3872   2.5402
     2.7749   2.7834   2.9058   3.1227   3.1360   3.2019   3.2099   3.3046
     3.3254   3.5120   3.5319   3.5766   3.7806   3.7846   3.8390   3.8559
     4.0991   4.1010   4.1256   4.3493   4.3824   4.4009   4.4387   4.7656
     4.7772   4.8043   4.9349   5.1119   5.1144   5.1576   5.1942   5.5645
     5.8230   5.8831   5.8964   5.9044   5.9215   5.9691   5.9748   6.0477
     6.0746   6.1119   6.1338   6.1385   6.1529   6.1759   6.1896   6.2116
     6.2290   6.5358   6.5877   6.7240   6.7597   6.7675   6.8420   6.8471
     6.8600   6.9632   7.0346

          k =-0.2500 0.1443 0.1111 (136898 PWs)   bands (ev):

   -19.3933  -7.2184  -6.5864  -5.7947  -5.5093  -5.4445  -5.4438  -4.9061
    -4.9055  -4.7809  -4.7734  -4.6258  -4.5985  -4.5260  -4.5004  -4.4943
    -4.4592  -4.4583  -4.3300  -4.2884  -4.2873  -4.2304  -4.2123  -4.2089
    -4.1055  -4.1049  -4.0694  -4.0684  -4.0680  -4.0471  -4.0207  -4.0196
    -3.9369  -3.9134  -3.9124  -3.8953  -3.8764  -3.8757  -3.8710  -3.8639
    -3.8537  -3.8270  -3.8208  -3.8195  -3.8187  -3.7931  -3.7897  -3.7733
    -3.7688  -3.7647  -3.7418  -3.7198  -3.6940  -3.6783  -3.6683  -3.6596
    -3.6593  -3.5892  -3.5860  -3.5845  -3.5546  -3.5498  -3.5094  -3.4801
    -3.4744  -3.4650  -3.4629  -3.4379  -3.4361  -3.4347  -3.4223  -3.2795
    -3.2788  -3.2580  -3.2565  -3.2400  -3.2331  -3.2270  -3.2097  -3.2078
    -3.1581  -3.1573  -3.1416  -3.1390  -3.1199  -3.0756  -3.0735  -3.0548
    -3.0485  -3.0458  -3.0083  -3.0060  -2.9980  -2.9967  -2.9841  -2.9829
    -2.9454  -2.9449  -2.9252  -2.9229  -2.9198  -2.9188  -2.9122  -2.8415
    -2.8390  -2.8356  -2.8101  -2.8070  -2.7512  -2.7462  -2.7187  -2.7154
    -2.7050  -2.7046  -2.6952  -2.6705  -2.6682  -2.6570  -2.6413  -2.6218
    -2.6170  -2.6114  -2.5957  -2.5945  -2.5870  -2.5839  -2.5818  -2.5752
    -2.5679  -2.5227  -2.4986  -2.4940  -2.4861  -2.4678  -2.4598  -2.4585
    -2.4522  -2.4491  -2.4454  -2.4269  -2.4179  -2.4171  -2.4082  -2.4070
    -2.3928  -2.3740  -2.3657  -2.3628  -2.3610  -2.3606  -2.3136  -2.2993
    -2.2841  -2.2829  -2.2786  -2.2657  -2.2618  -2.2576  -2.2373  -2.2371
    -2.2172  -2.2076  -2.2039  -2.1926  -2.1888  -2.1853  -2.1657  -2.1529
    -2.1328  -2.1177  -2.1046  -2.1041  -2.1004  -2.0978  -2.0954  -2.0938
    -2.0893  -2.0866  -2.0851  -2.0687  -2.0676  -2.0186  -1.9443  -1.9394
    -1.9064  -1.9034  -1.8980  -1.8922  -1.8916  -1.8788  -1.8759  -1.8747
    -1.8700  -1.8570  -1.8488  -1.8463  -1.8436  -1.8315  -1.8298  -1.8104
    -1.8069  -1.7803  -1.7772  -1.7614  -1.7501  -1.7366  -1.7316  -1.7226
    -1.7087  -1.7054  -1.6965  -1.6899  -1.6742  -1.6721  -1.6672  -1.6605
    -1.6426  -1.6368  -1.6260  -1.6246  -1.5925  -1.5842  -1.5666  -1.5338
    -1.5328  -1.5173  -1.5153  -1.4961  -1.4896  -1.4837  -1.4585  -1.4566
    -1.4434  -1.4160  -1.4137  -1.4072  -1.3938  -1.3927  -1.3701  -1.3689
    -1.3426  -1.3388  -1.3340  -1.3331  -1.2737  -1.2702  -1.2623  -1.2599
    -1.2459  -1.2389  -1.2303  -1.2243  -1.2118  -1.1981  -1.1726  -1.1699
    -1.1555  -1.1248  -1.1218  -1.1166  -1.1090  -1.1068  -1.1058  -1.1044
    -1.0964  -1.0844  -1.0621  -1.0594  -1.0477  -1.0442  -1.0422  -1.0242
    -1.0193  -1.0045  -0.9940  -0.9803  -0.9502  -0.8873  -0.8778  -0.8704
    -0.8698  -0.8629  -0.8608  -0.8478  -0.8380  -0.8265  -0.8208  -0.8124
    -0.8056  -0.7994  -0.7957  -0.7788  -0.7725  -0.7641  -0.7511  -0.6895
    -0.6883  -0.6594  -0.6518  -0.6505  -0.6463  -0.6420  -0.6414  -0.6359
    -0.6321  -0.6214  -0.5923  -0.5854  -0.5676  -0.5548  -0.5520  -0.5451
    -0.5374  -0.5346  -0.5304  -0.5281  -0.5259  -0.5122  -0.5105  -0.5059
    -0.4873  -0.4756  -0.4739  -0.4628  -0.4590  -0.4400  -0.4364  -0.4090
    -0.4035  -0.3997  -0.3860  -0.3305  -0.3210  -0.2969  -0.2966  -0.2388
    -0.2387  -0.2364  -0.2146  -0.1893   0.0135   0.0565   0.3651   0.3654
     0.4513   0.4855   0.6499   0.6813   0.7054   0.8087   0.8190   1.2454
     1.2463   1.2613   1.5291   1.5552   1.5558   1.8231   1.8505   1.9063
     1.9096   1.9325   1.9580   2.1637   2.1658   2.2567   2.2576   2.3286
     2.3871   2.4185   2.5614   2.6655   3.0830   3.0959   3.0996   3.1135
     3.1511   3.1591   3.4469   3.4504   3.7226   3.7432   3.8346   4.1463
     4.1799   4.1929   4.3976   4.4160   4.4826   4.4947   4.5830   4.6896
     4.7119   4.8116   4.8188   5.1143   5.1665   5.2006   5.3419   5.3689
     5.4574   5.5715   5.5783   5.5965   5.6074   5.6459   5.6725   5.7230
     5.9727   6.0618   6.2623   6.2941   6.3152   6.4049   6.4069   6.4104
     6.4359   6.5956   6.6500   6.6583   6.7374   6.8415   6.8766   6.8952
     6.9477   7.0875   7.1065

          k =-0.2500-0.1443-0.1111 (136898 PWs)   bands (ev):

   -19.3933  -7.2184  -6.5864  -5.7947  -5.5094  -5.4448  -5.4433  -4.9062
    -4.9051  -4.7811  -4.7734  -4.6258  -4.5985  -4.5262  -4.5006  -4.4940
    -4.4590  -4.4584  -4.3296  -4.2886  -4.2877  -4.2309  -4.2116  -4.2088
    -4.1055  -4.1046  -4.0691  -4.0687  -4.0680  -4.0472  -4.0206  -4.0201
    -3.9373  -3.9135  -3.9126  -3.8955  -3.8767  -3.8760  -3.8710  -3.8637
    -3.8542  -3.8260  -3.8208  -3.8190  -3.8185  -3.7925  -3.7894  -3.7743
    -3.7688  -3.7659  -3.7389  -3.7199  -3.6960  -3.6794  -3.6678  -3.6597
    -3.6594  -3.5902  -3.5861  -3.5824  -3.5537  -3.5496  -3.5048  -3.4804
    -3.4767  -3.4661  -3.4628  -3.4375  -3.4367  -3.4353  -3.4235  -3.2799
    -3.2789  -3.2576  -3.2552  -3.2409  -3.2336  -3.2264  -3.2095  -3.2072
    -3.1582  -3.1575  -3.1417  -3.1403  -3.1199  -3.0764  -3.0705  -3.0550
    -3.0490  -3.0463  -3.0087  -3.0061  -2.9988  -2.9967  -2.9850  -2.9826
    -2.9457  -2.9448  -2.9248  -2.9218  -2.9200  -2.9181  -2.9123  -2.8410
    -2.8403  -2.8369  -2.8103  -2.8071  -2.7519  -2.7429  -2.7187  -2.7163
    -2.7065  -2.7039  -2.6956  -2.6700  -2.6673  -2.6571  -2.6415  -2.6208
    -2.6176  -2.6121  -2.5961  -2.5944  -2.5878  -2.5839  -2.5812  -2.5768
    -2.5680  -2.5227  -2.4989  -2.4930  -2.4846  -2.4679  -2.4596  -2.4580
    -2.4523  -2.4495  -2.4456  -2.4270  -2.4179  -2.4158  -2.4104  -2.4061
    -2.3932  -2.3737  -2.3663  -2.3642  -2.3612  -2.3607  -2.3139  -2.2974
    -2.2841  -2.2834  -2.2784  -2.2661  -2.2627  -2.2579  -2.2383  -2.2365
    -2.2167  -2.2046  -2.2036  -2.1942  -2.1878  -2.1856  -2.1597  -2.1519
    -2.1356  -2.1173  -2.1046  -2.1039  -2.1005  -2.0981  -2.0948  -2.0928
    -2.0894  -2.0868  -2.0837  -2.0731  -2.0686  -2.0224  -1.9435  -1.9388
    -1.9059  -1.9032  -1.8983  -1.8920  -1.8895  -1.8793  -1.8760  -1.8744
    -1.8719  -1.8575  -1.8485  -1.8464  -1.8423  -1.8335  -1.8283  -1.8098
    -1.8062  -1.7812  -1.7776  -1.7538  -1.7491  -1.7441  -1.7338  -1.7249
    -1.7088  -1.7050  -1.6948  -1.6897  -1.6743  -1.6707  -1.6672  -1.6594
    -1.6419  -1.6374  -1.6272  -1.6206  -1.5918  -1.5822  -1.5743  -1.5342
    -1.5320  -1.5177  -1.5163  -1.4960  -1.4896  -1.4839  -1.4580  -1.4544
    -1.4452  -1.4189  -1.4120  -1.4026  -1.3936  -1.3905  -1.3721  -1.3685
    -1.3489  -1.3393  -1.3333  -1.3292  -1.2727  -1.2703  -1.2626  -1.2599
    -1.2451  -1.2432  -1.2303  -1.2279  -1.2108  -1.1980  -1.1703  -1.1692
    -1.1560  -1.1279  -1.1204  -1.1156  -1.1075  -1.1069  -1.1059  -1.1027
    -1.0918  -1.0843  -1.0623  -1.0598  -1.0470  -1.0444  -1.0423  -1.0288
    -1.0233  -1.0027  -0.9894  -0.9804  -0.9436  -0.8913  -0.8779  -0.8703
    -0.8693  -0.8652  -0.8595  -0.8483  -0.8380  -0.8277  -0.8196  -0.8116
    -0.8054  -0.8010  -0.7915  -0.7789  -0.7728  -0.7642  -0.7552  -0.6903
    -0.6892  -0.6603  -0.6524  -0.6503  -0.6472  -0.6425  -0.6410  -0.6359
    -0.6306  -0.6212  -0.5941  -0.5853  -0.5664  -0.5561  -0.5543  -0.5449
    -0.5375  -0.5320  -0.5304  -0.5282  -0.5263  -0.5131  -0.5096  -0.5063
    -0.4863  -0.4753  -0.4733  -0.4621  -0.4590  -0.4416  -0.4377  -0.4093
    -0.4035  -0.3994  -0.3790  -0.3317  -0.3236  -0.2970  -0.2964  -0.2392
    -0.2386  -0.2364  -0.2147  -0.1936   0.0144   0.0618   0.3652   0.3653
     0.4514   0.4849   0.6504   0.6801   0.7029   0.8095   0.8176   1.2454
     1.2467   1.2608   1.5289   1.5551   1.5569   1.8224   1.8514   1.9071
     1.9093   1.9327   1.9576   2.1631   2.1668   2.2568   2.2573   2.3272
     2.3883   2.4197   2.5602   2.6645   3.0893   3.0935   3.0990   3.1115
     3.1531   3.1583   3.4480   3.4502   3.7211   3.7442   3.8359   4.1450
     4.1777   4.1934   4.3859   4.4252   4.4817   4.4964   4.5813   4.6928
     4.7091   4.8137   4.8202   5.1139   5.1761   5.1894   5.3263   5.3830
     5.4659   5.5648   5.5749   5.6036   5.6062   5.6555   5.6657   5.7270
     5.9727   6.0476   6.2568   6.2822   6.3351   6.4032   6.4085   6.4151
     6.4367   6.5948   6.6506   6.6574   6.7346   6.8454   6.8796   6.8860
     6.9540   7.0821   7.1130

          k = 0.2500 0.1443-0.1111 (136898 PWs)   bands (ev):

   -19.3933  -7.2184  -6.5864  -5.7947  -5.5094  -5.4448  -5.4433  -4.9062
    -4.9051  -4.7811  -4.7734  -4.6259  -4.5985  -4.5261  -4.5006  -4.4940
    -4.4590  -4.4584  -4.3296  -4.2886  -4.2877  -4.2309  -4.2116  -4.2088
    -4.1055  -4.1046  -4.0691  -4.0687  -4.0680  -4.0472  -4.0206  -4.0201
    -3.9373  -3.9135  -3.9126  -3.8955  -3.8767  -3.8760  -3.8710  -3.8637
    -3.8542  -3.8260  -3.8208  -3.8190  -3.8185  -3.7925  -3.7894  -3.7743
    -3.7689  -3.7660  -3.7388  -3.7199  -3.6960  -3.6794  -3.6678  -3.6597
    -3.6594  -3.5902  -3.5861  -3.5824  -3.5537  -3.5496  -3.5048  -3.4804
    -3.4767  -3.4661  -3.4628  -3.4375  -3.4367  -3.4353  -3.4235  -3.2799
    -3.2789  -3.2576  -3.2552  -3.2409  -3.2336  -3.2264  -3.2095  -3.2072
    -3.1582  -3.1575  -3.1417  -3.1403  -3.1199  -3.0764  -3.0705  -3.0550
    -3.0490  -3.0463  -3.0087  -3.0061  -2.9988  -2.9967  -2.9850  -2.9826
    -2.9457  -2.9448  -2.9248  -2.9218  -2.9200  -2.9181  -2.9123  -2.8410
    -2.8403  -2.8369  -2.8103  -2.8071  -2.7519  -2.7429  -2.7187  -2.7163
    -2.7065  -2.7039  -2.6956  -2.6700  -2.6673  -2.6571  -2.6415  -2.6208
    -2.6176  -2.6121  -2.5961  -2.5944  -2.5878  -2.5839  -2.5812  -2.5768
    -2.5680  -2.5227  -2.4989  -2.4930  -2.4846  -2.4679  -2.4596  -2.4580
    -2.4523  -2.4495  -2.4456  -2.4270  -2.4179  -2.4158  -2.4104  -2.4061
    -2.3932  -2.3737  -2.3663  -2.3641  -2.3612  -2.3607  -2.3139  -2.2974
    -2.2841  -2.2834  -2.2784  -2.2661  -2.2627  -2.2579  -2.2383  -2.2365
    -2.2167  -2.2046  -2.2036  -2.1942  -2.1878  -2.1856  -2.1597  -2.1519
    -2.1356  -2.1173  -2.1046  -2.1039  -2.1005  -2.0981  -2.0948  -2.0928
    -2.0894  -2.0868  -2.0837  -2.0731  -2.0686  -2.0224  -1.9435  -1.9388
    -1.9059  -1.9032  -1.8983  -1.8920  -1.8895  -1.8793  -1.8760  -1.8744
    -1.8719  -1.8575  -1.8485  -1.8464  -1.8423  -1.8335  -1.8283  -1.8098
    -1.8062  -1.7812  -1.7776  -1.7538  -1.7491  -1.7441  -1.7338  -1.7249
    -1.7088  -1.7050  -1.6948  -1.6897  -1.6743  -1.6707  -1.6672  -1.6594
    -1.6419  -1.6374  -1.6272  -1.6206  -1.5918  -1.5822  -1.5743  -1.5342
    -1.5320  -1.5177  -1.5163  -1.4960  -1.4896  -1.4839  -1.4580  -1.4544
    -1.4452  -1.4189  -1.4120  -1.4026  -1.3936  -1.3905  -1.3721  -1.3685
    -1.3489  -1.3393  -1.3333  -1.3292  -1.2727  -1.2703  -1.2626  -1.2599
    -1.2451  -1.2432  -1.2303  -1.2279  -1.2108  -1.1980  -1.1703  -1.1692
    -1.1560  -1.1279  -1.1204  -1.1156  -1.1075  -1.1069  -1.1059  -1.1027
    -1.0918  -1.0843  -1.0623  -1.0598  -1.0470  -1.0444  -1.0423  -1.0288
    -1.0233  -1.0027  -0.9894  -0.9804  -0.9436  -0.8913  -0.8779  -0.8703
    -0.8693  -0.8652  -0.8595  -0.8483  -0.8380  -0.8277  -0.8196  -0.8116
    -0.8054  -0.8010  -0.7915  -0.7789  -0.7728  -0.7642  -0.7552  -0.6903
    -0.6892  -0.6603  -0.6524  -0.6503  -0.6472  -0.6425  -0.6410  -0.6359
    -0.6306  -0.6212  -0.5941  -0.5853  -0.5663  -0.5561  -0.5543  -0.5449
    -0.5375  -0.5320  -0.5304  -0.5282  -0.5263  -0.5131  -0.5096  -0.5063
    -0.4864  -0.4753  -0.4733  -0.4621  -0.4590  -0.4416  -0.4377  -0.4093
    -0.4035  -0.3993  -0.3790  -0.3318  -0.3236  -0.2970  -0.2964  -0.2392
    -0.2386  -0.2364  -0.2147  -0.1936   0.0144   0.0618   0.3652   0.3653
     0.4514   0.4849   0.6504   0.6801   0.7029   0.8095   0.8176   1.2454
     1.2467   1.2608   1.5289   1.5551   1.5569   1.8224   1.8514   1.9071
     1.9093   1.9327   1.9576   2.1631   2.1668   2.2568   2.2573   2.3272
     2.3883   2.4197   2.5602   2.6645   3.0893   3.0935   3.0990   3.1115
     3.1531   3.1583   3.4480   3.4502   3.7211   3.7442   3.8359   4.1450
     4.1777   4.1934   4.3859   4.4252   4.4817   4.4964   4.5813   4.6928
     4.7091   4.8137   4.8202   5.1139   5.1761   5.1894   5.3263   5.3830
     5.4659   5.5648   5.5749   5.6036   5.6062   5.6555   5.6657   5.7271
     5.9721   6.0483   6.2567   6.2822   6.3348   6.4032   6.4086   6.4151
     6.4368   6.5950   6.6508   6.6572   6.7317   6.8438   6.8799   6.8860
     6.9547   7.0881   7.1186

          k = 0.0000-0.2887 0.1111 (136898 PWs)   bands (ev):

   -19.3933  -7.2184  -6.5864  -5.7944  -5.5093  -5.4448  -5.4437  -4.9061
    -4.9053  -4.7804  -4.7733  -4.6258  -4.5985  -4.5260  -4.5010  -4.4949
    -4.4590  -4.4586  -4.3296  -4.2890  -4.2874  -4.2304  -4.2115  -4.2093
    -4.1054  -4.1046  -4.0690  -4.0685  -4.0683  -4.0474  -4.0209  -4.0201
    -3.9382  -3.9137  -3.9126  -3.8959  -3.8767  -3.8759  -3.8706  -3.8636
    -3.8547  -3.8242  -3.8207  -3.8189  -3.8184  -3.7910  -3.7891  -3.7761
    -3.7689  -3.7672  -3.7353  -3.7201  -3.6978  -3.6784  -3.6678  -3.6599
    -3.6593  -3.5896  -3.5860  -3.5824  -3.5537  -3.5502  -3.5018  -3.4804
    -3.4779  -3.4658  -3.4624  -3.4381  -3.4365  -3.4351  -3.4249  -3.2814
    -3.2790  -3.2589  -3.2528  -3.2409  -3.2335  -3.2273  -3.2102  -3.2073
    -3.1585  -3.1577  -3.1423  -3.1410  -3.1196  -3.0768  -3.0690  -3.0540
    -3.0494  -3.0466  -3.0097  -3.0067  -2.9987  -2.9955  -2.9843  -2.9828
    -2.9460  -2.9450  -2.9253  -2.9216  -2.9198  -2.9175  -2.9122  -2.8423
    -2.8405  -2.8368  -2.8105  -2.8071  -2.7486  -2.7413  -2.7210  -2.7168
    -2.7062  -2.7038  -2.6958  -2.6688  -2.6672  -2.6573  -2.6438  -2.6234
    -2.6181  -2.6121  -2.5952  -2.5947  -2.5844  -2.5837  -2.5824  -2.5766
    -2.5680  -2.5227  -2.4972  -2.4926  -2.4814  -2.4687  -2.4616  -2.4577
    -2.4530  -2.4492  -2.4455  -2.4281  -2.4181  -2.4149  -2.4115  -2.4058
    -2.3930  -2.3773  -2.3658  -2.3647  -2.3610  -2.3604  -2.3138  -2.2960
    -2.2841  -2.2827  -2.2785  -2.2662  -2.2631  -2.2566  -2.2382  -2.2365
    -2.2148  -2.2045  -2.2033  -2.1941  -2.1858  -2.1853  -2.1574  -2.1531
    -2.1380  -2.1173  -2.1046  -2.1038  -2.1005  -2.0976  -2.0955  -2.0943
    -2.0898  -2.0883  -2.0822  -2.0759  -2.0683  -2.0203  -1.9437  -1.9399
    -1.9053  -1.9014  -1.8988  -1.8918  -1.8893  -1.8781  -1.8765  -1.8746
    -1.8727  -1.8593  -1.8485  -1.8459  -1.8416  -1.8337  -1.8285  -1.8087
    -1.8057  -1.7812  -1.7750  -1.7629  -1.7500  -1.7456  -1.7353  -1.7238
    -1.7088  -1.7050  -1.6929  -1.6894  -1.6736  -1.6703  -1.6672  -1.6593
    -1.6418  -1.6382  -1.6242  -1.6207  -1.5901  -1.5857  -1.5727  -1.5337
    -1.5315  -1.5188  -1.5159  -1.4935  -1.4896  -1.4830  -1.4582  -1.4540
    -1.4464  -1.4174  -1.4110  -1.4026  -1.3936  -1.3883  -1.3730  -1.3686
    -1.3518  -1.3407  -1.3336  -1.3304  -1.2735  -1.2700  -1.2636  -1.2596
    -1.2448  -1.2437  -1.2300  -1.2286  -1.2112  -1.1980  -1.1702  -1.1674
    -1.1568  -1.1279  -1.1206  -1.1158  -1.1076  -1.1068  -1.1062  -1.1023
    -1.0916  -1.0843  -1.0626  -1.0598  -1.0466  -1.0439  -1.0418  -1.0280
    -1.0234  -1.0020  -0.9892  -0.9804  -0.9440  -0.8909  -0.8781  -0.8704
    -0.8693  -0.8658  -0.8600  -0.8487  -0.8380  -0.8285  -0.8193  -0.8105
    -0.8054  -0.8002  -0.7913  -0.7787  -0.7729  -0.7644  -0.7566  -0.6905
    -0.6891  -0.6604  -0.6527  -0.6508  -0.6473  -0.6422  -0.6407  -0.6366
    -0.6307  -0.6207  -0.5946  -0.5853  -0.5656  -0.5564  -0.5541  -0.5448
    -0.5377  -0.5319  -0.5304  -0.5284  -0.5260  -0.5126  -0.5096  -0.5060
    -0.4875  -0.4753  -0.4735  -0.4618  -0.4589  -0.4408  -0.4379  -0.4091
    -0.4040  -0.3992  -0.3772  -0.3309  -0.3246  -0.2970  -0.2963  -0.2394
    -0.2383  -0.2364  -0.2146  -0.1966   0.0146   0.0662   0.3652   0.3655
     0.4511   0.4864   0.6500   0.6819   0.6987   0.8094   0.8176   1.2450
     1.2466   1.2614   1.5279   1.5554   1.5568   1.8218   1.8533   1.9079
     1.9091   1.9314   1.9577   2.1642   2.1653   2.2563   2.2578   2.3267
     2.3877   2.4207   2.5599   2.6640   3.0906   3.0912   3.1001   3.1137
     3.1512   3.1591   3.4478   3.4508   3.7204   3.7451   3.8369   4.1449
     4.1757   4.1937   4.3798   4.4299   4.4825   4.4924   4.5820   4.6909
     4.7099   4.8139   4.8233   5.1136   5.1723   5.1965   5.3238   5.3856
     5.4656   5.5616   5.5765   5.6012   5.6079   5.6486   5.6725   5.7311
     5.9737   6.0489   6.2431   6.2825   6.3386   6.4005   6.4058   6.4171
     6.4409   6.5958   6.6509   6.6633   6.7391   6.8355   6.8712   6.9002
     6.9499   7.0851   7.1062

          k = 0.0000 0.2887 0.1111 (136898 PWs)   bands (ev):

   -19.3933  -7.2184  -6.5864  -5.7944  -5.5093  -5.4448  -5.4437  -4.9061
    -4.9053  -4.7804  -4.7733  -4.6258  -4.5985  -4.5260  -4.5010  -4.4949
    -4.4590  -4.4586  -4.3296  -4.2890  -4.2874  -4.2304  -4.2115  -4.2093
    -4.1054  -4.1046  -4.0690  -4.0685  -4.0683  -4.0474  -4.0209  -4.0201
    -3.9382  -3.9137  -3.9126  -3.8959  -3.8767  -3.8759  -3.8706  -3.8635
    -3.8547  -3.8242  -3.8207  -3.8189  -3.8184  -3.7910  -3.7891  -3.7761
    -3.7689  -3.7672  -3.7353  -3.7201  -3.6978  -3.6784  -3.6678  -3.6599
    -3.6593  -3.5896  -3.5860  -3.5824  -3.5537  -3.5502  -3.5018  -3.4804
    -3.4779  -3.4658  -3.4624  -3.4381  -3.4365  -3.4351  -3.4249  -3.2814
    -3.2790  -3.2589  -3.2528  -3.2409  -3.2335  -3.2273  -3.2102  -3.2073
    -3.1585  -3.1577  -3.1423  -3.1410  -3.1196  -3.0768  -3.0690  -3.0540
    -3.0494  -3.0466  -3.0097  -3.0067  -2.9987  -2.9955  -2.9843  -2.9828
    -2.9460  -2.9450  -2.9253  -2.9216  -2.9198  -2.9175  -2.9122  -2.8423
    -2.8405  -2.8368  -2.8106  -2.8071  -2.7486  -2.7413  -2.7210  -2.7168
    -2.7062  -2.7038  -2.6958  -2.6688  -2.6672  -2.6573  -2.6438  -2.6234
    -2.6181  -2.6121  -2.5952  -2.5947  -2.5844  -2.5837  -2.5824  -2.5766
    -2.5680  -2.5227  -2.4972  -2.4926  -2.4814  -2.4687  -2.4616  -2.4577
    -2.4530  -2.4492  -2.4455  -2.4281  -2.4181  -2.4149  -2.4115  -2.4058
    -2.3930  -2.3773  -2.3658  -2.3647  -2.3610  -2.3604  -2.3138  -2.2960
    -2.2841  -2.2827  -2.2785  -2.2662  -2.2631  -2.2566  -2.2382  -2.2365
    -2.2148  -2.2045  -2.2033  -2.1941  -2.1858  -2.1853  -2.1574  -2.1531
    -2.1380  -2.1173  -2.1046  -2.1038  -2.1005  -2.0976  -2.0955  -2.0943
    -2.0898  -2.0883  -2.0822  -2.0759  -2.0683  -2.0203  -1.9437  -1.9399
    -1.9054  -1.9014  -1.8988  -1.8918  -1.8893  -1.8781  -1.8765  -1.8746
    -1.8727  -1.8593  -1.8485  -1.8459  -1.8416  -1.8337  -1.8285  -1.8087
    -1.8057  -1.7812  -1.7750  -1.7629  -1.7500  -1.7456  -1.7353  -1.7238
    -1.7088  -1.7050  -1.6929  -1.6894  -1.6736  -1.6703  -1.6672  -1.6593
    -1.6418  -1.6382  -1.6242  -1.6207  -1.5902  -1.5857  -1.5727  -1.5337
    -1.5315  -1.5188  -1.5159  -1.4935  -1.4896  -1.4830  -1.4582  -1.4540
    -1.4464  -1.4174  -1.4110  -1.4026  -1.3936  -1.3883  -1.3730  -1.3686
    -1.3518  -1.3407  -1.3336  -1.3304  -1.2735  -1.2700  -1.2636  -1.2596
    -1.2448  -1.2437  -1.2300  -1.2286  -1.2112  -1.1980  -1.1702  -1.1674
    -1.1568  -1.1279  -1.1206  -1.1158  -1.1076  -1.1068  -1.1062  -1.1022
    -1.0916  -1.0843  -1.0626  -1.0598  -1.0466  -1.0439  -1.0418  -1.0280
    -1.0234  -1.0020  -0.9892  -0.9804  -0.9440  -0.8909  -0.8781  -0.8704
    -0.8693  -0.8658  -0.8600  -0.8487  -0.8380  -0.8285  -0.8193  -0.8105
    -0.8054  -0.8002  -0.7913  -0.7787  -0.7729  -0.7644  -0.7566  -0.6905
    -0.6891  -0.6604  -0.6527  -0.6508  -0.6473  -0.6422  -0.6407  -0.6366
    -0.6307  -0.6207  -0.5946  -0.5853  -0.5656  -0.5564  -0.5541  -0.5448
    -0.5377  -0.5319  -0.5305  -0.5284  -0.5260  -0.5126  -0.5096  -0.5061
    -0.4875  -0.4753  -0.4735  -0.4618  -0.4589  -0.4408  -0.4379  -0.4091
    -0.4040  -0.3992  -0.3772  -0.3309  -0.3246  -0.2970  -0.2963  -0.2394
    -0.2383  -0.2364  -0.2146  -0.1966   0.0146   0.0662   0.3652   0.3655
     0.4511   0.4864   0.6500   0.6819   0.6987   0.8094   0.8176   1.2450
     1.2466   1.2614   1.5279   1.5554   1.5568   1.8218   1.8533   1.9079
     1.9091   1.9314   1.9577   2.1642   2.1653   2.2563   2.2578   2.3267
     2.3877   2.4207   2.5599   2.6640   3.0906   3.0912   3.1001   3.1136
     3.1512   3.1591   3.4478   3.4508   3.7204   3.7451   3.8369   4.1448
     4.1757   4.1937   4.3798   4.4299   4.4825   4.4924   4.5820   4.6909
     4.7099   4.8139   4.8233   5.1136   5.1723   5.1965   5.3238   5.3855
     5.4656   5.5616   5.5764   5.6012   5.6078   5.6486   5.6725   5.7312
     5.9739   6.0488   6.2430   6.2823   6.3384   6.4006   6.4059   6.4171
     6.4412   6.5959   6.6507   6.6633   6.7354   6.8343   6.8712   6.9004
     6.9502   7.0905   7.1117

     the Fermi energy is     1.3933 ev

!    total energy              =   -6604.42096880 Ry
     Harris-Foulkes estimate   =   -6604.42096882 Ry
     estimated scf accuracy    <          9.8E-09 Ry

     The total energy is the sum of the following terms:

     one-electron contribution =  -48846.14678918 Ry
     hartree contribution      =   24922.86335070 Ry
     xc contribution           =   -3205.01393529 Ry
     ewald contribution        =   20523.87366690 Ry
     smearing contrib. (-TS)   =       0.00273806 Ry

     convergence has been achieved in  20 iterations

     Writing output data file 3661251.save

     init_run     :    145.53s CPU    157.36s WALL (       1 calls)
     electrons    :   7182.52s CPU   7658.38s WALL (       1 calls)

     Called by init_run:
     wfcinit      :    111.29s CPU    122.01s WALL (       1 calls)
     potinit      :     10.02s CPU     10.42s WALL (       1 calls)

     Called by electrons:
     c_bands      :   5936.34s CPU   6318.08s WALL (      21 calls)
     sum_band     :    902.54s CPU    982.90s WALL (      21 calls)
     v_of_rho     :    108.91s CPU    119.12s WALL (      21 calls)
     newd         :    245.12s CPU    248.31s WALL (      21 calls)
     mix_rho      :      2.98s CPU      3.36s WALL (      21 calls)
     vdW_energy   :      6.78s CPU      7.69s WALL (      21 calls)
     vdW_ffts     :     58.88s CPU     63.72s WALL (      42 calls)
     vdW_v        :     13.62s CPU     14.28s WALL (      21 calls)

     Called by c_bands:
     init_us_2    :     16.43s CPU     16.80s WALL (     516 calls)
     cegterg      :   5868.45s CPU   6246.93s WALL (     252 calls)

     Called by *egterg:
     h_psi        :   2574.52s CPU   2908.90s WALL (    1330 calls)
     s_psi        :    367.78s CPU    370.09s WALL (    1330 calls)
     g_psi        :      5.28s CPU      5.30s WALL (    1066 calls)
     cdiaghg      :   1759.14s CPU   1763.73s WALL (    1306 calls)

     Called by h_psi:
     add_vuspsi   :    369.33s CPU    371.57s WALL (    1330 calls)

     General routines
     calbec       :    544.71s CPU    546.96s WALL (    1582 calls)
     fft          :    176.52s CPU    185.79s WALL (    1386 calls)
     ffts         :      1.78s CPU      1.95s WALL (      42 calls)
     fftw         :   1946.18s CPU   2302.12s WALL (  613004 calls)
     interpolate  :      4.38s CPU      4.90s WALL (      42 calls)
     davcio       :      0.01s CPU      0.25s WALL (      12 calls)

     Parallel routines
     fft_scatter  :   1439.87s CPU   1712.95s WALL (  614432 calls)

     PWSCF        :     2h 2m CPU        2h10m WALL


   This run was terminated on:   1:50:45  24Aug2015            

=------------------------------------------------------------------------------=
   JOB DONE.
=------------------------------------------------------------------------------=
