Setting SGE environment for SCC

     Program PWSCF v.5.1.2 starts on 24Aug2015 at  6:41: 5 

     This program is part of the open-source Quantum ESPRESSO suite
     for quantum simulation of materials; please cite
         "P. Giannozzi et al., J. Phys.:Condens. Matter 21 395502 (2009);
          URL http://www.quantum-espresso.org", 
     in publications or presentations arising from this work. More details at
     http://www.quantum-espresso.org/quote

     Parallel version (MPI), running on    32 processors
     R & G space division:  proc/nbgrp/npool/nimage =      32
     Reading input from bridge.H2.Au5455.d.2.4.phi.45.psi.90.in
Warning: card &IONS ignored
Warning: card / ignored
Warning: card &CELL ignored
Warning: card / ignored

     Current dimensions of program PWSCF are:
     Max number of different atomic species (ntypx) = 10
     Max number of k-points (npk) =  40000
     Max angular momentum in pseudopotentials (lmaxx) =  3

     IMPORTANT: XC functional enforced from input :
     Exchange-correlation      = VDW-DF ( 1  4  4  0 1 0)
     Any further DFT definition will be discarded
     Please, verify this is what you really want


     Subspace diagonalization in iterative solution of the eigenvalue problem:
     a serial algorithm will be used


     Parallelization info
     --------------------
     sticks:   dense  smooth     PW     G-vecs:    dense   smooth      PW
     Min         445     223     58                96775    34191    4534
     Max         446     224     59                96790    34246    4540
     Sum       14269    7147   1867              3097177  1095093  145167


     Title: 
     bridge.H2.Au5455.d.2.4.phi.45.psi.90                                       


     bravais-lattice index     =            4
     lattice parameter (alat)  =      22.7436  a.u.
     unit-cell volume          =   22924.1508 (a.u.)^3
     number of atoms/cell      =           67
     number of atomic types    =            3
     number of electrons       =       712.00
     number of Kohn-Sham states=          427
     kinetic-energy cutoff     =      50.0000  Ry
     charge density cutoff     =     400.0000  Ry
     convergence threshold     =      1.0E-08
     mixing beta               =       0.7000
     number of iterations used =            8  plain     mixing
     Exchange-correlation      = VDW-DF ( 1  4  4  0 1 0)

     celldm(1)=  22.743643  celldm(2)=   0.000000  celldm(3)=   2.250000
     celldm(4)=   0.000000  celldm(5)=   0.000000  celldm(6)=   0.000000

     crystal axes: (cart. coord. in units of alat)
               a(1) = (   1.000000   0.000000   0.000000 )  
               a(2) = (  -0.500000   0.866025   0.000000 )  
               a(3) = (   0.000000   0.000000   2.250000 )  

     reciprocal axes: (cart. coord. in units 2 pi/alat)
               b(1) = (  1.000000  0.577350 -0.000000 )  
               b(2) = (  0.000000  1.154701  0.000000 )  
               b(3) = (  0.000000 -0.000000  0.444444 )  


     PseudoPot. # 1 for Au read from file:
     /home/scc/andrejb/qe/pseudo/Au.pbe-nd-van.UPF
     MD5 check sum: 458681b50f36d87ef23c61b04bba420a
     Pseudo is Ultrasoft + core correction, Zval = 11.0
     Generated by new atomic code, or converted to UPF format
     Using radial grid of  985 points,  3 beta functions with: 
                l(1) =   1
                l(2) =   2
                l(3) =   2
     Q(r) pseudized with  8 coefficients,  rinner =    1.100   1.100   1.100
                                                       1.100   1.100

     PseudoPot. # 2 for H  read from file:
     /home/scc/andrejb/qe/pseudo/H.pbe-van_ak.UPF
     MD5 check sum: 403db7282739603aa925980fa9b8608d
     Pseudo is Ultrasoft, Zval =  1.0
     Generated by new atomic code, or converted to UPF format
     Using radial grid of  615 points,  1 beta functions with: 
                l(1) =   0
     Q(r) pseudized with  8 coefficients,  rinner =    0.800

     PseudoPot. # 3 for O  read from file:
     /home/scc/andrejb/qe/pseudo/O.pbe-van_ak.UPF
     MD5 check sum: 4b8c549914a63cae506c6ff22b5af4fe
     Pseudo is Ultrasoft, Zval =  6.0
     Generated by new atomic code, or converted to UPF format
     Using radial grid of  737 points,  4 beta functions with: 
                l(1) =   0
                l(2) =   0
                l(3) =   1
                l(4) =   1
     Q(r) pseudized with  8 coefficients,  rinner =    0.800   0.800   0.800


     vdW kernel table read from file vdW_kernel_table
     MD5 check sum: 48e77a2e26edf626eeb0eaa751ad5cac

     atomic species   valence    mass     pseudopotential
        Au            11.00   196.96657     Au( 1.00)
        H              1.00     1.01000     H ( 1.00)
        O              6.00    16.00000     O ( 1.00)

     No symmetry found



   Cartesian axes

     site n.     atom                  positions (alat units)
         1           O   tau(   1) = (   0.2937541   0.2113033   0.8363414  )
         2           H   tau(   2) = (   0.2915728   0.2885783   0.8124295  )
         3           H   tau(   3) = (   0.2874926   0.1686747   0.7678627  )
         4           Au  tau(   4) = (   0.3540481   0.6132292   0.0000000  )
         5           Au  tau(   5) = (   0.4790062   0.3967954   0.0000000  )
         6           Au  tau(   6) = (   0.6039644   0.1803616   0.0000000  )
         7           Au  tau(   7) = (   0.7289225  -0.0360723   0.0000000  )
         8           Au  tau(   8) = (   0.1041318   0.6132292   0.0000000  )
         9           Au  tau(   9) = (   0.2290899   0.3967954   0.0000000  )
        10           Au  tau(  10) = (   0.3540481   0.1803616   0.0000000  )
        11           Au  tau(  11) = (   0.4790062  -0.0360723   0.0000000  )
        12           Au  tau(  12) = (  -0.1457845   0.6132292   0.0000000  )
        13           Au  tau(  13) = (  -0.0208264   0.3967954   0.0000000  )
        14           Au  tau(  14) = (   0.1041318   0.1803616   0.0000000  )
        15           Au  tau(  15) = (   0.2290899  -0.0360723   0.0000000  )
        16           Au  tau(  16) = (  -0.3957008   0.6132292   0.0000000  )
        17           Au  tau(  17) = (  -0.2707426   0.3967954   0.0000000  )
        18           Au  tau(  18) = (  -0.1457845   0.1803616   0.0000000  )
        19           Au  tau(  19) = (  -0.0208264  -0.0360723   0.0000000  )
        20           Au  tau(  20) = (   0.4790062   0.6853738   0.2040557  )
        21           Au  tau(  21) = (   0.6039644   0.4689400   0.2040557  )
        22           Au  tau(  22) = (   0.7289225   0.2525061   0.2040557  )
        23           Au  tau(  23) = (   0.8538806   0.0360723   0.2040557  )
        24           Au  tau(  24) = (   0.2290899   0.6853738   0.2040557  )
        25           Au  tau(  25) = (   0.3540481   0.4689400   0.2040557  )
        26           Au  tau(  26) = (   0.4790062   0.2525061   0.2040557  )
        27           Au  tau(  27) = (   0.6039644   0.0360723   0.2040557  )
        28           Au  tau(  28) = (  -0.0208264   0.6853738   0.2040557  )
        29           Au  tau(  29) = (   0.1041318   0.4689400   0.2040557  )
        30           Au  tau(  30) = (   0.2290899   0.2525061   0.2040557  )
        31           Au  tau(  31) = (   0.3540481   0.0360723   0.2040557  )
        32           Au  tau(  32) = (  -0.2707426   0.6853738   0.2040557  )
        33           Au  tau(  33) = (  -0.1457845   0.4689400   0.2040557  )
        34           Au  tau(  34) = (  -0.0208264   0.2525061   0.2040557  )
        35           Au  tau(  35) = (   0.1041318   0.0360723   0.2040557  )
        36           Au  tau(  36) = (   0.3541162   0.7576593   0.4066483  )
        37           Au  tau(  37) = (   0.4791000   0.5411421   0.4066695  )
        38           Au  tau(  38) = (   0.6040570   0.3246862   0.4066617  )
        39           Au  tau(  39) = (   0.7290270   0.1081684   0.4066529  )
        40           Au  tau(  40) = (   0.1041162   0.7576236   0.4066247  )
        41           Au  tau(  41) = (   0.2291001   0.5411063   0.4066455  )
        42           Au  tau(  42) = (   0.3540567   0.3246505   0.4066380  )
        43           Au  tau(  43) = (   0.4790276   0.1081324   0.4066292  )
        44           Au  tau(  44) = (  -0.1458201   0.7576104   0.4066224  )
        45           Au  tau(  45) = (  -0.0208365   0.5410930   0.4066438  )
        46           Au  tau(  46) = (   0.1041202   0.3246372   0.4066359  )
        47           Au  tau(  47) = (   0.2290908   0.1081193   0.4066273  )
        48           Au  tau(  48) = (  -0.3958167   0.7575791   0.4065812  )
        49           Au  tau(  49) = (  -0.2708328   0.5410617   0.4066025  )
        50           Au  tau(  50) = (  -0.1458763   0.3246061   0.4065947  )
        51           Au  tau(  51) = (  -0.0209056   0.1080882   0.4065858  )
        52           Au  tau(  52) = (   0.3541085   0.6133344   0.6129762  )
        53           Au  tau(  53) = (   0.4790780   0.3968269   0.6129968  )
        54           Au  tau(  54) = (   0.6040356   0.1803811   0.6129859  )
        55           Au  tau(  55) = (   0.7290165  -0.0361221   0.6129385  )
        56           Au  tau(  56) = (   0.1041243   0.6133091   0.6130022  )
        57           Au  tau(  57) = (   0.2290941   0.3968013   0.6130241  )
        58           Au  tau(  58) = (   0.3540515   0.1803552   0.6130121  )
        59           Au  tau(  59) = (   0.4790323  -0.0361475   0.6129659  )
        60           Au  tau(  60) = (  -0.1458030   0.6133014   0.6129980  )
        61           Au  tau(  61) = (  -0.0208339   0.3967936   0.6130188  )
        62           Au  tau(  62) = (   0.1041239   0.1803477   0.6130083  )
        63           Au  tau(  63) = (   0.2291046  -0.0361554   0.6129607  )
        64           Au  tau(  64) = (  -0.3957908   0.6132739   0.6129471  )
        65           Au  tau(  65) = (  -0.2708208   0.3967658   0.6129688  )
        66           Au  tau(  66) = (  -0.1458636   0.1803200   0.6129569  )
        67           Au  tau(  67) = (  -0.0208823  -0.0361826   0.6129110  )

     number of k points=    12  Marzari-Vanderbilt smearing, width (Ry)=  0.0200
                       cart. coord. in units 2pi/alat
        k(    1) = (   0.2500000   0.4330127   0.1111111), wk =   0.1666667
        k(    2) = (   0.2500000  -0.1443376   0.1111111), wk =   0.1666667
        k(    3) = (  -0.2500000  -0.4330127   0.1111111), wk =   0.1666667
        k(    4) = (  -0.2500000   0.4330127  -0.1111111), wk =   0.1666667
        k(    5) = (   0.2500000  -0.4330127  -0.1111111), wk =   0.1666667
        k(    6) = (   0.5000000   0.0000000   0.1111111), wk =   0.1666667
        k(    7) = (  -0.5000000   0.0000000   0.1111111), wk =   0.1666667
        k(    8) = (  -0.2500000   0.1443376   0.1111111), wk =   0.1666667
        k(    9) = (  -0.2500000  -0.1443376  -0.1111111), wk =   0.1666667
        k(   10) = (   0.2500000   0.1443376  -0.1111111), wk =   0.1666667
        k(   11) = (   0.0000000  -0.2886751   0.1111111), wk =   0.1666667
        k(   12) = (   0.0000000   0.2886751   0.1111111), wk =   0.1666667

     Dense  grid:  3097177 G-vectors     FFT dimensions: ( 150, 150, 360)

     Smooth grid:  1095093 G-vectors     FFT dimensions: ( 108, 108, 240)

     Largest allocated arrays     est. size (Mb)     dimensions
        Kohn-Sham Wavefunctions        28.01 Mb     (    4299,  427)
        NL pseudopotentials            55.23 Mb     (    4299,  842)
        Each V/rho on FFT grid          4.12 Mb     (  270000)
        Each G-vector array             0.74 Mb     (   96788)
        G-vector shells                 0.16 Mb     (   21404)
     Largest temporary arrays     est. size (Mb)     dimensions
        Auxiliary wavefunctions       112.04 Mb     (    4299, 1708)
        Each subspace H/S matrix       44.51 Mb     (    1708, 1708)
        Each <psi_i|beta_j> matrix      5.49 Mb     (     842,  427)
        Arrays for rho mixing          32.96 Mb     (  270000,    8)

     Initial potential from superposition of free atoms
     Check: negative starting charge=   -1.730356

     starting charge  711.25682, renormalised to  712.00000

     negative rho (up, down):  1.732E+00 0.000E+00


     ************************************************************************
     *
     * You are using vdW-DF for exchange-correlation in this calculation.
     * Please cite the following three references that made this development
     * possible:
     *
     *   M. Dion, H. Rydberg, E. Schroder, D. C. Langreth, and
     *   B. I. Lundqvist, Phys. Rev. Lett. 92, 246401 (2004).
     *
     *   T. Thonhauser, V. R. Cooper, S. Li, A. Puzder, P. Hyldgaard, and
     *   D. C. Langreth, Phys. Rev. B 76, 125112 (2007).
     *
     *   G. Roman-Perez and J. M. Soler, Phys. Rev. Lett. 103, 096102 (2009).
     *
     *
     * If you are using vdW-DF2, please also cite:
     *
     *   K. Lee, E. D. Murray, L. Kong, B. I. Lundqvist, and
     *   D. C. Langreth, Phys. Rev. B 82, 081101(R) (2010).
     *
     *
     * If you are calculating the stress with vdW-DF, please also cite:
     *
     *   R. Sabatini, E. Kucukbenli, B. Kolb, T. Thonhauser, and
     *   S. de Gironcoli, J. Phys.: Condens. Matter 24, 424209 (2012).
     *
     ************************************************************************

     Carrying out vdW-DF run using the following parameters:

     Nqs =      20    Nr_points =    1024   r_max =   100.000
     q_mesh =
               0.00001000     0.04494208     0.09755937     0.15916263
               0.23128650     0.31572767     0.41458969     0.53033537
               0.66584808     0.82450364     1.01025438     1.22772762
               1.48234092     1.78043706     2.12944203     2.53805004
               3.01644009     3.57652955     4.23227104     5.00000000

     Gradients computed in reciprocal space

     ************************************************************************


     Starting wfc are  582 randomized atomic wfcs

     total cpu time spent up to now is      160.3 secs

     Self-consistent Calculation

     iteration #  1     ecut=    50.00 Ry     beta=0.70
     Davidson diagonalization with overlap
     ethr =  1.00E-02,  avg # of iterations =  3.0

     Threshold (ethr) on eigenvalues was too large:
     Diagonalizing with lowered threshold

     Davidson diagonalization with overlap
     ethr =  3.32E-04,  avg # of iterations =  3.7

     negative rho (up, down):  1.727E+00 0.000E+00

     total cpu time spent up to now is      779.9 secs

     total energy              =   -6602.82715013 Ry
     Harris-Foulkes estimate   =   -6604.98678502 Ry
     estimated scf accuracy    <       2.71219086 Ry

     iteration #  2     ecut=    50.00 Ry     beta=0.70
     Davidson diagonalization with overlap
     ethr =  3.81E-04,  avg # of iterations = 11.4

     negative rho (up, down):  1.727E+00 0.000E+00

     total cpu time spent up to now is     1742.0 secs

     total energy              =   -6597.34865790 Ry
     Harris-Foulkes estimate   =   -6609.77898523 Ry
     estimated scf accuracy    <      67.51572166 Ry

     iteration #  3     ecut=    50.00 Ry     beta=0.70
     Davidson diagonalization with overlap
     ethr =  3.81E-04,  avg # of iterations =  6.1

     negative rho (up, down):  1.737E+00 0.000E+00

     total cpu time spent up to now is     2354.1 secs

     total energy              =   -6603.14625758 Ry
     Harris-Foulkes estimate   =   -6604.98959032 Ry
     estimated scf accuracy    <       8.36816113 Ry

     iteration #  4     ecut=    50.00 Ry     beta=0.70
     Davidson diagonalization with overlap
     ethr =  3.81E-04,  avg # of iterations =  5.7

     negative rho (up, down):  1.739E+00 0.000E+00

     total cpu time spent up to now is     2716.6 secs

     total energy              =   -6603.68498924 Ry
     Harris-Foulkes estimate   =   -6604.98212589 Ry
     estimated scf accuracy    <      10.66419517 Ry

     iteration #  5     ecut=    50.00 Ry     beta=0.70
     Davidson diagonalization with overlap
     ethr =  3.81E-04,  avg # of iterations =  6.3

     negative rho (up, down):  1.747E+00 0.000E+00

     total cpu time spent up to now is     3092.0 secs

     total energy              =   -6604.23371144 Ry
     Harris-Foulkes estimate   =   -6604.66190343 Ry
     estimated scf accuracy    <       3.38182940 Ry

     iteration #  6     ecut=    50.00 Ry     beta=0.70
     Davidson diagonalization with overlap
     ethr =  3.81E-04,  avg # of iterations =  3.0

     negative rho (up, down):  1.752E+00 0.000E+00

     total cpu time spent up to now is     3383.5 secs

     total energy              =   -6604.39511640 Ry
     Harris-Foulkes estimate   =   -6604.44696157 Ry
     estimated scf accuracy    <       0.17515461 Ry

     iteration #  7     ecut=    50.00 Ry     beta=0.70
     Davidson diagonalization with overlap
     ethr =  2.46E-05,  avg # of iterations =  9.0

     negative rho (up, down):  1.754E+00 0.000E+00

     total cpu time spent up to now is     3829.0 secs

     total energy              =   -6604.40498166 Ry
     Harris-Foulkes estimate   =   -6604.43440219 Ry
     estimated scf accuracy    <       0.13629001 Ry

     iteration #  8     ecut=    50.00 Ry     beta=0.70
     Davidson diagonalization with overlap
     ethr =  1.91E-05,  avg # of iterations =  3.2

     negative rho (up, down):  1.755E+00 0.000E+00

     total cpu time spent up to now is     4131.6 secs

     total energy              =   -6604.40842657 Ry
     Harris-Foulkes estimate   =   -6604.42200855 Ry
     estimated scf accuracy    <       0.05546838 Ry

     iteration #  9     ecut=    50.00 Ry     beta=0.70
     Davidson diagonalization with overlap
     ethr =  7.79E-06,  avg # of iterations =  4.8

     negative rho (up, down):  1.756E+00 0.000E+00

     total cpu time spent up to now is     4462.8 secs

     total energy              =   -6604.40848132 Ry
     Harris-Foulkes estimate   =   -6604.41468775 Ry
     estimated scf accuracy    <       0.02329580 Ry

     iteration # 10     ecut=    50.00 Ry     beta=0.70
     Davidson diagonalization with overlap
     ethr =  3.27E-06,  avg # of iterations =  5.3

     negative rho (up, down):  1.757E+00 0.000E+00

     total cpu time spent up to now is     4842.8 secs

     total energy              =   -6604.40841770 Ry
     Harris-Foulkes estimate   =   -6604.41091448 Ry
     estimated scf accuracy    <       0.00895632 Ry

     iteration # 11     ecut=    50.00 Ry     beta=0.70
     Davidson diagonalization with overlap
     c_bands:  1 eigenvalues not converged
     ethr =  1.26E-06,  avg # of iterations =  7.7

     negative rho (up, down):  1.757E+00 0.000E+00

     total cpu time spent up to now is     5216.1 secs

     total energy              =   -6604.40836595 Ry
     Harris-Foulkes estimate   =   -6604.40960082 Ry
     estimated scf accuracy    <       0.00452700 Ry

     iteration # 12     ecut=    50.00 Ry     beta=0.70
     Davidson diagonalization with overlap
     ethr =  6.36E-07,  avg # of iterations =  3.7

     negative rho (up, down):  1.757E+00 0.000E+00

     total cpu time spent up to now is     5514.4 secs

     total energy              =   -6604.40847194 Ry
     Harris-Foulkes estimate   =   -6604.40885552 Ry
     estimated scf accuracy    <       0.00076129 Ry

     iteration # 13     ecut=    50.00 Ry     beta=0.70
     Davidson diagonalization with overlap
     ethr =  1.07E-07,  avg # of iterations =  6.8

     negative rho (up, down):  1.757E+00 0.000E+00

     total cpu time spent up to now is     5906.8 secs

     total energy              =   -6604.40859995 Ry
     Harris-Foulkes estimate   =   -6604.40870784 Ry
     estimated scf accuracy    <       0.00032998 Ry

     iteration # 14     ecut=    50.00 Ry     beta=0.70
     Davidson diagonalization with overlap
     ethr =  4.63E-08,  avg # of iterations =  2.0

     negative rho (up, down):  1.757E+00 0.000E+00

     total cpu time spent up to now is     6185.7 secs

     total energy              =   -6604.40863995 Ry
     Harris-Foulkes estimate   =   -6604.40868056 Ry
     estimated scf accuracy    <       0.00015623 Ry

     iteration # 15     ecut=    50.00 Ry     beta=0.70
     Davidson diagonalization with overlap
     ethr =  2.19E-08,  avg # of iterations =  2.0

     negative rho (up, down):  1.757E+00 0.000E+00

     total cpu time spent up to now is     6463.7 secs

     total energy              =   -6604.40865119 Ry
     Harris-Foulkes estimate   =   -6604.40867422 Ry
     estimated scf accuracy    <       0.00011727 Ry

     iteration # 16     ecut=    50.00 Ry     beta=0.70
     Davidson diagonalization with overlap
     ethr =  1.65E-08,  avg # of iterations =  2.0

     negative rho (up, down):  1.757E+00 0.000E+00

     total cpu time spent up to now is     6737.5 secs

     total energy              =   -6604.40865500 Ry
     Harris-Foulkes estimate   =   -6604.40867082 Ry
     estimated scf accuracy    <       0.00013825 Ry

     iteration # 17     ecut=    50.00 Ry     beta=0.70
     Davidson diagonalization with overlap
     ethr =  1.65E-08,  avg # of iterations =  1.0

     negative rho (up, down):  1.757E+00 0.000E+00

     total cpu time spent up to now is     6999.6 secs

     total energy              =   -6604.40866293 Ry
     Harris-Foulkes estimate   =   -6604.40866522 Ry
     estimated scf accuracy    <       0.00001170 Ry

     iteration # 18     ecut=    50.00 Ry     beta=0.70
     Davidson diagonalization with overlap
     ethr =  1.64E-09,  avg # of iterations =  2.0

     negative rho (up, down):  1.757E+00 0.000E+00

     total cpu time spent up to now is     7283.6 secs

     total energy              =   -6604.40866282 Ry
     Harris-Foulkes estimate   =   -6604.40866603 Ry
     estimated scf accuracy    <       0.00001440 Ry

     iteration # 19     ecut=    50.00 Ry     beta=0.70
     Davidson diagonalization with overlap
     ethr =  1.64E-09,  avg # of iterations =  2.0

     negative rho (up, down):  1.757E+00 0.000E+00

     total cpu time spent up to now is     7563.6 secs

     total energy              =   -6604.40866438 Ry
     Harris-Foulkes estimate   =   -6604.40866457 Ry
     estimated scf accuracy    <       0.00000058 Ry

     iteration # 20     ecut=    50.00 Ry     beta=0.70
     Davidson diagonalization with overlap
     ethr =  8.19E-11,  avg # of iterations =  3.0

     negative rho (up, down):  1.757E+00 0.000E+00

     total cpu time spent up to now is     7909.6 secs

     total energy              =   -6604.40866451 Ry
     Harris-Foulkes estimate   =   -6604.40866456 Ry
     estimated scf accuracy    <       0.00000021 Ry

     iteration # 21     ecut=    50.00 Ry     beta=0.70
     Davidson diagonalization with overlap
     ethr =  2.95E-11,  avg # of iterations =  2.0

     negative rho (up, down):  1.757E+00 0.000E+00

     total cpu time spent up to now is     8199.4 secs

     total energy              =   -6604.40866455 Ry
     Harris-Foulkes estimate   =   -6604.40866456 Ry
     estimated scf accuracy    <       0.00000009 Ry

     iteration # 22     ecut=    50.00 Ry     beta=0.70
     Davidson diagonalization with overlap
     ethr =  1.24E-11,  avg # of iterations =  2.0

     negative rho (up, down):  1.757E+00 0.000E+00

     total cpu time spent up to now is     8489.7 secs

     total energy              =   -6604.40866456 Ry
     Harris-Foulkes estimate   =   -6604.40866457 Ry
     estimated scf accuracy    <       0.00000003 Ry

     iteration # 23     ecut=    50.00 Ry     beta=0.70
     Davidson diagonalization with overlap
     ethr =  4.37E-12,  avg # of iterations =  3.0

     negative rho (up, down):  1.757E+00 0.000E+00

     total cpu time spent up to now is     8830.1 secs

     total energy              =   -6604.40866456 Ry
     Harris-Foulkes estimate   =   -6604.40866457 Ry
     estimated scf accuracy    <       0.00000002 Ry

     iteration # 24     ecut=    50.00 Ry     beta=0.70
     Davidson diagonalization with overlap
     ethr =  2.57E-12,  avg # of iterations =  2.0

     negative rho (up, down):  1.757E+00 0.000E+00

     total cpu time spent up to now is     9123.1 secs

     total energy              =   -6604.40866457 Ry
     Harris-Foulkes estimate   =   -6604.40866457 Ry
     estimated scf accuracy    <       0.00000001 Ry

     iteration # 25     ecut=    50.00 Ry     beta=0.70
     Davidson diagonalization with overlap
     ethr =  1.66E-12,  avg # of iterations =  2.0

     negative rho (up, down):  1.757E+00 0.000E+00

     total cpu time spent up to now is     9400.4 secs

     End of self-consistent calculation

          k = 0.2500 0.4330 0.1111 (136853 PWs)   bands (ev):

   -18.8724  -6.8614  -6.4382  -6.0414  -6.0384  -5.3676  -5.0301  -5.0285
    -5.0014  -4.9883  -4.6302  -4.6279  -4.5317  -4.5296  -4.5162  -4.4917
    -4.4866  -4.3640  -4.3608  -4.3376  -4.2950  -4.2940  -4.2354  -4.2257
    -4.2228  -4.2198  -4.1994  -4.1957  -4.1897  -4.1421  -4.1191  -4.0914
    -4.0882  -4.0786  -4.0768  -4.0538  -4.0532  -4.0315  -4.0230  -4.0222
    -3.9994  -3.9453  -3.9441  -3.8985  -3.8944  -3.8460  -3.8420  -3.7942
    -3.7848  -3.7814  -3.7805  -3.7457  -3.7216  -3.7140  -3.7024  -3.7002
    -3.6984  -3.6785  -3.6687  -3.6606  -3.6123  -3.6038  -3.5964  -3.5763
    -3.5661  -3.5175  -3.4932  -3.4681  -3.4597  -3.4523  -3.4317  -3.4219
    -3.4160  -3.3879  -3.3442  -3.3321  -3.3241  -3.3127  -3.2716  -3.2698
    -3.2452  -3.2256  -3.1980  -3.1919  -3.1893  -3.1817  -3.1793  -3.1716
    -3.1678  -3.1625  -3.1377  -3.1121  -3.0795  -3.0756  -3.0676  -3.0627
    -3.0359  -3.0321  -3.0242  -3.0043  -2.9596  -2.9557  -2.9469  -2.9158
    -2.9049  -2.8946  -2.8915  -2.8656  -2.8597  -2.8332  -2.8031  -2.7935
    -2.7807  -2.7682  -2.7566  -2.7530  -2.7083  -2.7054  -2.6720  -2.6520
    -2.6480  -2.6267  -2.6214  -2.6141  -2.6081  -2.6033  -2.5831  -2.5811
    -2.5359  -2.5343  -2.5331  -2.5209  -2.5187  -2.5096  -2.5059  -2.5051
    -2.4981  -2.4960  -2.4942  -2.4913  -2.4817  -2.4744  -2.4519  -2.4452
    -2.4427  -2.4395  -2.4391  -2.4357  -2.4264  -2.4118  -2.4090  -2.3947
    -2.3923  -2.3742  -2.3721  -2.3706  -2.3655  -2.3628  -2.3617  -2.3489
    -2.3413  -2.3396  -2.3343  -2.3211  -2.2993  -2.2934  -2.2553  -2.2544
    -2.2366  -2.2331  -2.2083  -2.2032  -2.1797  -2.1754  -2.1619  -2.1531
    -2.1302  -2.1180  -2.1115  -2.1048  -2.0981  -2.0969  -2.0897  -2.0859
    -2.0593  -2.0560  -2.0480  -1.9934  -1.9859  -1.9833  -1.9810  -1.9685
    -1.9542  -1.9270  -1.9239  -1.8986  -1.8945  -1.8429  -1.8395  -1.8061
    -1.7955  -1.7869  -1.7331  -1.7294  -1.7226  -1.7161  -1.7090  -1.7036
    -1.6995  -1.6951  -1.6905  -1.6428  -1.6360  -1.6255  -1.6221  -1.6196
    -1.6047  -1.5978  -1.5770  -1.5701  -1.5581  -1.5529  -1.5506  -1.5425
    -1.5379  -1.5354  -1.5266  -1.5106  -1.5080  -1.4768  -1.4646  -1.4576
    -1.4503  -1.4380  -1.4201  -1.3941  -1.3822  -1.3578  -1.3525  -1.3493
    -1.3211  -1.2871  -1.2700  -1.2678  -1.2659  -1.2605  -1.2582  -1.2523
    -1.2356  -1.2336  -1.2009  -1.1877  -1.1705  -1.1618  -1.1562  -1.1518
    -1.1486  -1.1382  -1.1314  -1.1301  -1.1273  -1.1231  -1.0979  -1.0872
    -1.0856  -1.0826  -1.0646  -1.0570  -1.0498  -1.0329  -1.0232  -1.0149
    -0.9856  -0.9734  -0.9624  -0.9514  -0.9256  -0.9201  -0.9156  -0.9078
    -0.9038  -0.9021  -0.8981  -0.8934  -0.8855  -0.8688  -0.8652  -0.8611
    -0.8573  -0.8562  -0.8414  -0.8199  -0.8187  -0.8055  -0.7956  -0.7871
    -0.7833  -0.7763  -0.7692  -0.7169  -0.7141  -0.7098  -0.7064  -0.7025
    -0.7012  -0.6877  -0.6790  -0.6739  -0.6708  -0.6703  -0.6671  -0.6438
    -0.6323  -0.6267  -0.6256  -0.6178  -0.6141  -0.6120  -0.6099  -0.5942
    -0.5930  -0.5910  -0.5593  -0.5506  -0.5494  -0.5409  -0.5359  -0.5292
    -0.4648  -0.4575  -0.4566  -0.4538  -0.4479  -0.4379  -0.4096  -0.4001
    -0.3984  -0.3667  -0.3625  -0.3393  -0.2479  -0.2407  -0.1435   0.2712
     0.2722   0.2784   0.2789   0.3431   0.3542   0.7237   0.7271   0.7672
     0.7693   0.8910   0.9626   1.0724   1.0761   1.2964   1.3091   1.9245
     1.9280   2.0855   2.0879   2.2210   2.2289   2.3223   2.3233   2.4770
     2.7148   2.7336   2.8415   3.0631   3.0694   3.1409   3.1444   3.2433
     3.2616   3.4669   3.4804   3.5143   3.7162   3.7217   3.7828   3.7853
     4.0345   4.0461   4.0507   4.2858   4.3238   4.3294   4.3746   4.7043
     4.7121   4.7387   4.8731   5.0494   5.0519   5.1201   5.1405   5.6059
     5.8181   5.8256   5.8429   5.8719   5.9023   5.9067   5.9177   6.0104
     6.0299   6.0454   6.0770   6.0803   6.1069   6.1189   6.1301   6.1386
     6.2405   6.5704   6.6116   6.7195   6.7591   6.7816   6.7911   6.7951
     6.8032   6.9025   6.9804

          k = 0.2500-0.1443 0.1111 (136898 PWs)   bands (ev):

   -18.8724  -6.8631  -6.6459  -5.8575  -5.5711  -5.5084  -5.5062  -4.9702
    -4.9683  -4.8431  -4.8366  -4.6875  -4.6610  -4.5889  -4.5658  -4.5558
    -4.5229  -4.5216  -4.3935  -4.3518  -4.3510  -4.2942  -4.2765  -4.2712
    -4.1698  -4.1680  -4.1337  -4.1316  -4.1312  -4.1089  -4.0846  -4.0832
    -3.9935  -3.9767  -3.9760  -3.9581  -3.9414  -3.9386  -3.9317  -3.9267
    -3.9165  -3.8892  -3.8842  -3.8837  -3.8816  -3.8536  -3.8534  -3.8352
    -3.8316  -3.8262  -3.7961  -3.7846  -3.7527  -3.7387  -3.7302  -3.7231
    -3.7230  -3.6511  -3.6492  -3.6304  -3.6184  -3.6126  -3.5525  -3.5431
    -3.5372  -3.5277  -3.5067  -3.5016  -3.5003  -3.4976  -3.4084  -3.3439
    -3.3415  -3.3224  -3.3197  -3.3007  -3.2964  -3.2785  -3.2733  -3.2574
    -3.2210  -3.2183  -3.2043  -3.2007  -3.1777  -3.1404  -3.1365  -3.1138
    -3.1110  -3.1030  -3.0713  -3.0706  -3.0613  -3.0582  -3.0460  -3.0225
    -3.0089  -3.0079  -2.9908  -2.9842  -2.9817  -2.9800  -2.9696  -2.9044
    -2.9034  -2.8917  -2.8697  -2.8684  -2.8153  -2.8036  -2.7825  -2.7757
    -2.7700  -2.7675  -2.7577  -2.7337  -2.7294  -2.7205  -2.7054  -2.6831
    -2.6810  -2.6710  -2.6579  -2.6577  -2.6484  -2.6459  -2.6439  -2.6315
    -2.6312  -2.5863  -2.5602  -2.5575  -2.5353  -2.5263  -2.5237  -2.5184
    -2.5117  -2.5109  -2.5088  -2.4834  -2.4808  -2.4776  -2.4716  -2.4696
    -2.4558  -2.4317  -2.4286  -2.4246  -2.4242  -2.4218  -2.3771  -2.3505
    -2.3462  -2.3453  -2.3403  -2.3298  -2.3266  -2.3196  -2.3007  -2.3001
    -2.2755  -2.2671  -2.2660  -2.2530  -2.2493  -2.2484  -2.2167  -2.2126
    -2.1819  -2.1698  -2.1683  -2.1661  -2.1638  -2.1587  -2.1576  -2.1529
    -2.1517  -2.1477  -2.1403  -2.1315  -2.1303  -2.0105  -2.0056  -1.9830
    -1.9673  -1.9650  -1.9557  -1.9556  -1.9447  -1.9426  -1.9368  -1.9346
    -1.9275  -1.9144  -1.9091  -1.9077  -1.8960  -1.8915  -1.8833  -1.8714
    -1.8625  -1.8416  -1.8386  -1.8141  -1.8031  -1.8003  -1.7896  -1.7724
    -1.7715  -1.7682  -1.7531  -1.7394  -1.7371  -1.7304  -1.7294  -1.7070
    -1.7049  -1.6910  -1.6888  -1.6564  -1.6500  -1.6375  -1.6060  -1.5959
    -1.5866  -1.5795  -1.5723  -1.5532  -1.5494  -1.5230  -1.5186  -1.5138
    -1.4835  -1.4780  -1.4748  -1.4568  -1.4565  -1.4358  -1.4329  -1.4267
    -1.4058  -1.3986  -1.3959  -1.3396  -1.3328  -1.3265  -1.3231  -1.3078
    -1.3063  -1.2926  -1.2907  -1.2751  -1.2611  -1.2465  -1.2337  -1.2250
    -1.2009  -1.1873  -1.1833  -1.1737  -1.1729  -1.1702  -1.1676  -1.1663
    -1.1479  -1.1250  -1.1234  -1.1178  -1.1069  -1.1042  -1.0999  -1.0872
    -1.0722  -1.0630  -1.0530  -1.0413  -0.9767  -0.9499  -0.9428  -0.9330
    -0.9313  -0.9248  -0.9218  -0.9046  -0.9011  -0.8852  -0.8824  -0.8686
    -0.8662  -0.8622  -0.8490  -0.8397  -0.8336  -0.8268  -0.8013  -0.7527
    -0.7518  -0.7202  -0.7147  -0.7106  -0.7073  -0.7051  -0.7037  -0.6962
    -0.6924  -0.6758  -0.6616  -0.6490  -0.6227  -0.6172  -0.6162  -0.6067
    -0.5982  -0.5955  -0.5922  -0.5902  -0.5884  -0.5780  -0.5733  -0.5685
    -0.5545  -0.5386  -0.5355  -0.5269  -0.5223  -0.5160  -0.5030  -0.4718
    -0.4674  -0.4625  -0.4542  -0.3933  -0.3916  -0.3606  -0.3592  -0.3032
    -0.3017  -0.2982  -0.2776  -0.2674  -0.0425  -0.0268   0.3018   0.3021
     0.3944   0.4112   0.5952   0.6180   0.6243   0.7472   0.7518   1.1820
     1.1829   1.1993   1.4677   1.4919   1.4929   1.7704   1.7845   1.8441
     1.8466   1.8742   1.8836   2.1003   2.1041   2.1935   2.1941   2.2799
     2.3330   2.3455   2.4969   2.5998   3.0262   3.0360   3.0370   3.0401
     3.0887   3.0955   3.3847   3.3870   3.6667   3.6743   3.7873   4.0829
     4.1211   4.1229   4.3541   4.3727   4.4210   4.4266   4.5181   4.6338
     4.6377   4.7505   4.7541   5.0529   5.1177   5.1251   5.3004   5.3270
     5.4795   5.5054   5.5138   5.5379   5.5440   5.5925   5.6063   5.6691
     6.0095   6.0660   6.2038   6.2887   6.3308   6.3371   6.3479   6.3586
     6.3651   6.5943   6.5984   6.6265   6.7569   6.8236   6.8530   6.8871
     6.9196   7.1100   7.1462

          k =-0.2500-0.4330 0.1111 (136853 PWs)   bands (ev):

   -18.8724  -6.8614  -6.4382  -6.0414  -6.0384  -5.3676  -5.0301  -5.0285
    -5.0014  -4.9883  -4.6302  -4.6279  -4.5317  -4.5296  -4.5162  -4.4917
    -4.4866  -4.3640  -4.3608  -4.3376  -4.2950  -4.2940  -4.2354  -4.2257
    -4.2228  -4.2198  -4.1994  -4.1957  -4.1897  -4.1421  -4.1191  -4.0914
    -4.0882  -4.0786  -4.0768  -4.0538  -4.0532  -4.0315  -4.0230  -4.0222
    -3.9994  -3.9453  -3.9441  -3.8985  -3.8944  -3.8460  -3.8420  -3.7942
    -3.7848  -3.7814  -3.7805  -3.7457  -3.7216  -3.7140  -3.7024  -3.7002
    -3.6984  -3.6785  -3.6687  -3.6606  -3.6123  -3.6038  -3.5964  -3.5763
    -3.5661  -3.5175  -3.4932  -3.4681  -3.4597  -3.4523  -3.4317  -3.4219
    -3.4160  -3.3879  -3.3442  -3.3321  -3.3241  -3.3127  -3.2716  -3.2698
    -3.2452  -3.2256  -3.1980  -3.1919  -3.1893  -3.1817  -3.1793  -3.1716
    -3.1678  -3.1625  -3.1377  -3.1121  -3.0795  -3.0756  -3.0676  -3.0627
    -3.0359  -3.0321  -3.0242  -3.0043  -2.9596  -2.9557  -2.9469  -2.9158
    -2.9049  -2.8945  -2.8915  -2.8656  -2.8597  -2.8332  -2.8031  -2.7935
    -2.7807  -2.7682  -2.7566  -2.7530  -2.7083  -2.7054  -2.6720  -2.6520
    -2.6480  -2.6267  -2.6214  -2.6141  -2.6081  -2.6033  -2.5831  -2.5811
    -2.5359  -2.5343  -2.5331  -2.5209  -2.5187  -2.5096  -2.5059  -2.5051
    -2.4981  -2.4960  -2.4942  -2.4913  -2.4817  -2.4744  -2.4519  -2.4452
    -2.4427  -2.4395  -2.4391  -2.4357  -2.4264  -2.4118  -2.4090  -2.3947
    -2.3923  -2.3742  -2.3721  -2.3706  -2.3655  -2.3628  -2.3617  -2.3489
    -2.3413  -2.3396  -2.3343  -2.3211  -2.2993  -2.2934  -2.2553  -2.2544
    -2.2366  -2.2331  -2.2083  -2.2032  -2.1797  -2.1754  -2.1619  -2.1531
    -2.1302  -2.1180  -2.1115  -2.1048  -2.0981  -2.0969  -2.0897  -2.0859
    -2.0593  -2.0560  -2.0480  -1.9934  -1.9859  -1.9833  -1.9810  -1.9685
    -1.9542  -1.9270  -1.9239  -1.8986  -1.8945  -1.8429  -1.8395  -1.8061
    -1.7955  -1.7869  -1.7331  -1.7294  -1.7226  -1.7161  -1.7090  -1.7036
    -1.6995  -1.6951  -1.6905  -1.6428  -1.6360  -1.6255  -1.6221  -1.6196
    -1.6047  -1.5978  -1.5770  -1.5701  -1.5581  -1.5529  -1.5506  -1.5425
    -1.5379  -1.5354  -1.5266  -1.5106  -1.5080  -1.4768  -1.4646  -1.4576
    -1.4503  -1.4380  -1.4201  -1.3941  -1.3822  -1.3578  -1.3525  -1.3493
    -1.3211  -1.2871  -1.2700  -1.2678  -1.2659  -1.2605  -1.2582  -1.2523
    -1.2356  -1.2336  -1.2009  -1.1877  -1.1705  -1.1618  -1.1562  -1.1518
    -1.1486  -1.1382  -1.1314  -1.1301  -1.1273  -1.1231  -1.0979  -1.0872
    -1.0856  -1.0826  -1.0646  -1.0570  -1.0498  -1.0329  -1.0232  -1.0149
    -0.9856  -0.9734  -0.9624  -0.9514  -0.9256  -0.9201  -0.9156  -0.9078
    -0.9038  -0.9021  -0.8981  -0.8934  -0.8855  -0.8688  -0.8652  -0.8611
    -0.8573  -0.8562  -0.8414  -0.8199  -0.8187  -0.8055  -0.7956  -0.7871
    -0.7833  -0.7763  -0.7692  -0.7169  -0.7141  -0.7098  -0.7064  -0.7025
    -0.7012  -0.6877  -0.6790  -0.6739  -0.6708  -0.6703  -0.6671  -0.6438
    -0.6323  -0.6267  -0.6256  -0.6178  -0.6141  -0.6120  -0.6099  -0.5942
    -0.5930  -0.5910  -0.5593  -0.5506  -0.5494  -0.5409  -0.5359  -0.5292
    -0.4648  -0.4575  -0.4566  -0.4538  -0.4479  -0.4379  -0.4096  -0.4001
    -0.3984  -0.3667  -0.3625  -0.3393  -0.2479  -0.2407  -0.1435   0.2712
     0.2722   0.2784   0.2789   0.3431   0.3542   0.7237   0.7271   0.7672
     0.7693   0.8910   0.9626   1.0724   1.0761   1.2964   1.3091   1.9245
     1.9280   2.0855   2.0879   2.2210   2.2289   2.3223   2.3233   2.4770
     2.7148   2.7336   2.8415   3.0631   3.0694   3.1409   3.1444   3.2433
     3.2616   3.4669   3.4804   3.5143   3.7162   3.7217   3.7828   3.7853
     4.0345   4.0461   4.0507   4.2858   4.3238   4.3294   4.3746   4.7043
     4.7121   4.7387   4.8731   5.0494   5.0519   5.1201   5.1405   5.6059
     5.8181   5.8256   5.8429   5.8720   5.9023   5.9067   5.9177   6.0105
     6.0300   6.0454   6.0770   6.0803   6.1069   6.1189   6.1301   6.1386
     6.2403   6.5701   6.6117   6.7197   6.7601   6.7809   6.7898   6.7923
     6.8068   6.9025   6.9823

          k =-0.2500 0.4330-0.1111 (136853 PWs)   bands (ev):

   -18.8724  -6.8615  -6.4380  -6.0428  -6.0371  -5.3674  -5.0310  -5.0289
    -5.0023  -4.9869  -4.6298  -4.6271  -4.5306  -4.5298  -4.5154  -4.4917
    -4.4872  -4.3669  -4.3604  -4.3386  -4.2950  -4.2942  -4.2348  -4.2255
    -4.2246  -4.2199  -4.1978  -4.1967  -4.1892  -4.1424  -4.1179  -4.0912
    -4.0876  -4.0781  -4.0766  -4.0550  -4.0532  -4.0309  -4.0241  -4.0224
    -3.9983  -3.9458  -3.9440  -3.8977  -3.8931  -3.8438  -3.8413  -3.7932
    -3.7844  -3.7815  -3.7804  -3.7469  -3.7210  -3.7132  -3.7060  -3.7004
    -3.6982  -3.6853  -3.6696  -3.6606  -3.6126  -3.6033  -3.6010  -3.5740
    -3.5647  -3.5193  -3.4928  -3.4709  -3.4610  -3.4404  -3.4338  -3.4163
    -3.4124  -3.3799  -3.3447  -3.3357  -3.3263  -3.3173  -3.2757  -3.2701
    -3.2436  -3.2251  -3.2036  -3.1968  -3.1879  -3.1857  -3.1808  -3.1686
    -3.1673  -3.1601  -3.1332  -3.1126  -3.0800  -3.0737  -3.0657  -3.0610
    -3.0351  -3.0311  -3.0280  -3.0018  -2.9591  -2.9575  -2.9450  -2.9151
    -2.9046  -2.8941  -2.8911  -2.8707  -2.8580  -2.8326  -2.8023  -2.7949
    -2.7800  -2.7682  -2.7560  -2.7524  -2.7090  -2.7020  -2.6720  -2.6507
    -2.6486  -2.6282  -2.6227  -2.6150  -2.6101  -2.6034  -2.5845  -2.5808
    -2.5387  -2.5350  -2.5322  -2.5207  -2.5193  -2.5110  -2.5070  -2.5049
    -2.5007  -2.4960  -2.4921  -2.4909  -2.4806  -2.4708  -2.4525  -2.4458
    -2.4425  -2.4399  -2.4392  -2.4361  -2.4312  -2.4128  -2.4112  -2.3950
    -2.3926  -2.3743  -2.3720  -2.3676  -2.3651  -2.3630  -2.3579  -2.3503
    -2.3410  -2.3398  -2.3349  -2.3226  -2.2993  -2.2943  -2.2557  -2.2545
    -2.2357  -2.2337  -2.2077  -2.2031  -2.1779  -2.1753  -2.1625  -2.1549
    -2.1282  -2.1148  -2.1065  -2.1008  -2.0985  -2.0905  -2.0868  -2.0817
    -2.0602  -2.0584  -2.0483  -1.9969  -1.9882  -1.9849  -1.9809  -1.9746
    -1.9485  -1.9273  -1.9230  -1.9025  -1.8952  -1.8440  -1.8378  -1.8109
    -1.7897  -1.7850  -1.7333  -1.7275  -1.7216  -1.7151  -1.7079  -1.7063
    -1.7009  -1.6974  -1.6900  -1.6548  -1.6354  -1.6274  -1.6237  -1.6221
    -1.6094  -1.6025  -1.5726  -1.5675  -1.5551  -1.5513  -1.5509  -1.5430
    -1.5389  -1.5295  -1.5275  -1.5096  -1.5077  -1.4805  -1.4670  -1.4596
    -1.4562  -1.4409  -1.4198  -1.3842  -1.3788  -1.3551  -1.3513  -1.3481
    -1.3214  -1.2797  -1.2727  -1.2669  -1.2620  -1.2604  -1.2558  -1.2468
    -1.2389  -1.2308  -1.1974  -1.1939  -1.1764  -1.1611  -1.1570  -1.1520
    -1.1486  -1.1397  -1.1346  -1.1286  -1.1250  -1.1230  -1.1035  -1.0877
    -1.0840  -1.0817  -1.0755  -1.0543  -1.0502  -1.0373  -1.0220  -1.0122
    -0.9942  -0.9711  -0.9655  -0.9448  -0.9263  -0.9171  -0.9128  -0.9099
    -0.9038  -0.9024  -0.8980  -0.8889  -0.8858  -0.8704  -0.8648  -0.8627
    -0.8574  -0.8550  -0.8402  -0.8194  -0.8185  -0.8060  -0.7982  -0.7857
    -0.7820  -0.7741  -0.7638  -0.7168  -0.7140  -0.7084  -0.7072  -0.7022
    -0.7007  -0.6922  -0.6791  -0.6732  -0.6723  -0.6699  -0.6669  -0.6443
    -0.6304  -0.6281  -0.6255  -0.6178  -0.6130  -0.6121  -0.6046  -0.5955
    -0.5927  -0.5909  -0.5645  -0.5502  -0.5469  -0.5422  -0.5370  -0.5280
    -0.4656  -0.4578  -0.4560  -0.4533  -0.4477  -0.4403  -0.4101  -0.3993
    -0.3982  -0.3666  -0.3635  -0.3401  -0.2471  -0.2398  -0.1425   0.2714
     0.2725   0.2780   0.2787   0.3428   0.3533   0.7225   0.7272   0.7672
     0.7693   0.8904   0.9633   1.0726   1.0766   1.2996   1.3063   1.9236
     1.9281   2.0855   2.0885   2.2238   2.2265   2.3224   2.3233   2.4765
     2.7142   2.7332   2.8414   3.0627   3.0692   3.1420   3.1440   3.2423
     3.2618   3.4696   3.4778   3.5162   3.7159   3.7223   3.7815   3.7863
     4.0327   4.0482   4.0495   4.2868   4.3239   4.3293   4.3750   4.7018
     4.7155   4.7342   4.8736   5.0507   5.0510   5.1224   5.1383   5.6053
     5.8098   5.8340   5.8462   5.8761   5.9005   5.9090   5.9180   6.0125
     6.0322   6.0400   6.0769   6.0787   6.1135   6.1177   6.1293   6.1359
     6.2399   6.5708   6.6117   6.7176   6.7640   6.7721   6.7886   6.7921
     6.8058   6.9009   6.9819

          k = 0.2500-0.4330-0.1111 (136853 PWs)   bands (ev):

   -18.8724  -6.8615  -6.4380  -6.0428  -6.0371  -5.3674  -5.0310  -5.0289
    -5.0023  -4.9869  -4.6298  -4.6271  -4.5306  -4.5298  -4.5154  -4.4917
    -4.4872  -4.3669  -4.3604  -4.3386  -4.2950  -4.2942  -4.2348  -4.2255
    -4.2246  -4.2199  -4.1978  -4.1967  -4.1892  -4.1424  -4.1179  -4.0912
    -4.0876  -4.0781  -4.0766  -4.0550  -4.0532  -4.0309  -4.0241  -4.0224
    -3.9983  -3.9458  -3.9440  -3.8977  -3.8931  -3.8438  -3.8413  -3.7932
    -3.7844  -3.7815  -3.7804  -3.7469  -3.7210  -3.7132  -3.7060  -3.7004
    -3.6982  -3.6853  -3.6696  -3.6606  -3.6126  -3.6033  -3.6010  -3.5740
    -3.5647  -3.5193  -3.4928  -3.4709  -3.4610  -3.4404  -3.4338  -3.4163
    -3.4124  -3.3799  -3.3447  -3.3357  -3.3263  -3.3173  -3.2757  -3.2701
    -3.2436  -3.2251  -3.2036  -3.1968  -3.1879  -3.1857  -3.1808  -3.1686
    -3.1673  -3.1601  -3.1332  -3.1126  -3.0800  -3.0737  -3.0657  -3.0610
    -3.0351  -3.0311  -3.0280  -3.0018  -2.9591  -2.9575  -2.9450  -2.9151
    -2.9046  -2.8941  -2.8911  -2.8707  -2.8580  -2.8326  -2.8023  -2.7949
    -2.7800  -2.7682  -2.7560  -2.7524  -2.7090  -2.7020  -2.6720  -2.6507
    -2.6486  -2.6282  -2.6227  -2.6150  -2.6101  -2.6034  -2.5845  -2.5808
    -2.5387  -2.5350  -2.5322  -2.5207  -2.5193  -2.5110  -2.5070  -2.5049
    -2.5007  -2.4960  -2.4921  -2.4909  -2.4806  -2.4708  -2.4525  -2.4458
    -2.4425  -2.4399  -2.4392  -2.4361  -2.4312  -2.4128  -2.4112  -2.3950
    -2.3926  -2.3743  -2.3720  -2.3676  -2.3651  -2.3630  -2.3579  -2.3503
    -2.3410  -2.3398  -2.3349  -2.3226  -2.2993  -2.2943  -2.2557  -2.2545
    -2.2357  -2.2337  -2.2077  -2.2031  -2.1779  -2.1753  -2.1625  -2.1549
    -2.1282  -2.1148  -2.1065  -2.1008  -2.0985  -2.0905  -2.0868  -2.0817
    -2.0602  -2.0584  -2.0483  -1.9969  -1.9882  -1.9849  -1.9809  -1.9746
    -1.9485  -1.9273  -1.9230  -1.9025  -1.8952  -1.8440  -1.8378  -1.8109
    -1.7897  -1.7850  -1.7333  -1.7275  -1.7216  -1.7151  -1.7079  -1.7063
    -1.7009  -1.6974  -1.6900  -1.6548  -1.6354  -1.6274  -1.6237  -1.6221
    -1.6094  -1.6025  -1.5726  -1.5675  -1.5551  -1.5513  -1.5509  -1.5430
    -1.5389  -1.5295  -1.5275  -1.5096  -1.5077  -1.4805  -1.4670  -1.4596
    -1.4562  -1.4409  -1.4198  -1.3842  -1.3788  -1.3551  -1.3513  -1.3481
    -1.3214  -1.2797  -1.2727  -1.2669  -1.2620  -1.2604  -1.2558  -1.2468
    -1.2389  -1.2308  -1.1974  -1.1939  -1.1764  -1.1611  -1.1570  -1.1520
    -1.1486  -1.1397  -1.1346  -1.1286  -1.1250  -1.1230  -1.1035  -1.0877
    -1.0840  -1.0817  -1.0755  -1.0543  -1.0502  -1.0373  -1.0220  -1.0122
    -0.9942  -0.9711  -0.9655  -0.9448  -0.9263  -0.9171  -0.9128  -0.9099
    -0.9038  -0.9024  -0.8980  -0.8889  -0.8857  -0.8704  -0.8648  -0.8627
    -0.8574  -0.8550  -0.8402  -0.8194  -0.8185  -0.8060  -0.7982  -0.7857
    -0.7820  -0.7741  -0.7638  -0.7168  -0.7140  -0.7084  -0.7072  -0.7022
    -0.7007  -0.6922  -0.6791  -0.6732  -0.6723  -0.6699  -0.6669  -0.6443
    -0.6304  -0.6281  -0.6255  -0.6178  -0.6130  -0.6121  -0.6046  -0.5955
    -0.5927  -0.5909  -0.5645  -0.5502  -0.5469  -0.5422  -0.5370  -0.5280
    -0.4656  -0.4578  -0.4560  -0.4533  -0.4477  -0.4403  -0.4101  -0.3993
    -0.3982  -0.3666  -0.3635  -0.3401  -0.2471  -0.2398  -0.1425   0.2714
     0.2725   0.2780   0.2787   0.3428   0.3533   0.7225   0.7272   0.7672
     0.7693   0.8904   0.9633   1.0726   1.0766   1.2996   1.3063   1.9236
     1.9281   2.0855   2.0885   2.2238   2.2265   2.3224   2.3233   2.4765
     2.7142   2.7332   2.8414   3.0627   3.0692   3.1420   3.1440   3.2423
     3.2618   3.4696   3.4778   3.5162   3.7159   3.7223   3.7815   3.7863
     4.0327   4.0482   4.0495   4.2868   4.3239   4.3293   4.3750   4.7018
     4.7155   4.7342   4.8736   5.0507   5.0510   5.1224   5.1383   5.6053
     5.8098   5.8340   5.8462   5.8761   5.9005   5.9090   5.9180   6.0125
     6.0322   6.0400   6.0769   6.0787   6.1135   6.1177   6.1293   6.1359
     6.2400   6.5711   6.6115   6.7180   6.7630   6.7726   6.7887   6.7953
     6.8032   6.9008   6.9799

          k = 0.5000 0.0000 0.1111 (136853 PWs)   bands (ev):

   -18.8724  -6.8612  -6.4384  -6.0431  -6.0367  -5.3679  -5.0304  -5.0284
    -5.0024  -4.9869  -4.6303  -4.6274  -4.5312  -4.5297  -4.5156  -4.4917
    -4.4872  -4.3654  -4.3608  -4.3381  -4.2954  -4.2940  -4.2346  -4.2255
    -4.2238  -4.2192  -4.1977  -4.1969  -4.1888  -4.1426  -4.1182  -4.0909
    -4.0872  -4.0782  -4.0767  -4.0551  -4.0534  -4.0307  -4.0241  -4.0228
    -3.9992  -3.9459  -3.9440  -3.8976  -3.8933  -3.8454  -3.8414  -3.7944
    -3.7843  -3.7813  -3.7808  -3.7465  -3.7203  -3.7137  -3.7050  -3.7003
    -3.6982  -3.6825  -3.6690  -3.6606  -3.6124  -3.6037  -3.5999  -3.5748
    -3.5646  -3.5222  -3.4924  -3.4708  -3.4626  -3.4454  -3.4329  -3.4163
    -3.4127  -3.3784  -3.3439  -3.3353  -3.3254  -3.3175  -3.2750  -3.2710
    -3.2446  -3.2238  -3.2029  -3.1968  -3.1892  -3.1845  -3.1801  -3.1698
    -3.1678  -3.1607  -3.1318  -3.1105  -3.0797  -3.0744  -3.0654  -3.0613
    -3.0348  -3.0307  -3.0281  -3.0010  -2.9594  -2.9570  -2.9469  -2.9152
    -2.9044  -2.8947  -2.8912  -2.8697  -2.8600  -2.8327  -2.8010  -2.7955
    -2.7801  -2.7681  -2.7559  -2.7519  -2.7090  -2.7029  -2.6720  -2.6505
    -2.6482  -2.6279  -2.6235  -2.6136  -2.6105  -2.6032  -2.5842  -2.5815
    -2.5367  -2.5348  -2.5320  -2.5210  -2.5192  -2.5094  -2.5056  -2.5051
    -2.5017  -2.4963  -2.4918  -2.4909  -2.4813  -2.4716  -2.4520  -2.4460
    -2.4429  -2.4392  -2.4387  -2.4361  -2.4302  -2.4126  -2.4103  -2.3944
    -2.3932  -2.3741  -2.3726  -2.3687  -2.3641  -2.3631  -2.3592  -2.3498
    -2.3417  -2.3404  -2.3338  -2.3224  -2.2989  -2.2943  -2.2556  -2.2540
    -2.2363  -2.2338  -2.2080  -2.2017  -2.1787  -2.1754  -2.1627  -2.1554
    -2.1287  -2.1168  -2.1073  -2.1017  -2.0978  -2.0916  -2.0881  -2.0847
    -2.0607  -2.0569  -2.0486  -1.9928  -1.9894  -1.9847  -1.9808  -1.9746
    -1.9497  -1.9269  -1.9233  -1.9016  -1.8950  -1.8430  -1.8380  -1.8103
    -1.7899  -1.7854  -1.7334  -1.7269  -1.7225  -1.7158  -1.7075  -1.7049
    -1.6999  -1.6966  -1.6911  -1.6435  -1.6390  -1.6262  -1.6237  -1.6213
    -1.6074  -1.6031  -1.5790  -1.5678  -1.5554  -1.5527  -1.5507  -1.5430
    -1.5401  -1.5298  -1.5278  -1.5097  -1.5076  -1.4750  -1.4648  -1.4596
    -1.4574  -1.4410  -1.4199  -1.3906  -1.3783  -1.3590  -1.3516  -1.3476
    -1.3213  -1.2802  -1.2704  -1.2663  -1.2619  -1.2605  -1.2560  -1.2478
    -1.2379  -1.2341  -1.1985  -1.1899  -1.1774  -1.1624  -1.1556  -1.1527
    -1.1485  -1.1426  -1.1345  -1.1288  -1.1259  -1.1236  -1.0931  -1.0855
    -1.0844  -1.0827  -1.0680  -1.0528  -1.0513  -1.0369  -1.0231  -1.0132
    -1.0017  -0.9747  -0.9654  -0.9478  -0.9253  -0.9197  -0.9138  -0.9102
    -0.9034  -0.9028  -0.8995  -0.8888  -0.8870  -0.8667  -0.8649  -0.8634
    -0.8574  -0.8557  -0.8333  -0.8191  -0.8171  -0.8124  -0.8009  -0.7851
    -0.7832  -0.7739  -0.7525  -0.7171  -0.7114  -0.7086  -0.7074  -0.7047
    -0.7007  -0.6933  -0.6802  -0.6725  -0.6715  -0.6696  -0.6676  -0.6458
    -0.6307  -0.6284  -0.6255  -0.6183  -0.6135  -0.6119  -0.6037  -0.5963
    -0.5931  -0.5898  -0.5649  -0.5511  -0.5477  -0.5425  -0.5374  -0.5301
    -0.4649  -0.4576  -0.4562  -0.4506  -0.4479  -0.4419  -0.4106  -0.3991
    -0.3971  -0.3677  -0.3660  -0.3388  -0.2446  -0.2392  -0.1405   0.2713
     0.2724   0.2783   0.2792   0.3365   0.3536   0.7203   0.7275   0.7669
     0.7708   0.8922   0.9657   1.0714   1.0829   1.2930   1.3115   1.9180
     1.9303   2.0822   2.0936   2.2162   2.2324   2.3218   2.3239   2.4767
     2.7137   2.7345   2.8413   3.0636   3.0689   3.1393   3.1463   3.2420
     3.2619   3.4637   3.4831   3.5130   3.7168   3.7217   3.7786   3.7895
     4.0363   4.0436   4.0540   4.2859   4.3223   4.3335   4.3731   4.7016
     4.7136   4.7401   4.8706   5.0500   5.0520   5.1180   5.1483   5.6058
     5.8155   5.8340   5.8443   5.8592   5.9014   5.9093   5.9170   6.0038
     6.0214   6.0495   6.0769   6.0834   6.1027   6.1163   6.1320   6.1458
     6.2381   6.5659   6.6175   6.7282   6.7669   6.7822   6.7867   6.7908
     6.8179   6.9023   6.9886

          k =-0.5000 0.0000 0.1111 (136853 PWs)   bands (ev):

   -18.8724  -6.8612  -6.4384  -6.0431  -6.0367  -5.3679  -5.0304  -5.0284
    -5.0024  -4.9869  -4.6303  -4.6274  -4.5312  -4.5297  -4.5156  -4.4917
    -4.4872  -4.3654  -4.3608  -4.3381  -4.2954  -4.2940  -4.2346  -4.2255
    -4.2238  -4.2192  -4.1977  -4.1969  -4.1888  -4.1426  -4.1182  -4.0909
    -4.0872  -4.0782  -4.0767  -4.0551  -4.0534  -4.0307  -4.0241  -4.0228
    -3.9992  -3.9459  -3.9440  -3.8976  -3.8933  -3.8454  -3.8414  -3.7944
    -3.7843  -3.7813  -3.7808  -3.7465  -3.7203  -3.7137  -3.7050  -3.7003
    -3.6982  -3.6825  -3.6690  -3.6606  -3.6124  -3.6037  -3.5999  -3.5748
    -3.5646  -3.5222  -3.4924  -3.4708  -3.4626  -3.4454  -3.4329  -3.4163
    -3.4127  -3.3784  -3.3439  -3.3354  -3.3254  -3.3175  -3.2750  -3.2710
    -3.2446  -3.2238  -3.2029  -3.1968  -3.1892  -3.1845  -3.1801  -3.1698
    -3.1678  -3.1607  -3.1318  -3.1105  -3.0797  -3.0744  -3.0654  -3.0613
    -3.0348  -3.0307  -3.0281  -3.0010  -2.9594  -2.9570  -2.9469  -2.9152
    -2.9044  -2.8947  -2.8912  -2.8697  -2.8600  -2.8327  -2.8010  -2.7955
    -2.7801  -2.7681  -2.7559  -2.7519  -2.7090  -2.7029  -2.6720  -2.6505
    -2.6482  -2.6279  -2.6235  -2.6136  -2.6105  -2.6032  -2.5842  -2.5815
    -2.5367  -2.5348  -2.5320  -2.5210  -2.5192  -2.5094  -2.5056  -2.5051
    -2.5017  -2.4963  -2.4918  -2.4909  -2.4813  -2.4716  -2.4520  -2.4460
    -2.4429  -2.4392  -2.4387  -2.4361  -2.4302  -2.4126  -2.4103  -2.3944
    -2.3932  -2.3741  -2.3726  -2.3687  -2.3641  -2.3631  -2.3592  -2.3498
    -2.3417  -2.3404  -2.3338  -2.3224  -2.2989  -2.2943  -2.2556  -2.2540
    -2.2363  -2.2338  -2.2080  -2.2017  -2.1787  -2.1754  -2.1627  -2.1554
    -2.1287  -2.1168  -2.1073  -2.1017  -2.0978  -2.0916  -2.0881  -2.0847
    -2.0607  -2.0569  -2.0486  -1.9928  -1.9894  -1.9847  -1.9808  -1.9746
    -1.9497  -1.9269  -1.9233  -1.9016  -1.8950  -1.8430  -1.8380  -1.8103
    -1.7899  -1.7854  -1.7334  -1.7269  -1.7225  -1.7158  -1.7075  -1.7049
    -1.6999  -1.6966  -1.6911  -1.6435  -1.6390  -1.6262  -1.6237  -1.6213
    -1.6074  -1.6031  -1.5790  -1.5678  -1.5554  -1.5527  -1.5507  -1.5430
    -1.5401  -1.5298  -1.5278  -1.5097  -1.5076  -1.4750  -1.4648  -1.4596
    -1.4574  -1.4410  -1.4199  -1.3906  -1.3783  -1.3590  -1.3516  -1.3476
    -1.3213  -1.2802  -1.2704  -1.2663  -1.2619  -1.2605  -1.2560  -1.2478
    -1.2379  -1.2341  -1.1985  -1.1899  -1.1774  -1.1624  -1.1556  -1.1527
    -1.1485  -1.1426  -1.1345  -1.1288  -1.1259  -1.1236  -1.0931  -1.0855
    -1.0844  -1.0827  -1.0680  -1.0528  -1.0513  -1.0369  -1.0231  -1.0132
    -1.0017  -0.9747  -0.9654  -0.9478  -0.9253  -0.9197  -0.9138  -0.9102
    -0.9034  -0.9028  -0.8995  -0.8888  -0.8870  -0.8667  -0.8649  -0.8634
    -0.8574  -0.8557  -0.8333  -0.8191  -0.8171  -0.8124  -0.8009  -0.7851
    -0.7832  -0.7739  -0.7525  -0.7171  -0.7114  -0.7086  -0.7074  -0.7047
    -0.7007  -0.6933  -0.6802  -0.6724  -0.6715  -0.6696  -0.6676  -0.6458
    -0.6307  -0.6284  -0.6255  -0.6183  -0.6135  -0.6119  -0.6037  -0.5963
    -0.5931  -0.5898  -0.5649  -0.5511  -0.5477  -0.5425  -0.5374  -0.5301
    -0.4649  -0.4576  -0.4562  -0.4506  -0.4479  -0.4419  -0.4106  -0.3991
    -0.3971  -0.3677  -0.3660  -0.3388  -0.2446  -0.2392  -0.1405   0.2713
     0.2724   0.2783   0.2792   0.3365   0.3536   0.7203   0.7275   0.7669
     0.7708   0.8922   0.9657   1.0714   1.0829   1.2930   1.3115   1.9180
     1.9303   2.0822   2.0936   2.2162   2.2324   2.3218   2.3239   2.4767
     2.7137   2.7345   2.8413   3.0636   3.0689   3.1393   3.1463   3.2420
     3.2619   3.4637   3.4831   3.5130   3.7168   3.7217   3.7786   3.7895
     4.0363   4.0436   4.0540   4.2859   4.3223   4.3335   4.3731   4.7016
     4.7136   4.7401   4.8706   5.0500   5.0520   5.1180   5.1483   5.6058
     5.8155   5.8340   5.8443   5.8592   5.9014   5.9093   5.9170   6.0037
     6.0214   6.0495   6.0769   6.0834   6.1027   6.1163   6.1320   6.1457
     6.2382   6.5660   6.6175   6.7283   6.7666   6.7820   6.7881   6.7904
     6.8174   6.9024   6.9887

          k =-0.2500 0.1443 0.1111 (136898 PWs)   bands (ev):

   -18.8724  -6.8631  -6.6459  -5.8575  -5.5711  -5.5084  -5.5062  -4.9702
    -4.9683  -4.8431  -4.8366  -4.6875  -4.6610  -4.5889  -4.5658  -4.5558
    -4.5229  -4.5216  -4.3935  -4.3518  -4.3510  -4.2942  -4.2765  -4.2712
    -4.1698  -4.1680  -4.1337  -4.1316  -4.1312  -4.1089  -4.0846  -4.0832
    -3.9935  -3.9767  -3.9760  -3.9581  -3.9414  -3.9386  -3.9317  -3.9267
    -3.9165  -3.8892  -3.8842  -3.8837  -3.8816  -3.8536  -3.8534  -3.8352
    -3.8316  -3.8262  -3.7961  -3.7846  -3.7527  -3.7387  -3.7302  -3.7231
    -3.7230  -3.6511  -3.6492  -3.6304  -3.6184  -3.6126  -3.5525  -3.5431
    -3.5372  -3.5277  -3.5067  -3.5016  -3.5003  -3.4976  -3.4084  -3.3439
    -3.3415  -3.3224  -3.3197  -3.3007  -3.2964  -3.2785  -3.2733  -3.2574
    -3.2210  -3.2183  -3.2043  -3.2007  -3.1777  -3.1404  -3.1365  -3.1138
    -3.1110  -3.1030  -3.0713  -3.0706  -3.0613  -3.0582  -3.0460  -3.0225
    -3.0089  -3.0079  -2.9908  -2.9842  -2.9817  -2.9800  -2.9696  -2.9044
    -2.9034  -2.8917  -2.8697  -2.8684  -2.8153  -2.8036  -2.7825  -2.7757
    -2.7700  -2.7675  -2.7577  -2.7337  -2.7294  -2.7205  -2.7054  -2.6831
    -2.6810  -2.6710  -2.6579  -2.6577  -2.6484  -2.6459  -2.6439  -2.6315
    -2.6312  -2.5863  -2.5601  -2.5575  -2.5353  -2.5263  -2.5237  -2.5184
    -2.5117  -2.5108  -2.5088  -2.4834  -2.4808  -2.4776  -2.4716  -2.4696
    -2.4558  -2.4317  -2.4286  -2.4246  -2.4242  -2.4218  -2.3771  -2.3505
    -2.3462  -2.3453  -2.3403  -2.3298  -2.3266  -2.3196  -2.3007  -2.3001
    -2.2755  -2.2672  -2.2660  -2.2530  -2.2493  -2.2484  -2.2167  -2.2126
    -2.1819  -2.1698  -2.1683  -2.1661  -2.1638  -2.1587  -2.1576  -2.1529
    -2.1517  -2.1477  -2.1403  -2.1315  -2.1303  -2.0105  -2.0056  -1.9830
    -1.9673  -1.9650  -1.9557  -1.9556  -1.9447  -1.9426  -1.9368  -1.9346
    -1.9275  -1.9144  -1.9091  -1.9077  -1.8960  -1.8915  -1.8833  -1.8714
    -1.8625  -1.8416  -1.8386  -1.8141  -1.8031  -1.8003  -1.7896  -1.7724
    -1.7715  -1.7682  -1.7531  -1.7394  -1.7371  -1.7304  -1.7294  -1.7070
    -1.7049  -1.6910  -1.6888  -1.6564  -1.6500  -1.6375  -1.6060  -1.5959
    -1.5866  -1.5795  -1.5723  -1.5532  -1.5494  -1.5230  -1.5186  -1.5138
    -1.4835  -1.4780  -1.4748  -1.4568  -1.4565  -1.4358  -1.4328  -1.4267
    -1.4058  -1.3986  -1.3959  -1.3396  -1.3329  -1.3265  -1.3231  -1.3078
    -1.3063  -1.2926  -1.2907  -1.2751  -1.2611  -1.2465  -1.2337  -1.2250
    -1.2009  -1.1873  -1.1833  -1.1737  -1.1729  -1.1702  -1.1676  -1.1663
    -1.1479  -1.1250  -1.1234  -1.1178  -1.1069  -1.1042  -1.0999  -1.0872
    -1.0722  -1.0630  -1.0530  -1.0413  -0.9767  -0.9499  -0.9428  -0.9330
    -0.9313  -0.9248  -0.9218  -0.9046  -0.9011  -0.8852  -0.8824  -0.8686
    -0.8662  -0.8622  -0.8490  -0.8396  -0.8336  -0.8268  -0.8013  -0.7527
    -0.7518  -0.7202  -0.7147  -0.7106  -0.7073  -0.7051  -0.7037  -0.6962
    -0.6924  -0.6758  -0.6616  -0.6490  -0.6227  -0.6172  -0.6162  -0.6067
    -0.5982  -0.5955  -0.5922  -0.5902  -0.5884  -0.5780  -0.5733  -0.5685
    -0.5545  -0.5386  -0.5355  -0.5269  -0.5223  -0.5160  -0.5030  -0.4718
    -0.4674  -0.4625  -0.4543  -0.3933  -0.3916  -0.3606  -0.3592  -0.3032
    -0.3017  -0.2982  -0.2776  -0.2674  -0.0425  -0.0268   0.3018   0.3021
     0.3944   0.4112   0.5952   0.6180   0.6243   0.7472   0.7518   1.1820
     1.1829   1.1993   1.4677   1.4919   1.4929   1.7704   1.7845   1.8441
     1.8466   1.8742   1.8836   2.1003   2.1041   2.1935   2.1941   2.2799
     2.3330   2.3455   2.4969   2.5998   3.0262   3.0360   3.0370   3.0401
     3.0887   3.0955   3.3847   3.3870   3.6667   3.6743   3.7873   4.0829
     4.1211   4.1229   4.3540   4.3726   4.4210   4.4266   4.5181   4.6338
     4.6377   4.7505   4.7541   5.0529   5.1177   5.1251   5.3004   5.3270
     5.4795   5.5054   5.5138   5.5379   5.5440   5.5925   5.6063   5.6691
     6.0092   6.0658   6.2038   6.2889   6.3311   6.3371   6.3479   6.3587
     6.3652   6.5944   6.5981   6.6274   6.7602   6.8238   6.8527   6.8872
     6.9192   7.1064   7.1422

          k =-0.2500-0.1443-0.1111 (136898 PWs)   bands (ev):

   -18.8724  -6.8630  -6.6460  -5.8578  -5.5711  -5.5077  -5.5063  -4.9695
    -4.9684  -4.8449  -4.8364  -4.6874  -4.6610  -4.5901  -4.5633  -4.5562
    -4.5222  -4.5218  -4.3932  -4.3521  -4.3512  -4.2955  -4.2748  -4.2716
    -4.1687  -4.1683  -4.1335  -4.1318  -4.1313  -4.1090  -4.0841  -4.0832
    -3.9958  -3.9774  -3.9761  -3.9589  -3.9417  -3.9388  -3.9311  -3.9268
    -3.9173  -3.8869  -3.8842  -3.8824  -3.8818  -3.8537  -3.8523  -3.8368
    -3.8319  -3.8277  -3.7922  -3.7826  -3.7545  -3.7399  -3.7305  -3.7231
    -3.7229  -3.6521  -3.6492  -3.6303  -3.6172  -3.6123  -3.5478  -3.5435
    -3.5371  -3.5279  -3.5081  -3.5014  -3.5004  -3.4979  -3.4252  -3.3419
    -3.3386  -3.3205  -3.3167  -3.3014  -3.2967  -3.2780  -3.2728  -3.2545
    -3.2207  -3.2171  -3.2046  -3.1961  -3.1815  -3.1389  -3.1287  -3.1191
    -3.1119  -3.1034  -3.0720  -3.0664  -3.0611  -3.0542  -3.0478  -3.0414
    -3.0082  -3.0066  -2.9868  -2.9850  -2.9822  -2.9784  -2.9661  -2.9057
    -2.9036  -2.8951  -2.8701  -2.8669  -2.8121  -2.8057  -2.7807  -2.7790
    -2.7684  -2.7649  -2.7566  -2.7334  -2.7304  -2.7203  -2.7042  -2.6844
    -2.6795  -2.6728  -2.6598  -2.6577  -2.6498  -2.6474  -2.6433  -2.6314
    -2.6310  -2.5862  -2.5604  -2.5560  -2.5414  -2.5283  -2.5231  -2.5187
    -2.5128  -2.5115  -2.5087  -2.4830  -2.4811  -2.4757  -2.4704  -2.4656
    -2.4567  -2.4300  -2.4286  -2.4261  -2.4236  -2.4212  -2.3771  -2.3504
    -2.3484  -2.3458  -2.3406  -2.3292  -2.3221  -2.3159  -2.3003  -2.2998
    -2.2759  -2.2679  -2.2669  -2.2533  -2.2491  -2.2464  -2.2209  -2.2146
    -2.1821  -2.1710  -2.1680  -2.1660  -2.1629  -2.1603  -2.1566  -2.1546
    -2.1520  -2.1485  -2.1435  -2.1311  -2.1262  -2.0104  -2.0038  -1.9727
    -1.9673  -1.9634  -1.9556  -1.9543  -1.9506  -1.9411  -1.9388  -1.9365
    -1.9290  -1.9126  -1.9093  -1.9074  -1.8970  -1.8901  -1.8812  -1.8711
    -1.8624  -1.8411  -1.8370  -1.8173  -1.8125  -1.8002  -1.7897  -1.7722
    -1.7700  -1.7677  -1.7531  -1.7382  -1.7350  -1.7301  -1.7290  -1.7062
    -1.7055  -1.6911  -1.6852  -1.6574  -1.6522  -1.6430  -1.5990  -1.5962
    -1.5822  -1.5797  -1.5693  -1.5532  -1.5496  -1.5277  -1.5207  -1.5154
    -1.4846  -1.4758  -1.4713  -1.4572  -1.4557  -1.4451  -1.4323  -1.4249
    -1.4039  -1.3972  -1.3959  -1.3380  -1.3367  -1.3288  -1.3226  -1.3129
    -1.3072  -1.2949  -1.2923  -1.2742  -1.2608  -1.2415  -1.2317  -1.2265
    -1.1977  -1.1878  -1.1812  -1.1734  -1.1704  -1.1686  -1.1669  -1.1612
    -1.1478  -1.1416  -1.1244  -1.1188  -1.1064  -1.1045  -1.0973  -1.0871
    -1.0707  -1.0556  -1.0503  -1.0411  -0.9764  -0.9518  -0.9412  -0.9329
    -0.9321  -0.9241  -0.9207  -0.9037  -0.9003  -0.8856  -0.8804  -0.8741
    -0.8671  -0.8635  -0.8486  -0.8404  -0.8340  -0.8267  -0.8030  -0.7540
    -0.7505  -0.7199  -0.7146  -0.7116  -0.7082  -0.7050  -0.7035  -0.6974
    -0.6902  -0.6758  -0.6574  -0.6488  -0.6313  -0.6193  -0.6164  -0.6069
    -0.6002  -0.5967  -0.5919  -0.5889  -0.5884  -0.5768  -0.5728  -0.5687
    -0.5532  -0.5383  -0.5348  -0.5278  -0.5222  -0.5124  -0.5029  -0.4721
    -0.4674  -0.4621  -0.4558  -0.3939  -0.3901  -0.3610  -0.3587  -0.3033
    -0.3014  -0.2982  -0.2778  -0.2686  -0.0418  -0.0251   0.3017   0.3022
     0.3944   0.4112   0.5953   0.6193   0.6225   0.7471   0.7511   1.1817
     1.1835   1.1988   1.4682   1.4916   1.4934   1.7698   1.7844   1.8438
     1.8482   1.8741   1.8835   2.1014   2.1039   2.1931   2.1943   2.2797
     2.3331   2.3457   2.4963   2.5999   3.0252   3.0356   3.0377   3.0400
     3.0905   3.0942   3.3839   3.3872   3.6663   3.6748   3.7875   4.0831
     4.1211   4.1239   4.3534   4.3731   4.4238   4.4267   4.5167   4.6336
     4.6382   4.7493   4.7530   5.0515   5.1173   5.1275   5.2991   5.3278
     5.4781   5.5087   5.5136   5.5381   5.5425   5.5931   5.6043   5.6682
     6.0100   6.0647   6.2036   6.2913   6.3296   6.3437   6.3483   6.3577
     6.3594   6.5901   6.5976   6.6274   6.7600   6.8248   6.8556   6.8871
     6.9203   7.1051   7.1401

          k = 0.2500 0.1443-0.1111 (136898 PWs)   bands (ev):

   -18.8724  -6.8630  -6.6460  -5.8578  -5.5711  -5.5077  -5.5063  -4.9695
    -4.9684  -4.8449  -4.8364  -4.6874  -4.6610  -4.5901  -4.5633  -4.5562
    -4.5222  -4.5218  -4.3932  -4.3521  -4.3512  -4.2955  -4.2748  -4.2716
    -4.1687  -4.1683  -4.1335  -4.1318  -4.1313  -4.1090  -4.0841  -4.0832
    -3.9958  -3.9774  -3.9761  -3.9589  -3.9417  -3.9388  -3.9311  -3.9268
    -3.9173  -3.8869  -3.8842  -3.8824  -3.8818  -3.8537  -3.8523  -3.8368
    -3.8319  -3.8277  -3.7922  -3.7826  -3.7545  -3.7399  -3.7305  -3.7231
    -3.7229  -3.6521  -3.6492  -3.6303  -3.6172  -3.6123  -3.5478  -3.5435
    -3.5371  -3.5279  -3.5081  -3.5014  -3.5004  -3.4979  -3.4252  -3.3419
    -3.3386  -3.3205  -3.3167  -3.3014  -3.2967  -3.2780  -3.2728  -3.2545
    -3.2207  -3.2171  -3.2046  -3.1960  -3.1815  -3.1389  -3.1287  -3.1191
    -3.1119  -3.1034  -3.0720  -3.0664  -3.0611  -3.0542  -3.0478  -3.0414
    -3.0083  -3.0066  -2.9868  -2.9850  -2.9822  -2.9784  -2.9661  -2.9057
    -2.9036  -2.8951  -2.8701  -2.8669  -2.8121  -2.8057  -2.7807  -2.7790
    -2.7684  -2.7649  -2.7566  -2.7334  -2.7304  -2.7203  -2.7042  -2.6844
    -2.6795  -2.6728  -2.6598  -2.6577  -2.6498  -2.6474  -2.6433  -2.6314
    -2.6310  -2.5862  -2.5604  -2.5560  -2.5414  -2.5283  -2.5231  -2.5187
    -2.5128  -2.5115  -2.5087  -2.4830  -2.4811  -2.4757  -2.4704  -2.4656
    -2.4567  -2.4300  -2.4286  -2.4261  -2.4236  -2.4212  -2.3771  -2.3504
    -2.3483  -2.3458  -2.3406  -2.3292  -2.3221  -2.3159  -2.3003  -2.2998
    -2.2759  -2.2679  -2.2669  -2.2533  -2.2491  -2.2464  -2.2210  -2.2146
    -2.1821  -2.1710  -2.1681  -2.1660  -2.1629  -2.1603  -2.1566  -2.1546
    -2.1520  -2.1485  -2.1435  -2.1311  -2.1262  -2.0104  -2.0038  -1.9727
    -1.9673  -1.9634  -1.9556  -1.9543  -1.9506  -1.9411  -1.9388  -1.9365
    -1.9291  -1.9126  -1.9093  -1.9074  -1.8970  -1.8901  -1.8812  -1.8711
    -1.8625  -1.8411  -1.8370  -1.8173  -1.8125  -1.8002  -1.7897  -1.7722
    -1.7700  -1.7677  -1.7531  -1.7382  -1.7350  -1.7301  -1.7290  -1.7062
    -1.7055  -1.6911  -1.6852  -1.6574  -1.6522  -1.6430  -1.5990  -1.5962
    -1.5822  -1.5798  -1.5693  -1.5532  -1.5496  -1.5277  -1.5207  -1.5154
    -1.4846  -1.4758  -1.4713  -1.4572  -1.4557  -1.4451  -1.4323  -1.4249
    -1.4039  -1.3972  -1.3959  -1.3380  -1.3367  -1.3288  -1.3226  -1.3129
    -1.3072  -1.2949  -1.2923  -1.2742  -1.2608  -1.2415  -1.2317  -1.2265
    -1.1977  -1.1878  -1.1812  -1.1734  -1.1704  -1.1686  -1.1669  -1.1612
    -1.1478  -1.1416  -1.1244  -1.1188  -1.1064  -1.1045  -1.0973  -1.0871
    -1.0707  -1.0556  -1.0503  -1.0411  -0.9764  -0.9518  -0.9412  -0.9329
    -0.9321  -0.9241  -0.9207  -0.9037  -0.9003  -0.8856  -0.8804  -0.8741
    -0.8671  -0.8635  -0.8486  -0.8404  -0.8340  -0.8267  -0.8030  -0.7540
    -0.7505  -0.7199  -0.7146  -0.7116  -0.7082  -0.7050  -0.7035  -0.6974
    -0.6902  -0.6757  -0.6574  -0.6488  -0.6313  -0.6193  -0.6164  -0.6069
    -0.6002  -0.5967  -0.5919  -0.5889  -0.5884  -0.5768  -0.5728  -0.5687
    -0.5532  -0.5383  -0.5348  -0.5278  -0.5222  -0.5124  -0.5029  -0.4721
    -0.4674  -0.4621  -0.4558  -0.3939  -0.3901  -0.3610  -0.3587  -0.3033
    -0.3014  -0.2982  -0.2778  -0.2686  -0.0418  -0.0251   0.3017   0.3022
     0.3944   0.4112   0.5953   0.6193   0.6225   0.7471   0.7511   1.1817
     1.1835   1.1988   1.4682   1.4916   1.4934   1.7698   1.7844   1.8438
     1.8482   1.8741   1.8835   2.1014   2.1039   2.1931   2.1943   2.2797
     2.3331   2.3457   2.4963   2.5999   3.0252   3.0356   3.0377   3.0400
     3.0905   3.0942   3.3839   3.3871   3.6663   3.6748   3.7875   4.0831
     4.1211   4.1239   4.3534   4.3731   4.4238   4.4267   4.5167   4.6336
     4.6382   4.7493   4.7530   5.0515   5.1173   5.1275   5.2991   5.3278
     5.4780   5.5087   5.5136   5.5381   5.5425   5.5931   5.6043   5.6682
     6.0102   6.0648   6.2036   6.2911   6.3294   6.3437   6.3483   6.3577
     6.3594   6.5903   6.5977   6.6268   6.7571   6.8244   6.8558   6.8870
     6.9206   7.1096   7.1437

          k = 0.0000-0.2887 0.1111 (136898 PWs)   bands (ev):

   -18.8724  -6.8633  -6.6457  -5.8572  -5.5710  -5.5082  -5.5068  -4.9699
    -4.9684  -4.8429  -4.8365  -4.6875  -4.6610  -4.5895  -4.5652  -4.5567
    -4.5224  -4.5218  -4.3931  -4.3523  -4.3510  -4.2942  -4.2760  -4.2716
    -4.1688  -4.1682  -4.1335  -4.1316  -4.1315  -4.1089  -4.0845  -4.0832
    -3.9953  -3.9773  -3.9762  -3.9588  -3.9420  -3.9388  -3.9311  -3.9266
    -3.9171  -3.8866  -3.8843  -3.8827  -3.8816  -3.8538  -3.8522  -3.8367
    -3.8319  -3.8277  -3.7924  -3.7836  -3.7539  -3.7392  -3.7300  -3.7235
    -3.7229  -3.6522  -3.6493  -3.6297  -3.6179  -3.6126  -3.5482  -3.5436
    -3.5376  -3.5277  -3.5066  -3.5015  -3.4996  -3.4980  -3.4212  -3.3419
    -3.3400  -3.3216  -3.3157  -3.3019  -3.2962  -3.2804  -3.2733  -3.2514
    -3.2208  -3.2176  -3.2048  -3.1988  -3.1815  -3.1392  -3.1286  -3.1191
    -3.1112  -3.1036  -3.0717  -3.0676  -3.0613  -3.0545  -3.0479  -3.0402
    -3.0085  -3.0064  -2.9886  -2.9845  -2.9818  -2.9783  -2.9646  -2.9052
    -2.9033  -2.8952  -2.8698  -2.8678  -2.8115  -2.8048  -2.7804  -2.7797
    -2.7681  -2.7652  -2.7570  -2.7327  -2.7307  -2.7203  -2.7049  -2.6845
    -2.6808  -2.6717  -2.6594  -2.6571  -2.6502  -2.6458  -2.6428  -2.6329
    -2.6314  -2.5861  -2.5603  -2.5555  -2.5411  -2.5287  -2.5240  -2.5183
    -2.5142  -2.5107  -2.5083  -2.4837  -2.4816  -2.4760  -2.4705  -2.4654
    -2.4563  -2.4303  -2.4286  -2.4265  -2.4237  -2.4215  -2.3768  -2.3514
    -2.3488  -2.3451  -2.3405  -2.3291  -2.3243  -2.3163  -2.3005  -2.2994
    -2.2756  -2.2679  -2.2663  -2.2540  -2.2487  -2.2454  -2.2203  -2.2144
    -2.1815  -2.1708  -2.1681  -2.1670  -2.1626  -2.1593  -2.1579  -2.1548
    -2.1526  -2.1483  -2.1427  -2.1322  -2.1253  -2.0132  -2.0032  -1.9744
    -1.9666  -1.9643  -1.9561  -1.9543  -1.9486  -1.9403  -1.9375  -1.9349
    -1.9309  -1.9130  -1.9103  -1.9079  -1.8960  -1.8910  -1.8807  -1.8714
    -1.8623  -1.8425  -1.8367  -1.8146  -1.8113  -1.7994  -1.7895  -1.7740
    -1.7691  -1.7678  -1.7530  -1.7399  -1.7352  -1.7307  -1.7285  -1.7057
    -1.7046  -1.6920  -1.6862  -1.6587  -1.6505  -1.6415  -1.6005  -1.5961
    -1.5816  -1.5808  -1.5707  -1.5532  -1.5492  -1.5272  -1.5207  -1.5146
    -1.4842  -1.4762  -1.4720  -1.4575  -1.4557  -1.4376  -1.4337  -1.4249
    -1.4044  -1.3976  -1.3961  -1.3393  -1.3371  -1.3287  -1.3230  -1.3115
    -1.3077  -1.2937  -1.2915  -1.2745  -1.2609  -1.2456  -1.2325  -1.2215
    -1.1968  -1.1903  -1.1805  -1.1739  -1.1703  -1.1689  -1.1678  -1.1602
    -1.1479  -1.1475  -1.1257  -1.1206  -1.1058  -1.1045  -1.0984  -1.0863
    -1.0728  -1.0549  -1.0451  -1.0397  -0.9645  -0.9535  -0.9421  -0.9331
    -0.9318  -0.9271  -0.9205  -0.9018  -0.8966  -0.8902  -0.8801  -0.8732
    -0.8667  -0.8623  -0.8519  -0.8387  -0.8333  -0.8272  -0.8105  -0.7541
    -0.7514  -0.7194  -0.7152  -0.7130  -0.7081  -0.7055  -0.7031  -0.6994
    -0.6906  -0.6749  -0.6551  -0.6489  -0.6322  -0.6200  -0.6161  -0.6066
    -0.6012  -0.5963  -0.5916  -0.5897  -0.5882  -0.5753  -0.5727  -0.5683
    -0.5557  -0.5385  -0.5354  -0.5259  -0.5220  -0.5089  -0.5031  -0.4716
    -0.4679  -0.4615  -0.4543  -0.3938  -0.3902  -0.3607  -0.3589  -0.3022
    -0.3020  -0.2982  -0.2777  -0.2756  -0.0373  -0.0204   0.3018   0.3021
     0.3986   0.4091   0.5896   0.6174   0.6223   0.7486   0.7498   1.1815
     1.1837   1.1982   1.4674   1.4923   1.4931   1.7738   1.7824   1.8445
     1.8484   1.8751   1.8808   2.1017   2.1037   2.1928   2.1946   2.2804
     2.3356   2.3423   2.4952   2.5996   3.0303   3.0330   3.0382   3.0397
     3.0907   3.0944   3.3858   3.3868   3.6680   3.6739   3.7883   4.0814
     4.1161   4.1265   4.3491   4.3744   4.4207   4.4243   4.5184   4.6320
     4.6377   4.7534   4.7549   5.0521   5.1202   5.1253   5.3041   5.3240
     5.4765   5.4999   5.5136   5.5398   5.5438   5.5964   5.6067   5.6728
     6.0100   6.0714   6.1945   6.2795   6.3274   6.3379   6.3458   6.3637
     6.3669   6.5918   6.6018   6.6268   6.7668   6.8295   6.8479   6.8948
     6.9115   7.1057   7.1352

          k = 0.0000 0.2887 0.1111 (136898 PWs)   bands (ev):

   -18.8724  -6.8633  -6.6457  -5.8572  -5.5710  -5.5082  -5.5068  -4.9699
    -4.9684  -4.8429  -4.8365  -4.6875  -4.6610  -4.5895  -4.5652  -4.5567
    -4.5224  -4.5218  -4.3931  -4.3523  -4.3510  -4.2942  -4.2760  -4.2716
    -4.1688  -4.1682  -4.1335  -4.1316  -4.1315  -4.1089  -4.0845  -4.0832
    -3.9953  -3.9773  -3.9762  -3.9588  -3.9420  -3.9388  -3.9311  -3.9266
    -3.9171  -3.8866  -3.8843  -3.8827  -3.8816  -3.8538  -3.8522  -3.8367
    -3.8319  -3.8277  -3.7924  -3.7836  -3.7539  -3.7392  -3.7300  -3.7235
    -3.7229  -3.6522  -3.6493  -3.6297  -3.6179  -3.6126  -3.5482  -3.5436
    -3.5376  -3.5277  -3.5066  -3.5015  -3.4996  -3.4980  -3.4212  -3.3419
    -3.3400  -3.3216  -3.3157  -3.3019  -3.2962  -3.2804  -3.2733  -3.2514
    -3.2208  -3.2176  -3.2048  -3.1988  -3.1815  -3.1392  -3.1286  -3.1191
    -3.1112  -3.1036  -3.0717  -3.0676  -3.0613  -3.0545  -3.0479  -3.0402
    -3.0085  -3.0064  -2.9886  -2.9845  -2.9818  -2.9783  -2.9646  -2.9052
    -2.9033  -2.8952  -2.8698  -2.8678  -2.8115  -2.8048  -2.7804  -2.7797
    -2.7681  -2.7652  -2.7570  -2.7327  -2.7307  -2.7203  -2.7049  -2.6844
    -2.6808  -2.6717  -2.6594  -2.6571  -2.6502  -2.6458  -2.6428  -2.6329
    -2.6314  -2.5861  -2.5603  -2.5555  -2.5411  -2.5287  -2.5240  -2.5183
    -2.5142  -2.5107  -2.5083  -2.4837  -2.4816  -2.4760  -2.4705  -2.4654
    -2.4563  -2.4303  -2.4286  -2.4265  -2.4237  -2.4215  -2.3768  -2.3514
    -2.3488  -2.3451  -2.3405  -2.3290  -2.3243  -2.3163  -2.3005  -2.2994
    -2.2756  -2.2679  -2.2663  -2.2540  -2.2487  -2.2454  -2.2203  -2.2144
    -2.1815  -2.1708  -2.1681  -2.1670  -2.1626  -2.1593  -2.1579  -2.1548
    -2.1526  -2.1483  -2.1427  -2.1322  -2.1253  -2.0132  -2.0032  -1.9744
    -1.9666  -1.9643  -1.9561  -1.9543  -1.9486  -1.9403  -1.9375  -1.9349
    -1.9309  -1.9130  -1.9103  -1.9079  -1.8960  -1.8910  -1.8807  -1.8714
    -1.8623  -1.8425  -1.8367  -1.8146  -1.8113  -1.7994  -1.7895  -1.7740
    -1.7691  -1.7678  -1.7530  -1.7399  -1.7352  -1.7307  -1.7285  -1.7057
    -1.7046  -1.6920  -1.6862  -1.6587  -1.6506  -1.6415  -1.6005  -1.5961
    -1.5816  -1.5808  -1.5707  -1.5532  -1.5492  -1.5272  -1.5207  -1.5146
    -1.4842  -1.4762  -1.4719  -1.4575  -1.4557  -1.4376  -1.4337  -1.4249
    -1.4044  -1.3976  -1.3961  -1.3393  -1.3371  -1.3287  -1.3230  -1.3115
    -1.3077  -1.2937  -1.2915  -1.2745  -1.2609  -1.2456  -1.2325  -1.2215
    -1.1968  -1.1903  -1.1805  -1.1739  -1.1703  -1.1689  -1.1678  -1.1602
    -1.1479  -1.1475  -1.1257  -1.1206  -1.1058  -1.1045  -1.0984  -1.0863
    -1.0728  -1.0549  -1.0451  -1.0397  -0.9645  -0.9535  -0.9421  -0.9331
    -0.9318  -0.9271  -0.9205  -0.9018  -0.8966  -0.8902  -0.8801  -0.8732
    -0.8667  -0.8623  -0.8519  -0.8388  -0.8333  -0.8272  -0.8105  -0.7541
    -0.7514  -0.7194  -0.7152  -0.7130  -0.7081  -0.7055  -0.7031  -0.6994
    -0.6906  -0.6749  -0.6551  -0.6488  -0.6322  -0.6200  -0.6161  -0.6066
    -0.6012  -0.5962  -0.5916  -0.5897  -0.5882  -0.5753  -0.5727  -0.5683
    -0.5557  -0.5385  -0.5354  -0.5259  -0.5220  -0.5089  -0.5031  -0.4717
    -0.4679  -0.4615  -0.4543  -0.3938  -0.3902  -0.3607  -0.3589  -0.3022
    -0.3020  -0.2982  -0.2777  -0.2756  -0.0373  -0.0204   0.3018   0.3021
     0.3986   0.4091   0.5896   0.6174   0.6223   0.7486   0.7498   1.1815
     1.1837   1.1982   1.4674   1.4923   1.4931   1.7738   1.7824   1.8445
     1.8484   1.8751   1.8808   2.1017   2.1037   2.1928   2.1946   2.2804
     2.3356   2.3423   2.4952   2.5996   3.0303   3.0330   3.0382   3.0397
     3.0907   3.0944   3.3858   3.3868   3.6680   3.6739   3.7883   4.0814
     4.1161   4.1265   4.3491   4.3744   4.4207   4.4243   4.5184   4.6320
     4.6377   4.7534   4.7549   5.0521   5.1202   5.1253   5.3040   5.3240
     5.4765   5.4998   5.5136   5.5398   5.5438   5.5964   5.6067   5.6728
     6.0101   6.0715   6.1945   6.2794   6.3272   6.3379   6.3458   6.3637
     6.3669   6.5914   6.6018   6.6271   6.7644   6.8279   6.8479   6.8948
     6.9120   7.1106   7.1400

     the Fermi energy is     1.3294 ev

!    total energy              =   -6604.40866457 Ry
     Harris-Foulkes estimate   =   -6604.40866457 Ry
     estimated scf accuracy    <          1.9E-09 Ry

     The total energy is the sum of the following terms:

     one-electron contribution =  -48826.95142289 Ry
     hartree contribution      =   24911.78944451 Ry
     xc contribution           =   -3205.03657512 Ry
     ewald contribution        =   20515.78708041 Ry
     smearing contrib. (-TS)   =       0.00280852 Ry

     convergence has been achieved in  25 iterations

     Writing output data file 9796314.save

     init_run     :    146.52s CPU    159.08s WALL (       1 calls)
     electrons    :   8553.07s CPU   9240.58s WALL (       1 calls)

     Called by init_run:
     wfcinit      :    113.00s CPU    124.77s WALL (       1 calls)
     potinit      :      9.46s CPU      9.94s WALL (       1 calls)

     Called by electrons:
     c_bands      :   6988.60s CPU   7534.03s WALL (      26 calls)
     sum_band     :   1140.54s CPU   1265.42s WALL (      26 calls)
     v_of_rho     :    118.59s CPU    130.76s WALL (      26 calls)
     newd         :    315.29s CPU    320.11s WALL (      26 calls)
     mix_rho      :      3.28s CPU      3.57s WALL (      26 calls)
     vdW_energy   :     10.55s CPU     12.07s WALL (      26 calls)
     vdW_ffts     :     58.14s CPU     64.15s WALL (      52 calls)
     vdW_v        :     14.66s CPU     15.62s WALL (      26 calls)

     Called by c_bands:
     init_us_2    :     23.08s CPU     23.65s WALL (     636 calls)
     cegterg      :   6911.62s CPU   7454.33s WALL (     312 calls)

     Called by *egterg:
     h_psi        :   3186.17s CPU   3685.02s WALL (    1578 calls)
     s_psi        :    447.39s CPU    450.13s WALL (    1578 calls)
     g_psi        :      6.16s CPU      6.19s WALL (    1254 calls)
     cdiaghg      :   1939.33s CPU   1944.03s WALL (    1554 calls)

     Called by h_psi:
     add_vuspsi   :    448.13s CPU    450.74s WALL (    1578 calls)

     General routines
     calbec       :    644.96s CPU    647.70s WALL (    1890 calls)
     fft          :    116.33s CPU    126.42s WALL (    1716 calls)
     ffts         :      1.67s CPU      1.90s WALL (      52 calls)
     fftw         :   2462.71s CPU   3002.48s WALL (  747614 calls)
     interpolate  :      4.94s CPU      5.56s WALL (      52 calls)
     davcio       :      0.01s CPU      0.17s WALL (      12 calls)

     Parallel routines
     fft_scatter  :   1707.12s CPU   2126.33s WALL (  749382 calls)

     PWSCF        :     2h25m CPU        2h36m WALL


   This run was terminated on:   9:18: 2  24Aug2015            

=------------------------------------------------------------------------------=
   JOB DONE.
=------------------------------------------------------------------------------=
