
     Program PWSCF v.5.1.2 starts on 24Aug2015 at  1:48:19 

     This program is part of the open-source Quantum ESPRESSO suite
     for quantum simulation of materials; please cite
         "P. Giannozzi et al., J. Phys.:Condens. Matter 21 395502 (2009);
          URL http://www.quantum-espresso.org", 
     in publications or presentations arising from this work. More details at
     http://www.quantum-espresso.org/quote

     Parallel version (MPI), running on    32 processors
     R & G space division:  proc/nbgrp/npool/nimage =      32
     Reading input from bridge.H2.Au5455.d.2.4.phi.45.psi.0.in
Warning: card &IONS ignored
Warning: card / ignored
Warning: card &CELL ignored
Warning: card / ignored

     Current dimensions of program PWSCF are:
     Max number of different atomic species (ntypx) = 10
     Max number of k-points (npk) =  40000
     Max angular momentum in pseudopotentials (lmaxx) =  3

     IMPORTANT: XC functional enforced from input :
     Exchange-correlation      = VDW-DF ( 1  4  4  0 1 0)
     Any further DFT definition will be discarded
     Please, verify this is what you really want


     Subspace diagonalization in iterative solution of the eigenvalue problem:
     a serial algorithm will be used


     Parallelization info
     --------------------
     sticks:   dense  smooth     PW     G-vecs:    dense   smooth      PW
     Min         445     223     58                96775    34191    4534
     Max         446     224     59                96790    34246    4540
     Sum       14269    7147   1867              3097177  1095093  145167


     Title: 
     bridge.H2.Au5455.d.2.4.phi.45.psi.0                                        


     bravais-lattice index     =            4
     lattice parameter (alat)  =      22.7436  a.u.
     unit-cell volume          =   22924.1508 (a.u.)^3
     number of atoms/cell      =           67
     number of atomic types    =            3
     number of electrons       =       712.00
     number of Kohn-Sham states=          427
     kinetic-energy cutoff     =      50.0000  Ry
     charge density cutoff     =     400.0000  Ry
     convergence threshold     =      1.0E-08
     mixing beta               =       0.7000
     number of iterations used =            8  plain     mixing
     Exchange-correlation      = VDW-DF ( 1  4  4  0 1 0)

     celldm(1)=  22.743643  celldm(2)=   0.000000  celldm(3)=   2.250000
     celldm(4)=   0.000000  celldm(5)=   0.000000  celldm(6)=   0.000000

     crystal axes: (cart. coord. in units of alat)
               a(1) = (   1.000000   0.000000   0.000000 )  
               a(2) = (  -0.500000   0.866025   0.000000 )  
               a(3) = (   0.000000   0.000000   2.250000 )  

     reciprocal axes: (cart. coord. in units 2 pi/alat)
               b(1) = (  1.000000  0.577350 -0.000000 )  
               b(2) = (  0.000000  1.154701  0.000000 )  
               b(3) = (  0.000000 -0.000000  0.444444 )  


     PseudoPot. # 1 for Au read from file:
     /home/scc/andrejb/qe/pseudo/Au.pbe-nd-van.UPF
     MD5 check sum: 458681b50f36d87ef23c61b04bba420a
     Pseudo is Ultrasoft + core correction, Zval = 11.0
     Generated by new atomic code, or converted to UPF format
     Using radial grid of  985 points,  3 beta functions with: 
                l(1) =   1
                l(2) =   2
                l(3) =   2
     Q(r) pseudized with  8 coefficients,  rinner =    1.100   1.100   1.100
                                                       1.100   1.100

     PseudoPot. # 2 for H  read from file:
     /home/scc/andrejb/qe/pseudo/H.pbe-van_ak.UPF
     MD5 check sum: 403db7282739603aa925980fa9b8608d
     Pseudo is Ultrasoft, Zval =  1.0
     Generated by new atomic code, or converted to UPF format
     Using radial grid of  615 points,  1 beta functions with: 
                l(1) =   0
     Q(r) pseudized with  8 coefficients,  rinner =    0.800

     PseudoPot. # 3 for O  read from file:
     /home/scc/andrejb/qe/pseudo/O.pbe-van_ak.UPF
     MD5 check sum: 4b8c549914a63cae506c6ff22b5af4fe
     Pseudo is Ultrasoft, Zval =  6.0
     Generated by new atomic code, or converted to UPF format
     Using radial grid of  737 points,  4 beta functions with: 
                l(1) =   0
                l(2) =   0
                l(3) =   1
                l(4) =   1
     Q(r) pseudized with  8 coefficients,  rinner =    0.800   0.800   0.800


     vdW kernel table read from file vdW_kernel_table
     MD5 check sum: 48e77a2e26edf626eeb0eaa751ad5cac

     atomic species   valence    mass     pseudopotential
        Au            11.00   196.96657     Au( 1.00)
        H              1.00     1.01000     H ( 1.00)
        O              6.00    16.00000     O ( 1.00)

     No symmetry found



   Cartesian axes

     site n.     atom                  positions (alat units)
         1           O   tau(   1) = (   0.2937541   0.3124901   0.8897044  )
         2           H   tau(   2) = (   0.2915728   0.2885783   0.8124295  )
         3           H   tau(   3) = (   0.2874926   0.2440115   0.9323331  )
         4           Au  tau(   4) = (   0.3540481   0.6132292   0.0000000  )
         5           Au  tau(   5) = (   0.4790062   0.3967954   0.0000000  )
         6           Au  tau(   6) = (   0.6039644   0.1803616   0.0000000  )
         7           Au  tau(   7) = (   0.7289225  -0.0360723   0.0000000  )
         8           Au  tau(   8) = (   0.1041318   0.6132292   0.0000000  )
         9           Au  tau(   9) = (   0.2290899   0.3967954   0.0000000  )
        10           Au  tau(  10) = (   0.3540481   0.1803616   0.0000000  )
        11           Au  tau(  11) = (   0.4790062  -0.0360723   0.0000000  )
        12           Au  tau(  12) = (  -0.1457845   0.6132292   0.0000000  )
        13           Au  tau(  13) = (  -0.0208264   0.3967954   0.0000000  )
        14           Au  tau(  14) = (   0.1041318   0.1803616   0.0000000  )
        15           Au  tau(  15) = (   0.2290899  -0.0360723   0.0000000  )
        16           Au  tau(  16) = (  -0.3957008   0.6132292   0.0000000  )
        17           Au  tau(  17) = (  -0.2707426   0.3967954   0.0000000  )
        18           Au  tau(  18) = (  -0.1457845   0.1803616   0.0000000  )
        19           Au  tau(  19) = (  -0.0208264  -0.0360723   0.0000000  )
        20           Au  tau(  20) = (   0.4790062   0.6853738   0.2040557  )
        21           Au  tau(  21) = (   0.6039644   0.4689400   0.2040557  )
        22           Au  tau(  22) = (   0.7289225   0.2525061   0.2040557  )
        23           Au  tau(  23) = (   0.8538806   0.0360723   0.2040557  )
        24           Au  tau(  24) = (   0.2290899   0.6853738   0.2040557  )
        25           Au  tau(  25) = (   0.3540481   0.4689400   0.2040557  )
        26           Au  tau(  26) = (   0.4790062   0.2525061   0.2040557  )
        27           Au  tau(  27) = (   0.6039644   0.0360723   0.2040557  )
        28           Au  tau(  28) = (  -0.0208264   0.6853738   0.2040557  )
        29           Au  tau(  29) = (   0.1041318   0.4689400   0.2040557  )
        30           Au  tau(  30) = (   0.2290899   0.2525061   0.2040557  )
        31           Au  tau(  31) = (   0.3540481   0.0360723   0.2040557  )
        32           Au  tau(  32) = (  -0.2707426   0.6853738   0.2040557  )
        33           Au  tau(  33) = (  -0.1457845   0.4689400   0.2040557  )
        34           Au  tau(  34) = (  -0.0208264   0.2525061   0.2040557  )
        35           Au  tau(  35) = (   0.1041318   0.0360723   0.2040557  )
        36           Au  tau(  36) = (   0.3541162   0.7576593   0.4066483  )
        37           Au  tau(  37) = (   0.4791000   0.5411421   0.4066695  )
        38           Au  tau(  38) = (   0.6040570   0.3246862   0.4066617  )
        39           Au  tau(  39) = (   0.7290270   0.1081684   0.4066529  )
        40           Au  tau(  40) = (   0.1041162   0.7576236   0.4066247  )
        41           Au  tau(  41) = (   0.2291001   0.5411063   0.4066455  )
        42           Au  tau(  42) = (   0.3540567   0.3246505   0.4066380  )
        43           Au  tau(  43) = (   0.4790276   0.1081324   0.4066292  )
        44           Au  tau(  44) = (  -0.1458201   0.7576104   0.4066224  )
        45           Au  tau(  45) = (  -0.0208365   0.5410930   0.4066438  )
        46           Au  tau(  46) = (   0.1041202   0.3246372   0.4066359  )
        47           Au  tau(  47) = (   0.2290908   0.1081193   0.4066273  )
        48           Au  tau(  48) = (  -0.3958167   0.7575791   0.4065812  )
        49           Au  tau(  49) = (  -0.2708328   0.5410617   0.4066025  )
        50           Au  tau(  50) = (  -0.1458763   0.3246061   0.4065947  )
        51           Au  tau(  51) = (  -0.0209056   0.1080882   0.4065858  )
        52           Au  tau(  52) = (   0.3541085   0.6133344   0.6129762  )
        53           Au  tau(  53) = (   0.4790780   0.3968269   0.6129968  )
        54           Au  tau(  54) = (   0.6040356   0.1803811   0.6129859  )
        55           Au  tau(  55) = (   0.7290165  -0.0361221   0.6129385  )
        56           Au  tau(  56) = (   0.1041243   0.6133091   0.6130022  )
        57           Au  tau(  57) = (   0.2290941   0.3968013   0.6130241  )
        58           Au  tau(  58) = (   0.3540515   0.1803552   0.6130121  )
        59           Au  tau(  59) = (   0.4790323  -0.0361475   0.6129659  )
        60           Au  tau(  60) = (  -0.1458030   0.6133014   0.6129980  )
        61           Au  tau(  61) = (  -0.0208339   0.3967936   0.6130188  )
        62           Au  tau(  62) = (   0.1041239   0.1803477   0.6130083  )
        63           Au  tau(  63) = (   0.2291046  -0.0361554   0.6129607  )
        64           Au  tau(  64) = (  -0.3957908   0.6132739   0.6129471  )
        65           Au  tau(  65) = (  -0.2708208   0.3967658   0.6129688  )
        66           Au  tau(  66) = (  -0.1458636   0.1803200   0.6129569  )
        67           Au  tau(  67) = (  -0.0208823  -0.0361826   0.6129110  )

     number of k points=    12  Marzari-Vanderbilt smearing, width (Ry)=  0.0200
                       cart. coord. in units 2pi/alat
        k(    1) = (   0.2500000   0.4330127   0.1111111), wk =   0.1666667
        k(    2) = (   0.2500000  -0.1443376   0.1111111), wk =   0.1666667
        k(    3) = (  -0.2500000  -0.4330127   0.1111111), wk =   0.1666667
        k(    4) = (  -0.2500000   0.4330127  -0.1111111), wk =   0.1666667
        k(    5) = (   0.2500000  -0.4330127  -0.1111111), wk =   0.1666667
        k(    6) = (   0.5000000   0.0000000   0.1111111), wk =   0.1666667
        k(    7) = (  -0.5000000   0.0000000   0.1111111), wk =   0.1666667
        k(    8) = (  -0.2500000   0.1443376   0.1111111), wk =   0.1666667
        k(    9) = (  -0.2500000  -0.1443376  -0.1111111), wk =   0.1666667
        k(   10) = (   0.2500000   0.1443376  -0.1111111), wk =   0.1666667
        k(   11) = (   0.0000000  -0.2886751   0.1111111), wk =   0.1666667
        k(   12) = (   0.0000000   0.2886751   0.1111111), wk =   0.1666667

     Dense  grid:  3097177 G-vectors     FFT dimensions: ( 150, 150, 360)

     Smooth grid:  1095093 G-vectors     FFT dimensions: ( 108, 108, 240)

     Largest allocated arrays     est. size (Mb)     dimensions
        Kohn-Sham Wavefunctions        28.01 Mb     (    4299,  427)
        NL pseudopotentials            55.23 Mb     (    4299,  842)
        Each V/rho on FFT grid          4.12 Mb     (  270000)
        Each G-vector array             0.74 Mb     (   96788)
        G-vector shells                 0.16 Mb     (   21404)
     Largest temporary arrays     est. size (Mb)     dimensions
        Auxiliary wavefunctions       112.04 Mb     (    4299, 1708)
        Each subspace H/S matrix       44.51 Mb     (    1708, 1708)
        Each <psi_i|beta_j> matrix      5.49 Mb     (     842,  427)
        Arrays for rho mixing          32.96 Mb     (  270000,    8)

     Initial potential from superposition of free atoms
     Check: negative starting charge=   -1.730240

     starting charge  711.25682, renormalised to  712.00000

     negative rho (up, down):  1.732E+00 0.000E+00


     ************************************************************************
     *
     * You are using vdW-DF for exchange-correlation in this calculation.
     * Please cite the following three references that made this development
     * possible:
     *
     *   M. Dion, H. Rydberg, E. Schroder, D. C. Langreth, and
     *   B. I. Lundqvist, Phys. Rev. Lett. 92, 246401 (2004).
     *
     *   T. Thonhauser, V. R. Cooper, S. Li, A. Puzder, P. Hyldgaard, and
     *   D. C. Langreth, Phys. Rev. B 76, 125112 (2007).
     *
     *   G. Roman-Perez and J. M. Soler, Phys. Rev. Lett. 103, 096102 (2009).
     *
     *
     * If you are using vdW-DF2, please also cite:
     *
     *   K. Lee, E. D. Murray, L. Kong, B. I. Lundqvist, and
     *   D. C. Langreth, Phys. Rev. B 82, 081101(R) (2010).
     *
     *
     * If you are calculating the stress with vdW-DF, please also cite:
     *
     *   R. Sabatini, E. Kucukbenli, B. Kolb, T. Thonhauser, and
     *   S. de Gironcoli, J. Phys.: Condens. Matter 24, 424209 (2012).
     *
     ************************************************************************

     Carrying out vdW-DF run using the following parameters:

     Nqs =      20    Nr_points =    1024   r_max =   100.000
     q_mesh =
               0.00001000     0.04494208     0.09755937     0.15916263
               0.23128650     0.31572767     0.41458969     0.53033537
               0.66584808     0.82450364     1.01025438     1.22772762
               1.48234092     1.78043706     2.12944203     2.53805004
               3.01644009     3.57652955     4.23227104     5.00000000

     Gradients computed in reciprocal space

     ************************************************************************


     Starting wfc are  582 randomized atomic wfcs

     total cpu time spent up to now is      156.3 secs

     Self-consistent Calculation

     iteration #  1     ecut=    50.00 Ry     beta=0.70
     Davidson diagonalization with overlap
     ethr =  1.00E-02,  avg # of iterations =  3.0

     Threshold (ethr) on eigenvalues was too large:
     Diagonalizing with lowered threshold

     Davidson diagonalization with overlap
     ethr =  3.45E-04,  avg # of iterations =  4.3

     negative rho (up, down):  1.727E+00 0.000E+00

     total cpu time spent up to now is      810.3 secs

     total energy              =   -6602.80444361 Ry
     Harris-Foulkes estimate   =   -6605.03178661 Ry
     estimated scf accuracy    <       2.79366969 Ry

     iteration #  2     ecut=    50.00 Ry     beta=0.70
     Davidson diagonalization with overlap
     ethr =  3.92E-04,  avg # of iterations = 11.5

     negative rho (up, down):  1.727E+00 0.000E+00

     total cpu time spent up to now is     1824.8 secs

     total energy              =   -6596.97206611 Ry
     Harris-Foulkes estimate   =   -6610.04348846 Ry
     estimated scf accuracy    <      71.99794790 Ry

     iteration #  3     ecut=    50.00 Ry     beta=0.70
     Davidson diagonalization with overlap
     ethr =  3.92E-04,  avg # of iterations =  6.5

     negative rho (up, down):  1.737E+00 0.000E+00

     total cpu time spent up to now is     2463.8 secs

     total energy              =   -6603.14765325 Ry
     Harris-Foulkes estimate   =   -6605.01825406 Ry
     estimated scf accuracy    <       8.57064424 Ry

     iteration #  4     ecut=    50.00 Ry     beta=0.70
     Davidson diagonalization with overlap
     ethr =  3.92E-04,  avg # of iterations =  7.0

     negative rho (up, down):  1.739E+00 0.000E+00

     total cpu time spent up to now is     2853.7 secs

     total energy              =   -6603.61927132 Ry
     Harris-Foulkes estimate   =   -6605.07343032 Ry
     estimated scf accuracy    <      12.65891169 Ry

     iteration #  5     ecut=    50.00 Ry     beta=0.70
     Davidson diagonalization with overlap
     ethr =  3.92E-04,  avg # of iterations =  6.9

     negative rho (up, down):  1.748E+00 0.000E+00

     total cpu time spent up to now is     3237.9 secs

     total energy              =   -6604.29822156 Ry
     Harris-Foulkes estimate   =   -6604.65778841 Ry
     estimated scf accuracy    <       2.75538291 Ry

     iteration #  6     ecut=    50.00 Ry     beta=0.70
     Davidson diagonalization with overlap
     ethr =  3.87E-04,  avg # of iterations =  2.5

     negative rho (up, down):  1.753E+00 0.000E+00

     total cpu time spent up to now is     3516.1 secs

     total energy              =   -6604.42902021 Ry
     Harris-Foulkes estimate   =   -6604.47077231 Ry
     estimated scf accuracy    <       0.13129174 Ry

     iteration #  7     ecut=    50.00 Ry     beta=0.70
     Davidson diagonalization with overlap
     ethr =  1.84E-05,  avg # of iterations = 11.5

     negative rho (up, down):  1.755E+00 0.000E+00

     total cpu time spent up to now is     4007.7 secs

     total energy              =   -6604.43335162 Ry
     Harris-Foulkes estimate   =   -6604.46057754 Ry
     estimated scf accuracy    <       0.11991377 Ry

     iteration #  8     ecut=    50.00 Ry     beta=0.70
     Davidson diagonalization with overlap
     ethr =  1.68E-05,  avg # of iterations =  3.3

     negative rho (up, down):  1.756E+00 0.000E+00

     total cpu time spent up to now is     4320.4 secs

     total energy              =   -6604.43576534 Ry
     Harris-Foulkes estimate   =   -6604.44907518 Ry
     estimated scf accuracy    <       0.05138162 Ry

     iteration #  9     ecut=    50.00 Ry     beta=0.70
     Davidson diagonalization with overlap
     ethr =  7.22E-06,  avg # of iterations =  5.8

     negative rho (up, down):  1.756E+00 0.000E+00

     total cpu time spent up to now is     4677.0 secs

     total energy              =   -6604.43513413 Ry
     Harris-Foulkes estimate   =   -6604.44157609 Ry
     estimated scf accuracy    <       0.02356760 Ry

     iteration # 10     ecut=    50.00 Ry     beta=0.70
     Davidson diagonalization with overlap
     ethr =  3.31E-06,  avg # of iterations =  5.1

     negative rho (up, down):  1.757E+00 0.000E+00

     total cpu time spent up to now is     5008.5 secs

     total energy              =   -6604.43437330 Ry
     Harris-Foulkes estimate   =   -6604.43749770 Ry
     estimated scf accuracy    <       0.01106421 Ry

     iteration # 11     ecut=    50.00 Ry     beta=0.70
     Davidson diagonalization with overlap
     ethr =  1.55E-06,  avg # of iterations =  5.6

     negative rho (up, down):  1.758E+00 0.000E+00

     total cpu time spent up to now is     5356.5 secs

     total energy              =   -6604.43408820 Ry
     Harris-Foulkes estimate   =   -6604.43555351 Ry
     estimated scf accuracy    <       0.00584169 Ry

     iteration # 12     ecut=    50.00 Ry     beta=0.70
     Davidson diagonalization with overlap
     ethr =  8.20E-07,  avg # of iterations =  3.5

     negative rho (up, down):  1.758E+00 0.000E+00

     total cpu time spent up to now is     5646.6 secs

     total energy              =   -6604.43366556 Ry
     Harris-Foulkes estimate   =   -6604.43458619 Ry
     estimated scf accuracy    <       0.00155488 Ry

     iteration # 13     ecut=    50.00 Ry     beta=0.70
     Davidson diagonalization with overlap
     ethr =  2.18E-07,  avg # of iterations = 10.1

     negative rho (up, down):  1.758E+00 0.000E+00

     total cpu time spent up to now is     6086.0 secs

     total energy              =   -6604.43390623 Ry
     Harris-Foulkes estimate   =   -6604.43407638 Ry
     estimated scf accuracy    <       0.00045900 Ry

     iteration # 14     ecut=    50.00 Ry     beta=0.70
     Davidson diagonalization with overlap
     ethr =  6.45E-08,  avg # of iterations =  2.1

     negative rho (up, down):  1.758E+00 0.000E+00

     total cpu time spent up to now is     6368.2 secs

     total energy              =   -6604.43396523 Ry
     Harris-Foulkes estimate   =   -6604.43404763 Ry
     estimated scf accuracy    <       0.00032808 Ry

     iteration # 15     ecut=    50.00 Ry     beta=0.70
     Davidson diagonalization with overlap
     ethr =  4.61E-08,  avg # of iterations =  2.0

     negative rho (up, down):  1.758E+00 0.000E+00

     total cpu time spent up to now is     6665.8 secs

     total energy              =   -6604.43399659 Ry
     Harris-Foulkes estimate   =   -6604.43402658 Ry
     estimated scf accuracy    <       0.00012133 Ry

     iteration # 16     ecut=    50.00 Ry     beta=0.70
     Davidson diagonalization with overlap
     ethr =  1.70E-08,  avg # of iterations =  2.0

     negative rho (up, down):  1.758E+00 0.000E+00

     total cpu time spent up to now is     6944.1 secs

     total energy              =   -6604.43400455 Ry
     Harris-Foulkes estimate   =   -6604.43401614 Ry
     estimated scf accuracy    <       0.00005616 Ry

     iteration # 17     ecut=    50.00 Ry     beta=0.70
     Davidson diagonalization with overlap
     ethr =  7.89E-09,  avg # of iterations =  1.0

     negative rho (up, down):  1.758E+00 0.000E+00

     total cpu time spent up to now is     7203.7 secs

     total energy              =   -6604.43400774 Ry
     Harris-Foulkes estimate   =   -6604.43401866 Ry
     estimated scf accuracy    <       0.00011409 Ry

     iteration # 18     ecut=    50.00 Ry     beta=0.70
     Davidson diagonalization with overlap
     ethr =  7.89E-09,  avg # of iterations =  1.0

     negative rho (up, down):  1.758E+00 0.000E+00

     total cpu time spent up to now is     7462.2 secs

     total energy              =   -6604.43401266 Ry
     Harris-Foulkes estimate   =   -6604.43401409 Ry
     estimated scf accuracy    <       0.00000405 Ry

     iteration # 19     ecut=    50.00 Ry     beta=0.70
     Davidson diagonalization with overlap
     ethr =  5.69E-10,  avg # of iterations =  2.2

     negative rho (up, down):  1.758E+00 0.000E+00

     total cpu time spent up to now is     7769.0 secs

     total energy              =   -6604.43401325 Ry
     Harris-Foulkes estimate   =   -6604.43401387 Ry
     estimated scf accuracy    <       0.00000278 Ry

     iteration # 20     ecut=    50.00 Ry     beta=0.70
     Davidson diagonalization with overlap
     ethr =  3.91E-10,  avg # of iterations =  2.0

     negative rho (up, down):  1.757E+00 0.000E+00

     total cpu time spent up to now is     8040.9 secs

     total energy              =   -6604.43401363 Ry
     Harris-Foulkes estimate   =   -6604.43401369 Ry
     estimated scf accuracy    <       0.00000038 Ry

     iteration # 21     ecut=    50.00 Ry     beta=0.70
     Davidson diagonalization with overlap
     ethr =  5.31E-11,  avg # of iterations =  2.0

     negative rho (up, down):  1.757E+00 0.000E+00

     total cpu time spent up to now is     8340.0 secs

     total energy              =   -6604.43401370 Ry
     Harris-Foulkes estimate   =   -6604.43401374 Ry
     estimated scf accuracy    <       0.00000026 Ry

     iteration # 22     ecut=    50.00 Ry     beta=0.70
     Davidson diagonalization with overlap
     ethr =  3.68E-11,  avg # of iterations =  2.0

     negative rho (up, down):  1.757E+00 0.000E+00

     total cpu time spent up to now is     8611.2 secs

     total energy              =   -6604.43401373 Ry
     Harris-Foulkes estimate   =   -6604.43401373 Ry
     estimated scf accuracy    <       0.00000002 Ry

     iteration # 23     ecut=    50.00 Ry     beta=0.70
     Davidson diagonalization with overlap
     ethr =  2.20E-12,  avg # of iterations =  4.0

     negative rho (up, down):  1.757E+00 0.000E+00

     total cpu time spent up to now is     9042.9 secs

     total energy              =   -6604.43401373 Ry
     Harris-Foulkes estimate   =   -6604.43401374 Ry
     estimated scf accuracy    <       0.00000001 Ry

     iteration # 24     ecut=    50.00 Ry     beta=0.70
     Davidson diagonalization with overlap
     ethr =  1.95E-12,  avg # of iterations =  3.0

     negative rho (up, down):  1.757E+00 0.000E+00

     total cpu time spent up to now is     9422.9 secs

     total energy              =   -6604.43401374 Ry
     Harris-Foulkes estimate   =   -6604.43401374 Ry
     estimated scf accuracy    <       0.00000002 Ry

     iteration # 25     ecut=    50.00 Ry     beta=0.70
     Davidson diagonalization with overlap
     ethr =  1.95E-12,  avg # of iterations =  2.0

     negative rho (up, down):  1.757E+00 0.000E+00

     total cpu time spent up to now is     9700.2 secs

     End of self-consistent calculation

          k = 0.2500 0.4330 0.1111 (136853 PWs)   bands (ev):

   -18.5679  -6.4518  -6.3888  -5.9971  -5.9964  -5.3187  -4.9862  -4.9858
    -4.9471  -4.9456  -4.5858  -4.5856  -4.4873  -4.4869  -4.4730  -4.4506
    -4.4267  -4.3199  -4.3189  -4.2952  -4.2520  -4.2516  -4.1833  -4.1827
    -4.1763  -4.1755  -4.1547  -4.1490  -4.1482  -4.0789  -4.0748  -4.0465
    -4.0463  -4.0343  -4.0340  -4.0109  -4.0107  -3.9883  -3.9799  -3.9797
    -3.9533  -3.9010  -3.9009  -3.8530  -3.8527  -3.7944  -3.7938  -3.7394
    -3.7389  -3.7388  -3.7383  -3.7029  -3.6655  -3.6645  -3.6574  -3.6562
    -3.6559  -3.6267  -3.6247  -3.6167  -3.5558  -3.5555  -3.5465  -3.5290
    -3.5218  -3.4495  -3.4490  -3.4175  -3.4147  -3.3886  -3.3875  -3.3742
    -3.3576  -3.2988  -3.2975  -3.2801  -3.2800  -3.2293  -3.2236  -3.2230
    -3.1844  -3.1554  -3.1525  -3.1446  -3.1444  -3.1321  -3.1311  -3.1240
    -3.1230  -3.1137  -3.0727  -3.0349  -3.0340  -3.0206  -3.0198  -2.9935
    -2.9847  -2.9844  -2.9631  -2.9186  -2.9173  -2.9088  -2.8696  -2.8628
    -2.8518  -2.8510  -2.8244  -2.8211  -2.7926  -2.7593  -2.7550  -2.7333
    -2.7255  -2.7164  -2.7107  -2.6696  -2.6604  -2.6555  -2.6272  -2.6051
    -2.6031  -2.5805  -2.5773  -2.5691  -2.5667  -2.5584  -2.5356  -2.5341
    -2.4908  -2.4902  -2.4889  -2.4731  -2.4725  -2.4668  -2.4583  -2.4555
    -2.4547  -2.4542  -2.4489  -2.4378  -2.4360  -2.4253  -2.4008  -2.3991
    -2.3983  -2.3963  -2.3956  -2.3931  -2.3923  -2.3656  -2.3633  -2.3486
    -2.3481  -2.3305  -2.3303  -2.3207  -2.3204  -2.3191  -2.3182  -2.2995
    -2.2982  -2.2974  -2.2956  -2.2798  -2.2533  -2.2527  -2.2129  -2.2125
    -2.1882  -2.1875  -2.1605  -2.1593  -2.1325  -2.1318  -2.1146  -2.1104
    -2.0833  -2.0630  -2.0612  -2.0561  -2.0549  -2.0510  -2.0442  -2.0426
    -2.0170  -2.0112  -2.0025  -1.9443  -1.9402  -1.9393  -1.9371  -1.9364
    -1.9016  -1.8814  -1.8807  -1.8532  -1.8525  -1.7938  -1.7925  -1.7632
    -1.7453  -1.7445  -1.6840  -1.6838  -1.6729  -1.6711  -1.6613  -1.6600
    -1.6569  -1.6486  -1.6466  -1.5917  -1.5914  -1.5805  -1.5787  -1.5782
    -1.5610  -1.5579  -1.5241  -1.5236  -1.5072  -1.5063  -1.5055  -1.4991
    -1.4940  -1.4860  -1.4833  -1.4652  -1.4650  -1.4246  -1.4227  -1.4128
    -1.4105  -1.3914  -1.3771  -1.3359  -1.3336  -1.3079  -1.3038  -1.3031
    -1.2739  -1.2231  -1.2213  -1.2208  -1.2200  -1.2161  -1.2138  -1.2044
    -1.1870  -1.1851  -1.1471  -1.1443  -1.1156  -1.1143  -1.1093  -1.1089
    -1.1015  -1.0857  -1.0850  -1.0838  -1.0809  -1.0801  -1.0439  -1.0417
    -1.0411  -1.0403  -1.0104  -1.0096  -1.0060  -0.9816  -0.9755  -0.9731
    -0.9281  -0.9207  -0.9190  -0.8852  -0.8771  -0.8660  -0.8656  -0.8586
    -0.8573  -0.8566  -0.8548  -0.8446  -0.8434  -0.8190  -0.8181  -0.8146
    -0.8124  -0.8120  -0.7753  -0.7749  -0.7696  -0.7647  -0.7485  -0.7417
    -0.7404  -0.7290  -0.6824  -0.6728  -0.6686  -0.6628  -0.6619  -0.6603
    -0.6562  -0.6385  -0.6351  -0.6301  -0.6270  -0.6255  -0.6246  -0.5923
    -0.5848  -0.5830  -0.5791  -0.5740  -0.5718  -0.5684  -0.5667  -0.5561
    -0.5483  -0.5476  -0.5332  -0.5055  -0.5049  -0.4966  -0.4934  -0.4922
    -0.4167  -0.4145  -0.4126  -0.4121  -0.4034  -0.4012  -0.3664  -0.3542
    -0.3539  -0.3245  -0.3217  -0.3202  -0.2018  -0.1982  -0.0981   0.3169
     0.3176   0.3210   0.3213   0.3820   0.3854   0.7685   0.7716   0.8127
     0.8141   0.9249   1.0025   1.1112   1.1167   1.3357   1.3410   1.9665
     1.9695   2.1281   2.1320   2.2626   2.2659   2.3663   2.3666   2.5205
     2.7573   2.7704   2.8816   3.1037   3.1105   3.1889   3.1903   3.2886
     3.3057   3.5043   3.5167   3.5612   3.7620   3.7638   3.8259   3.8278
     4.0816   4.0885   4.0931   4.3326   4.3738   4.3755   4.4199   4.7518
     4.7592   4.7849   4.9218   5.0933   5.0947   5.1505   5.1765   5.5147
     5.7974   5.8781   5.8815   5.8920   5.9184   5.9525   5.9584   6.0505
     6.0704   6.0904   6.1129   6.1233   6.1253   6.1524   6.1570   6.1788
     6.1813   6.4401   6.5868   6.7254   6.7492   6.7795   6.8297   6.8330
     6.8374   6.9459   7.0275

          k = 0.2500-0.1443 0.1111 (136898 PWs)   bands (ev):

   -18.5679  -6.6097  -6.4404  -5.8143  -5.5222  -5.4644  -5.4639  -4.9261
    -4.9258  -4.7941  -4.7937  -4.6385  -4.6087  -4.5463  -4.5132  -4.5119
    -4.4795  -4.4791  -4.3507  -4.3091  -4.3087  -4.2492  -4.2282  -4.2275
    -4.1256  -4.1254  -4.0894  -4.0889  -4.0889  -4.0621  -4.0406  -4.0403
    -3.9360  -3.9334  -3.9331  -3.9128  -3.8959  -3.8955  -3.8838  -3.8831
    -3.8703  -3.8402  -3.8399  -3.8397  -3.8393  -3.8072  -3.8069  -3.7893
    -3.7889  -3.7759  -3.7337  -3.7323  -3.7011  -3.6871  -3.6851  -3.6807
    -3.6806  -3.6062  -3.6061  -3.5714  -3.5692  -3.5681  -3.5009  -3.5005
    -3.4857  -3.4847  -3.4551  -3.4546  -3.4533  -3.4529  -3.2998  -3.2990
    -3.2750  -3.2742  -3.2696  -3.2531  -3.2524  -3.2271  -3.2269  -3.1771
    -3.1767  -3.1610  -3.1602  -3.1402  -3.0930  -3.0918  -3.0728  -3.0674
    -3.0666  -3.0266  -3.0258  -3.0195  -3.0187  -3.0046  -3.0018  -2.9635
    -2.9630  -2.9420  -2.9413  -2.9385  -2.9378  -2.9344  -2.8597  -2.8577
    -2.8563  -2.8277  -2.8266  -2.7696  -2.7657  -2.7377  -2.7363  -2.7233
    -2.7227  -2.7173  -2.6936  -2.6876  -2.6776  -2.6750  -2.6594  -2.6346
    -2.6342  -2.6234  -2.6132  -2.6110  -2.6015  -2.5996  -2.5982  -2.5898
    -2.5875  -2.5440  -2.5117  -2.5115  -2.4949  -2.4819  -2.4762  -2.4749
    -2.4681  -2.4674  -2.4660  -2.4369  -2.4358  -2.4355  -2.4265  -2.4261
    -2.4094  -2.3824  -2.3809  -2.3807  -2.3802  -2.3794  -2.3342  -2.3032
    -2.3027  -2.3020  -2.2957  -2.2866  -2.2749  -2.2736  -2.2569  -2.2569
    -2.2249  -2.2219  -2.2217  -2.2033  -2.2025  -2.2016  -2.1692  -2.1685
    -2.1296  -2.1262  -2.1203  -2.1179  -2.1174  -2.1116  -2.1106  -2.1081
    -2.1077  -2.1023  -2.1003  -2.0851  -2.0841  -1.9583  -1.9568  -1.9248
    -1.9190  -1.9176  -1.9124  -1.9123  -1.8956  -1.8946  -1.8921  -1.8914
    -1.8897  -1.8672  -1.8600  -1.8589  -1.8534  -1.8469  -1.8468  -1.8240
    -1.8236  -1.7953  -1.7950  -1.7638  -1.7633  -1.7527  -1.7445  -1.7270
    -1.7261  -1.7235  -1.7057  -1.6928  -1.6925  -1.6852  -1.6851  -1.6591
    -1.6586  -1.6421  -1.6413  -1.6086  -1.6082  -1.5991  -1.5496  -1.5486
    -1.5361  -1.5345  -1.5341  -1.5095  -1.5069  -1.4743  -1.4732  -1.4725
    -1.4392  -1.4292  -1.4286  -1.4133  -1.4125  -1.3876  -1.3852  -1.3847
    -1.3554  -1.3525  -1.3523  -1.2903  -1.2890  -1.2776  -1.2756  -1.2603
    -1.2601  -1.2472  -1.2466  -1.2290  -1.2162  -1.1886  -1.1884  -1.1771
    -1.1487  -1.1389  -1.1377  -1.1265  -1.1264  -1.1247  -1.1202  -1.1185
    -1.1052  -1.0758  -1.0751  -1.0646  -1.0620  -1.0610  -1.0603  -1.0383
    -1.0213  -1.0180  -1.0003  -0.9968  -0.9058  -0.8920  -0.8875  -0.8865
    -0.8847  -0.8768  -0.8766  -0.8582  -0.8520  -0.8372  -0.8348  -0.8217
    -0.8211  -0.8121  -0.7929  -0.7918  -0.7889  -0.7813  -0.7092  -0.7088
    -0.6881  -0.6739  -0.6705  -0.6669  -0.6625  -0.6617  -0.6615  -0.6490
    -0.6485  -0.6329  -0.6092  -0.6072  -0.5775  -0.5734  -0.5711  -0.5614
    -0.5553  -0.5488  -0.5481  -0.5468  -0.5457  -0.5410  -0.5285  -0.5240
    -0.5207  -0.4935  -0.4920  -0.4912  -0.4796  -0.4791  -0.4600  -0.4279
    -0.4271  -0.4185  -0.4175  -0.3512  -0.3498  -0.3134  -0.3132  -0.2552
    -0.2547  -0.2539  -0.2393  -0.2270  -0.0009   0.0015   0.3458   0.3460
     0.4372   0.4406   0.6329   0.6485   0.6636   0.7934   0.7948   1.2261
     1.2264   1.2436   1.5053   1.5361   1.5364   1.8125   1.8186   1.8914
     1.8926   1.9184   1.9224   2.1480   2.1490   2.2369   2.2378   2.3160
     2.3758   2.3812   2.5403   2.6404   3.0754   3.0798   3.0830   3.0844
     3.1367   3.1383   3.4299   3.4306   3.7101   3.7160   3.8246   4.1259
     4.1662   4.1714   4.3879   4.4094   4.4674   4.4714   4.5620   4.6768
     4.6814   4.7957   4.7974   5.1006   5.1618   5.1732   5.3181   5.3593
     5.4320   5.5543   5.5597   5.5839   5.5855   5.6454   5.6491   5.7020
     5.8517   6.0561   6.2548   6.2772   6.3503   6.3892   6.3918   6.4035
     6.4052   6.5420   6.6339   6.6462   6.6538   6.8407   6.8808   6.9024
     6.9297   7.0095   7.1091

          k =-0.2500-0.4330 0.1111 (136853 PWs)   bands (ev):

   -18.5679  -6.4518  -6.3888  -5.9971  -5.9964  -5.3187  -4.9862  -4.9858
    -4.9471  -4.9456  -4.5858  -4.5856  -4.4873  -4.4869  -4.4730  -4.4506
    -4.4267  -4.3199  -4.3189  -4.2952  -4.2520  -4.2516  -4.1833  -4.1827
    -4.1763  -4.1755  -4.1547  -4.1490  -4.1482  -4.0789  -4.0748  -4.0465
    -4.0463  -4.0343  -4.0340  -4.0109  -4.0107  -3.9883  -3.9799  -3.9797
    -3.9533  -3.9010  -3.9009  -3.8530  -3.8527  -3.7944  -3.7938  -3.7394
    -3.7389  -3.7388  -3.7383  -3.7029  -3.6655  -3.6645  -3.6574  -3.6561
    -3.6559  -3.6267  -3.6247  -3.6167  -3.5558  -3.5555  -3.5465  -3.5290
    -3.5218  -3.4495  -3.4490  -3.4175  -3.4147  -3.3886  -3.3875  -3.3742
    -3.3576  -3.2988  -3.2975  -3.2801  -3.2800  -3.2293  -3.2236  -3.2230
    -3.1844  -3.1554  -3.1525  -3.1446  -3.1444  -3.1321  -3.1311  -3.1240
    -3.1230  -3.1137  -3.0727  -3.0349  -3.0340  -3.0206  -3.0198  -2.9935
    -2.9847  -2.9844  -2.9631  -2.9186  -2.9173  -2.9088  -2.8696  -2.8628
    -2.8518  -2.8510  -2.8244  -2.8211  -2.7926  -2.7593  -2.7550  -2.7333
    -2.7255  -2.7164  -2.7107  -2.6696  -2.6604  -2.6555  -2.6272  -2.6051
    -2.6031  -2.5805  -2.5773  -2.5691  -2.5667  -2.5584  -2.5356  -2.5341
    -2.4908  -2.4902  -2.4889  -2.4731  -2.4725  -2.4668  -2.4583  -2.4555
    -2.4547  -2.4542  -2.4489  -2.4378  -2.4360  -2.4253  -2.4008  -2.3991
    -2.3983  -2.3963  -2.3956  -2.3931  -2.3923  -2.3656  -2.3633  -2.3486
    -2.3481  -2.3305  -2.3303  -2.3207  -2.3204  -2.3191  -2.3182  -2.2995
    -2.2982  -2.2974  -2.2956  -2.2798  -2.2533  -2.2527  -2.2129  -2.2125
    -2.1882  -2.1875  -2.1605  -2.1593  -2.1325  -2.1318  -2.1146  -2.1104
    -2.0833  -2.0630  -2.0612  -2.0561  -2.0549  -2.0510  -2.0442  -2.0426
    -2.0170  -2.0112  -2.0025  -1.9443  -1.9402  -1.9393  -1.9371  -1.9364
    -1.9016  -1.8814  -1.8807  -1.8532  -1.8525  -1.7938  -1.7925  -1.7632
    -1.7453  -1.7445  -1.6840  -1.6838  -1.6729  -1.6711  -1.6613  -1.6600
    -1.6569  -1.6486  -1.6466  -1.5917  -1.5914  -1.5805  -1.5787  -1.5782
    -1.5610  -1.5579  -1.5241  -1.5236  -1.5072  -1.5063  -1.5055  -1.4991
    -1.4940  -1.4860  -1.4833  -1.4652  -1.4650  -1.4246  -1.4227  -1.4128
    -1.4105  -1.3914  -1.3771  -1.3359  -1.3336  -1.3079  -1.3038  -1.3031
    -1.2739  -1.2231  -1.2213  -1.2208  -1.2200  -1.2161  -1.2138  -1.2044
    -1.1870  -1.1851  -1.1471  -1.1443  -1.1156  -1.1143  -1.1093  -1.1089
    -1.1015  -1.0857  -1.0850  -1.0838  -1.0809  -1.0801  -1.0439  -1.0417
    -1.0411  -1.0403  -1.0104  -1.0096  -1.0060  -0.9816  -0.9755  -0.9731
    -0.9281  -0.9207  -0.9190  -0.8852  -0.8771  -0.8660  -0.8656  -0.8586
    -0.8573  -0.8566  -0.8548  -0.8446  -0.8434  -0.8190  -0.8181  -0.8146
    -0.8124  -0.8120  -0.7753  -0.7749  -0.7696  -0.7647  -0.7485  -0.7417
    -0.7404  -0.7290  -0.6824  -0.6728  -0.6686  -0.6628  -0.6619  -0.6603
    -0.6562  -0.6385  -0.6351  -0.6301  -0.6270  -0.6255  -0.6246  -0.5923
    -0.5848  -0.5830  -0.5791  -0.5740  -0.5718  -0.5684  -0.5667  -0.5561
    -0.5483  -0.5476  -0.5332  -0.5055  -0.5049  -0.4966  -0.4934  -0.4922
    -0.4167  -0.4145  -0.4126  -0.4121  -0.4034  -0.4012  -0.3664  -0.3542
    -0.3539  -0.3245  -0.3217  -0.3202  -0.2018  -0.1982  -0.0981   0.3169
     0.3176   0.3210   0.3213   0.3820   0.3854   0.7685   0.7716   0.8127
     0.8141   0.9249   1.0025   1.1112   1.1167   1.3357   1.3410   1.9665
     1.9695   2.1281   2.1320   2.2626   2.2659   2.3663   2.3666   2.5205
     2.7573   2.7704   2.8816   3.1037   3.1105   3.1889   3.1903   3.2886
     3.3057   3.5043   3.5167   3.5612   3.7620   3.7638   3.8259   3.8278
     4.0816   4.0885   4.0931   4.3326   4.3738   4.3755   4.4199   4.7518
     4.7592   4.7849   4.9218   5.0933   5.0947   5.1505   5.1765   5.5147
     5.7969   5.8781   5.8815   5.8920   5.9184   5.9525   5.9584   6.0502
     6.0703   6.0904   6.1141   6.1234   6.1266   6.1524   6.1568   6.1789
     6.1813   6.4412   6.5876   6.7099   6.7508   6.7786   6.8297   6.8329
     6.8367   6.9459   7.0367

          k =-0.2500 0.4330-0.1111 (136853 PWs)   bands (ev):

   -18.5679  -6.4515  -6.3892  -5.9980  -5.9955  -5.3187  -4.9863  -4.9857
    -4.9486  -4.9441  -4.5865  -4.5848  -4.4873  -4.4869  -4.4728  -4.4506
    -4.4265  -4.3205  -4.3186  -4.2953  -4.2521  -4.2516  -4.1834  -4.1825
    -4.1764  -4.1756  -4.1546  -4.1503  -4.1469  -4.0802  -4.0735  -4.0473
    -4.0451  -4.0343  -4.0339  -4.0110  -4.0107  -3.9883  -3.9800  -3.9798
    -3.9534  -3.9014  -3.9006  -3.8541  -3.8516  -3.7944  -3.7935  -3.7397
    -3.7388  -3.7387  -3.7379  -3.7031  -3.6657  -3.6640  -3.6576  -3.6564
    -3.6557  -3.6273  -3.6246  -3.6168  -3.5558  -3.5551  -3.5471  -3.5288
    -3.5215  -3.4501  -3.4491  -3.4183  -3.4145  -3.3888  -3.3870  -3.3741
    -3.3577  -3.2987  -3.2974  -3.2809  -3.2791  -3.2286  -3.2244  -3.2230
    -3.1843  -3.1551  -3.1525  -3.1451  -3.1440  -3.1332  -3.1314  -3.1237
    -3.1224  -3.1138  -3.0726  -3.0358  -3.0334  -3.0206  -3.0196  -2.9937
    -2.9854  -2.9840  -2.9632  -2.9193  -2.9165  -2.9090  -2.8694  -2.8627
    -2.8521  -2.8504  -2.8235  -2.8221  -2.7927  -2.7589  -2.7544  -2.7332
    -2.7255  -2.7175  -2.7109  -2.6705  -2.6613  -2.6506  -2.6269  -2.6048
    -2.6025  -2.5813  -2.5792  -2.5685  -2.5672  -2.5583  -2.5357  -2.5342
    -2.4906  -2.4900  -2.4890  -2.4732  -2.4725  -2.4669  -2.4580  -2.4562
    -2.4551  -2.4542  -2.4488  -2.4376  -2.4352  -2.4246  -2.4004  -2.3990
    -2.3981  -2.3962  -2.3954  -2.3943  -2.3924  -2.3665  -2.3633  -2.3489
    -2.3479  -2.3309  -2.3301  -2.3209  -2.3205  -2.3196  -2.3173  -2.2997
    -2.2987  -2.2973  -2.2951  -2.2799  -2.2536  -2.2528  -2.2136  -2.2119
    -2.1881  -2.1878  -2.1600  -2.1591  -2.1328  -2.1316  -2.1148  -2.1103
    -2.0830  -2.0633  -2.0609  -2.0557  -2.0544  -2.0508  -2.0443  -2.0425
    -2.0170  -2.0110  -2.0025  -1.9441  -1.9412  -1.9393  -1.9380  -1.9358
    -1.9011  -1.8823  -1.8797  -1.8540  -1.8522  -1.7943  -1.7918  -1.7637
    -1.7453  -1.7439  -1.6849  -1.6831  -1.6730  -1.6706  -1.6615  -1.6598
    -1.6570  -1.6492  -1.6461  -1.5930  -1.5900  -1.5803  -1.5790  -1.5784
    -1.5615  -1.5578  -1.5242  -1.5233  -1.5073  -1.5065  -1.5054  -1.4990
    -1.4944  -1.4862  -1.4831  -1.4655  -1.4647  -1.4250  -1.4220  -1.4131
    -1.4102  -1.3912  -1.3771  -1.3362  -1.3331  -1.3082  -1.3038  -1.3028
    -1.2738  -1.2231  -1.2218  -1.2210  -1.2198  -1.2155  -1.2137  -1.2044
    -1.1874  -1.1848  -1.1476  -1.1438  -1.1165  -1.1136  -1.1096  -1.1087
    -1.1016  -1.0862  -1.0847  -1.0838  -1.0812  -1.0792  -1.0442  -1.0416
    -1.0407  -1.0403  -1.0122  -1.0093  -1.0051  -0.9818  -0.9760  -0.9722
    -0.9282  -0.9216  -0.9187  -0.8862  -0.8765  -0.8663  -0.8650  -0.8596
    -0.8575  -0.8565  -0.8549  -0.8452  -0.8431  -0.8188  -0.8180  -0.8145
    -0.8141  -0.8114  -0.7755  -0.7746  -0.7685  -0.7638  -0.7503  -0.7424
    -0.7401  -0.7290  -0.6765  -0.6731  -0.6650  -0.6629  -0.6618  -0.6613
    -0.6563  -0.6425  -0.6354  -0.6293  -0.6264  -0.6256  -0.6246  -0.5920
    -0.5845  -0.5828  -0.5804  -0.5740  -0.5698  -0.5673  -0.5623  -0.5533
    -0.5500  -0.5479  -0.5422  -0.5060  -0.5041  -0.4972  -0.4931  -0.4919
    -0.4172  -0.4142  -0.4125  -0.4117  -0.4035  -0.4024  -0.3668  -0.3545
    -0.3534  -0.3246  -0.3218  -0.3202  -0.2032  -0.1979  -0.0986   0.3174
     0.3179   0.3206   0.3211   0.3814   0.3852   0.7702   0.7709   0.8121
     0.8141   0.9252   1.0027   1.1107   1.1178   1.3347   1.3418   1.9659
     1.9697   2.1271   2.1331   2.2606   2.2670   2.3658   2.3670   2.5205
     2.7584   2.7705   2.8823   3.1042   3.1115   3.1886   3.1903   3.2901
     3.3056   3.5026   3.5182   3.5616   3.7613   3.7644   3.8220   3.8294
     4.0818   4.0886   4.0942   4.3331   4.3718   4.3759   4.4200   4.7534
     4.7585   4.7846   4.9175   5.0921   5.0948   5.1489   5.1761   5.5161
     5.7951   5.8751   5.8856   5.8913   5.9211   5.9534   5.9582   6.0517
     6.0656   6.0908   6.1160   6.1223   6.1273   6.1523   6.1578   6.1784
     6.1819   6.4398   6.5912   6.7101   6.7478   6.7814   6.8240   6.8365
     6.8377   6.9493   7.0362

          k = 0.2500-0.4330-0.1111 (136853 PWs)   bands (ev):

   -18.5679  -6.4515  -6.3892  -5.9980  -5.9955  -5.3187  -4.9863  -4.9857
    -4.9486  -4.9441  -4.5865  -4.5848  -4.4873  -4.4869  -4.4728  -4.4506
    -4.4265  -4.3205  -4.3186  -4.2953  -4.2521  -4.2516  -4.1834  -4.1825
    -4.1764  -4.1756  -4.1546  -4.1503  -4.1469  -4.0802  -4.0735  -4.0473
    -4.0451  -4.0343  -4.0339  -4.0110  -4.0107  -3.9883  -3.9800  -3.9798
    -3.9534  -3.9014  -3.9006  -3.8541  -3.8516  -3.7944  -3.7935  -3.7397
    -3.7388  -3.7387  -3.7379  -3.7031  -3.6657  -3.6640  -3.6576  -3.6564
    -3.6557  -3.6273  -3.6246  -3.6168  -3.5558  -3.5551  -3.5471  -3.5288
    -3.5215  -3.4501  -3.4491  -3.4183  -3.4145  -3.3888  -3.3870  -3.3741
    -3.3577  -3.2987  -3.2974  -3.2809  -3.2791  -3.2286  -3.2244  -3.2230
    -3.1843  -3.1551  -3.1525  -3.1451  -3.1440  -3.1332  -3.1314  -3.1237
    -3.1224  -3.1138  -3.0726  -3.0358  -3.0334  -3.0206  -3.0196  -2.9937
    -2.9854  -2.9840  -2.9632  -2.9193  -2.9165  -2.9090  -2.8694  -2.8627
    -2.8521  -2.8504  -2.8235  -2.8221  -2.7927  -2.7589  -2.7544  -2.7332
    -2.7255  -2.7175  -2.7109  -2.6705  -2.6613  -2.6506  -2.6269  -2.6048
    -2.6025  -2.5813  -2.5792  -2.5685  -2.5672  -2.5583  -2.5357  -2.5342
    -2.4906  -2.4900  -2.4890  -2.4732  -2.4725  -2.4669  -2.4580  -2.4562
    -2.4551  -2.4542  -2.4488  -2.4376  -2.4352  -2.4246  -2.4004  -2.3990
    -2.3981  -2.3962  -2.3954  -2.3943  -2.3924  -2.3665  -2.3633  -2.3489
    -2.3479  -2.3309  -2.3301  -2.3209  -2.3205  -2.3196  -2.3173  -2.2997
    -2.2987  -2.2973  -2.2951  -2.2799  -2.2536  -2.2528  -2.2136  -2.2120
    -2.1881  -2.1878  -2.1600  -2.1591  -2.1328  -2.1316  -2.1148  -2.1103
    -2.0830  -2.0633  -2.0609  -2.0557  -2.0544  -2.0508  -2.0443  -2.0425
    -2.0170  -2.0110  -2.0025  -1.9441  -1.9412  -1.9393  -1.9380  -1.9358
    -1.9011  -1.8823  -1.8797  -1.8540  -1.8522  -1.7943  -1.7918  -1.7637
    -1.7453  -1.7439  -1.6849  -1.6831  -1.6730  -1.6706  -1.6615  -1.6598
    -1.6570  -1.6492  -1.6461  -1.5930  -1.5900  -1.5803  -1.5790  -1.5784
    -1.5615  -1.5578  -1.5242  -1.5233  -1.5073  -1.5065  -1.5054  -1.4990
    -1.4944  -1.4862  -1.4831  -1.4655  -1.4647  -1.4250  -1.4220  -1.4131
    -1.4102  -1.3912  -1.3771  -1.3362  -1.3331  -1.3082  -1.3038  -1.3028
    -1.2738  -1.2231  -1.2218  -1.2210  -1.2198  -1.2155  -1.2137  -1.2044
    -1.1874  -1.1848  -1.1476  -1.1438  -1.1165  -1.1136  -1.1096  -1.1087
    -1.1016  -1.0862  -1.0847  -1.0838  -1.0812  -1.0792  -1.0442  -1.0416
    -1.0407  -1.0403  -1.0122  -1.0093  -1.0051  -0.9818  -0.9760  -0.9722
    -0.9282  -0.9216  -0.9187  -0.8862  -0.8765  -0.8663  -0.8650  -0.8596
    -0.8575  -0.8565  -0.8549  -0.8452  -0.8431  -0.8188  -0.8180  -0.8145
    -0.8141  -0.8114  -0.7755  -0.7746  -0.7685  -0.7639  -0.7503  -0.7424
    -0.7401  -0.7290  -0.6765  -0.6731  -0.6650  -0.6628  -0.6618  -0.6613
    -0.6563  -0.6425  -0.6354  -0.6293  -0.6264  -0.6257  -0.6245  -0.5920
    -0.5845  -0.5828  -0.5804  -0.5740  -0.5698  -0.5673  -0.5623  -0.5533
    -0.5500  -0.5478  -0.5422  -0.5060  -0.5041  -0.4972  -0.4931  -0.4919
    -0.4172  -0.4142  -0.4125  -0.4117  -0.4035  -0.4024  -0.3668  -0.3545
    -0.3534  -0.3246  -0.3218  -0.3202  -0.2032  -0.1979  -0.0986   0.3174
     0.3179   0.3206   0.3211   0.3814   0.3852   0.7702   0.7709   0.8121
     0.8141   0.9252   1.0027   1.1107   1.1178   1.3347   1.3418   1.9659
     1.9697   2.1271   2.1331   2.2606   2.2670   2.3658   2.3670   2.5205
     2.7584   2.7705   2.8823   3.1042   3.1115   3.1886   3.1903   3.2901
     3.3056   3.5026   3.5182   3.5616   3.7613   3.7644   3.8220   3.8294
     4.0818   4.0886   4.0942   4.3331   4.3718   4.3759   4.4200   4.7534
     4.7585   4.7846   4.9175   5.0921   5.0948   5.1489   5.1761   5.5161
     5.7955   5.8751   5.8856   5.8913   5.9212   5.9534   5.9582   6.0519
     6.0657   6.0908   6.1148   6.1223   6.1263   6.1524   6.1579   6.1784
     6.1819   6.4390   6.5903   6.7217   6.7491   6.7815   6.8243   6.8365
     6.8383   6.9493   7.0276

          k = 0.5000 0.0000 0.1111 (136853 PWs)   bands (ev):

   -18.5679  -6.4518  -6.3889  -5.9977  -5.9958  -5.3187  -4.9871  -4.9849
    -4.9483  -4.9444  -4.5865  -4.5847  -4.4872  -4.4870  -4.4728  -4.4506
    -4.4267  -4.3202  -4.3190  -4.2953  -4.2520  -4.2517  -4.1834  -4.1824
    -4.1770  -4.1750  -4.1545  -4.1506  -4.1466  -4.0803  -4.0735  -4.0474
    -4.0451  -4.0344  -4.0338  -4.0109  -4.0107  -3.9883  -3.9800  -3.9797
    -3.9535  -3.9013  -3.9008  -3.8540  -3.8516  -3.7942  -3.7940  -3.7395
    -3.7389  -3.7387  -3.7382  -3.7031  -3.6655  -3.6647  -3.6573  -3.6567
    -3.6556  -3.6270  -3.6244  -3.6167  -3.5559  -3.5555  -3.5466  -3.5288
    -3.5215  -3.4504  -3.4486  -3.4172  -3.4150  -3.3884  -3.3874  -3.3741
    -3.3577  -3.2988  -3.2974  -3.2801  -3.2795  -3.2290  -3.2242  -3.2230
    -3.1842  -3.1552  -3.1522  -3.1451  -3.1440  -3.1327  -3.1312  -3.1240
    -3.1228  -3.1137  -3.0725  -3.0355  -3.0338  -3.0204  -3.0198  -2.9936
    -2.9845  -2.9844  -2.9633  -2.9191  -2.9169  -2.9097  -2.8696  -2.8627
    -2.8517  -2.8509  -2.8249  -2.8220  -2.7926  -2.7572  -2.7548  -2.7339
    -2.7255  -2.7147  -2.7109  -2.6721  -2.6611  -2.6507  -2.6272  -2.6051
    -2.6044  -2.5806  -2.5777  -2.5687  -2.5671  -2.5586  -2.5355  -2.5341
    -2.4911  -2.4900  -2.4891  -2.4732  -2.4724  -2.4668  -2.4583  -2.4560
    -2.4550  -2.4542  -2.4489  -2.4375  -2.4356  -2.4265  -2.4007  -2.3990
    -2.3979  -2.3965  -2.3960  -2.3944  -2.3921  -2.3658  -2.3633  -2.3485
    -2.3479  -2.3308  -2.3301  -2.3208  -2.3204  -2.3196  -2.3166  -2.2998
    -2.2983  -2.2980  -2.2949  -2.2800  -2.2533  -2.2531  -2.2136  -2.2119
    -2.1883  -2.1876  -2.1600  -2.1597  -2.1322  -2.1314  -2.1146  -2.1102
    -2.0831  -2.0626  -2.0614  -2.0555  -2.0546  -2.0504  -2.0439  -2.0423
    -2.0170  -2.0111  -2.0025  -1.9442  -1.9419  -1.9392  -1.9376  -1.9361
    -1.9016  -1.8822  -1.8798  -1.8533  -1.8529  -1.7943  -1.7919  -1.7639
    -1.7448  -1.7442  -1.6843  -1.6833  -1.6731  -1.6709  -1.6612  -1.6600
    -1.6570  -1.6488  -1.6466  -1.5922  -1.5902  -1.5801  -1.5797  -1.5784
    -1.5610  -1.5578  -1.5245  -1.5237  -1.5073  -1.5065  -1.5054  -1.4988
    -1.4948  -1.4859  -1.4835  -1.4656  -1.4644  -1.4238  -1.4233  -1.4130
    -1.4101  -1.3914  -1.3771  -1.3356  -1.3338  -1.3081  -1.3040  -1.3031
    -1.2740  -1.2236  -1.2220  -1.2204  -1.2198  -1.2150  -1.2138  -1.2041
    -1.1873  -1.1848  -1.1469  -1.1440  -1.1152  -1.1151  -1.1096  -1.1085
    -1.1014  -1.0863  -1.0855  -1.0841  -1.0809  -1.0799  -1.0444  -1.0416
    -1.0404  -1.0401  -1.0102  -1.0093  -1.0056  -0.9824  -0.9751  -0.9723
    -0.9279  -0.9232  -0.9190  -0.8861  -0.8771  -0.8658  -0.8655  -0.8596
    -0.8572  -0.8562  -0.8549  -0.8449  -0.8432  -0.8186  -0.8179  -0.8144
    -0.8138  -0.8117  -0.7756  -0.7746  -0.7659  -0.7641  -0.7522  -0.7433
    -0.7402  -0.7291  -0.6760  -0.6729  -0.6650  -0.6623  -0.6611  -0.6604
    -0.6559  -0.6431  -0.6357  -0.6289  -0.6268  -0.6265  -0.6244  -0.5964
    -0.5840  -0.5826  -0.5819  -0.5741  -0.5711  -0.5674  -0.5624  -0.5519
    -0.5479  -0.5476  -0.5422  -0.5059  -0.5041  -0.4972  -0.4927  -0.4913
    -0.4165  -0.4144  -0.4125  -0.4118  -0.4033  -0.4029  -0.3668  -0.3544
    -0.3535  -0.3244  -0.3217  -0.3209  -0.2009  -0.1983  -0.0976   0.3170
     0.3178   0.3207   0.3213   0.3816   0.3841   0.7686   0.7714   0.8125
     0.8141   0.9254   1.0033   1.1116   1.1177   1.3336   1.3428   1.9662
     1.9688   2.1281   2.1323   2.2611   2.2666   2.3657   2.3671   2.5204
     2.7577   2.7707   2.8821   3.1034   3.1115   3.1886   3.1907   3.2886
     3.3057   3.4997   3.5211   3.5613   3.7619   3.7639   3.8240   3.8291
     4.0807   4.0888   4.0938   4.3331   4.3728   4.3759   4.4199   4.7529
     4.7586   4.7836   4.9206   5.0927   5.0949   5.1503   5.1780   5.5167
     5.7856   5.8780   5.8845   5.8911   5.9307   5.9540   5.9578   6.0463
     6.0686   6.0904   6.1140   6.1202   6.1238   6.1481   6.1584   6.1788
     6.1836   6.4368   6.6006   6.7150   6.7511   6.7888   6.8278   6.8354
     6.8397   6.9461   7.0299

          k =-0.5000 0.0000 0.1111 (136853 PWs)   bands (ev):

   -18.5679  -6.4518  -6.3889  -5.9977  -5.9958  -5.3187  -4.9871  -4.9849
    -4.9483  -4.9444  -4.5865  -4.5847  -4.4872  -4.4870  -4.4728  -4.4506
    -4.4267  -4.3202  -4.3190  -4.2953  -4.2520  -4.2517  -4.1834  -4.1824
    -4.1770  -4.1750  -4.1545  -4.1506  -4.1466  -4.0803  -4.0735  -4.0474
    -4.0451  -4.0344  -4.0338  -4.0109  -4.0107  -3.9883  -3.9800  -3.9797
    -3.9535  -3.9013  -3.9008  -3.8540  -3.8516  -3.7942  -3.7940  -3.7395
    -3.7389  -3.7387  -3.7382  -3.7031  -3.6655  -3.6647  -3.6573  -3.6567
    -3.6556  -3.6270  -3.6244  -3.6167  -3.5559  -3.5555  -3.5466  -3.5288
    -3.5215  -3.4504  -3.4486  -3.4172  -3.4150  -3.3884  -3.3874  -3.3741
    -3.3577  -3.2988  -3.2974  -3.2801  -3.2795  -3.2290  -3.2242  -3.2230
    -3.1842  -3.1552  -3.1522  -3.1451  -3.1440  -3.1327  -3.1312  -3.1240
    -3.1228  -3.1137  -3.0725  -3.0355  -3.0338  -3.0204  -3.0198  -2.9936
    -2.9845  -2.9844  -2.9633  -2.9191  -2.9169  -2.9097  -2.8696  -2.8627
    -2.8517  -2.8509  -2.8249  -2.8220  -2.7926  -2.7572  -2.7548  -2.7339
    -2.7255  -2.7147  -2.7109  -2.6720  -2.6611  -2.6507  -2.6272  -2.6051
    -2.6044  -2.5806  -2.5777  -2.5687  -2.5671  -2.5586  -2.5355  -2.5341
    -2.4911  -2.4900  -2.4891  -2.4732  -2.4724  -2.4668  -2.4583  -2.4560
    -2.4550  -2.4542  -2.4489  -2.4375  -2.4356  -2.4265  -2.4007  -2.3990
    -2.3979  -2.3965  -2.3960  -2.3944  -2.3921  -2.3658  -2.3633  -2.3485
    -2.3479  -2.3308  -2.3301  -2.3208  -2.3204  -2.3196  -2.3166  -2.2998
    -2.2983  -2.2980  -2.2949  -2.2800  -2.2533  -2.2531  -2.2136  -2.2119
    -2.1883  -2.1876  -2.1600  -2.1597  -2.1322  -2.1314  -2.1146  -2.1102
    -2.0831  -2.0626  -2.0614  -2.0555  -2.0547  -2.0504  -2.0439  -2.0423
    -2.0170  -2.0111  -2.0025  -1.9442  -1.9419  -1.9392  -1.9376  -1.9361
    -1.9016  -1.8822  -1.8798  -1.8533  -1.8529  -1.7943  -1.7919  -1.7639
    -1.7448  -1.7442  -1.6843  -1.6833  -1.6731  -1.6709  -1.6612  -1.6600
    -1.6570  -1.6488  -1.6466  -1.5922  -1.5902  -1.5801  -1.5797  -1.5784
    -1.5610  -1.5578  -1.5244  -1.5237  -1.5073  -1.5065  -1.5054  -1.4988
    -1.4948  -1.4859  -1.4835  -1.4656  -1.4644  -1.4238  -1.4233  -1.4130
    -1.4101  -1.3914  -1.3771  -1.3356  -1.3338  -1.3081  -1.3040  -1.3031
    -1.2740  -1.2236  -1.2220  -1.2204  -1.2198  -1.2150  -1.2138  -1.2041
    -1.1873  -1.1848  -1.1469  -1.1440  -1.1152  -1.1151  -1.1096  -1.1085
    -1.1014  -1.0863  -1.0855  -1.0841  -1.0809  -1.0799  -1.0444  -1.0416
    -1.0404  -1.0401  -1.0102  -1.0093  -1.0056  -0.9824  -0.9751  -0.9723
    -0.9279  -0.9232  -0.9190  -0.8861  -0.8771  -0.8658  -0.8655  -0.8596
    -0.8572  -0.8562  -0.8549  -0.8449  -0.8432  -0.8186  -0.8179  -0.8144
    -0.8138  -0.8117  -0.7756  -0.7746  -0.7659  -0.7641  -0.7522  -0.7433
    -0.7402  -0.7291  -0.6760  -0.6729  -0.6650  -0.6623  -0.6611  -0.6604
    -0.6559  -0.6431  -0.6357  -0.6289  -0.6268  -0.6265  -0.6244  -0.5964
    -0.5840  -0.5826  -0.5819  -0.5741  -0.5711  -0.5674  -0.5624  -0.5519
    -0.5479  -0.5476  -0.5422  -0.5059  -0.5041  -0.4972  -0.4927  -0.4913
    -0.4165  -0.4144  -0.4125  -0.4118  -0.4033  -0.4029  -0.3668  -0.3544
    -0.3535  -0.3244  -0.3217  -0.3209  -0.2009  -0.1983  -0.0976   0.3170
     0.3178   0.3207   0.3213   0.3816   0.3841   0.7686   0.7714   0.8125
     0.8141   0.9254   1.0033   1.1116   1.1177   1.3336   1.3428   1.9662
     1.9688   2.1281   2.1323   2.2611   2.2666   2.3657   2.3671   2.5204
     2.7577   2.7707   2.8821   3.1034   3.1115   3.1886   3.1907   3.2886
     3.3057   3.4997   3.5211   3.5613   3.7619   3.7639   3.8240   3.8291
     4.0807   4.0888   4.0938   4.3331   4.3728   4.3759   4.4199   4.7529
     4.7586   4.7836   4.9206   5.0927   5.0949   5.1503   5.1780   5.5167
     5.7856   5.8780   5.8845   5.8911   5.9307   5.9540   5.9578   6.0463
     6.0686   6.0904   6.1142   6.1204   6.1238   6.1481   6.1585   6.1788
     6.1835   6.4370   6.6007   6.7139   6.7506   6.7885   6.8279   6.8352
     6.8398   6.9461   7.0327

          k =-0.2500 0.1443 0.1111 (136898 PWs)   bands (ev):

   -18.5679  -6.6097  -6.4404  -5.8143  -5.5222  -5.4644  -5.4639  -4.9261
    -4.9258  -4.7941  -4.7937  -4.6385  -4.6087  -4.5463  -4.5132  -4.5119
    -4.4795  -4.4791  -4.3507  -4.3091  -4.3087  -4.2492  -4.2283  -4.2275
    -4.1256  -4.1254  -4.0894  -4.0889  -4.0889  -4.0621  -4.0406  -4.0403
    -3.9360  -3.9334  -3.9331  -3.9128  -3.8959  -3.8955  -3.8838  -3.8831
    -3.8703  -3.8402  -3.8399  -3.8397  -3.8393  -3.8072  -3.8069  -3.7893
    -3.7889  -3.7759  -3.7337  -3.7324  -3.7011  -3.6871  -3.6851  -3.6807
    -3.6806  -3.6063  -3.6061  -3.5714  -3.5692  -3.5681  -3.5009  -3.5005
    -3.4857  -3.4847  -3.4551  -3.4546  -3.4533  -3.4529  -3.2998  -3.2990
    -3.2750  -3.2742  -3.2696  -3.2530  -3.2524  -3.2271  -3.2269  -3.1771
    -3.1767  -3.1610  -3.1602  -3.1402  -3.0930  -3.0918  -3.0728  -3.0674
    -3.0666  -3.0266  -3.0258  -3.0195  -3.0187  -3.0046  -3.0018  -2.9635
    -2.9630  -2.9420  -2.9413  -2.9385  -2.9378  -2.9344  -2.8597  -2.8577
    -2.8563  -2.8277  -2.8266  -2.7696  -2.7657  -2.7377  -2.7363  -2.7233
    -2.7227  -2.7173  -2.6936  -2.6876  -2.6776  -2.6750  -2.6594  -2.6346
    -2.6342  -2.6234  -2.6132  -2.6110  -2.6015  -2.5996  -2.5982  -2.5898
    -2.5875  -2.5440  -2.5116  -2.5115  -2.4949  -2.4819  -2.4762  -2.4749
    -2.4681  -2.4674  -2.4660  -2.4369  -2.4358  -2.4355  -2.4265  -2.4261
    -2.4094  -2.3824  -2.3809  -2.3807  -2.3802  -2.3794  -2.3342  -2.3032
    -2.3027  -2.3020  -2.2957  -2.2866  -2.2749  -2.2736  -2.2569  -2.2569
    -2.2249  -2.2219  -2.2217  -2.2033  -2.2025  -2.2016  -2.1692  -2.1685
    -2.1296  -2.1262  -2.1203  -2.1179  -2.1174  -2.1116  -2.1106  -2.1081
    -2.1077  -2.1023  -2.1003  -2.0851  -2.0841  -1.9583  -1.9568  -1.9248
    -1.9190  -1.9176  -1.9124  -1.9123  -1.8956  -1.8946  -1.8921  -1.8914
    -1.8897  -1.8672  -1.8600  -1.8589  -1.8534  -1.8469  -1.8468  -1.8240
    -1.8236  -1.7953  -1.7950  -1.7638  -1.7633  -1.7528  -1.7445  -1.7270
    -1.7261  -1.7235  -1.7058  -1.6928  -1.6925  -1.6852  -1.6851  -1.6591
    -1.6586  -1.6421  -1.6413  -1.6086  -1.6082  -1.5991  -1.5496  -1.5486
    -1.5361  -1.5345  -1.5341  -1.5094  -1.5069  -1.4743  -1.4732  -1.4725
    -1.4392  -1.4292  -1.4286  -1.4133  -1.4125  -1.3876  -1.3852  -1.3847
    -1.3554  -1.3525  -1.3523  -1.2903  -1.2890  -1.2776  -1.2756  -1.2603
    -1.2601  -1.2472  -1.2466  -1.2290  -1.2162  -1.1886  -1.1884  -1.1771
    -1.1487  -1.1389  -1.1377  -1.1265  -1.1264  -1.1247  -1.1202  -1.1185
    -1.1052  -1.0758  -1.0751  -1.0646  -1.0620  -1.0610  -1.0603  -1.0383
    -1.0213  -1.0180  -1.0003  -0.9968  -0.9058  -0.8920  -0.8875  -0.8865
    -0.8847  -0.8767  -0.8766  -0.8582  -0.8520  -0.8372  -0.8348  -0.8217
    -0.8211  -0.8121  -0.7929  -0.7918  -0.7889  -0.7813  -0.7092  -0.7088
    -0.6881  -0.6739  -0.6705  -0.6669  -0.6625  -0.6617  -0.6615  -0.6490
    -0.6485  -0.6329  -0.6092  -0.6072  -0.5775  -0.5734  -0.5711  -0.5614
    -0.5553  -0.5488  -0.5481  -0.5468  -0.5457  -0.5410  -0.5285  -0.5240
    -0.5207  -0.4935  -0.4920  -0.4912  -0.4796  -0.4791  -0.4600  -0.4279
    -0.4271  -0.4185  -0.4175  -0.3512  -0.3498  -0.3134  -0.3132  -0.2552
    -0.2547  -0.2539  -0.2393  -0.2270  -0.0009   0.0015   0.3458   0.3460
     0.4372   0.4406   0.6329   0.6485   0.6636   0.7934   0.7948   1.2261
     1.2264   1.2436   1.5053   1.5361   1.5364   1.8125   1.8186   1.8914
     1.8926   1.9184   1.9224   2.1480   2.1490   2.2369   2.2378   2.3160
     2.3758   2.3812   2.5403   2.6404   3.0754   3.0798   3.0830   3.0844
     3.1367   3.1383   3.4299   3.4306   3.7101   3.7160   3.8246   4.1259
     4.1662   4.1714   4.3879   4.4094   4.4674   4.4714   4.5620   4.6768
     4.6814   4.7957   4.7974   5.1006   5.1618   5.1732   5.3181   5.3593
     5.4319   5.5543   5.5597   5.5839   5.5855   5.6454   5.6491   5.7018
     5.8523   6.0547   6.2549   6.2765   6.3503   6.3891   6.3918   6.4035
     6.4052   6.5453   6.6338   6.6473   6.6582   6.8399   6.8796   6.9024
     6.9283   7.0072   7.1060

          k =-0.2500-0.1443-0.1111 (136898 PWs)   bands (ev):

   -18.5679  -6.6097  -6.4404  -5.8142  -5.5222  -5.4645  -5.4639  -4.9261
    -4.9257  -4.7946  -4.7932  -4.6385  -4.6088  -4.5464  -4.5131  -4.5120
    -4.4794  -4.4791  -4.3507  -4.3091  -4.3087  -4.2490  -4.2282  -4.2277
    -4.1255  -4.1253  -4.0893  -4.0891  -4.0888  -4.0622  -4.0407  -4.0403
    -3.9363  -3.9335  -3.9332  -3.9129  -3.8960  -3.8955  -3.8837  -3.8832
    -3.8705  -3.8401  -3.8399  -3.8394  -3.8393  -3.8074  -3.8066  -3.7892
    -3.7889  -3.7764  -3.7338  -3.7316  -3.7014  -3.6867  -3.6852  -3.6807
    -3.6806  -3.6063  -3.6061  -3.5717  -3.5688  -3.5680  -3.5009  -3.5007
    -3.4854  -3.4848  -3.4549  -3.4541  -3.4537  -3.4533  -3.2998  -3.2992
    -3.2760  -3.2737  -3.2691  -3.2530  -3.2524  -3.2271  -3.2266  -3.1770
    -3.1767  -3.1609  -3.1604  -3.1401  -3.0934  -3.0912  -3.0724  -3.0675
    -3.0669  -3.0266  -3.0260  -3.0195  -3.0187  -3.0031  -3.0024  -2.9634
    -2.9630  -2.9433  -2.9407  -2.9384  -2.9377  -2.9344  -2.8587  -2.8577
    -2.8566  -2.8278  -2.8268  -2.7718  -2.7646  -2.7375  -2.7358  -2.7247
    -2.7224  -2.7172  -2.6926  -2.6874  -2.6782  -2.6733  -2.6579  -2.6352
    -2.6340  -2.6255  -2.6133  -2.6120  -2.6024  -2.6008  -2.5981  -2.5898
    -2.5861  -2.5439  -2.5119  -2.5110  -2.4958  -2.4824  -2.4759  -2.4750
    -2.4683  -2.4676  -2.4662  -2.4363  -2.4360  -2.4350  -2.4264  -2.4255
    -2.4093  -2.3822  -2.3815  -2.3808  -2.3798  -2.3794  -2.3343  -2.3035
    -2.3027  -2.3022  -2.2956  -2.2867  -2.2740  -2.2735  -2.2569  -2.2565
    -2.2249  -2.2219  -2.2217  -2.2033  -2.2025  -2.2016  -2.1695  -2.1686
    -2.1294  -2.1261  -2.1199  -2.1179  -2.1175  -2.1118  -2.1108  -2.1088
    -2.1076  -2.1018  -2.1006  -2.0852  -2.0843  -1.9586  -1.9567  -1.9243
    -1.9186  -1.9179  -1.9123  -1.9121  -1.8961  -1.8953  -1.8928  -1.8912
    -1.8891  -1.8672  -1.8601  -1.8587  -1.8533  -1.8478  -1.8454  -1.8242
    -1.8238  -1.7957  -1.7945  -1.7650  -1.7628  -1.7530  -1.7443  -1.7269
    -1.7264  -1.7232  -1.7057  -1.6928  -1.6925  -1.6854  -1.6852  -1.6592
    -1.6582  -1.6418  -1.6410  -1.6088  -1.6085  -1.5993  -1.5493  -1.5483
    -1.5356  -1.5347  -1.5342  -1.5097  -1.5067  -1.4742  -1.4733  -1.4723
    -1.4392  -1.4297  -1.4283  -1.4129  -1.4125  -1.3878  -1.3850  -1.3846
    -1.3555  -1.3525  -1.3522  -1.2905  -1.2896  -1.2776  -1.2760  -1.2606
    -1.2596  -1.2472  -1.2467  -1.2286  -1.2161  -1.1895  -1.1875  -1.1767
    -1.1481  -1.1387  -1.1381  -1.1266  -1.1264  -1.1246  -1.1199  -1.1187
    -1.1052  -1.0761  -1.0746  -1.0652  -1.0626  -1.0611  -1.0605  -1.0389
    -1.0207  -1.0185  -0.9985  -0.9972  -0.9052  -0.8924  -0.8866  -0.8863
    -0.8830  -0.8790  -0.8763  -0.8570  -0.8521  -0.8364  -0.8352  -0.8220
    -0.8212  -0.8130  -0.7932  -0.7915  -0.7892  -0.7814  -0.7092  -0.7085
    -0.6863  -0.6746  -0.6706  -0.6661  -0.6637  -0.6620  -0.6615  -0.6531
    -0.6475  -0.6330  -0.6071  -0.6026  -0.5845  -0.5733  -0.5722  -0.5618
    -0.5588  -0.5489  -0.5481  -0.5464  -0.5457  -0.5376  -0.5285  -0.5242
    -0.5206  -0.4935  -0.4912  -0.4896  -0.4794  -0.4783  -0.4601  -0.4280
    -0.4274  -0.4186  -0.4176  -0.3505  -0.3501  -0.3138  -0.3128  -0.2554
    -0.2547  -0.2534  -0.2405  -0.2270  -0.0005   0.0024   0.3460   0.3460
     0.4376   0.4409   0.6319   0.6487   0.6637   0.7937   0.7948   1.2260
     1.2262   1.2446   1.5047   1.5358   1.5364   1.8135   1.8185   1.8913
     1.8916   1.9186   1.9223   2.1466   2.1491   2.2372   2.2377   2.3160
     2.3765   2.3809   2.5405   2.6394   3.0770   3.0792   3.0829   3.0840
     3.1353   3.1390   3.4299   3.4302   3.7101   3.7156   3.8238   4.1264
     4.1654   4.1706   4.3902   4.4097   4.4691   4.4700   4.5603   4.6794
     4.6810   4.7961   4.7977   5.0989   5.1688   5.1724   5.3193   5.3596
     5.4304   5.5555   5.5587   5.5839   5.5851   5.6473   5.6490   5.6993
     5.8526   6.0566   6.2480   6.2757   6.3479   6.3858   6.3923   6.4030
     6.4063   6.5463   6.6410   6.6468   6.6612   6.8395   6.8805   6.8997
     6.9267   7.0085   7.1029

          k = 0.2500 0.1443-0.1111 (136898 PWs)   bands (ev):

   -18.5679  -6.6097  -6.4404  -5.8142  -5.5222  -5.4645  -5.4639  -4.9261
    -4.9257  -4.7946  -4.7932  -4.6385  -4.6088  -4.5464  -4.5131  -4.5120
    -4.4794  -4.4791  -4.3507  -4.3091  -4.3087  -4.2490  -4.2282  -4.2276
    -4.1255  -4.1253  -4.0893  -4.0891  -4.0888  -4.0622  -4.0407  -4.0403
    -3.9363  -3.9335  -3.9332  -3.9129  -3.8960  -3.8955  -3.8837  -3.8832
    -3.8705  -3.8401  -3.8399  -3.8394  -3.8393  -3.8074  -3.8066  -3.7892
    -3.7889  -3.7764  -3.7338  -3.7316  -3.7014  -3.6867  -3.6852  -3.6807
    -3.6806  -3.6063  -3.6061  -3.5717  -3.5688  -3.5680  -3.5009  -3.5007
    -3.4854  -3.4848  -3.4549  -3.4541  -3.4537  -3.4533  -3.2998  -3.2992
    -3.2760  -3.2737  -3.2691  -3.2530  -3.2525  -3.2271  -3.2266  -3.1770
    -3.1767  -3.1609  -3.1604  -3.1401  -3.0934  -3.0912  -3.0724  -3.0675
    -3.0669  -3.0266  -3.0260  -3.0195  -3.0187  -3.0031  -3.0024  -2.9634
    -2.9630  -2.9433  -2.9407  -2.9384  -2.9377  -2.9344  -2.8587  -2.8577
    -2.8566  -2.8278  -2.8268  -2.7718  -2.7646  -2.7375  -2.7358  -2.7247
    -2.7224  -2.7172  -2.6926  -2.6874  -2.6782  -2.6733  -2.6579  -2.6351
    -2.6340  -2.6255  -2.6133  -2.6120  -2.6024  -2.6008  -2.5981  -2.5898
    -2.5861  -2.5439  -2.5119  -2.5110  -2.4958  -2.4824  -2.4759  -2.4750
    -2.4683  -2.4676  -2.4662  -2.4363  -2.4360  -2.4350  -2.4264  -2.4255
    -2.4093  -2.3822  -2.3815  -2.3808  -2.3798  -2.3794  -2.3344  -2.3035
    -2.3027  -2.3022  -2.2956  -2.2867  -2.2740  -2.2735  -2.2569  -2.2565
    -2.2249  -2.2219  -2.2217  -2.2033  -2.2025  -2.2016  -2.1695  -2.1686
    -2.1294  -2.1261  -2.1199  -2.1179  -2.1175  -2.1118  -2.1108  -2.1088
    -2.1076  -2.1018  -2.1006  -2.0852  -2.0843  -1.9586  -1.9567  -1.9243
    -1.9186  -1.9179  -1.9123  -1.9121  -1.8961  -1.8953  -1.8928  -1.8912
    -1.8891  -1.8672  -1.8601  -1.8587  -1.8533  -1.8478  -1.8454  -1.8242
    -1.8238  -1.7957  -1.7945  -1.7650  -1.7628  -1.7530  -1.7443  -1.7269
    -1.7264  -1.7232  -1.7057  -1.6928  -1.6925  -1.6854  -1.6852  -1.6592
    -1.6582  -1.6418  -1.6410  -1.6088  -1.6085  -1.5993  -1.5493  -1.5483
    -1.5356  -1.5347  -1.5342  -1.5097  -1.5066  -1.4742  -1.4733  -1.4723
    -1.4392  -1.4297  -1.4283  -1.4129  -1.4125  -1.3878  -1.3850  -1.3846
    -1.3555  -1.3525  -1.3522  -1.2905  -1.2896  -1.2776  -1.2760  -1.2606
    -1.2596  -1.2472  -1.2467  -1.2286  -1.2161  -1.1895  -1.1875  -1.1767
    -1.1481  -1.1387  -1.1381  -1.1266  -1.1264  -1.1246  -1.1199  -1.1187
    -1.1052  -1.0761  -1.0746  -1.0652  -1.0626  -1.0611  -1.0605  -1.0389
    -1.0207  -1.0185  -0.9985  -0.9972  -0.9052  -0.8923  -0.8866  -0.8863
    -0.8830  -0.8790  -0.8763  -0.8570  -0.8521  -0.8364  -0.8352  -0.8220
    -0.8212  -0.8130  -0.7932  -0.7915  -0.7892  -0.7813  -0.7092  -0.7085
    -0.6863  -0.6746  -0.6706  -0.6661  -0.6637  -0.6620  -0.6615  -0.6531
    -0.6475  -0.6330  -0.6071  -0.6026  -0.5845  -0.5733  -0.5722  -0.5618
    -0.5588  -0.5489  -0.5481  -0.5464  -0.5457  -0.5376  -0.5285  -0.5242
    -0.5206  -0.4935  -0.4912  -0.4896  -0.4793  -0.4783  -0.4601  -0.4280
    -0.4274  -0.4186  -0.4176  -0.3505  -0.3501  -0.3138  -0.3128  -0.2554
    -0.2547  -0.2534  -0.2405  -0.2270  -0.0005   0.0024   0.3460   0.3460
     0.4376   0.4409   0.6319   0.6487   0.6637   0.7937   0.7948   1.2260
     1.2262   1.2446   1.5047   1.5358   1.5364   1.8135   1.8185   1.8913
     1.8916   1.9186   1.9223   2.1466   2.1491   2.2372   2.2377   2.3160
     2.3765   2.3809   2.5405   2.6394   3.0770   3.0792   3.0829   3.0840
     3.1353   3.1390   3.4299   3.4302   3.7101   3.7156   3.8238   4.1264
     4.1654   4.1706   4.3902   4.4097   4.4691   4.4700   4.5603   4.6794
     4.6810   4.7961   4.7977   5.0989   5.1688   5.1724   5.3193   5.3596
     5.4304   5.5555   5.5587   5.5839   5.5851   5.6473   5.6490   5.6995
     5.8517   6.0587   6.2480   6.2766   6.3479   6.3859   6.3923   6.4031
     6.4063   6.5415   6.6413   6.6455   6.6555   6.8408   6.8822   6.9001
     6.9283   7.0103   7.1053

          k = 0.0000-0.2887 0.1111 (136898 PWs)   bands (ev):

   -18.5679  -6.6097  -6.4404  -5.8143  -5.5222  -5.4642  -5.4641  -4.9260
    -4.9258  -4.7942  -4.7937  -4.6385  -4.6087  -4.5465  -4.5130  -4.5122
    -4.4793  -4.4792  -4.3507  -4.3090  -4.3088  -4.2490  -4.2282  -4.2277
    -4.1255  -4.1253  -4.0893  -4.0890  -4.0889  -4.0621  -4.0406  -4.0404
    -3.9360  -3.9335  -3.9332  -3.9128  -3.8960  -3.8956  -3.8839  -3.8831
    -3.8703  -3.8402  -3.8399  -3.8394  -3.8392  -3.8072  -3.8069  -3.7892
    -3.7889  -3.7759  -3.7336  -3.7324  -3.7012  -3.6870  -3.6851  -3.6807
    -3.6806  -3.6064  -3.6061  -3.5714  -3.5690  -3.5680  -3.5010  -3.5006
    -3.4855  -3.4847  -3.4549  -3.4545  -3.4537  -3.4531  -3.3003  -3.2990
    -3.2756  -3.2740  -3.2692  -3.2530  -3.2525  -3.2272  -3.2267  -3.1773
    -3.1766  -3.1613  -3.1602  -3.1399  -3.0928  -3.0917  -3.0724  -3.0678
    -3.0667  -3.0270  -3.0260  -3.0192  -3.0188  -3.0035  -3.0020  -2.9636
    -2.9628  -2.9416  -2.9416  -2.9384  -2.9377  -2.9346  -2.8601  -2.8576
    -2.8564  -2.8279  -2.8267  -2.7675  -2.7655  -2.7392  -2.7364  -2.7248
    -2.7224  -2.7173  -2.6909  -2.6875  -2.6789  -2.6771  -2.6570  -2.6352
    -2.6339  -2.6240  -2.6132  -2.6112  -2.6021  -2.6008  -2.5978  -2.5898
    -2.5856  -2.5439  -2.5119  -2.5113  -2.4958  -2.4824  -2.4762  -2.4749
    -2.4684  -2.4674  -2.4662  -2.4367  -2.4359  -2.4355  -2.4263  -2.4254
    -2.4093  -2.3823  -2.3811  -2.3806  -2.3798  -2.3791  -2.3343  -2.3034
    -2.3028  -2.3021  -2.2956  -2.2867  -2.2744  -2.2738  -2.2567  -2.2567
    -2.2248  -2.2220  -2.2216  -2.2034  -2.2027  -2.2016  -2.1695  -2.1684
    -2.1294  -2.1262  -2.1201  -2.1180  -2.1173  -2.1119  -2.1108  -2.1085
    -2.1082  -2.1016  -2.1005  -2.0851  -2.0840  -1.9583  -1.9567  -1.9237
    -1.9187  -1.9178  -1.9123  -1.9123  -1.8960  -1.8954  -1.8922  -1.8914
    -1.8890  -1.8672  -1.8597  -1.8591  -1.8535  -1.8472  -1.8461  -1.8243
    -1.8239  -1.7957  -1.7950  -1.7639  -1.7633  -1.7526  -1.7444  -1.7270
    -1.7260  -1.7233  -1.7057  -1.6929  -1.6926  -1.6853  -1.6851  -1.6588
    -1.6584  -1.6424  -1.6410  -1.6094  -1.6085  -1.5990  -1.5494  -1.5488
    -1.5353  -1.5348  -1.5340  -1.5097  -1.5066  -1.4744  -1.4732  -1.4727
    -1.4387  -1.4293  -1.4287  -1.4131  -1.4124  -1.3875  -1.3850  -1.3845
    -1.3553  -1.3525  -1.3521  -1.2905  -1.2892  -1.2777  -1.2757  -1.2605
    -1.2603  -1.2472  -1.2465  -1.2285  -1.2160  -1.1895  -1.1878  -1.1766
    -1.1471  -1.1392  -1.1381  -1.1266  -1.1265  -1.1250  -1.1191  -1.1189
    -1.1052  -1.0760  -1.0753  -1.0665  -1.0639  -1.0609  -1.0608  -1.0384
    -1.0199  -1.0191  -0.9989  -0.9967  -0.9055  -0.8920  -0.8869  -0.8864
    -0.8831  -0.8787  -0.8762  -0.8548  -0.8520  -0.8375  -0.8353  -0.8219
    -0.8213  -0.8124  -0.7936  -0.7913  -0.7894  -0.7814  -0.7102  -0.7089
    -0.6841  -0.6748  -0.6705  -0.6668  -0.6630  -0.6621  -0.6615  -0.6545
    -0.6486  -0.6326  -0.6071  -0.5978  -0.5896  -0.5736  -0.5702  -0.5615
    -0.5596  -0.5495  -0.5480  -0.5464  -0.5456  -0.5364  -0.5285  -0.5242
    -0.5213  -0.4935  -0.4918  -0.4887  -0.4794  -0.4781  -0.4601  -0.4279
    -0.4276  -0.4186  -0.4181  -0.3505  -0.3497  -0.3136  -0.3130  -0.2552
    -0.2545  -0.2538  -0.2417  -0.2270  -0.0013   0.0047   0.3458   0.3460
     0.4368   0.4417   0.6308   0.6490   0.6634   0.7932   0.7948   1.2261
     1.2264   1.2437   1.5047   1.5361   1.5364   1.8128   1.8193   1.8911
     1.8930   1.9181   1.9225   2.1476   2.1492   2.2369   2.2378   2.3162
     2.3759   2.3809   2.5398   2.6399   3.0748   3.0812   3.0826   3.0845
     3.1365   3.1388   3.4297   3.4307   3.7101   3.7160   3.8245   4.1262
     4.1659   4.1711   4.3881   4.4091   4.4686   4.4704   4.5614   4.6775
     4.6811   4.7953   4.7980   5.0996   5.1657   5.1718   5.3228   5.3586
     5.4263   5.5551   5.5592   5.5831   5.5857   5.6431   5.6513   5.7050
     5.8515   6.0691   6.2532   6.2681   6.3384   6.3882   6.3919   6.4015
     6.4065   6.5412   6.6355   6.6476   6.6600   6.8494   6.8829   6.9027
     6.9191   7.0075   7.0944

          k = 0.0000 0.2887 0.1111 (136898 PWs)   bands (ev):

   -18.5679  -6.6097  -6.4404  -5.8143  -5.5222  -5.4642  -5.4641  -4.9260
    -4.9258  -4.7942  -4.7937  -4.6385  -4.6087  -4.5465  -4.5130  -4.5122
    -4.4793  -4.4792  -4.3507  -4.3090  -4.3088  -4.2490  -4.2282  -4.2277
    -4.1255  -4.1253  -4.0893  -4.0890  -4.0889  -4.0621  -4.0406  -4.0404
    -3.9360  -3.9335  -3.9332  -3.9128  -3.8960  -3.8955  -3.8839  -3.8831
    -3.8703  -3.8402  -3.8399  -3.8394  -3.8392  -3.8072  -3.8069  -3.7892
    -3.7889  -3.7759  -3.7336  -3.7324  -3.7012  -3.6870  -3.6851  -3.6807
    -3.6806  -3.6064  -3.6061  -3.5714  -3.5690  -3.5681  -3.5010  -3.5006
    -3.4855  -3.4847  -3.4549  -3.4545  -3.4537  -3.4531  -3.3003  -3.2990
    -3.2756  -3.2740  -3.2692  -3.2530  -3.2525  -3.2272  -3.2267  -3.1773
    -3.1766  -3.1613  -3.1602  -3.1399  -3.0928  -3.0917  -3.0724  -3.0678
    -3.0667  -3.0270  -3.0260  -3.0192  -3.0188  -3.0035  -3.0020  -2.9636
    -2.9628  -2.9416  -2.9416  -2.9384  -2.9377  -2.9346  -2.8601  -2.8576
    -2.8564  -2.8279  -2.8267  -2.7675  -2.7655  -2.7392  -2.7364  -2.7248
    -2.7224  -2.7173  -2.6909  -2.6875  -2.6789  -2.6771  -2.6570  -2.6352
    -2.6339  -2.6240  -2.6132  -2.6112  -2.6021  -2.6008  -2.5978  -2.5898
    -2.5856  -2.5439  -2.5119  -2.5113  -2.4958  -2.4824  -2.4762  -2.4749
    -2.4684  -2.4674  -2.4662  -2.4367  -2.4359  -2.4355  -2.4263  -2.4254
    -2.4093  -2.3823  -2.3811  -2.3806  -2.3798  -2.3791  -2.3343  -2.3034
    -2.3028  -2.3021  -2.2957  -2.2867  -2.2744  -2.2738  -2.2567  -2.2567
    -2.2248  -2.2219  -2.2216  -2.2034  -2.2027  -2.2016  -2.1695  -2.1684
    -2.1294  -2.1262  -2.1201  -2.1180  -2.1173  -2.1119  -2.1109  -2.1085
    -2.1082  -2.1016  -2.1005  -2.0851  -2.0840  -1.9583  -1.9567  -1.9237
    -1.9187  -1.9178  -1.9123  -1.9123  -1.8960  -1.8954  -1.8922  -1.8914
    -1.8890  -1.8672  -1.8597  -1.8591  -1.8535  -1.8472  -1.8461  -1.8243
    -1.8239  -1.7957  -1.7950  -1.7639  -1.7633  -1.7526  -1.7444  -1.7270
    -1.7260  -1.7233  -1.7057  -1.6929  -1.6926  -1.6853  -1.6851  -1.6588
    -1.6584  -1.6424  -1.6410  -1.6094  -1.6085  -1.5990  -1.5494  -1.5488
    -1.5353  -1.5348  -1.5340  -1.5097  -1.5066  -1.4744  -1.4732  -1.4727
    -1.4387  -1.4293  -1.4287  -1.4131  -1.4124  -1.3875  -1.3850  -1.3845
    -1.3553  -1.3525  -1.3521  -1.2905  -1.2892  -1.2777  -1.2757  -1.2605
    -1.2603  -1.2472  -1.2465  -1.2285  -1.2160  -1.1894  -1.1878  -1.1766
    -1.1471  -1.1392  -1.1381  -1.1266  -1.1265  -1.1250  -1.1191  -1.1189
    -1.1052  -1.0760  -1.0753  -1.0665  -1.0639  -1.0609  -1.0608  -1.0384
    -1.0199  -1.0191  -0.9989  -0.9967  -0.9055  -0.8919  -0.8869  -0.8864
    -0.8831  -0.8787  -0.8762  -0.8548  -0.8520  -0.8375  -0.8353  -0.8219
    -0.8213  -0.8124  -0.7936  -0.7913  -0.7894  -0.7814  -0.7102  -0.7089
    -0.6841  -0.6748  -0.6705  -0.6668  -0.6630  -0.6621  -0.6615  -0.6545
    -0.6486  -0.6326  -0.6071  -0.5978  -0.5896  -0.5736  -0.5702  -0.5615
    -0.5596  -0.5495  -0.5480  -0.5464  -0.5456  -0.5364  -0.5285  -0.5242
    -0.5213  -0.4935  -0.4918  -0.4887  -0.4794  -0.4781  -0.4601  -0.4279
    -0.4276  -0.4186  -0.4180  -0.3505  -0.3497  -0.3136  -0.3130  -0.2552
    -0.2545  -0.2538  -0.2417  -0.2270  -0.0013   0.0047   0.3458   0.3460
     0.4368   0.4417   0.6308   0.6490   0.6634   0.7932   0.7948   1.2261
     1.2264   1.2437   1.5047   1.5361   1.5364   1.8128   1.8193   1.8911
     1.8930   1.9181   1.9225   2.1476   2.1492   2.2369   2.2378   2.3162
     2.3759   2.3809   2.5398   2.6399   3.0748   3.0812   3.0826   3.0845
     3.1365   3.1388   3.4297   3.4307   3.7101   3.7160   3.8245   4.1262
     4.1659   4.1711   4.3881   4.4091   4.4686   4.4704   4.5614   4.6775
     4.6811   4.7953   4.7980   5.0996   5.1657   5.1718   5.3229   5.3586
     5.4262   5.5551   5.5592   5.5831   5.5857   5.6430   5.6513   5.7048
     5.8534   6.0665   6.2533   6.2650   6.3381   6.3882   6.3919   6.4013
     6.4065   6.5495   6.6356   6.6476   6.6628   6.8456   6.8830   6.8978
     6.9191   7.0153   7.1011

     the Fermi energy is     1.3697 ev

!    total energy              =   -6604.43401374 Ry
     Harris-Foulkes estimate   =   -6604.43401374 Ry
     estimated scf accuracy    <          2.9E-09 Ry

     The total energy is the sum of the following terms:

     one-electron contribution =  -48607.84763309 Ry
     hartree contribution      =   24803.47335406 Ry
     xc contribution           =   -3204.97398066 Ry
     ewald contribution        =   20404.91134792 Ry
     smearing contrib. (-TS)   =       0.00289802 Ry

     convergence has been achieved in  25 iterations

     Writing output data file 3418981.save

     init_run     :    143.05s CPU    155.70s WALL (       1 calls)
     electrons    :   8839.79s CPU   9544.37s WALL (       1 calls)

     Called by init_run:
     wfcinit      :    109.04s CPU    120.85s WALL (       1 calls)
     potinit      :      9.66s CPU     10.13s WALL (       1 calls)

     Called by electrons:
     c_bands      :   7277.66s CPU   7845.70s WALL (      26 calls)
     sum_band     :   1132.70s CPU   1241.77s WALL (      26 calls)
     v_of_rho     :    116.29s CPU    128.13s WALL (      26 calls)
     newd         :    323.91s CPU    328.62s WALL (      26 calls)
     mix_rho      :      3.16s CPU      3.45s WALL (      26 calls)
     vdW_energy   :      9.64s CPU     11.76s WALL (      26 calls)
     vdW_ffts     :     58.74s CPU     64.19s WALL (      52 calls)
     vdW_v        :     14.66s CPU     15.61s WALL (      26 calls)

     Called by c_bands:
     init_us_2    :     22.65s CPU     23.04s WALL (     636 calls)
     cegterg      :   7198.68s CPU   7759.93s WALL (     312 calls)

     Called by *egterg:
     h_psi        :   3078.39s CPU   3543.11s WALL (    1666 calls)
     s_psi        :    461.76s CPU    465.13s WALL (    1666 calls)
     g_psi        :      8.54s CPU      8.60s WALL (    1342 calls)
     cdiaghg      :   2130.06s CPU   2135.18s WALL (    1642 calls)

     Called by h_psi:
     add_vuspsi   :    464.58s CPU    468.34s WALL (    1666 calls)

     General routines
     calbec       :    683.07s CPU    686.08s WALL (    1978 calls)
     fft          :    115.09s CPU    124.21s WALL (    1716 calls)
     ffts         :      1.43s CPU      1.65s WALL (      52 calls)
     fftw         :   2025.53s CPU   2453.30s WALL (  750054 calls)
     interpolate  :      4.44s CPU      5.14s WALL (      52 calls)
     davcio       :      0.01s CPU      0.44s WALL (      12 calls)

     Parallel routines
     fft_scatter  :   1317.32s CPU   1600.43s WALL (  751822 calls)

     PWSCF        :     2h29m CPU        2h41m WALL


   This run was terminated on:   4:30:15  24Aug2015            

=------------------------------------------------------------------------------=
   JOB DONE.
=------------------------------------------------------------------------------=
