
     Program PWSCF v.5.1.2 starts on  1Jul2015 at  1:27:27 

     This program is part of the open-source Quantum ESPRESSO suite
     for quantum simulation of materials; please cite
         "P. Giannozzi et al., J. Phys.:Condens. Matter 21 395502 (2009);
          URL http://www.quantum-espresso.org", 
     in publications or presentations arising from this work. More details at
     http://www.quantum-espresso.org/quote

     Parallel version (MPI), running on    32 processors
     R & G space division:  proc/nbgrp/npool/nimage =      32
     Reading input from bridge.O1.Au5455.d.2.5.phi.0.psi.0.in
Warning: card &IONS ignored
Warning: card / ignored
Warning: card &CELL ignored
Warning: card / ignored

     Current dimensions of program PWSCF are:
     Max number of different atomic species (ntypx) = 10
     Max number of k-points (npk) =  40000
     Max angular momentum in pseudopotentials (lmaxx) =  3

     IMPORTANT: XC functional enforced from input :
     Exchange-correlation      = VDW-DF ( 1  4  4  0 1 0)
     Any further DFT definition will be discarded
     Please, verify this is what you really want


     Subspace diagonalization in iterative solution of the eigenvalue problem:
     a serial algorithm will be used


     Parallelization info
     --------------------
     sticks:   dense  smooth     PW     G-vecs:    dense   smooth      PW
     Min         445     223     58                96775    34191    4534
     Max         446     224     59                96790    34246    4540
     Sum       14269    7147   1867              3097177  1095093  145167


     Title: 
     bridge.O1.Au5455.d.2.5.phi.0.psi.0                                         


     bravais-lattice index     =            4
     lattice parameter (alat)  =      22.7436  a.u.
     unit-cell volume          =   22924.1508 (a.u.)^3
     number of atoms/cell      =           67
     number of atomic types    =            3
     number of electrons       =       712.00
     number of Kohn-Sham states=          427
     kinetic-energy cutoff     =      50.0000  Ry
     charge density cutoff     =     400.0000  Ry
     convergence threshold     =      1.0E-08
     mixing beta               =       0.7000
     number of iterations used =            8  plain     mixing
     Exchange-correlation      = VDW-DF ( 1  4  4  0 1 0)

     celldm(1)=  22.743643  celldm(2)=   0.000000  celldm(3)=   2.250000
     celldm(4)=   0.000000  celldm(5)=   0.000000  celldm(6)=   0.000000

     crystal axes: (cart. coord. in units of alat)
               a(1) = (   1.000000   0.000000   0.000000 )  
               a(2) = (  -0.500000   0.866025   0.000000 )  
               a(3) = (   0.000000   0.000000   2.250000 )  

     reciprocal axes: (cart. coord. in units 2 pi/alat)
               b(1) = (  1.000000  0.577350 -0.000000 )  
               b(2) = (  0.000000  1.154701  0.000000 )  
               b(3) = (  0.000000 -0.000000  0.444444 )  


     PseudoPot. # 1 for Au read from file:
     /home/scc/andrejb/qe/pseudo/Au.pbe-nd-van.UPF
     MD5 check sum: 458681b50f36d87ef23c61b04bba420a
     Pseudo is Ultrasoft + core correction, Zval = 11.0
     Generated by new atomic code, or converted to UPF format
     Using radial grid of  985 points,  3 beta functions with: 
                l(1) =   1
                l(2) =   2
                l(3) =   2
     Q(r) pseudized with  8 coefficients,  rinner =    1.100   1.100   1.100
                                                       1.100   1.100

     PseudoPot. # 2 for H  read from file:
     /home/scc/andrejb/qe/pseudo/H.pbe-van_ak.UPF
     MD5 check sum: 403db7282739603aa925980fa9b8608d
     Pseudo is Ultrasoft, Zval =  1.0
     Generated by new atomic code, or converted to UPF format
     Using radial grid of  615 points,  1 beta functions with: 
                l(1) =   0
     Q(r) pseudized with  8 coefficients,  rinner =    0.800

     PseudoPot. # 3 for O  read from file:
     /home/scc/andrejb/qe/pseudo/O.pbe-van_ak.UPF
     MD5 check sum: 4b8c549914a63cae506c6ff22b5af4fe
     Pseudo is Ultrasoft, Zval =  6.0
     Generated by new atomic code, or converted to UPF format
     Using radial grid of  737 points,  4 beta functions with: 
                l(1) =   0
                l(2) =   0
                l(3) =   1
                l(4) =   1
     Q(r) pseudized with  8 coefficients,  rinner =    0.800   0.800   0.800


     vdW kernel table read from file vdW_kernel_table
     MD5 check sum: 48e77a2e26edf626eeb0eaa751ad5cac

     atomic species   valence    mass     pseudopotential
        Au            11.00   196.96657     Au( 1.00)
        H              1.00     1.01000     H ( 1.00)
        O              6.00    16.00000     O ( 1.00)

     No symmetry found



   Cartesian axes

     site n.     atom                  positions (alat units)
         1           O   tau(   1) = (   0.2915728   0.2885783   0.8207383  )
         2           H   tau(   2) = (   0.2416394   0.2470306   0.8689919  )
         3           H   tau(   3) = (   0.3399922   0.3288851   0.8714990  )
         4           Au  tau(   4) = (   0.3540481   0.6132292   0.0000000  )
         5           Au  tau(   5) = (   0.4790062   0.3967954   0.0000000  )
         6           Au  tau(   6) = (   0.6039644   0.1803616   0.0000000  )
         7           Au  tau(   7) = (   0.7289225  -0.0360723   0.0000000  )
         8           Au  tau(   8) = (   0.1041318   0.6132292   0.0000000  )
         9           Au  tau(   9) = (   0.2290899   0.3967954   0.0000000  )
        10           Au  tau(  10) = (   0.3540481   0.1803616   0.0000000  )
        11           Au  tau(  11) = (   0.4790062  -0.0360723   0.0000000  )
        12           Au  tau(  12) = (  -0.1457845   0.6132292   0.0000000  )
        13           Au  tau(  13) = (  -0.0208264   0.3967954   0.0000000  )
        14           Au  tau(  14) = (   0.1041318   0.1803616   0.0000000  )
        15           Au  tau(  15) = (   0.2290899  -0.0360723   0.0000000  )
        16           Au  tau(  16) = (  -0.3957008   0.6132292   0.0000000  )
        17           Au  tau(  17) = (  -0.2707426   0.3967954   0.0000000  )
        18           Au  tau(  18) = (  -0.1457845   0.1803616   0.0000000  )
        19           Au  tau(  19) = (  -0.0208264  -0.0360723   0.0000000  )
        20           Au  tau(  20) = (   0.4790062   0.6853738   0.2040557  )
        21           Au  tau(  21) = (   0.6039644   0.4689400   0.2040557  )
        22           Au  tau(  22) = (   0.7289225   0.2525061   0.2040557  )
        23           Au  tau(  23) = (   0.8538806   0.0360723   0.2040557  )
        24           Au  tau(  24) = (   0.2290899   0.6853738   0.2040557  )
        25           Au  tau(  25) = (   0.3540481   0.4689400   0.2040557  )
        26           Au  tau(  26) = (   0.4790062   0.2525061   0.2040557  )
        27           Au  tau(  27) = (   0.6039644   0.0360723   0.2040557  )
        28           Au  tau(  28) = (  -0.0208264   0.6853738   0.2040557  )
        29           Au  tau(  29) = (   0.1041318   0.4689400   0.2040557  )
        30           Au  tau(  30) = (   0.2290899   0.2525061   0.2040557  )
        31           Au  tau(  31) = (   0.3540481   0.0360723   0.2040557  )
        32           Au  tau(  32) = (  -0.2707426   0.6853738   0.2040557  )
        33           Au  tau(  33) = (  -0.1457845   0.4689400   0.2040557  )
        34           Au  tau(  34) = (  -0.0208264   0.2525061   0.2040557  )
        35           Au  tau(  35) = (   0.1041318   0.0360723   0.2040557  )
        36           Au  tau(  36) = (   0.3541162   0.7576593   0.4066483  )
        37           Au  tau(  37) = (   0.4791000   0.5411421   0.4066695  )
        38           Au  tau(  38) = (   0.6040570   0.3246862   0.4066617  )
        39           Au  tau(  39) = (   0.7290270   0.1081684   0.4066529  )
        40           Au  tau(  40) = (   0.1041162   0.7576236   0.4066247  )
        41           Au  tau(  41) = (   0.2291001   0.5411063   0.4066455  )
        42           Au  tau(  42) = (   0.3540567   0.3246505   0.4066380  )
        43           Au  tau(  43) = (   0.4790276   0.1081324   0.4066292  )
        44           Au  tau(  44) = (  -0.1458201   0.7576104   0.4066224  )
        45           Au  tau(  45) = (  -0.0208365   0.5410930   0.4066438  )
        46           Au  tau(  46) = (   0.1041202   0.3246372   0.4066359  )
        47           Au  tau(  47) = (   0.2290908   0.1081193   0.4066273  )
        48           Au  tau(  48) = (  -0.3958167   0.7575791   0.4065812  )
        49           Au  tau(  49) = (  -0.2708328   0.5410617   0.4066025  )
        50           Au  tau(  50) = (  -0.1458763   0.3246061   0.4065947  )
        51           Au  tau(  51) = (  -0.0209056   0.1080882   0.4065858  )
        52           Au  tau(  52) = (   0.3541085   0.6133344   0.6129762  )
        53           Au  tau(  53) = (   0.4790780   0.3968269   0.6129968  )
        54           Au  tau(  54) = (   0.6040356   0.1803811   0.6129859  )
        55           Au  tau(  55) = (   0.7290165  -0.0361221   0.6129385  )
        56           Au  tau(  56) = (   0.1041243   0.6133091   0.6130022  )
        57           Au  tau(  57) = (   0.2290941   0.3968013   0.6130241  )
        58           Au  tau(  58) = (   0.3540515   0.1803552   0.6130121  )
        59           Au  tau(  59) = (   0.4790323  -0.0361475   0.6129659  )
        60           Au  tau(  60) = (  -0.1458030   0.6133014   0.6129980  )
        61           Au  tau(  61) = (  -0.0208339   0.3967936   0.6130188  )
        62           Au  tau(  62) = (   0.1041239   0.1803477   0.6130083  )
        63           Au  tau(  63) = (   0.2291046  -0.0361554   0.6129607  )
        64           Au  tau(  64) = (  -0.3957908   0.6132739   0.6129471  )
        65           Au  tau(  65) = (  -0.2708208   0.3967658   0.6129688  )
        66           Au  tau(  66) = (  -0.1458636   0.1803200   0.6129569  )
        67           Au  tau(  67) = (  -0.0208823  -0.0361826   0.6129110  )

     number of k points=    12  Marzari-Vanderbilt smearing, width (Ry)=  0.0200
                       cart. coord. in units 2pi/alat
        k(    1) = (   0.2500000   0.4330127   0.1111111), wk =   0.1666667
        k(    2) = (   0.2500000  -0.1443376   0.1111111), wk =   0.1666667
        k(    3) = (  -0.2500000  -0.4330127   0.1111111), wk =   0.1666667
        k(    4) = (  -0.2500000   0.4330127  -0.1111111), wk =   0.1666667
        k(    5) = (   0.2500000  -0.4330127  -0.1111111), wk =   0.1666667
        k(    6) = (   0.5000000   0.0000000   0.1111111), wk =   0.1666667
        k(    7) = (  -0.5000000   0.0000000   0.1111111), wk =   0.1666667
        k(    8) = (  -0.2500000   0.1443376   0.1111111), wk =   0.1666667
        k(    9) = (  -0.2500000  -0.1443376  -0.1111111), wk =   0.1666667
        k(   10) = (   0.2500000   0.1443376  -0.1111111), wk =   0.1666667
        k(   11) = (   0.0000000  -0.2886751   0.1111111), wk =   0.1666667
        k(   12) = (   0.0000000   0.2886751   0.1111111), wk =   0.1666667

     Dense  grid:  3097177 G-vectors     FFT dimensions: ( 150, 150, 360)

     Smooth grid:  1095093 G-vectors     FFT dimensions: ( 108, 108, 240)

     Largest allocated arrays     est. size (Mb)     dimensions
        Kohn-Sham Wavefunctions        28.01 Mb     (    4299,  427)
        NL pseudopotentials            55.23 Mb     (    4299,  842)
        Each V/rho on FFT grid          4.12 Mb     (  270000)
        Each G-vector array             0.74 Mb     (   96788)
        G-vector shells                 0.16 Mb     (   21404)
     Largest temporary arrays     est. size (Mb)     dimensions
        Auxiliary wavefunctions       112.04 Mb     (    4299, 1708)
        Each subspace H/S matrix       44.51 Mb     (    1708, 1708)
        Each <psi_i|beta_j> matrix      5.49 Mb     (     842,  427)
        Arrays for rho mixing          32.96 Mb     (  270000,    8)

     Initial potential from superposition of free atoms
     Check: negative starting charge=   -1.730294

     starting charge  711.25682, renormalised to  712.00000

     negative rho (up, down):  1.732E+00 0.000E+00


     ************************************************************************
     *
     * You are using vdW-DF for exchange-correlation in this calculation.
     * Please cite the following three references that made this development
     * possible:
     *
     *   M. Dion, H. Rydberg, E. Schroder, D. C. Langreth, and
     *   B. I. Lundqvist, Phys. Rev. Lett. 92, 246401 (2004).
     *
     *   T. Thonhauser, V. R. Cooper, S. Li, A. Puzder, P. Hyldgaard, and
     *   D. C. Langreth, Phys. Rev. B 76, 125112 (2007).
     *
     *   G. Roman-Perez and J. M. Soler, Phys. Rev. Lett. 103, 096102 (2009).
     *
     *
     * If you are using vdW-DF2, please also cite:
     *
     *   K. Lee, E. D. Murray, L. Kong, B. I. Lundqvist, and
     *   D. C. Langreth, Phys. Rev. B 82, 081101(R) (2010).
     *
     *
     * If you are calculating the stress with vdW-DF, please also cite:
     *
     *   R. Sabatini, E. Kucukbenli, B. Kolb, T. Thonhauser, and
     *   S. de Gironcoli, J. Phys.: Condens. Matter 24, 424209 (2012).
     *
     ************************************************************************

     Carrying out vdW-DF run using the following parameters:

     Nqs =      20    Nr_points =    1024   r_max =   100.000
     q_mesh =
               0.00001000     0.04494208     0.09755937     0.15916263
               0.23128650     0.31572767     0.41458969     0.53033537
               0.66584808     0.82450364     1.01025438     1.22772762
               1.48234092     1.78043706     2.12944203     2.53805004
               3.01644009     3.57652955     4.23227104     5.00000000

     Gradients computed in reciprocal space

     ************************************************************************


     Starting wfc are  582 randomized atomic wfcs

     total cpu time spent up to now is      217.2 secs

     Self-consistent Calculation

     iteration #  1     ecut=    50.00 Ry     beta=0.70
     Davidson diagonalization with overlap
     ethr =  1.00E-02,  avg # of iterations =  3.0

     Threshold (ethr) on eigenvalues was too large:
     Diagonalizing with lowered threshold

     Davidson diagonalization with overlap
     ethr =  3.58E-04,  avg # of iterations =  4.4

     negative rho (up, down):  1.728E+00 0.000E+00

     total cpu time spent up to now is     1066.4 secs

     total energy              =   -6602.74071331 Ry
     Harris-Foulkes estimate   =   -6605.04792065 Ry
     estimated scf accuracy    <       2.88473583 Ry

     iteration #  2     ecut=    50.00 Ry     beta=0.70
     Davidson diagonalization with overlap
     ethr =  4.05E-04,  avg # of iterations = 11.1

     negative rho (up, down):  1.725E+00 0.000E+00

     total cpu time spent up to now is     2333.1 secs

     total energy              =   -6595.75119012 Ry
     Harris-Foulkes estimate   =   -6610.42844470 Ry
     estimated scf accuracy    <      85.56938589 Ry

     iteration #  3     ecut=    50.00 Ry     beta=0.70
     Davidson diagonalization with overlap
     ethr =  4.05E-04,  avg # of iterations =  6.0

     negative rho (up, down):  1.733E+00 0.000E+00

     total cpu time spent up to now is     3172.4 secs

     total energy              =   -6603.05787539 Ry
     Harris-Foulkes estimate   =   -6605.04665720 Ry
     estimated scf accuracy    <       9.39339730 Ry

     iteration #  4     ecut=    50.00 Ry     beta=0.70
     Davidson diagonalization with overlap
     ethr =  4.05E-04,  avg # of iterations =  6.5

     negative rho (up, down):  1.737E+00 0.000E+00

     total cpu time spent up to now is     3670.5 secs

     total energy              =   -6602.90459008 Ry
     Harris-Foulkes estimate   =   -6605.69747541 Ry
     estimated scf accuracy    <      32.36161915 Ry

     iteration #  5     ecut=    50.00 Ry     beta=0.70
     Davidson diagonalization with overlap
     ethr =  4.05E-04,  avg # of iterations =  6.7

     negative rho (up, down):  1.747E+00 0.000E+00

     total cpu time spent up to now is     4186.6 secs

     total energy              =   -6604.36688996 Ry
     Harris-Foulkes estimate   =   -6604.55247385 Ry
     estimated scf accuracy    <       0.83997554 Ry

     iteration #  6     ecut=    50.00 Ry     beta=0.70
     Davidson diagonalization with overlap
     ethr =  1.18E-04,  avg # of iterations =  4.7

     negative rho (up, down):  1.750E+00 0.000E+00

     total cpu time spent up to now is     4651.9 secs

     total energy              =   -6604.40732097 Ry
     Harris-Foulkes estimate   =   -6604.46573782 Ry
     estimated scf accuracy    <       0.18943410 Ry

     iteration #  7     ecut=    50.00 Ry     beta=0.70
     Davidson diagonalization with overlap
     ethr =  2.66E-05,  avg # of iterations =  8.4

     negative rho (up, down):  1.753E+00 0.000E+00

     total cpu time spent up to now is     5172.4 secs

     total energy              =   -6604.42293812 Ry
     Harris-Foulkes estimate   =   -6604.44546488 Ry
     estimated scf accuracy    <       0.08764972 Ry

     iteration #  8     ecut=    50.00 Ry     beta=0.70
     Davidson diagonalization with overlap
     ethr =  1.23E-05,  avg # of iterations =  8.8

     negative rho (up, down):  1.755E+00 0.000E+00

     total cpu time spent up to now is     5674.3 secs

     total energy              =   -6604.42436813 Ry
     Harris-Foulkes estimate   =   -6604.43862009 Ry
     estimated scf accuracy    <       0.04839461 Ry

     iteration #  9     ecut=    50.00 Ry     beta=0.70
     Davidson diagonalization with overlap
     c_bands:  1 eigenvalues not converged
     ethr =  6.80E-06,  avg # of iterations = 12.2

     negative rho (up, down):  1.755E+00 0.000E+00

     total cpu time spent up to now is     6258.6 secs

     total energy              =   -6604.42805270 Ry
     Harris-Foulkes estimate   =   -6604.43229025 Ry
     estimated scf accuracy    <       0.01137766 Ry

     iteration # 10     ecut=    50.00 Ry     beta=0.70
     Davidson diagonalization with overlap
     ethr =  1.60E-06,  avg # of iterations =  7.9

     negative rho (up, down):  1.756E+00 0.000E+00

     total cpu time spent up to now is     6797.0 secs

     total energy              =   -6604.42955291 Ry
     Harris-Foulkes estimate   =   -6604.43097547 Ry
     estimated scf accuracy    <       0.00491256 Ry

     iteration # 11     ecut=    50.00 Ry     beta=0.70
     Davidson diagonalization with overlap
     ethr =  6.90E-07,  avg # of iterations =  5.5

     negative rho (up, down):  1.757E+00 0.000E+00

     total cpu time spent up to now is     7226.6 secs

     total energy              =   -6604.43010757 Ry
     Harris-Foulkes estimate   =   -6604.43049371 Ry
     estimated scf accuracy    <       0.00155026 Ry

     iteration # 12     ecut=    50.00 Ry     beta=0.70
     Davidson diagonalization with overlap
     ethr =  2.18E-07,  avg # of iterations =  3.3

     negative rho (up, down):  1.757E+00 0.000E+00

     total cpu time spent up to now is     7603.3 secs

     total energy              =   -6604.43025912 Ry
     Harris-Foulkes estimate   =   -6604.43034340 Ry
     estimated scf accuracy    <       0.00024658 Ry

     iteration # 13     ecut=    50.00 Ry     beta=0.70
     Davidson diagonalization with overlap
     ethr =  3.46E-08,  avg # of iterations =  5.3

     negative rho (up, down):  1.757E+00 0.000E+00

     total cpu time spent up to now is     8080.9 secs

     total energy              =   -6604.43027012 Ry
     Harris-Foulkes estimate   =   -6604.43032232 Ry
     estimated scf accuracy    <       0.00017813 Ry

     iteration # 14     ecut=    50.00 Ry     beta=0.70
     Davidson diagonalization with overlap
     ethr =  2.50E-08,  avg # of iterations =  2.0

     negative rho (up, down):  1.757E+00 0.000E+00

     total cpu time spent up to now is     8427.5 secs

     total energy              =   -6604.43028317 Ry
     Harris-Foulkes estimate   =   -6604.43031477 Ry
     estimated scf accuracy    <       0.00021995 Ry

     iteration # 15     ecut=    50.00 Ry     beta=0.70
     Davidson diagonalization with overlap
     ethr =  2.50E-08,  avg # of iterations =  1.0

     negative rho (up, down):  1.757E+00 0.000E+00

     total cpu time spent up to now is     8757.8 secs

     total energy              =   -6604.43029889 Ry
     Harris-Foulkes estimate   =   -6604.43030194 Ry
     estimated scf accuracy    <       0.00001279 Ry

     iteration # 16     ecut=    50.00 Ry     beta=0.70
     Davidson diagonalization with overlap
     ethr =  1.80E-09,  avg # of iterations =  3.0

     negative rho (up, down):  1.757E+00 0.000E+00

     total cpu time spent up to now is     9168.8 secs

     total energy              =   -6604.43029857 Ry
     Harris-Foulkes estimate   =   -6604.43030300 Ry
     estimated scf accuracy    <       0.00002334 Ry

     iteration # 17     ecut=    50.00 Ry     beta=0.70
     Davidson diagonalization with overlap
     ethr =  1.80E-09,  avg # of iterations =  2.0

     negative rho (up, down):  1.757E+00 0.000E+00

     total cpu time spent up to now is     9540.6 secs

     total energy              =   -6604.43030045 Ry
     Harris-Foulkes estimate   =   -6604.43030087 Ry
     estimated scf accuracy    <       0.00000113 Ry

     iteration # 18     ecut=    50.00 Ry     beta=0.70
     Davidson diagonalization with overlap
     ethr =  1.58E-10,  avg # of iterations =  3.0

     negative rho (up, down):  1.757E+00 0.000E+00

     total cpu time spent up to now is     9990.5 secs

     total energy              =   -6604.43030053 Ry
     Harris-Foulkes estimate   =   -6604.43030080 Ry
     estimated scf accuracy    <       0.00000097 Ry

     iteration # 19     ecut=    50.00 Ry     beta=0.70
     Davidson diagonalization with overlap
     ethr =  1.36E-10,  avg # of iterations =  3.0

     negative rho (up, down):  1.757E+00 0.000E+00

     total cpu time spent up to now is    10374.7 secs

     total energy              =   -6604.43030062 Ry
     Harris-Foulkes estimate   =   -6604.43030065 Ry
     estimated scf accuracy    <       0.00000006 Ry

     iteration # 20     ecut=    50.00 Ry     beta=0.70
     Davidson diagonalization with overlap
     ethr =  9.11E-12,  avg # of iterations =  3.0

     negative rho (up, down):  1.757E+00 0.000E+00

     total cpu time spent up to now is    10876.6 secs

     total energy              =   -6604.43030061 Ry
     Harris-Foulkes estimate   =   -6604.43030065 Ry
     estimated scf accuracy    <       0.00000011 Ry

     iteration # 21     ecut=    50.00 Ry     beta=0.70
     Davidson diagonalization with overlap
     ethr =  9.11E-12,  avg # of iterations =  2.0

     negative rho (up, down):  1.757E+00 0.000E+00

     total cpu time spent up to now is    11294.7 secs

     total energy              =   -6604.43030062 Ry
     Harris-Foulkes estimate   =   -6604.43030063 Ry
     estimated scf accuracy    <       0.00000003 Ry

     iteration # 22     ecut=    50.00 Ry     beta=0.70
     Davidson diagonalization with overlap
     ethr =  4.52E-12,  avg # of iterations =  2.0

     negative rho (up, down):  1.757E+00 0.000E+00

     total cpu time spent up to now is    11693.9 secs

     End of self-consistent calculation

          k = 0.2500 0.4330 0.1111 (136853 PWs)   bands (ev):

   -19.6341  -7.4092  -6.1790  -5.7808  -5.7786  -5.1100  -4.7705  -4.7672
    -4.7487  -4.7294  -4.3723  -4.3670  -4.2994  -4.2684  -4.2623  -4.2515
    -4.2321  -4.1204  -4.1010  -4.0947  -4.0752  -4.0330  -4.0310  -3.9641
    -3.9632  -3.9588  -3.9489  -3.9353  -3.9300  -3.9203  -3.8598  -3.8298
    -3.8274  -3.8204  -3.8155  -3.8060  -3.7920  -3.7882  -3.7690  -3.7611
    -3.7586  -3.7294  -3.6824  -3.6803  -3.6342  -3.6329  -3.5768  -3.5712
    -3.5213  -3.5198  -3.5197  -3.5119  -3.4840  -3.4480  -3.4418  -3.4387
    -3.4372  -3.4343  -3.4090  -3.4080  -3.3986  -3.3382  -3.3339  -3.3296
    -3.3089  -3.3029  -3.2318  -3.2256  -3.1996  -3.1983  -3.1700  -3.1682
    -3.1550  -3.1378  -3.0806  -3.0775  -3.0618  -3.0614  -3.0103  -3.0060
    -3.0008  -2.9658  -2.9360  -2.9345  -2.9264  -2.9241  -2.9139  -2.9121
    -2.9064  -2.9031  -2.8943  -2.8542  -2.8163  -2.8156  -2.8021  -2.8014
    -2.7750  -2.7668  -2.7654  -2.7459  -2.6988  -2.6966  -2.6887  -2.6511
    -2.6441  -2.6327  -2.6313  -2.6048  -2.6005  -2.5725  -2.5375  -2.5342
    -2.5152  -2.5061  -2.4937  -2.4913  -2.4437  -2.4415  -2.4093  -2.3871
    -2.3864  -2.3640  -2.3608  -2.3522  -2.3498  -2.3404  -2.3191  -2.3166
    -2.2730  -2.2725  -2.2713  -2.2553  -2.2550  -2.2478  -2.2413  -2.2388
    -2.2381  -2.2368  -2.2298  -2.2202  -2.2190  -2.2109  -2.1838  -2.1819
    -2.1809  -2.1802  -2.1792  -2.1762  -2.1713  -2.1473  -2.1454  -2.1319
    -2.1277  -2.1136  -2.1116  -2.1076  -2.1028  -2.1020  -2.0998  -2.0859
    -2.0816  -2.0805  -2.0740  -2.0619  -2.0413  -2.0345  -1.9947  -1.9937
    -1.9732  -1.9699  -1.9625  -1.9422  -1.9167  -1.9139  -1.9024  -1.8933
    -1.8918  -1.8646  -1.8460  -1.8423  -1.8378  -1.8354  -1.8310  -1.8259
    -1.8029  -1.7948  -1.7855  -1.7504  -1.7268  -1.7233  -1.7207  -1.7163
    -1.7006  -1.6803  -1.6628  -1.6622  -1.6348  -1.6268  -1.5760  -1.5754
    -1.5440  -1.5260  -1.5166  -1.4661  -1.4644  -1.4544  -1.4515  -1.4430
    -1.4427  -1.4374  -1.4299  -1.4267  -1.3741  -1.3707  -1.3621  -1.3606
    -1.3541  -1.3434  -1.3338  -1.3075  -1.3038  -1.2896  -1.2890  -1.2864
    -1.2808  -1.2743  -1.2678  -1.2641  -1.2469  -1.2458  -1.2093  -1.2019
    -1.1951  -1.1853  -1.1706  -1.1587  -1.1180  -1.1147  -1.0904  -1.0866
    -1.0829  -1.0554  -1.0064  -1.0045  -1.0033  -0.9996  -0.9960  -0.9922
    -0.9832  -0.9685  -0.9659  -0.9282  -0.9272  -0.8980  -0.8970  -0.8911
    -0.8888  -0.8847  -0.8683  -0.8671  -0.8653  -0.8639  -0.8603  -0.8261
    -0.8238  -0.8221  -0.8188  -0.7930  -0.7893  -0.7863  -0.7636  -0.7541
    -0.7507  -0.7097  -0.7041  -0.6949  -0.6670  -0.6576  -0.6485  -0.6479
    -0.6423  -0.6413  -0.6366  -0.6337  -0.6236  -0.6206  -0.6007  -0.5993
    -0.5959  -0.5939  -0.5921  -0.5568  -0.5565  -0.5469  -0.5412  -0.5285
    -0.5234  -0.5131  -0.5093  -0.4549  -0.4537  -0.4453  -0.4451  -0.4427
    -0.4402  -0.4339  -0.4177  -0.4150  -0.4096  -0.4090  -0.4033  -0.4002
    -0.3671  -0.3657  -0.3640  -0.3567  -0.3549  -0.3510  -0.3481  -0.3328
    -0.3312  -0.3283  -0.3190  -0.2878  -0.2866  -0.2793  -0.2748  -0.2727
    -0.1986  -0.1972  -0.1948  -0.1934  -0.1851  -0.1811  -0.1482  -0.1366
    -0.1356  -0.1071  -0.1033  -0.0889   0.0160   0.0214   0.1202   0.5358
     0.5364   0.5387   0.5397   0.6035   0.6095   0.9879   0.9902   1.0294
     1.0338   1.1413   1.2242   1.3271   1.3445   1.5469   1.5724   2.1881
     2.1888   2.3440   2.3548   2.4816   2.4873   2.5848   2.5858   2.7393
     2.9650   2.9790   3.1021   3.3191   3.3332   3.4062   3.4102   3.5085
     3.5247   3.6983   3.7035   3.7801   3.9813   3.9819   4.0418   4.0473
     4.2994   4.3046   4.3164   4.5497   4.5903   4.5949   4.6388   4.9694
     4.9738   4.9934   5.0271   5.1379   5.3106   5.3128   5.3533   5.4063
     5.6901   5.9282   6.0733   6.0942   6.1017   6.1152   6.1692   6.1733
     6.2148   6.2832   6.3035   6.3237   6.3272   6.3371   6.3474   6.3860
     6.3940   6.4358   6.5075   6.5763   6.6957   6.7565   6.9112   6.9897
     7.0324   7.0431   7.0545

          k = 0.2500-0.1443 0.1111 (136898 PWs)   bands (ev):

   -19.6341  -7.4092  -6.3889  -5.5970  -5.3127  -5.2474  -5.2460  -4.7098
    -4.7074  -4.5914  -4.5753  -4.4478  -4.4073  -4.3296  -4.3226  -4.2959
    -4.2623  -4.2606  -4.1370  -4.1144  -4.0901  -4.0832  -4.0295  -4.0103
    -3.9837  -3.9067  -3.9056  -3.8704  -3.8701  -3.8679  -3.8388  -3.8218
    -3.8197  -3.7151  -3.7147  -3.7089  -3.6941  -3.6772  -3.6766  -3.6655
    -3.6580  -3.6531  -3.6218  -3.6209  -3.6206  -3.6165  -3.5896  -3.5857
    -3.5705  -3.5696  -3.5593  -3.5163  -3.5088  -3.4823  -3.4693  -3.4619
    -3.4616  -3.4503  -3.3875  -3.3867  -3.3539  -3.3511  -3.3390  -3.2819
    -3.2811  -3.2672  -3.2654  -3.2370  -3.2358  -3.2354  -3.2322  -3.0813
    -3.0808  -3.0571  -3.0562  -3.0473  -3.0346  -3.0316  -3.0094  -3.0069
    -2.9588  -2.9572  -2.9426  -2.9409  -2.9211  -2.8750  -2.8729  -2.8540
    -2.8494  -2.8476  -2.8084  -2.8070  -2.8003  -2.7977  -2.7854  -2.7823
    -2.7455  -2.7452  -2.7236  -2.7224  -2.7200  -2.7185  -2.7142  -2.6406
    -2.6381  -2.6361  -2.6092  -2.6078  -2.5482  -2.5460  -2.5186  -2.5161
    -2.5052  -2.5048  -2.4972  -2.4693  -2.4684  -2.4586  -2.4418  -2.4186
    -2.4175  -2.4118  -2.3959  -2.3939  -2.3860  -2.3840  -2.3825  -2.3756
    -2.3706  -2.3248  -2.2946  -2.2932  -2.2796  -2.2652  -2.2583  -2.2574
    -2.2515  -2.2501  -2.2472  -2.2201  -2.2187  -2.2164  -2.2101  -2.2079
    -2.1916  -2.1655  -2.1646  -2.1636  -2.1625  -2.1610  -2.1153  -2.0894
    -2.0849  -2.0836  -2.0783  -2.0677  -2.0585  -2.0548  -2.0394  -2.0383
    -2.0081  -2.0053  -2.0040  -1.9895  -1.9857  -1.9841  -1.9548  -1.9506
    -1.9266  -1.9120  -1.9071  -1.9027  -1.9001  -1.8986  -1.8943  -1.8937
    -1.8914  -1.8862  -1.8818  -1.8702  -1.8626  -1.8325  -1.7420  -1.7366
    -1.7057  -1.7033  -1.6975  -1.6943  -1.6920  -1.6784  -1.6779  -1.6757
    -1.6696  -1.6534  -1.6485  -1.6446  -1.6430  -1.6329  -1.6253  -1.6132
    -1.6065  -1.5988  -1.5778  -1.5738  -1.5476  -1.5407  -1.5347  -1.5238
    -1.5084  -1.5059  -1.5045  -1.4883  -1.4746  -1.4729  -1.4667  -1.4660
    -1.4415  -1.4381  -1.4256  -1.4212  -1.3933  -1.3888  -1.3742  -1.3324
    -1.3302  -1.3194  -1.3124  -1.3037  -1.2907  -1.2878  -1.2569  -1.2555
    -1.2505  -1.2196  -1.2133  -1.2070  -1.1948  -1.1929  -1.1695  -1.1677
    -1.1565  -1.1365  -1.1348  -1.1331  -1.0725  -1.0710  -1.0610  -1.0581
    -1.0428  -1.0415  -1.0305  -1.0265  -1.0110  -0.9986  -0.9710  -0.9693
    -0.9569  -0.9291  -0.9220  -0.9167  -0.9084  -0.9080  -0.9064  -0.9034
    -0.8925  -0.8862  -0.8588  -0.8574  -0.8491  -0.8469  -0.8440  -0.8283
    -0.8205  -0.8052  -0.7923  -0.7825  -0.7662  -0.6878  -0.6748  -0.6696
    -0.6689  -0.6640  -0.6585  -0.6551  -0.6352  -0.6273  -0.6203  -0.6143
    -0.6042  -0.6002  -0.5951  -0.5760  -0.5735  -0.5644  -0.5622  -0.4908
    -0.4897  -0.4600  -0.4529  -0.4519  -0.4475  -0.4436  -0.4425  -0.4392
    -0.4298  -0.4254  -0.4067  -0.3879  -0.3718  -0.3563  -0.3533  -0.3446
    -0.3408  -0.3310  -0.3309  -0.3295  -0.3256  -0.3232  -0.3109  -0.3059
    -0.3017  -0.2759  -0.2731  -0.2707  -0.2607  -0.2591  -0.2413  -0.2102
    -0.2078  -0.2007  -0.1963  -0.1326  -0.1300  -0.0961  -0.0958  -0.0378
    -0.0373  -0.0367  -0.0147  -0.0101   0.2111   0.2354   0.5642   0.5647
     0.6484   0.6712   0.8462   0.8755   0.8912   1.0092   1.0188   1.4445
     1.4450   1.4636   1.7217   1.7542   1.7559   2.0203   2.0435   2.1080
     2.1117   2.1301   2.1568   2.3648   2.3681   2.4553   2.4567   2.5149
     2.5842   2.6156   2.7622   2.8598   3.2933   3.2961   3.2967   3.3132
     3.3521   3.3617   3.6477   3.6499   3.9199   3.9391   4.0112   4.3449
     4.3791   4.3934   4.5681   4.5742   4.6843   4.6915   4.7774   4.8959
     4.9013   5.0094   5.0152   5.0403   5.3170   5.3834   5.3894   5.5062
     5.5606   5.7677   5.7722   5.7866   5.8013   5.8043   5.8550   5.8627
     5.9237   6.0186   6.1665   6.2652   6.4518   6.4726   6.6015   6.6043
     6.6120   6.6203   6.6400   6.7444   6.8020   6.8552   6.8693   6.9880
     7.0269   7.0547   7.0811

          k =-0.2500-0.4330 0.1111 (136853 PWs)   bands (ev):

   -19.6341  -7.4092  -6.1790  -5.7808  -5.7786  -5.1100  -4.7705  -4.7672
    -4.7487  -4.7294  -4.3723  -4.3670  -4.2994  -4.2684  -4.2623  -4.2515
    -4.2321  -4.1204  -4.1010  -4.0947  -4.0752  -4.0330  -4.0310  -3.9641
    -3.9632  -3.9588  -3.9489  -3.9353  -3.9300  -3.9203  -3.8598  -3.8298
    -3.8274  -3.8204  -3.8155  -3.8060  -3.7920  -3.7882  -3.7690  -3.7611
    -3.7586  -3.7294  -3.6824  -3.6803  -3.6342  -3.6329  -3.5768  -3.5712
    -3.5213  -3.5198  -3.5197  -3.5119  -3.4840  -3.4480  -3.4418  -3.4387
    -3.4372  -3.4343  -3.4090  -3.4080  -3.3986  -3.3382  -3.3339  -3.3296
    -3.3089  -3.3029  -3.2318  -3.2256  -3.1996  -3.1983  -3.1700  -3.1682
    -3.1550  -3.1378  -3.0806  -3.0775  -3.0618  -3.0614  -3.0103  -3.0060
    -3.0008  -2.9658  -2.9360  -2.9345  -2.9264  -2.9241  -2.9139  -2.9121
    -2.9064  -2.9031  -2.8943  -2.8542  -2.8163  -2.8156  -2.8021  -2.8014
    -2.7750  -2.7668  -2.7654  -2.7459  -2.6988  -2.6966  -2.6887  -2.6511
    -2.6441  -2.6327  -2.6313  -2.6048  -2.6005  -2.5725  -2.5375  -2.5342
    -2.5152  -2.5061  -2.4937  -2.4913  -2.4437  -2.4415  -2.4093  -2.3871
    -2.3864  -2.3640  -2.3608  -2.3522  -2.3498  -2.3404  -2.3191  -2.3166
    -2.2730  -2.2725  -2.2713  -2.2553  -2.2550  -2.2478  -2.2413  -2.2388
    -2.2381  -2.2368  -2.2298  -2.2202  -2.2190  -2.2109  -2.1838  -2.1819
    -2.1809  -2.1802  -2.1792  -2.1762  -2.1713  -2.1473  -2.1454  -2.1319
    -2.1277  -2.1136  -2.1116  -2.1076  -2.1028  -2.1020  -2.0998  -2.0859
    -2.0816  -2.0805  -2.0740  -2.0619  -2.0413  -2.0345  -1.9947  -1.9937
    -1.9731  -1.9699  -1.9625  -1.9422  -1.9167  -1.9139  -1.9024  -1.8933
    -1.8918  -1.8646  -1.8460  -1.8423  -1.8378  -1.8354  -1.8310  -1.8259
    -1.8029  -1.7948  -1.7855  -1.7504  -1.7268  -1.7233  -1.7207  -1.7163
    -1.7006  -1.6803  -1.6628  -1.6622  -1.6348  -1.6267  -1.5760  -1.5754
    -1.5440  -1.5260  -1.5166  -1.4661  -1.4644  -1.4544  -1.4515  -1.4430
    -1.4427  -1.4374  -1.4299  -1.4267  -1.3741  -1.3707  -1.3621  -1.3606
    -1.3541  -1.3434  -1.3338  -1.3075  -1.3039  -1.2896  -1.2890  -1.2864
    -1.2808  -1.2743  -1.2678  -1.2641  -1.2469  -1.2458  -1.2093  -1.2019
    -1.1951  -1.1853  -1.1706  -1.1587  -1.1180  -1.1147  -1.0904  -1.0866
    -1.0829  -1.0554  -1.0064  -1.0045  -1.0033  -0.9996  -0.9960  -0.9922
    -0.9832  -0.9685  -0.9659  -0.9282  -0.9272  -0.8980  -0.8970  -0.8911
    -0.8888  -0.8847  -0.8683  -0.8671  -0.8653  -0.8639  -0.8603  -0.8261
    -0.8238  -0.8221  -0.8188  -0.7930  -0.7893  -0.7863  -0.7636  -0.7541
    -0.7507  -0.7097  -0.7041  -0.6949  -0.6670  -0.6576  -0.6485  -0.6479
    -0.6423  -0.6413  -0.6366  -0.6337  -0.6236  -0.6206  -0.6007  -0.5993
    -0.5959  -0.5939  -0.5921  -0.5568  -0.5565  -0.5469  -0.5412  -0.5285
    -0.5234  -0.5131  -0.5093  -0.4549  -0.4537  -0.4453  -0.4451  -0.4427
    -0.4402  -0.4339  -0.4177  -0.4150  -0.4096  -0.4090  -0.4033  -0.4002
    -0.3671  -0.3657  -0.3640  -0.3567  -0.3549  -0.3510  -0.3481  -0.3328
    -0.3312  -0.3283  -0.3190  -0.2878  -0.2866  -0.2793  -0.2748  -0.2727
    -0.1986  -0.1972  -0.1948  -0.1934  -0.1851  -0.1811  -0.1482  -0.1366
    -0.1356  -0.1071  -0.1033  -0.0889   0.0160   0.0214   0.1202   0.5358
     0.5364   0.5387   0.5397   0.6035   0.6095   0.9879   0.9902   1.0294
     1.0338   1.1413   1.2242   1.3271   1.3445   1.5469   1.5724   2.1881
     2.1888   2.3440   2.3548   2.4816   2.4873   2.5848   2.5858   2.7393
     2.9650   2.9790   3.1021   3.3191   3.3332   3.4062   3.4102   3.5085
     3.5247   3.6983   3.7035   3.7801   3.9813   3.9819   4.0418   4.0473
     4.2994   4.3046   4.3164   4.5497   4.5903   4.5949   4.6388   4.9694
     4.9738   4.9933   5.0271   5.1379   5.3106   5.3128   5.3533   5.4063
     5.6901   5.9282   6.0738   6.0942   6.1016   6.1152   6.1691   6.1730
     6.2148   6.2831   6.3036   6.3237   6.3272   6.3372   6.3474   6.3866
     6.3942   6.4348   6.5077   6.5752   6.6969   6.7563   6.9139   6.9888
     7.0325   7.0430   7.0540

          k =-0.2500 0.4330-0.1111 (136853 PWs)   bands (ev):

   -19.6341  -7.4092  -6.1790  -5.7820  -5.7774  -5.1098  -4.7717  -4.7683
    -4.7481  -4.7287  -4.3678  -4.3677  -4.2955  -4.2684  -4.2654  -4.2537
    -4.2322  -4.1339  -4.1008  -4.0902  -4.0703  -4.0327  -4.0318  -3.9644
    -3.9640  -3.9594  -3.9435  -3.9354  -3.9296  -3.9195  -3.8595  -3.8298
    -3.8275  -3.8181  -3.8153  -3.8053  -3.7921  -3.7859  -3.7689  -3.7615
    -3.7560  -3.7340  -3.6830  -3.6817  -3.6352  -3.6323  -3.5773  -3.5765
    -3.5214  -3.5202  -3.5198  -3.5187  -3.4843  -3.4486  -3.4473  -3.4386
    -3.4374  -3.4347  -3.4089  -3.4013  -3.3946  -3.3383  -3.3377  -3.3226
    -3.3100  -3.3025  -3.2318  -3.2242  -3.1995  -3.1907  -3.1693  -3.1686
    -3.1549  -3.1387  -3.0811  -3.0799  -3.0620  -3.0600  -3.0111  -3.0069
    -3.0006  -2.9657  -2.9371  -2.9344  -2.9262  -2.9235  -2.9144  -2.9113
    -2.9067  -2.9007  -2.8943  -2.8539  -2.8168  -2.8152  -2.8024  -2.8003
    -2.7749  -2.7676  -2.7628  -2.7460  -2.6980  -2.6967  -2.6909  -2.6515
    -2.6442  -2.6328  -2.6314  -2.6046  -2.6020  -2.5725  -2.5375  -2.5340
    -2.5160  -2.5063  -2.4942  -2.4894  -2.4433  -2.4406  -2.4089  -2.3879
    -2.3848  -2.3656  -2.3632  -2.3508  -2.3498  -2.3403  -2.3194  -2.3171
    -2.2750  -2.2718  -2.2715  -2.2561  -2.2540  -2.2479  -2.2401  -2.2393
    -2.2388  -2.2371  -2.2297  -2.2202  -2.2185  -2.2092  -2.1853  -2.1821
    -2.1808  -2.1801  -2.1772  -2.1759  -2.1695  -2.1495  -2.1463  -2.1318
    -2.1305  -2.1130  -2.1124  -2.1084  -2.1023  -2.1021  -2.0997  -2.0839
    -2.0820  -2.0806  -2.0759  -2.0619  -2.0419  -2.0343  -1.9952  -1.9930
    -1.9734  -1.9689  -1.9616  -1.9392  -1.9173  -1.9146  -1.9001  -1.8950
    -1.8852  -1.8647  -1.8466  -1.8434  -1.8391  -1.8329  -1.8292  -1.8260
    -1.7999  -1.7986  -1.7844  -1.7755  -1.7270  -1.7232  -1.7212  -1.7154
    -1.6989  -1.6745  -1.6634  -1.6621  -1.6355  -1.6152  -1.5758  -1.5744
    -1.5394  -1.5276  -1.5210  -1.4661  -1.4647  -1.4543  -1.4509  -1.4438
    -1.4400  -1.4363  -1.4302  -1.4287  -1.3759  -1.3705  -1.3634  -1.3597
    -1.3550  -1.3432  -1.3413  -1.3078  -1.3018  -1.2897  -1.2888  -1.2872
    -1.2804  -1.2737  -1.2687  -1.2577  -1.2482  -1.2427  -1.2093  -1.1992
    -1.1955  -1.1931  -1.1736  -1.1589  -1.1188  -1.1134  -1.0903  -1.0867
    -1.0798  -1.0558  -1.0061  -1.0042  -1.0034  -1.0010  -0.9975  -0.9920
    -0.9834  -0.9683  -0.9661  -0.9283  -0.9265  -0.8987  -0.8946  -0.8907
    -0.8896  -0.8839  -0.8683  -0.8665  -0.8656  -0.8630  -0.8608  -0.8299
    -0.8234  -0.8223  -0.8139  -0.7930  -0.7916  -0.7866  -0.7623  -0.7561
    -0.7496  -0.7101  -0.7044  -0.6957  -0.6665  -0.6597  -0.6488  -0.6473
    -0.6424  -0.6397  -0.6393  -0.6311  -0.6269  -0.6158  -0.6005  -0.6000
    -0.5960  -0.5950  -0.5896  -0.5569  -0.5561  -0.5505  -0.5414  -0.5271
    -0.5220  -0.5166  -0.5087  -0.4548  -0.4528  -0.4459  -0.4446  -0.4430
    -0.4401  -0.4348  -0.4199  -0.4135  -0.4092  -0.4081  -0.4054  -0.3988
    -0.3669  -0.3656  -0.3638  -0.3576  -0.3533  -0.3504  -0.3459  -0.3383
    -0.3309  -0.3296  -0.3180  -0.2882  -0.2856  -0.2797  -0.2754  -0.2724
    -0.1980  -0.1974  -0.1951  -0.1910  -0.1849  -0.1834  -0.1484  -0.1372
    -0.1345  -0.1126  -0.1035  -0.0839   0.0147   0.0291   0.1239   0.5356
     0.5361   0.5390   0.5398   0.5914   0.6181   0.9862   0.9888   1.0278
     1.0361   1.1444   1.2253   1.3240   1.3524   1.5395   1.5757   2.1796
     2.1943   2.3392   2.3639   2.4673   2.5004   2.5848   2.5862   2.7389
     2.9687   2.9764   3.0997   3.3162   3.3341   3.4040   3.4153   3.5050
     3.5246   3.6932   3.7042   3.7800   3.9809   3.9821   4.0360   4.0587
     4.2970   4.2989   4.3236   4.5515   4.5872   4.5998   4.6379   4.9673
     4.9742   5.0009   5.0330   5.1388   5.3104   5.3142   5.3195   5.4049
     5.7713   5.8514   6.0925   6.0941   6.1024   6.1251   6.1709   6.1726
     6.2169   6.2770   6.3064   6.3194   6.3316   6.3361   6.3491   6.3878
     6.3995   6.4222   6.4564   6.6065   6.6752   6.7552   6.9350   6.9756
     7.0292   7.0404   7.0515

          k = 0.2500-0.4330-0.1111 (136853 PWs)   bands (ev):

   -19.6341  -7.4092  -6.1790  -5.7820  -5.7774  -5.1098  -4.7717  -4.7683
    -4.7481  -4.7287  -4.3678  -4.3677  -4.2955  -4.2684  -4.2654  -4.2537
    -4.2322  -4.1339  -4.1008  -4.0902  -4.0703  -4.0327  -4.0318  -3.9644
    -3.9640  -3.9594  -3.9435  -3.9354  -3.9296  -3.9195  -3.8595  -3.8298
    -3.8275  -3.8181  -3.8153  -3.8053  -3.7921  -3.7859  -3.7689  -3.7615
    -3.7560  -3.7340  -3.6830  -3.6817  -3.6352  -3.6323  -3.5773  -3.5765
    -3.5214  -3.5202  -3.5198  -3.5187  -3.4843  -3.4486  -3.4473  -3.4386
    -3.4374  -3.4347  -3.4089  -3.4013  -3.3946  -3.3383  -3.3377  -3.3226
    -3.3100  -3.3025  -3.2318  -3.2242  -3.1995  -3.1907  -3.1693  -3.1686
    -3.1549  -3.1387  -3.0811  -3.0799  -3.0620  -3.0600  -3.0111  -3.0069
    -3.0006  -2.9657  -2.9371  -2.9344  -2.9262  -2.9235  -2.9144  -2.9113
    -2.9067  -2.9007  -2.8943  -2.8539  -2.8168  -2.8152  -2.8024  -2.8003
    -2.7749  -2.7676  -2.7628  -2.7460  -2.6980  -2.6967  -2.6909  -2.6515
    -2.6442  -2.6328  -2.6314  -2.6046  -2.6020  -2.5725  -2.5375  -2.5340
    -2.5160  -2.5063  -2.4942  -2.4894  -2.4433  -2.4406  -2.4089  -2.3879
    -2.3848  -2.3656  -2.3632  -2.3508  -2.3498  -2.3403  -2.3194  -2.3171
    -2.2750  -2.2718  -2.2715  -2.2561  -2.2540  -2.2479  -2.2401  -2.2393
    -2.2388  -2.2371  -2.2297  -2.2202  -2.2185  -2.2092  -2.1853  -2.1821
    -2.1808  -2.1801  -2.1772  -2.1759  -2.1695  -2.1495  -2.1463  -2.1318
    -2.1305  -2.1130  -2.1124  -2.1084  -2.1023  -2.1021  -2.0997  -2.0839
    -2.0820  -2.0806  -2.0759  -2.0619  -2.0419  -2.0343  -1.9952  -1.9930
    -1.9734  -1.9689  -1.9616  -1.9392  -1.9173  -1.9146  -1.9001  -1.8950
    -1.8852  -1.8647  -1.8466  -1.8434  -1.8391  -1.8329  -1.8292  -1.8261
    -1.7999  -1.7986  -1.7844  -1.7755  -1.7270  -1.7232  -1.7212  -1.7154
    -1.6989  -1.6745  -1.6634  -1.6621  -1.6355  -1.6152  -1.5758  -1.5744
    -1.5394  -1.5276  -1.5210  -1.4661  -1.4647  -1.4543  -1.4509  -1.4438
    -1.4400  -1.4363  -1.4302  -1.4287  -1.3759  -1.3705  -1.3634  -1.3597
    -1.3550  -1.3432  -1.3414  -1.3078  -1.3018  -1.2897  -1.2888  -1.2872
    -1.2804  -1.2737  -1.2687  -1.2577  -1.2482  -1.2427  -1.2093  -1.1992
    -1.1955  -1.1931  -1.1736  -1.1589  -1.1188  -1.1134  -1.0903  -1.0867
    -1.0798  -1.0558  -1.0061  -1.0042  -1.0034  -1.0010  -0.9975  -0.9920
    -0.9834  -0.9683  -0.9661  -0.9283  -0.9265  -0.8987  -0.8946  -0.8907
    -0.8896  -0.8839  -0.8683  -0.8665  -0.8656  -0.8630  -0.8608  -0.8299
    -0.8234  -0.8223  -0.8139  -0.7930  -0.7916  -0.7866  -0.7623  -0.7561
    -0.7496  -0.7101  -0.7044  -0.6957  -0.6665  -0.6597  -0.6488  -0.6473
    -0.6424  -0.6397  -0.6393  -0.6311  -0.6269  -0.6158  -0.6005  -0.6000
    -0.5960  -0.5950  -0.5896  -0.5569  -0.5561  -0.5505  -0.5414  -0.5271
    -0.5220  -0.5166  -0.5087  -0.4548  -0.4528  -0.4459  -0.4446  -0.4430
    -0.4401  -0.4348  -0.4199  -0.4135  -0.4092  -0.4081  -0.4054  -0.3988
    -0.3669  -0.3656  -0.3638  -0.3576  -0.3533  -0.3504  -0.3459  -0.3383
    -0.3309  -0.3296  -0.3180  -0.2882  -0.2856  -0.2797  -0.2754  -0.2724
    -0.1980  -0.1974  -0.1951  -0.1910  -0.1849  -0.1834  -0.1484  -0.1372
    -0.1345  -0.1126  -0.1035  -0.0839   0.0147   0.0291   0.1239   0.5356
     0.5361   0.5390   0.5398   0.5914   0.6181   0.9862   0.9888   1.0278
     1.0361   1.1444   1.2253   1.3240   1.3524   1.5395   1.5757   2.1796
     2.1943   2.3392   2.3639   2.4673   2.5004   2.5848   2.5862   2.7389
     2.9687   2.9764   3.0997   3.3162   3.3341   3.4040   3.4153   3.5050
     3.5246   3.6932   3.7042   3.7800   3.9809   3.9821   4.0360   4.0587
     4.2970   4.2989   4.3236   4.5515   4.5872   4.5998   4.6379   4.9673
     4.9742   5.0009   5.0330   5.1388   5.3104   5.3142   5.3195   5.4049
     5.7713   5.8513   6.0923   6.0941   6.1024   6.1252   6.1710   6.1725
     6.2169   6.2770   6.3064   6.3194   6.3316   6.3362   6.3490   6.3878
     6.3995   6.4221   6.4568   6.6070   6.6747   6.7551   6.9348   6.9755
     7.0292   7.0407   7.0517

          k = 0.5000 0.0000 0.1111 (136853 PWs)   bands (ev):

   -19.6341  -7.4092  -6.1790  -5.7823  -5.7771  -5.1100  -4.7704  -4.7676
    -4.7497  -4.7281  -4.3723  -4.3670  -4.2994  -4.2684  -4.2619  -4.2516
    -4.2321  -4.1205  -4.1015  -4.0945  -4.0753  -4.0331  -4.0311  -3.9642
    -3.9634  -3.9590  -3.9487  -3.9352  -3.9295  -3.9206  -3.8588  -3.8304
    -3.8264  -3.8207  -3.8155  -3.8059  -3.7920  -3.7884  -3.7690  -3.7611
    -3.7586  -3.7299  -3.6825  -3.6804  -3.6352  -3.6319  -3.5770  -3.5711
    -3.5216  -3.5198  -3.5196  -3.5120  -3.4841  -3.4483  -3.4418  -3.4387
    -3.4371  -3.4344  -3.4086  -3.4078  -3.3986  -3.3384  -3.3339  -3.3293
    -3.3088  -3.3026  -3.2317  -3.2257  -3.1989  -3.1985  -3.1695  -3.1686
    -3.1549  -3.1380  -3.0808  -3.0778  -3.0618  -3.0611  -3.0104  -3.0061
    -3.0008  -2.9657  -2.9362  -2.9344  -2.9267  -2.9235  -2.9140  -2.9119
    -2.9063  -2.9029  -2.8946  -2.8541  -2.8170  -2.8150  -2.8020  -2.8013
    -2.7751  -2.7668  -2.7654  -2.7459  -2.6986  -2.6969  -2.6890  -2.6510
    -2.6441  -2.6331  -2.6308  -2.6048  -2.6006  -2.5725  -2.5375  -2.5340
    -2.5153  -2.5062  -2.4938  -2.4913  -2.4434  -2.4417  -2.4091  -2.3873
    -2.3864  -2.3650  -2.3610  -2.3518  -2.3496  -2.3405  -2.3194  -2.3165
    -2.2733  -2.2718  -2.2714  -2.2559  -2.2545  -2.2478  -2.2410  -2.2390
    -2.2377  -2.2371  -2.2298  -2.2203  -2.2188  -2.2108  -2.1845  -2.1820
    -2.1806  -2.1801  -2.1794  -2.1761  -2.1711  -2.1474  -2.1455  -2.1323
    -2.1275  -2.1134  -2.1116  -2.1069  -2.1028  -2.1018  -2.1002  -2.0867
    -2.0814  -2.0807  -2.0741  -2.0619  -2.0411  -2.0347  -1.9954  -1.9928
    -1.9721  -1.9705  -1.9616  -1.9423  -1.9179  -1.9148  -1.9040  -1.8919
    -1.8895  -1.8647  -1.8462  -1.8425  -1.8378  -1.8355  -1.8310  -1.8261
    -1.8029  -1.7941  -1.7857  -1.7506  -1.7272  -1.7242  -1.7204  -1.7160
    -1.6967  -1.6836  -1.6631  -1.6619  -1.6351  -1.6250  -1.5762  -1.5751
    -1.5434  -1.5257  -1.5181  -1.4666  -1.4643  -1.4547  -1.4512  -1.4431
    -1.4426  -1.4376  -1.4301  -1.4264  -1.3754  -1.3694  -1.3629  -1.3611
    -1.3542  -1.3436  -1.3340  -1.3072  -1.3035  -1.2899  -1.2888  -1.2864
    -1.2805  -1.2723  -1.2685  -1.2639  -1.2467  -1.2462  -1.2097  -1.2020
    -1.1952  -1.1849  -1.1694  -1.1587  -1.1183  -1.1148  -1.0904  -1.0869
    -1.0831  -1.0554  -1.0065  -1.0043  -1.0032  -0.9998  -0.9964  -0.9921
    -0.9847  -0.9681  -0.9655  -0.9284  -0.9274  -0.8982  -0.8968  -0.8911
    -0.8888  -0.8848  -0.8683  -0.8671  -0.8647  -0.8636  -0.8596  -0.8268
    -0.8235  -0.8223  -0.8186  -0.7933  -0.7897  -0.7859  -0.7640  -0.7542
    -0.7507  -0.7099  -0.7044  -0.6937  -0.6669  -0.6571  -0.6486  -0.6479
    -0.6423  -0.6412  -0.6362  -0.6332  -0.6242  -0.6203  -0.6011  -0.5992
    -0.5961  -0.5940  -0.5916  -0.5567  -0.5564  -0.5483  -0.5405  -0.5279
    -0.5236  -0.5123  -0.5090  -0.4548  -0.4534  -0.4454  -0.4451  -0.4426
    -0.4403  -0.4349  -0.4179  -0.4147  -0.4096  -0.4087  -0.4040  -0.4000
    -0.3671  -0.3659  -0.3637  -0.3570  -0.3546  -0.3509  -0.3473  -0.3328
    -0.3312  -0.3285  -0.3201  -0.2881  -0.2865  -0.2795  -0.2749  -0.2722
    -0.1986  -0.1971  -0.1949  -0.1931  -0.1852  -0.1816  -0.1484  -0.1367
    -0.1355  -0.1081  -0.1036  -0.0877   0.0156   0.0217   0.1203   0.5358
     0.5366   0.5386   0.5398   0.6008   0.6107   0.9875   0.9903   1.0285
     1.0348   1.1421   1.2250   1.3267   1.3464   1.5459   1.5728   2.1870
     2.1888   2.3424   2.3571   2.4790   2.4886   2.5845   2.5861   2.7392
     2.9644   2.9804   3.1022   3.3188   3.3337   3.4062   3.4103   3.5090
     3.5249   3.6986   3.7028   3.7808   3.9810   3.9823   4.0426   4.0462
     4.2985   4.3046   4.3175   4.5501   4.5891   4.5952   4.6388   4.9689
     4.9754   4.9991   5.0257   5.1367   5.3107   5.3131   5.3443   5.4027
     5.7145   5.9035   6.0826   6.0943   6.1010   6.1176   6.1684   6.1746
     6.2155   6.2813   6.3045   6.3241   6.3256   6.3358   6.3486   6.3873
     6.3926   6.4360   6.4861   6.5917   6.6997   6.7339   6.9244   6.9850
     7.0327   7.0423   7.0542

          k =-0.5000 0.0000 0.1111 (136853 PWs)   bands (ev):

   -19.6341  -7.4092  -6.1790  -5.7823  -5.7771  -5.1100  -4.7704  -4.7676
    -4.7497  -4.7281  -4.3723  -4.3670  -4.2994  -4.2684  -4.2619  -4.2516
    -4.2321  -4.1205  -4.1015  -4.0945  -4.0753  -4.0331  -4.0311  -3.9642
    -3.9634  -3.9590  -3.9487  -3.9352  -3.9295  -3.9206  -3.8588  -3.8304
    -3.8264  -3.8207  -3.8155  -3.8059  -3.7920  -3.7884  -3.7690  -3.7611
    -3.7585  -3.7299  -3.6825  -3.6804  -3.6352  -3.6319  -3.5770  -3.5711
    -3.5216  -3.5198  -3.5196  -3.5120  -3.4841  -3.4483  -3.4418  -3.4387
    -3.4371  -3.4344  -3.4086  -3.4078  -3.3986  -3.3384  -3.3339  -3.3293
    -3.3088  -3.3026  -3.2317  -3.2257  -3.1989  -3.1985  -3.1695  -3.1686
    -3.1549  -3.1380  -3.0808  -3.0778  -3.0618  -3.0611  -3.0104  -3.0061
    -3.0008  -2.9657  -2.9362  -2.9344  -2.9267  -2.9235  -2.9140  -2.9119
    -2.9063  -2.9029  -2.8946  -2.8541  -2.8170  -2.8150  -2.8020  -2.8013
    -2.7751  -2.7668  -2.7654  -2.7459  -2.6986  -2.6969  -2.6890  -2.6510
    -2.6441  -2.6331  -2.6308  -2.6048  -2.6006  -2.5725  -2.5375  -2.5340
    -2.5153  -2.5062  -2.4938  -2.4913  -2.4434  -2.4417  -2.4091  -2.3873
    -2.3864  -2.3650  -2.3610  -2.3518  -2.3496  -2.3405  -2.3194  -2.3165
    -2.2733  -2.2718  -2.2714  -2.2559  -2.2545  -2.2478  -2.2410  -2.2390
    -2.2377  -2.2371  -2.2298  -2.2203  -2.2188  -2.2108  -2.1845  -2.1820
    -2.1806  -2.1801  -2.1794  -2.1761  -2.1711  -2.1474  -2.1455  -2.1323
    -2.1275  -2.1134  -2.1116  -2.1069  -2.1028  -2.1018  -2.1002  -2.0867
    -2.0814  -2.0807  -2.0741  -2.0619  -2.0411  -2.0347  -1.9954  -1.9928
    -1.9721  -1.9705  -1.9616  -1.9423  -1.9179  -1.9148  -1.9040  -1.8919
    -1.8895  -1.8647  -1.8462  -1.8425  -1.8378  -1.8355  -1.8310  -1.8261
    -1.8029  -1.7941  -1.7857  -1.7506  -1.7272  -1.7242  -1.7204  -1.7160
    -1.6967  -1.6836  -1.6631  -1.6619  -1.6351  -1.6250  -1.5762  -1.5751
    -1.5434  -1.5257  -1.5181  -1.4666  -1.4643  -1.4547  -1.4512  -1.4431
    -1.4426  -1.4376  -1.4301  -1.4264  -1.3754  -1.3694  -1.3629  -1.3611
    -1.3542  -1.3436  -1.3340  -1.3072  -1.3035  -1.2899  -1.2888  -1.2864
    -1.2805  -1.2723  -1.2685  -1.2639  -1.2467  -1.2462  -1.2097  -1.2020
    -1.1952  -1.1849  -1.1694  -1.1587  -1.1183  -1.1148  -1.0904  -1.0869
    -1.0831  -1.0554  -1.0065  -1.0043  -1.0032  -0.9998  -0.9964  -0.9921
    -0.9847  -0.9681  -0.9655  -0.9284  -0.9274  -0.8982  -0.8968  -0.8911
    -0.8888  -0.8848  -0.8683  -0.8671  -0.8647  -0.8636  -0.8596  -0.8268
    -0.8235  -0.8223  -0.8186  -0.7933  -0.7897  -0.7859  -0.7640  -0.7542
    -0.7507  -0.7099  -0.7044  -0.6937  -0.6669  -0.6571  -0.6486  -0.6479
    -0.6423  -0.6412  -0.6362  -0.6332  -0.6242  -0.6203  -0.6011  -0.5992
    -0.5961  -0.5940  -0.5916  -0.5567  -0.5564  -0.5483  -0.5405  -0.5279
    -0.5236  -0.5123  -0.5090  -0.4548  -0.4534  -0.4454  -0.4451  -0.4426
    -0.4403  -0.4349  -0.4179  -0.4147  -0.4096  -0.4087  -0.4040  -0.4000
    -0.3671  -0.3659  -0.3637  -0.3570  -0.3546  -0.3509  -0.3473  -0.3328
    -0.3312  -0.3285  -0.3201  -0.2881  -0.2865  -0.2795  -0.2749  -0.2722
    -0.1986  -0.1971  -0.1949  -0.1931  -0.1852  -0.1816  -0.1484  -0.1367
    -0.1355  -0.1081  -0.1036  -0.0877   0.0156   0.0217   0.1203   0.5358
     0.5366   0.5386   0.5398   0.6008   0.6107   0.9875   0.9903   1.0285
     1.0348   1.1421   1.2250   1.3267   1.3464   1.5459   1.5728   2.1870
     2.1888   2.3424   2.3571   2.4790   2.4886   2.5845   2.5861   2.7392
     2.9644   2.9804   3.1022   3.3188   3.3337   3.4062   3.4103   3.5090
     3.5249   3.6986   3.7028   3.7808   3.9810   3.9823   4.0426   4.0462
     4.2985   4.3046   4.3175   4.5501   4.5891   4.5952   4.6388   4.9689
     4.9754   4.9991   5.0257   5.1367   5.3107   5.3131   5.3443   5.4027
     5.7145   5.9035   6.0832   6.0944   6.1008   6.1175   6.1683   6.1743
     6.2154   6.2812   6.3046   6.3239   6.3257   6.3358   6.3486   6.3877
     6.3928   6.4348   6.4867   6.5911   6.7015   6.7329   6.9258   6.9840
     7.0332   7.0418   7.0538

          k =-0.2500 0.1443 0.1111 (136898 PWs)   bands (ev):

   -19.6341  -7.4092  -6.3889  -5.5970  -5.3127  -5.2474  -5.2460  -4.7098
    -4.7075  -4.5914  -4.5753  -4.4478  -4.4073  -4.3296  -4.3226  -4.2959
    -4.2623  -4.2606  -4.1370  -4.1144  -4.0901  -4.0832  -4.0295  -4.0103
    -3.9837  -3.9067  -3.9056  -3.8704  -3.8701  -3.8679  -3.8388  -3.8218
    -3.8197  -3.7151  -3.7147  -3.7089  -3.6941  -3.6773  -3.6766  -3.6655
    -3.6580  -3.6531  -3.6218  -3.6209  -3.6206  -3.6165  -3.5896  -3.5857
    -3.5705  -3.5696  -3.5593  -3.5163  -3.5088  -3.4823  -3.4693  -3.4619
    -3.4616  -3.4503  -3.3875  -3.3867  -3.3539  -3.3511  -3.3390  -3.2819
    -3.2811  -3.2672  -3.2654  -3.2370  -3.2358  -3.2354  -3.2322  -3.0813
    -3.0808  -3.0571  -3.0562  -3.0472  -3.0346  -3.0316  -3.0094  -3.0069
    -2.9588  -2.9572  -2.9426  -2.9409  -2.9211  -2.8750  -2.8729  -2.8540
    -2.8494  -2.8476  -2.8084  -2.8070  -2.8003  -2.7977  -2.7854  -2.7823
    -2.7455  -2.7452  -2.7236  -2.7224  -2.7200  -2.7185  -2.7142  -2.6406
    -2.6381  -2.6361  -2.6092  -2.6078  -2.5482  -2.5460  -2.5186  -2.5161
    -2.5052  -2.5048  -2.4972  -2.4693  -2.4684  -2.4586  -2.4418  -2.4186
    -2.4175  -2.4118  -2.3959  -2.3939  -2.3860  -2.3840  -2.3825  -2.3756
    -2.3706  -2.3248  -2.2946  -2.2932  -2.2796  -2.2652  -2.2583  -2.2574
    -2.2515  -2.2501  -2.2472  -2.2201  -2.2187  -2.2164  -2.2101  -2.2079
    -2.1916  -2.1655  -2.1646  -2.1636  -2.1625  -2.1610  -2.1153  -2.0894
    -2.0849  -2.0836  -2.0783  -2.0677  -2.0585  -2.0548  -2.0394  -2.0383
    -2.0081  -2.0053  -2.0040  -1.9895  -1.9857  -1.9841  -1.9548  -1.9506
    -1.9266  -1.9120  -1.9071  -1.9027  -1.9001  -1.8986  -1.8943  -1.8937
    -1.8914  -1.8862  -1.8818  -1.8702  -1.8626  -1.8325  -1.7420  -1.7366
    -1.7057  -1.7032  -1.6975  -1.6943  -1.6920  -1.6784  -1.6779  -1.6757
    -1.6696  -1.6534  -1.6485  -1.6446  -1.6430  -1.6329  -1.6253  -1.6132
    -1.6065  -1.5988  -1.5778  -1.5738  -1.5476  -1.5407  -1.5347  -1.5238
    -1.5084  -1.5059  -1.5045  -1.4883  -1.4746  -1.4729  -1.4667  -1.4660
    -1.4415  -1.4381  -1.4256  -1.4212  -1.3933  -1.3888  -1.3742  -1.3324
    -1.3302  -1.3194  -1.3124  -1.3037  -1.2907  -1.2878  -1.2569  -1.2555
    -1.2505  -1.2196  -1.2133  -1.2070  -1.1948  -1.1929  -1.1695  -1.1677
    -1.1565  -1.1365  -1.1348  -1.1331  -1.0725  -1.0710  -1.0610  -1.0581
    -1.0428  -1.0415  -1.0305  -1.0265  -1.0111  -0.9986  -0.9710  -0.9693
    -0.9569  -0.9291  -0.9220  -0.9167  -0.9084  -0.9080  -0.9064  -0.9034
    -0.8925  -0.8862  -0.8588  -0.8574  -0.8491  -0.8469  -0.8440  -0.8283
    -0.8205  -0.8053  -0.7923  -0.7825  -0.7662  -0.6878  -0.6748  -0.6696
    -0.6689  -0.6640  -0.6585  -0.6551  -0.6352  -0.6273  -0.6203  -0.6143
    -0.6042  -0.6002  -0.5951  -0.5760  -0.5735  -0.5644  -0.5622  -0.4908
    -0.4897  -0.4600  -0.4529  -0.4519  -0.4475  -0.4436  -0.4425  -0.4392
    -0.4298  -0.4254  -0.4067  -0.3879  -0.3718  -0.3563  -0.3533  -0.3446
    -0.3408  -0.3310  -0.3309  -0.3295  -0.3256  -0.3232  -0.3109  -0.3059
    -0.3017  -0.2759  -0.2731  -0.2707  -0.2607  -0.2591  -0.2413  -0.2102
    -0.2078  -0.2007  -0.1963  -0.1326  -0.1300  -0.0961  -0.0958  -0.0378
    -0.0373  -0.0367  -0.0147  -0.0101   0.2111   0.2354   0.5642   0.5647
     0.6484   0.6712   0.8462   0.8755   0.8912   1.0092   1.0188   1.4445
     1.4450   1.4635   1.7217   1.7542   1.7559   2.0203   2.0435   2.1080
     2.1117   2.1301   2.1568   2.3648   2.3681   2.4553   2.4567   2.5149
     2.5842   2.6156   2.7622   2.8598   3.2933   3.2961   3.2967   3.3132
     3.3521   3.3617   3.6477   3.6499   3.9199   3.9391   4.0112   4.3449
     4.3791   4.3934   4.5681   4.5742   4.6843   4.6915   4.7774   4.8959
     4.9013   5.0094   5.0152   5.0403   5.3170   5.3834   5.3894   5.5062
     5.5606   5.7678   5.7722   5.7867   5.8012   5.8042   5.8550   5.8627
     5.9236   6.0188   6.1663   6.2654   6.4527   6.4721   6.6003   6.6051
     6.6122   6.6210   6.6428   6.7443   6.8027   6.8552   6.8693   6.9845
     7.0222   7.0526   7.0781

          k =-0.2500-0.1443-0.1111 (136898 PWs)   bands (ev):

   -19.6341  -7.4092  -6.3889  -5.5971  -5.3128  -5.2474  -5.2456  -4.7092
    -4.7071  -4.5951  -4.5756  -4.4464  -4.4069  -4.3320  -4.3153  -4.2956
    -4.2612  -4.2605  -4.1370  -4.1239  -4.0897  -4.0828  -4.0236  -4.0100
    -3.9897  -3.9065  -3.9062  -3.8705  -3.8700  -3.8684  -3.8373  -3.8220
    -3.8203  -3.7159  -3.7144  -3.7087  -3.6896  -3.6772  -3.6768  -3.6653
    -3.6614  -3.6446  -3.6217  -3.6210  -3.6204  -3.6181  -3.5901  -3.5887
    -3.5704  -3.5703  -3.5507  -3.5177  -3.5143  -3.4798  -3.4690  -3.4621
    -3.4616  -3.4514  -3.3876  -3.3874  -3.3528  -3.3512  -3.3402  -3.2820
    -3.2818  -3.2670  -3.2650  -3.2368  -3.2364  -3.2358  -3.2340  -3.0812
    -3.0806  -3.0582  -3.0522  -3.0491  -3.0346  -3.0320  -3.0100  -3.0084
    -2.9587  -2.9581  -2.9421  -2.9417  -2.9208  -2.8759  -2.8711  -2.8540
    -2.8493  -2.8479  -2.8084  -2.8074  -2.8008  -2.7977  -2.7854  -2.7841
    -2.7452  -2.7450  -2.7250  -2.7210  -2.7202  -2.7183  -2.7134  -2.6404
    -2.6402  -2.6366  -2.6094  -2.6080  -2.5496  -2.5418  -2.5181  -2.5176
    -2.5047  -2.5037  -2.4973  -2.4701  -2.4672  -2.4586  -2.4414  -2.4209
    -2.4180  -2.4136  -2.3957  -2.3949  -2.3858  -2.3842  -2.3817  -2.3746
    -2.3707  -2.3247  -2.2946  -2.2928  -2.2777  -2.2647  -2.2596  -2.2572
    -2.2516  -2.2500  -2.2477  -2.2193  -2.2191  -2.2142  -2.2114  -2.2070
    -2.1920  -2.1674  -2.1645  -2.1636  -2.1625  -2.1616  -2.1159  -2.0862
    -2.0853  -2.0840  -2.0780  -2.0682  -2.0613  -2.0521  -2.0397  -2.0380
    -2.0076  -2.0048  -2.0042  -1.9932  -1.9857  -1.9813  -1.9539  -1.9515
    -1.9310  -1.9123  -1.9070  -1.9030  -1.9004  -1.8981  -1.8947  -1.8933
    -1.8911  -1.8856  -1.8787  -1.8761  -1.8644  -1.8199  -1.7411  -1.7367
    -1.7080  -1.7021  -1.6978  -1.6934  -1.6925  -1.6779  -1.6758  -1.6748
    -1.6711  -1.6621  -1.6484  -1.6449  -1.6432  -1.6312  -1.6218  -1.6150
    -1.6027  -1.5992  -1.5763  -1.5683  -1.5478  -1.5460  -1.5327  -1.5273
    -1.5091  -1.5067  -1.4991  -1.4883  -1.4745  -1.4730  -1.4656  -1.4644
    -1.4413  -1.4405  -1.4251  -1.4213  -1.3902  -1.3856  -1.3808  -1.3325
    -1.3308  -1.3198  -1.3145  -1.3101  -1.2909  -1.2876  -1.2568  -1.2543
    -1.2473  -1.2228  -1.2124  -1.2028  -1.1943  -1.1942  -1.1715  -1.1670
    -1.1612  -1.1360  -1.1346  -1.1318  -1.0712  -1.0707  -1.0597  -1.0552
    -1.0419  -1.0416  -1.0302  -1.0275  -1.0102  -0.9976  -0.9711  -0.9681
    -0.9589  -0.9303  -0.9201  -0.9186  -0.9088  -0.9081  -0.9078  -0.9026
    -0.8953  -0.8862  -0.8591  -0.8582  -0.8472  -0.8468  -0.8383  -0.8348
    -0.8200  -0.7993  -0.7939  -0.7760  -0.7698  -0.6888  -0.6745  -0.6695
    -0.6692  -0.6654  -0.6575  -0.6527  -0.6348  -0.6329  -0.6193  -0.6146
    -0.6032  -0.6026  -0.5947  -0.5751  -0.5711  -0.5682  -0.5637  -0.4910
    -0.4907  -0.4567  -0.4555  -0.4521  -0.4462  -0.4457  -0.4422  -0.4409
    -0.4315  -0.4189  -0.4098  -0.3878  -0.3727  -0.3556  -0.3542  -0.3432
    -0.3428  -0.3317  -0.3308  -0.3294  -0.3266  -0.3220  -0.3104  -0.3058
    -0.3016  -0.2758  -0.2754  -0.2678  -0.2610  -0.2577  -0.2410  -0.2097
    -0.2082  -0.1988  -0.1978  -0.1332  -0.1291  -0.0964  -0.0953  -0.0384
    -0.0373  -0.0355  -0.0185  -0.0103   0.2236   0.2269   0.5643   0.5644
     0.6588   0.6638   0.8401   0.8775   0.8872   1.0100   1.0174   1.4446
     1.4458   1.4610   1.7216   1.7542   1.7576   2.0320   2.0322   2.1096
     2.1105   2.1376   2.1493   2.3640   2.3707   2.4557   2.4560   2.5169
     2.5946   2.6030   2.7598   2.8627   3.2898   3.2964   3.3041   3.3060
     3.3536   3.3638   3.6483   3.6501   3.9285   3.9338   4.0138   4.3446
     4.3846   4.3880   4.5337   4.5927   4.6838   4.6914   4.7823   4.8839
     4.9051   5.0150   5.0157   5.0518   5.3162   5.3755   5.3965   5.5377
     5.5456   5.7512   5.7731   5.7764   5.8036   5.8048   5.8566   5.8722
     5.8729   5.9931   6.2368   6.3212   6.4400   6.4696   6.5977   6.6039
     6.6050   6.6231   6.6257   6.6857   6.8544   6.8619   6.8971   6.9639
     7.0037   7.0693   7.0754

          k = 0.2500 0.1443-0.1111 (136898 PWs)   bands (ev):

   -19.6341  -7.4092  -6.3889  -5.5971  -5.3128  -5.2474  -5.2456  -4.7092
    -4.7071  -4.5951  -4.5756  -4.4464  -4.4069  -4.3320  -4.3153  -4.2956
    -4.2612  -4.2605  -4.1370  -4.1239  -4.0897  -4.0828  -4.0236  -4.0100
    -3.9897  -3.9065  -3.9062  -3.8705  -3.8700  -3.8684  -3.8374  -3.8220
    -3.8203  -3.7159  -3.7144  -3.7087  -3.6896  -3.6772  -3.6768  -3.6653
    -3.6614  -3.6446  -3.6217  -3.6210  -3.6204  -3.6181  -3.5901  -3.5886
    -3.5704  -3.5703  -3.5507  -3.5177  -3.5143  -3.4798  -3.4690  -3.4621
    -3.4616  -3.4514  -3.3876  -3.3874  -3.3528  -3.3512  -3.3402  -3.2820
    -3.2818  -3.2670  -3.2650  -3.2368  -3.2364  -3.2358  -3.2340  -3.0812
    -3.0806  -3.0582  -3.0523  -3.0491  -3.0346  -3.0320  -3.0100  -3.0084
    -2.9587  -2.9581  -2.9421  -2.9417  -2.9208  -2.8759  -2.8711  -2.8540
    -2.8493  -2.8479  -2.8084  -2.8074  -2.8008  -2.7977  -2.7854  -2.7841
    -2.7452  -2.7450  -2.7250  -2.7210  -2.7202  -2.7183  -2.7134  -2.6404
    -2.6402  -2.6366  -2.6094  -2.6080  -2.5496  -2.5418  -2.5181  -2.5176
    -2.5047  -2.5037  -2.4973  -2.4701  -2.4672  -2.4586  -2.4414  -2.4209
    -2.4180  -2.4136  -2.3957  -2.3949  -2.3858  -2.3842  -2.3817  -2.3746
    -2.3707  -2.3247  -2.2947  -2.2928  -2.2777  -2.2647  -2.2596  -2.2572
    -2.2516  -2.2500  -2.2477  -2.2193  -2.2191  -2.2142  -2.2114  -2.2070
    -2.1920  -2.1674  -2.1645  -2.1636  -2.1625  -2.1617  -2.1159  -2.0862
    -2.0853  -2.0840  -2.0780  -2.0681  -2.0613  -2.0521  -2.0397  -2.0380
    -2.0076  -2.0048  -2.0042  -1.9932  -1.9857  -1.9813  -1.9539  -1.9515
    -1.9310  -1.9123  -1.9070  -1.9030  -1.9004  -1.8981  -1.8947  -1.8933
    -1.8911  -1.8856  -1.8787  -1.8760  -1.8644  -1.8199  -1.7411  -1.7368
    -1.7080  -1.7021  -1.6978  -1.6934  -1.6925  -1.6779  -1.6758  -1.6748
    -1.6711  -1.6621  -1.6484  -1.6449  -1.6432  -1.6312  -1.6218  -1.6150
    -1.6027  -1.5992  -1.5763  -1.5683  -1.5478  -1.5460  -1.5327  -1.5273
    -1.5091  -1.5067  -1.4991  -1.4883  -1.4745  -1.4730  -1.4656  -1.4644
    -1.4413  -1.4405  -1.4251  -1.4213  -1.3902  -1.3856  -1.3808  -1.3325
    -1.3308  -1.3198  -1.3145  -1.3101  -1.2909  -1.2876  -1.2568  -1.2543
    -1.2473  -1.2228  -1.2124  -1.2028  -1.1943  -1.1942  -1.1715  -1.1670
    -1.1612  -1.1360  -1.1346  -1.1318  -1.0712  -1.0707  -1.0597  -1.0552
    -1.0419  -1.0416  -1.0302  -1.0275  -1.0102  -0.9976  -0.9711  -0.9681
    -0.9589  -0.9303  -0.9201  -0.9186  -0.9088  -0.9081  -0.9078  -0.9026
    -0.8953  -0.8862  -0.8591  -0.8582  -0.8472  -0.8468  -0.8383  -0.8348
    -0.8200  -0.7993  -0.7939  -0.7760  -0.7698  -0.6888  -0.6745  -0.6695
    -0.6692  -0.6654  -0.6575  -0.6527  -0.6348  -0.6329  -0.6193  -0.6146
    -0.6032  -0.6026  -0.5947  -0.5751  -0.5711  -0.5682  -0.5636  -0.4910
    -0.4907  -0.4567  -0.4555  -0.4521  -0.4462  -0.4457  -0.4422  -0.4409
    -0.4315  -0.4189  -0.4098  -0.3878  -0.3727  -0.3556  -0.3542  -0.3432
    -0.3428  -0.3317  -0.3308  -0.3294  -0.3266  -0.3220  -0.3104  -0.3058
    -0.3016  -0.2758  -0.2754  -0.2678  -0.2610  -0.2577  -0.2410  -0.2097
    -0.2082  -0.1988  -0.1978  -0.1332  -0.1291  -0.0964  -0.0953  -0.0384
    -0.0373  -0.0355  -0.0185  -0.0103   0.2236   0.2269   0.5643   0.5644
     0.6588   0.6638   0.8401   0.8775   0.8872   1.0100   1.0174   1.4446
     1.4458   1.4610   1.7216   1.7542   1.7576   2.0320   2.0322   2.1096
     2.1105   2.1376   2.1493   2.3640   2.3707   2.4557   2.4560   2.5169
     2.5946   2.6030   2.7597   2.8627   3.2898   3.2964   3.3041   3.3060
     3.3536   3.3638   3.6483   3.6501   3.9285   3.9338   4.0138   4.3446
     4.3846   4.3880   4.5337   4.5927   4.6838   4.6914   4.7823   4.8839
     4.9052   5.0150   5.0157   5.0518   5.3162   5.3755   5.3965   5.5376
     5.5456   5.7515   5.7731   5.7760   5.8036   5.8046   5.8567   5.8723
     5.8729   5.9937   6.2369   6.3206   6.4386   6.4688   6.5951   6.6037
     6.6058   6.6227   6.6247   6.6876   6.8544   6.8619   6.8986   6.9654
     7.0090   7.0718   7.0771

          k = 0.0000-0.2887 0.1111 (136898 PWs)   bands (ev):

   -19.6341  -7.4092  -6.3889  -5.5969  -5.3128  -5.2474  -5.2461  -4.7097
    -4.7074  -4.5911  -4.5753  -4.4481  -4.4072  -4.3297  -4.3228  -4.2961
    -4.2623  -4.2606  -4.1369  -4.1140  -4.0902  -4.0831  -4.0294  -4.0105
    -3.9839  -3.9066  -3.9055  -3.8704  -3.8701  -3.8680  -3.8387  -3.8218
    -3.8197  -3.7151  -3.7146  -3.7091  -3.6940  -3.6775  -3.6766  -3.6655
    -3.6582  -3.6529  -3.6219  -3.6208  -3.6205  -3.6164  -3.5897  -3.5858
    -3.5705  -3.5695  -3.5589  -3.5168  -3.5088  -3.4822  -3.4693  -3.4619
    -3.4616  -3.4503  -3.3876  -3.3868  -3.3537  -3.3511  -3.3390  -3.2821
    -3.2812  -3.2671  -3.2652  -3.2370  -3.2361  -3.2354  -3.2322  -3.0813
    -3.0809  -3.0571  -3.0563  -3.0472  -3.0346  -3.0317  -3.0095  -3.0067
    -2.9589  -2.9572  -2.9426  -2.9409  -2.9210  -2.8752  -2.8725  -2.8540
    -2.8495  -2.8476  -2.8085  -2.8069  -2.8005  -2.7979  -2.7854  -2.7825
    -2.7453  -2.7451  -2.7238  -2.7222  -2.7199  -2.7187  -2.7139  -2.6407
    -2.6385  -2.6360  -2.6093  -2.6077  -2.5483  -2.5458  -2.5185  -2.5161
    -2.5049  -2.5044  -2.4973  -2.4693  -2.4682  -2.4586  -2.4417  -2.4193
    -2.4179  -2.4121  -2.3958  -2.3939  -2.3862  -2.3833  -2.3820  -2.3758
    -2.3706  -2.3247  -2.2944  -2.2933  -2.2793  -2.2655  -2.2583  -2.2574
    -2.2519  -2.2500  -2.2474  -2.2200  -2.2185  -2.2164  -2.2100  -2.2078
    -2.1915  -2.1655  -2.1647  -2.1635  -2.1624  -2.1610  -2.1155  -2.0896
    -2.0849  -2.0838  -2.0783  -2.0678  -2.0581  -2.0555  -2.0389  -2.0382
    -2.0080  -2.0054  -2.0038  -1.9874  -1.9857  -1.9842  -1.9578  -1.9496
    -1.9270  -1.9119  -1.9071  -1.9025  -1.9000  -1.8984  -1.8942  -1.8937
    -1.8916  -1.8863  -1.8812  -1.8706  -1.8639  -1.8293  -1.7418  -1.7391
    -1.7062  -1.7023  -1.6983  -1.6941  -1.6916  -1.6789  -1.6776  -1.6753
    -1.6700  -1.6543  -1.6485  -1.6448  -1.6436  -1.6329  -1.6241  -1.6141
    -1.6066  -1.5994  -1.5782  -1.5746  -1.5465  -1.5407  -1.5347  -1.5236
    -1.5082  -1.5055  -1.5040  -1.4882  -1.4747  -1.4729  -1.4669  -1.4663
    -1.4412  -1.4383  -1.4257  -1.4204  -1.3922  -1.3893  -1.3743  -1.3321
    -1.3302  -1.3193  -1.3125  -1.3045  -1.2910  -1.2877  -1.2568  -1.2558
    -1.2489  -1.2198  -1.2129  -1.2075  -1.1946  -1.1928  -1.1695  -1.1676
    -1.1576  -1.1366  -1.1349  -1.1336  -1.0726  -1.0712  -1.0607  -1.0586
    -1.0422  -1.0416  -1.0301  -1.0259  -1.0107  -0.9984  -0.9710  -0.9690
    -0.9575  -0.9292  -0.9215  -0.9169  -0.9086  -0.9081  -0.9068  -0.9032
    -0.8941  -0.8862  -0.8587  -0.8579  -0.8483  -0.8468  -0.8424  -0.8285
    -0.8209  -0.8042  -0.7931  -0.7820  -0.7669  -0.6876  -0.6749  -0.6695
    -0.6690  -0.6639  -0.6588  -0.6549  -0.6353  -0.6285  -0.6199  -0.6142
    -0.6038  -0.6002  -0.5954  -0.5754  -0.5736  -0.5645  -0.5630  -0.4907
    -0.4895  -0.4595  -0.4533  -0.4521  -0.4475  -0.4438  -0.4426  -0.4403
    -0.4296  -0.4237  -0.4070  -0.3878  -0.3726  -0.3562  -0.3534  -0.3446
    -0.3413  -0.3311  -0.3307  -0.3295  -0.3247  -0.3236  -0.3109  -0.3060
    -0.3018  -0.2758  -0.2729  -0.2702  -0.2606  -0.2587  -0.2414  -0.2102
    -0.2077  -0.2006  -0.1968  -0.1329  -0.1294  -0.0962  -0.0957  -0.0378
    -0.0373  -0.0365  -0.0158  -0.0101   0.2135   0.2347   0.5642   0.5646
     0.6502   0.6704   0.8446   0.8746   0.8915   1.0097   1.0186   1.4444
     1.4450   1.4639   1.7215   1.7541   1.7558   2.0225   2.0422   2.1084
     2.1112   2.1313   2.1554   2.3648   2.3676   2.4554   2.4566   2.5149
     2.5860   2.6137   2.7623   2.8593   3.2932   3.2960   3.2983   3.3124
     3.3529   3.3608   3.6477   3.6500   3.9206   3.9383   4.0120   4.3451
     4.3792   4.3920   4.5594   4.5778   4.6841   4.6918   4.7780   4.8963
     4.9004   5.0105   5.0170   5.0430   5.3165   5.3830   5.3907   5.5132
     5.5586   5.7652   5.7719   5.7830   5.8017   5.8047   5.8536   5.8639
     5.9095   6.0012   6.2211   6.2578   6.4518   6.4710   6.5995   6.6052
     6.6127   6.6184   6.6413   6.7208   6.8284   6.8564   6.8679   6.9811
     7.0130   7.0535   7.0862

          k = 0.0000 0.2887 0.1111 (136898 PWs)   bands (ev):

   -19.6341  -7.4092  -6.3889  -5.5969  -5.3128  -5.2474  -5.2461  -4.7097
    -4.7074  -4.5911  -4.5753  -4.4481  -4.4072  -4.3297  -4.3228  -4.2961
    -4.2622  -4.2606  -4.1369  -4.1140  -4.0902  -4.0831  -4.0294  -4.0105
    -3.9839  -3.9066  -3.9055  -3.8704  -3.8701  -3.8681  -3.8387  -3.8218
    -3.8197  -3.7151  -3.7146  -3.7091  -3.6940  -3.6775  -3.6765  -3.6655
    -3.6582  -3.6529  -3.6220  -3.6208  -3.6205  -3.6164  -3.5897  -3.5858
    -3.5705  -3.5695  -3.5589  -3.5168  -3.5088  -3.4822  -3.4693  -3.4619
    -3.4616  -3.4503  -3.3876  -3.3868  -3.3537  -3.3511  -3.3390  -3.2821
    -3.2812  -3.2671  -3.2652  -3.2370  -3.2361  -3.2354  -3.2322  -3.0813
    -3.0809  -3.0571  -3.0563  -3.0472  -3.0346  -3.0317  -3.0095  -3.0067
    -2.9589  -2.9572  -2.9426  -2.9409  -2.9210  -2.8752  -2.8725  -2.8540
    -2.8495  -2.8476  -2.8085  -2.8069  -2.8005  -2.7979  -2.7854  -2.7825
    -2.7453  -2.7451  -2.7238  -2.7222  -2.7199  -2.7187  -2.7139  -2.6407
    -2.6385  -2.6360  -2.6093  -2.6078  -2.5483  -2.5458  -2.5185  -2.5161
    -2.5049  -2.5044  -2.4973  -2.4693  -2.4682  -2.4586  -2.4417  -2.4193
    -2.4179  -2.4121  -2.3958  -2.3939  -2.3862  -2.3833  -2.3820  -2.3758
    -2.3706  -2.3247  -2.2944  -2.2933  -2.2793  -2.2655  -2.2583  -2.2574
    -2.2519  -2.2500  -2.2474  -2.2200  -2.2185  -2.2164  -2.2100  -2.2078
    -2.1915  -2.1655  -2.1647  -2.1635  -2.1625  -2.1610  -2.1155  -2.0896
    -2.0849  -2.0838  -2.0783  -2.0678  -2.0581  -2.0555  -2.0389  -2.0382
    -2.0080  -2.0054  -2.0038  -1.9874  -1.9857  -1.9842  -1.9578  -1.9496
    -1.9270  -1.9119  -1.9071  -1.9025  -1.9000  -1.8984  -1.8942  -1.8937
    -1.8916  -1.8863  -1.8812  -1.8706  -1.8639  -1.8293  -1.7418  -1.7391
    -1.7062  -1.7023  -1.6983  -1.6941  -1.6916  -1.6789  -1.6776  -1.6753
    -1.6700  -1.6543  -1.6485  -1.6448  -1.6436  -1.6329  -1.6241  -1.6141
    -1.6066  -1.5994  -1.5782  -1.5746  -1.5465  -1.5407  -1.5347  -1.5236
    -1.5082  -1.5055  -1.5040  -1.4882  -1.4747  -1.4729  -1.4669  -1.4663
    -1.4412  -1.4383  -1.4257  -1.4204  -1.3922  -1.3893  -1.3743  -1.3321
    -1.3302  -1.3193  -1.3125  -1.3045  -1.2910  -1.2877  -1.2568  -1.2558
    -1.2489  -1.2198  -1.2128  -1.2075  -1.1946  -1.1928  -1.1695  -1.1676
    -1.1576  -1.1366  -1.1349  -1.1336  -1.0726  -1.0712  -1.0607  -1.0586
    -1.0422  -1.0416  -1.0301  -1.0259  -1.0107  -0.9984  -0.9710  -0.9690
    -0.9575  -0.9292  -0.9215  -0.9169  -0.9086  -0.9081  -0.9068  -0.9032
    -0.8941  -0.8862  -0.8587  -0.8579  -0.8483  -0.8468  -0.8424  -0.8285
    -0.8209  -0.8042  -0.7931  -0.7820  -0.7669  -0.6876  -0.6749  -0.6695
    -0.6690  -0.6639  -0.6588  -0.6549  -0.6353  -0.6285  -0.6199  -0.6142
    -0.6038  -0.6002  -0.5954  -0.5754  -0.5736  -0.5645  -0.5630  -0.4907
    -0.4894  -0.4595  -0.4533  -0.4521  -0.4475  -0.4438  -0.4426  -0.4403
    -0.4296  -0.4237  -0.4070  -0.3878  -0.3726  -0.3562  -0.3534  -0.3446
    -0.3413  -0.3311  -0.3307  -0.3295  -0.3247  -0.3236  -0.3109  -0.3060
    -0.3018  -0.2758  -0.2729  -0.2702  -0.2606  -0.2587  -0.2414  -0.2102
    -0.2077  -0.2006  -0.1968  -0.1329  -0.1294  -0.0962  -0.0957  -0.0378
    -0.0373  -0.0365  -0.0158  -0.0101   0.2135   0.2347   0.5642   0.5646
     0.6502   0.6704   0.8446   0.8746   0.8915   1.0097   1.0186   1.4444
     1.4450   1.4639   1.7215   1.7541   1.7558   2.0225   2.0422   2.1084
     2.1112   2.1313   2.1554   2.3648   2.3676   2.4554   2.4566   2.5149
     2.5860   2.6137   2.7623   2.8593   3.2932   3.2960   3.2983   3.3124
     3.3529   3.3608   3.6477   3.6500   3.9206   3.9383   4.0120   4.3451
     4.3792   4.3920   4.5594   4.5778   4.6841   4.6918   4.7780   4.8963
     4.9004   5.0105   5.0170   5.0430   5.3165   5.3830   5.3908   5.5132
     5.5586   5.7651   5.7718   5.7832   5.8018   5.8048   5.8538   5.8638
     5.9095   6.0009   6.2214   6.2574   6.4508   6.4717   6.6006   6.6051
     6.6117   6.6180   6.6386   6.7198   6.8284   6.8564   6.8680   6.9848
     7.0175   7.0554   7.0891

     the Fermi energy is     1.5895 ev

!    total energy              =   -6604.43030063 Ry
     Harris-Foulkes estimate   =   -6604.43030062 Ry
     estimated scf accuracy    <          2.2E-09 Ry

     The total energy is the sum of the following terms:

     one-electron contribution =  -48807.57322465 Ry
     hartree contribution      =   24908.65980572 Ry
     xc contribution           =   -3204.99284539 Ry
     ewald contribution        =   20499.47322456 Ry
     smearing contrib. (-TS)   =       0.00273914 Ry

     convergence has been achieved in  22 iterations

     Writing output data file 5895396.save

     init_run     :    207.77s CPU    215.40s WALL (       1 calls)
     electrons    :  11024.83s CPU  11477.37s WALL (       1 calls)

     Called by init_run:
     wfcinit      :    177.97s CPU    184.85s WALL (       1 calls)
     potinit      :      8.72s CPU      9.15s WALL (       1 calls)

     Called by electrons:
     c_bands      :   9646.22s CPU  10014.31s WALL (      23 calls)
     sum_band     :   1136.28s CPU   1209.89s WALL (      23 calls)
     v_of_rho     :     58.79s CPU     66.58s WALL (      23 calls)
     newd         :    191.24s CPU    193.86s WALL (      23 calls)
     mix_rho      :      1.61s CPU      1.89s WALL (      23 calls)
     vdW_energy   :      6.04s CPU      6.53s WALL (      23 calls)
     vdW_ffts     :     25.44s CPU     29.54s WALL (      46 calls)
     vdW_v        :      9.02s CPU      9.70s WALL (      23 calls)

     Called by c_bands:
     init_us_2    :     11.68s CPU     11.99s WALL (     564 calls)
     cegterg      :   9391.61s CPU   9751.44s WALL (     276 calls)

     Called by *egterg:
     h_psi        :   3646.38s CPU   3966.91s WALL (    1665 calls)
     s_psi        :    479.16s CPU    481.99s WALL (    1665 calls)
     g_psi        :      6.33s CPU      6.30s WALL (    1377 calls)
     cdiaghg      :   2442.99s CPU   2449.11s WALL (    1641 calls)

     Called by h_psi:
     add_vuspsi   :    483.46s CPU    486.30s WALL (    1665 calls)

     General routines
     calbec       :   1135.81s CPU   1139.18s WALL (    1941 calls)
     fft          :    141.42s CPU    149.08s WALL (    1518 calls)
     ffts         :      0.86s CPU      1.02s WALL (      46 calls)
     fftw         :   2606.52s CPU   2960.25s WALL (  681176 calls)
     interpolate  :      2.24s CPU      2.67s WALL (      46 calls)
     davcio       :      0.00s CPU      0.21s WALL (      12 calls)

     Parallel routines
     fft_scatter  :   1926.13s CPU   2201.33s WALL (  682740 calls)

     PWSCF        :     3h 7m CPU        3h15m WALL


   This run was terminated on:   4:42:42   1Jul2015            

=------------------------------------------------------------------------------=
   JOB DONE.
=------------------------------------------------------------------------------=
