Setting SGE environment for SCC

     Program PWSCF v.5.1.2 starts on  1Jul2015 at 17:41:59 

     This program is part of the open-source Quantum ESPRESSO suite
     for quantum simulation of materials; please cite
         "P. Giannozzi et al., J. Phys.:Condens. Matter 21 395502 (2009);
          URL http://www.quantum-espresso.org", 
     in publications or presentations arising from this work. More details at
     http://www.quantum-espresso.org/quote

     Parallel version (MPI), running on    32 processors
     R & G space division:  proc/nbgrp/npool/nimage =      32
     Reading input from bridge.H2.Au5455.d.2.1.phi.0.psi.0.in
Warning: card &IONS ignored
Warning: card / ignored
Warning: card &CELL ignored
Warning: card / ignored

     Current dimensions of program PWSCF are:
     Max number of different atomic species (ntypx) = 10
     Max number of k-points (npk) =  40000
     Max angular momentum in pseudopotentials (lmaxx) =  3

     IMPORTANT: XC functional enforced from input :
     Exchange-correlation      = VDW-DF ( 1  4  4  0 1 0)
     Any further DFT definition will be discarded
     Please, verify this is what you really want


     Subspace diagonalization in iterative solution of the eigenvalue problem:
     a serial algorithm will be used


     Parallelization info
     --------------------
     sticks:   dense  smooth     PW     G-vecs:    dense   smooth      PW
     Min         445     223     58                96775    34191    4534
     Max         446     224     59                96790    34246    4540
     Sum       14269    7147   1867              3097177  1095093  145167


     Title: 
     bridge.H2.Au5455.d.2.1.phi.0.psi.0                                         


     bravais-lattice index     =            4
     lattice parameter (alat)  =      22.7436  a.u.
     unit-cell volume          =   22924.1508 (a.u.)^3
     number of atoms/cell      =           67
     number of atomic types    =            3
     number of electrons       =       712.00
     number of Kohn-Sham states=          427
     kinetic-energy cutoff     =      50.0000  Ry
     charge density cutoff     =     400.0000  Ry
     convergence threshold     =      1.0E-08
     mixing beta               =       0.7000
     number of iterations used =            8  plain     mixing
     Exchange-correlation      = VDW-DF ( 1  4  4  0 1 0)

     celldm(1)=  22.743643  celldm(2)=   0.000000  celldm(3)=   2.250000
     celldm(4)=   0.000000  celldm(5)=   0.000000  celldm(6)=   0.000000

     crystal axes: (cart. coord. in units of alat)
               a(1) = (   1.000000   0.000000   0.000000 )  
               a(2) = (  -0.500000   0.866025   0.000000 )  
               a(3) = (   0.000000   0.000000   2.250000 )  

     reciprocal axes: (cart. coord. in units 2 pi/alat)
               b(1) = (  1.000000  0.577350 -0.000000 )  
               b(2) = (  0.000000  1.154701  0.000000 )  
               b(3) = (  0.000000 -0.000000  0.444444 )  


     PseudoPot. # 1 for Au read from file:
     /home/scc/andrejb/qe/pseudo/Au.pbe-nd-van.UPF
     MD5 check sum: 458681b50f36d87ef23c61b04bba420a
     Pseudo is Ultrasoft + core correction, Zval = 11.0
     Generated by new atomic code, or converted to UPF format
     Using radial grid of  985 points,  3 beta functions with: 
                l(1) =   1
                l(2) =   2
                l(3) =   2
     Q(r) pseudized with  8 coefficients,  rinner =    1.100   1.100   1.100
                                                       1.100   1.100

     PseudoPot. # 2 for H  read from file:
     /home/scc/andrejb/qe/pseudo/H.pbe-van_ak.UPF
     MD5 check sum: 403db7282739603aa925980fa9b8608d
     Pseudo is Ultrasoft, Zval =  1.0
     Generated by new atomic code, or converted to UPF format
     Using radial grid of  615 points,  1 beta functions with: 
                l(1) =   0
     Q(r) pseudized with  8 coefficients,  rinner =    0.800

     PseudoPot. # 3 for O  read from file:
     /home/scc/andrejb/qe/pseudo/O.pbe-van_ak.UPF
     MD5 check sum: 4b8c549914a63cae506c6ff22b5af4fe
     Pseudo is Ultrasoft, Zval =  6.0
     Generated by new atomic code, or converted to UPF format
     Using radial grid of  737 points,  4 beta functions with: 
                l(1) =   0
                l(2) =   0
                l(3) =   1
                l(4) =   1
     Q(r) pseudized with  8 coefficients,  rinner =    0.800   0.800   0.800


     vdW kernel table read from file vdW_kernel_table
     MD5 check sum: 48e77a2e26edf626eeb0eaa751ad5cac

     atomic species   valence    mass     pseudopotential
        Au            11.00   196.96657     Au( 1.00)
        H              1.00     1.01000     H ( 1.00)
        O              6.00    16.00000     O ( 1.00)

     No symmetry found



   Cartesian axes

     site n.     atom                  positions (alat units)
         1           O   tau(   1) = (   0.3100235   0.3039441   0.8647781  )
         2           H   tau(   2) = (   0.2915728   0.2885783   0.7875031  )
         3           H   tau(   3) = (   0.2571742   0.2599499   0.9074067  )
         4           Au  tau(   4) = (   0.3540481   0.6132292   0.0000000  )
         5           Au  tau(   5) = (   0.4790062   0.3967954   0.0000000  )
         6           Au  tau(   6) = (   0.6039644   0.1803616   0.0000000  )
         7           Au  tau(   7) = (   0.7289225  -0.0360723   0.0000000  )
         8           Au  tau(   8) = (   0.1041318   0.6132292   0.0000000  )
         9           Au  tau(   9) = (   0.2290899   0.3967954   0.0000000  )
        10           Au  tau(  10) = (   0.3540481   0.1803616   0.0000000  )
        11           Au  tau(  11) = (   0.4790062  -0.0360723   0.0000000  )
        12           Au  tau(  12) = (  -0.1457845   0.6132292   0.0000000  )
        13           Au  tau(  13) = (  -0.0208264   0.3967954   0.0000000  )
        14           Au  tau(  14) = (   0.1041318   0.1803616   0.0000000  )
        15           Au  tau(  15) = (   0.2290899  -0.0360723   0.0000000  )
        16           Au  tau(  16) = (  -0.3957008   0.6132292   0.0000000  )
        17           Au  tau(  17) = (  -0.2707426   0.3967954   0.0000000  )
        18           Au  tau(  18) = (  -0.1457845   0.1803616   0.0000000  )
        19           Au  tau(  19) = (  -0.0208264  -0.0360723   0.0000000  )
        20           Au  tau(  20) = (   0.4790062   0.6853738   0.2040557  )
        21           Au  tau(  21) = (   0.6039644   0.4689400   0.2040557  )
        22           Au  tau(  22) = (   0.7289225   0.2525061   0.2040557  )
        23           Au  tau(  23) = (   0.8538806   0.0360723   0.2040557  )
        24           Au  tau(  24) = (   0.2290899   0.6853738   0.2040557  )
        25           Au  tau(  25) = (   0.3540481   0.4689400   0.2040557  )
        26           Au  tau(  26) = (   0.4790062   0.2525061   0.2040557  )
        27           Au  tau(  27) = (   0.6039644   0.0360723   0.2040557  )
        28           Au  tau(  28) = (  -0.0208264   0.6853738   0.2040557  )
        29           Au  tau(  29) = (   0.1041318   0.4689400   0.2040557  )
        30           Au  tau(  30) = (   0.2290899   0.2525061   0.2040557  )
        31           Au  tau(  31) = (   0.3540481   0.0360723   0.2040557  )
        32           Au  tau(  32) = (  -0.2707426   0.6853738   0.2040557  )
        33           Au  tau(  33) = (  -0.1457845   0.4689400   0.2040557  )
        34           Au  tau(  34) = (  -0.0208264   0.2525061   0.2040557  )
        35           Au  tau(  35) = (   0.1041318   0.0360723   0.2040557  )
        36           Au  tau(  36) = (   0.3541162   0.7576593   0.4066483  )
        37           Au  tau(  37) = (   0.4791000   0.5411421   0.4066695  )
        38           Au  tau(  38) = (   0.6040570   0.3246862   0.4066617  )
        39           Au  tau(  39) = (   0.7290270   0.1081684   0.4066529  )
        40           Au  tau(  40) = (   0.1041162   0.7576236   0.4066247  )
        41           Au  tau(  41) = (   0.2291001   0.5411063   0.4066455  )
        42           Au  tau(  42) = (   0.3540567   0.3246505   0.4066380  )
        43           Au  tau(  43) = (   0.4790276   0.1081324   0.4066292  )
        44           Au  tau(  44) = (  -0.1458201   0.7576104   0.4066224  )
        45           Au  tau(  45) = (  -0.0208365   0.5410930   0.4066438  )
        46           Au  tau(  46) = (   0.1041202   0.3246372   0.4066359  )
        47           Au  tau(  47) = (   0.2290908   0.1081193   0.4066273  )
        48           Au  tau(  48) = (  -0.3958167   0.7575791   0.4065812  )
        49           Au  tau(  49) = (  -0.2708328   0.5410617   0.4066025  )
        50           Au  tau(  50) = (  -0.1458763   0.3246061   0.4065947  )
        51           Au  tau(  51) = (  -0.0209056   0.1080882   0.4065858  )
        52           Au  tau(  52) = (   0.3541085   0.6133344   0.6129762  )
        53           Au  tau(  53) = (   0.4790780   0.3968269   0.6129968  )
        54           Au  tau(  54) = (   0.6040356   0.1803811   0.6129859  )
        55           Au  tau(  55) = (   0.7290165  -0.0361221   0.6129385  )
        56           Au  tau(  56) = (   0.1041243   0.6133091   0.6130022  )
        57           Au  tau(  57) = (   0.2290941   0.3968013   0.6130241  )
        58           Au  tau(  58) = (   0.3540515   0.1803552   0.6130121  )
        59           Au  tau(  59) = (   0.4790323  -0.0361475   0.6129659  )
        60           Au  tau(  60) = (  -0.1458030   0.6133014   0.6129980  )
        61           Au  tau(  61) = (  -0.0208339   0.3967936   0.6130188  )
        62           Au  tau(  62) = (   0.1041239   0.1803477   0.6130083  )
        63           Au  tau(  63) = (   0.2291046  -0.0361554   0.6129607  )
        64           Au  tau(  64) = (  -0.3957908   0.6132739   0.6129471  )
        65           Au  tau(  65) = (  -0.2708208   0.3967658   0.6129688  )
        66           Au  tau(  66) = (  -0.1458636   0.1803200   0.6129569  )
        67           Au  tau(  67) = (  -0.0208823  -0.0361826   0.6129110  )

     number of k points=    12  Marzari-Vanderbilt smearing, width (Ry)=  0.0200
                       cart. coord. in units 2pi/alat
        k(    1) = (   0.2500000   0.4330127   0.1111111), wk =   0.1666667
        k(    2) = (   0.2500000  -0.1443376   0.1111111), wk =   0.1666667
        k(    3) = (  -0.2500000  -0.4330127   0.1111111), wk =   0.1666667
        k(    4) = (  -0.2500000   0.4330127  -0.1111111), wk =   0.1666667
        k(    5) = (   0.2500000  -0.4330127  -0.1111111), wk =   0.1666667
        k(    6) = (   0.5000000   0.0000000   0.1111111), wk =   0.1666667
        k(    7) = (  -0.5000000   0.0000000   0.1111111), wk =   0.1666667
        k(    8) = (  -0.2500000   0.1443376   0.1111111), wk =   0.1666667
        k(    9) = (  -0.2500000  -0.1443376  -0.1111111), wk =   0.1666667
        k(   10) = (   0.2500000   0.1443376  -0.1111111), wk =   0.1666667
        k(   11) = (   0.0000000  -0.2886751   0.1111111), wk =   0.1666667
        k(   12) = (   0.0000000   0.2886751   0.1111111), wk =   0.1666667

     Dense  grid:  3097177 G-vectors     FFT dimensions: ( 150, 150, 360)

     Smooth grid:  1095093 G-vectors     FFT dimensions: ( 108, 108, 240)

     Largest allocated arrays     est. size (Mb)     dimensions
        Kohn-Sham Wavefunctions        28.01 Mb     (    4299,  427)
        NL pseudopotentials            55.23 Mb     (    4299,  842)
        Each V/rho on FFT grid          4.12 Mb     (  270000)
        Each G-vector array             0.74 Mb     (   96788)
        G-vector shells                 0.16 Mb     (   21404)
     Largest temporary arrays     est. size (Mb)     dimensions
        Auxiliary wavefunctions       112.04 Mb     (    4299, 1708)
        Each subspace H/S matrix       44.51 Mb     (    1708, 1708)
        Each <psi_i|beta_j> matrix      5.49 Mb     (     842,  427)
        Arrays for rho mixing          32.96 Mb     (  270000,    8)

     Initial potential from superposition of free atoms
     Check: negative starting charge=   -1.730282

     starting charge  711.25682, renormalised to  712.00000

     negative rho (up, down):  1.732E+00 0.000E+00


     ************************************************************************
     *
     * You are using vdW-DF for exchange-correlation in this calculation.
     * Please cite the following three references that made this development
     * possible:
     *
     *   M. Dion, H. Rydberg, E. Schroder, D. C. Langreth, and
     *   B. I. Lundqvist, Phys. Rev. Lett. 92, 246401 (2004).
     *
     *   T. Thonhauser, V. R. Cooper, S. Li, A. Puzder, P. Hyldgaard, and
     *   D. C. Langreth, Phys. Rev. B 76, 125112 (2007).
     *
     *   G. Roman-Perez and J. M. Soler, Phys. Rev. Lett. 103, 096102 (2009).
     *
     *
     * If you are using vdW-DF2, please also cite:
     *
     *   K. Lee, E. D. Murray, L. Kong, B. I. Lundqvist, and
     *   D. C. Langreth, Phys. Rev. B 82, 081101(R) (2010).
     *
     *
     * If you are calculating the stress with vdW-DF, please also cite:
     *
     *   R. Sabatini, E. Kucukbenli, B. Kolb, T. Thonhauser, and
     *   S. de Gironcoli, J. Phys.: Condens. Matter 24, 424209 (2012).
     *
     ************************************************************************

     Carrying out vdW-DF run using the following parameters:

     Nqs =      20    Nr_points =    1024   r_max =   100.000
     q_mesh =
               0.00001000     0.04494208     0.09755937     0.15916263
               0.23128650     0.31572767     0.41458969     0.53033537
               0.66584808     0.82450364     1.01025438     1.22772762
               1.48234092     1.78043706     2.12944203     2.53805004
               3.01644009     3.57652955     4.23227104     5.00000000

     Gradients computed in reciprocal space

     ************************************************************************


     Starting wfc are  582 randomized atomic wfcs

     total cpu time spent up to now is      216.6 secs

     Self-consistent Calculation

     iteration #  1     ecut=    50.00 Ry     beta=0.70
     Davidson diagonalization with overlap
     ethr =  1.00E-02,  avg # of iterations =  3.0

     Threshold (ethr) on eigenvalues was too large:
     Diagonalizing with lowered threshold

     Davidson diagonalization with overlap
     ethr =  3.41E-04,  avg # of iterations =  3.7

     negative rho (up, down):  1.727E+00 0.000E+00

     total cpu time spent up to now is     1079.5 secs

     total energy              =   -6602.81535601 Ry
     Harris-Foulkes estimate   =   -6605.02387693 Ry
     estimated scf accuracy    <       2.77043989 Ry

     iteration #  2     ecut=    50.00 Ry     beta=0.70
     Davidson diagonalization with overlap
     ethr =  3.89E-04,  avg # of iterations = 11.5

     negative rho (up, down):  1.727E+00 0.000E+00

     total cpu time spent up to now is     2291.3 secs

     total energy              =   -6597.08926438 Ry
     Harris-Foulkes estimate   =   -6609.96759495 Ry
     estimated scf accuracy    <      70.58915000 Ry

     iteration #  3     ecut=    50.00 Ry     beta=0.70
     Davidson diagonalization with overlap
     ethr =  3.89E-04,  avg # of iterations =  6.3

     negative rho (up, down):  1.737E+00 0.000E+00

     total cpu time spent up to now is     3142.0 secs

     total energy              =   -6603.19585149 Ry
     Harris-Foulkes estimate   =   -6604.99570695 Ry
     estimated scf accuracy    <       8.08522864 Ry

     iteration #  4     ecut=    50.00 Ry     beta=0.70
     Davidson diagonalization with overlap
     ethr =  3.89E-04,  avg # of iterations =  7.0

     negative rho (up, down):  1.739E+00 0.000E+00

     total cpu time spent up to now is     3656.7 secs

     total energy              =   -6603.71631682 Ry
     Harris-Foulkes estimate   =   -6604.98389753 Ry
     estimated scf accuracy    <      10.38549399 Ry

     iteration #  5     ecut=    50.00 Ry     beta=0.70
     Davidson diagonalization with overlap
     ethr =  3.89E-04,  avg # of iterations =  6.7

     negative rho (up, down):  1.748E+00 0.000E+00

     total cpu time spent up to now is     4136.1 secs

     total energy              =   -6604.26947006 Ry
     Harris-Foulkes estimate   =   -6604.67285879 Ry
     estimated scf accuracy    <       3.24479864 Ry

     iteration #  6     ecut=    50.00 Ry     beta=0.70
     Davidson diagonalization with overlap
     ethr =  3.89E-04,  avg # of iterations =  2.6

     negative rho (up, down):  1.752E+00 0.000E+00

     total cpu time spent up to now is     4520.3 secs

     total energy              =   -6604.42181777 Ry
     Harris-Foulkes estimate   =   -6604.46857372 Ry
     estimated scf accuracy    <       0.15013528 Ry

     iteration #  7     ecut=    50.00 Ry     beta=0.70
     Davidson diagonalization with overlap
     ethr =  2.11E-05,  avg # of iterations = 12.7

     negative rho (up, down):  1.754E+00 0.000E+00

     total cpu time spent up to now is     5165.1 secs

     total energy              =   -6604.42878138 Ry
     Harris-Foulkes estimate   =   -6604.45717746 Ry
     estimated scf accuracy    <       0.12723620 Ry

     iteration #  8     ecut=    50.00 Ry     beta=0.70
     Davidson diagonalization with overlap
     ethr =  1.79E-05,  avg # of iterations =  3.5

     negative rho (up, down):  1.756E+00 0.000E+00

     total cpu time spent up to now is     5579.1 secs

     total energy              =   -6604.43172191 Ry
     Harris-Foulkes estimate   =   -6604.44520772 Ry
     estimated scf accuracy    <       0.05292827 Ry

     iteration #  9     ecut=    50.00 Ry     beta=0.70
     Davidson diagonalization with overlap
     ethr =  7.43E-06,  avg # of iterations =  5.0

     negative rho (up, down):  1.756E+00 0.000E+00

     total cpu time spent up to now is     6028.3 secs

     total energy              =   -6604.43135019 Ry
     Harris-Foulkes estimate   =   -6604.43780816 Ry
     estimated scf accuracy    <       0.02335559 Ry

     iteration # 10     ecut=    50.00 Ry     beta=0.70
     Davidson diagonalization with overlap
     ethr =  3.28E-06,  avg # of iterations =  5.5

     negative rho (up, down):  1.757E+00 0.000E+00

     total cpu time spent up to now is     6466.0 secs

     total energy              =   -6604.43090707 Ry
     Harris-Foulkes estimate   =   -6604.43378675 Ry
     estimated scf accuracy    <       0.00998609 Ry

     iteration # 11     ecut=    50.00 Ry     beta=0.70
     Davidson diagonalization with overlap
     ethr =  1.40E-06,  avg # of iterations =  4.5

     negative rho (up, down):  1.757E+00 0.000E+00

     total cpu time spent up to now is     6891.1 secs

     total energy              =   -6604.43075138 Ry
     Harris-Foulkes estimate   =   -6604.43209293 Ry
     estimated scf accuracy    <       0.00509042 Ry

     iteration # 12     ecut=    50.00 Ry     beta=0.70
     Davidson diagonalization with overlap
     ethr =  7.15E-07,  avg # of iterations =  3.7

     negative rho (up, down):  1.758E+00 0.000E+00

     total cpu time spent up to now is     7278.2 secs

     total energy              =   -6604.43057226 Ry
     Harris-Foulkes estimate   =   -6604.43123631 Ry
     estimated scf accuracy    <       0.00116429 Ry

     iteration # 13     ecut=    50.00 Ry     beta=0.70
     Davidson diagonalization with overlap
     ethr =  1.64E-07,  avg # of iterations =  9.8

     negative rho (up, down):  1.758E+00 0.000E+00

     total cpu time spent up to now is     7859.7 secs

     total energy              =   -6604.43074827 Ry
     Harris-Foulkes estimate   =   -6604.43092574 Ry
     estimated scf accuracy    <       0.00054384 Ry

     iteration # 14     ecut=    50.00 Ry     beta=0.70
     Davidson diagonalization with overlap
     ethr =  7.64E-08,  avg # of iterations =  2.0

     negative rho (up, down):  1.758E+00 0.000E+00

     total cpu time spent up to now is     8239.2 secs

     total energy              =   -6604.43081909 Ry
     Harris-Foulkes estimate   =   -6604.43088082 Ry
     estimated scf accuracy    <       0.00023750 Ry

     iteration # 15     ecut=    50.00 Ry     beta=0.70
     Davidson diagonalization with overlap
     ethr =  3.34E-08,  avg # of iterations =  2.0

     negative rho (up, down):  1.757E+00 0.000E+00

     total cpu time spent up to now is     8625.0 secs

     total energy              =   -6604.43084286 Ry
     Harris-Foulkes estimate   =   -6604.43086644 Ry
     estimated scf accuracy    <       0.00009357 Ry

     iteration # 16     ecut=    50.00 Ry     beta=0.70
     Davidson diagonalization with overlap
     ethr =  1.31E-08,  avg # of iterations =  2.0

     negative rho (up, down):  1.757E+00 0.000E+00

     total cpu time spent up to now is     9013.5 secs

     total energy              =   -6604.43084979 Ry
     Harris-Foulkes estimate   =   -6604.43085738 Ry
     estimated scf accuracy    <       0.00003348 Ry

     iteration # 17     ecut=    50.00 Ry     beta=0.70
     Davidson diagonalization with overlap
     ethr =  4.70E-09,  avg # of iterations =  2.0

     negative rho (up, down):  1.757E+00 0.000E+00

     total cpu time spent up to now is     9383.7 secs

     total energy              =   -6604.43085106 Ry
     Harris-Foulkes estimate   =   -6604.43086030 Ry
     estimated scf accuracy    <       0.00009712 Ry

     iteration # 18     ecut=    50.00 Ry     beta=0.70
     Davidson diagonalization with overlap
     ethr =  4.70E-09,  avg # of iterations =  1.0

     negative rho (up, down):  1.757E+00 0.000E+00

     total cpu time spent up to now is     9743.2 secs

     total energy              =   -6604.43085527 Ry
     Harris-Foulkes estimate   =   -6604.43085636 Ry
     estimated scf accuracy    <       0.00000308 Ry

     iteration # 19     ecut=    50.00 Ry     beta=0.70
     Davidson diagonalization with overlap
     ethr =  4.33E-10,  avg # of iterations =  2.0

     negative rho (up, down):  1.757E+00 0.000E+00

     total cpu time spent up to now is    10152.8 secs

     total energy              =   -6604.43085573 Ry
     Harris-Foulkes estimate   =   -6604.43085615 Ry
     estimated scf accuracy    <       0.00000179 Ry

     iteration # 20     ecut=    50.00 Ry     beta=0.70
     Davidson diagonalization with overlap
     ethr =  2.51E-10,  avg # of iterations =  2.0

     negative rho (up, down):  1.757E+00 0.000E+00

     total cpu time spent up to now is    10534.5 secs

     total energy              =   -6604.43085597 Ry
     Harris-Foulkes estimate   =   -6604.43085603 Ry
     estimated scf accuracy    <       0.00000035 Ry

     iteration # 21     ecut=    50.00 Ry     beta=0.70
     Davidson diagonalization with overlap
     ethr =  4.92E-11,  avg # of iterations =  2.0

     negative rho (up, down):  1.757E+00 0.000E+00

     total cpu time spent up to now is    10927.7 secs

     total energy              =   -6604.43085602 Ry
     Harris-Foulkes estimate   =   -6604.43085606 Ry
     estimated scf accuracy    <       0.00000022 Ry

     iteration # 22     ecut=    50.00 Ry     beta=0.70
     Davidson diagonalization with overlap
     ethr =  3.14E-11,  avg # of iterations =  2.0

     negative rho (up, down):  1.757E+00 0.000E+00

     total cpu time spent up to now is    11299.7 secs

     total energy              =   -6604.43085605 Ry
     Harris-Foulkes estimate   =   -6604.43085606 Ry
     estimated scf accuracy    <       0.00000001 Ry

     iteration # 23     ecut=    50.00 Ry     beta=0.70
     Davidson diagonalization with overlap
     ethr =  1.75E-12,  avg # of iterations =  3.5

     negative rho (up, down):  1.757E+00 0.000E+00

     total cpu time spent up to now is    11861.3 secs

     total energy              =   -6604.43085605 Ry
     Harris-Foulkes estimate   =   -6604.43085606 Ry
     estimated scf accuracy    <       0.00000002 Ry

     iteration # 24     ecut=    50.00 Ry     beta=0.70
     Davidson diagonalization with overlap
     ethr =  1.75E-12,  avg # of iterations =  3.0

     negative rho (up, down):  1.757E+00 0.000E+00

     total cpu time spent up to now is    12313.7 secs

     total energy              =   -6604.43085606 Ry
     Harris-Foulkes estimate   =   -6604.43085606 Ry
     estimated scf accuracy    <       0.00000002 Ry

     iteration # 25     ecut=    50.00 Ry     beta=0.70
     Davidson diagonalization with overlap
     ethr =  1.75E-12,  avg # of iterations =  2.0

     negative rho (up, down):  1.757E+00 0.000E+00

     total cpu time spent up to now is    12699.2 secs

     End of self-consistent calculation

          k = 0.2500 0.4330 0.1111 (136853 PWs)   bands (ev):

   -18.6458  -6.5840  -6.3812  -5.9865  -5.9849  -5.3076  -4.9759  -4.9751
    -4.9363  -4.9353  -4.5755  -4.5751  -4.4769  -4.4764  -4.4626  -4.4399
    -4.4178  -4.3097  -4.3084  -4.2847  -4.2415  -4.2411  -4.1731  -4.1725
    -4.1663  -4.1653  -4.1442  -4.1390  -4.1375  -4.0705  -4.0650  -4.0363
    -4.0357  -4.0239  -4.0237  -4.0003  -4.0002  -3.9778  -3.9695  -3.9692
    -3.9432  -3.8908  -3.8906  -3.8427  -3.8420  -3.7856  -3.7844  -3.7304
    -3.7289  -3.7281  -3.7281  -3.6925  -3.6579  -3.6555  -3.6471  -3.6460
    -3.6455  -3.6181  -3.6147  -3.6065  -3.5474  -3.5463  -3.5382  -3.5188
    -3.5114  -3.4399  -3.4388  -3.4089  -3.4049  -3.3790  -3.3778  -3.3636
    -3.3474  -3.2909  -3.2878  -3.2701  -3.2700  -3.2219  -3.2149  -3.2131
    -3.1742  -3.1482  -3.1425  -3.1348  -3.1342  -3.1246  -3.1216  -3.1149
    -3.1134  -3.1041  -3.0628  -3.0249  -3.0238  -3.0111  -3.0099  -2.9834
    -2.9755  -2.9748  -2.9535  -2.9115  -2.9067  -2.9000  -2.8605  -2.8532
    -2.8454  -2.8408  -2.8239  -2.8118  -2.7880  -2.7751  -2.7453  -2.7329
    -2.7230  -2.7140  -2.7008  -2.6938  -2.6513  -2.6501  -2.6176  -2.5951
    -2.5938  -2.5704  -2.5676  -2.5586  -2.5572  -2.5486  -2.5259  -2.5240
    -2.4807  -2.4802  -2.4786  -2.4638  -2.4628  -2.4561  -2.4491  -2.4461
    -2.4450  -2.4442  -2.4384  -2.4287  -2.4263  -2.4147  -2.3913  -2.3887
    -2.3883  -2.3861  -2.3852  -2.3830  -2.3814  -2.3558  -2.3540  -2.3388
    -2.3374  -2.3203  -2.3199  -2.3109  -2.3107  -2.3090  -2.3076  -2.2911
    -2.2883  -2.2870  -2.2853  -2.2701  -2.2436  -2.2424  -2.2024  -2.2020
    -2.1790  -2.1780  -2.1512  -2.1491  -2.1222  -2.1220  -2.1048  -2.1005
    -2.0734  -2.0540  -2.0519  -2.0472  -2.0449  -2.0412  -2.0345  -2.0325
    -2.0066  -2.0018  -1.9941  -1.9346  -1.9308  -1.9290  -1.9265  -1.9261
    -1.8928  -1.8717  -1.8705  -1.8439  -1.8423  -1.7851  -1.7832  -1.7534
    -1.7361  -1.7343  -1.6744  -1.6738  -1.6637  -1.6614  -1.6519  -1.6501
    -1.6465  -1.6395  -1.6366  -1.5830  -1.5803  -1.5717  -1.5691  -1.5678
    -1.5516  -1.5484  -1.5141  -1.5138  -1.4981  -1.4973  -1.4958  -1.4889
    -1.4838  -1.4761  -1.4736  -1.4551  -1.4548  -1.4156  -1.4119  -1.4043
    -1.4010  -1.3825  -1.3669  -1.3270  -1.3244  -1.2982  -1.2946  -1.2935
    -1.2646  -1.2154  -1.2143  -1.2105  -1.2094  -1.2080  -1.2040  -1.1957
    -1.1786  -1.1758  -1.1385  -1.1348  -1.1076  -1.1052  -1.0993  -1.0988
    -1.0926  -1.0781  -1.0759  -1.0741  -1.0714  -1.0701  -1.0370  -1.0327
    -1.0308  -1.0301  -1.0063  -0.9995  -0.9963  -0.9729  -0.9698  -0.9633
    -0.9217  -0.9136  -0.9100  -0.8855  -0.8683  -0.8616  -0.8564  -0.8533
    -0.8479  -0.8474  -0.8448  -0.8364  -0.8329  -0.8128  -0.8088  -0.8057
    -0.8036  -0.8018  -0.7777  -0.7649  -0.7640  -0.7540  -0.7416  -0.7338
    -0.7301  -0.7206  -0.7087  -0.6628  -0.6590  -0.6527  -0.6523  -0.6499
    -0.6469  -0.6336  -0.6252  -0.6194  -0.6171  -0.6156  -0.6146  -0.5927
    -0.5744  -0.5735  -0.5706  -0.5637  -0.5600  -0.5573  -0.5560  -0.5448
    -0.5383  -0.5376  -0.5159  -0.4959  -0.4949  -0.4867  -0.4827  -0.4810
    -0.4074  -0.4044  -0.4024  -0.4007  -0.3934  -0.3881  -0.3558  -0.3445
    -0.3436  -0.3122  -0.3115  -0.3067  -0.1928  -0.1883  -0.0887   0.3263
     0.3275   0.3313   0.3316   0.3939   0.3984   0.7773   0.7815   0.8222
     0.8234   0.9376   1.0135   1.1231   1.1271   1.3490   1.3526   1.9762
     1.9807   2.1383   2.1420   2.2746   2.2778   2.3764   2.3767   2.5307
     2.7674   2.7834   2.8928   3.1158   3.1207   3.1980   3.1994   3.2973
     3.3158   3.5196   3.5281   3.5702   3.7718   3.7742   3.8363   3.8394
     4.0910   4.1000   4.1034   4.3422   4.3826   4.3851   4.4294   4.7602
     4.7685   4.7934   4.9317   5.1034   5.1050   5.1665   5.1896   5.5369
     5.8143   5.8865   5.8909   5.9012   5.9239   5.9605   5.9683   6.0661
     6.0799   6.0997   6.1244   6.1342   6.1411   6.1636   6.1725   6.1883
     6.1918   6.4519   6.5872   6.7309   6.7555   6.7856   6.8382   6.8434
     6.8510   6.9546   7.0307

          k = 0.2500-0.1443 0.1111 (136898 PWs)   bands (ev):

   -18.6458  -6.6218  -6.5525  -5.8035  -5.5108  -5.4539  -5.4531  -4.9156
    -4.9153  -4.7840  -4.7830  -4.6281  -4.5992  -4.5359  -4.5034  -4.5014
    -4.4691  -4.4686  -4.3402  -4.2985  -4.2982  -4.2390  -4.2182  -4.2174
    -4.1153  -4.1149  -4.0789  -4.0784  -4.0783  -4.0520  -4.0303  -4.0299
    -3.9269  -3.9230  -3.9227  -3.9029  -3.8856  -3.8852  -3.8740  -3.8729
    -3.8608  -3.8304  -3.8298  -3.8292  -3.8288  -3.7976  -3.7973  -3.7790
    -3.7785  -3.7677  -3.7272  -3.7237  -3.6912  -3.6783  -3.6752  -3.6701
    -3.6700  -3.5959  -3.5958  -3.5623  -3.5597  -3.5579  -3.4906  -3.4901
    -3.4755  -3.4745  -3.4461  -3.4451  -3.4435  -3.4430  -3.2898  -3.2886
    -3.2682  -3.2642  -3.2600  -3.2434  -3.2422  -3.2180  -3.2171  -3.1672
    -3.1666  -3.1516  -3.1502  -3.1302  -3.0871  -3.0822  -3.0640  -3.0583
    -3.0567  -3.0187  -3.0160  -3.0097  -3.0081  -2.9960  -2.9918  -2.9541
    -2.9532  -2.9333  -2.9319  -2.9290  -2.9277  -2.9241  -2.8573  -2.8481
    -2.8465  -2.8189  -2.8163  -2.7969  -2.7559  -2.7424  -2.7264  -2.7222
    -2.7129  -2.7107  -2.7045  -2.6778  -2.6757  -2.6671  -2.6496  -2.6250
    -2.6243  -2.6154  -2.6033  -2.6018  -2.5916  -2.5903  -2.5881  -2.5791
    -2.5773  -2.5334  -2.5020  -2.5014  -2.4856  -2.4724  -2.4668  -2.4650
    -2.4585  -2.4570  -2.4554  -2.4271  -2.4256  -2.4253  -2.4162  -2.4158
    -2.4000  -2.3730  -2.3715  -2.3708  -2.3703  -2.3694  -2.3237  -2.2940
    -2.2926  -2.2917  -2.2860  -2.2761  -2.2653  -2.2642  -2.2467  -2.2465
    -2.2164  -2.2120  -2.2118  -2.1940  -2.1932  -2.1921  -2.1600  -2.1588
    -2.1217  -2.1156  -2.1113  -2.1086  -2.1076  -2.1023  -2.1010  -2.0979
    -2.0976  -2.0918  -2.0904  -2.0758  -2.0744  -1.9493  -1.9472  -1.9149
    -1.9092  -1.9078  -1.9020  -1.9019  -1.8865  -1.8851  -1.8824  -1.8815
    -1.8797  -1.8572  -1.8511  -1.8492  -1.8417  -1.8383  -1.8365  -1.8143
    -1.8135  -1.7853  -1.7850  -1.7546  -1.7541  -1.7431  -1.7348  -1.7176
    -1.7161  -1.7136  -1.6966  -1.6828  -1.6824  -1.6753  -1.6751  -1.6498
    -1.6490  -1.6328  -1.6317  -1.5986  -1.5973  -1.5893  -1.5402  -1.5399
    -1.5281  -1.5243  -1.5239  -1.4992  -1.4967  -1.4655  -1.4640  -1.4625
    -1.4293  -1.4199  -1.4187  -1.4033  -1.4024  -1.3795  -1.3760  -1.3752
    -1.3463  -1.3427  -1.3424  -1.2810  -1.2788  -1.2691  -1.2662  -1.2519
    -1.2506  -1.2376  -1.2370  -1.2193  -1.2065  -1.1812  -1.1785  -1.1685
    -1.1399  -1.1302  -1.1279  -1.1177  -1.1163  -1.1161  -1.1120  -1.1091
    -1.0948  -1.0688  -1.0661  -1.0561  -1.0529  -1.0509  -1.0500  -1.0292
    -1.0177  -1.0085  -0.9945  -0.9869  -0.8980  -0.8914  -0.8828  -0.8772
    -0.8764  -0.8679  -0.8667  -0.8527  -0.8434  -0.8292  -0.8254  -0.8131
    -0.8117  -0.8034  -0.7866  -0.7830  -0.7791  -0.7718  -0.7344  -0.6988
    -0.6980  -0.6641  -0.6606  -0.6582  -0.6526  -0.6512  -0.6511  -0.6419
    -0.6381  -0.6222  -0.6155  -0.5965  -0.5728  -0.5631  -0.5624  -0.5515
    -0.5455  -0.5395  -0.5378  -0.5365  -0.5350  -0.5260  -0.5186  -0.5140
    -0.5056  -0.4836  -0.4818  -0.4767  -0.4691  -0.4673  -0.4497  -0.4178
    -0.4153  -0.4084  -0.4042  -0.3404  -0.3388  -0.3040  -0.3039  -0.2457
    -0.2455  -0.2443  -0.2253  -0.2190   0.0110   0.0138   0.3558   0.3561
     0.4489   0.4531   0.6455   0.6617   0.6735   0.8029   0.8043   1.2362
     1.2366   1.2529   1.5178   1.5461   1.5465   1.8248   1.8303   1.9006
     1.9021   1.9288   1.9329   2.1569   2.1585   2.2469   2.2480   2.3292
     2.3873   2.3931   2.5499   2.6521   3.0845   3.0893   3.0922   3.0943
     3.1458   3.1478   3.4397   3.4406   3.7213   3.7267   3.8381   4.1361
     4.1761   4.1810   4.4020   4.4228   4.4765   4.4808   4.5725   4.6873
     4.6915   4.8057   4.8073   5.1095   5.1737   5.1822   5.3341   5.3737
     5.4478   5.5630   5.5692   5.5940   5.5960   5.6545   5.6598   5.7145
     5.8760   6.0601   6.2644   6.2842   6.3624   6.3974   6.4018   6.4137
     6.4152   6.5547   6.6394   6.6566   6.6649   6.8465   6.8887   6.9182
     6.9422   7.0233   7.1162

          k =-0.2500-0.4330 0.1111 (136853 PWs)   bands (ev):

   -18.6458  -6.5840  -6.3812  -5.9865  -5.9849  -5.3076  -4.9759  -4.9751
    -4.9363  -4.9353  -4.5755  -4.5751  -4.4769  -4.4764  -4.4626  -4.4399
    -4.4178  -4.3097  -4.3084  -4.2847  -4.2415  -4.2411  -4.1731  -4.1725
    -4.1663  -4.1653  -4.1442  -4.1390  -4.1375  -4.0705  -4.0650  -4.0363
    -4.0357  -4.0239  -4.0237  -4.0003  -4.0002  -3.9778  -3.9695  -3.9692
    -3.9432  -3.8908  -3.8906  -3.8427  -3.8420  -3.7856  -3.7844  -3.7304
    -3.7289  -3.7281  -3.7281  -3.6925  -3.6579  -3.6555  -3.6471  -3.6459
    -3.6455  -3.6181  -3.6147  -3.6065  -3.5474  -3.5463  -3.5382  -3.5188
    -3.5114  -3.4399  -3.4388  -3.4089  -3.4049  -3.3790  -3.3778  -3.3636
    -3.3474  -3.2909  -3.2878  -3.2701  -3.2700  -3.2219  -3.2149  -3.2131
    -3.1742  -3.1482  -3.1425  -3.1348  -3.1342  -3.1246  -3.1216  -3.1149
    -3.1134  -3.1041  -3.0628  -3.0249  -3.0238  -3.0111  -3.0099  -2.9834
    -2.9755  -2.9748  -2.9535  -2.9115  -2.9067  -2.9000  -2.8605  -2.8532
    -2.8454  -2.8408  -2.8239  -2.8118  -2.7880  -2.7751  -2.7453  -2.7329
    -2.7230  -2.7140  -2.7008  -2.6938  -2.6513  -2.6501  -2.6176  -2.5951
    -2.5938  -2.5704  -2.5676  -2.5586  -2.5572  -2.5486  -2.5259  -2.5240
    -2.4807  -2.4802  -2.4786  -2.4638  -2.4628  -2.4561  -2.4491  -2.4461
    -2.4450  -2.4442  -2.4384  -2.4287  -2.4263  -2.4147  -2.3913  -2.3887
    -2.3883  -2.3861  -2.3852  -2.3830  -2.3814  -2.3558  -2.3540  -2.3388
    -2.3374  -2.3203  -2.3199  -2.3109  -2.3107  -2.3090  -2.3076  -2.2911
    -2.2883  -2.2870  -2.2853  -2.2701  -2.2436  -2.2424  -2.2024  -2.2020
    -2.1790  -2.1780  -2.1512  -2.1491  -2.1222  -2.1220  -2.1048  -2.1005
    -2.0734  -2.0540  -2.0519  -2.0472  -2.0449  -2.0412  -2.0345  -2.0325
    -2.0066  -2.0018  -1.9941  -1.9346  -1.9308  -1.9290  -1.9265  -1.9261
    -1.8928  -1.8717  -1.8705  -1.8439  -1.8423  -1.7851  -1.7832  -1.7534
    -1.7361  -1.7343  -1.6744  -1.6738  -1.6637  -1.6614  -1.6519  -1.6501
    -1.6465  -1.6395  -1.6366  -1.5830  -1.5803  -1.5717  -1.5691  -1.5678
    -1.5516  -1.5484  -1.5141  -1.5138  -1.4981  -1.4973  -1.4958  -1.4889
    -1.4838  -1.4761  -1.4736  -1.4551  -1.4548  -1.4156  -1.4119  -1.4043
    -1.4010  -1.3825  -1.3669  -1.3270  -1.3244  -1.2982  -1.2946  -1.2935
    -1.2646  -1.2154  -1.2143  -1.2105  -1.2094  -1.2080  -1.2040  -1.1957
    -1.1786  -1.1758  -1.1385  -1.1348  -1.1076  -1.1052  -1.0993  -1.0988
    -1.0926  -1.0781  -1.0759  -1.0741  -1.0714  -1.0701  -1.0370  -1.0327
    -1.0308  -1.0301  -1.0063  -0.9995  -0.9963  -0.9729  -0.9698  -0.9633
    -0.9217  -0.9136  -0.9100  -0.8855  -0.8683  -0.8616  -0.8564  -0.8533
    -0.8479  -0.8474  -0.8448  -0.8364  -0.8329  -0.8128  -0.8088  -0.8057
    -0.8036  -0.8018  -0.7777  -0.7649  -0.7640  -0.7541  -0.7416  -0.7338
    -0.7301  -0.7206  -0.7087  -0.6628  -0.6590  -0.6527  -0.6523  -0.6499
    -0.6469  -0.6336  -0.6252  -0.6194  -0.6171  -0.6156  -0.6146  -0.5927
    -0.5744  -0.5735  -0.5706  -0.5637  -0.5600  -0.5573  -0.5560  -0.5448
    -0.5383  -0.5376  -0.5159  -0.4959  -0.4949  -0.4867  -0.4827  -0.4810
    -0.4074  -0.4044  -0.4024  -0.4007  -0.3934  -0.3881  -0.3558  -0.3445
    -0.3436  -0.3122  -0.3115  -0.3067  -0.1928  -0.1883  -0.0887   0.3263
     0.3275   0.3313   0.3316   0.3939   0.3984   0.7773   0.7815   0.8222
     0.8234   0.9376   1.0135   1.1231   1.1271   1.3490   1.3526   1.9762
     1.9807   2.1383   2.1420   2.2746   2.2778   2.3764   2.3767   2.5307
     2.7674   2.7834   2.8928   3.1158   3.1207   3.1980   3.1994   3.2973
     3.3158   3.5196   3.5281   3.5702   3.7718   3.7742   3.8363   3.8394
     4.0910   4.1000   4.1034   4.3422   4.3826   4.3851   4.4294   4.7602
     4.7685   4.7934   4.9317   5.1034   5.1050   5.1665   5.1896   5.5370
     5.8138   5.8865   5.8909   5.9012   5.9239   5.9605   5.9683   6.0657
     6.0799   6.0996   6.1251   6.1342   6.1430   6.1637   6.1721   6.1884
     6.1918   6.4533   6.5878   6.7154   6.7563   6.7853   6.8380   6.8426
     6.8508   6.9546   7.0529

          k =-0.2500 0.4330-0.1111 (136853 PWs)   bands (ev):

   -18.6458  -6.5837  -6.3815  -5.9867  -5.9847  -5.3077  -4.9758  -4.9751
    -4.9383  -4.9334  -4.5762  -4.5743  -4.4768  -4.4765  -4.4624  -4.4399
    -4.4176  -4.3105  -4.3079  -4.2849  -4.2415  -4.2411  -4.1733  -4.1720
    -4.1666  -4.1654  -4.1441  -4.1401  -4.1365  -4.0722  -4.0633  -4.0370
    -4.0345  -4.0240  -4.0235  -4.0005  -4.0001  -3.9777  -3.9696  -3.9694
    -3.9433  -3.8913  -3.8902  -3.8438  -3.8408  -3.7855  -3.7839  -3.7306
    -3.7284  -3.7281  -3.7276  -3.6927  -3.6580  -3.6546  -3.6476  -3.6463
    -3.6451  -3.6193  -3.6146  -3.6068  -3.5471  -3.5457  -3.5397  -3.5185
    -3.5111  -3.4410  -3.4389  -3.4106  -3.4045  -3.3793  -3.3769  -3.3636
    -3.3473  -3.2903  -3.2876  -3.2715  -3.2689  -3.2210  -3.2153  -3.2134
    -3.1741  -3.1484  -3.1424  -3.1356  -3.1338  -3.1260  -3.1223  -3.1141
    -3.1125  -3.1042  -3.0628  -3.0258  -3.0230  -3.0113  -3.0095  -2.9839
    -2.9774  -2.9739  -2.9536  -2.9117  -2.9059  -2.9002  -2.8597  -2.8529
    -2.8450  -2.8402  -2.8234  -2.8123  -2.7874  -2.7735  -2.7447  -2.7338
    -2.7235  -2.7144  -2.7009  -2.6928  -2.6522  -2.6483  -2.6174  -2.5949
    -2.5936  -2.5710  -2.5693  -2.5580  -2.5567  -2.5484  -2.5263  -2.5236
    -2.4808  -2.4799  -2.4789  -2.4639  -2.4630  -2.4562  -2.4485  -2.4465
    -2.4451  -2.4441  -2.4383  -2.4291  -2.4253  -2.4146  -2.3908  -2.3888
    -2.3884  -2.3863  -2.3853  -2.3836  -2.3819  -2.3567  -2.3542  -2.3384
    -2.3379  -2.3206  -2.3198  -2.3118  -2.3107  -2.3092  -2.3066  -2.2905
    -2.2893  -2.2867  -2.2849  -2.2705  -2.2440  -2.2424  -2.2031  -2.2013
    -2.1789  -2.1784  -2.1509  -2.1486  -2.1229  -2.1214  -2.1052  -2.1007
    -2.0730  -2.0549  -2.0514  -2.0463  -2.0442  -2.0399  -2.0343  -2.0315
    -2.0070  -2.0013  -1.9938  -1.9340  -1.9324  -1.9296  -1.9282  -1.9256
    -1.8922  -1.8724  -1.8695  -1.8455  -1.8421  -1.7857  -1.7823  -1.7546
    -1.7347  -1.7337  -1.6757  -1.6727  -1.6636  -1.6607  -1.6523  -1.6497
    -1.6467  -1.6399  -1.6360  -1.5827  -1.5794  -1.5713  -1.5689  -1.5684
    -1.5522  -1.5479  -1.5143  -1.5140  -1.4985  -1.4975  -1.4954  -1.4889
    -1.4854  -1.4770  -1.4731  -1.4558  -1.4542  -1.4161  -1.4115  -1.4041
    -1.4007  -1.3821  -1.3669  -1.3276  -1.3232  -1.2984  -1.2946  -1.2935
    -1.2641  -1.2147  -1.2137  -1.2104  -1.2097  -1.2061  -1.2032  -1.1952
    -1.1788  -1.1770  -1.1399  -1.1340  -1.1107  -1.1039  -1.1001  -1.0984
    -1.0928  -1.0799  -1.0752  -1.0742  -1.0726  -1.0690  -1.0341  -1.0314
    -1.0302  -1.0300  -1.0085  -0.9997  -0.9950  -0.9730  -0.9700  -0.9620
    -0.9292  -0.9182  -0.9092  -0.8868  -0.8672  -0.8596  -0.8566  -0.8549
    -0.8480  -0.8470  -0.8446  -0.8367  -0.8326  -0.8111  -0.8087  -0.8072
    -0.8040  -0.8009  -0.7697  -0.7644  -0.7605  -0.7549  -0.7506  -0.7336
    -0.7299  -0.7200  -0.6929  -0.6630  -0.6562  -0.6526  -0.6514  -0.6510
    -0.6477  -0.6423  -0.6252  -0.6190  -0.6174  -0.6159  -0.6147  -0.5945
    -0.5747  -0.5733  -0.5711  -0.5640  -0.5598  -0.5576  -0.5500  -0.5412
    -0.5386  -0.5378  -0.5283  -0.4950  -0.4943  -0.4877  -0.4831  -0.4790
    -0.4086  -0.4039  -0.4019  -0.3993  -0.3936  -0.3914  -0.3566  -0.3442
    -0.3432  -0.3138  -0.3119  -0.3062  -0.1939  -0.1869  -0.0885   0.3271
     0.3278   0.3309   0.3314   0.3936   0.3953   0.7787   0.7810   0.8217
     0.8236   0.9386   1.0147   1.1219   1.1303   1.3455   1.3557   1.9771
     1.9786   2.1380   2.1427   2.2736   2.2766   2.3759   2.3772   2.5307
     2.7684   2.7842   2.8940   3.1152   3.1236   3.1973   3.1998   3.2992
     3.3157   3.5119   3.5354   3.5710   3.7709   3.7751   3.8331   3.8394
     4.0914   4.1001   4.1047   4.3425   4.3806   4.3851   4.4299   4.7612
     4.7692   4.7929   4.9266   5.1024   5.1052   5.1655   5.1887   5.5407
     5.7984   5.8811   5.8940   5.9028   5.9391   5.9626   5.9691   6.0616
     6.0728   6.1014   6.1296   6.1330   6.1391   6.1605   6.1754   6.1864
     6.1927   6.4478   6.6032   6.7173   6.7576   6.8005   6.8319   6.8475
     6.8492   6.9592   7.0421

          k = 0.2500-0.4330-0.1111 (136853 PWs)   bands (ev):

   -18.6458  -6.5837  -6.3815  -5.9867  -5.9847  -5.3077  -4.9758  -4.9751
    -4.9383  -4.9334  -4.5762  -4.5743  -4.4768  -4.4765  -4.4624  -4.4399
    -4.4176  -4.3105  -4.3079  -4.2849  -4.2415  -4.2411  -4.1733  -4.1720
    -4.1666  -4.1654  -4.1441  -4.1401  -4.1365  -4.0722  -4.0633  -4.0370
    -4.0345  -4.0240  -4.0235  -4.0005  -4.0001  -3.9777  -3.9696  -3.9694
    -3.9433  -3.8913  -3.8902  -3.8438  -3.8408  -3.7855  -3.7839  -3.7306
    -3.7284  -3.7281  -3.7276  -3.6927  -3.6580  -3.6546  -3.6476  -3.6463
    -3.6451  -3.6193  -3.6146  -3.6068  -3.5471  -3.5457  -3.5397  -3.5185
    -3.5111  -3.4410  -3.4389  -3.4106  -3.4045  -3.3793  -3.3769  -3.3636
    -3.3473  -3.2903  -3.2876  -3.2715  -3.2689  -3.2210  -3.2153  -3.2134
    -3.1741  -3.1484  -3.1424  -3.1356  -3.1338  -3.1260  -3.1223  -3.1141
    -3.1125  -3.1042  -3.0628  -3.0258  -3.0230  -3.0113  -3.0095  -2.9839
    -2.9774  -2.9739  -2.9536  -2.9117  -2.9059  -2.9002  -2.8597  -2.8529
    -2.8450  -2.8402  -2.8234  -2.8123  -2.7874  -2.7735  -2.7447  -2.7338
    -2.7235  -2.7144  -2.7009  -2.6928  -2.6522  -2.6483  -2.6174  -2.5949
    -2.5936  -2.5710  -2.5693  -2.5580  -2.5567  -2.5484  -2.5263  -2.5236
    -2.4808  -2.4799  -2.4789  -2.4639  -2.4630  -2.4562  -2.4485  -2.4465
    -2.4451  -2.4441  -2.4383  -2.4291  -2.4253  -2.4146  -2.3908  -2.3888
    -2.3884  -2.3863  -2.3853  -2.3836  -2.3819  -2.3567  -2.3542  -2.3384
    -2.3379  -2.3206  -2.3198  -2.3118  -2.3107  -2.3092  -2.3066  -2.2905
    -2.2893  -2.2867  -2.2849  -2.2705  -2.2440  -2.2424  -2.2031  -2.2013
    -2.1789  -2.1784  -2.1509  -2.1486  -2.1229  -2.1214  -2.1052  -2.1007
    -2.0730  -2.0549  -2.0514  -2.0463  -2.0442  -2.0399  -2.0343  -2.0315
    -2.0070  -2.0013  -1.9938  -1.9340  -1.9324  -1.9296  -1.9282  -1.9256
    -1.8922  -1.8724  -1.8695  -1.8455  -1.8421  -1.7857  -1.7823  -1.7546
    -1.7347  -1.7337  -1.6757  -1.6727  -1.6636  -1.6607  -1.6523  -1.6497
    -1.6467  -1.6399  -1.6360  -1.5827  -1.5794  -1.5713  -1.5689  -1.5684
    -1.5522  -1.5479  -1.5143  -1.5140  -1.4985  -1.4975  -1.4954  -1.4889
    -1.4854  -1.4770  -1.4731  -1.4558  -1.4542  -1.4161  -1.4115  -1.4041
    -1.4007  -1.3821  -1.3669  -1.3276  -1.3232  -1.2984  -1.2946  -1.2935
    -1.2641  -1.2147  -1.2137  -1.2104  -1.2097  -1.2061  -1.2032  -1.1952
    -1.1788  -1.1770  -1.1399  -1.1340  -1.1107  -1.1039  -1.1001  -1.0984
    -1.0928  -1.0799  -1.0752  -1.0742  -1.0726  -1.0690  -1.0341  -1.0314
    -1.0302  -1.0300  -1.0085  -0.9997  -0.9950  -0.9730  -0.9700  -0.9620
    -0.9292  -0.9182  -0.9092  -0.8868  -0.8672  -0.8596  -0.8566  -0.8549
    -0.8480  -0.8470  -0.8446  -0.8367  -0.8326  -0.8111  -0.8087  -0.8072
    -0.8040  -0.8009  -0.7697  -0.7644  -0.7605  -0.7549  -0.7506  -0.7336
    -0.7299  -0.7200  -0.6929  -0.6630  -0.6562  -0.6526  -0.6514  -0.6510
    -0.6477  -0.6423  -0.6252  -0.6190  -0.6174  -0.6159  -0.6147  -0.5945
    -0.5747  -0.5733  -0.5711  -0.5640  -0.5598  -0.5576  -0.5500  -0.5412
    -0.5386  -0.5378  -0.5283  -0.4950  -0.4943  -0.4877  -0.4831  -0.4790
    -0.4086  -0.4039  -0.4019  -0.3993  -0.3936  -0.3914  -0.3566  -0.3442
    -0.3432  -0.3138  -0.3119  -0.3062  -0.1939  -0.1869  -0.0885   0.3271
     0.3278   0.3309   0.3314   0.3936   0.3953   0.7787   0.7810   0.8217
     0.8236   0.9386   1.0147   1.1219   1.1303   1.3455   1.3557   1.9771
     1.9786   2.1380   2.1427   2.2736   2.2766   2.3759   2.3772   2.5307
     2.7684   2.7842   2.8940   3.1152   3.1236   3.1973   3.1998   3.2992
     3.3157   3.5119   3.5354   3.5710   3.7709   3.7751   3.8331   3.8394
     4.0914   4.1001   4.1047   4.3425   4.3806   4.3851   4.4299   4.7612
     4.7692   4.7929   4.9266   5.1024   5.1052   5.1655   5.1887   5.5407
     5.7985   5.8811   5.8940   5.9028   5.9391   5.9626   5.9691   6.0616
     6.0728   6.1014   6.1294   6.1329   6.1388   6.1605   6.1755   6.1864
     6.1927   6.4476   6.6029   6.7190   6.7587   6.8005   6.8321   6.8474
     6.8497   6.9592   7.0401

          k = 0.5000 0.0000 0.1111 (136853 PWs)   bands (ev):

   -18.6458  -6.5840  -6.3812  -5.9863  -5.9851  -5.3076  -4.9768  -4.9743
    -4.9374  -4.9342  -4.5761  -4.5743  -4.4768  -4.4765  -4.4623  -4.4399
    -4.4178  -4.3101  -4.3083  -4.2849  -4.2415  -4.2412  -4.1732  -4.1721
    -4.1672  -4.1648  -4.1440  -4.1405  -4.1361  -4.0718  -4.0637  -4.0370
    -4.0346  -4.0240  -4.0235  -4.0004  -4.0002  -3.9778  -3.9696  -3.9692
    -3.9434  -3.8911  -3.8905  -3.8437  -3.8409  -3.7854  -3.7845  -3.7305
    -3.7287  -3.7282  -3.7280  -3.6927  -3.6578  -3.6557  -3.6469  -3.6464
    -3.6452  -3.6182  -3.6147  -3.6066  -3.5474  -3.5464  -3.5383  -3.5187
    -3.5111  -3.4407  -3.4384  -3.4086  -3.4052  -3.3791  -3.3774  -3.3636
    -3.3474  -3.2909  -3.2878  -3.2703  -3.2695  -3.2217  -3.2152  -3.2131
    -3.1740  -3.1479  -3.1426  -3.1352  -3.1339  -3.1251  -3.1217  -3.1148
    -3.1130  -3.1042  -3.0627  -3.0256  -3.0234  -3.0109  -3.0100  -2.9835
    -2.9753  -2.9748  -2.9536  -2.9120  -2.9064  -2.9007  -2.8604  -2.8530
    -2.8452  -2.8409  -2.8247  -2.8121  -2.7867  -2.7735  -2.7451  -2.7334
    -2.7227  -2.7140  -2.7009  -2.6945  -2.6517  -2.6495  -2.6174  -2.5952
    -2.5941  -2.5706  -2.5681  -2.5584  -2.5569  -2.5487  -2.5259  -2.5240
    -2.4807  -2.4800  -2.4786  -2.4636  -2.4630  -2.4562  -2.4490  -2.4465
    -2.4451  -2.4440  -2.4385  -2.4285  -2.4260  -2.4152  -2.3913  -2.3885
    -2.3880  -2.3861  -2.3855  -2.3835  -2.3813  -2.3560  -2.3541  -2.3387
    -2.3373  -2.3206  -2.3197  -2.3112  -2.3105  -2.3094  -2.3068  -2.2911
    -2.2882  -2.2876  -2.2849  -2.2702  -2.2438  -2.2425  -2.2030  -2.2015
    -2.1788  -2.1784  -2.1506  -2.1493  -2.1222  -2.1218  -2.1049  -2.1003
    -2.0732  -2.0541  -2.0519  -2.0465  -2.0448  -2.0410  -2.0344  -2.0323
    -2.0066  -2.0015  -1.9941  -1.9344  -1.9318  -1.9290  -1.9270  -1.9261
    -1.8927  -1.8725  -1.8696  -1.8439  -1.8426  -1.7856  -1.7826  -1.7540
    -1.7357  -1.7340  -1.6746  -1.6734  -1.6638  -1.6612  -1.6517  -1.6501
    -1.6467  -1.6396  -1.6366  -1.5830  -1.5797  -1.5714  -1.5698  -1.5680
    -1.5515  -1.5482  -1.5144  -1.5140  -1.4981  -1.4975  -1.4956  -1.4887
    -1.4842  -1.4762  -1.4736  -1.4554  -1.4543  -1.4153  -1.4121  -1.4042
    -1.4008  -1.3825  -1.3669  -1.3267  -1.3245  -1.2984  -1.2948  -1.2935
    -1.2647  -1.2153  -1.2147  -1.2103  -1.2097  -1.2071  -1.2040  -1.1954
    -1.1792  -1.1755  -1.1383  -1.1346  -1.1079  -1.1056  -1.0994  -1.0987
    -1.0925  -1.0791  -1.0766  -1.0741  -1.0714  -1.0700  -1.0360  -1.0329
    -1.0306  -1.0300  -1.0057  -0.9995  -0.9961  -0.9734  -0.9695  -0.9628
    -0.9233  -0.9158  -0.9100  -0.8852  -0.8684  -0.8610  -0.8565  -0.8535
    -0.8479  -0.8471  -0.8448  -0.8362  -0.8329  -0.8119  -0.8091  -0.8058
    -0.8040  -0.8018  -0.7755  -0.7647  -0.7636  -0.7537  -0.7444  -0.7340
    -0.7301  -0.7202  -0.7050  -0.6627  -0.6586  -0.6526  -0.6523  -0.6499
    -0.6469  -0.6351  -0.6253  -0.6191  -0.6171  -0.6159  -0.6145  -0.5936
    -0.5742  -0.5736  -0.5711  -0.5638  -0.5602  -0.5573  -0.5539  -0.5444
    -0.5384  -0.5376  -0.5187  -0.4963  -0.4944  -0.4871  -0.4826  -0.4801
    -0.4072  -0.4044  -0.4024  -0.4004  -0.3934  -0.3891  -0.3560  -0.3445
    -0.3435  -0.3126  -0.3117  -0.3065  -0.1922  -0.1885  -0.0885   0.3265
     0.3277   0.3310   0.3317   0.3940   0.3971   0.7773   0.7815   0.8220
     0.8234   0.9379   1.0140   1.1231   1.1279   1.3473   1.3542   1.9757
     1.9805   2.1383   2.1423   2.2736   2.2782   2.3758   2.3773   2.5305
     2.7677   2.7836   2.8931   3.1153   3.1216   3.1974   3.2001   3.2972
     3.3158   3.5162   3.5313   3.5704   3.7716   3.7744   3.8354   3.8400
     4.0905   4.0998   4.1039   4.3427   4.3820   4.3853   4.4293   4.7604
     4.7685   4.7928   4.9312   5.1030   5.1053   5.1660   5.1905   5.5384
     5.8087   5.8863   5.8919   5.9013   5.9293   5.9610   5.9680   6.0643
     6.0791   6.0999   6.1246   6.1343   6.1387   6.1640   6.1708   6.1885
     6.1933   6.4505   6.5925   6.7266   6.7560   6.7913   6.8380   6.8434
     6.8521   6.9549   7.0310

          k =-0.5000 0.0000 0.1111 (136853 PWs)   bands (ev):

   -18.6458  -6.5840  -6.3812  -5.9863  -5.9851  -5.3076  -4.9768  -4.9743
    -4.9374  -4.9342  -4.5761  -4.5743  -4.4768  -4.4765  -4.4623  -4.4399
    -4.4178  -4.3101  -4.3083  -4.2849  -4.2415  -4.2412  -4.1732  -4.1721
    -4.1672  -4.1648  -4.1440  -4.1405  -4.1361  -4.0718  -4.0637  -4.0370
    -4.0346  -4.0240  -4.0235  -4.0004  -4.0002  -3.9778  -3.9696  -3.9692
    -3.9434  -3.8911  -3.8905  -3.8437  -3.8409  -3.7854  -3.7845  -3.7305
    -3.7287  -3.7282  -3.7280  -3.6927  -3.6578  -3.6557  -3.6469  -3.6464
    -3.6452  -3.6182  -3.6147  -3.6066  -3.5474  -3.5464  -3.5383  -3.5187
    -3.5111  -3.4407  -3.4384  -3.4086  -3.4052  -3.3791  -3.3774  -3.3636
    -3.3474  -3.2909  -3.2878  -3.2703  -3.2695  -3.2217  -3.2152  -3.2131
    -3.1740  -3.1479  -3.1426  -3.1352  -3.1339  -3.1251  -3.1217  -3.1148
    -3.1130  -3.1042  -3.0627  -3.0256  -3.0234  -3.0109  -3.0100  -2.9835
    -2.9753  -2.9748  -2.9536  -2.9120  -2.9064  -2.9007  -2.8604  -2.8530
    -2.8452  -2.8409  -2.8247  -2.8121  -2.7867  -2.7735  -2.7451  -2.7334
    -2.7227  -2.7140  -2.7009  -2.6945  -2.6517  -2.6495  -2.6174  -2.5952
    -2.5941  -2.5706  -2.5681  -2.5584  -2.5569  -2.5487  -2.5259  -2.5240
    -2.4807  -2.4800  -2.4786  -2.4636  -2.4630  -2.4562  -2.4490  -2.4465
    -2.4451  -2.4440  -2.4385  -2.4285  -2.4260  -2.4152  -2.3913  -2.3885
    -2.3880  -2.3861  -2.3855  -2.3835  -2.3813  -2.3560  -2.3541  -2.3387
    -2.3373  -2.3206  -2.3197  -2.3112  -2.3105  -2.3094  -2.3068  -2.2911
    -2.2882  -2.2876  -2.2849  -2.2702  -2.2438  -2.2425  -2.2030  -2.2015
    -2.1788  -2.1784  -2.1506  -2.1493  -2.1222  -2.1218  -2.1049  -2.1003
    -2.0732  -2.0541  -2.0519  -2.0465  -2.0448  -2.0410  -2.0344  -2.0323
    -2.0066  -2.0015  -1.9941  -1.9344  -1.9318  -1.9290  -1.9270  -1.9261
    -1.8927  -1.8725  -1.8696  -1.8439  -1.8427  -1.7856  -1.7826  -1.7540
    -1.7357  -1.7340  -1.6746  -1.6734  -1.6638  -1.6612  -1.6517  -1.6501
    -1.6467  -1.6396  -1.6366  -1.5830  -1.5797  -1.5714  -1.5698  -1.5680
    -1.5515  -1.5482  -1.5144  -1.5140  -1.4981  -1.4975  -1.4956  -1.4887
    -1.4842  -1.4762  -1.4736  -1.4554  -1.4543  -1.4153  -1.4121  -1.4042
    -1.4008  -1.3825  -1.3669  -1.3267  -1.3245  -1.2984  -1.2948  -1.2935
    -1.2647  -1.2153  -1.2147  -1.2103  -1.2097  -1.2071  -1.2040  -1.1954
    -1.1792  -1.1755  -1.1383  -1.1346  -1.1079  -1.1056  -1.0994  -1.0987
    -1.0925  -1.0791  -1.0766  -1.0741  -1.0714  -1.0700  -1.0360  -1.0329
    -1.0306  -1.0300  -1.0057  -0.9995  -0.9961  -0.9734  -0.9695  -0.9628
    -0.9233  -0.9158  -0.9100  -0.8852  -0.8684  -0.8610  -0.8565  -0.8535
    -0.8479  -0.8471  -0.8448  -0.8362  -0.8329  -0.8119  -0.8091  -0.8058
    -0.8040  -0.8018  -0.7755  -0.7647  -0.7636  -0.7537  -0.7444  -0.7340
    -0.7301  -0.7202  -0.7050  -0.6627  -0.6586  -0.6526  -0.6523  -0.6499
    -0.6469  -0.6351  -0.6253  -0.6191  -0.6171  -0.6159  -0.6145  -0.5936
    -0.5742  -0.5736  -0.5711  -0.5638  -0.5602  -0.5573  -0.5539  -0.5444
    -0.5384  -0.5376  -0.5187  -0.4963  -0.4944  -0.4871  -0.4826  -0.4801
    -0.4072  -0.4044  -0.4024  -0.4004  -0.3934  -0.3891  -0.3560  -0.3445
    -0.3434  -0.3126  -0.3117  -0.3065  -0.1922  -0.1885  -0.0885   0.3265
     0.3277   0.3310   0.3317   0.3940   0.3971   0.7773   0.7815   0.8220
     0.8234   0.9379   1.0140   1.1231   1.1279   1.3473   1.3542   1.9757
     1.9805   2.1383   2.1423   2.2736   2.2782   2.3758   2.3773   2.5305
     2.7677   2.7836   2.8931   3.1153   3.1216   3.1974   3.2001   3.2972
     3.3158   3.5162   3.5313   3.5704   3.7716   3.7744   3.8354   3.8400
     4.0905   4.0998   4.1039   4.3427   4.3820   4.3853   4.4293   4.7604
     4.7685   4.7928   4.9312   5.1030   5.1053   5.1659   5.1905   5.5384
     5.8082   5.8863   5.8919   5.9013   5.9293   5.9610   5.9680   6.0640
     6.0791   6.0999   6.1252   6.1345   6.1401   6.1642   6.1704   6.1886
     6.1933   6.4515   6.5932   6.7156   6.7546   6.7915   6.8378   6.8427
     6.8516   6.9549   7.0507

          k =-0.2500 0.1443 0.1111 (136898 PWs)   bands (ev):

   -18.6458  -6.6218  -6.5525  -5.8035  -5.5108  -5.4539  -5.4531  -4.9156
    -4.9153  -4.7840  -4.7830  -4.6280  -4.5992  -4.5359  -4.5034  -4.5014
    -4.4691  -4.4686  -4.3402  -4.2985  -4.2982  -4.2390  -4.2182  -4.2174
    -4.1152  -4.1149  -4.0789  -4.0784  -4.0783  -4.0520  -4.0303  -4.0299
    -3.9269  -3.9230  -3.9227  -3.9029  -3.8856  -3.8853  -3.8740  -3.8729
    -3.8608  -3.8304  -3.8298  -3.8292  -3.8288  -3.7976  -3.7973  -3.7790
    -3.7785  -3.7677  -3.7272  -3.7237  -3.6912  -3.6783  -3.6752  -3.6701
    -3.6700  -3.5959  -3.5958  -3.5623  -3.5597  -3.5579  -3.4906  -3.4901
    -3.4755  -3.4745  -3.4461  -3.4451  -3.4435  -3.4430  -3.2898  -3.2886
    -3.2682  -3.2642  -3.2600  -3.2434  -3.2422  -3.2180  -3.2171  -3.1672
    -3.1666  -3.1516  -3.1502  -3.1302  -3.0871  -3.0822  -3.0640  -3.0583
    -3.0567  -3.0187  -3.0160  -3.0097  -3.0081  -2.9960  -2.9918  -2.9541
    -2.9532  -2.9333  -2.9319  -2.9290  -2.9277  -2.9241  -2.8573  -2.8481
    -2.8465  -2.8189  -2.8163  -2.7969  -2.7559  -2.7424  -2.7264  -2.7222
    -2.7129  -2.7107  -2.7045  -2.6778  -2.6757  -2.6671  -2.6496  -2.6250
    -2.6243  -2.6154  -2.6033  -2.6018  -2.5916  -2.5903  -2.5881  -2.5791
    -2.5773  -2.5334  -2.5020  -2.5014  -2.4856  -2.4724  -2.4668  -2.4650
    -2.4585  -2.4570  -2.4554  -2.4271  -2.4256  -2.4253  -2.4162  -2.4158
    -2.4000  -2.3730  -2.3715  -2.3708  -2.3703  -2.3694  -2.3237  -2.2940
    -2.2926  -2.2917  -2.2860  -2.2761  -2.2653  -2.2642  -2.2467  -2.2465
    -2.2164  -2.2120  -2.2118  -2.1940  -2.1932  -2.1921  -2.1600  -2.1588
    -2.1217  -2.1156  -2.1113  -2.1086  -2.1076  -2.1023  -2.1010  -2.0979
    -2.0976  -2.0918  -2.0904  -2.0758  -2.0744  -1.9493  -1.9472  -1.9149
    -1.9092  -1.9078  -1.9020  -1.9019  -1.8865  -1.8851  -1.8824  -1.8815
    -1.8797  -1.8572  -1.8511  -1.8492  -1.8417  -1.8383  -1.8365  -1.8143
    -1.8135  -1.7853  -1.7850  -1.7546  -1.7541  -1.7431  -1.7348  -1.7176
    -1.7161  -1.7136  -1.6966  -1.6828  -1.6824  -1.6753  -1.6751  -1.6498
    -1.6490  -1.6328  -1.6317  -1.5986  -1.5973  -1.5893  -1.5402  -1.5399
    -1.5281  -1.5243  -1.5239  -1.4992  -1.4967  -1.4655  -1.4640  -1.4625
    -1.4293  -1.4199  -1.4187  -1.4033  -1.4024  -1.3795  -1.3760  -1.3751
    -1.3463  -1.3427  -1.3424  -1.2810  -1.2788  -1.2691  -1.2662  -1.2519
    -1.2506  -1.2376  -1.2370  -1.2193  -1.2065  -1.1812  -1.1785  -1.1685
    -1.1399  -1.1302  -1.1279  -1.1177  -1.1163  -1.1161  -1.1120  -1.1091
    -1.0948  -1.0688  -1.0661  -1.0561  -1.0529  -1.0509  -1.0500  -1.0292
    -1.0177  -1.0085  -0.9945  -0.9869  -0.8980  -0.8914  -0.8828  -0.8772
    -0.8764  -0.8679  -0.8667  -0.8527  -0.8434  -0.8292  -0.8254  -0.8131
    -0.8117  -0.8034  -0.7866  -0.7830  -0.7791  -0.7718  -0.7344  -0.6988
    -0.6981  -0.6641  -0.6606  -0.6582  -0.6526  -0.6512  -0.6511  -0.6419
    -0.6381  -0.6222  -0.6155  -0.5965  -0.5728  -0.5631  -0.5624  -0.5516
    -0.5455  -0.5395  -0.5378  -0.5365  -0.5350  -0.5260  -0.5186  -0.5139
    -0.5056  -0.4836  -0.4818  -0.4767  -0.4691  -0.4673  -0.4497  -0.4178
    -0.4153  -0.4084  -0.4042  -0.3404  -0.3388  -0.3040  -0.3039  -0.2457
    -0.2455  -0.2443  -0.2253  -0.2189   0.0110   0.0138   0.3558   0.3561
     0.4489   0.4531   0.6455   0.6617   0.6735   0.8029   0.8043   1.2362
     1.2366   1.2529   1.5178   1.5461   1.5465   1.8248   1.8304   1.9006
     1.9021   1.9288   1.9329   2.1569   2.1585   2.2469   2.2480   2.3292
     2.3873   2.3931   2.5499   2.6521   3.0845   3.0893   3.0922   3.0943
     3.1458   3.1478   3.4397   3.4406   3.7213   3.7267   3.8381   4.1361
     4.1761   4.1810   4.4020   4.4228   4.4765   4.4808   4.5725   4.6873
     4.6915   4.8057   4.8073   5.1095   5.1737   5.1822   5.3341   5.3737
     5.4478   5.5630   5.5692   5.5940   5.5960   5.6545   5.6598   5.7146
     5.8752   6.0609   6.2643   6.2852   6.3631   6.3975   6.4019   6.4136
     6.4153   6.5525   6.6398   6.6561   6.6648   6.8487   6.8896   6.9182
     6.9422   7.0210   7.1069

          k =-0.2500-0.1443-0.1111 (136898 PWs)   bands (ev):

   -18.6458  -6.6221  -6.5522  -5.8033  -5.5108  -5.4540  -5.4532  -4.9156
    -4.9153  -4.7843  -4.7826  -4.6281  -4.5992  -4.5360  -4.5029  -4.5020
    -4.4689  -4.4687  -4.3401  -4.2985  -4.2982  -4.2387  -4.2181  -4.2177
    -4.1151  -4.1149  -4.0787  -4.0787  -4.0783  -4.0522  -4.0302  -4.0300
    -3.9274  -3.9231  -3.9228  -3.9030  -3.8858  -3.8852  -3.8736  -3.8730
    -3.8612  -3.8301  -3.8299  -3.8289  -3.8288  -3.7979  -3.7967  -3.7788
    -3.7786  -3.7687  -3.7269  -3.7226  -3.6917  -3.6772  -3.6756  -3.6702
    -3.6700  -3.5960  -3.5957  -3.5629  -3.5589  -3.5581  -3.4906  -3.4904
    -3.4750  -3.4748  -3.4458  -3.4444  -3.4439  -3.4433  -3.2898  -3.2890
    -3.2686  -3.2640  -3.2596  -3.2430  -3.2423  -3.2178  -3.2167  -3.1669
    -3.1667  -3.1515  -3.1505  -3.1303  -3.0871  -3.0815  -3.0636  -3.0585
    -3.0571  -3.0181  -3.0163  -3.0093  -3.0082  -2.9936  -2.9926  -2.9544
    -2.9535  -2.9355  -2.9307  -2.9287  -2.9278  -2.9243  -2.8551  -2.8481
    -2.8472  -2.8195  -2.8168  -2.8006  -2.7549  -2.7420  -2.7260  -2.7235
    -2.7126  -2.7092  -2.7042  -2.6774  -2.6761  -2.6670  -2.6492  -2.6252
    -2.6240  -2.6184  -2.6035  -2.6025  -2.5923  -2.5907  -2.5884  -2.5791
    -2.5756  -2.5334  -2.5022  -2.5010  -2.4856  -2.4726  -2.4664  -2.4654
    -2.4582  -2.4577  -2.4559  -2.4264  -2.4260  -2.4245  -2.4166  -2.4147
    -2.3999  -2.3731  -2.3721  -2.3710  -2.3700  -2.3691  -2.3240  -2.2941
    -2.2924  -2.2922  -2.2858  -2.2762  -2.2643  -2.2640  -2.2468  -2.2462
    -2.2163  -2.2120  -2.2118  -2.1938  -2.1930  -2.1925  -2.1599  -2.1593
    -2.1213  -2.1155  -2.1107  -2.1085  -2.1080  -2.1030  -2.1010  -2.0992
    -2.0976  -2.0914  -2.0908  -2.0758  -2.0753  -1.9492  -1.9476  -1.9133
    -1.9087  -1.9082  -1.9020  -1.9015  -1.8878  -1.8855  -1.8826  -1.8814
    -1.8786  -1.8573  -1.8508  -1.8498  -1.8409  -1.8395  -1.8350  -1.8147
    -1.8137  -1.7855  -1.7848  -1.7556  -1.7537  -1.7441  -1.7345  -1.7177
    -1.7169  -1.7134  -1.6965  -1.6829  -1.6821  -1.6757  -1.6754  -1.6493
    -1.6486  -1.6328  -1.6312  -1.6002  -1.5976  -1.5892  -1.5403  -1.5388
    -1.5259  -1.5243  -1.5238  -1.4995  -1.4963  -1.4668  -1.4646  -1.4623
    -1.4285  -1.4201  -1.4189  -1.4028  -1.4025  -1.3783  -1.3761  -1.3742
    -1.3467  -1.3427  -1.3423  -1.2827  -1.2796  -1.2688  -1.2675  -1.2527
    -1.2498  -1.2385  -1.2370  -1.2192  -1.2066  -1.1821  -1.1774  -1.1665
    -1.1360  -1.1305  -1.1284  -1.1166  -1.1162  -1.1146  -1.1109  -1.1090
    -1.0947  -1.0765  -1.0652  -1.0641  -1.0525  -1.0511  -1.0505  -1.0307
    -1.0132  -1.0085  -0.9892  -0.9877  -0.8956  -0.8891  -0.8785  -0.8772
    -0.8765  -0.8722  -0.8663  -0.8443  -0.8434  -0.8286  -0.8267  -0.8177
    -0.8117  -0.8057  -0.7901  -0.7815  -0.7808  -0.7718  -0.7352  -0.6984
    -0.6982  -0.6645  -0.6609  -0.6585  -0.6536  -0.6515  -0.6513  -0.6462
    -0.6372  -0.6218  -0.6057  -0.5964  -0.5829  -0.5634  -0.5625  -0.5516
    -0.5483  -0.5392  -0.5380  -0.5362  -0.5357  -0.5240  -0.5181  -0.5139
    -0.5058  -0.4836  -0.4808  -0.4752  -0.4689  -0.4629  -0.4495  -0.4176
    -0.4160  -0.4083  -0.4058  -0.3401  -0.3373  -0.3043  -0.3033  -0.2460
    -0.2448  -0.2441  -0.2301  -0.2189   0.0116   0.0188   0.3561   0.3561
     0.4495   0.4540   0.6417   0.6623   0.6738   0.8031   0.8044   1.2360
     1.2364   1.2538   1.5165   1.5458   1.5464   1.8268   1.8304   1.9003
     1.9012   1.9291   1.9329   2.1553   2.1586   2.2472   2.2480   2.3294
     2.3891   2.3917   2.5499   2.6504   3.0860   3.0891   3.0920   3.0939
     3.1436   3.1493   3.4398   3.4401   3.7217   3.7260   3.8370   4.1368
     4.1743   4.1805   4.4049   4.4211   4.4774   4.4811   4.5701   4.6899
     4.6920   4.8062   4.8075   5.1079   5.1788   5.1831   5.3440   5.3708
     5.4406   5.5646   5.5687   5.5934   5.5957   5.6580   5.6584   5.7155
     5.8767   6.0740   6.2577   6.2728   6.3463   6.3914   6.4033   6.4134
     6.4154   6.5589   6.6498   6.6568   6.6748   6.8577   6.8921   6.9108
     6.9317   7.0291   7.0968

          k = 0.2500 0.1443-0.1111 (136898 PWs)   bands (ev):

   -18.6458  -6.6221  -6.5522  -5.8033  -5.5108  -5.4540  -5.4532  -4.9156
    -4.9153  -4.7843  -4.7826  -4.6281  -4.5992  -4.5360  -4.5029  -4.5020
    -4.4689  -4.4687  -4.3401  -4.2985  -4.2982  -4.2387  -4.2181  -4.2177
    -4.1151  -4.1149  -4.0787  -4.0787  -4.0783  -4.0522  -4.0302  -4.0300
    -3.9274  -3.9231  -3.9228  -3.9030  -3.8858  -3.8852  -3.8736  -3.8730
    -3.8612  -3.8301  -3.8299  -3.8289  -3.8288  -3.7978  -3.7967  -3.7788
    -3.7786  -3.7687  -3.7269  -3.7226  -3.6917  -3.6772  -3.6756  -3.6702
    -3.6700  -3.5960  -3.5957  -3.5629  -3.5589  -3.5581  -3.4906  -3.4904
    -3.4750  -3.4748  -3.4458  -3.4444  -3.4439  -3.4433  -3.2899  -3.2890
    -3.2686  -3.2640  -3.2596  -3.2430  -3.2423  -3.2178  -3.2167  -3.1669
    -3.1667  -3.1515  -3.1505  -3.1303  -3.0871  -3.0815  -3.0636  -3.0585
    -3.0571  -3.0181  -3.0163  -3.0093  -3.0082  -2.9936  -2.9926  -2.9544
    -2.9535  -2.9354  -2.9307  -2.9287  -2.9278  -2.9243  -2.8551  -2.8481
    -2.8472  -2.8195  -2.8168  -2.8006  -2.7548  -2.7420  -2.7260  -2.7235
    -2.7126  -2.7092  -2.7042  -2.6774  -2.6761  -2.6670  -2.6493  -2.6252
    -2.6240  -2.6184  -2.6035  -2.6025  -2.5923  -2.5907  -2.5884  -2.5791
    -2.5756  -2.5334  -2.5022  -2.5010  -2.4855  -2.4726  -2.4664  -2.4654
    -2.4582  -2.4577  -2.4559  -2.4264  -2.4260  -2.4245  -2.4166  -2.4147
    -2.3999  -2.3731  -2.3721  -2.3710  -2.3700  -2.3691  -2.3240  -2.2941
    -2.2924  -2.2922  -2.2858  -2.2762  -2.2643  -2.2640  -2.2468  -2.2462
    -2.2163  -2.2120  -2.2118  -2.1938  -2.1930  -2.1925  -2.1599  -2.1593
    -2.1213  -2.1155  -2.1107  -2.1085  -2.1080  -2.1030  -2.1010  -2.0992
    -2.0976  -2.0914  -2.0908  -2.0758  -2.0753  -1.9492  -1.9476  -1.9133
    -1.9087  -1.9082  -1.9020  -1.9015  -1.8878  -1.8855  -1.8826  -1.8814
    -1.8786  -1.8573  -1.8508  -1.8498  -1.8409  -1.8395  -1.8350  -1.8147
    -1.8137  -1.7855  -1.7848  -1.7556  -1.7537  -1.7441  -1.7345  -1.7177
    -1.7169  -1.7134  -1.6965  -1.6829  -1.6821  -1.6757  -1.6754  -1.6493
    -1.6486  -1.6328  -1.6312  -1.6002  -1.5976  -1.5892  -1.5403  -1.5388
    -1.5259  -1.5243  -1.5238  -1.4996  -1.4963  -1.4668  -1.4646  -1.4623
    -1.4285  -1.4201  -1.4189  -1.4028  -1.4025  -1.3783  -1.3762  -1.3742
    -1.3467  -1.3427  -1.3423  -1.2827  -1.2796  -1.2688  -1.2675  -1.2527
    -1.2498  -1.2385  -1.2370  -1.2192  -1.2066  -1.1821  -1.1774  -1.1665
    -1.1360  -1.1305  -1.1284  -1.1166  -1.1162  -1.1146  -1.1109  -1.1090
    -1.0947  -1.0765  -1.0652  -1.0641  -1.0525  -1.0511  -1.0505  -1.0307
    -1.0132  -1.0085  -0.9892  -0.9877  -0.8956  -0.8891  -0.8785  -0.8772
    -0.8765  -0.8722  -0.8664  -0.8443  -0.8434  -0.8286  -0.8267  -0.8177
    -0.8117  -0.8057  -0.7901  -0.7815  -0.7808  -0.7718  -0.7352  -0.6984
    -0.6982  -0.6645  -0.6609  -0.6585  -0.6536  -0.6515  -0.6513  -0.6462
    -0.6372  -0.6218  -0.6057  -0.5964  -0.5829  -0.5634  -0.5625  -0.5516
    -0.5483  -0.5392  -0.5380  -0.5362  -0.5357  -0.5240  -0.5181  -0.5139
    -0.5058  -0.4836  -0.4808  -0.4752  -0.4689  -0.4629  -0.4495  -0.4176
    -0.4160  -0.4083  -0.4058  -0.3401  -0.3373  -0.3043  -0.3033  -0.2460
    -0.2448  -0.2441  -0.2301  -0.2189   0.0116   0.0188   0.3561   0.3561
     0.4495   0.4540   0.6417   0.6623   0.6738   0.8031   0.8044   1.2360
     1.2364   1.2538   1.5164   1.5458   1.5464   1.8268   1.8304   1.9003
     1.9012   1.9291   1.9329   2.1553   2.1586   2.2472   2.2480   2.3294
     2.3891   2.3917   2.5499   2.6504   3.0860   3.0891   3.0920   3.0939
     3.1436   3.1493   3.4398   3.4401   3.7217   3.7260   3.8370   4.1368
     4.1743   4.1805   4.4049   4.4211   4.4774   4.4811   4.5701   4.6899
     4.6920   4.8062   4.8075   5.1079   5.1788   5.1831   5.3439   5.3708
     5.4407   5.5646   5.5687   5.5934   5.5957   5.6580   5.6584   5.7158
     5.8748   6.0774   6.2581   6.2750   6.3460   6.3914   6.4033   6.4134
     6.4154   6.5495   6.6491   6.6567   6.6693   6.8599   6.8924   6.9148
     6.9329   7.0263   7.1016

          k = 0.0000-0.2887 0.1111 (136898 PWs)   bands (ev):

   -18.6458  -6.6218  -6.5525  -5.8035  -5.5108  -5.4538  -5.4531  -4.9155
    -4.9153  -4.7839  -4.7832  -4.6281  -4.5992  -4.5360  -4.5031  -4.5017
    -4.4689  -4.4686  -4.3401  -4.2985  -4.2983  -4.2388  -4.2181  -4.2175
    -4.1151  -4.1149  -4.0788  -4.0784  -4.0783  -4.0520  -4.0302  -4.0299
    -3.9269  -3.9231  -3.9227  -3.9028  -3.8857  -3.8853  -3.8740  -3.8729
    -3.8608  -3.8304  -3.8298  -3.8290  -3.8287  -3.7977  -3.7973  -3.7789
    -3.7785  -3.7677  -3.7269  -3.7239  -3.6913  -3.6782  -3.6753  -3.6701
    -3.6700  -3.5961  -3.5958  -3.5623  -3.5594  -3.5579  -3.4907  -3.4902
    -3.4753  -3.4744  -3.4458  -3.4450  -3.4439  -3.4431  -3.2902  -3.2887
    -3.2684  -3.2641  -3.2599  -3.2434  -3.2423  -3.2178  -3.2171  -3.1673
    -3.1666  -3.1519  -3.1502  -3.1300  -3.0866  -3.0823  -3.0638  -3.0587
    -3.0568  -3.0190  -3.0161  -3.0094  -3.0081  -2.9954  -2.9919  -2.9542
    -2.9530  -2.9331  -2.9318  -2.9288  -2.9277  -2.9243  -2.8577  -2.8481
    -2.8467  -2.8191  -2.8164  -2.7959  -2.7559  -2.7440  -2.7263  -2.7221
    -2.7127  -2.7099  -2.7042  -2.6777  -2.6759  -2.6671  -2.6492  -2.6254
    -2.6241  -2.6161  -2.6033  -2.6019  -2.5919  -2.5905  -2.5880  -2.5791
    -2.5765  -2.5333  -2.5021  -2.5013  -2.4857  -2.4727  -2.4669  -2.4650
    -2.4587  -2.4569  -2.4557  -2.4270  -2.4256  -2.4253  -2.4162  -2.4154
    -2.3999  -2.3731  -2.3718  -2.3708  -2.3699  -2.3693  -2.3239  -2.2942
    -2.2926  -2.2917  -2.2860  -2.2762  -2.2652  -2.2641  -2.2465  -2.2463
    -2.2164  -2.2120  -2.2118  -2.1940  -2.1932  -2.1921  -2.1601  -2.1588
    -2.1214  -2.1156  -2.1111  -2.1086  -2.1074  -2.1027  -2.1011  -2.0981
    -2.0979  -2.0917  -2.0906  -2.0758  -2.0745  -1.9491  -1.9472  -1.9143
    -1.9089  -1.9080  -1.9019  -1.9018  -1.8871  -1.8856  -1.8825  -1.8814
    -1.8791  -1.8571  -1.8508  -1.8493  -1.8418  -1.8382  -1.8361  -1.8145
    -1.8139  -1.7856  -1.7851  -1.7547  -1.7541  -1.7430  -1.7347  -1.7176
    -1.7160  -1.7134  -1.6966  -1.6828  -1.6826  -1.6754  -1.6752  -1.6497
    -1.6488  -1.6331  -1.6315  -1.5993  -1.5976  -1.5893  -1.5402  -1.5399
    -1.5277  -1.5245  -1.5238  -1.4995  -1.4964  -1.4656  -1.4640  -1.4626
    -1.4290  -1.4199  -1.4187  -1.4032  -1.4024  -1.3792  -1.3759  -1.3750
    -1.3461  -1.3427  -1.3424  -1.2812  -1.2790  -1.2692  -1.2663  -1.2522
    -1.2509  -1.2378  -1.2368  -1.2189  -1.2063  -1.1816  -1.1784  -1.1679
    -1.1385  -1.1304  -1.1281  -1.1177  -1.1164  -1.1161  -1.1118  -1.1092
    -1.0947  -1.0701  -1.0661  -1.0594  -1.0531  -1.0509  -1.0502  -1.0293
    -1.0159  -1.0087  -0.9937  -0.9867  -0.8977  -0.8896  -0.8828  -0.8772
    -0.8764  -0.8687  -0.8666  -0.8509  -0.8434  -0.8296  -0.8256  -0.8136
    -0.8118  -0.8037  -0.7878  -0.7827  -0.7793  -0.7719  -0.7352  -0.6988
    -0.6973  -0.6640  -0.6606  -0.6585  -0.6527  -0.6513  -0.6511  -0.6436
    -0.6382  -0.6221  -0.6130  -0.5964  -0.5749  -0.5632  -0.5621  -0.5516
    -0.5464  -0.5397  -0.5379  -0.5364  -0.5351  -0.5251  -0.5186  -0.5141
    -0.5060  -0.4836  -0.4817  -0.4758  -0.4690  -0.4661  -0.4497  -0.4177
    -0.4153  -0.4083  -0.4048  -0.3403  -0.3384  -0.3042  -0.3037  -0.2458
    -0.2453  -0.2442  -0.2268  -0.2189   0.0115   0.0151   0.3558   0.3561
     0.4494   0.4531   0.6442   0.6620   0.6734   0.8028   0.8042   1.2362
     1.2365   1.2530   1.5175   1.5461   1.5465   1.8257   1.8300   1.9004
     1.9024   1.9291   1.9326   2.1566   2.1585   2.2469   2.2480   2.3293
     2.3881   2.3923   2.5496   2.6518   3.0840   3.0900   3.0924   3.0943
     3.1458   3.1480   3.4396   3.4407   3.7218   3.7262   3.8380   4.1362
     4.1759   4.1805   4.4032   4.4216   4.4771   4.4805   4.5723   4.6877
     4.6913   4.8058   4.8078   5.1091   5.1750   5.1819   5.3364   5.3721
     5.4461   5.5631   5.5688   5.5937   5.5961   5.6537   5.6609   5.7159
     5.8751   6.0658   6.2632   6.2828   6.3577   6.3972   6.4016   6.4131
     6.4159   6.5516   6.6410   6.6559   6.6652   6.8509   6.8938   6.9159
     6.9391   7.0223   7.1033

          k = 0.0000 0.2887 0.1111 (136898 PWs)   bands (ev):

   -18.6458  -6.6218  -6.5525  -5.8035  -5.5108  -5.4538  -5.4531  -4.9155
    -4.9153  -4.7839  -4.7832  -4.6281  -4.5992  -4.5360  -4.5031  -4.5017
    -4.4689  -4.4686  -4.3401  -4.2985  -4.2983  -4.2388  -4.2181  -4.2175
    -4.1151  -4.1149  -4.0788  -4.0784  -4.0783  -4.0520  -4.0302  -4.0299
    -3.9269  -3.9231  -3.9227  -3.9028  -3.8857  -3.8853  -3.8740  -3.8729
    -3.8608  -3.8304  -3.8298  -3.8290  -3.8287  -3.7977  -3.7972  -3.7789
    -3.7785  -3.7677  -3.7269  -3.7239  -3.6913  -3.6782  -3.6753  -3.6701
    -3.6700  -3.5960  -3.5958  -3.5623  -3.5594  -3.5579  -3.4907  -3.4902
    -3.4753  -3.4744  -3.4458  -3.4450  -3.4439  -3.4431  -3.2902  -3.2887
    -3.2684  -3.2641  -3.2599  -3.2434  -3.2423  -3.2178  -3.2171  -3.1673
    -3.1666  -3.1519  -3.1502  -3.1300  -3.0866  -3.0823  -3.0638  -3.0587
    -3.0568  -3.0190  -3.0161  -3.0094  -3.0081  -2.9954  -2.9919  -2.9542
    -2.9530  -2.9331  -2.9318  -2.9288  -2.9277  -2.9243  -2.8577  -2.8481
    -2.8467  -2.8191  -2.8164  -2.7959  -2.7559  -2.7440  -2.7263  -2.7221
    -2.7127  -2.7099  -2.7042  -2.6777  -2.6759  -2.6671  -2.6492  -2.6254
    -2.6241  -2.6161  -2.6033  -2.6019  -2.5919  -2.5905  -2.5880  -2.5791
    -2.5765  -2.5333  -2.5021  -2.5013  -2.4857  -2.4727  -2.4669  -2.4649
    -2.4587  -2.4569  -2.4557  -2.4270  -2.4256  -2.4253  -2.4162  -2.4154
    -2.3999  -2.3731  -2.3718  -2.3708  -2.3699  -2.3693  -2.3239  -2.2942
    -2.2926  -2.2917  -2.2860  -2.2762  -2.2652  -2.2641  -2.2465  -2.2464
    -2.2164  -2.2119  -2.2117  -2.1940  -2.1932  -2.1921  -2.1601  -2.1588
    -2.1214  -2.1156  -2.1111  -2.1086  -2.1074  -2.1027  -2.1011  -2.0981
    -2.0979  -2.0917  -2.0906  -2.0758  -2.0745  -1.9491  -1.9472  -1.9143
    -1.9089  -1.9080  -1.9019  -1.9018  -1.8871  -1.8856  -1.8825  -1.8814
    -1.8791  -1.8572  -1.8508  -1.8493  -1.8418  -1.8382  -1.8361  -1.8145
    -1.8139  -1.7856  -1.7851  -1.7547  -1.7541  -1.7430  -1.7347  -1.7176
    -1.7160  -1.7134  -1.6966  -1.6828  -1.6825  -1.6754  -1.6752  -1.6497
    -1.6488  -1.6331  -1.6315  -1.5993  -1.5976  -1.5893  -1.5402  -1.5399
    -1.5277  -1.5245  -1.5238  -1.4995  -1.4964  -1.4656  -1.4640  -1.4626
    -1.4290  -1.4199  -1.4187  -1.4032  -1.4024  -1.3792  -1.3759  -1.3750
    -1.3461  -1.3427  -1.3424  -1.2812  -1.2790  -1.2692  -1.2662  -1.2522
    -1.2509  -1.2378  -1.2368  -1.2189  -1.2063  -1.1816  -1.1784  -1.1679
    -1.1385  -1.1304  -1.1281  -1.1177  -1.1164  -1.1161  -1.1118  -1.1092
    -1.0947  -1.0701  -1.0661  -1.0594  -1.0531  -1.0510  -1.0502  -1.0293
    -1.0159  -1.0087  -0.9937  -0.9867  -0.8977  -0.8896  -0.8828  -0.8772
    -0.8764  -0.8687  -0.8666  -0.8509  -0.8434  -0.8296  -0.8256  -0.8136
    -0.8118  -0.8037  -0.7878  -0.7827  -0.7793  -0.7719  -0.7352  -0.6988
    -0.6973  -0.6640  -0.6606  -0.6585  -0.6527  -0.6513  -0.6511  -0.6436
    -0.6382  -0.6221  -0.6130  -0.5964  -0.5749  -0.5632  -0.5621  -0.5516
    -0.5464  -0.5397  -0.5379  -0.5364  -0.5351  -0.5251  -0.5186  -0.5141
    -0.5060  -0.4836  -0.4817  -0.4758  -0.4690  -0.4661  -0.4497  -0.4177
    -0.4153  -0.4083  -0.4048  -0.3403  -0.3384  -0.3042  -0.3037  -0.2458
    -0.2453  -0.2442  -0.2268  -0.2189   0.0115   0.0151   0.3558   0.3561
     0.4494   0.4531   0.6442   0.6620   0.6734   0.8028   0.8042   1.2362
     1.2365   1.2530   1.5175   1.5461   1.5465   1.8257   1.8300   1.9004
     1.9024   1.9291   1.9326   2.1566   2.1585   2.2469   2.2480   2.3293
     2.3881   2.3923   2.5496   2.6518   3.0840   3.0900   3.0924   3.0943
     3.1458   3.1480   3.4396   3.4407   3.7218   3.7262   3.8380   4.1362
     4.1759   4.1805   4.4032   4.4216   4.4771   4.4805   4.5723   4.6877
     4.6913   4.8058   4.8078   5.1091   5.1750   5.1819   5.3365   5.3721
     5.4460   5.5631   5.5688   5.5937   5.5961   5.6537   5.6609   5.7157
     5.8766   6.0641   6.2633   6.2809   6.3569   6.3971   6.4015   6.4131
     6.4159   6.5563   6.6407   6.6570   6.6663   6.8477   6.8924   6.9154
     6.9387   7.0261   7.1131

     the Fermi energy is     1.3808 ev

!    total energy              =   -6604.43085606 Ry
     Harris-Foulkes estimate   =   -6604.43085606 Ry
     estimated scf accuracy    <          2.3E-09 Ry

     The total energy is the sum of the following terms:

     one-electron contribution =  -48697.04149862 Ry
     hartree contribution      =   24848.30695469 Ry
     xc contribution           =   -3204.98987828 Ry
     ewald contribution        =   20449.29070115 Ry
     smearing contrib. (-TS)   =       0.00286500 Ry

     convergence has been achieved in  25 iterations

     Writing output data file 5975115.save

     init_run     :    203.16s CPU    215.59s WALL (       1 calls)
     electrons    :  11512.80s CPU  12483.12s WALL (       1 calls)

     Called by init_run:
     wfcinit      :    170.93s CPU    182.42s WALL (       1 calls)
     potinit      :     10.25s CPU     10.77s WALL (       1 calls)

     Called by electrons:
     c_bands      :   9844.19s CPU  10688.45s WALL (      26 calls)
     sum_band     :   1297.60s CPU   1405.51s WALL (      26 calls)
     v_of_rho     :    103.55s CPU    116.42s WALL (      26 calls)
     newd         :    275.37s CPU    280.07s WALL (      26 calls)
     mix_rho      :      2.66s CPU      3.08s WALL (      26 calls)
     vdW_energy   :      9.82s CPU     11.93s WALL (      26 calls)
     vdW_ffts     :     49.12s CPU     54.84s WALL (      52 calls)
     vdW_v        :     14.07s CPU     15.02s WALL (      26 calls)

     Called by c_bands:
     init_us_2    :     32.99s CPU     33.51s WALL (     636 calls)
     cegterg      :   9498.40s CPU  10340.09s WALL (     312 calls)

     Called by *egterg:
     h_psi        :   3857.05s CPU   4330.45s WALL (    1653 calls)
     s_psi        :    451.18s CPU    472.63s WALL (    1653 calls)
     g_psi        :      6.46s CPU      6.48s WALL (    1329 calls)
     cdiaghg      :   2060.86s CPU   2066.61s WALL (    1629 calls)

     Called by h_psi:
     add_vuspsi   :    454.13s CPU    473.24s WALL (    1653 calls)

     General routines
     calbec       :   1320.02s CPU   1324.38s WALL (    1965 calls)
     fft          :    144.82s CPU    154.94s WALL (    1716 calls)
     ffts         :      1.47s CPU      1.71s WALL (      52 calls)
     fftw         :   2496.79s CPU   2971.40s WALL (  749880 calls)
     interpolate  :      4.22s CPU      4.94s WALL (      52 calls)
     davcio       :      0.01s CPU      0.43s WALL (      12 calls)

     Parallel routines
     fft_scatter  :   1818.42s CPU   2160.04s WALL (  751648 calls)

     PWSCF        :     3h15m CPU        3h31m WALL


   This run was terminated on:  21:13:57   1Jul2015            

=------------------------------------------------------------------------------=
   JOB DONE.
=------------------------------------------------------------------------------=
