Setting SGE environment for SCC

     Program PWSCF v.5.1.2 starts on  1Jul2015 at 23:19:42 

     This program is part of the open-source Quantum ESPRESSO suite
     for quantum simulation of materials; please cite
         "P. Giannozzi et al., J. Phys.:Condens. Matter 21 395502 (2009);
          URL http://www.quantum-espresso.org", 
     in publications or presentations arising from this work. More details at
     http://www.quantum-espresso.org/quote

     Parallel version (MPI), running on    32 processors
     R & G space division:  proc/nbgrp/npool/nimage =      32
     Reading input from bridge.H2.Au5455.d.2.1.phi.45.psi.0.in
Warning: card &IONS ignored
Warning: card / ignored
Warning: card &CELL ignored
Warning: card / ignored

     Current dimensions of program PWSCF are:
     Max number of different atomic species (ntypx) = 10
     Max number of k-points (npk) =  40000
     Max angular momentum in pseudopotentials (lmaxx) =  3

     IMPORTANT: XC functional enforced from input :
     Exchange-correlation      = VDW-DF ( 1  4  4  0 1 0)
     Any further DFT definition will be discarded
     Please, verify this is what you really want


     Subspace diagonalization in iterative solution of the eigenvalue problem:
     a serial algorithm will be used


     Parallelization info
     --------------------
     sticks:   dense  smooth     PW     G-vecs:    dense   smooth      PW
     Min         445     223     58                96775    34191    4534
     Max         446     224     59                96790    34246    4540
     Sum       14269    7147   1867              3097177  1095093  145167


     Title: 
     bridge.H2.Au5455.d.2.1.phi.45.psi.0                                        


     bravais-lattice index     =            4
     lattice parameter (alat)  =      22.7436  a.u.
     unit-cell volume          =   22924.1508 (a.u.)^3
     number of atoms/cell      =           67
     number of atomic types    =            3
     number of electrons       =       712.00
     number of Kohn-Sham states=          427
     kinetic-energy cutoff     =      50.0000  Ry
     charge density cutoff     =     400.0000  Ry
     convergence threshold     =      1.0E-08
     mixing beta               =       0.7000
     number of iterations used =            8  plain     mixing
     Exchange-correlation      = VDW-DF ( 1  4  4  0 1 0)

     celldm(1)=  22.743643  celldm(2)=   0.000000  celldm(3)=   2.250000
     celldm(4)=   0.000000  celldm(5)=   0.000000  celldm(6)=   0.000000

     crystal axes: (cart. coord. in units of alat)
               a(1) = (   1.000000   0.000000   0.000000 )  
               a(2) = (  -0.500000   0.866025   0.000000 )  
               a(3) = (   0.000000   0.000000   2.250000 )  

     reciprocal axes: (cart. coord. in units 2 pi/alat)
               b(1) = (  1.000000  0.577350 -0.000000 )  
               b(2) = (  0.000000  1.154701  0.000000 )  
               b(3) = (  0.000000 -0.000000  0.444444 )  


     PseudoPot. # 1 for Au read from file:
     /home/scc/andrejb/qe/pseudo/Au.pbe-nd-van.UPF
     MD5 check sum: 458681b50f36d87ef23c61b04bba420a
     Pseudo is Ultrasoft + core correction, Zval = 11.0
     Generated by new atomic code, or converted to UPF format
     Using radial grid of  985 points,  3 beta functions with: 
                l(1) =   1
                l(2) =   2
                l(3) =   2
     Q(r) pseudized with  8 coefficients,  rinner =    1.100   1.100   1.100
                                                       1.100   1.100

     PseudoPot. # 2 for H  read from file:
     /home/scc/andrejb/qe/pseudo/H.pbe-van_ak.UPF
     MD5 check sum: 403db7282739603aa925980fa9b8608d
     Pseudo is Ultrasoft, Zval =  1.0
     Generated by new atomic code, or converted to UPF format
     Using radial grid of  615 points,  1 beta functions with: 
                l(1) =   0
     Q(r) pseudized with  8 coefficients,  rinner =    0.800

     PseudoPot. # 3 for O  read from file:
     /home/scc/andrejb/qe/pseudo/O.pbe-van_ak.UPF
     MD5 check sum: 4b8c549914a63cae506c6ff22b5af4fe
     Pseudo is Ultrasoft, Zval =  6.0
     Generated by new atomic code, or converted to UPF format
     Using radial grid of  737 points,  4 beta functions with: 
                l(1) =   0
                l(2) =   0
                l(3) =   1
                l(4) =   1
     Q(r) pseudized with  8 coefficients,  rinner =    0.800   0.800   0.800


     vdW kernel table read from file vdW_kernel_table
     MD5 check sum: 48e77a2e26edf626eeb0eaa751ad5cac

     atomic species   valence    mass     pseudopotential
        Au            11.00   196.96657     Au( 1.00)
        H              1.00     1.01000     H ( 1.00)
        O              6.00    16.00000     O ( 1.00)

     No symmetry found



   Cartesian axes

     site n.     atom                  positions (alat units)
         1           O   tau(   1) = (   0.2937541   0.3124901   0.8647781  )
         2           H   tau(   2) = (   0.2915728   0.2885783   0.7875031  )
         3           H   tau(   3) = (   0.2874926   0.2440115   0.9074067  )
         4           Au  tau(   4) = (   0.3540481   0.6132292   0.0000000  )
         5           Au  tau(   5) = (   0.4790062   0.3967954   0.0000000  )
         6           Au  tau(   6) = (   0.6039644   0.1803616   0.0000000  )
         7           Au  tau(   7) = (   0.7289225  -0.0360723   0.0000000  )
         8           Au  tau(   8) = (   0.1041318   0.6132292   0.0000000  )
         9           Au  tau(   9) = (   0.2290899   0.3967954   0.0000000  )
        10           Au  tau(  10) = (   0.3540481   0.1803616   0.0000000  )
        11           Au  tau(  11) = (   0.4790062  -0.0360723   0.0000000  )
        12           Au  tau(  12) = (  -0.1457845   0.6132292   0.0000000  )
        13           Au  tau(  13) = (  -0.0208264   0.3967954   0.0000000  )
        14           Au  tau(  14) = (   0.1041318   0.1803616   0.0000000  )
        15           Au  tau(  15) = (   0.2290899  -0.0360723   0.0000000  )
        16           Au  tau(  16) = (  -0.3957008   0.6132292   0.0000000  )
        17           Au  tau(  17) = (  -0.2707426   0.3967954   0.0000000  )
        18           Au  tau(  18) = (  -0.1457845   0.1803616   0.0000000  )
        19           Au  tau(  19) = (  -0.0208264  -0.0360723   0.0000000  )
        20           Au  tau(  20) = (   0.4790062   0.6853738   0.2040557  )
        21           Au  tau(  21) = (   0.6039644   0.4689400   0.2040557  )
        22           Au  tau(  22) = (   0.7289225   0.2525061   0.2040557  )
        23           Au  tau(  23) = (   0.8538806   0.0360723   0.2040557  )
        24           Au  tau(  24) = (   0.2290899   0.6853738   0.2040557  )
        25           Au  tau(  25) = (   0.3540481   0.4689400   0.2040557  )
        26           Au  tau(  26) = (   0.4790062   0.2525061   0.2040557  )
        27           Au  tau(  27) = (   0.6039644   0.0360723   0.2040557  )
        28           Au  tau(  28) = (  -0.0208264   0.6853738   0.2040557  )
        29           Au  tau(  29) = (   0.1041318   0.4689400   0.2040557  )
        30           Au  tau(  30) = (   0.2290899   0.2525061   0.2040557  )
        31           Au  tau(  31) = (   0.3540481   0.0360723   0.2040557  )
        32           Au  tau(  32) = (  -0.2707426   0.6853738   0.2040557  )
        33           Au  tau(  33) = (  -0.1457845   0.4689400   0.2040557  )
        34           Au  tau(  34) = (  -0.0208264   0.2525061   0.2040557  )
        35           Au  tau(  35) = (   0.1041318   0.0360723   0.2040557  )
        36           Au  tau(  36) = (   0.3541162   0.7576593   0.4066483  )
        37           Au  tau(  37) = (   0.4791000   0.5411421   0.4066695  )
        38           Au  tau(  38) = (   0.6040570   0.3246862   0.4066617  )
        39           Au  tau(  39) = (   0.7290270   0.1081684   0.4066529  )
        40           Au  tau(  40) = (   0.1041162   0.7576236   0.4066247  )
        41           Au  tau(  41) = (   0.2291001   0.5411063   0.4066455  )
        42           Au  tau(  42) = (   0.3540567   0.3246505   0.4066380  )
        43           Au  tau(  43) = (   0.4790276   0.1081324   0.4066292  )
        44           Au  tau(  44) = (  -0.1458201   0.7576104   0.4066224  )
        45           Au  tau(  45) = (  -0.0208365   0.5410930   0.4066438  )
        46           Au  tau(  46) = (   0.1041202   0.3246372   0.4066359  )
        47           Au  tau(  47) = (   0.2290908   0.1081193   0.4066273  )
        48           Au  tau(  48) = (  -0.3958167   0.7575791   0.4065812  )
        49           Au  tau(  49) = (  -0.2708328   0.5410617   0.4066025  )
        50           Au  tau(  50) = (  -0.1458763   0.3246061   0.4065947  )
        51           Au  tau(  51) = (  -0.0209056   0.1080882   0.4065858  )
        52           Au  tau(  52) = (   0.3541085   0.6133344   0.6129762  )
        53           Au  tau(  53) = (   0.4790780   0.3968269   0.6129968  )
        54           Au  tau(  54) = (   0.6040356   0.1803811   0.6129859  )
        55           Au  tau(  55) = (   0.7290165  -0.0361221   0.6129385  )
        56           Au  tau(  56) = (   0.1041243   0.6133091   0.6130022  )
        57           Au  tau(  57) = (   0.2290941   0.3968013   0.6130241  )
        58           Au  tau(  58) = (   0.3540515   0.1803552   0.6130121  )
        59           Au  tau(  59) = (   0.4790323  -0.0361475   0.6129659  )
        60           Au  tau(  60) = (  -0.1458030   0.6133014   0.6129980  )
        61           Au  tau(  61) = (  -0.0208339   0.3967936   0.6130188  )
        62           Au  tau(  62) = (   0.1041239   0.1803477   0.6130083  )
        63           Au  tau(  63) = (   0.2291046  -0.0361554   0.6129607  )
        64           Au  tau(  64) = (  -0.3957908   0.6132739   0.6129471  )
        65           Au  tau(  65) = (  -0.2708208   0.3967658   0.6129688  )
        66           Au  tau(  66) = (  -0.1458636   0.1803200   0.6129569  )
        67           Au  tau(  67) = (  -0.0208823  -0.0361826   0.6129110  )

     number of k points=    12  Marzari-Vanderbilt smearing, width (Ry)=  0.0200
                       cart. coord. in units 2pi/alat
        k(    1) = (   0.2500000   0.4330127   0.1111111), wk =   0.1666667
        k(    2) = (   0.2500000  -0.1443376   0.1111111), wk =   0.1666667
        k(    3) = (  -0.2500000  -0.4330127   0.1111111), wk =   0.1666667
        k(    4) = (  -0.2500000   0.4330127  -0.1111111), wk =   0.1666667
        k(    5) = (   0.2500000  -0.4330127  -0.1111111), wk =   0.1666667
        k(    6) = (   0.5000000   0.0000000   0.1111111), wk =   0.1666667
        k(    7) = (  -0.5000000   0.0000000   0.1111111), wk =   0.1666667
        k(    8) = (  -0.2500000   0.1443376   0.1111111), wk =   0.1666667
        k(    9) = (  -0.2500000  -0.1443376  -0.1111111), wk =   0.1666667
        k(   10) = (   0.2500000   0.1443376  -0.1111111), wk =   0.1666667
        k(   11) = (   0.0000000  -0.2886751   0.1111111), wk =   0.1666667
        k(   12) = (   0.0000000   0.2886751   0.1111111), wk =   0.1666667

     Dense  grid:  3097177 G-vectors     FFT dimensions: ( 150, 150, 360)

     Smooth grid:  1095093 G-vectors     FFT dimensions: ( 108, 108, 240)

     Largest allocated arrays     est. size (Mb)     dimensions
        Kohn-Sham Wavefunctions        28.01 Mb     (    4299,  427)
        NL pseudopotentials            55.23 Mb     (    4299,  842)
        Each V/rho on FFT grid          4.12 Mb     (  270000)
        Each G-vector array             0.74 Mb     (   96788)
        G-vector shells                 0.16 Mb     (   21404)
     Largest temporary arrays     est. size (Mb)     dimensions
        Auxiliary wavefunctions       112.04 Mb     (    4299, 1708)
        Each subspace H/S matrix       44.51 Mb     (    1708, 1708)
        Each <psi_i|beta_j> matrix      5.49 Mb     (     842,  427)
        Arrays for rho mixing          32.96 Mb     (  270000,    8)

     Initial potential from superposition of free atoms
     Check: negative starting charge=   -1.730278

     starting charge  711.25682, renormalised to  712.00000

     negative rho (up, down):  1.732E+00 0.000E+00


     ************************************************************************
     *
     * You are using vdW-DF for exchange-correlation in this calculation.
     * Please cite the following three references that made this development
     * possible:
     *
     *   M. Dion, H. Rydberg, E. Schroder, D. C. Langreth, and
     *   B. I. Lundqvist, Phys. Rev. Lett. 92, 246401 (2004).
     *
     *   T. Thonhauser, V. R. Cooper, S. Li, A. Puzder, P. Hyldgaard, and
     *   D. C. Langreth, Phys. Rev. B 76, 125112 (2007).
     *
     *   G. Roman-Perez and J. M. Soler, Phys. Rev. Lett. 103, 096102 (2009).
     *
     *
     * If you are using vdW-DF2, please also cite:
     *
     *   K. Lee, E. D. Murray, L. Kong, B. I. Lundqvist, and
     *   D. C. Langreth, Phys. Rev. B 82, 081101(R) (2010).
     *
     *
     * If you are calculating the stress with vdW-DF, please also cite:
     *
     *   R. Sabatini, E. Kucukbenli, B. Kolb, T. Thonhauser, and
     *   S. de Gironcoli, J. Phys.: Condens. Matter 24, 424209 (2012).
     *
     ************************************************************************

     Carrying out vdW-DF run using the following parameters:

     Nqs =      20    Nr_points =    1024   r_max =   100.000
     q_mesh =
               0.00001000     0.04494208     0.09755937     0.15916263
               0.23128650     0.31572767     0.41458969     0.53033537
               0.66584808     0.82450364     1.01025438     1.22772762
               1.48234092     1.78043706     2.12944203     2.53805004
               3.01644009     3.57652955     4.23227104     5.00000000

     Gradients computed in reciprocal space

     ************************************************************************


     Starting wfc are  582 randomized atomic wfcs

     total cpu time spent up to now is      206.4 secs

     Self-consistent Calculation

     iteration #  1     ecut=    50.00 Ry     beta=0.70
     Davidson diagonalization with overlap
     ethr =  1.00E-02,  avg # of iterations =  3.0

     Threshold (ethr) on eigenvalues was too large:
     Diagonalizing with lowered threshold

     Davidson diagonalization with overlap
     ethr =  3.41E-04,  avg # of iterations =  4.0

     negative rho (up, down):  1.727E+00 0.000E+00

     total cpu time spent up to now is     1069.2 secs

     total energy              =   -6602.81477165 Ry
     Harris-Foulkes estimate   =   -6605.02350502 Ry
     estimated scf accuracy    <       2.77079085 Ry

     iteration #  2     ecut=    50.00 Ry     beta=0.70
     Davidson diagonalization with overlap
     ethr =  3.89E-04,  avg # of iterations = 11.5

     negative rho (up, down):  1.727E+00 0.000E+00

     total cpu time spent up to now is     2479.9 secs

     total energy              =   -6597.08990493 Ry
     Harris-Foulkes estimate   =   -6609.96484203 Ry
     estimated scf accuracy    <      70.56781458 Ry

     iteration #  3     ecut=    50.00 Ry     beta=0.70
     Davidson diagonalization with overlap
     ethr =  3.89E-04,  avg # of iterations =  6.3

     negative rho (up, down):  1.737E+00 0.000E+00

     total cpu time spent up to now is     3398.2 secs

     total energy              =   -6603.18664024 Ry
     Harris-Foulkes estimate   =   -6604.99941377 Ry
     estimated scf accuracy    <       8.17044696 Ry

     iteration #  4     ecut=    50.00 Ry     beta=0.70
     Davidson diagonalization with overlap
     ethr =  3.89E-04,  avg # of iterations =  7.0

     negative rho (up, down):  1.739E+00 0.000E+00

     total cpu time spent up to now is     3949.7 secs

     total energy              =   -6603.71419105 Ry
     Harris-Foulkes estimate   =   -6604.98393064 Ry
     estimated scf accuracy    <      10.37531309 Ry

     iteration #  5     ecut=    50.00 Ry     beta=0.70
     Davidson diagonalization with overlap
     ethr =  3.89E-04,  avg # of iterations =  6.3

     negative rho (up, down):  1.748E+00 0.000E+00

     total cpu time spent up to now is     4443.2 secs

     total energy              =   -6604.26645662 Ry
     Harris-Foulkes estimate   =   -6604.67516721 Ry
     estimated scf accuracy    <       3.29876459 Ry

     iteration #  6     ecut=    50.00 Ry     beta=0.70
     Davidson diagonalization with overlap
     ethr =  3.89E-04,  avg # of iterations =  2.8

     negative rho (up, down):  1.752E+00 0.000E+00

     total cpu time spent up to now is     4831.0 secs

     total energy              =   -6604.42137809 Ry
     Harris-Foulkes estimate   =   -6604.46833177 Ry
     estimated scf accuracy    <       0.15115984 Ry

     iteration #  7     ecut=    50.00 Ry     beta=0.70
     Davidson diagonalization with overlap
     ethr =  2.12E-05,  avg # of iterations = 11.8

     negative rho (up, down):  1.754E+00 0.000E+00

     total cpu time spent up to now is     5510.4 secs

     total energy              =   -6604.42832515 Ry
     Harris-Foulkes estimate   =   -6604.45677864 Ry
     estimated scf accuracy    <       0.12789943 Ry

     iteration #  8     ecut=    50.00 Ry     beta=0.70
     Davidson diagonalization with overlap
     ethr =  1.80E-05,  avg # of iterations =  3.5

     negative rho (up, down):  1.756E+00 0.000E+00

     total cpu time spent up to now is     5916.3 secs

     total energy              =   -6604.43118096 Ry
     Harris-Foulkes estimate   =   -6604.44477498 Ry
     estimated scf accuracy    <       0.05366268 Ry

     iteration #  9     ecut=    50.00 Ry     beta=0.70
     Davidson diagonalization with overlap
     ethr =  7.54E-06,  avg # of iterations =  6.0

     negative rho (up, down):  1.756E+00 0.000E+00

     total cpu time spent up to now is     6397.9 secs

     total energy              =   -6604.43071477 Ry
     Harris-Foulkes estimate   =   -6604.43727149 Ry
     estimated scf accuracy    <       0.02395749 Ry

     iteration # 10     ecut=    50.00 Ry     beta=0.70
     Davidson diagonalization with overlap
     c_bands:  1 eigenvalues not converged
     ethr =  3.36E-06,  avg # of iterations =  6.4

     negative rho (up, down):  1.757E+00 0.000E+00

     total cpu time spent up to now is     6871.8 secs

     total energy              =   -6604.43017368 Ry
     Harris-Foulkes estimate   =   -6604.43314755 Ry
     estimated scf accuracy    <       0.01039650 Ry

     iteration # 11     ecut=    50.00 Ry     beta=0.70
     Davidson diagonalization with overlap
     ethr =  1.46E-06,  avg # of iterations =  4.7

     negative rho (up, down):  1.757E+00 0.000E+00

     total cpu time spent up to now is     7337.9 secs

     total energy              =   -6604.42995875 Ry
     Harris-Foulkes estimate   =   -6604.43136547 Ry
     estimated scf accuracy    <       0.00536718 Ry

     iteration # 12     ecut=    50.00 Ry     beta=0.70
     Davidson diagonalization with overlap
     ethr =  7.54E-07,  avg # of iterations =  3.8

     negative rho (up, down):  1.758E+00 0.000E+00

     total cpu time spent up to now is     7757.6 secs

     total energy              =   -6604.42972380 Ry
     Harris-Foulkes estimate   =   -6604.43045438 Ry
     estimated scf accuracy    <       0.00126950 Ry

     iteration # 13     ecut=    50.00 Ry     beta=0.70
     Davidson diagonalization with overlap
     ethr =  1.78E-07,  avg # of iterations = 10.5

     negative rho (up, down):  1.758E+00 0.000E+00

     total cpu time spent up to now is     8396.2 secs

     total energy              =   -6604.42990411 Ry
     Harris-Foulkes estimate   =   -6604.43011550 Ry
     estimated scf accuracy    <       0.00067386 Ry

     iteration # 14     ecut=    50.00 Ry     beta=0.70
     Davidson diagonalization with overlap
     ethr =  9.46E-08,  avg # of iterations =  2.0

     negative rho (up, down):  1.758E+00 0.000E+00

     total cpu time spent up to now is     8776.3 secs

     total energy              =   -6604.42999221 Ry
     Harris-Foulkes estimate   =   -6604.43005643 Ry
     estimated scf accuracy    <       0.00024331 Ry

     iteration # 15     ecut=    50.00 Ry     beta=0.70
     Davidson diagonalization with overlap
     ethr =  3.42E-08,  avg # of iterations =  2.0

     negative rho (up, down):  1.757E+00 0.000E+00

     total cpu time spent up to now is     9163.4 secs

     total energy              =   -6604.43001652 Ry
     Harris-Foulkes estimate   =   -6604.43004243 Ry
     estimated scf accuracy    <       0.00009967 Ry

     iteration # 16     ecut=    50.00 Ry     beta=0.70
     Davidson diagonalization with overlap
     ethr =  1.40E-08,  avg # of iterations =  2.0

     negative rho (up, down):  1.757E+00 0.000E+00

     total cpu time spent up to now is     9531.5 secs

     total energy              =   -6604.43002087 Ry
     Harris-Foulkes estimate   =   -6604.43003567 Ry
     estimated scf accuracy    <       0.00010707 Ry

     iteration # 17     ecut=    50.00 Ry     beta=0.70
     Davidson diagonalization with overlap
     ethr =  1.40E-08,  avg # of iterations =  1.0

     negative rho (up, down):  1.757E+00 0.000E+00

     total cpu time spent up to now is     9887.7 secs

     total energy              =   -6604.43002816 Ry
     Harris-Foulkes estimate   =   -6604.43003329 Ry
     estimated scf accuracy    <       0.00004768 Ry

     iteration # 18     ecut=    50.00 Ry     beta=0.70
     Davidson diagonalization with overlap
     ethr =  6.70E-09,  avg # of iterations =  1.0

     negative rho (up, down):  1.757E+00 0.000E+00

     total cpu time spent up to now is    10226.8 secs

     total energy              =   -6604.43002967 Ry
     Harris-Foulkes estimate   =   -6604.43003208 Ry
     estimated scf accuracy    <       0.00000888 Ry

     iteration # 19     ecut=    50.00 Ry     beta=0.70
     Davidson diagonalization with overlap
     ethr =  1.25E-09,  avg # of iterations =  2.0

     negative rho (up, down):  1.757E+00 0.000E+00

     total cpu time spent up to now is    10611.5 secs

     total energy              =   -6604.43003085 Ry
     Harris-Foulkes estimate   =   -6604.43003126 Ry
     estimated scf accuracy    <       0.00000167 Ry

     iteration # 20     ecut=    50.00 Ry     beta=0.70
     Davidson diagonalization with overlap
     ethr =  2.35E-10,  avg # of iterations =  2.0

     negative rho (up, down):  1.757E+00 0.000E+00

     total cpu time spent up to now is    10989.4 secs

     total energy              =   -6604.43003112 Ry
     Harris-Foulkes estimate   =   -6604.43003116 Ry
     estimated scf accuracy    <       0.00000020 Ry

     iteration # 21     ecut=    50.00 Ry     beta=0.70
     Davidson diagonalization with overlap
     ethr =  2.79E-11,  avg # of iterations =  2.8

     negative rho (up, down):  1.757E+00 0.000E+00

     total cpu time spent up to now is    11486.1 secs

     total energy              =   -6604.43003117 Ry
     Harris-Foulkes estimate   =   -6604.43003121 Ry
     estimated scf accuracy    <       0.00000027 Ry

     iteration # 22     ecut=    50.00 Ry     beta=0.70
     Davidson diagonalization with overlap
     ethr =  2.79E-11,  avg # of iterations =  2.0

     negative rho (up, down):  1.757E+00 0.000E+00

     total cpu time spent up to now is    11859.9 secs

     total energy              =   -6604.43003119 Ry
     Harris-Foulkes estimate   =   -6604.43003120 Ry
     estimated scf accuracy    <       0.00000001 Ry

     iteration # 23     ecut=    50.00 Ry     beta=0.70
     Davidson diagonalization with overlap
     ethr =  1.94E-12,  avg # of iterations =  3.5

     negative rho (up, down):  1.757E+00 0.000E+00

     total cpu time spent up to now is    12424.4 secs

     total energy              =   -6604.43003120 Ry
     Harris-Foulkes estimate   =   -6604.43003120 Ry
     estimated scf accuracy    <       0.00000002 Ry

     iteration # 24     ecut=    50.00 Ry     beta=0.70
     Davidson diagonalization with overlap
     ethr =  1.94E-12,  avg # of iterations =  3.0

     negative rho (up, down):  1.757E+00 0.000E+00

     total cpu time spent up to now is    12862.5 secs

     total energy              =   -6604.43003121 Ry
     Harris-Foulkes estimate   =   -6604.43003121 Ry
     estimated scf accuracy    <       0.00000002 Ry

     iteration # 25     ecut=    50.00 Ry     beta=0.70
     Davidson diagonalization with overlap
     ethr =  1.94E-12,  avg # of iterations =  2.5

     negative rho (up, down):  1.757E+00 0.000E+00

     total cpu time spent up to now is    13254.9 secs

     End of self-consistent calculation

          k = 0.2500 0.4330 0.1111 (136853 PWs)   bands (ev):

   -18.6158  -6.5646  -6.3828  -5.9888  -5.9872  -5.3099  -4.9782  -4.9775
    -4.9388  -4.9373  -4.5778  -4.5775  -4.4793  -4.4787  -4.4650  -4.4423
    -4.4201  -4.3121  -4.3106  -4.2870  -4.2439  -4.2435  -4.1757  -4.1747
    -4.1688  -4.1675  -4.1466  -4.1413  -4.1400  -4.0729  -4.0673  -4.0387
    -4.0381  -4.0264  -4.0260  -4.0027  -4.0025  -3.9802  -3.9718  -3.9716
    -3.9455  -3.8932  -3.8929  -3.8451  -3.8444  -3.7879  -3.7868  -3.7328
    -3.7312  -3.7307  -3.7302  -3.6948  -3.6600  -3.6580  -3.6494  -3.6482
    -3.6480  -3.6203  -3.6171  -3.6089  -3.5495  -3.5488  -3.5402  -3.5212
    -3.5138  -3.4421  -3.4413  -3.4112  -3.4071  -3.3816  -3.3800  -3.3660
    -3.3497  -3.2933  -3.2902  -3.2726  -3.2723  -3.2242  -3.2166  -3.2156
    -3.1765  -3.1505  -3.1451  -3.1368  -3.1366  -3.1260  -3.1240  -3.1172
    -3.1156  -3.1065  -3.0652  -3.0273  -3.0259  -3.0137  -3.0124  -2.9856
    -2.9781  -2.9772  -2.9563  -2.9129  -2.9091  -2.9016  -2.8629  -2.8552
    -2.8464  -2.8432  -2.8242  -2.8136  -2.7887  -2.7753  -2.7478  -2.7330
    -2.7250  -2.7164  -2.7032  -2.6941  -2.6531  -2.6528  -2.6198  -2.5977
    -2.5958  -2.5730  -2.5693  -2.5615  -2.5585  -2.5510  -2.5284  -2.5264
    -2.4832  -2.4824  -2.4809  -2.4662  -2.4652  -2.4584  -2.4513  -2.4484
    -2.4467  -2.4464  -2.4407  -2.4316  -2.4286  -2.4180  -2.3939  -2.3913
    -2.3908  -2.3884  -2.3875  -2.3851  -2.3822  -2.3579  -2.3564  -2.3412
    -2.3398  -2.3226  -2.3223  -2.3133  -2.3129  -2.3112  -2.3105  -2.2931
    -2.2903  -2.2892  -2.2877  -2.2724  -2.2458  -2.2445  -2.2048  -2.2043
    -2.1813  -2.1804  -2.1534  -2.1510  -2.1249  -2.1242  -2.1072  -2.1029
    -2.0758  -2.0565  -2.0545  -2.0495  -2.0469  -2.0435  -2.0367  -2.0347
    -2.0090  -2.0033  -1.9964  -1.9374  -1.9326  -1.9315  -1.9291  -1.9280
    -1.8960  -1.8740  -1.8729  -1.8459  -1.8444  -1.7874  -1.7856  -1.7554
    -1.7382  -1.7365  -1.6769  -1.6762  -1.6662  -1.6635  -1.6542  -1.6525
    -1.6488  -1.6417  -1.6390  -1.5849  -1.5828  -1.5741  -1.5710  -1.5703
    -1.5538  -1.5505  -1.5173  -1.5163  -1.5005  -1.4992  -1.4980  -1.4913
    -1.4862  -1.4795  -1.4757  -1.4575  -1.4571  -1.4185  -1.4139  -1.4063
    -1.4035  -1.3846  -1.3693  -1.3304  -1.3266  -1.3007  -1.2974  -1.2961
    -1.2667  -1.2170  -1.2142  -1.2133  -1.2123  -1.2097  -1.2063  -1.1977
    -1.1806  -1.1779  -1.1412  -1.1367  -1.1094  -1.1072  -1.1020  -1.1011
    -1.0947  -1.0793  -1.0778  -1.0761  -1.0734  -1.0724  -1.0377  -1.0342
    -1.0333  -1.0324  -1.0048  -1.0023  -0.9987  -0.9737  -0.9696  -0.9658
    -0.9218  -0.9135  -0.9119  -0.8792  -0.8707  -0.8602  -0.8590  -0.8524
    -0.8505  -0.8496  -0.8471  -0.8387  -0.8354  -0.8131  -0.8111  -0.8072
    -0.8049  -0.8044  -0.7731  -0.7675  -0.7667  -0.7566  -0.7407  -0.7351
    -0.7329  -0.7215  -0.6985  -0.6651  -0.6621  -0.6557  -0.6544  -0.6523
    -0.6489  -0.6331  -0.6274  -0.6241  -0.6192  -0.6179  -0.6168  -0.5924
    -0.5776  -0.5755  -0.5723  -0.5664  -0.5645  -0.5609  -0.5590  -0.5473
    -0.5405  -0.5400  -0.5216  -0.4982  -0.4973  -0.4891  -0.4858  -0.4841
    -0.4099  -0.4067  -0.4049  -0.4039  -0.3959  -0.3918  -0.3585  -0.3469
    -0.3464  -0.3149  -0.3140  -0.3099  -0.1946  -0.1901  -0.0907   0.3240
     0.3251   0.3291   0.3293   0.3911   0.3955   0.7750   0.7792   0.8199
     0.8216   0.9353   1.0110   1.1199   1.1251   1.3459   1.3510   1.9737
     1.9782   2.1356   2.1399   2.2719   2.2755   2.3740   2.3745   2.5283
     2.7651   2.7814   2.8903   3.1123   3.1188   3.1955   3.1975   3.2950
     3.3134   3.5164   3.5271   3.5681   3.7694   3.7719   3.8340   3.8369
     4.0885   4.0966   4.1015   4.3396   4.3806   4.3827   4.4269   4.7570
     4.7668   4.7914   4.9294   5.1015   5.1027   5.1647   5.1879   5.5410
     5.8149   5.8815   5.8882   5.8995   5.9245   5.9583   5.9659   6.0603
     6.0796   6.0977   6.1230   6.1323   6.1414   6.1614   6.1711   6.1861
     6.1889   6.4526   6.5890   6.7305   6.7562   6.7876   6.8365   6.8404
     6.8464   6.9525   7.0343

          k = 0.2500-0.1443 0.1111 (136898 PWs)   bands (ev):

   -18.6158  -6.6176  -6.5390  -5.8058  -5.5131  -5.4563  -5.4553  -4.9181
    -4.9175  -4.7862  -4.7854  -4.6304  -4.6016  -4.5382  -4.5059  -4.5036
    -4.4715  -4.4709  -4.3426  -4.3009  -4.3006  -4.2414  -4.2207  -4.2195
    -4.1177  -4.1173  -4.0814  -4.0808  -4.0807  -4.0544  -4.0327  -4.0322
    -3.9291  -3.9254  -3.9251  -3.9053  -3.8881  -3.8875  -3.8764  -3.8752
    -3.8632  -3.8328  -3.8321  -3.8317  -3.8311  -3.8000  -3.7996  -3.7815
    -3.7808  -3.7698  -3.7292  -3.7262  -3.6936  -3.6806  -3.6775  -3.6725
    -3.6724  -3.5984  -3.5981  -3.5645  -3.5621  -3.5602  -3.4930  -3.4924
    -3.4782  -3.4766  -3.4485  -3.4475  -3.4458  -3.4453  -3.2920  -3.2909
    -3.2696  -3.2669  -3.2628  -3.2457  -3.2446  -3.2202  -3.2195  -3.1698
    -3.1690  -3.1538  -3.1525  -3.1327  -3.0882  -3.0848  -3.0669  -3.0602
    -3.0590  -3.0204  -3.0183  -3.0123  -3.0105  -2.9997  -2.9940  -2.9563
    -2.9554  -2.9356  -2.9343  -2.9311  -2.9300  -2.9263  -2.8581  -2.8505
    -2.8488  -2.8210  -2.8186  -2.7898  -2.7587  -2.7407  -2.7288  -2.7234
    -2.7157  -2.7133  -2.7070  -2.6802  -2.6770  -2.6695  -2.6523  -2.6274
    -2.6269  -2.6178  -2.6056  -2.6040  -2.5940  -2.5928  -2.5907  -2.5816
    -2.5803  -2.5358  -2.5043  -2.5040  -2.4866  -2.4743  -2.4691  -2.4673
    -2.4603  -2.4595  -2.4577  -2.4297  -2.4280  -2.4273  -2.4188  -2.4181
    -2.4023  -2.3757  -2.3738  -2.3733  -2.3724  -2.3716  -2.3261  -2.2960
    -2.2949  -2.2941  -2.2883  -2.2785  -2.2680  -2.2664  -2.2490  -2.2489
    -2.2188  -2.2143  -2.2141  -2.1962  -2.1959  -2.1944  -2.1621  -2.1609
    -2.1239  -2.1180  -2.1136  -2.1108  -2.1099  -2.1047  -2.1033  -2.1002
    -2.0996  -2.0951  -2.0925  -2.0781  -2.0767  -1.9524  -1.9495  -1.9177
    -1.9123  -1.9101  -1.9044  -1.9042  -1.8887  -1.8872  -1.8841  -1.8834
    -1.8820  -1.8596  -1.8540  -1.8519  -1.8439  -1.8395  -1.8392  -1.8168
    -1.8157  -1.7882  -1.7872  -1.7571  -1.7560  -1.7454  -1.7371  -1.7197
    -1.7183  -1.7159  -1.6990  -1.6853  -1.6847  -1.6777  -1.6774  -1.6520
    -1.6515  -1.6355  -1.6342  -1.6012  -1.5995  -1.5916  -1.5436  -1.5418
    -1.5292  -1.5265  -1.5262  -1.5016  -1.4990  -1.4675  -1.4661  -1.4646
    -1.4317  -1.4221  -1.4215  -1.4057  -1.4046  -1.3810  -1.3786  -1.3773
    -1.3484  -1.3453  -1.3448  -1.2832  -1.2814  -1.2714  -1.2686  -1.2536
    -1.2530  -1.2397  -1.2392  -1.2216  -1.2088  -1.1815  -1.1811  -1.1702
    -1.1412  -1.1319  -1.1302  -1.1189  -1.1187  -1.1180  -1.1140  -1.1113
    -1.0972  -1.0696  -1.0683  -1.0561  -1.0544  -1.0536  -1.0519  -1.0315
    -1.0165  -1.0104  -0.9950  -0.9891  -0.8991  -0.8862  -0.8848  -0.8796
    -0.8785  -0.8694  -0.8689  -0.8531  -0.8458  -0.8309  -0.8276  -0.8150
    -0.8141  -0.8056  -0.7875  -0.7851  -0.7816  -0.7741  -0.7063  -0.7014
    -0.7004  -0.6664  -0.6628  -0.6600  -0.6550  -0.6538  -0.6534  -0.6416
    -0.6408  -0.6252  -0.6146  -0.5989  -0.5727  -0.5662  -0.5638  -0.5540
    -0.5481  -0.5410  -0.5407  -0.5391  -0.5377  -0.5316  -0.5209  -0.5164
    -0.5111  -0.4860  -0.4844  -0.4829  -0.4716  -0.4711  -0.4520  -0.4202
    -0.4186  -0.4107  -0.4083  -0.3436  -0.3418  -0.3064  -0.3061  -0.2485
    -0.2478  -0.2465  -0.2283  -0.2212   0.0084   0.0108   0.3535   0.3538
     0.4460   0.4503   0.6426   0.6596   0.6713   0.8005   0.8022   1.2339
     1.2343   1.2505   1.5154   1.5438   1.5443   1.8217   1.8284   1.8984
     1.9000   1.9260   1.9308   2.1549   2.1565   2.2445   2.2457   2.3271
     2.3844   2.3911   2.5476   2.6497   3.0813   3.0872   3.0903   3.0919
     3.1437   3.1458   3.4374   3.4383   3.7183   3.7246   3.8363   4.1336
     4.1728   4.1791   4.3991   4.4211   4.4737   4.4789   4.5702   4.6838
     4.6898   4.8033   4.8051   5.1074   5.1679   5.1811   5.3334   5.3719
     5.4492   5.5599   5.5672   5.5919   5.5936   5.6525   5.6563   5.7140
     5.8783   6.0618   6.2615   6.2853   6.3614   6.3958   6.3993   6.4116
     6.4124   6.5523   6.6386   6.6533   6.6643   6.8478   6.8889   6.9156
     6.9424   7.0231   7.1137

          k =-0.2500-0.4330 0.1111 (136853 PWs)   bands (ev):

   -18.6158  -6.5646  -6.3828  -5.9888  -5.9872  -5.3099  -4.9782  -4.9775
    -4.9388  -4.9373  -4.5778  -4.5775  -4.4793  -4.4787  -4.4650  -4.4423
    -4.4201  -4.3121  -4.3106  -4.2870  -4.2439  -4.2435  -4.1757  -4.1747
    -4.1688  -4.1675  -4.1466  -4.1413  -4.1400  -4.0729  -4.0673  -4.0387
    -4.0381  -4.0264  -4.0260  -4.0027  -4.0025  -3.9802  -3.9718  -3.9716
    -3.9455  -3.8932  -3.8929  -3.8451  -3.8444  -3.7879  -3.7868  -3.7328
    -3.7312  -3.7307  -3.7302  -3.6948  -3.6600  -3.6580  -3.6494  -3.6482
    -3.6480  -3.6203  -3.6171  -3.6089  -3.5495  -3.5488  -3.5402  -3.5212
    -3.5138  -3.4421  -3.4413  -3.4112  -3.4071  -3.3816  -3.3800  -3.3660
    -3.3497  -3.2933  -3.2902  -3.2726  -3.2723  -3.2242  -3.2166  -3.2156
    -3.1765  -3.1505  -3.1451  -3.1368  -3.1366  -3.1260  -3.1240  -3.1172
    -3.1156  -3.1065  -3.0652  -3.0273  -3.0259  -3.0137  -3.0124  -2.9856
    -2.9781  -2.9772  -2.9563  -2.9129  -2.9091  -2.9016  -2.8629  -2.8551
    -2.8464  -2.8432  -2.8242  -2.8136  -2.7887  -2.7753  -2.7478  -2.7330
    -2.7250  -2.7164  -2.7032  -2.6941  -2.6531  -2.6528  -2.6198  -2.5977
    -2.5957  -2.5730  -2.5693  -2.5615  -2.5585  -2.5510  -2.5284  -2.5264
    -2.4832  -2.4824  -2.4809  -2.4662  -2.4652  -2.4584  -2.4513  -2.4484
    -2.4467  -2.4464  -2.4407  -2.4316  -2.4286  -2.4180  -2.3939  -2.3913
    -2.3908  -2.3884  -2.3875  -2.3851  -2.3822  -2.3579  -2.3564  -2.3412
    -2.3398  -2.3226  -2.3223  -2.3133  -2.3129  -2.3112  -2.3105  -2.2931
    -2.2903  -2.2892  -2.2877  -2.2724  -2.2458  -2.2445  -2.2048  -2.2043
    -2.1813  -2.1804  -2.1534  -2.1510  -2.1249  -2.1242  -2.1072  -2.1029
    -2.0758  -2.0565  -2.0545  -2.0495  -2.0469  -2.0435  -2.0367  -2.0347
    -2.0090  -2.0033  -1.9964  -1.9374  -1.9326  -1.9315  -1.9291  -1.9280
    -1.8960  -1.8740  -1.8729  -1.8459  -1.8444  -1.7874  -1.7856  -1.7554
    -1.7382  -1.7365  -1.6769  -1.6762  -1.6662  -1.6635  -1.6542  -1.6525
    -1.6488  -1.6417  -1.6390  -1.5849  -1.5828  -1.5741  -1.5710  -1.5703
    -1.5538  -1.5505  -1.5173  -1.5163  -1.5005  -1.4992  -1.4980  -1.4913
    -1.4862  -1.4795  -1.4757  -1.4575  -1.4571  -1.4185  -1.4139  -1.4063
    -1.4035  -1.3846  -1.3693  -1.3304  -1.3266  -1.3007  -1.2974  -1.2961
    -1.2667  -1.2170  -1.2142  -1.2133  -1.2123  -1.2097  -1.2063  -1.1977
    -1.1806  -1.1779  -1.1412  -1.1367  -1.1094  -1.1072  -1.1020  -1.1011
    -1.0947  -1.0793  -1.0778  -1.0762  -1.0734  -1.0724  -1.0377  -1.0342
    -1.0333  -1.0324  -1.0048  -1.0023  -0.9987  -0.9737  -0.9695  -0.9658
    -0.9218  -0.9135  -0.9119  -0.8792  -0.8707  -0.8603  -0.8590  -0.8524
    -0.8505  -0.8496  -0.8471  -0.8387  -0.8354  -0.8131  -0.8111  -0.8072
    -0.8049  -0.8044  -0.7731  -0.7675  -0.7667  -0.7566  -0.7407  -0.7351
    -0.7329  -0.7215  -0.6985  -0.6651  -0.6621  -0.6557  -0.6544  -0.6523
    -0.6489  -0.6331  -0.6274  -0.6240  -0.6192  -0.6179  -0.6168  -0.5924
    -0.5776  -0.5755  -0.5723  -0.5664  -0.5645  -0.5609  -0.5590  -0.5473
    -0.5405  -0.5400  -0.5216  -0.4982  -0.4973  -0.4891  -0.4858  -0.4841
    -0.4099  -0.4067  -0.4049  -0.4039  -0.3959  -0.3918  -0.3585  -0.3469
    -0.3464  -0.3149  -0.3140  -0.3099  -0.1946  -0.1901  -0.0907   0.3240
     0.3251   0.3291   0.3293   0.3911   0.3955   0.7750   0.7792   0.8199
     0.8216   0.9353   1.0110   1.1199   1.1251   1.3459   1.3510   1.9737
     1.9782   2.1356   2.1399   2.2719   2.2755   2.3740   2.3745   2.5283
     2.7651   2.7814   2.8903   3.1123   3.1188   3.1955   3.1975   3.2950
     3.3134   3.5164   3.5271   3.5681   3.7694   3.7719   3.8340   3.8369
     4.0885   4.0966   4.1015   4.3396   4.3806   4.3826   4.4269   4.7570
     4.7668   4.7914   4.9294   5.1015   5.1027   5.1647   5.1879   5.5410
     5.8144   5.8815   5.8882   5.8995   5.9245   5.9583   5.9659   6.0600
     6.0794   6.0976   6.1235   6.1323   6.1434   6.1617   6.1707   6.1863
     6.1889   6.4538   6.5898   6.7158   6.7571   6.7868   6.8365   6.8401
     6.8456   6.9524   7.0394

          k =-0.2500 0.4330-0.1111 (136853 PWs)   bands (ev):

   -18.6158  -6.5644  -6.3832  -5.9889  -5.9871  -5.3100  -4.9781  -4.9775
    -4.9402  -4.9359  -4.5786  -4.5766  -4.4793  -4.4788  -4.4647  -4.4423
    -4.4199  -4.3127  -4.3103  -4.2872  -4.2440  -4.2435  -4.1758  -4.1744
    -4.1688  -4.1677  -4.1464  -4.1426  -4.1387  -4.0744  -4.0658  -4.0394
    -4.0368  -4.0264  -4.0258  -4.0029  -4.0025  -3.9801  -3.9720  -3.9717
    -3.9457  -3.8936  -3.8926  -3.8462  -3.8432  -3.7878  -3.7863  -3.7329
    -3.7309  -3.7305  -3.7300  -3.6951  -3.6600  -3.6570  -3.6499  -3.6488
    -3.6475  -3.6215  -3.6168  -3.6092  -3.5494  -3.5480  -3.5418  -3.5209
    -3.5135  -3.4431  -3.4413  -3.4131  -3.4068  -3.3818  -3.3793  -3.3660
    -3.3498  -3.2923  -3.2901  -3.2739  -3.2712  -3.2226  -3.2181  -3.2157
    -3.1765  -3.1501  -3.1449  -3.1376  -3.1364  -3.1283  -3.1245  -3.1164
    -3.1148  -3.1066  -3.0652  -3.0282  -3.0253  -3.0139  -3.0119  -2.9863
    -2.9797  -2.9764  -2.9567  -2.9128  -2.9083  -2.9018  -2.8625  -2.8551
    -2.8458  -2.8426  -2.8208  -2.8160  -2.7889  -2.7740  -2.7471  -2.7335
    -2.7258  -2.7168  -2.7033  -2.6920  -2.6544  -2.6499  -2.6194  -2.5972
    -2.5953  -2.5743  -2.5714  -2.5606  -2.5592  -2.5507  -2.5285  -2.5268
    -2.4829  -2.4822  -2.4809  -2.4662  -2.4654  -2.4586  -2.4508  -2.4492
    -2.4475  -2.4464  -2.4407  -2.4311  -2.4278  -2.4165  -2.3933  -2.3912
    -2.3907  -2.3883  -2.3873  -2.3855  -2.3839  -2.3596  -2.3565  -2.3414
    -2.3401  -2.3230  -2.3221  -2.3143  -2.3127  -2.3116  -2.3089  -2.2928
    -2.2910  -2.2891  -2.2871  -2.2727  -2.2460  -2.2447  -2.2054  -2.2038
    -2.1812  -2.1807  -2.1526  -2.1506  -2.1261  -2.1238  -2.1080  -2.1030
    -2.0753  -2.0581  -2.0533  -2.0479  -2.0464  -2.0427  -2.0368  -2.0346
    -2.0092  -2.0035  -1.9961  -1.9365  -1.9341  -1.9318  -1.9301  -1.9276
    -1.8942  -1.8748  -1.8718  -1.8469  -1.8442  -1.7880  -1.7847  -1.7561
    -1.7376  -1.7360  -1.6781  -1.6755  -1.6658  -1.6629  -1.6545  -1.6521
    -1.6490  -1.6423  -1.6383  -1.5872  -1.5814  -1.5730  -1.5712  -1.5706
    -1.5559  -1.5503  -1.5165  -1.5162  -1.5008  -1.4996  -1.4979  -1.4912
    -1.4866  -1.4791  -1.4754  -1.4582  -1.4566  -1.4191  -1.4135  -1.4075
    -1.4030  -1.3844  -1.3692  -1.3296  -1.3261  -1.3007  -1.2970  -1.2956
    -1.2665  -1.2173  -1.2151  -1.2127  -1.2122  -1.2082  -1.2062  -1.1976
    -1.1815  -1.1779  -1.1418  -1.1361  -1.1106  -1.1062  -1.1028  -1.1006
    -1.0949  -1.0799  -1.0777  -1.0763  -1.0743  -1.0714  -1.0364  -1.0345
    -1.0330  -1.0325  -1.0084  -1.0022  -0.9974  -0.9739  -0.9707  -0.9647
    -0.9229  -0.9156  -0.9114  -0.8819  -0.8693  -0.8600  -0.8577  -0.8556
    -0.8506  -0.8493  -0.8472  -0.8384  -0.8353  -0.8123  -0.8108  -0.8086
    -0.8063  -0.8035  -0.7712  -0.7670  -0.7654  -0.7555  -0.7450  -0.7350
    -0.7323  -0.7216  -0.6831  -0.6653  -0.6599  -0.6559  -0.6543  -0.6536
    -0.6494  -0.6393  -0.6278  -0.6226  -0.6185  -0.6180  -0.6169  -0.5915
    -0.5772  -0.5754  -0.5732  -0.5664  -0.5620  -0.5598  -0.5550  -0.5453
    -0.5419  -0.5404  -0.5328  -0.4989  -0.4963  -0.4900  -0.4853  -0.4837
    -0.4109  -0.4062  -0.4046  -0.4032  -0.3960  -0.3938  -0.3591  -0.3473
    -0.3456  -0.3152  -0.3141  -0.3100  -0.1969  -0.1899  -0.0915   0.3247
     0.3255   0.3286   0.3291   0.3910   0.3943   0.7776   0.7785   0.8193
     0.8214   0.9356   1.0112   1.1191   1.1264   1.3454   1.3514   1.9739
     1.9777   2.1346   2.1410   2.2703   2.2758   2.3735   2.3749   2.5284
     2.7663   2.7816   2.8912   3.1132   3.1200   3.1948   3.1977   3.2974
     3.3133   3.5147   3.5288   3.5687   3.7685   3.7727   3.8297   3.8379
     4.0889   4.0970   4.1026   4.3400   4.3778   4.3833   4.4273   4.7591
     4.7659   4.7916   4.9240   5.1000   5.1029   5.1629   5.1867   5.5426
     5.8114   5.8788   5.8922   5.8990   5.9275   5.9590   5.9661   6.0622
     6.0732   6.0979   6.1262   6.1312   6.1440   6.1624   6.1718   6.1846
     6.1901   6.4529   6.5930   6.7158   6.7536   6.7907   6.8308   6.8440
     6.8459   6.9572   7.0425

          k = 0.2500-0.4330-0.1111 (136853 PWs)   bands (ev):

   -18.6158  -6.5644  -6.3832  -5.9889  -5.9871  -5.3100  -4.9781  -4.9775
    -4.9402  -4.9359  -4.5786  -4.5766  -4.4793  -4.4788  -4.4647  -4.4423
    -4.4199  -4.3127  -4.3103  -4.2872  -4.2440  -4.2435  -4.1758  -4.1744
    -4.1688  -4.1677  -4.1464  -4.1426  -4.1387  -4.0744  -4.0658  -4.0394
    -4.0368  -4.0264  -4.0258  -4.0029  -4.0025  -3.9801  -3.9720  -3.9717
    -3.9457  -3.8936  -3.8926  -3.8462  -3.8432  -3.7878  -3.7863  -3.7329
    -3.7309  -3.7305  -3.7300  -3.6951  -3.6600  -3.6570  -3.6499  -3.6488
    -3.6475  -3.6215  -3.6168  -3.6092  -3.5494  -3.5480  -3.5418  -3.5209
    -3.5135  -3.4431  -3.4413  -3.4131  -3.4068  -3.3818  -3.3793  -3.3660
    -3.3498  -3.2923  -3.2901  -3.2739  -3.2712  -3.2226  -3.2181  -3.2157
    -3.1765  -3.1501  -3.1449  -3.1376  -3.1364  -3.1283  -3.1245  -3.1164
    -3.1148  -3.1066  -3.0652  -3.0282  -3.0253  -3.0139  -3.0119  -2.9863
    -2.9797  -2.9764  -2.9567  -2.9128  -2.9083  -2.9018  -2.8625  -2.8551
    -2.8458  -2.8426  -2.8208  -2.8160  -2.7889  -2.7740  -2.7471  -2.7335
    -2.7258  -2.7168  -2.7033  -2.6920  -2.6544  -2.6499  -2.6194  -2.5972
    -2.5953  -2.5743  -2.5714  -2.5606  -2.5592  -2.5507  -2.5285  -2.5268
    -2.4829  -2.4822  -2.4809  -2.4662  -2.4654  -2.4586  -2.4508  -2.4492
    -2.4475  -2.4464  -2.4407  -2.4311  -2.4278  -2.4165  -2.3933  -2.3912
    -2.3907  -2.3883  -2.3873  -2.3855  -2.3839  -2.3596  -2.3565  -2.3414
    -2.3401  -2.3230  -2.3221  -2.3143  -2.3127  -2.3116  -2.3089  -2.2928
    -2.2910  -2.2891  -2.2871  -2.2727  -2.2460  -2.2447  -2.2054  -2.2038
    -2.1812  -2.1807  -2.1526  -2.1506  -2.1261  -2.1238  -2.1080  -2.1030
    -2.0753  -2.0581  -2.0533  -2.0479  -2.0464  -2.0427  -2.0368  -2.0346
    -2.0092  -2.0035  -1.9961  -1.9365  -1.9341  -1.9318  -1.9301  -1.9276
    -1.8942  -1.8748  -1.8718  -1.8469  -1.8442  -1.7880  -1.7847  -1.7561
    -1.7376  -1.7360  -1.6781  -1.6755  -1.6658  -1.6629  -1.6545  -1.6521
    -1.6490  -1.6423  -1.6383  -1.5872  -1.5814  -1.5730  -1.5712  -1.5706
    -1.5559  -1.5503  -1.5165  -1.5162  -1.5008  -1.4996  -1.4979  -1.4912
    -1.4866  -1.4791  -1.4754  -1.4582  -1.4566  -1.4191  -1.4135  -1.4075
    -1.4030  -1.3844  -1.3692  -1.3296  -1.3261  -1.3007  -1.2970  -1.2956
    -1.2665  -1.2173  -1.2151  -1.2127  -1.2122  -1.2082  -1.2062  -1.1976
    -1.1815  -1.1779  -1.1418  -1.1361  -1.1106  -1.1062  -1.1028  -1.1006
    -1.0949  -1.0799  -1.0777  -1.0763  -1.0743  -1.0714  -1.0364  -1.0345
    -1.0330  -1.0325  -1.0084  -1.0022  -0.9974  -0.9739  -0.9707  -0.9647
    -0.9229  -0.9156  -0.9114  -0.8819  -0.8693  -0.8600  -0.8577  -0.8556
    -0.8506  -0.8493  -0.8472  -0.8385  -0.8353  -0.8123  -0.8108  -0.8086
    -0.8063  -0.8035  -0.7712  -0.7670  -0.7654  -0.7555  -0.7450  -0.7350
    -0.7323  -0.7216  -0.6831  -0.6653  -0.6599  -0.6559  -0.6543  -0.6536
    -0.6494  -0.6393  -0.6278  -0.6226  -0.6185  -0.6180  -0.6169  -0.5915
    -0.5772  -0.5754  -0.5732  -0.5664  -0.5620  -0.5598  -0.5550  -0.5453
    -0.5419  -0.5404  -0.5328  -0.4988  -0.4964  -0.4900  -0.4853  -0.4837
    -0.4109  -0.4062  -0.4046  -0.4032  -0.3960  -0.3938  -0.3591  -0.3473
    -0.3456  -0.3152  -0.3141  -0.3100  -0.1969  -0.1899  -0.0915   0.3247
     0.3255   0.3286   0.3291   0.3910   0.3943   0.7776   0.7785   0.8193
     0.8214   0.9356   1.0112   1.1191   1.1264   1.3454   1.3514   1.9739
     1.9777   2.1346   2.1410   2.2703   2.2758   2.3735   2.3749   2.5284
     2.7663   2.7816   2.8912   3.1132   3.1200   3.1948   3.1977   3.2974
     3.3133   3.5147   3.5288   3.5687   3.7685   3.7727   3.8297   3.8379
     4.0889   4.0970   4.1026   4.3400   4.3778   4.3833   4.4273   4.7591
     4.7659   4.7916   4.9240   5.1000   5.1029   5.1629   5.1867   5.5425
     5.8119   5.8788   5.8922   5.8990   5.9276   5.9590   5.9661   6.0624
     6.0734   6.0980   6.1257   6.1312   6.1423   6.1622   6.1719   6.1846
     6.1901   6.4520   6.5920   6.7267   6.7555   6.7907   6.8311   6.8442
     6.8465   6.9572   7.0373

          k = 0.5000 0.0000 0.1111 (136853 PWs)   bands (ev):

   -18.6158  -6.5646  -6.3828  -5.9885  -5.9875  -5.3099  -4.9792  -4.9766
    -4.9399  -4.9363  -4.5786  -4.5764  -4.4791  -4.4789  -4.4646  -4.4422
    -4.4201  -4.3125  -4.3108  -4.2873  -4.2438  -4.2436  -4.1757  -4.1744
    -4.1698  -4.1668  -4.1464  -4.1430  -4.1383  -4.0743  -4.0659  -4.0395
    -4.0369  -4.0264  -4.0257  -4.0029  -4.0026  -3.9801  -3.9721  -3.9716
    -3.9457  -3.8935  -3.8929  -3.8461  -3.8432  -3.7875  -3.7870  -3.7325
    -3.7313  -3.7306  -3.7303  -3.6951  -3.6597  -3.6582  -3.6493  -3.6488
    -3.6475  -3.6207  -3.6169  -3.6090  -3.5497  -3.5486  -3.5407  -3.5210
    -3.5134  -3.4435  -3.4405  -3.4110  -3.4075  -3.3812  -3.3799  -3.3659
    -3.3496  -3.2923  -3.2902  -3.2725  -3.2719  -3.2234  -3.2179  -3.2157
    -3.1762  -3.1492  -3.1449  -3.1380  -3.1363  -3.1276  -3.1242  -3.1171
    -3.1155  -3.1063  -3.0649  -3.0280  -3.0260  -3.0132  -3.0125  -2.9856
    -2.9774  -2.9771  -2.9572  -2.9140  -2.9089  -2.9039  -2.8634  -2.8550
    -2.8459  -2.8434  -2.8264  -2.8146  -2.7860  -2.7660  -2.7475  -2.7358
    -2.7227  -2.7159  -2.7033  -2.6973  -2.6540  -2.6504  -2.6197  -2.5975
    -2.5969  -2.5732  -2.5700  -2.5608  -2.5591  -2.5511  -2.5285  -2.5264
    -2.4836  -2.4824  -2.4812  -2.4659  -2.4654  -2.4586  -2.4513  -2.4490
    -2.4475  -2.4465  -2.4408  -2.4310  -2.4282  -2.4196  -2.3938  -2.3912
    -2.3903  -2.3885  -2.3879  -2.3863  -2.3836  -2.3580  -2.3564  -2.3411
    -2.3397  -2.3229  -2.3220  -2.3135  -2.3126  -2.3119  -2.3077  -2.2936
    -2.2904  -2.2899  -2.2868  -2.2728  -2.2458  -2.2449  -2.2054  -2.2038
    -2.1811  -2.1808  -2.1526  -2.1520  -2.1246  -2.1234  -2.1072  -2.1027
    -2.0756  -2.0562  -2.0544  -2.0478  -2.0467  -2.0418  -2.0358  -2.0342
    -2.0090  -2.0037  -1.9964  -1.9371  -1.9354  -1.9316  -1.9295  -1.9282
    -1.8958  -1.8748  -1.8720  -1.8460  -1.8454  -1.7879  -1.7849  -1.7566
    -1.7370  -1.7361  -1.6771  -1.6755  -1.6665  -1.6633  -1.6541  -1.6525
    -1.6490  -1.6420  -1.6389  -1.5849  -1.5817  -1.5733  -1.5727  -1.5705
    -1.5537  -1.5503  -1.5181  -1.5164  -1.5004  -1.4992  -1.4981  -1.4910
    -1.4877  -1.4792  -1.4761  -1.4578  -1.4565  -1.4173  -1.4150  -1.4067
    -1.4029  -1.3849  -1.3692  -1.3294  -1.3268  -1.3008  -1.2972  -1.2963
    -1.2669  -1.2179  -1.2148  -1.2128  -1.2118  -1.2076  -1.2062  -1.1966
    -1.1813  -1.1780  -1.1404  -1.1365  -1.1092  -1.1084  -1.1020  -1.1008
    -1.0947  -1.0809  -1.0793  -1.0765  -1.0735  -1.0723  -1.0369  -1.0341
    -1.0324  -1.0323  -1.0037  -1.0018  -0.9983  -0.9752  -0.9686  -0.9646
    -0.9229  -0.9195  -0.9121  -0.8812  -0.8708  -0.8593  -0.8586  -0.8543
    -0.8501  -0.8490  -0.8474  -0.8381  -0.8353  -0.8118  -0.8110  -0.8075
    -0.8065  -0.8042  -0.7694  -0.7671  -0.7617  -0.7566  -0.7490  -0.7366
    -0.7324  -0.7217  -0.6818  -0.6651  -0.6597  -0.6550  -0.6535  -0.6526
    -0.6490  -0.6421  -0.6282  -0.6226  -0.6194  -0.6186  -0.6167  -0.5965
    -0.5765  -0.5755  -0.5746  -0.5664  -0.5634  -0.5598  -0.5538  -0.5442
    -0.5401  -0.5399  -0.5329  -0.4989  -0.4963  -0.4900  -0.4849  -0.4822
    -0.4096  -0.4065  -0.4048  -0.4033  -0.3956  -0.3949  -0.3592  -0.3471
    -0.3460  -0.3160  -0.3141  -0.3097  -0.1930  -0.1906  -0.0899   0.3241
     0.3254   0.3288   0.3294   0.3898   0.3939   0.7753   0.7786   0.8195
     0.8218   0.9362   1.0122   1.1204   1.1269   1.3424   1.3541   1.9736
     1.9768   2.1353   2.1408   2.2689   2.2769   2.3735   2.3749   2.5282
     2.7655   2.7820   2.8910   3.1118   3.1206   3.1954   3.1976   3.2952
     3.3135   3.5095   3.5337   3.5681   3.7693   3.7720   3.8315   3.8383
     4.0873   4.0965   4.1031   4.3401   4.3792   4.3831   4.4271   4.7587
     4.7659   4.7898   4.9275   5.1007   5.1032   5.1621   5.1918   5.5448
     5.7997   5.8829   5.8913   5.8984   5.9388   5.9604   5.9651   6.0555
     6.0767   6.0976   6.1253   6.1321   6.1343   6.1590   6.1688   6.1860
     6.1932   6.4497   6.6028   6.7193   6.7581   6.7979   6.8353   6.8415
     6.8516   6.9527   7.0364

          k =-0.5000 0.0000 0.1111 (136853 PWs)   bands (ev):

   -18.6158  -6.5646  -6.3828  -5.9885  -5.9875  -5.3099  -4.9792  -4.9766
    -4.9399  -4.9363  -4.5786  -4.5764  -4.4791  -4.4789  -4.4646  -4.4422
    -4.4201  -4.3125  -4.3108  -4.2873  -4.2438  -4.2436  -4.1757  -4.1744
    -4.1698  -4.1668  -4.1464  -4.1430  -4.1383  -4.0743  -4.0659  -4.0395
    -4.0369  -4.0264  -4.0257  -4.0029  -4.0026  -3.9801  -3.9721  -3.9716
    -3.9457  -3.8935  -3.8929  -3.8461  -3.8432  -3.7875  -3.7870  -3.7325
    -3.7313  -3.7306  -3.7303  -3.6951  -3.6597  -3.6582  -3.6493  -3.6488
    -3.6475  -3.6207  -3.6169  -3.6090  -3.5497  -3.5486  -3.5407  -3.5210
    -3.5134  -3.4435  -3.4405  -3.4110  -3.4075  -3.3812  -3.3799  -3.3659
    -3.3496  -3.2923  -3.2902  -3.2725  -3.2719  -3.2234  -3.2179  -3.2157
    -3.1762  -3.1492  -3.1449  -3.1380  -3.1363  -3.1276  -3.1242  -3.1171
    -3.1155  -3.1063  -3.0649  -3.0280  -3.0260  -3.0132  -3.0125  -2.9856
    -2.9774  -2.9771  -2.9572  -2.9140  -2.9089  -2.9039  -2.8634  -2.8550
    -2.8459  -2.8434  -2.8264  -2.8146  -2.7860  -2.7660  -2.7475  -2.7358
    -2.7227  -2.7159  -2.7033  -2.6973  -2.6540  -2.6504  -2.6197  -2.5975
    -2.5969  -2.5732  -2.5700  -2.5608  -2.5591  -2.5511  -2.5285  -2.5264
    -2.4836  -2.4824  -2.4812  -2.4659  -2.4654  -2.4586  -2.4513  -2.4490
    -2.4475  -2.4465  -2.4408  -2.4310  -2.4282  -2.4196  -2.3938  -2.3912
    -2.3903  -2.3885  -2.3879  -2.3863  -2.3836  -2.3580  -2.3564  -2.3411
    -2.3397  -2.3229  -2.3220  -2.3135  -2.3126  -2.3119  -2.3077  -2.2936
    -2.2904  -2.2899  -2.2868  -2.2728  -2.2458  -2.2449  -2.2054  -2.2038
    -2.1811  -2.1808  -2.1526  -2.1520  -2.1246  -2.1234  -2.1072  -2.1027
    -2.0756  -2.0562  -2.0544  -2.0478  -2.0467  -2.0418  -2.0358  -2.0342
    -2.0090  -2.0037  -1.9964  -1.9371  -1.9354  -1.9316  -1.9295  -1.9282
    -1.8958  -1.8748  -1.8720  -1.8460  -1.8454  -1.7879  -1.7849  -1.7566
    -1.7370  -1.7361  -1.6771  -1.6755  -1.6665  -1.6633  -1.6541  -1.6525
    -1.6490  -1.6420  -1.6389  -1.5849  -1.5817  -1.5733  -1.5727  -1.5705
    -1.5537  -1.5503  -1.5181  -1.5164  -1.5004  -1.4992  -1.4981  -1.4910
    -1.4877  -1.4792  -1.4761  -1.4578  -1.4565  -1.4173  -1.4150  -1.4067
    -1.4029  -1.3849  -1.3692  -1.3294  -1.3268  -1.3008  -1.2972  -1.2963
    -1.2669  -1.2179  -1.2148  -1.2128  -1.2118  -1.2076  -1.2062  -1.1966
    -1.1813  -1.1780  -1.1404  -1.1365  -1.1092  -1.1084  -1.1020  -1.1008
    -1.0947  -1.0809  -1.0793  -1.0765  -1.0735  -1.0723  -1.0369  -1.0341
    -1.0324  -1.0323  -1.0037  -1.0018  -0.9983  -0.9752  -0.9686  -0.9646
    -0.9229  -0.9195  -0.9121  -0.8812  -0.8708  -0.8593  -0.8586  -0.8543
    -0.8501  -0.8490  -0.8474  -0.8381  -0.8353  -0.8118  -0.8110  -0.8075
    -0.8065  -0.8042  -0.7694  -0.7671  -0.7617  -0.7566  -0.7490  -0.7366
    -0.7324  -0.7217  -0.6818  -0.6651  -0.6597  -0.6550  -0.6535  -0.6526
    -0.6490  -0.6421  -0.6282  -0.6226  -0.6193  -0.6186  -0.6167  -0.5965
    -0.5765  -0.5755  -0.5746  -0.5664  -0.5634  -0.5598  -0.5538  -0.5442
    -0.5401  -0.5399  -0.5329  -0.4989  -0.4963  -0.4900  -0.4849  -0.4822
    -0.4096  -0.4065  -0.4048  -0.4033  -0.3956  -0.3949  -0.3592  -0.3471
    -0.3460  -0.3160  -0.3141  -0.3097  -0.1930  -0.1906  -0.0899   0.3241
     0.3254   0.3288   0.3294   0.3898   0.3939   0.7753   0.7786   0.8195
     0.8218   0.9362   1.0122   1.1204   1.1269   1.3424   1.3541   1.9736
     1.9768   2.1353   2.1408   2.2689   2.2769   2.3735   2.3749   2.5282
     2.7655   2.7820   2.8910   3.1118   3.1206   3.1954   3.1976   3.2952
     3.3135   3.5095   3.5337   3.5681   3.7693   3.7720   3.8315   3.8383
     4.0873   4.0965   4.1031   4.3401   4.3792   4.3831   4.4271   4.7587
     4.7659   4.7898   4.9275   5.1007   5.1032   5.1621   5.1918   5.5448
     5.7997   5.8829   5.8913   5.8984   5.9388   5.9604   5.9651   6.0555
     6.0766   6.0976   6.1253   6.1322   6.1344   6.1591   6.1688   6.1860
     6.1931   6.4499   6.6029   6.7178   6.7578   6.7977   6.8353   6.8412
     6.8517   6.9527   7.0422

          k =-0.2500 0.1443 0.1111 (136898 PWs)   bands (ev):

   -18.6158  -6.6176  -6.5390  -5.8058  -5.5131  -5.4563  -5.4553  -4.9181
    -4.9175  -4.7862  -4.7854  -4.6304  -4.6016  -4.5382  -4.5059  -4.5036
    -4.4715  -4.4709  -4.3426  -4.3009  -4.3006  -4.2414  -4.2207  -4.2195
    -4.1177  -4.1172  -4.0814  -4.0808  -4.0807  -4.0544  -4.0327  -4.0322
    -3.9291  -3.9254  -3.9251  -3.9053  -3.8881  -3.8875  -3.8764  -3.8752
    -3.8632  -3.8328  -3.8321  -3.8317  -3.8311  -3.8000  -3.7996  -3.7815
    -3.7808  -3.7698  -3.7292  -3.7262  -3.6936  -3.6806  -3.6775  -3.6725
    -3.6724  -3.5984  -3.5981  -3.5645  -3.5621  -3.5602  -3.4930  -3.4924
    -3.4782  -3.4766  -3.4485  -3.4475  -3.4458  -3.4453  -3.2920  -3.2909
    -3.2696  -3.2669  -3.2628  -3.2457  -3.2446  -3.2202  -3.2195  -3.1698
    -3.1690  -3.1538  -3.1525  -3.1327  -3.0882  -3.0848  -3.0669  -3.0602
    -3.0590  -3.0204  -3.0183  -3.0123  -3.0105  -2.9997  -2.9940  -2.9563
    -2.9554  -2.9356  -2.9343  -2.9311  -2.9300  -2.9263  -2.8581  -2.8505
    -2.8488  -2.8210  -2.8186  -2.7898  -2.7587  -2.7407  -2.7288  -2.7234
    -2.7157  -2.7133  -2.7070  -2.6802  -2.6770  -2.6695  -2.6523  -2.6274
    -2.6269  -2.6178  -2.6056  -2.6040  -2.5940  -2.5928  -2.5907  -2.5816
    -2.5803  -2.5358  -2.5043  -2.5040  -2.4866  -2.4743  -2.4691  -2.4673
    -2.4603  -2.4595  -2.4577  -2.4297  -2.4280  -2.4273  -2.4188  -2.4181
    -2.4023  -2.3757  -2.3738  -2.3733  -2.3724  -2.3716  -2.3261  -2.2960
    -2.2949  -2.2941  -2.2883  -2.2785  -2.2680  -2.2664  -2.2490  -2.2489
    -2.2188  -2.2144  -2.2141  -2.1962  -2.1959  -2.1944  -2.1621  -2.1609
    -2.1239  -2.1180  -2.1136  -2.1108  -2.1099  -2.1047  -2.1033  -2.1002
    -2.0996  -2.0951  -2.0925  -2.0781  -2.0767  -1.9524  -1.9495  -1.9177
    -1.9123  -1.9101  -1.9044  -1.9042  -1.8887  -1.8872  -1.8841  -1.8834
    -1.8820  -1.8596  -1.8540  -1.8519  -1.8439  -1.8395  -1.8392  -1.8168
    -1.8157  -1.7882  -1.7872  -1.7571  -1.7560  -1.7455  -1.7371  -1.7197
    -1.7183  -1.7159  -1.6990  -1.6853  -1.6847  -1.6777  -1.6774  -1.6520
    -1.6515  -1.6355  -1.6342  -1.6012  -1.5995  -1.5916  -1.5436  -1.5418
    -1.5292  -1.5265  -1.5262  -1.5016  -1.4990  -1.4675  -1.4661  -1.4646
    -1.4317  -1.4221  -1.4215  -1.4057  -1.4046  -1.3810  -1.3786  -1.3773
    -1.3484  -1.3453  -1.3448  -1.2832  -1.2814  -1.2714  -1.2686  -1.2536
    -1.2530  -1.2397  -1.2392  -1.2216  -1.2088  -1.1815  -1.1811  -1.1702
    -1.1412  -1.1319  -1.1302  -1.1189  -1.1187  -1.1180  -1.1140  -1.1113
    -1.0972  -1.0696  -1.0683  -1.0561  -1.0544  -1.0536  -1.0519  -1.0315
    -1.0165  -1.0104  -0.9950  -0.9891  -0.8991  -0.8862  -0.8848  -0.8796
    -0.8785  -0.8694  -0.8689  -0.8531  -0.8458  -0.8310  -0.8276  -0.8150
    -0.8141  -0.8056  -0.7875  -0.7851  -0.7816  -0.7741  -0.7063  -0.7014
    -0.7004  -0.6664  -0.6628  -0.6600  -0.6550  -0.6538  -0.6534  -0.6416
    -0.6408  -0.6252  -0.6146  -0.5989  -0.5727  -0.5662  -0.5638  -0.5540
    -0.5481  -0.5410  -0.5407  -0.5391  -0.5377  -0.5316  -0.5209  -0.5164
    -0.5111  -0.4860  -0.4844  -0.4829  -0.4716  -0.4711  -0.4520  -0.4202
    -0.4186  -0.4107  -0.4084  -0.3436  -0.3418  -0.3064  -0.3061  -0.2485
    -0.2478  -0.2465  -0.2283  -0.2212   0.0084   0.0108   0.3535   0.3538
     0.4460   0.4503   0.6426   0.6596   0.6713   0.8005   0.8022   1.2339
     1.2343   1.2505   1.5154   1.5438   1.5443   1.8217   1.8284   1.8984
     1.9000   1.9260   1.9308   2.1549   2.1565   2.2445   2.2457   2.3271
     2.3844   2.3911   2.5476   2.6497   3.0813   3.0872   3.0903   3.0919
     3.1437   3.1458   3.4374   3.4383   3.7183   3.7246   3.8363   4.1336
     4.1728   4.1791   4.3991   4.4211   4.4737   4.4789   4.5702   4.6838
     4.6898   4.8033   4.8051   5.1074   5.1679   5.1811   5.3334   5.3719
     5.4492   5.5599   5.5672   5.5919   5.5936   5.6525   5.6563   5.7139
     5.8791   6.0603   6.2616   6.2846   6.3613   6.3958   6.3993   6.4115
     6.4124   6.5560   6.6384   6.6545   6.6683   6.8471   6.8878   6.9156
     6.9410   7.0210   7.1101

          k =-0.2500-0.1443-0.1111 (136898 PWs)   bands (ev):

   -18.6158  -6.6179  -6.5388  -5.8056  -5.5130  -5.4566  -5.4554  -4.9181
    -4.9175  -4.7865  -4.7850  -4.6304  -4.6016  -4.5383  -4.5060  -4.5037
    -4.4713  -4.4710  -4.3425  -4.3010  -4.3005  -4.2411  -4.2208  -4.2196
    -4.1175  -4.1172  -4.0813  -4.0809  -4.0806  -4.0545  -4.0327  -4.0322
    -3.9298  -3.9255  -3.9251  -3.9054  -3.8883  -3.8875  -3.8761  -3.8753
    -3.8635  -3.8325  -3.8321  -3.8313  -3.8311  -3.8003  -3.7990  -3.7814
    -3.7808  -3.7709  -3.7288  -3.7250  -3.6940  -3.6799  -3.6777  -3.6725
    -3.6724  -3.5984  -3.5981  -3.5653  -3.5615  -3.5601  -3.4930  -3.4927
    -3.4778  -3.4767  -3.4480  -3.4469  -3.4463  -3.4455  -3.2922  -3.2911
    -3.2708  -3.2663  -3.2620  -3.2455  -3.2446  -3.2201  -3.2192  -3.1694
    -3.1690  -3.1538  -3.1528  -3.1326  -3.0889  -3.0839  -3.0656  -3.0606
    -3.0593  -3.0202  -3.0186  -3.0120  -3.0105  -2.9960  -2.9950  -2.9568
    -2.9557  -2.9389  -2.9331  -2.9309  -2.9300  -2.9264  -2.8536  -2.8505
    -2.8497  -2.8230  -2.8188  -2.7959  -2.7570  -2.7385  -2.7283  -2.7266
    -2.7150  -2.7112  -2.7061  -2.6797  -2.6774  -2.6694  -2.6517  -2.6284
    -2.6265  -2.6202  -2.6059  -2.6050  -2.5951  -2.5933  -2.5907  -2.5815
    -2.5787  -2.5357  -2.5046  -2.5030  -2.4881  -2.4750  -2.4687  -2.4674
    -2.4608  -2.4596  -2.4581  -2.4288  -2.4283  -2.4265  -2.4186  -2.4169
    -2.4023  -2.3756  -2.3743  -2.3738  -2.3721  -2.3715  -2.3263  -2.2965
    -2.2951  -2.2943  -2.2881  -2.2786  -2.2665  -2.2658  -2.2491  -2.2485
    -2.2188  -2.2145  -2.2141  -2.1961  -2.1952  -2.1944  -2.1628  -2.1616
    -2.1236  -2.1179  -2.1131  -2.1109  -2.1101  -2.1049  -2.1034  -2.1013
    -2.0997  -2.0940  -2.0934  -2.0782  -2.0771  -1.9515  -1.9499  -1.9170
    -1.9112  -1.9105  -1.9043  -1.9038  -1.8898  -1.8874  -1.8856  -1.8837
    -1.8810  -1.8597  -1.8530  -1.8520  -1.8435  -1.8409  -1.8374  -1.8170
    -1.8158  -1.7879  -1.7867  -1.7598  -1.7560  -1.7462  -1.7370  -1.7198
    -1.7190  -1.7157  -1.6988  -1.6852  -1.6845  -1.6779  -1.6777  -1.6525
    -1.6509  -1.6350  -1.6335  -1.6016  -1.5998  -1.5926  -1.5428  -1.5412
    -1.5285  -1.5268  -1.5263  -1.5019  -1.4987  -1.4675  -1.4664  -1.4643
    -1.4320  -1.4224  -1.4210  -1.4052  -1.4047  -1.3819  -1.3779  -1.3766
    -1.3486  -1.3453  -1.3446  -1.2837  -1.2821  -1.2711  -1.2693  -1.2542
    -1.2523  -1.2405  -1.2394  -1.2214  -1.2088  -1.1831  -1.1798  -1.1691
    -1.1406  -1.1316  -1.1305  -1.1190  -1.1186  -1.1169  -1.1133  -1.1114
    -1.0971  -1.0704  -1.0677  -1.0601  -1.0542  -1.0531  -1.0527  -1.0327
    -1.0144  -1.0106  -0.9916  -0.9897  -0.8984  -0.8869  -0.8800  -0.8794
    -0.8784  -0.8728  -0.8688  -0.8515  -0.8459  -0.8295  -0.8282  -0.8162
    -0.8140  -0.8073  -0.7886  -0.7845  -0.7818  -0.7741  -0.7066  -0.7012
    -0.6995  -0.6668  -0.6630  -0.6600  -0.6561  -0.6542  -0.6535  -0.6471
    -0.6395  -0.6252  -0.6069  -0.5988  -0.5802  -0.5657  -0.5650  -0.5542
    -0.5511  -0.5420  -0.5404  -0.5387  -0.5378  -0.5283  -0.5208  -0.5165
    -0.5111  -0.4860  -0.4833  -0.4805  -0.4713  -0.4693  -0.4521  -0.4203
    -0.4190  -0.4107  -0.4087  -0.3424  -0.3420  -0.3069  -0.3055  -0.2490
    -0.2472  -0.2461  -0.2304  -0.2212   0.0088   0.0127   0.3537   0.3538
     0.4463   0.4510   0.6412   0.6598   0.6716   0.8012   0.8021   1.2336
     1.2341   1.2522   1.5146   1.5435   1.5441   1.8223   1.8290   1.8980
     1.8985   1.9264   1.9307   2.1531   2.1562   2.2450   2.2456   2.3271
     2.3849   2.3913   2.5481   2.6483   3.0830   3.0865   3.0904   3.0914
     3.1415   3.1466   3.4374   3.4378   3.7180   3.7245   3.8350   4.1345
     4.1715   4.1782   4.4015   4.4220   4.4757   4.4773   4.5679   4.6876
     4.6890   4.8036   4.8057   5.1056   5.1762   5.1801   5.3355   5.3723
     5.4473   5.5621   5.5660   5.5913   5.5933   5.6545   5.6562   5.7108
     5.8794   6.0627   6.2542   6.2834   6.3577   6.3904   6.4000   6.4101
     6.4150   6.5567   6.6481   6.6536   6.6717   6.8474   6.8891   6.9123
     6.9393   7.0228   7.1066

          k = 0.2500 0.1443-0.1111 (136898 PWs)   bands (ev):

   -18.6158  -6.6179  -6.5387  -5.8056  -5.5130  -5.4566  -5.4554  -4.9181
    -4.9175  -4.7865  -4.7850  -4.6304  -4.6016  -4.5383  -4.5060  -4.5037
    -4.4713  -4.4710  -4.3425  -4.3010  -4.3005  -4.2411  -4.2208  -4.2196
    -4.1175  -4.1172  -4.0813  -4.0809  -4.0806  -4.0546  -4.0327  -4.0322
    -3.9298  -3.9255  -3.9251  -3.9054  -3.8883  -3.8875  -3.8761  -3.8753
    -3.8635  -3.8325  -3.8321  -3.8313  -3.8311  -3.8003  -3.7990  -3.7814
    -3.7808  -3.7709  -3.7288  -3.7250  -3.6940  -3.6799  -3.6777  -3.6725
    -3.6724  -3.5984  -3.5981  -3.5653  -3.5615  -3.5601  -3.4930  -3.4927
    -3.4778  -3.4767  -3.4480  -3.4469  -3.4463  -3.4455  -3.2922  -3.2911
    -3.2708  -3.2663  -3.2620  -3.2455  -3.2446  -3.2201  -3.2192  -3.1694
    -3.1690  -3.1538  -3.1528  -3.1326  -3.0889  -3.0839  -3.0656  -3.0606
    -3.0593  -3.0202  -3.0186  -3.0120  -3.0105  -2.9960  -2.9950  -2.9568
    -2.9557  -2.9389  -2.9331  -2.9309  -2.9300  -2.9264  -2.8536  -2.8505
    -2.8497  -2.8230  -2.8188  -2.7959  -2.7570  -2.7385  -2.7283  -2.7266
    -2.7150  -2.7112  -2.7061  -2.6797  -2.6774  -2.6694  -2.6517  -2.6284
    -2.6265  -2.6202  -2.6059  -2.6050  -2.5951  -2.5933  -2.5907  -2.5815
    -2.5787  -2.5357  -2.5046  -2.5030  -2.4881  -2.4750  -2.4687  -2.4674
    -2.4608  -2.4596  -2.4581  -2.4288  -2.4283  -2.4265  -2.4186  -2.4169
    -2.4023  -2.3756  -2.3743  -2.3738  -2.3721  -2.3715  -2.3263  -2.2965
    -2.2950  -2.2943  -2.2881  -2.2786  -2.2665  -2.2658  -2.2491  -2.2485
    -2.2188  -2.2145  -2.2141  -2.1961  -2.1952  -2.1944  -2.1628  -2.1616
    -2.1236  -2.1179  -2.1131  -2.1109  -2.1101  -2.1049  -2.1034  -2.1013
    -2.0997  -2.0940  -2.0934  -2.0782  -2.0771  -1.9515  -1.9499  -1.9170
    -1.9112  -1.9105  -1.9043  -1.9038  -1.8898  -1.8874  -1.8856  -1.8837
    -1.8810  -1.8597  -1.8530  -1.8520  -1.8435  -1.8409  -1.8374  -1.8170
    -1.8158  -1.7879  -1.7867  -1.7598  -1.7560  -1.7462  -1.7370  -1.7198
    -1.7190  -1.7157  -1.6988  -1.6852  -1.6845  -1.6779  -1.6777  -1.6525
    -1.6509  -1.6350  -1.6335  -1.6016  -1.5999  -1.5926  -1.5428  -1.5412
    -1.5285  -1.5268  -1.5263  -1.5019  -1.4987  -1.4675  -1.4664  -1.4643
    -1.4320  -1.4224  -1.4210  -1.4052  -1.4047  -1.3819  -1.3779  -1.3766
    -1.3486  -1.3453  -1.3446  -1.2837  -1.2821  -1.2711  -1.2693  -1.2542
    -1.2524  -1.2405  -1.2394  -1.2214  -1.2088  -1.1831  -1.1797  -1.1691
    -1.1406  -1.1316  -1.1305  -1.1190  -1.1186  -1.1169  -1.1133  -1.1114
    -1.0971  -1.0704  -1.0677  -1.0601  -1.0542  -1.0531  -1.0527  -1.0327
    -1.0144  -1.0106  -0.9916  -0.9897  -0.8984  -0.8869  -0.8800  -0.8794
    -0.8784  -0.8728  -0.8688  -0.8515  -0.8459  -0.8295  -0.8282  -0.8162
    -0.8140  -0.8073  -0.7886  -0.7845  -0.7818  -0.7741  -0.7066  -0.7012
    -0.6995  -0.6669  -0.6630  -0.6600  -0.6561  -0.6542  -0.6535  -0.6471
    -0.6395  -0.6252  -0.6069  -0.5988  -0.5802  -0.5657  -0.5650  -0.5542
    -0.5511  -0.5420  -0.5404  -0.5387  -0.5378  -0.5283  -0.5208  -0.5165
    -0.5111  -0.4860  -0.4833  -0.4805  -0.4713  -0.4693  -0.4521  -0.4203
    -0.4190  -0.4107  -0.4087  -0.3424  -0.3420  -0.3069  -0.3055  -0.2490
    -0.2472  -0.2461  -0.2304  -0.2212   0.0088   0.0127   0.3537   0.3538
     0.4463   0.4510   0.6412   0.6598   0.6716   0.8012   0.8021   1.2336
     1.2341   1.2522   1.5145   1.5435   1.5441   1.8223   1.8290   1.8980
     1.8985   1.9264   1.9307   2.1531   2.1562   2.2450   2.2456   2.3271
     2.3849   2.3913   2.5481   2.6483   3.0830   3.0865   3.0904   3.0914
     3.1415   3.1466   3.4374   3.4378   3.7180   3.7245   3.8350   4.1345
     4.1715   4.1782   4.4015   4.4220   4.4757   4.4773   4.5679   4.6876
     4.6890   4.8036   4.8057   5.1056   5.1762   5.1801   5.3355   5.3723
     5.4473   5.5621   5.5660   5.5913   5.5933   5.6545   5.6562   5.7110
     5.8783   6.0649   6.2543   6.2843   6.3580   6.3904   6.4000   6.4101
     6.4149   6.5517   6.6481   6.6524   6.6667   6.8486   6.8906   6.9127
     6.9409   7.0243   7.1088

          k = 0.0000-0.2887 0.1111 (136898 PWs)   bands (ev):

   -18.6158  -6.6176  -6.5390  -5.8059  -5.5130  -5.4561  -5.4555  -4.9179
    -4.9176  -4.7864  -4.7855  -4.6304  -4.6015  -4.5385  -4.5049  -4.5045
    -4.4712  -4.4710  -4.3425  -4.3009  -4.3007  -4.2412  -4.2205  -4.2198
    -4.1175  -4.1173  -4.0813  -4.0808  -4.0807  -4.0544  -4.0325  -4.0323
    -3.9293  -3.9255  -3.9251  -3.9052  -3.8882  -3.8875  -3.8764  -3.8753
    -3.8631  -3.8327  -3.8322  -3.8313  -3.8310  -3.8000  -3.7996  -3.7814
    -3.7808  -3.7700  -3.7286  -3.7264  -3.6937  -3.6804  -3.6777  -3.6725
    -3.6724  -3.5985  -3.5981  -3.5646  -3.5616  -3.5604  -3.4932  -3.4926
    -3.4778  -3.4766  -3.4482  -3.4473  -3.4462  -3.4454  -3.2935  -3.2909
    -3.2704  -3.2666  -3.2620  -3.2456  -3.2447  -3.2204  -3.2195  -3.1701
    -3.1689  -3.1546  -3.1525  -3.1322  -3.0877  -3.0846  -3.0655  -3.0615
    -3.0592  -3.0215  -3.0186  -3.0112  -3.0106  -2.9965  -2.9943  -2.9572
    -2.9553  -2.9351  -2.9343  -2.9310  -2.9300  -2.9268  -2.8598  -2.8504
    -2.8489  -2.8219  -2.8187  -2.7838  -2.7583  -2.7497  -2.7287  -2.7233
    -2.7151  -2.7111  -2.7050  -2.6800  -2.6786  -2.6695  -2.6508  -2.6284
    -2.6264  -2.6185  -2.6058  -2.6041  -2.5946  -2.5934  -2.5903  -2.5815
    -2.5785  -2.5357  -2.5045  -2.5035  -2.4881  -2.4751  -2.4692  -2.4672
    -2.4608  -2.4594  -2.4581  -2.4295  -2.4282  -2.4275  -2.4185  -2.4169
    -2.4021  -2.3755  -2.3739  -2.3727  -2.3721  -2.3710  -2.3262  -2.2962
    -2.2951  -2.2942  -2.2883  -2.2786  -2.2675  -2.2665  -2.2489  -2.2487
    -2.2187  -2.2143  -2.2141  -2.1964  -2.1959  -2.1943  -2.1626  -2.1611
    -2.1237  -2.1179  -2.1133  -2.1110  -2.1098  -2.1050  -2.1037  -2.1011
    -2.1005  -2.0942  -2.0928  -2.0777  -2.0765  -1.9522  -1.9495  -1.9156
    -1.9115  -1.9102  -1.9043  -1.9040  -1.8896  -1.8879  -1.8846  -1.8837
    -1.8808  -1.8595  -1.8535  -1.8524  -1.8441  -1.8399  -1.8383  -1.8173
    -1.8162  -1.7886  -1.7875  -1.7573  -1.7563  -1.7454  -1.7369  -1.7197
    -1.7183  -1.7157  -1.6989  -1.6854  -1.6849  -1.6778  -1.6774  -1.6517
    -1.6510  -1.6361  -1.6339  -1.6027  -1.6001  -1.5914  -1.5430  -1.5422
    -1.5276  -1.5270  -1.5257  -1.5018  -1.4987  -1.4679  -1.4664  -1.4653
    -1.4308  -1.4222  -1.4217  -1.4055  -1.4046  -1.3809  -1.3781  -1.3765
    -1.3483  -1.3450  -1.3446  -1.2835  -1.2818  -1.2715  -1.2688  -1.2543
    -1.2536  -1.2401  -1.2390  -1.2212  -1.2086  -1.1829  -1.1804  -1.1690
    -1.1381  -1.1323  -1.1310  -1.1193  -1.1187  -1.1177  -1.1120  -1.1113
    -1.0971  -1.0715  -1.0691  -1.0633  -1.0557  -1.0532  -1.0527  -1.0315
    -1.0135  -1.0115  -0.9919  -0.9891  -0.8990  -0.8851  -0.8815  -0.8794
    -0.8776  -0.8722  -0.8687  -0.8465  -0.8457  -0.8321  -0.8286  -0.8160
    -0.8143  -0.8059  -0.7899  -0.7838  -0.7825  -0.7743  -0.7129  -0.7013
    -0.6935  -0.6669  -0.6629  -0.6608  -0.6554  -0.6543  -0.6534  -0.6487
    -0.6409  -0.6244  -0.6024  -0.5988  -0.5838  -0.5661  -0.5630  -0.5540
    -0.5519  -0.5424  -0.5406  -0.5388  -0.5376  -0.5271  -0.5210  -0.5165
    -0.5121  -0.4860  -0.4843  -0.4793  -0.4715  -0.4685  -0.4521  -0.4201
    -0.4193  -0.4107  -0.4099  -0.3428  -0.3408  -0.3067  -0.3058  -0.2483
    -0.2476  -0.2463  -0.2323  -0.2212   0.0085   0.0154   0.3535   0.3538
     0.4464   0.4511   0.6393   0.6604   0.6710   0.8002   0.8021   1.2339
     1.2343   1.2507   1.5144   1.5438   1.5443   1.8231   1.8285   1.8979
     1.9007   1.9261   1.9304   2.1543   2.1567   2.2445   2.2457   2.3276
     2.3855   2.3897   2.5469   2.6488   3.0804   3.0889   3.0899   3.0922
     3.1433   3.1465   3.4372   3.4385   3.7188   3.7240   3.8359   4.1340
     4.1724   4.1784   4.4013   4.4189   4.4758   4.4773   4.5692   4.6847
     4.6897   4.8024   4.8059   5.1060   5.1725   5.1799   5.3420   5.3682
     5.4422   5.5613   5.5666   5.5907   5.5939   5.6495   5.6594   5.7173
     5.8783   6.0770   6.2597   6.2775   6.3459   6.3940   6.3994   6.4085
     6.4143   6.5506   6.6399   6.6549   6.6708   6.8593   6.8898   6.9184
     6.9296   7.0236   7.0981

          k = 0.0000 0.2887 0.1111 (136898 PWs)   bands (ev):

   -18.6158  -6.6176  -6.5390  -5.8059  -5.5130  -5.4561  -5.4555  -4.9179
    -4.9176  -4.7864  -4.7855  -4.6304  -4.6015  -4.5385  -4.5049  -4.5045
    -4.4712  -4.4710  -4.3425  -4.3009  -4.3007  -4.2412  -4.2205  -4.2198
    -4.1175  -4.1173  -4.0813  -4.0808  -4.0807  -4.0544  -4.0325  -4.0323
    -3.9293  -3.9255  -3.9251  -3.9052  -3.8882  -3.8875  -3.8764  -3.8753
    -3.8631  -3.8327  -3.8322  -3.8313  -3.8310  -3.8000  -3.7996  -3.7814
    -3.7808  -3.7700  -3.7286  -3.7264  -3.6937  -3.6804  -3.6777  -3.6725
    -3.6724  -3.5985  -3.5981  -3.5646  -3.5616  -3.5604  -3.4931  -3.4926
    -3.4778  -3.4766  -3.4482  -3.4473  -3.4462  -3.4454  -3.2935  -3.2909
    -3.2704  -3.2666  -3.2620  -3.2456  -3.2447  -3.2204  -3.2195  -3.1701
    -3.1689  -3.1546  -3.1525  -3.1322  -3.0877  -3.0846  -3.0655  -3.0615
    -3.0592  -3.0215  -3.0186  -3.0113  -3.0106  -2.9965  -2.9943  -2.9572
    -2.9553  -2.9351  -2.9343  -2.9310  -2.9300  -2.9268  -2.8598  -2.8504
    -2.8489  -2.8219  -2.8187  -2.7838  -2.7583  -2.7497  -2.7287  -2.7233
    -2.7151  -2.7111  -2.7050  -2.6800  -2.6786  -2.6695  -2.6508  -2.6284
    -2.6264  -2.6185  -2.6058  -2.6041  -2.5946  -2.5934  -2.5903  -2.5815
    -2.5785  -2.5357  -2.5045  -2.5035  -2.4881  -2.4751  -2.4692  -2.4672
    -2.4608  -2.4594  -2.4581  -2.4295  -2.4282  -2.4275  -2.4185  -2.4169
    -2.4021  -2.3755  -2.3739  -2.3727  -2.3721  -2.3710  -2.3262  -2.2962
    -2.2951  -2.2942  -2.2883  -2.2786  -2.2675  -2.2665  -2.2489  -2.2487
    -2.2187  -2.2143  -2.2141  -2.1964  -2.1959  -2.1943  -2.1626  -2.1611
    -2.1237  -2.1179  -2.1133  -2.1110  -2.1098  -2.1050  -2.1037  -2.1011
    -2.1004  -2.0942  -2.0928  -2.0777  -2.0765  -1.9522  -1.9495  -1.9156
    -1.9115  -1.9102  -1.9043  -1.9040  -1.8896  -1.8879  -1.8846  -1.8837
    -1.8808  -1.8595  -1.8535  -1.8524  -1.8441  -1.8399  -1.8383  -1.8173
    -1.8162  -1.7886  -1.7875  -1.7573  -1.7563  -1.7454  -1.7369  -1.7197
    -1.7183  -1.7157  -1.6989  -1.6854  -1.6848  -1.6778  -1.6774  -1.6517
    -1.6510  -1.6361  -1.6339  -1.6027  -1.6001  -1.5914  -1.5430  -1.5422
    -1.5276  -1.5270  -1.5257  -1.5018  -1.4987  -1.4679  -1.4664  -1.4653
    -1.4308  -1.4221  -1.4217  -1.4055  -1.4046  -1.3809  -1.3781  -1.3765
    -1.3483  -1.3450  -1.3446  -1.2835  -1.2818  -1.2715  -1.2688  -1.2543
    -1.2536  -1.2401  -1.2390  -1.2212  -1.2086  -1.1829  -1.1804  -1.1690
    -1.1381  -1.1323  -1.1310  -1.1193  -1.1187  -1.1177  -1.1120  -1.1113
    -1.0971  -1.0715  -1.0691  -1.0633  -1.0557  -1.0532  -1.0527  -1.0315
    -1.0135  -1.0115  -0.9919  -0.9891  -0.8990  -0.8851  -0.8815  -0.8794
    -0.8776  -0.8722  -0.8687  -0.8465  -0.8457  -0.8321  -0.8286  -0.8160
    -0.8143  -0.8059  -0.7899  -0.7838  -0.7825  -0.7743  -0.7129  -0.7013
    -0.6935  -0.6669  -0.6629  -0.6608  -0.6554  -0.6543  -0.6534  -0.6487
    -0.6409  -0.6244  -0.6024  -0.5988  -0.5838  -0.5661  -0.5630  -0.5540
    -0.5519  -0.5424  -0.5406  -0.5387  -0.5376  -0.5271  -0.5210  -0.5165
    -0.5121  -0.4860  -0.4843  -0.4793  -0.4715  -0.4685  -0.4521  -0.4201
    -0.4193  -0.4107  -0.4099  -0.3428  -0.3408  -0.3067  -0.3058  -0.2483
    -0.2476  -0.2463  -0.2323  -0.2212   0.0085   0.0154   0.3535   0.3538
     0.4464   0.4511   0.6393   0.6604   0.6710   0.8002   0.8021   1.2339
     1.2343   1.2507   1.5144   1.5438   1.5443   1.8231   1.8285   1.8979
     1.9007   1.9261   1.9304   2.1543   2.1567   2.2445   2.2457   2.3276
     2.3855   2.3897   2.5469   2.6488   3.0804   3.0889   3.0899   3.0922
     3.1433   3.1465   3.4372   3.4385   3.7188   3.7240   3.8359   4.1340
     4.1724   4.1784   4.4013   4.4189   4.4758   4.4773   4.5692   4.6847
     4.6897   4.8024   4.8059   5.1060   5.1725   5.1799   5.3420   5.3682
     5.4421   5.5613   5.5666   5.5907   5.5939   5.6495   5.6594   5.7171
     5.8804   6.0742   6.2599   6.2740   6.3455   6.3940   6.3994   6.4083
     6.4143   6.5591   6.6402   6.6550   6.6727   6.8556   6.8898   6.9142
     6.9297   7.0317   7.1050

     the Fermi energy is     1.3784 ev

!    total energy              =   -6604.43003121 Ry
     Harris-Foulkes estimate   =   -6604.43003121 Ry
     estimated scf accuracy    <          3.8E-09 Ry

     The total energy is the sum of the following terms:

     one-electron contribution =  -48696.95369329 Ry
     hartree contribution      =   24848.21115751 Ry
     xc contribution           =   -3204.99179808 Ry
     ewald contribution        =   20449.30141903 Ry
     smearing contrib. (-TS)   =       0.00288362 Ry

     convergence has been achieved in  25 iterations

     Writing output data file 3409329.save

     init_run     :    195.83s CPU    205.40s WALL (       1 calls)
     electrons    :  12544.79s CPU  13049.44s WALL (       1 calls)

     Called by init_run:
     wfcinit      :    162.67s CPU    171.17s WALL (       1 calls)
     potinit      :     12.26s CPU     12.79s WALL (       1 calls)

     Called by electrons:
     c_bands      :  10900.58s CPU  11310.48s WALL (      26 calls)
     sum_band     :   1244.82s CPU   1325.15s WALL (      26 calls)
     v_of_rho     :    169.44s CPU    179.76s WALL (      26 calls)
     newd         :    231.18s CPU    234.34s WALL (      26 calls)
     mix_rho      :      4.79s CPU      5.21s WALL (      26 calls)
     vdW_energy   :      7.37s CPU      7.81s WALL (      26 calls)
     vdW_ffts     :    102.39s CPU    107.71s WALL (      52 calls)
     vdW_v        :     22.09s CPU     22.88s WALL (      26 calls)

     Called by c_bands:
     init_us_2    :     14.41s CPU     14.84s WALL (     636 calls)
     cegterg      :  10704.59s CPU  11112.69s WALL (     312 calls)

     Called by *egterg:
     h_psi        :   4098.38s CPU   4463.23s WALL (    1684 calls)
     s_psi        :    708.53s CPU    711.56s WALL (    1684 calls)
     g_psi        :      8.13s CPU      8.07s WALL (    1360 calls)
     cdiaghg      :   3028.95s CPU   3036.08s WALL (    1660 calls)

     Called by h_psi:
     add_vuspsi   :    709.93s CPU    712.99s WALL (    1684 calls)

     General routines
     calbec       :   1276.46s CPU   1279.79s WALL (    1996 calls)
     fft          :    211.04s CPU    221.23s WALL (    1716 calls)
     ffts         :      5.43s CPU      5.68s WALL (      52 calls)
     fftw         :   2789.37s CPU   3192.87s WALL (  753150 calls)
     interpolate  :     10.74s CPU     11.39s WALL (      52 calls)
     davcio       :      0.02s CPU      0.19s WALL (      12 calls)

     Parallel routines
     fft_scatter  :   1817.57s CPU   2098.64s WALL (  754918 calls)

     PWSCF        :     3h32m CPU        3h41m WALL


   This run was terminated on:   3: 1: 2   2Jul2015            

=------------------------------------------------------------------------------=
   JOB DONE.
=------------------------------------------------------------------------------=
