Setting SGE environment for SCC

     Program PWSCF v.5.1.2 starts on  1Jul2015 at  7:30:42 

     This program is part of the open-source Quantum ESPRESSO suite
     for quantum simulation of materials; please cite
         "P. Giannozzi et al., J. Phys.:Condens. Matter 21 395502 (2009);
          URL http://www.quantum-espresso.org", 
     in publications or presentations arising from this work. More details at
     http://www.quantum-espresso.org/quote

     Parallel version (MPI), running on    32 processors
     R & G space division:  proc/nbgrp/npool/nimage =      32
     Reading input from bridge.O1.Au5455.d.2.5.phi.0.psi.90.in
Warning: card &IONS ignored
Warning: card / ignored
Warning: card &CELL ignored
Warning: card / ignored

     Current dimensions of program PWSCF are:
     Max number of different atomic species (ntypx) = 10
     Max number of k-points (npk) =  40000
     Max angular momentum in pseudopotentials (lmaxx) =  3

     IMPORTANT: XC functional enforced from input :
     Exchange-correlation      = VDW-DF ( 1  4  4  0 1 0)
     Any further DFT definition will be discarded
     Please, verify this is what you really want


     Subspace diagonalization in iterative solution of the eigenvalue problem:
     a serial algorithm will be used


     Parallelization info
     --------------------
     sticks:   dense  smooth     PW     G-vecs:    dense   smooth      PW
     Min         445     223     58                96775    34191    4534
     Max         446     224     59                96790    34246    4540
     Sum       14269    7147   1867              3097177  1095093  145167


     Title: 
     bridge.O1.Au5455.d.2.5.phi.0.psi.90                                        


     bravais-lattice index     =            4
     lattice parameter (alat)  =      22.7436  a.u.
     unit-cell volume          =   22924.1508 (a.u.)^3
     number of atoms/cell      =           67
     number of atomic types    =            3
     number of electrons       =       712.00
     number of Kohn-Sham states=          427
     kinetic-energy cutoff     =      50.0000  Ry
     charge density cutoff     =     400.0000  Ry
     convergence threshold     =      1.0E-08
     mixing beta               =       0.7000
     number of iterations used =            8  plain     mixing
     Exchange-correlation      = VDW-DF ( 1  4  4  0 1 0)

     celldm(1)=  22.743643  celldm(2)=   0.000000  celldm(3)=   2.250000
     celldm(4)=   0.000000  celldm(5)=   0.000000  celldm(6)=   0.000000

     crystal axes: (cart. coord. in units of alat)
               a(1) = (   1.000000   0.000000   0.000000 )  
               a(2) = (  -0.500000   0.866025   0.000000 )  
               a(3) = (   0.000000   0.000000   2.250000 )  

     reciprocal axes: (cart. coord. in units 2 pi/alat)
               b(1) = (  1.000000  0.577350 -0.000000 )  
               b(2) = (  0.000000  1.154701  0.000000 )  
               b(3) = (  0.000000 -0.000000  0.444444 )  


     PseudoPot. # 1 for Au read from file:
     /home/scc/andrejb/qe/pseudo/Au.pbe-nd-van.UPF
     MD5 check sum: 458681b50f36d87ef23c61b04bba420a
     Pseudo is Ultrasoft + core correction, Zval = 11.0
     Generated by new atomic code, or converted to UPF format
     Using radial grid of  985 points,  3 beta functions with: 
                l(1) =   1
                l(2) =   2
                l(3) =   2
     Q(r) pseudized with  8 coefficients,  rinner =    1.100   1.100   1.100
                                                       1.100   1.100

     PseudoPot. # 2 for H  read from file:
     /home/scc/andrejb/qe/pseudo/H.pbe-van_ak.UPF
     MD5 check sum: 403db7282739603aa925980fa9b8608d
     Pseudo is Ultrasoft, Zval =  1.0
     Generated by new atomic code, or converted to UPF format
     Using radial grid of  615 points,  1 beta functions with: 
                l(1) =   0
     Q(r) pseudized with  8 coefficients,  rinner =    0.800

     PseudoPot. # 3 for O  read from file:
     /home/scc/andrejb/qe/pseudo/O.pbe-van_ak.UPF
     MD5 check sum: 4b8c549914a63cae506c6ff22b5af4fe
     Pseudo is Ultrasoft, Zval =  6.0
     Generated by new atomic code, or converted to UPF format
     Using radial grid of  737 points,  4 beta functions with: 
                l(1) =   0
                l(2) =   0
                l(3) =   1
                l(4) =   1
     Q(r) pseudized with  8 coefficients,  rinner =    0.800   0.800   0.800


     vdW kernel table read from file vdW_kernel_table
     MD5 check sum: 48e77a2e26edf626eeb0eaa751ad5cac

     atomic species   valence    mass     pseudopotential
        Au            11.00   196.96657     Au( 1.00)
        H              1.00     1.01000     H ( 1.00)
        O              6.00    16.00000     O ( 1.00)

     No symmetry found



   Cartesian axes

     site n.     atom                  positions (alat units)
         1           O   tau(   1) = (   0.2915728   0.2885783   0.8207383  )
         2           H   tau(   2) = (   0.2416394   0.2403247   0.7791907  )
         3           H   tau(   3) = (   0.3399922   0.2378175   0.8610452  )
         4           Au  tau(   4) = (   0.3540481   0.6132292   0.0000000  )
         5           Au  tau(   5) = (   0.4790062   0.3967954   0.0000000  )
         6           Au  tau(   6) = (   0.6039644   0.1803616   0.0000000  )
         7           Au  tau(   7) = (   0.7289225  -0.0360723   0.0000000  )
         8           Au  tau(   8) = (   0.1041318   0.6132292   0.0000000  )
         9           Au  tau(   9) = (   0.2290899   0.3967954   0.0000000  )
        10           Au  tau(  10) = (   0.3540481   0.1803616   0.0000000  )
        11           Au  tau(  11) = (   0.4790062  -0.0360723   0.0000000  )
        12           Au  tau(  12) = (  -0.1457845   0.6132292   0.0000000  )
        13           Au  tau(  13) = (  -0.0208264   0.3967954   0.0000000  )
        14           Au  tau(  14) = (   0.1041318   0.1803616   0.0000000  )
        15           Au  tau(  15) = (   0.2290899  -0.0360723   0.0000000  )
        16           Au  tau(  16) = (  -0.3957008   0.6132292   0.0000000  )
        17           Au  tau(  17) = (  -0.2707426   0.3967954   0.0000000  )
        18           Au  tau(  18) = (  -0.1457845   0.1803616   0.0000000  )
        19           Au  tau(  19) = (  -0.0208264  -0.0360723   0.0000000  )
        20           Au  tau(  20) = (   0.4790062   0.6853738   0.2040557  )
        21           Au  tau(  21) = (   0.6039644   0.4689400   0.2040557  )
        22           Au  tau(  22) = (   0.7289225   0.2525061   0.2040557  )
        23           Au  tau(  23) = (   0.8538806   0.0360723   0.2040557  )
        24           Au  tau(  24) = (   0.2290899   0.6853738   0.2040557  )
        25           Au  tau(  25) = (   0.3540481   0.4689400   0.2040557  )
        26           Au  tau(  26) = (   0.4790062   0.2525061   0.2040557  )
        27           Au  tau(  27) = (   0.6039644   0.0360723   0.2040557  )
        28           Au  tau(  28) = (  -0.0208264   0.6853738   0.2040557  )
        29           Au  tau(  29) = (   0.1041318   0.4689400   0.2040557  )
        30           Au  tau(  30) = (   0.2290899   0.2525061   0.2040557  )
        31           Au  tau(  31) = (   0.3540481   0.0360723   0.2040557  )
        32           Au  tau(  32) = (  -0.2707426   0.6853738   0.2040557  )
        33           Au  tau(  33) = (  -0.1457845   0.4689400   0.2040557  )
        34           Au  tau(  34) = (  -0.0208264   0.2525061   0.2040557  )
        35           Au  tau(  35) = (   0.1041318   0.0360723   0.2040557  )
        36           Au  tau(  36) = (   0.3541162   0.7576593   0.4066483  )
        37           Au  tau(  37) = (   0.4791000   0.5411421   0.4066695  )
        38           Au  tau(  38) = (   0.6040570   0.3246862   0.4066617  )
        39           Au  tau(  39) = (   0.7290270   0.1081684   0.4066529  )
        40           Au  tau(  40) = (   0.1041162   0.7576236   0.4066247  )
        41           Au  tau(  41) = (   0.2291001   0.5411063   0.4066455  )
        42           Au  tau(  42) = (   0.3540567   0.3246505   0.4066380  )
        43           Au  tau(  43) = (   0.4790276   0.1081324   0.4066292  )
        44           Au  tau(  44) = (  -0.1458201   0.7576104   0.4066224  )
        45           Au  tau(  45) = (  -0.0208365   0.5410930   0.4066438  )
        46           Au  tau(  46) = (   0.1041202   0.3246372   0.4066359  )
        47           Au  tau(  47) = (   0.2290908   0.1081193   0.4066273  )
        48           Au  tau(  48) = (  -0.3958167   0.7575791   0.4065812  )
        49           Au  tau(  49) = (  -0.2708328   0.5410617   0.4066025  )
        50           Au  tau(  50) = (  -0.1458763   0.3246061   0.4065947  )
        51           Au  tau(  51) = (  -0.0209056   0.1080882   0.4065858  )
        52           Au  tau(  52) = (   0.3541085   0.6133344   0.6129762  )
        53           Au  tau(  53) = (   0.4790780   0.3968269   0.6129968  )
        54           Au  tau(  54) = (   0.6040356   0.1803811   0.6129859  )
        55           Au  tau(  55) = (   0.7290165  -0.0361221   0.6129385  )
        56           Au  tau(  56) = (   0.1041243   0.6133091   0.6130022  )
        57           Au  tau(  57) = (   0.2290941   0.3968013   0.6130241  )
        58           Au  tau(  58) = (   0.3540515   0.1803552   0.6130121  )
        59           Au  tau(  59) = (   0.4790323  -0.0361475   0.6129659  )
        60           Au  tau(  60) = (  -0.1458030   0.6133014   0.6129980  )
        61           Au  tau(  61) = (  -0.0208339   0.3967936   0.6130188  )
        62           Au  tau(  62) = (   0.1041239   0.1803477   0.6130083  )
        63           Au  tau(  63) = (   0.2291046  -0.0361554   0.6129607  )
        64           Au  tau(  64) = (  -0.3957908   0.6132739   0.6129471  )
        65           Au  tau(  65) = (  -0.2708208   0.3967658   0.6129688  )
        66           Au  tau(  66) = (  -0.1458636   0.1803200   0.6129569  )
        67           Au  tau(  67) = (  -0.0208823  -0.0361826   0.6129110  )

     number of k points=    12  Marzari-Vanderbilt smearing, width (Ry)=  0.0200
                       cart. coord. in units 2pi/alat
        k(    1) = (   0.2500000   0.4330127   0.1111111), wk =   0.1666667
        k(    2) = (   0.2500000  -0.1443376   0.1111111), wk =   0.1666667
        k(    3) = (  -0.2500000  -0.4330127   0.1111111), wk =   0.1666667
        k(    4) = (  -0.2500000   0.4330127  -0.1111111), wk =   0.1666667
        k(    5) = (   0.2500000  -0.4330127  -0.1111111), wk =   0.1666667
        k(    6) = (   0.5000000   0.0000000   0.1111111), wk =   0.1666667
        k(    7) = (  -0.5000000   0.0000000   0.1111111), wk =   0.1666667
        k(    8) = (  -0.2500000   0.1443376   0.1111111), wk =   0.1666667
        k(    9) = (  -0.2500000  -0.1443376  -0.1111111), wk =   0.1666667
        k(   10) = (   0.2500000   0.1443376  -0.1111111), wk =   0.1666667
        k(   11) = (   0.0000000  -0.2886751   0.1111111), wk =   0.1666667
        k(   12) = (   0.0000000   0.2886751   0.1111111), wk =   0.1666667

     Dense  grid:  3097177 G-vectors     FFT dimensions: ( 150, 150, 360)

     Smooth grid:  1095093 G-vectors     FFT dimensions: ( 108, 108, 240)

     Largest allocated arrays     est. size (Mb)     dimensions
        Kohn-Sham Wavefunctions        28.01 Mb     (    4299,  427)
        NL pseudopotentials            55.23 Mb     (    4299,  842)
        Each V/rho on FFT grid          4.12 Mb     (  270000)
        Each G-vector array             0.74 Mb     (   96788)
        G-vector shells                 0.16 Mb     (   21404)
     Largest temporary arrays     est. size (Mb)     dimensions
        Auxiliary wavefunctions       112.04 Mb     (    4299, 1708)
        Each subspace H/S matrix       44.51 Mb     (    1708, 1708)
        Each <psi_i|beta_j> matrix      5.49 Mb     (     842,  427)
        Arrays for rho mixing          32.96 Mb     (  270000,    8)

     Initial potential from superposition of free atoms
     Check: negative starting charge=   -1.730347

     starting charge  711.25682, renormalised to  712.00000

     negative rho (up, down):  1.732E+00 0.000E+00


     ************************************************************************
     *
     * You are using vdW-DF for exchange-correlation in this calculation.
     * Please cite the following three references that made this development
     * possible:
     *
     *   M. Dion, H. Rydberg, E. Schroder, D. C. Langreth, and
     *   B. I. Lundqvist, Phys. Rev. Lett. 92, 246401 (2004).
     *
     *   T. Thonhauser, V. R. Cooper, S. Li, A. Puzder, P. Hyldgaard, and
     *   D. C. Langreth, Phys. Rev. B 76, 125112 (2007).
     *
     *   G. Roman-Perez and J. M. Soler, Phys. Rev. Lett. 103, 096102 (2009).
     *
     *
     * If you are using vdW-DF2, please also cite:
     *
     *   K. Lee, E. D. Murray, L. Kong, B. I. Lundqvist, and
     *   D. C. Langreth, Phys. Rev. B 82, 081101(R) (2010).
     *
     *
     * If you are calculating the stress with vdW-DF, please also cite:
     *
     *   R. Sabatini, E. Kucukbenli, B. Kolb, T. Thonhauser, and
     *   S. de Gironcoli, J. Phys.: Condens. Matter 24, 424209 (2012).
     *
     ************************************************************************

     Carrying out vdW-DF run using the following parameters:

     Nqs =      20    Nr_points =    1024   r_max =   100.000
     q_mesh =
               0.00001000     0.04494208     0.09755937     0.15916263
               0.23128650     0.31572767     0.41458969     0.53033537
               0.66584808     0.82450364     1.01025438     1.22772762
               1.48234092     1.78043706     2.12944203     2.53805004
               3.01644009     3.57652955     4.23227104     5.00000000

     Gradients computed in reciprocal space

     ************************************************************************


     Starting wfc are  582 randomized atomic wfcs

     total cpu time spent up to now is      215.0 secs

     Self-consistent Calculation

     iteration #  1     ecut=    50.00 Ry     beta=0.70
     Davidson diagonalization with overlap
     ethr =  1.00E-02,  avg # of iterations =  3.0

     Threshold (ethr) on eigenvalues was too large:
     Diagonalizing with lowered threshold

     Davidson diagonalization with overlap
     ethr =  3.44E-04,  avg # of iterations =  3.7

     negative rho (up, down):  1.727E+00 0.000E+00

     total cpu time spent up to now is     1071.5 secs

     total energy              =   -6602.78364985 Ry
     Harris-Foulkes estimate   =   -6605.01285215 Ry
     estimated scf accuracy    <       2.79407200 Ry

     iteration #  2     ecut=    50.00 Ry     beta=0.70
     Davidson diagonalization with overlap
     ethr =  3.92E-04,  avg # of iterations = 11.0

     negative rho (up, down):  1.726E+00 0.000E+00

     total cpu time spent up to now is     2374.1 secs

     total energy              =   -6596.75441519 Ry
     Harris-Foulkes estimate   =   -6610.11249858 Ry
     estimated scf accuracy    <      74.58305492 Ry

     iteration #  3     ecut=    50.00 Ry     beta=0.70
     Davidson diagonalization with overlap
     ethr =  3.92E-04,  avg # of iterations =  6.5

     negative rho (up, down):  1.736E+00 0.000E+00

     total cpu time spent up to now is     3288.9 secs

     total energy              =   -6603.30450007 Ry
     Harris-Foulkes estimate   =   -6604.98180279 Ry
     estimated scf accuracy    <       7.19269936 Ry

     iteration #  4     ecut=    50.00 Ry     beta=0.70
     Davidson diagonalization with overlap
     ethr =  3.92E-04,  avg # of iterations =  6.2

     negative rho (up, down):  1.739E+00 0.000E+00

     total cpu time spent up to now is     3811.8 secs

     total energy              =   -6603.32159641 Ry
     Harris-Foulkes estimate   =   -6605.35701086 Ry
     estimated scf accuracy    <      21.79053635 Ry

     iteration #  5     ecut=    50.00 Ry     beta=0.70
     Davidson diagonalization with overlap
     ethr =  3.92E-04,  avg # of iterations =  6.8

     negative rho (up, down):  1.748E+00 0.000E+00

     total cpu time spent up to now is     4332.5 secs

     total energy              =   -6604.35063665 Ry
     Harris-Foulkes estimate   =   -6604.54345705 Ry
     estimated scf accuracy    <       0.99198041 Ry

     iteration #  6     ecut=    50.00 Ry     beta=0.70
     Davidson diagonalization with overlap
     ethr =  1.39E-04,  avg # of iterations =  3.5

     negative rho (up, down):  1.752E+00 0.000E+00

     total cpu time spent up to now is     4743.4 secs

     total energy              =   -6604.40185840 Ry
     Harris-Foulkes estimate   =   -6604.44713075 Ry
     estimated scf accuracy    <       0.13568027 Ry

     iteration #  7     ecut=    50.00 Ry     beta=0.70
     Davidson diagonalization with overlap
     c_bands:  1 eigenvalues not converged
     ethr =  1.91E-05,  avg # of iterations = 12.5

     negative rho (up, down):  1.754E+00 0.000E+00

     total cpu time spent up to now is     5368.8 secs

     total energy              =   -6604.41249521 Ry
     Harris-Foulkes estimate   =   -6604.43435358 Ry
     estimated scf accuracy    <       0.08545818 Ry

     iteration #  8     ecut=    50.00 Ry     beta=0.70
     Davidson diagonalization with overlap
     ethr =  1.20E-05,  avg # of iterations =  5.8

     negative rho (up, down):  1.755E+00 0.000E+00

     total cpu time spent up to now is     5845.0 secs

     total energy              =   -6604.41500219 Ry
     Harris-Foulkes estimate   =   -6604.42709658 Ry
     estimated scf accuracy    <       0.04111725 Ry

     iteration #  9     ecut=    50.00 Ry     beta=0.70
     Davidson diagonalization with overlap
     c_bands:  1 eigenvalues not converged
     ethr =  5.77E-06,  avg # of iterations =  7.8

     negative rho (up, down):  1.756E+00 0.000E+00

     total cpu time spent up to now is     6371.2 secs

     total energy              =   -6604.41783559 Ry
     Harris-Foulkes estimate   =   -6604.42170441 Ry
     estimated scf accuracy    <       0.01067223 Ry

     iteration # 10     ecut=    50.00 Ry     beta=0.70
     Davidson diagonalization with overlap
     ethr =  1.50E-06,  avg # of iterations =  6.8

     negative rho (up, down):  1.756E+00 0.000E+00

     total cpu time spent up to now is     6885.6 secs

     total energy              =   -6604.41901540 Ry
     Harris-Foulkes estimate   =   -6604.42030867 Ry
     estimated scf accuracy    <       0.00411133 Ry

     iteration # 11     ecut=    50.00 Ry     beta=0.70
     Davidson diagonalization with overlap
     ethr =  5.77E-07,  avg # of iterations =  2.0

     negative rho (up, down):  1.757E+00 0.000E+00

     total cpu time spent up to now is     7266.8 secs

     total energy              =   -6604.41947197 Ry
     Harris-Foulkes estimate   =   -6604.41988321 Ry
     estimated scf accuracy    <       0.00139433 Ry

     iteration # 12     ecut=    50.00 Ry     beta=0.70
     Davidson diagonalization with overlap
     ethr =  1.96E-07,  avg # of iterations =  2.0

     negative rho (up, down):  1.757E+00 0.000E+00

     total cpu time spent up to now is     7647.6 secs

     total energy              =   -6604.41962889 Ry
     Harris-Foulkes estimate   =   -6604.41971018 Ry
     estimated scf accuracy    <       0.00022310 Ry

     iteration # 13     ecut=    50.00 Ry     beta=0.70
     Davidson diagonalization with overlap
     ethr =  3.13E-08,  avg # of iterations =  3.0

     negative rho (up, down):  1.757E+00 0.000E+00

     total cpu time spent up to now is     8132.7 secs

     total energy              =   -6604.41963173 Ry
     Harris-Foulkes estimate   =   -6604.41970783 Ry
     estimated scf accuracy    <       0.00030875 Ry

     iteration # 14     ecut=    50.00 Ry     beta=0.70
     Davidson diagonalization with overlap
     ethr =  3.13E-08,  avg # of iterations =  2.0

     negative rho (up, down):  1.757E+00 0.000E+00

     total cpu time spent up to now is     8516.6 secs

     total energy              =   -6604.41966450 Ry
     Harris-Foulkes estimate   =   -6604.41967922 Ry
     estimated scf accuracy    <       0.00008475 Ry

     iteration # 15     ecut=    50.00 Ry     beta=0.70
     Davidson diagonalization with overlap
     ethr =  1.19E-08,  avg # of iterations =  1.0

     negative rho (up, down):  1.757E+00 0.000E+00

     total cpu time spent up to now is     8881.1 secs

     total energy              =   -6604.41967236 Ry
     Harris-Foulkes estimate   =   -6604.41967472 Ry
     estimated scf accuracy    <       0.00001882 Ry

     iteration # 16     ecut=    50.00 Ry     beta=0.70
     Davidson diagonalization with overlap
     ethr =  2.64E-09,  avg # of iterations =  3.0

     negative rho (up, down):  1.757E+00 0.000E+00

     total cpu time spent up to now is     9250.4 secs

     total energy              =   -6604.41967345 Ry
     Harris-Foulkes estimate   =   -6604.41967387 Ry
     estimated scf accuracy    <       0.00000088 Ry

     iteration # 17     ecut=    50.00 Ry     beta=0.70
     Davidson diagonalization with overlap
     ethr =  1.24E-10,  avg # of iterations =  3.0

     negative rho (up, down):  1.757E+00 0.000E+00

     total cpu time spent up to now is     9779.8 secs

     total energy              =   -6604.41967343 Ry
     Harris-Foulkes estimate   =   -6604.41967398 Ry
     estimated scf accuracy    <       0.00000209 Ry

     iteration # 18     ecut=    50.00 Ry     beta=0.70
     Davidson diagonalization with overlap
     ethr =  1.24E-10,  avg # of iterations =  2.0

     negative rho (up, down):  1.757E+00 0.000E+00

     total cpu time spent up to now is    10217.6 secs

     total energy              =   -6604.41967364 Ry
     Harris-Foulkes estimate   =   -6604.41967378 Ry
     estimated scf accuracy    <       0.00000056 Ry

     iteration # 19     ecut=    50.00 Ry     beta=0.70
     Davidson diagonalization with overlap
     ethr =  7.80E-11,  avg # of iterations =  2.0

     negative rho (up, down):  1.757E+00 0.000E+00

     total cpu time spent up to now is    10607.3 secs

     total energy              =   -6604.41967370 Ry
     Harris-Foulkes estimate   =   -6604.41967372 Ry
     estimated scf accuracy    <       0.00000007 Ry

     iteration # 20     ecut=    50.00 Ry     beta=0.70
     Davidson diagonalization with overlap
     ethr =  1.01E-11,  avg # of iterations =  2.0

     negative rho (up, down):  1.757E+00 0.000E+00

     total cpu time spent up to now is    11006.6 secs

     total energy              =   -6604.41967371 Ry
     Harris-Foulkes estimate   =   -6604.41967371 Ry
     estimated scf accuracy    <       0.00000001 Ry

     iteration # 21     ecut=    50.00 Ry     beta=0.70
     Davidson diagonalization with overlap
     ethr =  1.91E-12,  avg # of iterations =  3.0

     negative rho (up, down):  1.757E+00 0.000E+00

     total cpu time spent up to now is    11505.3 secs

     total energy              =   -6604.41967371 Ry
     Harris-Foulkes estimate   =   -6604.41967371 Ry
     estimated scf accuracy    <       0.00000002 Ry

     iteration # 22     ecut=    50.00 Ry     beta=0.70
     Davidson diagonalization with overlap
     ethr =  1.91E-12,  avg # of iterations =  2.0

     negative rho (up, down):  1.757E+00 0.000E+00

     total cpu time spent up to now is    11881.8 secs

     End of self-consistent calculation

          k = 0.2500 0.4330 0.1111 (136853 PWs)   bands (ev):

   -19.3178  -7.2207  -6.3102  -5.9121  -5.9109  -5.2355  -4.9010  -4.9005
    -4.8653  -4.8612  -4.5010  -4.4998  -4.4022  -4.4013  -4.3879  -4.3645
    -4.3487  -4.2348  -4.2331  -4.2095  -4.1667  -4.1661  -4.1006  -4.0982
    -4.0931  -4.0918  -4.0692  -4.0655  -4.0625  -4.0024  -3.9923  -3.9618
    -3.9607  -3.9501  -3.9486  -3.9266  -3.9252  -3.9032  -3.8957  -3.8944
    -3.8717  -3.8187  -3.8160  -3.7692  -3.7665  -3.7269  -3.7120  -3.6721
    -3.6563  -3.6530  -3.6528  -3.6183  -3.5985  -3.5841  -3.5721  -3.5714
    -3.5708  -3.5471  -3.5425  -3.5337  -3.5113  -3.4739  -3.4663  -3.4579
    -3.4389  -3.4286  -3.3654  -3.3627  -3.3359  -3.3308  -3.3044  -3.2990
    -3.2882  -3.2697  -3.2152  -3.2103  -3.1954  -3.1948  -3.1466  -3.1406
    -3.1362  -3.0988  -3.0719  -3.0691  -3.0602  -3.0590  -3.0491  -3.0471
    -3.0411  -3.0387  -3.0295  -2.9883  -2.9506  -2.9486  -2.9375  -2.9359
    -2.9080  -2.9018  -2.9006  -2.8772  -2.8333  -2.8314  -2.8246  -2.7865
    -2.7780  -2.7665  -2.7660  -2.7419  -2.7375  -2.7066  -2.6753  -2.6707
    -2.6513  -2.6400  -2.6300  -2.6272  -2.5794  -2.5771  -2.5448  -2.5232
    -2.5206  -2.5020  -2.4953  -2.4857  -2.4843  -2.4748  -2.4566  -2.4533
    -2.4088  -2.4063  -2.4054  -2.3911  -2.3902  -2.3835  -2.3802  -2.3758
    -2.3731  -2.3696  -2.3632  -2.3621  -2.3530  -2.3510  -2.3298  -2.3168
    -2.3148  -2.3143  -2.3120  -2.3112  -2.3084  -2.2871  -2.2816  -2.2686
    -2.2655  -2.2479  -2.2455  -2.2405  -2.2369  -2.2359  -2.2341  -2.2276
    -2.2161  -2.2131  -2.2126  -2.1991  -2.1697  -2.1691  -2.1277  -2.1269
    -2.1085  -2.1059  -2.0837  -2.0764  -2.0587  -2.0495  -2.0391  -2.0286
    -2.0076  -1.9956  -1.9821  -1.9744  -1.9718  -1.9668  -1.9603  -1.9587
    -1.9405  -1.9296  -1.9242  -1.8832  -1.8622  -1.8573  -1.8553  -1.8532
    -1.8269  -1.7976  -1.7963  -1.7737  -1.7703  -1.7154  -1.7113  -1.7049
    -1.6725  -1.6606  -1.6512  -1.6013  -1.5974  -1.5884  -1.5873  -1.5780
    -1.5760  -1.5709  -1.5630  -1.5552  -1.5102  -1.5022  -1.4969  -1.4937
    -1.4883  -1.4766  -1.4564  -1.4416  -1.4309  -1.4264  -1.4231  -1.4185
    -1.4144  -1.4049  -1.4013  -1.3840  -1.3805  -1.3771  -1.3441  -1.3355
    -1.3294  -1.3115  -1.2923  -1.2759  -1.2542  -1.2441  -1.2244  -1.2223
    -1.2021  -1.1896  -1.1428  -1.1406  -1.1371  -1.1328  -1.1294  -1.1223
    -1.1187  -1.1033  -1.0885  -1.0647  -1.0598  -1.0338  -1.0310  -1.0254
    -1.0207  -1.0193  -1.0033  -1.0008  -0.9991  -0.9972  -0.9910  -0.9596
    -0.9572  -0.9560  -0.9468  -0.9284  -0.9247  -0.9182  -0.8966  -0.8893
    -0.8753  -0.8428  -0.8377  -0.8199  -0.8010  -0.7895  -0.7841  -0.7824
    -0.7766  -0.7749  -0.7703  -0.7658  -0.7592  -0.7472  -0.7357  -0.7331
    -0.7291  -0.7279  -0.7241  -0.6910  -0.6903  -0.6830  -0.6717  -0.6612
    -0.6566  -0.6450  -0.6272  -0.5888  -0.5877  -0.5796  -0.5791  -0.5771
    -0.5714  -0.5660  -0.5512  -0.5491  -0.5436  -0.5418  -0.5403  -0.5279
    -0.5020  -0.4994  -0.4983  -0.4898  -0.4888  -0.4837  -0.4822  -0.4674
    -0.4644  -0.4620  -0.4451  -0.4228  -0.4195  -0.4144  -0.4084  -0.4036
    -0.3349  -0.3297  -0.3286  -0.3274  -0.3190  -0.3172  -0.2828  -0.2712
    -0.2706  -0.2406  -0.2378  -0.2076  -0.1163  -0.1102  -0.0125   0.4004
     0.4022   0.4056   0.4074   0.4653   0.4842   0.8521   0.8561   0.8947
     0.9006   1.0142   1.0930   1.1967   1.2117   1.4178   1.4414   2.0490
     2.0577   2.2090   2.2218   2.3451   2.3576   2.4509   2.4523   2.6056
     2.8406   2.8484   2.9701   3.1896   3.1979   3.2696   3.2754   3.3731
     3.3909   3.5796   3.5913   3.6458   3.8468   3.8488   3.9070   3.9141
     4.1645   4.1707   4.1824   4.4145   4.4527   4.4624   4.5032   4.8338
     4.8385   4.8662   5.0001   5.1753   5.1784   5.2149   5.2382   5.4690
     5.7924   5.9256   5.9563   5.9665   5.9734   6.0344   6.0383   6.1055
     6.1473   6.1556   6.1666   6.1992   6.2054   6.2214   6.2387   6.2574
     6.2748   6.4544   6.5723   6.7006   6.7512   6.7781   6.9027   6.9080
     6.9220   7.0234   7.0293

          k = 0.2500-0.1443 0.1111 (136898 PWs)   bands (ev):

   -19.3178  -7.2210  -6.5196  -5.7289  -5.4388  -5.3795  -5.3783  -4.8411
    -4.8404  -4.7108  -4.7082  -4.5547  -4.5277  -4.4606  -4.4325  -4.4286
    -4.3943  -4.3935  -4.2650  -4.2234  -4.2233  -4.1648  -4.1465  -4.1435
    -4.0406  -4.0400  -4.0050  -4.0040  -4.0032  -3.9781  -3.9561  -3.9549
    -3.8553  -3.8491  -3.8481  -3.8291  -3.8152  -3.8111  -3.8019  -3.7992
    -3.7877  -3.7618  -3.7558  -3.7544  -3.7537  -3.7303  -3.7241  -3.7059
    -3.7040  -3.6960  -3.6720  -3.6532  -3.6187  -3.6120  -3.6047  -3.5952
    -3.5949  -3.5395  -3.5212  -3.5111  -3.4890  -3.4854  -3.4553  -3.4153
    -3.4141  -3.4003  -3.3927  -3.3723  -3.3708  -3.3689  -3.3592  -3.2152
    -3.2113  -3.1919  -3.1893  -3.1843  -3.1686  -3.1672  -3.1441  -3.1394
    -3.0931  -3.0903  -3.0771  -3.0749  -3.0552  -3.0101  -3.0086  -2.9893
    -2.9835  -2.9823  -2.9430  -2.9419  -2.9343  -2.9323  -2.9192  -2.9179
    -2.8799  -2.8790  -2.8590  -2.8571  -2.8540  -2.8529  -2.8488  -2.7774
    -2.7747  -2.7711  -2.7432  -2.7410  -2.6860  -2.6808  -2.6534  -2.6520
    -2.6399  -2.6387  -2.6311  -2.6057  -2.6027  -2.5920  -2.5767  -2.5583
    -2.5522  -2.5494  -2.5316  -2.5295  -2.5210  -2.5177  -2.5168  -2.5151
    -2.5035  -2.4580  -2.4300  -2.4285  -2.4153  -2.4003  -2.3945  -2.3919
    -2.3855  -2.3827  -2.3806  -2.3573  -2.3525  -2.3520  -2.3423  -2.3408
    -2.3281  -2.3030  -2.2999  -2.2987  -2.2960  -2.2954  -2.2488  -2.2291
    -2.2198  -2.2177  -2.2128  -2.2020  -2.2002  -2.1928  -2.1721  -2.1720
    -2.1508  -2.1437  -2.1383  -2.1318  -2.1223  -2.1196  -2.0987  -2.0876
    -2.0557  -2.0483  -2.0401  -2.0383  -2.0352  -2.0335  -2.0289  -2.0275
    -2.0243  -2.0233  -2.0181  -2.0059  -2.0029  -1.9250  -1.8781  -1.8662
    -1.8426  -1.8374  -1.8308  -1.8277  -1.8244  -1.8132  -1.8118  -1.8078
    -1.8052  -1.7929  -1.7826  -1.7802  -1.7768  -1.7649  -1.7624  -1.7447
    -1.7407  -1.7179  -1.7119  -1.6995  -1.6825  -1.6708  -1.6652  -1.6459
    -1.6422  -1.6400  -1.6249  -1.6199  -1.6089  -1.6053  -1.6017  -1.5912
    -1.5763  -1.5703  -1.5603  -1.5466  -1.5257  -1.5218  -1.4817  -1.4679
    -1.4621  -1.4528  -1.4492  -1.4250  -1.4236  -1.4131  -1.3927  -1.3900
    -1.3790  -1.3510  -1.3484  -1.3350  -1.3282  -1.3242  -1.3048  -1.3024
    -1.2744  -1.2700  -1.2680  -1.2419  -1.2078  -1.2036  -1.1962  -1.1915
    -1.1782  -1.1725  -1.1638  -1.1539  -1.1451  -1.1322  -1.1058  -1.1041
    -1.0905  -1.0592  -1.0570  -1.0453  -1.0436  -1.0417  -1.0387  -1.0365
    -1.0281  -1.0196  -0.9945  -0.9926  -0.9817  -0.9783  -0.9750  -0.9595
    -0.9507  -0.9382  -0.9226  -0.9141  -0.8913  -0.8219  -0.8102  -0.8046
    -0.8037  -0.7957  -0.7928  -0.7869  -0.7716  -0.7585  -0.7550  -0.7465
    -0.7387  -0.7321  -0.7286  -0.7109  -0.7075  -0.6991  -0.6767  -0.6244
    -0.6223  -0.5929  -0.5863  -0.5841  -0.5798  -0.5769  -0.5758  -0.5716
    -0.5638  -0.5599  -0.5211  -0.5200  -0.5076  -0.4893  -0.4869  -0.4777
    -0.4751  -0.4664  -0.4644  -0.4630  -0.4608  -0.4533  -0.4449  -0.4397
    -0.4342  -0.4100  -0.4072  -0.4043  -0.3943  -0.3911  -0.3746  -0.3437
    -0.3429  -0.3341  -0.3323  -0.2663  -0.2634  -0.2310  -0.2307  -0.1735
    -0.1725  -0.1704  -0.1479  -0.1423   0.0803   0.1096   0.4303   0.4309
     0.5175   0.5409   0.7165   0.7411   0.7610   0.8745   0.8858   1.3108
     1.3113   1.3289   1.5898   1.6201   1.6235   1.8905   1.9133   1.9733
     1.9773   1.9971   2.0203   2.2292   2.2344   2.3214   2.3232   2.3925
     2.4544   2.4816   2.6262   2.7260   3.1551   3.1622   3.1649   3.1768
     3.2163   3.2286   3.5134   3.5163   3.7864   3.8063   3.8998   4.2118
     4.2436   4.2568   4.4472   4.4918   4.5494   4.5526   4.6446   4.7620
     4.7660   4.8760   4.8845   5.1788   5.2432   5.2524   5.3201   5.4287
     5.4570   5.6365   5.6428   5.6673   5.6705   5.7205   5.7288   5.7792
     5.8779   6.0595   6.2663   6.3349   6.3463   6.4640   6.4708   6.4778
     6.4939   6.5418   6.6667   6.7135   6.7339   6.8397   6.9124   6.9354
     6.9845   7.0499   7.0767

          k =-0.2500-0.4330 0.1111 (136853 PWs)   bands (ev):

   -19.3178  -7.2207  -6.3102  -5.9121  -5.9109  -5.2355  -4.9010  -4.9005
    -4.8653  -4.8612  -4.5010  -4.4998  -4.4022  -4.4013  -4.3879  -4.3645
    -4.3487  -4.2348  -4.2331  -4.2095  -4.1667  -4.1661  -4.1006  -4.0982
    -4.0931  -4.0918  -4.0692  -4.0655  -4.0625  -4.0024  -3.9923  -3.9618
    -3.9607  -3.9501  -3.9486  -3.9266  -3.9252  -3.9032  -3.8957  -3.8944
    -3.8717  -3.8187  -3.8160  -3.7692  -3.7665  -3.7269  -3.7120  -3.6721
    -3.6563  -3.6530  -3.6528  -3.6183  -3.5985  -3.5841  -3.5721  -3.5714
    -3.5708  -3.5471  -3.5425  -3.5337  -3.5113  -3.4739  -3.4663  -3.4579
    -3.4389  -3.4286  -3.3654  -3.3627  -3.3359  -3.3308  -3.3044  -3.2990
    -3.2882  -3.2697  -3.2152  -3.2103  -3.1954  -3.1948  -3.1466  -3.1406
    -3.1362  -3.0988  -3.0719  -3.0691  -3.0602  -3.0590  -3.0491  -3.0471
    -3.0411  -3.0387  -3.0295  -2.9883  -2.9506  -2.9486  -2.9375  -2.9359
    -2.9080  -2.9018  -2.9006  -2.8772  -2.8333  -2.8314  -2.8246  -2.7865
    -2.7780  -2.7665  -2.7660  -2.7419  -2.7375  -2.7066  -2.6753  -2.6707
    -2.6513  -2.6400  -2.6300  -2.6272  -2.5794  -2.5771  -2.5448  -2.5232
    -2.5206  -2.5020  -2.4953  -2.4857  -2.4843  -2.4748  -2.4566  -2.4533
    -2.4088  -2.4063  -2.4054  -2.3911  -2.3902  -2.3835  -2.3802  -2.3758
    -2.3731  -2.3696  -2.3632  -2.3621  -2.3530  -2.3510  -2.3298  -2.3168
    -2.3148  -2.3143  -2.3120  -2.3112  -2.3084  -2.2871  -2.2816  -2.2686
    -2.2655  -2.2479  -2.2455  -2.2405  -2.2369  -2.2359  -2.2341  -2.2276
    -2.2161  -2.2131  -2.2126  -2.1991  -2.1697  -2.1691  -2.1277  -2.1269
    -2.1085  -2.1059  -2.0837  -2.0764  -2.0587  -2.0495  -2.0391  -2.0286
    -2.0076  -1.9956  -1.9821  -1.9744  -1.9718  -1.9668  -1.9603  -1.9587
    -1.9405  -1.9296  -1.9242  -1.8832  -1.8622  -1.8573  -1.8553  -1.8532
    -1.8269  -1.7976  -1.7963  -1.7737  -1.7703  -1.7154  -1.7114  -1.7049
    -1.6725  -1.6606  -1.6512  -1.6013  -1.5974  -1.5884  -1.5873  -1.5780
    -1.5760  -1.5709  -1.5630  -1.5552  -1.5102  -1.5022  -1.4969  -1.4937
    -1.4883  -1.4766  -1.4564  -1.4416  -1.4309  -1.4264  -1.4231  -1.4185
    -1.4144  -1.4049  -1.4013  -1.3841  -1.3805  -1.3771  -1.3441  -1.3355
    -1.3294  -1.3115  -1.2923  -1.2759  -1.2542  -1.2441  -1.2244  -1.2223
    -1.2021  -1.1896  -1.1428  -1.1406  -1.1371  -1.1328  -1.1294  -1.1223
    -1.1187  -1.1033  -1.0885  -1.0647  -1.0598  -1.0338  -1.0310  -1.0254
    -1.0207  -1.0193  -1.0033  -1.0008  -0.9991  -0.9972  -0.9910  -0.9596
    -0.9572  -0.9560  -0.9468  -0.9284  -0.9247  -0.9182  -0.8966  -0.8893
    -0.8753  -0.8428  -0.8377  -0.8199  -0.8010  -0.7895  -0.7841  -0.7824
    -0.7766  -0.7749  -0.7703  -0.7658  -0.7592  -0.7472  -0.7357  -0.7331
    -0.7291  -0.7279  -0.7241  -0.6910  -0.6903  -0.6830  -0.6717  -0.6612
    -0.6566  -0.6450  -0.6272  -0.5888  -0.5877  -0.5796  -0.5791  -0.5771
    -0.5714  -0.5660  -0.5512  -0.5491  -0.5436  -0.5418  -0.5403  -0.5279
    -0.5020  -0.4994  -0.4983  -0.4898  -0.4888  -0.4837  -0.4822  -0.4674
    -0.4644  -0.4620  -0.4451  -0.4228  -0.4195  -0.4144  -0.4084  -0.4036
    -0.3349  -0.3297  -0.3286  -0.3274  -0.3190  -0.3172  -0.2828  -0.2712
    -0.2706  -0.2406  -0.2378  -0.2076  -0.1163  -0.1102  -0.0125   0.4004
     0.4022   0.4056   0.4074   0.4653   0.4842   0.8521   0.8561   0.8947
     0.9006   1.0142   1.0930   1.1967   1.2117   1.4178   1.4414   2.0490
     2.0577   2.2090   2.2218   2.3451   2.3576   2.4509   2.4523   2.6056
     2.8406   2.8484   2.9701   3.1896   3.1979   3.2696   3.2754   3.3731
     3.3909   3.5796   3.5913   3.6458   3.8468   3.8488   3.9070   3.9141
     4.1645   4.1707   4.1824   4.4145   4.4527   4.4624   4.5032   4.8338
     4.8385   4.8662   5.0001   5.1753   5.1784   5.2149   5.2382   5.4691
     5.7921   5.9256   5.9563   5.9665   5.9734   6.0344   6.0383   6.1048
     6.1478   6.1576   6.1664   6.1992   6.2054   6.2215   6.2380   6.2575
     6.2751   6.4537   6.5733   6.6964   6.7508   6.7769   6.9027   6.9079
     6.9221   7.0255   7.0307

          k =-0.2500 0.4330-0.1111 (136853 PWs)   bands (ev):

   -19.3178  -7.2207  -6.3103  -5.9131  -5.9099  -5.2355  -4.9015  -4.8999
    -4.8657  -4.8609  -4.5015  -4.4993  -4.4025  -4.4012  -4.3877  -4.3645
    -4.3483  -4.2356  -4.2325  -4.2096  -4.1666  -4.1662  -4.1004  -4.0983
    -4.0940  -4.0912  -4.0696  -4.0661  -4.0619  -4.0019  -3.9932  -3.9625
    -3.9597  -3.9500  -3.9486  -3.9265  -3.9252  -3.9028  -3.8959  -3.8942
    -3.8720  -3.8187  -3.8159  -3.7690  -3.7661  -3.7271  -3.7118  -3.6721
    -3.6557  -3.6530  -3.6529  -3.6189  -3.6008  -3.5837  -3.5724  -3.5718
    -3.5705  -3.5489  -3.5415  -3.5342  -3.5079  -3.4736  -3.4666  -3.4584
    -3.4385  -3.4296  -3.3661  -3.3603  -3.3362  -3.3313  -3.3038  -3.3013
    -3.2881  -3.2694  -3.2148  -3.2100  -3.1962  -3.1946  -3.1441  -3.1420
    -3.1367  -3.0985  -3.0716  -3.0692  -3.0605  -3.0591  -3.0511  -3.0467
    -3.0406  -3.0380  -3.0295  -2.9881  -2.9513  -2.9482  -2.9377  -2.9360
    -2.9082  -2.9019  -2.9012  -2.8768  -2.8338  -2.8306  -2.8240  -2.7864
    -2.7778  -2.7669  -2.7653  -2.7398  -2.7384  -2.7068  -2.6745  -2.6719
    -2.6509  -2.6400  -2.6314  -2.6272  -2.5799  -2.5779  -2.5449  -2.5232
    -2.5210  -2.4988  -2.4951  -2.4868  -2.4835  -2.4750  -2.4568  -2.4524
    -2.4085  -2.4059  -2.4053  -2.3916  -2.3903  -2.3809  -2.3802  -2.3758
    -2.3733  -2.3704  -2.3672  -2.3631  -2.3534  -2.3512  -2.3278  -2.3179
    -2.3151  -2.3141  -2.3117  -2.3096  -2.3082  -2.2854  -2.2815  -2.2671
    -2.2647  -2.2489  -2.2459  -2.2408  -2.2371  -2.2354  -2.2344  -2.2252
    -2.2179  -2.2136  -2.2128  -2.1987  -2.1704  -2.1690  -2.1288  -2.1268
    -2.1103  -2.1053  -2.0844  -2.0753  -2.0517  -2.0493  -2.0356  -2.0280
    -2.0133  -1.9967  -1.9822  -1.9768  -1.9702  -1.9677  -1.9610  -1.9582
    -1.9376  -1.9307  -1.9255  -1.8897  -1.8624  -1.8575  -1.8535  -1.8518
    -1.8315  -1.7986  -1.7953  -1.7719  -1.7698  -1.7174  -1.7131  -1.6956
    -1.6762  -1.6614  -1.6433  -1.5997  -1.5981  -1.5882  -1.5854  -1.5774
    -1.5747  -1.5709  -1.5634  -1.5541  -1.5106  -1.5038  -1.4992  -1.4942
    -1.4825  -1.4773  -1.4654  -1.4422  -1.4293  -1.4250  -1.4235  -1.4203
    -1.4141  -1.4074  -1.4004  -1.3825  -1.3808  -1.3703  -1.3443  -1.3349
    -1.3294  -1.3102  -1.2996  -1.2904  -1.2523  -1.2443  -1.2244  -1.2213
    -1.1996  -1.1895  -1.1416  -1.1385  -1.1373  -1.1355  -1.1302  -1.1239
    -1.1158  -1.1015  -1.0891  -1.0617  -1.0599  -1.0339  -1.0304  -1.0248
    -1.0221  -1.0183  -1.0039  -1.0029  -0.9979  -0.9963  -0.9937  -0.9609
    -0.9573  -0.9560  -0.9395  -0.9291  -0.9261  -0.9191  -0.8945  -0.8895
    -0.8724  -0.8439  -0.8384  -0.8235  -0.8014  -0.7937  -0.7838  -0.7799
    -0.7764  -0.7750  -0.7717  -0.7674  -0.7594  -0.7457  -0.7352  -0.7339
    -0.7286  -0.7280  -0.7235  -0.6910  -0.6902  -0.6848  -0.6715  -0.6599
    -0.6557  -0.6455  -0.6378  -0.5887  -0.5871  -0.5799  -0.5786  -0.5763
    -0.5724  -0.5631  -0.5519  -0.5496  -0.5439  -0.5419  -0.5405  -0.5274
    -0.5014  -0.4998  -0.4974  -0.4912  -0.4878  -0.4846  -0.4828  -0.4699
    -0.4643  -0.4632  -0.4405  -0.4223  -0.4198  -0.4141  -0.4101  -0.4042
    -0.3337  -0.3300  -0.3285  -0.3262  -0.3198  -0.3155  -0.2827  -0.2712
    -0.2700  -0.2435  -0.2380  -0.2064  -0.1178  -0.1001  -0.0076   0.4004
     0.4015   0.4055   0.4080   0.4607   0.4901   0.8488   0.8569   0.8939
     0.9023   1.0159   1.0913   1.1933   1.2134   1.4125   1.4440   2.0463
     2.0613   2.2066   2.2268   2.3399   2.3656   2.4511   2.4525   2.6051
     2.8387   2.8505   2.9658   3.1833   3.1987   3.2689   3.2793   3.3702
     3.3907   3.5699   3.5968   3.6480   3.8454   3.8498   3.9073   3.9201
     4.1623   4.1677   4.1866   4.4158   4.4525   4.4660   4.5017   4.8283
     4.8432   4.8642   5.0029   5.1767   5.1797   5.2105   5.2400   5.4684
     5.8079   5.9208   5.9443   5.9652   5.9754   6.0296   6.0398   6.1060
     6.1275   6.1688   6.1767   6.2009   6.2121   6.2160   6.2424   6.2598
     6.2803   6.4560   6.5566   6.7001   6.7526   6.7673   6.9030   6.9061
     6.9148   7.0245   7.0494

          k = 0.2500-0.4330-0.1111 (136853 PWs)   bands (ev):

   -19.3178  -7.2207  -6.3103  -5.9131  -5.9099  -5.2355  -4.9015  -4.8999
    -4.8657  -4.8609  -4.5015  -4.4993  -4.4025  -4.4012  -4.3877  -4.3645
    -4.3483  -4.2356  -4.2325  -4.2096  -4.1665  -4.1662  -4.1004  -4.0983
    -4.0940  -4.0912  -4.0696  -4.0661  -4.0619  -4.0019  -3.9932  -3.9625
    -3.9597  -3.9500  -3.9486  -3.9265  -3.9252  -3.9028  -3.8959  -3.8942
    -3.8720  -3.8187  -3.8159  -3.7690  -3.7661  -3.7271  -3.7118  -3.6721
    -3.6557  -3.6530  -3.6529  -3.6189  -3.6008  -3.5837  -3.5724  -3.5718
    -3.5705  -3.5489  -3.5415  -3.5342  -3.5079  -3.4736  -3.4666  -3.4584
    -3.4385  -3.4296  -3.3661  -3.3603  -3.3362  -3.3313  -3.3038  -3.3013
    -3.2881  -3.2694  -3.2148  -3.2100  -3.1962  -3.1946  -3.1441  -3.1420
    -3.1367  -3.0985  -3.0716  -3.0692  -3.0605  -3.0591  -3.0511  -3.0467
    -3.0406  -3.0380  -3.0295  -2.9881  -2.9513  -2.9482  -2.9377  -2.9360
    -2.9082  -2.9019  -2.9012  -2.8768  -2.8338  -2.8306  -2.8240  -2.7864
    -2.7778  -2.7669  -2.7653  -2.7398  -2.7384  -2.7068  -2.6745  -2.6719
    -2.6509  -2.6400  -2.6314  -2.6272  -2.5799  -2.5779  -2.5449  -2.5232
    -2.5210  -2.4988  -2.4951  -2.4868  -2.4835  -2.4750  -2.4568  -2.4524
    -2.4085  -2.4059  -2.4053  -2.3916  -2.3903  -2.3809  -2.3802  -2.3758
    -2.3733  -2.3704  -2.3672  -2.3631  -2.3534  -2.3512  -2.3278  -2.3179
    -2.3151  -2.3141  -2.3117  -2.3096  -2.3082  -2.2854  -2.2815  -2.2671
    -2.2647  -2.2489  -2.2459  -2.2408  -2.2371  -2.2354  -2.2344  -2.2252
    -2.2179  -2.2136  -2.2128  -2.1987  -2.1704  -2.1690  -2.1288  -2.1268
    -2.1103  -2.1053  -2.0844  -2.0753  -2.0517  -2.0493  -2.0356  -2.0280
    -2.0133  -1.9967  -1.9822  -1.9768  -1.9702  -1.9677  -1.9610  -1.9582
    -1.9376  -1.9307  -1.9255  -1.8897  -1.8624  -1.8575  -1.8535  -1.8518
    -1.8315  -1.7986  -1.7953  -1.7719  -1.7698  -1.7174  -1.7131  -1.6956
    -1.6762  -1.6614  -1.6433  -1.5997  -1.5981  -1.5882  -1.5854  -1.5774
    -1.5747  -1.5709  -1.5634  -1.5541  -1.5106  -1.5038  -1.4992  -1.4942
    -1.4825  -1.4773  -1.4654  -1.4422  -1.4293  -1.4250  -1.4235  -1.4203
    -1.4141  -1.4074  -1.4004  -1.3825  -1.3808  -1.3703  -1.3443  -1.3349
    -1.3294  -1.3102  -1.2996  -1.2904  -1.2523  -1.2443  -1.2244  -1.2213
    -1.1996  -1.1895  -1.1416  -1.1385  -1.1373  -1.1355  -1.1302  -1.1239
    -1.1158  -1.1015  -1.0891  -1.0617  -1.0599  -1.0339  -1.0304  -1.0248
    -1.0221  -1.0183  -1.0039  -1.0029  -0.9979  -0.9963  -0.9937  -0.9609
    -0.9573  -0.9560  -0.9395  -0.9291  -0.9261  -0.9191  -0.8945  -0.8895
    -0.8724  -0.8439  -0.8384  -0.8235  -0.8014  -0.7937  -0.7838  -0.7799
    -0.7764  -0.7750  -0.7717  -0.7674  -0.7594  -0.7457  -0.7352  -0.7339
    -0.7286  -0.7280  -0.7235  -0.6910  -0.6902  -0.6848  -0.6715  -0.6599
    -0.6557  -0.6455  -0.6378  -0.5887  -0.5871  -0.5799  -0.5786  -0.5763
    -0.5724  -0.5631  -0.5519  -0.5496  -0.5439  -0.5419  -0.5405  -0.5274
    -0.5014  -0.4998  -0.4974  -0.4912  -0.4878  -0.4846  -0.4828  -0.4699
    -0.4643  -0.4632  -0.4405  -0.4223  -0.4198  -0.4141  -0.4101  -0.4042
    -0.3337  -0.3300  -0.3285  -0.3262  -0.3198  -0.3155  -0.2827  -0.2712
    -0.2700  -0.2435  -0.2380  -0.2064  -0.1178  -0.1001  -0.0076   0.4004
     0.4015   0.4055   0.4080   0.4607   0.4901   0.8488   0.8569   0.8939
     0.9023   1.0159   1.0913   1.1933   1.2134   1.4125   1.4440   2.0463
     2.0613   2.2066   2.2268   2.3399   2.3656   2.4511   2.4525   2.6051
     2.8387   2.8505   2.9658   3.1833   3.1987   3.2689   3.2793   3.3702
     3.3907   3.5699   3.5968   3.6480   3.8454   3.8498   3.9073   3.9201
     4.1623   4.1677   4.1866   4.4158   4.4525   4.4660   4.5017   4.8283
     4.8432   4.8642   5.0029   5.1767   5.1797   5.2105   5.2400   5.4685
     5.8079   5.9209   5.9444   5.9652   5.9754   6.0296   6.0398   6.1063
     6.1279   6.1685   6.1752   6.2008   6.2116   6.2156   6.2427   6.2597
     6.2802   6.4566   6.5562   6.7102   6.7525   6.7669   6.9031   6.9072
     6.9148   7.0255   7.0345

          k = 0.5000 0.0000 0.1111 (136853 PWs)   bands (ev):

   -19.3178  -7.2207  -6.3101  -5.9129  -5.9101  -5.2352  -4.9025  -4.8996
    -4.8663  -4.8604  -4.5016  -4.4984  -4.4021  -4.4009  -4.3872  -4.3645
    -4.3480  -4.2366  -4.2333  -4.2105  -4.1667  -4.1658  -4.1013  -4.0982
    -4.0962  -4.0912  -4.0693  -4.0669  -4.0608  -4.0032  -3.9915  -3.9629
    -3.9599  -3.9497  -3.9480  -3.9260  -3.9255  -3.9030  -3.8953  -3.8943
    -3.8696  -3.8172  -3.8157  -3.7693  -3.7658  -3.7127  -3.7115  -3.6597
    -3.6570  -3.6548  -3.6526  -3.6273  -3.6160  -3.5844  -3.5829  -3.5721
    -3.5707  -3.5661  -3.5418  -3.5335  -3.4989  -3.4745  -3.4727  -3.4447
    -3.4410  -3.4270  -3.3658  -3.3558  -3.3308  -3.3204  -3.3052  -3.3023
    -3.2880  -3.2722  -3.2153  -3.2132  -3.1961  -3.1939  -3.1460  -3.1416
    -3.1373  -3.0988  -3.0739  -3.0674  -3.0597  -3.0583  -3.0498  -3.0471
    -3.0399  -3.0381  -3.0298  -2.9884  -2.9511  -2.9485  -2.9376  -2.9347
    -2.9081  -2.9026  -2.8996  -2.8776  -2.8341  -2.8307  -2.8265  -2.7873
    -2.7780  -2.7668  -2.7658  -2.7427  -2.7364  -2.7067  -2.6734  -2.6712
    -2.6520  -2.6401  -2.6296  -2.6271  -2.5803  -2.5769  -2.5439  -2.5217
    -2.5202  -2.5039  -2.4969  -2.4860  -2.4829  -2.4746  -2.4567  -2.4533
    -2.4074  -2.4065  -2.4042  -2.3916  -2.3901  -2.3812  -2.3793  -2.3752
    -2.3723  -2.3698  -2.3631  -2.3593  -2.3553  -2.3516  -2.3314  -2.3163
    -2.3155  -2.3137  -2.3119  -2.3110  -2.3079  -2.2896  -2.2818  -2.2704
    -2.2645  -2.2514  -2.2459  -2.2425  -2.2370  -2.2358  -2.2337  -2.2244
    -2.2174  -2.2125  -2.2121  -2.1993  -2.1700  -2.1688  -2.1278  -2.1265
    -2.1086  -2.1057  -2.0804  -2.0748  -2.0711  -2.0491  -2.0406  -2.0281
    -2.0123  -1.9978  -1.9832  -1.9740  -1.9708  -1.9661  -1.9620  -1.9587
    -1.9372  -1.9259  -1.9251  -1.8735  -1.8613  -1.8590  -1.8558  -1.8530
    -1.8254  -1.7987  -1.7952  -1.7726  -1.7692  -1.7191  -1.7123  -1.7004
    -1.6786  -1.6594  -1.6449  -1.6020  -1.5967  -1.5870  -1.5824  -1.5791
    -1.5742  -1.5713  -1.5631  -1.5547  -1.5111  -1.5003  -1.4973  -1.4944
    -1.4916  -1.4765  -1.4631  -1.4430  -1.4342  -1.4254  -1.4227  -1.4189
    -1.4140  -1.4057  -1.4003  -1.3845  -1.3794  -1.3741  -1.3433  -1.3355
    -1.3284  -1.3110  -1.2924  -1.2852  -1.2547  -1.2423  -1.2252  -1.2226
    -1.2023  -1.1883  -1.1437  -1.1405  -1.1368  -1.1319  -1.1304  -1.1225
    -1.1154  -1.1051  -1.0820  -1.0654  -1.0592  -1.0354  -1.0303  -1.0252
    -1.0220  -1.0192  -1.0058  -1.0012  -0.9998  -0.9967  -0.9886  -0.9604
    -0.9566  -0.9557  -0.9457  -0.9304  -0.9236  -0.9154  -0.8958  -0.8903
    -0.8752  -0.8447  -0.8385  -0.8240  -0.8005  -0.7919  -0.7841  -0.7817
    -0.7765  -0.7758  -0.7704  -0.7668  -0.7581  -0.7461  -0.7361  -0.7344
    -0.7295  -0.7270  -0.7224  -0.6910  -0.6901  -0.6827  -0.6733  -0.6612
    -0.6565  -0.6448  -0.6220  -0.5887  -0.5868  -0.5805  -0.5787  -0.5761
    -0.5719  -0.5663  -0.5516  -0.5486  -0.5438  -0.5418  -0.5395  -0.5300
    -0.5016  -0.4996  -0.4976  -0.4900  -0.4892  -0.4842  -0.4828  -0.4663
    -0.4638  -0.4620  -0.4433  -0.4240  -0.4190  -0.4142  -0.4087  -0.4063
    -0.3355  -0.3293  -0.3282  -0.3270  -0.3195  -0.3161  -0.2828  -0.2714
    -0.2701  -0.2401  -0.2377  -0.2092  -0.1178  -0.1093  -0.0126   0.4011
     0.4023   0.4055   0.4073   0.4662   0.4824   0.8528   0.8567   0.8933
     0.9008   1.0147   1.0930   1.1954   1.2127   1.4154   1.4433   2.0505
     2.0574   2.2064   2.2240   2.3420   2.3603   2.4511   2.4521   2.6056
     2.8403   2.8509   2.9697   3.1858   3.2006   3.2694   3.2763   3.3741
     3.3908   3.5654   3.6025   3.6472   3.8462   3.8494   3.9043   3.9184
     4.1651   4.1673   4.1851   4.4148   4.4504   4.4634   4.5027   4.8326
     4.8397   4.8674   4.9975   5.1725   5.1795   5.1880   5.2609   5.4822
     5.7819   5.9370   5.9522   5.9658   5.9745   6.0317   6.0390   6.1116
     6.1291   6.1582   6.1731   6.1979   6.2078   6.2175   6.2389   6.2622
     6.2774   6.4504   6.5768   6.6896   6.7452   6.7970   6.8992   6.9139
     6.9214   7.0220   7.0322

          k =-0.5000 0.0000 0.1111 (136853 PWs)   bands (ev):

   -19.3178  -7.2207  -6.3101  -5.9129  -5.9101  -5.2352  -4.9025  -4.8996
    -4.8663  -4.8604  -4.5016  -4.4984  -4.4021  -4.4009  -4.3872  -4.3645
    -4.3480  -4.2366  -4.2333  -4.2105  -4.1667  -4.1658  -4.1013  -4.0982
    -4.0962  -4.0912  -4.0693  -4.0669  -4.0608  -4.0032  -3.9915  -3.9629
    -3.9599  -3.9497  -3.9480  -3.9260  -3.9255  -3.9030  -3.8953  -3.8943
    -3.8696  -3.8172  -3.8157  -3.7693  -3.7658  -3.7127  -3.7115  -3.6597
    -3.6570  -3.6548  -3.6526  -3.6273  -3.6160  -3.5844  -3.5829  -3.5721
    -3.5707  -3.5661  -3.5418  -3.5335  -3.4989  -3.4745  -3.4727  -3.4447
    -3.4410  -3.4270  -3.3658  -3.3558  -3.3308  -3.3204  -3.3052  -3.3023
    -3.2880  -3.2722  -3.2153  -3.2132  -3.1961  -3.1939  -3.1460  -3.1416
    -3.1373  -3.0988  -3.0739  -3.0674  -3.0597  -3.0583  -3.0498  -3.0471
    -3.0399  -3.0381  -3.0298  -2.9884  -2.9511  -2.9485  -2.9376  -2.9347
    -2.9081  -2.9026  -2.8996  -2.8776  -2.8341  -2.8307  -2.8265  -2.7873
    -2.7780  -2.7668  -2.7658  -2.7427  -2.7364  -2.7067  -2.6734  -2.6712
    -2.6520  -2.6401  -2.6296  -2.6271  -2.5803  -2.5769  -2.5439  -2.5217
    -2.5202  -2.5039  -2.4969  -2.4860  -2.4829  -2.4746  -2.4567  -2.4533
    -2.4074  -2.4065  -2.4042  -2.3916  -2.3901  -2.3813  -2.3793  -2.3752
    -2.3723  -2.3698  -2.3631  -2.3593  -2.3553  -2.3516  -2.3314  -2.3163
    -2.3155  -2.3137  -2.3119  -2.3110  -2.3079  -2.2896  -2.2818  -2.2704
    -2.2645  -2.2514  -2.2459  -2.2425  -2.2370  -2.2358  -2.2337  -2.2244
    -2.2174  -2.2125  -2.2121  -2.1993  -2.1700  -2.1688  -2.1278  -2.1265
    -2.1086  -2.1057  -2.0804  -2.0748  -2.0711  -2.0491  -2.0406  -2.0281
    -2.0123  -1.9978  -1.9832  -1.9740  -1.9708  -1.9661  -1.9620  -1.9587
    -1.9372  -1.9259  -1.9251  -1.8735  -1.8613  -1.8590  -1.8558  -1.8530
    -1.8254  -1.7987  -1.7952  -1.7726  -1.7692  -1.7191  -1.7123  -1.7004
    -1.6786  -1.6594  -1.6449  -1.6020  -1.5967  -1.5870  -1.5824  -1.5791
    -1.5742  -1.5713  -1.5631  -1.5547  -1.5111  -1.5003  -1.4973  -1.4944
    -1.4916  -1.4765  -1.4630  -1.4430  -1.4342  -1.4254  -1.4227  -1.4189
    -1.4140  -1.4057  -1.4003  -1.3845  -1.3794  -1.3741  -1.3433  -1.3355
    -1.3284  -1.3110  -1.2924  -1.2852  -1.2547  -1.2423  -1.2252  -1.2226
    -1.2023  -1.1883  -1.1437  -1.1405  -1.1368  -1.1319  -1.1304  -1.1225
    -1.1154  -1.1051  -1.0820  -1.0654  -1.0592  -1.0354  -1.0303  -1.0252
    -1.0220  -1.0192  -1.0058  -1.0012  -0.9998  -0.9967  -0.9886  -0.9604
    -0.9566  -0.9557  -0.9457  -0.9304  -0.9236  -0.9154  -0.8958  -0.8903
    -0.8752  -0.8447  -0.8385  -0.8240  -0.8005  -0.7919  -0.7841  -0.7817
    -0.7765  -0.7758  -0.7704  -0.7668  -0.7581  -0.7461  -0.7361  -0.7344
    -0.7295  -0.7270  -0.7224  -0.6910  -0.6901  -0.6827  -0.6733  -0.6612
    -0.6565  -0.6448  -0.6220  -0.5887  -0.5868  -0.5805  -0.5787  -0.5761
    -0.5719  -0.5663  -0.5516  -0.5486  -0.5438  -0.5418  -0.5395  -0.5300
    -0.5016  -0.4996  -0.4976  -0.4900  -0.4892  -0.4842  -0.4828  -0.4663
    -0.4638  -0.4620  -0.4433  -0.4240  -0.4190  -0.4142  -0.4087  -0.4063
    -0.3355  -0.3293  -0.3282  -0.3270  -0.3195  -0.3161  -0.2828  -0.2714
    -0.2701  -0.2401  -0.2377  -0.2092  -0.1178  -0.1093  -0.0126   0.4011
     0.4023   0.4055   0.4073   0.4662   0.4824   0.8528   0.8567   0.8933
     0.9008   1.0147   1.0930   1.1954   1.2127   1.4154   1.4433   2.0505
     2.0574   2.2064   2.2240   2.3420   2.3603   2.4511   2.4521   2.6056
     2.8403   2.8509   2.9697   3.1858   3.2006   3.2694   3.2763   3.3741
     3.3908   3.5654   3.6025   3.6472   3.8462   3.8494   3.9043   3.9184
     4.1651   4.1673   4.1851   4.4148   4.4504   4.4634   4.5027   4.8326
     4.8397   4.8674   4.9975   5.1725   5.1795   5.1880   5.2609   5.4823
     5.7817   5.9370   5.9522   5.9659   5.9745   6.0317   6.0390   6.1114
     6.1304   6.1573   6.1729   6.1978   6.2077   6.2171   6.2388   6.2621
     6.2772   6.4511   6.5764   6.6911   6.7449   6.8002   6.8991   6.9137
     6.9226   7.0249   7.0323

          k =-0.2500 0.1443 0.1111 (136898 PWs)   bands (ev):

   -19.3178  -7.2210  -6.5196  -5.7289  -5.4388  -5.3795  -5.3783  -4.8411
    -4.8404  -4.7108  -4.7082  -4.5547  -4.5277  -4.4606  -4.4325  -4.4286
    -4.3943  -4.3935  -4.2650  -4.2234  -4.2233  -4.1648  -4.1465  -4.1435
    -4.0406  -4.0400  -4.0050  -4.0040  -4.0032  -3.9781  -3.9561  -3.9549
    -3.8553  -3.8491  -3.8481  -3.8291  -3.8152  -3.8111  -3.8019  -3.7992
    -3.7877  -3.7618  -3.7558  -3.7544  -3.7537  -3.7303  -3.7241  -3.7059
    -3.7040  -3.6960  -3.6720  -3.6532  -3.6187  -3.6120  -3.6047  -3.5952
    -3.5949  -3.5395  -3.5212  -3.5111  -3.4890  -3.4854  -3.4553  -3.4153
    -3.4141  -3.4003  -3.3927  -3.3723  -3.3708  -3.3689  -3.3592  -3.2152
    -3.2113  -3.1919  -3.1893  -3.1843  -3.1685  -3.1671  -3.1441  -3.1394
    -3.0931  -3.0903  -3.0771  -3.0749  -3.0552  -3.0101  -3.0086  -2.9893
    -2.9835  -2.9823  -2.9430  -2.9419  -2.9343  -2.9323  -2.9192  -2.9179
    -2.8799  -2.8790  -2.8590  -2.8571  -2.8540  -2.8529  -2.8488  -2.7774
    -2.7747  -2.7711  -2.7432  -2.7410  -2.6860  -2.6808  -2.6534  -2.6520
    -2.6399  -2.6387  -2.6311  -2.6057  -2.6027  -2.5920  -2.5767  -2.5583
    -2.5522  -2.5494  -2.5316  -2.5295  -2.5210  -2.5177  -2.5168  -2.5151
    -2.5035  -2.4580  -2.4300  -2.4285  -2.4153  -2.4003  -2.3945  -2.3919
    -2.3855  -2.3827  -2.3806  -2.3573  -2.3525  -2.3520  -2.3423  -2.3408
    -2.3281  -2.3030  -2.2999  -2.2987  -2.2960  -2.2954  -2.2488  -2.2291
    -2.2198  -2.2177  -2.2128  -2.2020  -2.2002  -2.1928  -2.1721  -2.1720
    -2.1508  -2.1437  -2.1383  -2.1318  -2.1223  -2.1196  -2.0987  -2.0876
    -2.0557  -2.0483  -2.0401  -2.0383  -2.0352  -2.0335  -2.0289  -2.0275
    -2.0243  -2.0233  -2.0181  -2.0059  -2.0029  -1.9250  -1.8781  -1.8662
    -1.8426  -1.8374  -1.8308  -1.8277  -1.8244  -1.8132  -1.8118  -1.8078
    -1.8052  -1.7929  -1.7826  -1.7802  -1.7768  -1.7649  -1.7623  -1.7447
    -1.7407  -1.7179  -1.7119  -1.6995  -1.6825  -1.6708  -1.6652  -1.6459
    -1.6422  -1.6400  -1.6249  -1.6199  -1.6089  -1.6053  -1.6017  -1.5912
    -1.5763  -1.5703  -1.5603  -1.5466  -1.5257  -1.5218  -1.4817  -1.4679
    -1.4621  -1.4528  -1.4492  -1.4250  -1.4236  -1.4131  -1.3927  -1.3900
    -1.3790  -1.3510  -1.3484  -1.3350  -1.3282  -1.3242  -1.3048  -1.3024
    -1.2744  -1.2700  -1.2680  -1.2419  -1.2078  -1.2036  -1.1962  -1.1915
    -1.1782  -1.1725  -1.1638  -1.1539  -1.1451  -1.1322  -1.1058  -1.1041
    -1.0905  -1.0592  -1.0570  -1.0453  -1.0436  -1.0417  -1.0387  -1.0365
    -1.0281  -1.0196  -0.9945  -0.9926  -0.9817  -0.9783  -0.9750  -0.9595
    -0.9507  -0.9382  -0.9226  -0.9141  -0.8913  -0.8219  -0.8102  -0.8046
    -0.8037  -0.7957  -0.7928  -0.7869  -0.7716  -0.7585  -0.7550  -0.7465
    -0.7387  -0.7321  -0.7286  -0.7109  -0.7075  -0.6991  -0.6767  -0.6244
    -0.6223  -0.5929  -0.5863  -0.5841  -0.5798  -0.5769  -0.5758  -0.5716
    -0.5638  -0.5599  -0.5211  -0.5200  -0.5076  -0.4893  -0.4869  -0.4777
    -0.4751  -0.4664  -0.4644  -0.4630  -0.4608  -0.4533  -0.4449  -0.4396
    -0.4342  -0.4100  -0.4072  -0.4043  -0.3943  -0.3911  -0.3746  -0.3437
    -0.3429  -0.3341  -0.3323  -0.2663  -0.2634  -0.2310  -0.2307  -0.1735
    -0.1725  -0.1704  -0.1479  -0.1423   0.0803   0.1096   0.4303   0.4309
     0.5175   0.5409   0.7165   0.7411   0.7610   0.8745   0.8858   1.3108
     1.3113   1.3289   1.5898   1.6201   1.6235   1.8905   1.9133   1.9733
     1.9773   1.9971   2.0203   2.2292   2.2344   2.3214   2.3232   2.3925
     2.4544   2.4816   2.6262   2.7260   3.1551   3.1622   3.1649   3.1768
     3.2163   3.2286   3.5134   3.5163   3.7864   3.8063   3.8998   4.2118
     4.2436   4.2568   4.4472   4.4918   4.5494   4.5526   4.6446   4.7620
     4.7660   4.8760   4.8845   5.1788   5.2432   5.2524   5.3202   5.4288
     5.4569   5.6365   5.6428   5.6673   5.6705   5.7206   5.7288   5.7788
     5.8784   6.0583   6.2661   6.3352   6.3456   6.4639   6.4707   6.4776
     6.4931   6.5486   6.6717   6.7135   6.7337   6.8381   6.9110   6.9348
     6.9854   7.0482   7.0730

          k =-0.2500-0.1443-0.1111 (136898 PWs)   bands (ev):

   -19.3178  -7.2210  -6.5195  -5.7289  -5.4388  -5.3795  -5.3784  -4.8411
    -4.8403  -4.7106  -4.7084  -4.5547  -4.5278  -4.4606  -4.4327  -4.4284
    -4.3943  -4.3934  -4.2651  -4.2234  -4.2231  -4.1644  -4.1469  -4.1436
    -4.0404  -4.0399  -4.0051  -4.0040  -4.0033  -3.9784  -3.9562  -3.9549
    -3.8573  -3.8491  -3.8479  -3.8293  -3.8143  -3.8112  -3.8010  -3.7989
    -3.7881  -3.7622  -3.7558  -3.7543  -3.7537  -3.7298  -3.7240  -3.7061
    -3.7039  -3.6957  -3.6712  -3.6528  -3.6197  -3.6086  -3.6040  -3.5956
    -3.5947  -3.5408  -3.5211  -3.5134  -3.4891  -3.4848  -3.4584  -3.4155
    -3.4136  -3.4006  -3.3932  -3.3718  -3.3707  -3.3693  -3.3556  -3.2143
    -3.2128  -3.1935  -3.1903  -3.1827  -3.1682  -3.1674  -3.1439  -3.1393
    -3.0931  -3.0907  -3.0767  -3.0752  -3.0554  -3.0105  -3.0082  -2.9893
    -2.9832  -2.9826  -2.9426  -2.9421  -2.9343  -2.9325  -2.9205  -2.9161
    -2.8801  -2.8783  -2.8602  -2.8575  -2.8537  -2.8523  -2.8486  -2.7754
    -2.7747  -2.7716  -2.7435  -2.7407  -2.6868  -2.6824  -2.6526  -2.6515
    -2.6405  -2.6384  -2.6311  -2.6047  -2.6039  -2.5921  -2.5771  -2.5569
    -2.5518  -2.5488  -2.5310  -2.5294  -2.5210  -2.5194  -2.5166  -2.5145
    -2.5035  -2.4579  -2.4310  -2.4282  -2.4135  -2.3999  -2.3936  -2.3931
    -2.3856  -2.3830  -2.3807  -2.3592  -2.3532  -2.3526  -2.3426  -2.3405
    -2.3273  -2.3018  -2.3010  -2.2981  -2.2964  -2.2947  -2.2490  -2.2291
    -2.2199  -2.2180  -2.2143  -2.2069  -2.2005  -2.1926  -2.1728  -2.1715
    -2.1514  -2.1397  -2.1387  -2.1368  -2.1213  -2.1193  -2.0937  -2.0875
    -2.0590  -2.0503  -2.0400  -2.0381  -2.0356  -2.0332  -2.0298  -2.0273
    -2.0247  -2.0231  -2.0191  -2.0073  -2.0008  -1.9326  -1.8770  -1.8616
    -1.8412  -1.8367  -1.8314  -1.8270  -1.8231  -1.8141  -1.8098  -1.8079
    -1.8058  -1.7963  -1.7828  -1.7801  -1.7775  -1.7640  -1.7616  -1.7461
    -1.7417  -1.7183  -1.7118  -1.6877  -1.6832  -1.6696  -1.6638  -1.6458
    -1.6426  -1.6394  -1.6256  -1.6235  -1.6090  -1.6056  -1.6010  -1.5862
    -1.5760  -1.5718  -1.5613  -1.5455  -1.5265  -1.5193  -1.4853  -1.4677
    -1.4636  -1.4518  -1.4502  -1.4272  -1.4246  -1.4139  -1.3923  -1.3893
    -1.3803  -1.3559  -1.3465  -1.3304  -1.3282  -1.3237  -1.3064  -1.3024
    -1.2752  -1.2713  -1.2684  -1.2410  -1.2060  -1.2042  -1.1943  -1.1856
    -1.1788  -1.1687  -1.1630  -1.1611  -1.1447  -1.1323  -1.1049  -1.1035
    -1.0911  -1.0613  -1.0545  -1.0482  -1.0430  -1.0419  -1.0389  -1.0369
    -1.0218  -1.0195  -0.9956  -0.9942  -0.9817  -0.9782  -0.9737  -0.9631
    -0.9561  -0.9351  -0.9241  -0.9125  -0.8813  -0.8249  -0.8100  -0.8046
    -0.8033  -0.7970  -0.7915  -0.7845  -0.7715  -0.7604  -0.7535  -0.7436
    -0.7385  -0.7323  -0.7292  -0.7117  -0.7056  -0.6988  -0.6823  -0.6250
    -0.6245  -0.5898  -0.5862  -0.5851  -0.5800  -0.5785  -0.5758  -0.5727
    -0.5626  -0.5584  -0.5261  -0.5208  -0.5021  -0.4894  -0.4866  -0.4771
    -0.4743  -0.4659  -0.4642  -0.4623  -0.4613  -0.4554  -0.4446  -0.4392
    -0.4350  -0.4098  -0.4086  -0.4047  -0.3946  -0.3931  -0.3747  -0.3436
    -0.3425  -0.3335  -0.3307  -0.2680  -0.2639  -0.2310  -0.2305  -0.1738
    -0.1724  -0.1704  -0.1478  -0.1424   0.0867   0.1011   0.4303   0.4306
     0.5239   0.5352   0.7117   0.7418   0.7630   0.8753   0.8846   1.3110
     1.3121   1.3269   1.5924   1.6203   1.6250   1.8978   1.9021   1.9746
     1.9756   2.0030   2.0156   2.2298   2.2358   2.3217   2.3225   2.3943
     2.4612   2.4721   2.6263   2.7299   3.1527   3.1615   3.1666   3.1731
     3.2188   3.2286   3.5132   3.5172   3.7951   3.8010   3.8999   4.2104
     4.2490   4.2527   4.4513   4.4835   4.5454   4.5570   4.6476   4.7537
     4.7691   4.8797   4.8817   5.1803   5.2314   5.2604   5.3202   5.4340
     5.4565   5.6346   5.6407   5.6688   5.6711   5.7280   5.7323   5.7666
     5.8747   6.0465   6.2718   6.3215   6.3698   6.4689   6.4726   6.4849
     6.4892   6.5459   6.6633   6.7170   6.7250   6.8218   6.9261   6.9420
     6.9798   7.0434   7.0790

          k = 0.2500 0.1443-0.1111 (136898 PWs)   bands (ev):

   -19.3178  -7.2210  -6.5195  -5.7289  -5.4388  -5.3795  -5.3784  -4.8411
    -4.8403  -4.7106  -4.7084  -4.5547  -4.5278  -4.4606  -4.4327  -4.4284
    -4.3943  -4.3934  -4.2651  -4.2234  -4.2231  -4.1644  -4.1469  -4.1436
    -4.0404  -4.0399  -4.0051  -4.0040  -4.0033  -3.9784  -3.9562  -3.9549
    -3.8573  -3.8491  -3.8479  -3.8293  -3.8143  -3.8112  -3.8010  -3.7989
    -3.7881  -3.7622  -3.7558  -3.7543  -3.7537  -3.7298  -3.7240  -3.7061
    -3.7039  -3.6957  -3.6712  -3.6528  -3.6197  -3.6086  -3.6040  -3.5956
    -3.5947  -3.5408  -3.5211  -3.5134  -3.4891  -3.4848  -3.4584  -3.4155
    -3.4136  -3.4006  -3.3932  -3.3718  -3.3707  -3.3693  -3.3556  -3.2144
    -3.2128  -3.1935  -3.1903  -3.1827  -3.1682  -3.1674  -3.1439  -3.1393
    -3.0931  -3.0907  -3.0767  -3.0752  -3.0554  -3.0105  -3.0082  -2.9893
    -2.9832  -2.9826  -2.9426  -2.9421  -2.9343  -2.9325  -2.9205  -2.9161
    -2.8801  -2.8783  -2.8602  -2.8575  -2.8537  -2.8523  -2.8486  -2.7754
    -2.7747  -2.7716  -2.7435  -2.7407  -2.6868  -2.6824  -2.6526  -2.6515
    -2.6405  -2.6384  -2.6312  -2.6047  -2.6039  -2.5921  -2.5771  -2.5569
    -2.5518  -2.5488  -2.5310  -2.5294  -2.5210  -2.5194  -2.5166  -2.5145
    -2.5035  -2.4579  -2.4310  -2.4282  -2.4134  -2.3999  -2.3936  -2.3931
    -2.3856  -2.3830  -2.3807  -2.3592  -2.3532  -2.3526  -2.3426  -2.3405
    -2.3273  -2.3018  -2.3010  -2.2981  -2.2964  -2.2947  -2.2490  -2.2291
    -2.2199  -2.2180  -2.2143  -2.2069  -2.2005  -2.1926  -2.1728  -2.1715
    -2.1514  -2.1397  -2.1387  -2.1368  -2.1213  -2.1193  -2.0937  -2.0875
    -2.0590  -2.0503  -2.0400  -2.0381  -2.0356  -2.0332  -2.0298  -2.0273
    -2.0247  -2.0231  -2.0191  -2.0073  -2.0008  -1.9326  -1.8770  -1.8616
    -1.8412  -1.8367  -1.8314  -1.8270  -1.8231  -1.8141  -1.8098  -1.8079
    -1.8058  -1.7963  -1.7828  -1.7801  -1.7775  -1.7640  -1.7616  -1.7461
    -1.7417  -1.7183  -1.7118  -1.6877  -1.6832  -1.6696  -1.6638  -1.6458
    -1.6426  -1.6394  -1.6256  -1.6235  -1.6090  -1.6056  -1.6010  -1.5862
    -1.5760  -1.5718  -1.5613  -1.5455  -1.5265  -1.5193  -1.4853  -1.4677
    -1.4636  -1.4518  -1.4502  -1.4272  -1.4246  -1.4139  -1.3923  -1.3893
    -1.3803  -1.3559  -1.3465  -1.3304  -1.3282  -1.3237  -1.3064  -1.3024
    -1.2752  -1.2713  -1.2684  -1.2410  -1.2060  -1.2042  -1.1943  -1.1856
    -1.1788  -1.1687  -1.1630  -1.1611  -1.1447  -1.1323  -1.1049  -1.1035
    -1.0911  -1.0613  -1.0545  -1.0482  -1.0430  -1.0419  -1.0389  -1.0369
    -1.0218  -1.0195  -0.9956  -0.9942  -0.9817  -0.9782  -0.9737  -0.9631
    -0.9561  -0.9351  -0.9241  -0.9125  -0.8813  -0.8249  -0.8099  -0.8045
    -0.8033  -0.7970  -0.7915  -0.7845  -0.7715  -0.7604  -0.7535  -0.7436
    -0.7385  -0.7323  -0.7292  -0.7117  -0.7056  -0.6988  -0.6823  -0.6250
    -0.6245  -0.5898  -0.5862  -0.5851  -0.5800  -0.5785  -0.5758  -0.5727
    -0.5626  -0.5584  -0.5261  -0.5208  -0.5021  -0.4894  -0.4866  -0.4771
    -0.4743  -0.4659  -0.4642  -0.4623  -0.4613  -0.4554  -0.4446  -0.4392
    -0.4350  -0.4098  -0.4086  -0.4047  -0.3946  -0.3931  -0.3747  -0.3436
    -0.3425  -0.3335  -0.3307  -0.2680  -0.2639  -0.2310  -0.2305  -0.1738
    -0.1724  -0.1704  -0.1478  -0.1424   0.0867   0.1011   0.4303   0.4306
     0.5239   0.5352   0.7117   0.7418   0.7630   0.8753   0.8846   1.3110
     1.3121   1.3269   1.5924   1.6203   1.6250   1.8978   1.9021   1.9746
     1.9756   2.0030   2.0156   2.2298   2.2358   2.3217   2.3225   2.3943
     2.4612   2.4721   2.6263   2.7300   3.1527   3.1615   3.1666   3.1731
     3.2188   3.2286   3.5132   3.5172   3.7951   3.8010   3.8999   4.2104
     4.2490   4.2527   4.4513   4.4836   4.5454   4.5570   4.6476   4.7537
     4.7691   4.8797   4.8817   5.1803   5.2314   5.2604   5.3201   5.4340
     5.4566   5.6346   5.6407   5.6688   5.6711   5.7280   5.7323   5.7669
     5.8733   6.0481   6.2724   6.3213   6.3695   6.4690   6.4726   6.4844
     6.4890   6.5437   6.6635   6.7158   6.7242   6.8220   6.9265   6.9415
     6.9802   7.0473   7.0837

          k = 0.0000-0.2887 0.1111 (136898 PWs)   bands (ev):

   -19.3178  -7.2210  -6.5196  -5.7291  -5.4388  -5.3793  -5.3781  -4.8408
    -4.8402  -4.7121  -4.7088  -4.5547  -4.5277  -4.4615  -4.4304  -4.4280
    -4.3940  -4.3928  -4.2651  -4.2238  -4.2229  -4.1665  -4.1447  -4.1437
    -4.0402  -4.0399  -4.0053  -4.0039  -4.0032  -3.9791  -3.9554  -3.9550
    -3.8618  -3.8493  -3.8478  -3.8333  -3.8128  -3.8111  -3.7997  -3.7990
    -3.7925  -3.7568  -3.7556  -3.7545  -3.7539  -3.7250  -3.7243  -3.7111
    -3.7040  -3.7013  -3.6539  -3.6527  -3.6305  -3.6055  -3.6034  -3.5950
    -3.5947  -3.5316  -3.5213  -3.5156  -3.4870  -3.4848  -3.4648  -3.4155
    -3.4143  -3.4002  -3.3912  -3.3719  -3.3710  -3.3694  -3.3594  -3.2149
    -3.2128  -3.1929  -3.1889  -3.1826  -3.1686  -3.1673  -3.1442  -3.1432
    -3.0931  -3.0921  -3.0764  -3.0754  -3.0552  -3.0097  -3.0081  -2.9887
    -2.9835  -2.9820  -2.9441  -2.9421  -2.9340  -2.9331  -2.9187  -2.9159
    -2.8796  -2.8788  -2.8593  -2.8577  -2.8539  -2.8534  -2.8484  -2.7779
    -2.7752  -2.7712  -2.7428  -2.7418  -2.6835  -2.6810  -2.6546  -2.6517
    -2.6394  -2.6382  -2.6312  -2.6046  -2.6033  -2.5921  -2.5778  -2.5585
    -2.5526  -2.5508  -2.5316  -2.5296  -2.5206  -2.5184  -2.5158  -2.5126
    -2.5035  -2.4579  -2.4297  -2.4279  -2.4114  -2.3991  -2.3962  -2.3924
    -2.3850  -2.3838  -2.3808  -2.3574  -2.3529  -2.3520  -2.3433  -2.3409
    -2.3278  -2.3062  -2.3005  -2.2996  -2.2957  -2.2950  -2.2490  -2.2257
    -2.2197  -2.2181  -2.2128  -2.2044  -2.2005  -2.1933  -2.1722  -2.1716
    -2.1481  -2.1435  -2.1384  -2.1307  -2.1214  -2.1197  -2.0982  -2.0878
    -2.0564  -2.0468  -2.0400  -2.0373  -2.0352  -2.0345  -2.0291  -2.0278
    -2.0245  -2.0221  -2.0203  -2.0093  -2.0031  -1.9257  -1.8776  -1.8707
    -1.8397  -1.8372  -1.8295  -1.8273  -1.8224  -1.8139  -1.8107  -1.8086
    -1.8042  -1.7922  -1.7828  -1.7799  -1.7764  -1.7674  -1.7615  -1.7441
    -1.7410  -1.7177  -1.7123  -1.6993  -1.6831  -1.6719  -1.6661  -1.6495
    -1.6434  -1.6396  -1.6254  -1.6200  -1.6086  -1.6045  -1.6016  -1.5913
    -1.5761  -1.5702  -1.5599  -1.5440  -1.5267  -1.5223  -1.4849  -1.4669
    -1.4627  -1.4522  -1.4489  -1.4248  -1.4226  -1.4058  -1.3922  -1.3893
    -1.3845  -1.3507  -1.3477  -1.3322  -1.3284  -1.3195  -1.3054  -1.3022
    -1.2746  -1.2699  -1.2686  -1.2458  -1.2067  -1.2047  -1.1963  -1.1934
    -1.1775  -1.1737  -1.1641  -1.1584  -1.1455  -1.1320  -1.1041  -1.1022
    -1.0912  -1.0608  -1.0565  -1.0469  -1.0425  -1.0417  -1.0376  -1.0373
    -1.0223  -1.0195  -0.9958  -0.9929  -0.9821  -0.9790  -0.9761  -0.9601
    -0.9508  -0.9391  -0.9185  -0.9149  -0.8895  -0.8217  -0.8099  -0.8043
    -0.8038  -0.7979  -0.7924  -0.7861  -0.7717  -0.7581  -0.7553  -0.7440
    -0.7391  -0.7342  -0.7270  -0.7108  -0.7077  -0.6986  -0.6788  -0.6248
    -0.6228  -0.5932  -0.5866  -0.5845  -0.5802  -0.5768  -0.5763  -0.5731
    -0.5629  -0.5594  -0.5221  -0.5207  -0.5032  -0.4896  -0.4878  -0.4780
    -0.4751  -0.4664  -0.4647  -0.4634  -0.4614  -0.4515  -0.4445  -0.4397
    -0.4356  -0.4098  -0.4061  -0.4038  -0.3941  -0.3922  -0.3745  -0.3439
    -0.3419  -0.3344  -0.3305  -0.2673  -0.2641  -0.2317  -0.2300  -0.1745
    -0.1712  -0.1707  -0.1481  -0.1438   0.0797   0.1123   0.4304   0.4310
     0.5174   0.5414   0.7142   0.7415   0.7621   0.8748   0.8857   1.3105
     1.3113   1.3298   1.5906   1.6199   1.6235   1.8910   1.9121   1.9724
     1.9767   1.9983   2.0198   2.2276   2.2350   2.3217   2.3230   2.3937
     2.4547   2.4793   2.6275   2.7268   3.1549   3.1619   3.1650   3.1761
     3.2152   3.2300   3.5131   3.5168   3.7883   3.8051   3.8978   4.2120
     4.2438   4.2552   4.4639   4.4772   4.5478   4.5532   4.6454   4.7612
     4.7673   4.8781   4.8848   5.1790   5.2447   5.2547   5.3311   5.4084
     5.4579   5.6364   5.6413   5.6656   5.6720   5.7239   5.7305   5.7691
     5.8876   6.0669   6.2726   6.3170   6.3436   6.4586   6.4730   6.4815
     6.4937   6.5408   6.6685   6.7230   6.7323   6.8412   6.8926   6.9505
     6.9800   7.0527   7.0687

          k = 0.0000 0.2887 0.1111 (136898 PWs)   bands (ev):

   -19.3178  -7.2210  -6.5196  -5.7291  -5.4388  -5.3793  -5.3781  -4.8408
    -4.8402  -4.7121  -4.7088  -4.5547  -4.5277  -4.4615  -4.4304  -4.4280
    -4.3940  -4.3928  -4.2651  -4.2238  -4.2229  -4.1665  -4.1447  -4.1437
    -4.0402  -4.0399  -4.0053  -4.0039  -4.0032  -3.9791  -3.9554  -3.9550
    -3.8618  -3.8493  -3.8478  -3.8333  -3.8128  -3.8111  -3.7997  -3.7990
    -3.7925  -3.7568  -3.7556  -3.7545  -3.7538  -3.7250  -3.7243  -3.7111
    -3.7040  -3.7013  -3.6539  -3.6527  -3.6305  -3.6055  -3.6034  -3.5950
    -3.5947  -3.5316  -3.5213  -3.5156  -3.4870  -3.4848  -3.4648  -3.4155
    -3.4143  -3.4002  -3.3912  -3.3719  -3.3710  -3.3694  -3.3594  -3.2149
    -3.2128  -3.1929  -3.1889  -3.1826  -3.1686  -3.1673  -3.1442  -3.1432
    -3.0931  -3.0921  -3.0764  -3.0754  -3.0551  -3.0097  -3.0081  -2.9887
    -2.9835  -2.9820  -2.9441  -2.9421  -2.9340  -2.9331  -2.9187  -2.9159
    -2.8796  -2.8789  -2.8593  -2.8577  -2.8539  -2.8534  -2.8484  -2.7779
    -2.7752  -2.7712  -2.7428  -2.7418  -2.6835  -2.6810  -2.6546  -2.6517
    -2.6394  -2.6382  -2.6312  -2.6046  -2.6033  -2.5921  -2.5778  -2.5585
    -2.5526  -2.5508  -2.5316  -2.5296  -2.5206  -2.5184  -2.5158  -2.5126
    -2.5035  -2.4579  -2.4297  -2.4279  -2.4114  -2.3991  -2.3962  -2.3924
    -2.3850  -2.3838  -2.3808  -2.3574  -2.3529  -2.3520  -2.3433  -2.3409
    -2.3278  -2.3061  -2.3004  -2.2996  -2.2957  -2.2950  -2.2490  -2.2257
    -2.2197  -2.2181  -2.2128  -2.2044  -2.2005  -2.1933  -2.1722  -2.1716
    -2.1481  -2.1435  -2.1384  -2.1307  -2.1214  -2.1197  -2.0982  -2.0879
    -2.0564  -2.0468  -2.0400  -2.0373  -2.0352  -2.0345  -2.0291  -2.0278
    -2.0245  -2.0220  -2.0203  -2.0093  -2.0031  -1.9257  -1.8776  -1.8707
    -1.8397  -1.8372  -1.8295  -1.8273  -1.8224  -1.8139  -1.8107  -1.8086
    -1.8042  -1.7922  -1.7828  -1.7799  -1.7764  -1.7674  -1.7615  -1.7441
    -1.7410  -1.7177  -1.7123  -1.6993  -1.6831  -1.6719  -1.6661  -1.6495
    -1.6434  -1.6396  -1.6254  -1.6200  -1.6086  -1.6045  -1.6016  -1.5913
    -1.5761  -1.5702  -1.5599  -1.5440  -1.5267  -1.5223  -1.4849  -1.4669
    -1.4627  -1.4522  -1.4489  -1.4248  -1.4226  -1.4058  -1.3922  -1.3893
    -1.3845  -1.3507  -1.3477  -1.3322  -1.3284  -1.3195  -1.3054  -1.3023
    -1.2746  -1.2699  -1.2686  -1.2458  -1.2067  -1.2047  -1.1963  -1.1934
    -1.1775  -1.1737  -1.1641  -1.1584  -1.1455  -1.1320  -1.1041  -1.1022
    -1.0912  -1.0608  -1.0565  -1.0469  -1.0425  -1.0417  -1.0376  -1.0373
    -1.0223  -1.0195  -0.9958  -0.9929  -0.9821  -0.9790  -0.9761  -0.9601
    -0.9508  -0.9391  -0.9185  -0.9149  -0.8895  -0.8217  -0.8099  -0.8043
    -0.8038  -0.7979  -0.7924  -0.7861  -0.7717  -0.7581  -0.7553  -0.7440
    -0.7391  -0.7342  -0.7270  -0.7108  -0.7077  -0.6986  -0.6788  -0.6248
    -0.6228  -0.5932  -0.5866  -0.5845  -0.5802  -0.5768  -0.5763  -0.5731
    -0.5629  -0.5594  -0.5221  -0.5207  -0.5032  -0.4896  -0.4878  -0.4780
    -0.4751  -0.4664  -0.4647  -0.4634  -0.4614  -0.4515  -0.4445  -0.4397
    -0.4356  -0.4098  -0.4061  -0.4038  -0.3941  -0.3922  -0.3745  -0.3439
    -0.3419  -0.3344  -0.3305  -0.2673  -0.2641  -0.2317  -0.2300  -0.1745
    -0.1712  -0.1707  -0.1481  -0.1438   0.0797   0.1123   0.4304   0.4310
     0.5174   0.5414   0.7142   0.7415   0.7621   0.8748   0.8857   1.3105
     1.3113   1.3298   1.5906   1.6199   1.6235   1.8910   1.9121   1.9724
     1.9767   1.9983   2.0198   2.2276   2.2350   2.3217   2.3230   2.3937
     2.4547   2.4793   2.6275   2.7268   3.1549   3.1619   3.1650   3.1761
     3.2152   3.2300   3.5131   3.5168   3.7883   3.8051   3.8978   4.2120
     4.2438   4.2552   4.4640   4.4772   4.5478   4.5532   4.6454   4.7612
     4.7673   4.8781   4.8848   5.1790   5.2447   5.2547   5.3312   5.4084
     5.4578   5.6364   5.6413   5.6656   5.6719   5.7239   5.7306   5.7686
     5.8897   6.0647   6.2715   6.3169   6.3427   6.4582   6.4729   6.4813
     6.4940   6.5474   6.6667   6.7231   6.7322   6.8367   6.8927   6.9505
     6.9801   7.0571   7.0783

     the Fermi energy is     1.4572 ev

!    total energy              =   -6604.41967371 Ry
     Harris-Foulkes estimate   =   -6604.41967371 Ry
     estimated scf accuracy    <          2.2E-09 Ry

     The total energy is the sum of the following terms:

     one-electron contribution =  -48848.87474849 Ry
     hartree contribution      =   24925.94570394 Ry
     xc contribution           =   -3205.01775727 Ry
     ewald contribution        =   20523.52432591 Ry
     smearing contrib. (-TS)   =       0.00280220 Ry

     convergence has been achieved in  22 iterations

     Writing output data file 4513313.save

     init_run     :    205.60s CPU    214.01s WALL (       1 calls)
     electrons    :  11244.24s CPU  11670.46s WALL (       1 calls)

     Called by init_run:
     wfcinit      :    164.49s CPU    172.20s WALL (       1 calls)
     potinit      :     18.39s CPU     18.80s WALL (       1 calls)

     Called by electrons:
     c_bands      :   9799.21s CPU  10143.25s WALL (      23 calls)
     sum_band     :   1090.05s CPU   1157.25s WALL (      23 calls)
     v_of_rho     :    160.66s CPU    169.63s WALL (      23 calls)
     newd         :    205.89s CPU    208.49s WALL (      23 calls)
     mix_rho      :      3.60s CPU      3.88s WALL (      23 calls)
     vdW_energy   :      6.14s CPU      6.70s WALL (      23 calls)
     vdW_ffts     :     96.59s CPU    101.02s WALL (      46 calls)
     vdW_v        :     19.38s CPU     20.11s WALL (      23 calls)

     Called by c_bands:
     init_us_2    :     12.54s CPU     12.89s WALL (     564 calls)
     cegterg      :   9624.47s CPU   9967.01s WALL (     276 calls)

     Called by *egterg:
     h_psi        :   3734.66s CPU   4043.11s WALL (    1494 calls)
     s_psi        :    644.34s CPU    646.93s WALL (    1494 calls)
     g_psi        :      7.38s CPU      7.41s WALL (    1206 calls)
     cdiaghg      :   2644.56s CPU   2650.91s WALL (    1470 calls)

     Called by h_psi:
     add_vuspsi   :    645.12s CPU    647.64s WALL (    1494 calls)

     General routines
     calbec       :   1145.87s CPU   1148.90s WALL (    1770 calls)
     fft          :    197.38s CPU    206.01s WALL (    1518 calls)
     ffts         :      4.37s CPU      4.58s WALL (      46 calls)
     fftw         :   2537.42s CPU   2882.74s WALL (  680292 calls)
     interpolate  :      9.25s CPU      9.76s WALL (      46 calls)
     davcio       :      0.01s CPU      0.20s WALL (      12 calls)

     Parallel routines
     fft_scatter  :   1659.05s CPU   1908.72s WALL (  681856 calls)

     PWSCF        :     3h10m CPU        3h18m WALL


   This run was terminated on:  10:49: 6   1Jul2015            

=------------------------------------------------------------------------------=
   JOB DONE.
=------------------------------------------------------------------------------=
