
     Program PWSCF v.5.1.2 starts on 23Aug2015 at 23: 8: 4 

     This program is part of the open-source Quantum ESPRESSO suite
     for quantum simulation of materials; please cite
         "P. Giannozzi et al., J. Phys.:Condens. Matter 21 395502 (2009);
          URL http://www.quantum-espresso.org", 
     in publications or presentations arising from this work. More details at
     http://www.quantum-espresso.org/quote

     Parallel version (MPI), running on    32 processors
     R & G space division:  proc/nbgrp/npool/nimage =      32
     Reading input from bridge.H2.Au5455.d.2.4.phi.0.psi.0.in
Warning: card &IONS ignored
Warning: card / ignored
Warning: card &CELL ignored
Warning: card / ignored

     Current dimensions of program PWSCF are:
     Max number of different atomic species (ntypx) = 10
     Max number of k-points (npk) =  40000
     Max angular momentum in pseudopotentials (lmaxx) =  3

     IMPORTANT: XC functional enforced from input :
     Exchange-correlation      = VDW-DF ( 1  4  4  0 1 0)
     Any further DFT definition will be discarded
     Please, verify this is what you really want


     Subspace diagonalization in iterative solution of the eigenvalue problem:
     a serial algorithm will be used


     Parallelization info
     --------------------
     sticks:   dense  smooth     PW     G-vecs:    dense   smooth      PW
     Min         445     223     58                96775    34191    4534
     Max         446     224     59                96790    34246    4540
     Sum       14269    7147   1867              3097177  1095093  145167


     Title: 
     bridge.H2.Au5455.d.2.4.phi.0.psi.0                                         


     bravais-lattice index     =            4
     lattice parameter (alat)  =      22.7436  a.u.
     unit-cell volume          =   22924.1508 (a.u.)^3
     number of atoms/cell      =           67
     number of atomic types    =            3
     number of electrons       =       712.00
     number of Kohn-Sham states=          427
     kinetic-energy cutoff     =      50.0000  Ry
     charge density cutoff     =     400.0000  Ry
     convergence threshold     =      1.0E-08
     mixing beta               =       0.7000
     number of iterations used =            8  plain     mixing
     Exchange-correlation      = VDW-DF ( 1  4  4  0 1 0)

     celldm(1)=  22.743643  celldm(2)=   0.000000  celldm(3)=   2.250000
     celldm(4)=   0.000000  celldm(5)=   0.000000  celldm(6)=   0.000000

     crystal axes: (cart. coord. in units of alat)
               a(1) = (   1.000000   0.000000   0.000000 )  
               a(2) = (  -0.500000   0.866025   0.000000 )  
               a(3) = (   0.000000   0.000000   2.250000 )  

     reciprocal axes: (cart. coord. in units 2 pi/alat)
               b(1) = (  1.000000  0.577350 -0.000000 )  
               b(2) = (  0.000000  1.154701  0.000000 )  
               b(3) = (  0.000000 -0.000000  0.444444 )  


     PseudoPot. # 1 for Au read from file:
     /home/scc/andrejb/qe/pseudo/Au.pbe-nd-van.UPF
     MD5 check sum: 458681b50f36d87ef23c61b04bba420a
     Pseudo is Ultrasoft + core correction, Zval = 11.0
     Generated by new atomic code, or converted to UPF format
     Using radial grid of  985 points,  3 beta functions with: 
                l(1) =   1
                l(2) =   2
                l(3) =   2
     Q(r) pseudized with  8 coefficients,  rinner =    1.100   1.100   1.100
                                                       1.100   1.100

     PseudoPot. # 2 for H  read from file:
     /home/scc/andrejb/qe/pseudo/H.pbe-van_ak.UPF
     MD5 check sum: 403db7282739603aa925980fa9b8608d
     Pseudo is Ultrasoft, Zval =  1.0
     Generated by new atomic code, or converted to UPF format
     Using radial grid of  615 points,  1 beta functions with: 
                l(1) =   0
     Q(r) pseudized with  8 coefficients,  rinner =    0.800

     PseudoPot. # 3 for O  read from file:
     /home/scc/andrejb/qe/pseudo/O.pbe-van_ak.UPF
     MD5 check sum: 4b8c549914a63cae506c6ff22b5af4fe
     Pseudo is Ultrasoft, Zval =  6.0
     Generated by new atomic code, or converted to UPF format
     Using radial grid of  737 points,  4 beta functions with: 
                l(1) =   0
                l(2) =   0
                l(3) =   1
                l(4) =   1
     Q(r) pseudized with  8 coefficients,  rinner =    0.800   0.800   0.800


     vdW kernel table read from file vdW_kernel_table
     MD5 check sum: 48e77a2e26edf626eeb0eaa751ad5cac

     atomic species   valence    mass     pseudopotential
        Au            11.00   196.96657     Au( 1.00)
        H              1.00     1.01000     H ( 1.00)
        O              6.00    16.00000     O ( 1.00)

     No symmetry found



   Cartesian axes

     site n.     atom                  positions (alat units)
         1           O   tau(   1) = (   0.3100235   0.3039441   0.8897044  )
         2           H   tau(   2) = (   0.2915728   0.2885783   0.8124295  )
         3           H   tau(   3) = (   0.2571742   0.2599499   0.9323331  )
         4           Au  tau(   4) = (   0.3540481   0.6132292   0.0000000  )
         5           Au  tau(   5) = (   0.4790062   0.3967954   0.0000000  )
         6           Au  tau(   6) = (   0.6039644   0.1803616   0.0000000  )
         7           Au  tau(   7) = (   0.7289225  -0.0360723   0.0000000  )
         8           Au  tau(   8) = (   0.1041318   0.6132292   0.0000000  )
         9           Au  tau(   9) = (   0.2290899   0.3967954   0.0000000  )
        10           Au  tau(  10) = (   0.3540481   0.1803616   0.0000000  )
        11           Au  tau(  11) = (   0.4790062  -0.0360723   0.0000000  )
        12           Au  tau(  12) = (  -0.1457845   0.6132292   0.0000000  )
        13           Au  tau(  13) = (  -0.0208264   0.3967954   0.0000000  )
        14           Au  tau(  14) = (   0.1041318   0.1803616   0.0000000  )
        15           Au  tau(  15) = (   0.2290899  -0.0360723   0.0000000  )
        16           Au  tau(  16) = (  -0.3957008   0.6132292   0.0000000  )
        17           Au  tau(  17) = (  -0.2707426   0.3967954   0.0000000  )
        18           Au  tau(  18) = (  -0.1457845   0.1803616   0.0000000  )
        19           Au  tau(  19) = (  -0.0208264  -0.0360723   0.0000000  )
        20           Au  tau(  20) = (   0.4790062   0.6853738   0.2040557  )
        21           Au  tau(  21) = (   0.6039644   0.4689400   0.2040557  )
        22           Au  tau(  22) = (   0.7289225   0.2525061   0.2040557  )
        23           Au  tau(  23) = (   0.8538806   0.0360723   0.2040557  )
        24           Au  tau(  24) = (   0.2290899   0.6853738   0.2040557  )
        25           Au  tau(  25) = (   0.3540481   0.4689400   0.2040557  )
        26           Au  tau(  26) = (   0.4790062   0.2525061   0.2040557  )
        27           Au  tau(  27) = (   0.6039644   0.0360723   0.2040557  )
        28           Au  tau(  28) = (  -0.0208264   0.6853738   0.2040557  )
        29           Au  tau(  29) = (   0.1041318   0.4689400   0.2040557  )
        30           Au  tau(  30) = (   0.2290899   0.2525061   0.2040557  )
        31           Au  tau(  31) = (   0.3540481   0.0360723   0.2040557  )
        32           Au  tau(  32) = (  -0.2707426   0.6853738   0.2040557  )
        33           Au  tau(  33) = (  -0.1457845   0.4689400   0.2040557  )
        34           Au  tau(  34) = (  -0.0208264   0.2525061   0.2040557  )
        35           Au  tau(  35) = (   0.1041318   0.0360723   0.2040557  )
        36           Au  tau(  36) = (   0.3541162   0.7576593   0.4066483  )
        37           Au  tau(  37) = (   0.4791000   0.5411421   0.4066695  )
        38           Au  tau(  38) = (   0.6040570   0.3246862   0.4066617  )
        39           Au  tau(  39) = (   0.7290270   0.1081684   0.4066529  )
        40           Au  tau(  40) = (   0.1041162   0.7576236   0.4066247  )
        41           Au  tau(  41) = (   0.2291001   0.5411063   0.4066455  )
        42           Au  tau(  42) = (   0.3540567   0.3246505   0.4066380  )
        43           Au  tau(  43) = (   0.4790276   0.1081324   0.4066292  )
        44           Au  tau(  44) = (  -0.1458201   0.7576104   0.4066224  )
        45           Au  tau(  45) = (  -0.0208365   0.5410930   0.4066438  )
        46           Au  tau(  46) = (   0.1041202   0.3246372   0.4066359  )
        47           Au  tau(  47) = (   0.2290908   0.1081193   0.4066273  )
        48           Au  tau(  48) = (  -0.3958167   0.7575791   0.4065812  )
        49           Au  tau(  49) = (  -0.2708328   0.5410617   0.4066025  )
        50           Au  tau(  50) = (  -0.1458763   0.3246061   0.4065947  )
        51           Au  tau(  51) = (  -0.0209056   0.1080882   0.4065858  )
        52           Au  tau(  52) = (   0.3541085   0.6133344   0.6129762  )
        53           Au  tau(  53) = (   0.4790780   0.3968269   0.6129968  )
        54           Au  tau(  54) = (   0.6040356   0.1803811   0.6129859  )
        55           Au  tau(  55) = (   0.7290165  -0.0361221   0.6129385  )
        56           Au  tau(  56) = (   0.1041243   0.6133091   0.6130022  )
        57           Au  tau(  57) = (   0.2290941   0.3968013   0.6130241  )
        58           Au  tau(  58) = (   0.3540515   0.1803552   0.6130121  )
        59           Au  tau(  59) = (   0.4790323  -0.0361475   0.6129659  )
        60           Au  tau(  60) = (  -0.1458030   0.6133014   0.6129980  )
        61           Au  tau(  61) = (  -0.0208339   0.3967936   0.6130188  )
        62           Au  tau(  62) = (   0.1041239   0.1803477   0.6130083  )
        63           Au  tau(  63) = (   0.2291046  -0.0361554   0.6129607  )
        64           Au  tau(  64) = (  -0.3957908   0.6132739   0.6129471  )
        65           Au  tau(  65) = (  -0.2708208   0.3967658   0.6129688  )
        66           Au  tau(  66) = (  -0.1458636   0.1803200   0.6129569  )
        67           Au  tau(  67) = (  -0.0208823  -0.0361826   0.6129110  )

     number of k points=    12  Marzari-Vanderbilt smearing, width (Ry)=  0.0200
                       cart. coord. in units 2pi/alat
        k(    1) = (   0.2500000   0.4330127   0.1111111), wk =   0.1666667
        k(    2) = (   0.2500000  -0.1443376   0.1111111), wk =   0.1666667
        k(    3) = (  -0.2500000  -0.4330127   0.1111111), wk =   0.1666667
        k(    4) = (  -0.2500000   0.4330127  -0.1111111), wk =   0.1666667
        k(    5) = (   0.2500000  -0.4330127  -0.1111111), wk =   0.1666667
        k(    6) = (   0.5000000   0.0000000   0.1111111), wk =   0.1666667
        k(    7) = (  -0.5000000   0.0000000   0.1111111), wk =   0.1666667
        k(    8) = (  -0.2500000   0.1443376   0.1111111), wk =   0.1666667
        k(    9) = (  -0.2500000  -0.1443376  -0.1111111), wk =   0.1666667
        k(   10) = (   0.2500000   0.1443376  -0.1111111), wk =   0.1666667
        k(   11) = (   0.0000000  -0.2886751   0.1111111), wk =   0.1666667
        k(   12) = (   0.0000000   0.2886751   0.1111111), wk =   0.1666667

     Dense  grid:  3097177 G-vectors     FFT dimensions: ( 150, 150, 360)

     Smooth grid:  1095093 G-vectors     FFT dimensions: ( 108, 108, 240)

     Largest allocated arrays     est. size (Mb)     dimensions
        Kohn-Sham Wavefunctions        28.01 Mb     (    4299,  427)
        NL pseudopotentials            55.23 Mb     (    4299,  842)
        Each V/rho on FFT grid          4.12 Mb     (  270000)
        Each G-vector array             0.74 Mb     (   96788)
        G-vector shells                 0.16 Mb     (   21404)
     Largest temporary arrays     est. size (Mb)     dimensions
        Auxiliary wavefunctions       112.04 Mb     (    4299, 1708)
        Each subspace H/S matrix       44.51 Mb     (    1708, 1708)
        Each <psi_i|beta_j> matrix      5.49 Mb     (     842,  427)
        Arrays for rho mixing          32.96 Mb     (  270000,    8)

     Initial potential from superposition of free atoms
     Check: negative starting charge=   -1.730239

     starting charge  711.25682, renormalised to  712.00000

     negative rho (up, down):  1.732E+00 0.000E+00


     ************************************************************************
     *
     * You are using vdW-DF for exchange-correlation in this calculation.
     * Please cite the following three references that made this development
     * possible:
     *
     *   M. Dion, H. Rydberg, E. Schroder, D. C. Langreth, and
     *   B. I. Lundqvist, Phys. Rev. Lett. 92, 246401 (2004).
     *
     *   T. Thonhauser, V. R. Cooper, S. Li, A. Puzder, P. Hyldgaard, and
     *   D. C. Langreth, Phys. Rev. B 76, 125112 (2007).
     *
     *   G. Roman-Perez and J. M. Soler, Phys. Rev. Lett. 103, 096102 (2009).
     *
     *
     * If you are using vdW-DF2, please also cite:
     *
     *   K. Lee, E. D. Murray, L. Kong, B. I. Lundqvist, and
     *   D. C. Langreth, Phys. Rev. B 82, 081101(R) (2010).
     *
     *
     * If you are calculating the stress with vdW-DF, please also cite:
     *
     *   R. Sabatini, E. Kucukbenli, B. Kolb, T. Thonhauser, and
     *   S. de Gironcoli, J. Phys.: Condens. Matter 24, 424209 (2012).
     *
     ************************************************************************

     Carrying out vdW-DF run using the following parameters:

     Nqs =      20    Nr_points =    1024   r_max =   100.000
     q_mesh =
               0.00001000     0.04494208     0.09755937     0.15916263
               0.23128650     0.31572767     0.41458969     0.53033537
               0.66584808     0.82450364     1.01025438     1.22772762
               1.48234092     1.78043706     2.12944203     2.53805004
               3.01644009     3.57652955     4.23227104     5.00000000

     Gradients computed in reciprocal space

     ************************************************************************


     Starting wfc are  582 randomized atomic wfcs

     total cpu time spent up to now is      155.0 secs

     Self-consistent Calculation

     iteration #  1     ecut=    50.00 Ry     beta=0.70
     Davidson diagonalization with overlap
     ethr =  1.00E-02,  avg # of iterations =  3.0

     Threshold (ethr) on eigenvalues was too large:
     Diagonalizing with lowered threshold

     Davidson diagonalization with overlap
     ethr =  3.44E-04,  avg # of iterations =  3.7

     negative rho (up, down):  1.727E+00 0.000E+00

     total cpu time spent up to now is      760.5 secs

     total energy              =   -6602.80466020 Ry
     Harris-Foulkes estimate   =   -6605.03176352 Ry
     estimated scf accuracy    <       2.79327446 Ry

     iteration #  2     ecut=    50.00 Ry     beta=0.70
     Davidson diagonalization with overlap
     ethr =  3.92E-04,  avg # of iterations = 11.4

     negative rho (up, down):  1.727E+00 0.000E+00

     total cpu time spent up to now is     1754.1 secs

     total energy              =   -6596.97092438 Ry
     Harris-Foulkes estimate   =   -6610.04537996 Ry
     estimated scf accuracy    <      72.02359790 Ry

     iteration #  3     ecut=    50.00 Ry     beta=0.70
     Davidson diagonalization with overlap
     ethr =  3.92E-04,  avg # of iterations =  6.5

     negative rho (up, down):  1.737E+00 0.000E+00

     total cpu time spent up to now is     2381.5 secs

     total energy              =   -6603.15072019 Ry
     Harris-Foulkes estimate   =   -6605.01635379 Ry
     estimated scf accuracy    <       8.53840005 Ry

     iteration #  4     ecut=    50.00 Ry     beta=0.70
     Davidson diagonalization with overlap
     ethr =  3.92E-04,  avg # of iterations =  7.0

     negative rho (up, down):  1.739E+00 0.000E+00

     total cpu time spent up to now is     2772.7 secs

     total energy              =   -6603.61945277 Ry
     Harris-Foulkes estimate   =   -6605.07402113 Ry
     estimated scf accuracy    <      12.67889672 Ry

     iteration #  5     ecut=    50.00 Ry     beta=0.70
     Davidson diagonalization with overlap
     ethr =  3.92E-04,  avg # of iterations =  7.0

     negative rho (up, down):  1.748E+00 0.000E+00

     total cpu time spent up to now is     3153.2 secs

     total energy              =   -6604.29934011 Ry
     Harris-Foulkes estimate   =   -6604.65691692 Ry
     estimated scf accuracy    <       2.73518537 Ry

     iteration #  6     ecut=    50.00 Ry     beta=0.70
     Davidson diagonalization with overlap
     ethr =  3.84E-04,  avg # of iterations =  2.5

     negative rho (up, down):  1.753E+00 0.000E+00

     total cpu time spent up to now is     3428.6 secs

     total energy              =   -6604.42915449 Ry
     Harris-Foulkes estimate   =   -6604.47087105 Ry
     estimated scf accuracy    <       0.13107132 Ry

     iteration #  7     ecut=    50.00 Ry     beta=0.70
     Davidson diagonalization with overlap
     ethr =  1.84E-05,  avg # of iterations = 11.8

     negative rho (up, down):  1.755E+00 0.000E+00

     total cpu time spent up to now is     3925.3 secs

     total energy              =   -6604.43351350 Ry
     Harris-Foulkes estimate   =   -6604.46077330 Ry
     estimated scf accuracy    <       0.11996233 Ry

     iteration #  8     ecut=    50.00 Ry     beta=0.70
     Davidson diagonalization with overlap
     ethr =  1.68E-05,  avg # of iterations =  3.5

     negative rho (up, down):  1.756E+00 0.000E+00

     total cpu time spent up to now is     4222.6 secs

     total energy              =   -6604.43599634 Ry
     Harris-Foulkes estimate   =   -6604.44925299 Ry
     estimated scf accuracy    <       0.05108221 Ry

     iteration #  9     ecut=    50.00 Ry     beta=0.70
     Davidson diagonalization with overlap
     ethr =  7.17E-06,  avg # of iterations =  5.0

     negative rho (up, down):  1.756E+00 0.000E+00

     total cpu time spent up to now is     4552.0 secs

     total energy              =   -6604.43539990 Ry
     Harris-Foulkes estimate   =   -6604.44180326 Ry
     estimated scf accuracy    <       0.02333596 Ry

     iteration # 10     ecut=    50.00 Ry     beta=0.70
     Davidson diagonalization with overlap
     ethr =  3.28E-06,  avg # of iterations =  5.2

     negative rho (up, down):  1.757E+00 0.000E+00

     total cpu time spent up to now is     4887.8 secs

     total energy              =   -6604.43467998 Ry
     Harris-Foulkes estimate   =   -6604.43776531 Ry
     estimated scf accuracy    <       0.01090162 Ry

     iteration # 11     ecut=    50.00 Ry     beta=0.70
     Davidson diagonalization with overlap
     ethr =  1.53E-06,  avg # of iterations =  5.4

     negative rho (up, down):  1.758E+00 0.000E+00

     total cpu time spent up to now is     5230.9 secs

     total energy              =   -6604.43441953 Ry
     Harris-Foulkes estimate   =   -6604.43585983 Ry
     estimated scf accuracy    <       0.00573138 Ry

     iteration # 12     ecut=    50.00 Ry     beta=0.70
     Davidson diagonalization with overlap
     ethr =  8.05E-07,  avg # of iterations =  3.8

     negative rho (up, down):  1.758E+00 0.000E+00

     total cpu time spent up to now is     5552.4 secs

     total energy              =   -6604.43402656 Ry
     Harris-Foulkes estimate   =   -6604.43491467 Ry
     estimated scf accuracy    <       0.00150550 Ry

     iteration # 13     ecut=    50.00 Ry     beta=0.70
     Davidson diagonalization with overlap
     ethr =  2.11E-07,  avg # of iterations =  8.3

     negative rho (up, down):  1.758E+00 0.000E+00

     total cpu time spent up to now is     5962.4 secs

     total energy              =   -6604.43426509 Ry
     Harris-Foulkes estimate   =   -6604.43442538 Ry
     estimated scf accuracy    <       0.00042795 Ry

     iteration # 14     ecut=    50.00 Ry     beta=0.70
     Davidson diagonalization with overlap
     ethr =  6.01E-08,  avg # of iterations =  2.3

     negative rho (up, down):  1.758E+00 0.000E+00

     total cpu time spent up to now is     6264.2 secs

     total energy              =   -6604.43431948 Ry
     Harris-Foulkes estimate   =   -6604.43439961 Ry
     estimated scf accuracy    <       0.00032007 Ry

     iteration # 15     ecut=    50.00 Ry     beta=0.70
     Davidson diagonalization with overlap
     ethr =  4.50E-08,  avg # of iterations =  2.0

     negative rho (up, down):  1.758E+00 0.000E+00

     total cpu time spent up to now is     6548.7 secs

     total energy              =   -6604.43434997 Ry
     Harris-Foulkes estimate   =   -6604.43437882 Ry
     estimated scf accuracy    <       0.00011844 Ry

     iteration # 16     ecut=    50.00 Ry     beta=0.70
     Davidson diagonalization with overlap
     ethr =  1.66E-08,  avg # of iterations =  2.0

     negative rho (up, down):  1.758E+00 0.000E+00

     total cpu time spent up to now is     6826.5 secs

     total energy              =   -6604.43435874 Ry
     Harris-Foulkes estimate   =   -6604.43436811 Ry
     estimated scf accuracy    <       0.00003755 Ry

     iteration # 17     ecut=    50.00 Ry     beta=0.70
     Davidson diagonalization with overlap
     ethr =  5.27E-09,  avg # of iterations =  2.0

     negative rho (up, down):  1.758E+00 0.000E+00

     total cpu time spent up to now is     7101.2 secs

     total energy              =   -6604.43435942 Ry
     Harris-Foulkes estimate   =   -6604.43437249 Ry
     estimated scf accuracy    <       0.00013793 Ry

     iteration # 18     ecut=    50.00 Ry     beta=0.70
     Davidson diagonalization with overlap
     ethr =  5.27E-09,  avg # of iterations =  1.0

     negative rho (up, down):  1.758E+00 0.000E+00

     total cpu time spent up to now is     7359.2 secs

     total energy              =   -6604.43436558 Ry
     Harris-Foulkes estimate   =   -6604.43436672 Ry
     estimated scf accuracy    <       0.00000319 Ry

     iteration # 19     ecut=    50.00 Ry     beta=0.70
     Davidson diagonalization with overlap
     ethr =  4.48E-10,  avg # of iterations =  3.0

     negative rho (up, down):  1.757E+00 0.000E+00

     total cpu time spent up to now is     7683.6 secs

     total energy              =   -6604.43436607 Ry
     Harris-Foulkes estimate   =   -6604.43436652 Ry
     estimated scf accuracy    <       0.00000183 Ry

     iteration # 20     ecut=    50.00 Ry     beta=0.70
     Davidson diagonalization with overlap
     ethr =  2.56E-10,  avg # of iterations =  2.0

     negative rho (up, down):  1.757E+00 0.000E+00

     total cpu time spent up to now is     7958.9 secs

     total energy              =   -6604.43436635 Ry
     Harris-Foulkes estimate   =   -6604.43436644 Ry
     estimated scf accuracy    <       0.00000055 Ry

     iteration # 21     ecut=    50.00 Ry     beta=0.70
     Davidson diagonalization with overlap
     ethr =  7.78E-11,  avg # of iterations =  2.0

     negative rho (up, down):  1.757E+00 0.000E+00

     total cpu time spent up to now is     8236.6 secs

     total energy              =   -6604.43436644 Ry
     Harris-Foulkes estimate   =   -6604.43436647 Ry
     estimated scf accuracy    <       0.00000026 Ry

     iteration # 22     ecut=    50.00 Ry     beta=0.70
     Davidson diagonalization with overlap
     ethr =  3.60E-11,  avg # of iterations =  2.0

     negative rho (up, down):  1.757E+00 0.000E+00

     total cpu time spent up to now is     8506.7 secs

     total energy              =   -6604.43436646 Ry
     Harris-Foulkes estimate   =   -6604.43436647 Ry
     estimated scf accuracy    <       0.00000001 Ry

     iteration # 23     ecut=    50.00 Ry     beta=0.70
     Davidson diagonalization with overlap
     ethr =  2.08E-12,  avg # of iterations =  4.0

     negative rho (up, down):  1.757E+00 0.000E+00

     total cpu time spent up to now is     8926.9 secs

     total energy              =   -6604.43436647 Ry
     Harris-Foulkes estimate   =   -6604.43436647 Ry
     estimated scf accuracy    <       0.00000002 Ry

     iteration # 24     ecut=    50.00 Ry     beta=0.70
     Davidson diagonalization with overlap
     ethr =  2.08E-12,  avg # of iterations =  3.0

     negative rho (up, down):  1.757E+00 0.000E+00

     total cpu time spent up to now is     9244.1 secs

     total energy              =   -6604.43436648 Ry
     Harris-Foulkes estimate   =   -6604.43436648 Ry
     estimated scf accuracy    <       0.00000002 Ry

     iteration # 25     ecut=    50.00 Ry     beta=0.70
     Davidson diagonalization with overlap
     ethr =  2.08E-12,  avg # of iterations =  2.0

     negative rho (up, down):  1.757E+00 0.000E+00

     total cpu time spent up to now is     9561.2 secs

     End of self-consistent calculation

          k = 0.2500 0.4330 0.1111 (136853 PWs)   bands (ev):

   -18.5835  -6.4618  -6.3889  -5.9958  -5.9950  -5.3174  -4.9849  -4.9844
    -4.9457  -4.9444  -4.5845  -4.5842  -4.4859  -4.4856  -4.4717  -4.4493
    -4.4254  -4.3185  -4.3176  -4.2939  -4.2506  -4.2503  -4.1819  -4.1814
    -4.1748  -4.1743  -4.1533  -4.1477  -4.1468  -4.0776  -4.0735  -4.0452
    -4.0449  -4.0329  -4.0327  -4.0095  -4.0094  -3.9870  -3.9785  -3.9784
    -3.9520  -3.8997  -3.8996  -3.8516  -3.8513  -3.7931  -3.7925  -3.7381
    -3.7376  -3.7373  -3.7371  -3.7016  -3.6642  -3.6631  -3.6561  -3.6549
    -3.6545  -3.6255  -3.6233  -3.6153  -3.5546  -3.5541  -3.5453  -3.5277
    -3.5204  -3.4483  -3.4476  -3.4162  -3.4135  -3.3871  -3.3863  -3.3728
    -3.3562  -3.2975  -3.2961  -3.2787  -3.2786  -3.2279  -3.2225  -3.2216
    -3.1831  -3.1540  -3.1510  -3.1432  -3.1431  -3.1310  -3.1298  -3.1227
    -3.1217  -3.1123  -3.0713  -3.0335  -3.0328  -3.0192  -3.0185  -2.9922
    -2.9832  -2.9831  -2.9616  -2.9174  -2.9160  -2.9077  -2.8683  -2.8615
    -2.8505  -2.8497  -2.8230  -2.8201  -2.7913  -2.7582  -2.7536  -2.7320
    -2.7243  -2.7156  -2.7094  -2.6733  -2.6594  -2.6562  -2.6262  -2.6037
    -2.6022  -2.5789  -2.5765  -2.5674  -2.5662  -2.5571  -2.5340  -2.5328
    -2.4894  -2.4890  -2.4876  -2.4718  -2.4711  -2.4654  -2.4571  -2.4542
    -2.4534  -2.4532  -2.4475  -2.4363  -2.4346  -2.4235  -2.3994  -2.3976
    -2.3969  -2.3950  -2.3943  -2.3923  -2.3913  -2.3644  -2.3619  -2.3473
    -2.3467  -2.3292  -2.3290  -2.3194  -2.3191  -2.3178  -2.3166  -2.2983
    -2.2971  -2.2961  -2.2942  -2.2785  -2.2519  -2.2515  -2.2115  -2.2112
    -2.1869  -2.1862  -2.1592  -2.1581  -2.1310  -2.1305  -2.1132  -2.1090
    -2.0820  -2.0616  -2.0598  -2.0547  -2.0536  -2.0497  -2.0428  -2.0413
    -2.0156  -2.0102  -2.0012  -1.9427  -1.9392  -1.9378  -1.9360  -1.9350
    -1.8999  -1.8801  -1.8793  -1.8520  -1.8513  -1.7925  -1.7912  -1.7620
    -1.7440  -1.7432  -1.6827  -1.6824  -1.6715  -1.6698  -1.6600  -1.6587
    -1.6556  -1.6473  -1.6452  -1.5907  -1.5898  -1.5790  -1.5777  -1.5768
    -1.5597  -1.5567  -1.5225  -1.5222  -1.5058  -1.5052  -1.5042  -1.4977
    -1.4927  -1.4843  -1.4821  -1.4639  -1.4636  -1.4229  -1.4217  -1.4116
    -1.4091  -1.3901  -1.3757  -1.3342  -1.3323  -1.3065  -1.3023  -1.3017
    -1.2726  -1.2217  -1.2206  -1.2194  -1.2185  -1.2150  -1.2125  -1.2032
    -1.1857  -1.1839  -1.1456  -1.1432  -1.1142  -1.1132  -1.1079  -1.1076
    -1.1002  -1.0844  -1.0838  -1.0827  -1.0797  -1.0787  -1.0422  -1.0413
    -1.0396  -1.0389  -1.0103  -1.0080  -1.0046  -0.9803  -0.9752  -0.9717
    -0.9269  -0.9200  -0.9178  -0.8856  -0.8757  -0.8653  -0.8643  -0.8591
    -0.8559  -0.8555  -0.8535  -0.8436  -0.8419  -0.8181  -0.8168  -0.8133
    -0.8119  -0.8105  -0.7749  -0.7735  -0.7696  -0.7632  -0.7481  -0.7411
    -0.7389  -0.7281  -0.6930  -0.6716  -0.6670  -0.6610  -0.6607  -0.6589
    -0.6552  -0.6403  -0.6339  -0.6276  -0.6258  -0.6242  -0.6233  -0.5962
    -0.5826  -0.5820  -0.5791  -0.5724  -0.5686  -0.5660  -0.5649  -0.5546
    -0.5471  -0.5462  -0.5298  -0.5042  -0.5034  -0.4951  -0.4917  -0.4906
    -0.4152  -0.4132  -0.4111  -0.4102  -0.4020  -0.3993  -0.3649  -0.3528
    -0.3523  -0.3229  -0.3203  -0.3185  -0.2007  -0.1972  -0.0970   0.3182
     0.3190   0.3223   0.3225   0.3835   0.3870   0.7698   0.7729   0.8140
     0.8152   0.9262   1.0039   1.1129   1.1180   1.3373   1.3420   1.9679
     1.9708   2.1295   2.1333   2.2640   2.2673   2.3677   2.3679   2.5219
     2.7586   2.7716   2.8831   3.1056   3.1116   3.1905   3.1914   3.2899
     3.3070   3.5060   3.5173   3.5625   3.7634   3.7651   3.8272   3.8293
     4.0830   4.0904   4.0943   4.3341   4.3749   4.3770   4.4213   4.7538
     4.7601   4.7859   4.9232   5.0944   5.0960   5.1516   5.1776   5.5126
     5.7981   5.8804   5.8834   5.8928   5.9179   5.9538   5.9598   6.0542
     6.0706   6.0914   6.1130   6.1239   6.1261   6.1544   6.1575   6.1801
     6.1829   6.4394   6.5858   6.7264   6.7492   6.7778   6.8299   6.8363
     6.8394   6.9472   7.0249

          k = 0.2500-0.1443 0.1111 (136898 PWs)   bands (ev):

   -18.5835  -6.6085  -6.4516  -5.8130  -5.5209  -5.4630  -5.4626  -4.9247
    -4.9245  -4.7929  -4.7922  -4.6371  -4.6074  -4.5450  -4.5118  -4.5107
    -4.4781  -4.4778  -4.3494  -4.3077  -4.3074  -4.2478  -4.2268  -4.2263
    -4.1242  -4.1240  -4.0880  -4.0876  -4.0875  -4.0608  -4.0393  -4.0390
    -3.9347  -3.9321  -3.9318  -3.9115  -3.8944  -3.8942  -3.8825  -3.8818
    -3.8690  -3.8389  -3.8385  -3.8383  -3.8380  -3.8058  -3.8056  -3.7879
    -3.7876  -3.7747  -3.7325  -3.7309  -3.6998  -3.6858  -3.6838  -3.6793
    -3.6793  -3.6049  -3.6048  -3.5702  -3.5678  -3.5668  -3.4995  -3.4992
    -3.4842  -3.4835  -3.4537  -3.4533  -3.4520  -3.4516  -3.2985  -3.2977
    -3.2741  -3.2727  -3.2681  -3.2517  -3.2511  -3.2258  -3.2255  -3.1757
    -3.1753  -3.1597  -3.1589  -3.1388  -3.0921  -3.0903  -3.0713  -3.0662
    -3.0653  -3.0254  -3.0245  -3.0181  -3.0174  -3.0027  -3.0006  -2.9622
    -2.9617  -2.9405  -2.9402  -2.9372  -2.9364  -2.9331  -2.8584  -2.8564
    -2.8549  -2.8263  -2.8253  -2.7691  -2.7642  -2.7370  -2.7350  -2.7230
    -2.7212  -2.7161  -2.6943  -2.6863  -2.6793  -2.6761  -2.6578  -2.6332
    -2.6328  -2.6224  -2.6119  -2.6100  -2.6002  -2.5984  -2.5966  -2.5885
    -2.5863  -2.5426  -2.5104  -2.5100  -2.4944  -2.4808  -2.4749  -2.4736
    -2.4670  -2.4660  -2.4646  -2.4353  -2.4345  -2.4343  -2.4250  -2.4248
    -2.4081  -2.3808  -2.3795  -2.3794  -2.3790  -2.3782  -2.3328  -2.3020
    -2.3013  -2.3007  -2.2943  -2.2853  -2.2734  -2.2724  -2.2556  -2.2555
    -2.2235  -2.2206  -2.2204  -2.2020  -2.2012  -2.2003  -2.1680  -2.1672
    -2.1283  -2.1249  -2.1189  -2.1166  -2.1161  -2.1103  -2.1093  -2.1067
    -2.1064  -2.1006  -2.0991  -2.0838  -2.0828  -1.9568  -1.9554  -1.9232
    -1.9174  -1.9163  -1.9111  -1.9110  -1.8942  -1.8934  -1.8911  -1.8901
    -1.8884  -1.8659  -1.8585  -1.8574  -1.8522  -1.8461  -1.8451  -1.8226
    -1.8223  -1.7938  -1.7937  -1.7625  -1.7619  -1.7514  -1.7431  -1.7257
    -1.7248  -1.7222  -1.7044  -1.6913  -1.6912  -1.6839  -1.6837  -1.6578
    -1.6572  -1.6407  -1.6398  -1.6072  -1.6069  -1.5978  -1.5479  -1.5474
    -1.5349  -1.5333  -1.5328  -1.5081  -1.5056  -1.4730  -1.4718  -1.4713
    -1.4378  -1.4280  -1.4271  -1.4119  -1.4112  -1.3865  -1.3839  -1.3834
    -1.3540  -1.3511  -1.3509  -1.2889  -1.2875  -1.2762  -1.2742  -1.2592
    -1.2587  -1.2460  -1.2453  -1.2276  -1.2149  -1.1878  -1.1868  -1.1759
    -1.1476  -1.1377  -1.1364  -1.1251  -1.1250  -1.1237  -1.1190  -1.1173
    -1.1039  -1.0746  -1.0739  -1.0634  -1.0614  -1.0598  -1.0589  -1.0370
    -1.0208  -1.0169  -0.9997  -0.9955  -0.9044  -0.8906  -0.8874  -0.8851
    -0.8840  -0.8762  -0.8751  -0.8579  -0.8507  -0.8361  -0.8336  -0.8205
    -0.8198  -0.8109  -0.7918  -0.7907  -0.7876  -0.7800  -0.7092  -0.7075
    -0.6996  -0.6727  -0.6692  -0.6665  -0.6613  -0.6602  -0.6602  -0.6497
    -0.6470  -0.6314  -0.6147  -0.6058  -0.5800  -0.5715  -0.5711  -0.5601
    -0.5543  -0.5478  -0.5465  -0.5452  -0.5440  -0.5366  -0.5272  -0.5226
    -0.5169  -0.4922  -0.4904  -0.4876  -0.4781  -0.4772  -0.4587  -0.4266
    -0.4251  -0.4172  -0.4153  -0.3493  -0.3483  -0.3120  -0.3120  -0.2537
    -0.2532  -0.2527  -0.2376  -0.2257   0.0006   0.0031   0.3472   0.3474
     0.4390   0.4420   0.6345   0.6496   0.6649   0.7948   0.7960   1.2274
     1.2277   1.2449   1.5066   1.5374   1.5377   1.8144   1.8197   1.8927
     1.8938   1.9199   1.9237   2.1491   2.1502   2.2382   2.2391   2.3172
     2.3775   2.3823   2.5416   2.6418   3.0772   3.0811   3.0839   3.0858
     3.1380   3.1395   3.4312   3.4319   3.7120   3.7171   3.8257   4.1273
     4.1682   4.1725   4.3899   4.4102   4.4690   4.4724   4.5633   4.6790
     4.6823   4.7971   4.7986   5.1016   5.1660   5.1735   5.3185   5.3603
     5.4310   5.5561   5.5608   5.5850   5.5870   5.6464   5.6513   5.7018
     5.8507   6.0546   6.2568   6.2762   6.3513   6.3901   6.3933   6.4052
     6.4064   6.5442   6.6340   6.6486   6.6561   6.8398   6.8794   6.9038
     6.9297   7.0091   7.1126

          k =-0.2500-0.4330 0.1111 (136853 PWs)   bands (ev):

   -18.5835  -6.4618  -6.3889  -5.9958  -5.9950  -5.3174  -4.9849  -4.9844
    -4.9457  -4.9444  -4.5845  -4.5842  -4.4859  -4.4856  -4.4717  -4.4493
    -4.4254  -4.3185  -4.3176  -4.2939  -4.2506  -4.2503  -4.1819  -4.1814
    -4.1748  -4.1743  -4.1533  -4.1477  -4.1468  -4.0776  -4.0735  -4.0452
    -4.0449  -4.0329  -4.0327  -4.0095  -4.0094  -3.9870  -3.9785  -3.9784
    -3.9520  -3.8997  -3.8996  -3.8516  -3.8513  -3.7931  -3.7925  -3.7381
    -3.7376  -3.7373  -3.7371  -3.7016  -3.6642  -3.6631  -3.6561  -3.6549
    -3.6545  -3.6255  -3.6233  -3.6153  -3.5546  -3.5541  -3.5453  -3.5277
    -3.5204  -3.4483  -3.4476  -3.4162  -3.4135  -3.3871  -3.3863  -3.3728
    -3.3562  -3.2975  -3.2961  -3.2787  -3.2786  -3.2279  -3.2225  -3.2216
    -3.1831  -3.1540  -3.1510  -3.1432  -3.1431  -3.1310  -3.1298  -3.1227
    -3.1217  -3.1123  -3.0713  -3.0335  -3.0328  -3.0192  -3.0185  -2.9922
    -2.9832  -2.9831  -2.9616  -2.9174  -2.9160  -2.9077  -2.8683  -2.8615
    -2.8505  -2.8497  -2.8230  -2.8201  -2.7913  -2.7582  -2.7536  -2.7320
    -2.7243  -2.7156  -2.7094  -2.6733  -2.6594  -2.6562  -2.6262  -2.6037
    -2.6022  -2.5789  -2.5765  -2.5674  -2.5662  -2.5571  -2.5340  -2.5328
    -2.4894  -2.4890  -2.4876  -2.4718  -2.4711  -2.4654  -2.4571  -2.4542
    -2.4534  -2.4532  -2.4475  -2.4363  -2.4346  -2.4235  -2.3994  -2.3976
    -2.3969  -2.3950  -2.3943  -2.3923  -2.3913  -2.3644  -2.3619  -2.3473
    -2.3467  -2.3292  -2.3290  -2.3194  -2.3191  -2.3178  -2.3166  -2.2983
    -2.2971  -2.2961  -2.2942  -2.2785  -2.2519  -2.2515  -2.2115  -2.2112
    -2.1869  -2.1862  -2.1592  -2.1581  -2.1310  -2.1305  -2.1132  -2.1090
    -2.0820  -2.0616  -2.0598  -2.0547  -2.0536  -2.0497  -2.0428  -2.0413
    -2.0156  -2.0102  -2.0012  -1.9427  -1.9392  -1.9378  -1.9360  -1.9350
    -1.8999  -1.8801  -1.8793  -1.8520  -1.8513  -1.7925  -1.7912  -1.7620
    -1.7440  -1.7432  -1.6827  -1.6824  -1.6715  -1.6698  -1.6600  -1.6587
    -1.6556  -1.6473  -1.6452  -1.5907  -1.5898  -1.5790  -1.5777  -1.5768
    -1.5597  -1.5567  -1.5225  -1.5222  -1.5058  -1.5052  -1.5042  -1.4977
    -1.4927  -1.4843  -1.4821  -1.4639  -1.4636  -1.4229  -1.4217  -1.4116
    -1.4091  -1.3901  -1.3757  -1.3342  -1.3323  -1.3065  -1.3023  -1.3017
    -1.2726  -1.2217  -1.2206  -1.2194  -1.2185  -1.2150  -1.2125  -1.2032
    -1.1857  -1.1839  -1.1456  -1.1432  -1.1142  -1.1132  -1.1079  -1.1076
    -1.1002  -1.0844  -1.0838  -1.0827  -1.0797  -1.0787  -1.0422  -1.0413
    -1.0396  -1.0389  -1.0103  -1.0080  -1.0046  -0.9803  -0.9752  -0.9717
    -0.9269  -0.9200  -0.9178  -0.8856  -0.8757  -0.8653  -0.8643  -0.8591
    -0.8559  -0.8555  -0.8535  -0.8436  -0.8419  -0.8181  -0.8168  -0.8133
    -0.8119  -0.8105  -0.7749  -0.7735  -0.7696  -0.7632  -0.7481  -0.7411
    -0.7389  -0.7281  -0.6930  -0.6716  -0.6670  -0.6610  -0.6607  -0.6589
    -0.6552  -0.6403  -0.6339  -0.6276  -0.6258  -0.6242  -0.6233  -0.5962
    -0.5826  -0.5820  -0.5791  -0.5724  -0.5686  -0.5660  -0.5649  -0.5546
    -0.5471  -0.5462  -0.5298  -0.5042  -0.5034  -0.4951  -0.4917  -0.4906
    -0.4152  -0.4132  -0.4111  -0.4102  -0.4020  -0.3993  -0.3649  -0.3528
    -0.3523  -0.3229  -0.3203  -0.3185  -0.2007  -0.1972  -0.0970   0.3182
     0.3190   0.3223   0.3225   0.3835   0.3870   0.7698   0.7729   0.8140
     0.8152   0.9262   1.0039   1.1129   1.1180   1.3373   1.3420   1.9679
     1.9708   2.1295   2.1333   2.2640   2.2673   2.3677   2.3679   2.5219
     2.7586   2.7716   2.8831   3.1056   3.1116   3.1905   3.1914   3.2899
     3.3070   3.5060   3.5173   3.5625   3.7634   3.7651   3.8272   3.8293
     4.0830   4.0904   4.0943   4.3341   4.3749   4.3770   4.4213   4.7538
     4.7601   4.7859   4.9232   5.0944   5.0960   5.1516   5.1776   5.5127
     5.7975   5.8803   5.8834   5.8928   5.9178   5.9537   5.9598   6.0539
     6.0706   6.0913   6.1143   6.1242   6.1270   6.1543   6.1574   6.1801
     6.1829   6.4408   6.5864   6.7099   6.7505   6.7776   6.8297   6.8356
     6.8394   6.9471   7.0477

          k =-0.2500 0.4330-0.1111 (136853 PWs)   bands (ev):

   -18.5835  -6.4615  -6.3892  -5.9967  -5.9941  -5.3174  -4.9849  -4.9843
    -4.9474  -4.9427  -4.5851  -4.5835  -4.4859  -4.4856  -4.4715  -4.4493
    -4.4253  -4.3192  -4.3172  -4.2940  -4.2507  -4.2503  -4.1820  -4.1811
    -4.1751  -4.1743  -4.1532  -4.1488  -4.1457  -4.0790  -4.0721  -4.0459
    -4.0438  -4.0329  -4.0326  -4.0096  -4.0093  -3.9869  -3.9786  -3.9784
    -3.9521  -3.9001  -3.8993  -3.8527  -3.8502  -3.7931  -3.7922  -3.7384
    -3.7374  -3.7373  -3.7365  -3.7018  -3.6644  -3.6626  -3.6563  -3.6551
    -3.6544  -3.6259  -3.6234  -3.6154  -3.5545  -3.5538  -3.5459  -3.5274
    -3.5202  -3.4487  -3.4478  -3.4170  -3.4132  -3.3874  -3.3856  -3.3728
    -3.3563  -3.2975  -3.2960  -3.2795  -3.2778  -3.2274  -3.2229  -3.2217
    -3.1830  -3.1539  -3.1512  -3.1439  -3.1426  -3.1319  -3.1301  -3.1224
    -3.1210  -3.1125  -3.0713  -3.0344  -3.0320  -3.0193  -3.0182  -2.9924
    -2.9840  -2.9827  -2.9617  -2.9181  -2.9152  -2.9079  -2.8679  -2.8614
    -2.8509  -2.8490  -2.8232  -2.8203  -2.7914  -2.7576  -2.7531  -2.7318
    -2.7242  -2.7166  -2.7095  -2.6739  -2.6601  -2.6531  -2.6260  -2.6035
    -2.6019  -2.5794  -2.5781  -2.5669  -2.5658  -2.5570  -2.5345  -2.5324
    -2.4894  -2.4886  -2.4879  -2.4719  -2.4711  -2.4655  -2.4567  -2.4546
    -2.4537  -2.4529  -2.4475  -2.4365  -2.4337  -2.4237  -2.3991  -2.3976
    -2.3968  -2.3952  -2.3947  -2.3928  -2.3911  -2.3649  -2.3620  -2.3472
    -2.3467  -2.3295  -2.3288  -2.3196  -2.3192  -2.3181  -2.3160  -2.2984
    -2.2976  -2.2958  -2.2938  -2.2786  -2.2524  -2.2514  -2.2123  -2.2105
    -2.1869  -2.1864  -2.1589  -2.1579  -2.1311  -2.1302  -2.1133  -2.1090
    -2.0817  -2.0617  -2.0598  -2.0547  -2.0531  -2.0491  -2.0429  -2.0408
    -2.0157  -2.0097  -2.0012  -1.9428  -1.9401  -1.9380  -1.9368  -1.9346
    -1.8999  -1.8809  -1.8784  -1.8529  -1.8510  -1.7930  -1.7904  -1.7627
    -1.7437  -1.7426  -1.6835  -1.6816  -1.6718  -1.6693  -1.6603  -1.6584
    -1.6557  -1.6478  -1.6447  -1.5908  -1.5887  -1.5791  -1.5777  -1.5772
    -1.5597  -1.5564  -1.5230  -1.5221  -1.5058  -1.5053  -1.5040  -1.4976
    -1.4937  -1.4850  -1.4817  -1.4641  -1.4634  -1.4235  -1.4208  -1.4114
    -1.4089  -1.3899  -1.3757  -1.3351  -1.3315  -1.3069  -1.3025  -1.3016
    -1.2725  -1.2213  -1.2210  -1.2198  -1.2183  -1.2143  -1.2120  -1.2031
    -1.1860  -1.1838  -1.1462  -1.1426  -1.1156  -1.1124  -1.1080  -1.1074
    -1.1003  -1.0856  -1.0832  -1.0827  -1.0802  -1.0778  -1.0431  -1.0399
    -1.0390  -1.0389  -1.0109  -1.0080  -1.0037  -0.9806  -0.9751  -0.9707
    -0.9264  -0.9241  -0.9174  -0.8872  -0.8753  -0.8648  -0.8638  -0.8608
    -0.8560  -0.8551  -0.8534  -0.8444  -0.8416  -0.8177  -0.8166  -0.8138
    -0.8129  -0.8100  -0.7745  -0.7732  -0.7641  -0.7630  -0.7539  -0.7420
    -0.7387  -0.7281  -0.6821  -0.6718  -0.6634  -0.6610  -0.6601  -0.6591
    -0.6555  -0.6474  -0.6338  -0.6272  -0.6258  -0.6249  -0.6232  -0.5984
    -0.5828  -0.5819  -0.5798  -0.5726  -0.5688  -0.5660  -0.5599  -0.5501
    -0.5478  -0.5463  -0.5393  -0.5037  -0.5031  -0.4958  -0.4919  -0.4892
    -0.4159  -0.4127  -0.4109  -0.4095  -0.4022  -0.4010  -0.3653  -0.3527
    -0.3521  -0.3234  -0.3204  -0.3187  -0.2015  -0.1963  -0.0969   0.3187
     0.3192   0.3220   0.3224   0.3836   0.3850   0.7709   0.7724   0.8135
     0.8153   0.9269   1.0047   1.1123   1.1198   1.3350   1.3441   1.9678
     1.9701   2.1292   2.1339   2.2628   2.2671   2.3672   2.3683   2.5218
     2.7596   2.7720   2.8840   3.1054   3.1134   3.1901   3.1915   3.2911
     3.3070   3.5008   3.5222   3.5629   3.7627   3.7658   3.8240   3.8301
     4.0832   4.0906   4.0951   4.3346   4.3735   4.3770   4.4215   4.7544
     4.7605   4.7854   4.9192   5.0935   5.0961   5.1520   5.1760   5.5146
     5.7854   5.8764   5.8867   5.8936   5.9308   5.9555   5.9600   6.0507
     6.0649   6.0929   6.1165   6.1230   6.1252   6.1497   6.1616   6.1793
     6.1835   6.4361   6.6008   6.7138   6.7504   6.7896   6.8245   6.8389
     6.8394   6.9504   7.0342

          k = 0.2500-0.4330-0.1111 (136853 PWs)   bands (ev):

   -18.5835  -6.4615  -6.3892  -5.9967  -5.9941  -5.3174  -4.9849  -4.9843
    -4.9474  -4.9427  -4.5851  -4.5835  -4.4859  -4.4856  -4.4715  -4.4493
    -4.4253  -4.3192  -4.3172  -4.2940  -4.2507  -4.2503  -4.1820  -4.1811
    -4.1751  -4.1743  -4.1532  -4.1488  -4.1457  -4.0790  -4.0721  -4.0459
    -4.0438  -4.0329  -4.0326  -4.0096  -4.0093  -3.9869  -3.9786  -3.9784
    -3.9521  -3.9001  -3.8993  -3.8527  -3.8502  -3.7931  -3.7922  -3.7384
    -3.7374  -3.7373  -3.7365  -3.7018  -3.6644  -3.6626  -3.6563  -3.6551
    -3.6544  -3.6259  -3.6234  -3.6154  -3.5545  -3.5538  -3.5459  -3.5274
    -3.5202  -3.4487  -3.4478  -3.4170  -3.4132  -3.3874  -3.3856  -3.3728
    -3.3563  -3.2975  -3.2960  -3.2795  -3.2778  -3.2274  -3.2229  -3.2217
    -3.1830  -3.1539  -3.1512  -3.1439  -3.1426  -3.1319  -3.1301  -3.1224
    -3.1210  -3.1125  -3.0713  -3.0344  -3.0320  -3.0193  -3.0182  -2.9924
    -2.9840  -2.9827  -2.9617  -2.9181  -2.9152  -2.9079  -2.8679  -2.8614
    -2.8509  -2.8490  -2.8232  -2.8203  -2.7914  -2.7576  -2.7531  -2.7318
    -2.7242  -2.7166  -2.7095  -2.6739  -2.6601  -2.6531  -2.6260  -2.6035
    -2.6019  -2.5794  -2.5781  -2.5669  -2.5658  -2.5570  -2.5345  -2.5324
    -2.4894  -2.4886  -2.4879  -2.4719  -2.4711  -2.4655  -2.4567  -2.4546
    -2.4537  -2.4529  -2.4475  -2.4365  -2.4337  -2.4237  -2.3991  -2.3976
    -2.3968  -2.3952  -2.3947  -2.3928  -2.3911  -2.3649  -2.3620  -2.3472
    -2.3467  -2.3295  -2.3288  -2.3196  -2.3192  -2.3181  -2.3160  -2.2984
    -2.2976  -2.2958  -2.2938  -2.2786  -2.2524  -2.2514  -2.2123  -2.2105
    -2.1869  -2.1864  -2.1589  -2.1579  -2.1311  -2.1302  -2.1133  -2.1090
    -2.0817  -2.0617  -2.0598  -2.0547  -2.0531  -2.0491  -2.0429  -2.0408
    -2.0157  -2.0097  -2.0012  -1.9428  -1.9401  -1.9380  -1.9368  -1.9346
    -1.8999  -1.8809  -1.8784  -1.8529  -1.8510  -1.7930  -1.7904  -1.7627
    -1.7437  -1.7426  -1.6835  -1.6816  -1.6718  -1.6693  -1.6603  -1.6584
    -1.6557  -1.6478  -1.6447  -1.5908  -1.5887  -1.5791  -1.5777  -1.5772
    -1.5597  -1.5564  -1.5230  -1.5221  -1.5058  -1.5053  -1.5040  -1.4976
    -1.4937  -1.4850  -1.4817  -1.4641  -1.4634  -1.4235  -1.4208  -1.4114
    -1.4089  -1.3899  -1.3757  -1.3351  -1.3315  -1.3069  -1.3025  -1.3016
    -1.2725  -1.2213  -1.2210  -1.2198  -1.2183  -1.2143  -1.2120  -1.2031
    -1.1860  -1.1838  -1.1462  -1.1426  -1.1156  -1.1124  -1.1080  -1.1074
    -1.1003  -1.0856  -1.0832  -1.0827  -1.0802  -1.0778  -1.0431  -1.0399
    -1.0390  -1.0389  -1.0109  -1.0080  -1.0037  -0.9806  -0.9751  -0.9707
    -0.9264  -0.9241  -0.9174  -0.8872  -0.8753  -0.8648  -0.8638  -0.8608
    -0.8560  -0.8551  -0.8534  -0.8444  -0.8416  -0.8177  -0.8166  -0.8138
    -0.8129  -0.8100  -0.7745  -0.7732  -0.7641  -0.7630  -0.7539  -0.7420
    -0.7387  -0.7281  -0.6821  -0.6718  -0.6634  -0.6610  -0.6601  -0.6591
    -0.6555  -0.6473  -0.6338  -0.6272  -0.6258  -0.6249  -0.6232  -0.5984
    -0.5828  -0.5819  -0.5798  -0.5726  -0.5688  -0.5660  -0.5599  -0.5501
    -0.5478  -0.5463  -0.5393  -0.5037  -0.5031  -0.4958  -0.4919  -0.4892
    -0.4159  -0.4127  -0.4109  -0.4095  -0.4022  -0.4010  -0.3653  -0.3527
    -0.3521  -0.3234  -0.3204  -0.3187  -0.2015  -0.1963  -0.0969   0.3187
     0.3192   0.3220   0.3224   0.3836   0.3850   0.7709   0.7724   0.8135
     0.8153   0.9269   1.0047   1.1123   1.1198   1.3350   1.3441   1.9678
     1.9701   2.1292   2.1339   2.2628   2.2671   2.3672   2.3683   2.5218
     2.7596   2.7720   2.8840   3.1054   3.1134   3.1901   3.1915   3.2911
     3.3070   3.5008   3.5222   3.5629   3.7627   3.7658   3.8240   3.8301
     4.0832   4.0906   4.0951   4.3346   4.3735   4.3770   4.4215   4.7544
     4.7605   4.7854   4.9192   5.0935   5.0961   5.1520   5.1760   5.5146
     5.7854   5.8764   5.8867   5.8936   5.9309   5.9555   5.9600   6.0508
     6.0649   6.0929   6.1161   6.1229   6.1252   6.1497   6.1616   6.1793
     6.1835   6.4360   6.6005   6.7154   6.7515   6.7896   6.8246   6.8386
     6.8399   6.9504   7.0319

          k = 0.5000 0.0000 0.1111 (136853 PWs)   bands (ev):

   -18.5835  -6.4618  -6.3889  -5.9965  -5.9944  -5.3174  -4.9857  -4.9836
    -4.9470  -4.9431  -4.5851  -4.5835  -4.4859  -4.4856  -4.4714  -4.4493
    -4.4254  -4.3189  -4.3176  -4.2940  -4.2506  -4.2503  -4.1820  -4.1811
    -4.1755  -4.1738  -4.1532  -4.1492  -4.1453  -4.0788  -4.0723  -4.0460
    -4.0438  -4.0330  -4.0326  -4.0095  -4.0094  -3.9870  -3.9786  -3.9784
    -3.9521  -3.8999  -3.8994  -3.8527  -3.8503  -3.7929  -3.7926  -3.7382
    -3.7375  -3.7374  -3.7369  -3.7018  -3.6643  -3.6633  -3.6559  -3.6553
    -3.6543  -3.6255  -3.6233  -3.6153  -3.5545  -3.5542  -3.5452  -3.5275
    -3.5202  -3.4489  -3.4474  -3.4158  -3.4137  -3.3872  -3.3860  -3.3728
    -3.3564  -3.2977  -3.2960  -3.2788  -3.2782  -3.2278  -3.2228  -3.2215
    -3.1829  -3.1540  -3.1510  -3.1437  -3.1426  -3.1314  -3.1298  -3.1227
    -3.1214  -3.1125  -3.0712  -3.0342  -3.0323  -3.0190  -3.0185  -2.9923
    -2.9832  -2.9831  -2.9617  -2.9179  -2.9155  -2.9081  -2.8681  -2.8614
    -2.8505  -2.8495  -2.8234  -2.8204  -2.7913  -2.7574  -2.7535  -2.7322
    -2.7243  -2.7152  -2.7095  -2.6740  -2.6597  -2.6551  -2.6261  -2.6038
    -2.6025  -2.5791  -2.5769  -2.5673  -2.5660  -2.5572  -2.5341  -2.5328
    -2.4894  -2.4887  -2.4876  -2.4719  -2.4710  -2.4655  -2.4570  -2.4546
    -2.4538  -2.4527  -2.4476  -2.4362  -2.4342  -2.4239  -2.3993  -2.3974
    -2.3966  -2.3950  -2.3947  -2.3928  -2.3909  -2.3646  -2.3620  -2.3472
    -2.3466  -2.3295  -2.3287  -2.3194  -2.3192  -2.3182  -2.3160  -2.2983
    -2.2971  -2.2966  -2.2938  -2.2785  -2.2522  -2.2516  -2.2122  -2.2106
    -2.1870  -2.1863  -2.1588  -2.1582  -2.1311  -2.1302  -2.1133  -2.1089
    -2.0818  -2.0615  -2.0599  -2.0546  -2.0535  -2.0496  -2.0429  -2.0412
    -2.0156  -2.0099  -2.0011  -1.9427  -1.9399  -1.9378  -1.9364  -1.9348
    -1.8999  -1.8809  -1.8785  -1.8519  -1.8515  -1.7930  -1.7906  -1.7624
    -1.7439  -1.7429  -1.6829  -1.6821  -1.6716  -1.6697  -1.6599  -1.6587
    -1.6557  -1.6474  -1.6453  -1.5910  -1.5892  -1.5788  -1.5782  -1.5770
    -1.5596  -1.5566  -1.5227  -1.5223  -1.5059  -1.5054  -1.5040  -1.4975
    -1.4930  -1.4843  -1.4822  -1.4642  -1.4632  -1.4228  -1.4217  -1.4116
    -1.4089  -1.3901  -1.3758  -1.3342  -1.3324  -1.3067  -1.3025  -1.3016
    -1.2727  -1.2219  -1.2209  -1.2192  -1.2187  -1.2145  -1.2126  -1.2031
    -1.1861  -1.1835  -1.1456  -1.1429  -1.1141  -1.1135  -1.1082  -1.1073
    -1.1001  -1.0848  -1.0841  -1.0826  -1.0796  -1.0786  -1.0427  -1.0409
    -1.0394  -1.0388  -1.0100  -1.0080  -1.0044  -0.9807  -0.9750  -0.9713
    -0.9270  -0.9210  -0.9178  -0.8859  -0.8756  -0.8650  -0.8645  -0.8594
    -0.8559  -0.8553  -0.8535  -0.8437  -0.8419  -0.8178  -0.8170  -0.8133
    -0.8125  -0.8104  -0.7748  -0.7733  -0.7684  -0.7629  -0.7496  -0.7416
    -0.7388  -0.7280  -0.6903  -0.6715  -0.6665  -0.6609  -0.6606  -0.6589
    -0.6552  -0.6415  -0.6341  -0.6273  -0.6258  -0.6245  -0.6231  -0.5972
    -0.5825  -0.5821  -0.5796  -0.5725  -0.5689  -0.5660  -0.5630  -0.5539
    -0.5471  -0.5463  -0.5320  -0.5044  -0.5031  -0.4955  -0.4915  -0.4902
    -0.4151  -0.4132  -0.4112  -0.4100  -0.4020  -0.3998  -0.3650  -0.3529
    -0.3522  -0.3230  -0.3204  -0.3186  -0.2004  -0.1972  -0.0968   0.3184
     0.3191   0.3219   0.3227   0.3838   0.3860   0.7697   0.7730   0.8139
     0.8150   0.9264   1.0042   1.1130   1.1185   1.3363   1.3429   1.9674
     1.9709   2.1297   2.1334   2.2636   2.2674   2.3670   2.3685   2.5217
     2.7589   2.7717   2.8832   3.1053   3.1122   3.1897   3.1922   3.2898
     3.3070   3.5038   3.5194   3.5627   3.7632   3.7653   3.8264   3.8299
     4.0825   4.0906   4.0944   4.3346   4.3743   4.3772   4.4212   4.7538
     4.7601   4.7853   4.9228   5.0940   5.0962   5.1521   5.1775   5.5134
     5.7936   5.8800   5.8843   5.8928   5.9225   5.9541   5.9595   6.0527
     6.0701   6.0914   6.1130   6.1230   6.1257   6.1533   6.1578   6.1803
     6.1838   6.4382   6.5909   6.7228   6.7497   6.7825   6.8297   6.8364
     6.8400   6.9473   7.0255

          k =-0.5000 0.0000 0.1111 (136853 PWs)   bands (ev):

   -18.5835  -6.4618  -6.3889  -5.9965  -5.9944  -5.3174  -4.9857  -4.9836
    -4.9470  -4.9431  -4.5851  -4.5835  -4.4859  -4.4856  -4.4714  -4.4493
    -4.4254  -4.3189  -4.3176  -4.2940  -4.2506  -4.2503  -4.1820  -4.1811
    -4.1755  -4.1738  -4.1532  -4.1492  -4.1453  -4.0788  -4.0723  -4.0460
    -4.0438  -4.0330  -4.0326  -4.0095  -4.0094  -3.9870  -3.9786  -3.9784
    -3.9521  -3.8999  -3.8994  -3.8527  -3.8503  -3.7929  -3.7926  -3.7382
    -3.7375  -3.7374  -3.7369  -3.7018  -3.6643  -3.6633  -3.6559  -3.6553
    -3.6543  -3.6255  -3.6233  -3.6153  -3.5545  -3.5542  -3.5452  -3.5275
    -3.5202  -3.4489  -3.4474  -3.4158  -3.4137  -3.3872  -3.3860  -3.3728
    -3.3564  -3.2977  -3.2960  -3.2788  -3.2782  -3.2278  -3.2228  -3.2215
    -3.1829  -3.1540  -3.1510  -3.1437  -3.1426  -3.1314  -3.1298  -3.1227
    -3.1214  -3.1125  -3.0712  -3.0342  -3.0323  -3.0190  -3.0185  -2.9923
    -2.9832  -2.9831  -2.9617  -2.9179  -2.9155  -2.9081  -2.8681  -2.8614
    -2.8505  -2.8495  -2.8234  -2.8204  -2.7913  -2.7574  -2.7535  -2.7322
    -2.7243  -2.7152  -2.7095  -2.6739  -2.6597  -2.6551  -2.6261  -2.6038
    -2.6025  -2.5791  -2.5769  -2.5673  -2.5660  -2.5572  -2.5341  -2.5328
    -2.4894  -2.4887  -2.4876  -2.4719  -2.4710  -2.4655  -2.4570  -2.4546
    -2.4538  -2.4527  -2.4476  -2.4362  -2.4342  -2.4239  -2.3993  -2.3974
    -2.3966  -2.3950  -2.3947  -2.3928  -2.3909  -2.3646  -2.3620  -2.3472
    -2.3466  -2.3295  -2.3287  -2.3194  -2.3192  -2.3182  -2.3160  -2.2983
    -2.2971  -2.2966  -2.2938  -2.2785  -2.2522  -2.2516  -2.2122  -2.2106
    -2.1870  -2.1863  -2.1588  -2.1582  -2.1311  -2.1302  -2.1133  -2.1089
    -2.0818  -2.0615  -2.0599  -2.0546  -2.0535  -2.0496  -2.0429  -2.0412
    -2.0156  -2.0099  -2.0011  -1.9427  -1.9399  -1.9378  -1.9364  -1.9348
    -1.8999  -1.8809  -1.8785  -1.8519  -1.8515  -1.7930  -1.7906  -1.7624
    -1.7439  -1.7429  -1.6829  -1.6821  -1.6716  -1.6697  -1.6599  -1.6587
    -1.6557  -1.6474  -1.6453  -1.5910  -1.5892  -1.5788  -1.5782  -1.5770
    -1.5596  -1.5566  -1.5227  -1.5223  -1.5059  -1.5054  -1.5040  -1.4975
    -1.4930  -1.4843  -1.4822  -1.4642  -1.4632  -1.4228  -1.4217  -1.4116
    -1.4089  -1.3901  -1.3758  -1.3342  -1.3324  -1.3067  -1.3025  -1.3016
    -1.2727  -1.2219  -1.2209  -1.2192  -1.2187  -1.2145  -1.2126  -1.2031
    -1.1861  -1.1835  -1.1456  -1.1429  -1.1141  -1.1135  -1.1082  -1.1073
    -1.1001  -1.0848  -1.0841  -1.0826  -1.0796  -1.0786  -1.0427  -1.0409
    -1.0394  -1.0388  -1.0100  -1.0080  -1.0044  -0.9807  -0.9750  -0.9713
    -0.9270  -0.9210  -0.9178  -0.8859  -0.8756  -0.8650  -0.8645  -0.8594
    -0.8559  -0.8553  -0.8535  -0.8437  -0.8419  -0.8178  -0.8170  -0.8133
    -0.8125  -0.8104  -0.7748  -0.7733  -0.7684  -0.7629  -0.7496  -0.7416
    -0.7388  -0.7280  -0.6903  -0.6715  -0.6665  -0.6609  -0.6606  -0.6589
    -0.6552  -0.6415  -0.6341  -0.6273  -0.6258  -0.6245  -0.6231  -0.5972
    -0.5825  -0.5821  -0.5796  -0.5725  -0.5689  -0.5660  -0.5630  -0.5539
    -0.5471  -0.5463  -0.5320  -0.5044  -0.5031  -0.4955  -0.4915  -0.4902
    -0.4151  -0.4132  -0.4112  -0.4100  -0.4020  -0.3998  -0.3650  -0.3529
    -0.3522  -0.3230  -0.3204  -0.3186  -0.2004  -0.1972  -0.0968   0.3184
     0.3191   0.3219   0.3227   0.3838   0.3860   0.7697   0.7730   0.8139
     0.8150   0.9264   1.0042   1.1130   1.1185   1.3363   1.3429   1.9674
     1.9709   2.1297   2.1334   2.2636   2.2674   2.3670   2.3685   2.5217
     2.7589   2.7717   2.8832   3.1053   3.1122   3.1897   3.1922   3.2898
     3.3070   3.5038   3.5194   3.5627   3.7632   3.7653   3.8264   3.8299
     4.0825   4.0906   4.0944   4.3346   4.3743   4.3772   4.4212   4.7538
     4.7601   4.7853   4.9228   5.0940   5.0962   5.1520   5.1775   5.5135
     5.7932   5.8800   5.8843   5.8928   5.9224   5.9541   5.9595   6.0524
     6.0700   6.0915   6.1143   6.1237   6.1259   6.1531   6.1577   6.1803
     6.1838   6.4393   6.5915   6.7107   6.7487   6.7826   6.8295   6.8357
     6.8398   6.9473   7.0443

          k =-0.2500 0.1443 0.1111 (136898 PWs)   bands (ev):

   -18.5835  -6.6085  -6.4516  -5.8130  -5.5209  -5.4630  -5.4626  -4.9247
    -4.9245  -4.7929  -4.7922  -4.6371  -4.6074  -4.5450  -4.5118  -4.5107
    -4.4781  -4.4778  -4.3494  -4.3077  -4.3074  -4.2478  -4.2268  -4.2263
    -4.1242  -4.1240  -4.0880  -4.0876  -4.0875  -4.0608  -4.0393  -4.0390
    -3.9347  -3.9321  -3.9318  -3.9115  -3.8944  -3.8942  -3.8825  -3.8818
    -3.8690  -3.8389  -3.8385  -3.8383  -3.8380  -3.8058  -3.8056  -3.7879
    -3.7876  -3.7747  -3.7325  -3.7309  -3.6998  -3.6858  -3.6838  -3.6793
    -3.6793  -3.6049  -3.6048  -3.5702  -3.5678  -3.5668  -3.4995  -3.4992
    -3.4842  -3.4835  -3.4537  -3.4533  -3.4520  -3.4516  -3.2985  -3.2977
    -3.2741  -3.2727  -3.2681  -3.2517  -3.2511  -3.2258  -3.2255  -3.1757
    -3.1753  -3.1597  -3.1589  -3.1388  -3.0921  -3.0903  -3.0713  -3.0662
    -3.0653  -3.0254  -3.0245  -3.0181  -3.0174  -3.0027  -3.0006  -2.9622
    -2.9617  -2.9405  -2.9402  -2.9372  -2.9364  -2.9331  -2.8584  -2.8564
    -2.8549  -2.8263  -2.8253  -2.7691  -2.7642  -2.7370  -2.7350  -2.7230
    -2.7212  -2.7161  -2.6943  -2.6863  -2.6793  -2.6761  -2.6578  -2.6332
    -2.6328  -2.6225  -2.6119  -2.6100  -2.6002  -2.5984  -2.5966  -2.5885
    -2.5863  -2.5426  -2.5104  -2.5100  -2.4944  -2.4808  -2.4749  -2.4736
    -2.4670  -2.4660  -2.4646  -2.4353  -2.4345  -2.4343  -2.4250  -2.4248
    -2.4081  -2.3808  -2.3795  -2.3794  -2.3790  -2.3782  -2.3328  -2.3020
    -2.3013  -2.3007  -2.2943  -2.2853  -2.2734  -2.2724  -2.2556  -2.2555
    -2.2235  -2.2206  -2.2204  -2.2020  -2.2012  -2.2003  -2.1680  -2.1672
    -2.1283  -2.1249  -2.1189  -2.1166  -2.1161  -2.1103  -2.1093  -2.1067
    -2.1064  -2.1006  -2.0991  -2.0838  -2.0828  -1.9568  -1.9554  -1.9232
    -1.9174  -1.9163  -1.9111  -1.9110  -1.8942  -1.8934  -1.8911  -1.8901
    -1.8884  -1.8658  -1.8585  -1.8574  -1.8522  -1.8461  -1.8451  -1.8226
    -1.8223  -1.7938  -1.7937  -1.7625  -1.7619  -1.7514  -1.7431  -1.7257
    -1.7248  -1.7222  -1.7044  -1.6913  -1.6912  -1.6839  -1.6838  -1.6578
    -1.6572  -1.6407  -1.6398  -1.6072  -1.6069  -1.5978  -1.5479  -1.5474
    -1.5349  -1.5333  -1.5328  -1.5081  -1.5056  -1.4730  -1.4718  -1.4713
    -1.4378  -1.4280  -1.4271  -1.4119  -1.4112  -1.3865  -1.3839  -1.3834
    -1.3540  -1.3511  -1.3509  -1.2889  -1.2875  -1.2762  -1.2742  -1.2592
    -1.2587  -1.2460  -1.2453  -1.2276  -1.2149  -1.1878  -1.1868  -1.1759
    -1.1476  -1.1377  -1.1364  -1.1251  -1.1250  -1.1237  -1.1190  -1.1173
    -1.1039  -1.0746  -1.0739  -1.0634  -1.0614  -1.0598  -1.0589  -1.0370
    -1.0208  -1.0169  -0.9997  -0.9955  -0.9044  -0.8906  -0.8874  -0.8851
    -0.8840  -0.8761  -0.8751  -0.8578  -0.8507  -0.8361  -0.8336  -0.8205
    -0.8198  -0.8109  -0.7918  -0.7907  -0.7876  -0.7800  -0.7092  -0.7075
    -0.6996  -0.6727  -0.6692  -0.6665  -0.6613  -0.6602  -0.6602  -0.6497
    -0.6470  -0.6314  -0.6147  -0.6059  -0.5800  -0.5716  -0.5711  -0.5601
    -0.5543  -0.5478  -0.5465  -0.5452  -0.5440  -0.5366  -0.5272  -0.5226
    -0.5169  -0.4922  -0.4904  -0.4876  -0.4781  -0.4772  -0.4587  -0.4266
    -0.4251  -0.4172  -0.4153  -0.3493  -0.3483  -0.3120  -0.3120  -0.2537
    -0.2532  -0.2527  -0.2376  -0.2257   0.0006   0.0031   0.3472   0.3474
     0.4390   0.4420   0.6345   0.6496   0.6649   0.7948   0.7960   1.2274
     1.2277   1.2449   1.5066   1.5374   1.5377   1.8144   1.8197   1.8927
     1.8938   1.9199   1.9237   2.1491   2.1502   2.2382   2.2391   2.3172
     2.3775   2.3823   2.5416   2.6418   3.0772   3.0811   3.0839   3.0858
     3.1380   3.1395   3.4312   3.4319   3.7120   3.7171   3.8257   4.1273
     4.1682   4.1725   4.3899   4.4102   4.4690   4.4724   4.5633   4.6789
     4.6823   4.7971   4.7986   5.1016   5.1660   5.1735   5.3185   5.3603
     5.4310   5.5561   5.5608   5.5850   5.5870   5.6464   5.6513   5.7019
     5.8499   6.0555   6.2567   6.2772   6.3518   6.3901   6.3933   6.4052
     6.4064   6.5426   6.6345   6.6481   6.6547   6.8421   6.8806   6.9039
     6.9297   7.0073   7.1037

          k =-0.2500-0.1443-0.1111 (136898 PWs)   bands (ev):

   -18.5836  -6.6086  -6.4516  -5.8129  -5.5209  -5.4631  -5.4627  -4.9246
    -4.9245  -4.7933  -4.7918  -4.6371  -4.6074  -4.5451  -4.5114  -4.5111
    -4.4780  -4.4778  -4.3493  -4.3077  -4.3074  -4.2477  -4.2267  -4.2265
    -4.1241  -4.1240  -4.0879  -4.0878  -4.0875  -4.0609  -4.0393  -4.0390
    -3.9349  -3.9321  -3.9319  -3.9115  -3.8946  -3.8942  -3.8823  -3.8819
    -3.8692  -3.8388  -3.8386  -3.8380  -3.8379  -3.8060  -3.8054  -3.7878
    -3.7876  -3.7752  -3.7326  -3.7302  -3.7001  -3.6853  -3.6839  -3.6794
    -3.6792  -3.6050  -3.6047  -3.5704  -3.5674  -3.5667  -3.4996  -3.4994
    -3.4838  -3.4837  -3.4535  -3.4527  -3.4524  -3.4520  -3.2984  -3.2980
    -3.2746  -3.2725  -3.2678  -3.2516  -3.2511  -3.2258  -3.2252  -3.1756
    -3.1754  -3.1596  -3.1591  -3.1388  -3.0922  -3.0899  -3.0711  -3.0662
    -3.0655  -3.0253  -3.0246  -3.0181  -3.0174  -3.0017  -3.0011  -2.9620
    -2.9618  -2.9416  -2.9394  -2.9370  -2.9364  -2.9331  -2.8577  -2.8563
    -2.8553  -2.8261  -2.8256  -2.7706  -2.7634  -2.7371  -2.7346  -2.7239
    -2.7210  -2.7159  -2.6931  -2.6860  -2.6795  -2.6755  -2.6569  -2.6335
    -2.6325  -2.6251  -2.6119  -2.6108  -2.6007  -2.5992  -2.5967  -2.5885
    -2.5848  -2.5426  -2.5105  -2.5098  -2.4943  -2.4810  -2.4746  -2.4738
    -2.4667  -2.4665  -2.4649  -2.4349  -2.4348  -2.4339  -2.4251  -2.4242
    -2.4080  -2.3807  -2.3801  -2.3794  -2.3787  -2.3781  -2.3330  -2.3021
    -2.3012  -2.3010  -2.2942  -2.2854  -2.2727  -2.2725  -2.2556  -2.2552
    -2.2235  -2.2205  -2.2203  -2.2020  -2.2013  -2.2004  -2.1680  -2.1673
    -2.1281  -2.1248  -2.1186  -2.1165  -2.1162  -2.1105  -2.1095  -2.1076
    -2.1065  -2.1002  -2.0993  -2.0839  -2.0832  -1.9573  -1.9554  -1.9223
    -1.9172  -1.9166  -1.9110  -1.9108  -1.8949  -1.8943  -1.8910  -1.8898
    -1.8877  -1.8659  -1.8589  -1.8573  -1.8519  -1.8467  -1.8441  -1.8228
    -1.8226  -1.7943  -1.7934  -1.7630  -1.7614  -1.7517  -1.7429  -1.7255
    -1.7253  -1.7219  -1.7044  -1.6915  -1.6912  -1.6841  -1.6839  -1.6576
    -1.6568  -1.6405  -1.6398  -1.6079  -1.6073  -1.5975  -1.5479  -1.5470
    -1.5338  -1.5337  -1.5328  -1.5084  -1.5053  -1.4731  -1.4723  -1.4711
    -1.4373  -1.4285  -1.4271  -1.4115  -1.4113  -1.3860  -1.3838  -1.3833
    -1.3542  -1.3511  -1.3509  -1.2894  -1.2882  -1.2763  -1.2749  -1.2595
    -1.2582  -1.2459  -1.2454  -1.2273  -1.2148  -1.1885  -1.1862  -1.1752
    -1.1457  -1.1375  -1.1372  -1.1252  -1.1251  -1.1232  -1.1180  -1.1178
    -1.1038  -1.0756  -1.0733  -1.0674  -1.0618  -1.0600  -1.0592  -1.0376
    -1.0191  -1.0181  -0.9968  -0.9964  -0.9038  -0.8913  -0.8853  -0.8850
    -0.8810  -0.8799  -0.8749  -0.8532  -0.8508  -0.8350  -0.8346  -0.8215
    -0.8198  -0.8118  -0.7929  -0.7897  -0.7886  -0.7800  -0.7091  -0.7072
    -0.6985  -0.6736  -0.6694  -0.6665  -0.6623  -0.6604  -0.6603  -0.6542
    -0.6461  -0.6311  -0.6058  -0.6038  -0.5917  -0.5720  -0.5708  -0.5603
    -0.5572  -0.5471  -0.5467  -0.5449  -0.5445  -0.5338  -0.5269  -0.5227
    -0.5173  -0.4921  -0.4896  -0.4858  -0.4779  -0.4754  -0.4587  -0.4265
    -0.4257  -0.4173  -0.4160  -0.3490  -0.3476  -0.3123  -0.3115  -0.2537
    -0.2533  -0.2522  -0.2405  -0.2257   0.0008   0.0061   0.3473   0.3473
     0.4389   0.4430   0.6321   0.6502   0.6650   0.7948   0.7962   1.2273
     1.2276   1.2456   1.5057   1.5372   1.5377   1.8155   1.8199   1.8925
     1.8932   1.9199   1.9237   2.1479   2.1504   2.2384   2.2391   2.3174
     2.3784   2.3817   2.5415   2.6406   3.0789   3.0806   3.0838   3.0855
     3.1365   3.1405   3.4313   3.4315   3.7119   3.7168   3.8250   4.1278
     4.1669   4.1720   4.3912   4.4101   4.4700   4.4723   4.5615   4.6813
     4.6821   4.7976   4.7988   5.1004   5.1710   5.1733   5.3244   5.3597
     5.4255   5.5569   5.5603   5.5851   5.5864   5.6495   5.6502   5.7030
     5.8511   6.0663   6.2506   6.2646   6.3390   6.3862   6.3942   6.4047
     6.4066   6.5496   6.6421   6.6488   6.6656   6.8469   6.8845   6.8956
     6.9197   7.0135   7.0943

          k = 0.2500 0.1443-0.1111 (136898 PWs)   bands (ev):

   -18.5835  -6.6086  -6.4516  -5.8129  -5.5209  -5.4631  -5.4627  -4.9246
    -4.9245  -4.7933  -4.7919  -4.6372  -4.6074  -4.5451  -4.5114  -4.5111
    -4.4780  -4.4778  -4.3493  -4.3077  -4.3074  -4.2477  -4.2267  -4.2265
    -4.1241  -4.1240  -4.0879  -4.0878  -4.0875  -4.0609  -4.0393  -4.0390
    -3.9349  -3.9321  -3.9319  -3.9115  -3.8946  -3.8942  -3.8823  -3.8819
    -3.8692  -3.8388  -3.8386  -3.8380  -3.8379  -3.8060  -3.8054  -3.7878
    -3.7876  -3.7752  -3.7326  -3.7302  -3.7001  -3.6853  -3.6839  -3.6794
    -3.6792  -3.6050  -3.6047  -3.5704  -3.5674  -3.5667  -3.4996  -3.4994
    -3.4838  -3.4837  -3.4535  -3.4527  -3.4524  -3.4520  -3.2984  -3.2980
    -3.2746  -3.2725  -3.2678  -3.2516  -3.2511  -3.2258  -3.2252  -3.1756
    -3.1754  -3.1596  -3.1591  -3.1388  -3.0922  -3.0899  -3.0711  -3.0662
    -3.0655  -3.0253  -3.0246  -3.0181  -3.0174  -3.0017  -3.0011  -2.9620
    -2.9618  -2.9416  -2.9394  -2.9370  -2.9364  -2.9331  -2.8577  -2.8563
    -2.8553  -2.8261  -2.8256  -2.7706  -2.7634  -2.7371  -2.7346  -2.7239
    -2.7210  -2.7159  -2.6931  -2.6860  -2.6795  -2.6755  -2.6569  -2.6335
    -2.6325  -2.6251  -2.6119  -2.6108  -2.6007  -2.5992  -2.5967  -2.5885
    -2.5848  -2.5426  -2.5105  -2.5098  -2.4943  -2.4810  -2.4746  -2.4738
    -2.4667  -2.4665  -2.4649  -2.4349  -2.4348  -2.4339  -2.4251  -2.4242
    -2.4080  -2.3807  -2.3801  -2.3794  -2.3787  -2.3781  -2.3330  -2.3021
    -2.3012  -2.3010  -2.2942  -2.2853  -2.2727  -2.2725  -2.2556  -2.2552
    -2.2235  -2.2205  -2.2203  -2.2020  -2.2013  -2.2004  -2.1680  -2.1673
    -2.1281  -2.1248  -2.1186  -2.1165  -2.1162  -2.1105  -2.1095  -2.1076
    -2.1065  -2.1002  -2.0993  -2.0839  -2.0832  -1.9573  -1.9554  -1.9223
    -1.9172  -1.9166  -1.9110  -1.9108  -1.8949  -1.8943  -1.8910  -1.8898
    -1.8877  -1.8659  -1.8589  -1.8573  -1.8519  -1.8467  -1.8441  -1.8228
    -1.8226  -1.7943  -1.7934  -1.7630  -1.7614  -1.7517  -1.7429  -1.7255
    -1.7253  -1.7219  -1.7043  -1.6915  -1.6912  -1.6841  -1.6839  -1.6576
    -1.6568  -1.6405  -1.6398  -1.6079  -1.6073  -1.5975  -1.5479  -1.5470
    -1.5338  -1.5337  -1.5328  -1.5084  -1.5053  -1.4731  -1.4723  -1.4711
    -1.4373  -1.4285  -1.4271  -1.4115  -1.4112  -1.3860  -1.3838  -1.3833
    -1.3542  -1.3511  -1.3509  -1.2894  -1.2882  -1.2763  -1.2749  -1.2595
    -1.2582  -1.2459  -1.2454  -1.2273  -1.2148  -1.1885  -1.1862  -1.1752
    -1.1457  -1.1375  -1.1372  -1.1252  -1.1251  -1.1232  -1.1180  -1.1178
    -1.1038  -1.0756  -1.0733  -1.0674  -1.0618  -1.0600  -1.0592  -1.0376
    -1.0191  -1.0180  -0.9968  -0.9964  -0.9038  -0.8913  -0.8853  -0.8850
    -0.8810  -0.8799  -0.8749  -0.8532  -0.8508  -0.8350  -0.8346  -0.8215
    -0.8198  -0.8118  -0.7929  -0.7897  -0.7886  -0.7800  -0.7091  -0.7072
    -0.6985  -0.6736  -0.6694  -0.6665  -0.6623  -0.6604  -0.6603  -0.6542
    -0.6461  -0.6311  -0.6058  -0.6038  -0.5917  -0.5720  -0.5707  -0.5603
    -0.5572  -0.5471  -0.5468  -0.5449  -0.5445  -0.5338  -0.5269  -0.5227
    -0.5173  -0.4921  -0.4896  -0.4858  -0.4779  -0.4754  -0.4587  -0.4265
    -0.4257  -0.4173  -0.4159  -0.3490  -0.3476  -0.3123  -0.3115  -0.2537
    -0.2533  -0.2522  -0.2405  -0.2257   0.0008   0.0061   0.3473   0.3473
     0.4389   0.4430   0.6321   0.6502   0.6650   0.7948   0.7962   1.2273
     1.2276   1.2456   1.5057   1.5372   1.5377   1.8155   1.8199   1.8925
     1.8932   1.9199   1.9237   2.1479   2.1504   2.2384   2.2391   2.3174
     2.3784   2.3817   2.5415   2.6406   3.0789   3.0806   3.0838   3.0855
     3.1365   3.1405   3.4313   3.4315   3.7119   3.7168   3.8250   4.1278
     4.1669   4.1720   4.3912   4.4101   4.4700   4.4723   4.5615   4.6813
     4.6821   4.7976   4.7988   5.1004   5.1710   5.1733   5.3243   5.3597
     5.4256   5.5569   5.5603   5.5851   5.5864   5.6495   5.6502   5.7032
     5.8494   6.0695   6.2508   6.2667   6.3386   6.3863   6.3942   6.4047
     6.4066   6.5406   6.6424   6.6487   6.6583   6.8492   6.8847   6.9002
     6.9209   7.0101   7.0991

          k = 0.0000-0.2887 0.1111 (136898 PWs)   bands (ev):

   -18.5835  -6.6085  -6.4516  -5.8130  -5.5209  -5.4629  -5.4627  -4.9246
    -4.9244  -4.7928  -4.7923  -4.6372  -4.6074  -4.5451  -4.5117  -4.5108
    -4.4780  -4.4778  -4.3493  -4.3077  -4.3074  -4.2476  -4.2269  -4.2264
    -4.1242  -4.1240  -4.0880  -4.0877  -4.0875  -4.0608  -4.0393  -4.0390
    -3.9347  -3.9321  -3.9318  -3.9114  -3.8946  -3.8942  -3.8825  -3.8818
    -3.8690  -3.8389  -3.8386  -3.8381  -3.8378  -3.8059  -3.8056  -3.7878
    -3.7876  -3.7746  -3.7325  -3.7310  -3.6999  -3.6857  -3.6838  -3.6793
    -3.6792  -3.6050  -3.6048  -3.5701  -3.5677  -3.5667  -3.4996  -3.4993
    -3.4841  -3.4834  -3.4535  -3.4532  -3.4524  -3.4518  -3.2986  -3.2978
    -3.2743  -3.2726  -3.2680  -3.2517  -3.2511  -3.2258  -3.2255  -3.1758
    -3.1754  -3.1598  -3.1589  -3.1386  -3.0917  -3.0904  -3.0713  -3.0664
    -3.0654  -3.0256  -3.0246  -3.0180  -3.0174  -3.0026  -3.0007  -2.9620
    -2.9615  -2.9404  -2.9402  -2.9370  -2.9364  -2.9332  -2.8585  -2.8564
    -2.8551  -2.8264  -2.8254  -2.7685  -2.7642  -2.7373  -2.7350  -2.7233
    -2.7210  -2.7161  -2.6935  -2.6862  -2.6799  -2.6761  -2.6572  -2.6335
    -2.6326  -2.6231  -2.6119  -2.6100  -2.6005  -2.5988  -2.5965  -2.5885
    -2.5856  -2.5425  -2.5105  -2.5100  -2.4944  -2.4810  -2.4749  -2.4736
    -2.4671  -2.4660  -2.4648  -2.4353  -2.4345  -2.4343  -2.4251  -2.4244
    -2.4080  -2.3809  -2.3799  -2.3795  -2.3786  -2.3780  -2.3330  -2.3022
    -2.3013  -2.3007  -2.2943  -2.2854  -2.2733  -2.2723  -2.2554  -2.2553
    -2.2235  -2.2206  -2.2203  -2.2021  -2.2012  -2.2003  -2.1681  -2.1671
    -2.1281  -2.1249  -2.1188  -2.1166  -2.1159  -2.1106  -2.1093  -2.1068
    -2.1068  -2.1004  -2.0991  -2.0838  -2.0828  -1.9568  -1.9554  -1.9229
    -1.9173  -1.9163  -1.9110  -1.9109  -1.8946  -1.8940  -1.8910  -1.8901
    -1.8880  -1.8658  -1.8584  -1.8574  -1.8522  -1.8460  -1.8448  -1.8228
    -1.8225  -1.7941  -1.7937  -1.7625  -1.7619  -1.7513  -1.7431  -1.7257
    -1.7247  -1.7219  -1.7044  -1.6915  -1.6913  -1.6840  -1.6838  -1.6576
    -1.6570  -1.6408  -1.6397  -1.6076  -1.6071  -1.5978  -1.5480  -1.5474
    -1.5347  -1.5335  -1.5328  -1.5084  -1.5053  -1.4730  -1.4718  -1.4713
    -1.4377  -1.4280  -1.4271  -1.4118  -1.4111  -1.3864  -1.3839  -1.3833
    -1.3539  -1.3512  -1.3508  -1.2891  -1.2877  -1.2763  -1.2743  -1.2592
    -1.2589  -1.2459  -1.2452  -1.2272  -1.2147  -1.1881  -1.1867  -1.1758
    -1.1469  -1.1377  -1.1365  -1.1252  -1.1251  -1.1239  -1.1188  -1.1174
    -1.1038  -1.0748  -1.0738  -1.0643  -1.0619  -1.0598  -1.0591  -1.0371
    -1.0205  -1.0172  -0.9993  -0.9954  -0.9042  -0.8907  -0.8868  -0.8851
    -0.8836  -0.8768  -0.8750  -0.8565  -0.8507  -0.8362  -0.8337  -0.8206
    -0.8199  -0.8111  -0.7921  -0.7905  -0.7877  -0.7801  -0.7101  -0.7075
    -0.6983  -0.6727  -0.6693  -0.6667  -0.6614  -0.6603  -0.6602  -0.6511
    -0.6471  -0.6314  -0.6124  -0.6057  -0.5824  -0.5718  -0.5706  -0.5601
    -0.5553  -0.5479  -0.5465  -0.5451  -0.5441  -0.5355  -0.5272  -0.5227
    -0.5172  -0.4921  -0.4904  -0.4867  -0.4780  -0.4767  -0.4587  -0.4265
    -0.4252  -0.4171  -0.4156  -0.3492  -0.3483  -0.3122  -0.3117  -0.2538
    -0.2531  -0.2526  -0.2386  -0.2257   0.0006   0.0042   0.3472   0.3474
     0.4390   0.4423   0.6337   0.6498   0.6648   0.7947   0.7960   1.2274
     1.2277   1.2451   1.5064   1.5375   1.5377   1.8146   1.8197   1.8925
     1.8940   1.9199   1.9236   2.1489   2.1502   2.2382   2.2391   2.3173
     2.3777   2.3821   2.5414   2.6416   3.0769   3.0817   3.0839   3.0858
     3.1379   3.1397   3.4311   3.4320   3.7121   3.7169   3.8256   4.1274
     4.1679   4.1722   4.3902   4.4098   4.4693   4.4723   4.5631   4.6793
     4.6820   4.7973   4.7990   5.1014   5.1671   5.1732   5.3199   5.3595
     5.4298   5.5561   5.5604   5.5848   5.5870   5.6458   5.6522   5.7031
     5.8498   6.0597   6.2557   6.2742   6.3476   6.3901   6.3931   6.4048
     6.4070   6.5420   6.6358   6.6479   6.6553   6.8439   6.8840   6.9017
     6.9268   7.0083   7.0995

          k = 0.0000 0.2887 0.1111 (136898 PWs)   bands (ev):

   -18.5835  -6.6085  -6.4516  -5.8130  -5.5209  -5.4629  -5.4627  -4.9246
    -4.9244  -4.7928  -4.7923  -4.6372  -4.6074  -4.5451  -4.5117  -4.5108
    -4.4780  -4.4778  -4.3493  -4.3077  -4.3074  -4.2476  -4.2269  -4.2264
    -4.1242  -4.1240  -4.0880  -4.0877  -4.0875  -4.0608  -4.0393  -4.0390
    -3.9347  -3.9321  -3.9318  -3.9114  -3.8946  -3.8942  -3.8825  -3.8818
    -3.8690  -3.8389  -3.8386  -3.8381  -3.8378  -3.8059  -3.8056  -3.7878
    -3.7876  -3.7746  -3.7325  -3.7310  -3.6999  -3.6857  -3.6838  -3.6793
    -3.6792  -3.6050  -3.6048  -3.5701  -3.5677  -3.5667  -3.4996  -3.4993
    -3.4841  -3.4834  -3.4535  -3.4532  -3.4524  -3.4518  -3.2986  -3.2978
    -3.2743  -3.2726  -3.2680  -3.2517  -3.2511  -3.2258  -3.2254  -3.1758
    -3.1754  -3.1598  -3.1589  -3.1386  -3.0917  -3.0904  -3.0713  -3.0664
    -3.0654  -3.0256  -3.0246  -3.0180  -3.0174  -3.0026  -3.0007  -2.9620
    -2.9615  -2.9404  -2.9402  -2.9370  -2.9364  -2.9332  -2.8585  -2.8564
    -2.8551  -2.8264  -2.8254  -2.7685  -2.7642  -2.7373  -2.7350  -2.7233
    -2.7210  -2.7161  -2.6935  -2.6862  -2.6799  -2.6761  -2.6572  -2.6335
    -2.6326  -2.6231  -2.6119  -2.6100  -2.6005  -2.5988  -2.5965  -2.5885
    -2.5856  -2.5425  -2.5105  -2.5100  -2.4944  -2.4810  -2.4749  -2.4736
    -2.4671  -2.4660  -2.4648  -2.4353  -2.4345  -2.4343  -2.4251  -2.4244
    -2.4080  -2.3809  -2.3799  -2.3795  -2.3786  -2.3780  -2.3330  -2.3022
    -2.3013  -2.3007  -2.2943  -2.2853  -2.2733  -2.2723  -2.2554  -2.2553
    -2.2235  -2.2206  -2.2203  -2.2021  -2.2012  -2.2003  -2.1681  -2.1671
    -2.1281  -2.1249  -2.1188  -2.1166  -2.1159  -2.1106  -2.1093  -2.1068
    -2.1068  -2.1004  -2.0991  -2.0838  -2.0828  -1.9568  -1.9554  -1.9229
    -1.9173  -1.9163  -1.9110  -1.9109  -1.8946  -1.8940  -1.8910  -1.8901
    -1.8880  -1.8658  -1.8584  -1.8574  -1.8522  -1.8460  -1.8448  -1.8228
    -1.8225  -1.7941  -1.7937  -1.7625  -1.7619  -1.7513  -1.7431  -1.7257
    -1.7247  -1.7219  -1.7044  -1.6915  -1.6913  -1.6840  -1.6838  -1.6576
    -1.6570  -1.6408  -1.6397  -1.6076  -1.6071  -1.5978  -1.5480  -1.5474
    -1.5347  -1.5335  -1.5328  -1.5084  -1.5053  -1.4730  -1.4718  -1.4713
    -1.4377  -1.4280  -1.4271  -1.4118  -1.4111  -1.3864  -1.3839  -1.3833
    -1.3539  -1.3512  -1.3508  -1.2891  -1.2877  -1.2763  -1.2743  -1.2592
    -1.2589  -1.2459  -1.2452  -1.2272  -1.2147  -1.1881  -1.1867  -1.1758
    -1.1468  -1.1377  -1.1365  -1.1252  -1.1251  -1.1239  -1.1188  -1.1174
    -1.1038  -1.0748  -1.0738  -1.0643  -1.0619  -1.0598  -1.0591  -1.0371
    -1.0205  -1.0172  -0.9993  -0.9954  -0.9042  -0.8906  -0.8868  -0.8851
    -0.8836  -0.8768  -0.8750  -0.8566  -0.8507  -0.8362  -0.8337  -0.8206
    -0.8199  -0.8111  -0.7921  -0.7905  -0.7877  -0.7801  -0.7101  -0.7075
    -0.6983  -0.6727  -0.6693  -0.6667  -0.6614  -0.6603  -0.6602  -0.6511
    -0.6471  -0.6314  -0.6124  -0.6057  -0.5824  -0.5718  -0.5706  -0.5601
    -0.5553  -0.5479  -0.5465  -0.5451  -0.5441  -0.5355  -0.5272  -0.5228
    -0.5172  -0.4921  -0.4904  -0.4867  -0.4780  -0.4767  -0.4587  -0.4265
    -0.4252  -0.4171  -0.4155  -0.3492  -0.3483  -0.3122  -0.3117  -0.2538
    -0.2531  -0.2526  -0.2386  -0.2257   0.0006   0.0042   0.3472   0.3474
     0.4390   0.4423   0.6337   0.6498   0.6648   0.7947   0.7960   1.2274
     1.2277   1.2451   1.5064   1.5375   1.5377   1.8146   1.8197   1.8925
     1.8940   1.9199   1.9236   2.1489   2.1502   2.2382   2.2391   2.3173
     2.3777   2.3821   2.5414   2.6416   3.0768   3.0817   3.0839   3.0858
     3.1379   3.1397   3.4311   3.4320   3.7121   3.7169   3.8256   4.1274
     4.1679   4.1722   4.3902   4.4098   4.4693   4.4723   4.5631   4.6793
     4.6820   4.7973   4.7990   5.1014   5.1671   5.1732   5.3199   5.3595
     5.4297   5.5561   5.5604   5.5848   5.5870   5.6458   5.6522   5.7030
     5.8511   6.0580   6.2558   6.2725   6.3469   6.3900   6.3931   6.4047
     6.4069   6.5462   6.6353   6.6488   6.6578   6.8407   6.8824   6.9011
     6.9264   7.0113   7.1091

     the Fermi energy is     1.3710 ev

!    total energy              =   -6604.43436648 Ry
     Harris-Foulkes estimate   =   -6604.43436648 Ry
     estimated scf accuracy    <          2.8E-09 Ry

     The total energy is the sum of the following terms:

     one-electron contribution =  -48607.89840821 Ry
     hartree contribution      =   24803.52818285 Ry
     xc contribution           =   -3204.97304675 Ry
     ewald contribution        =   20404.90601662 Ry
     smearing contrib. (-TS)   =       0.00288902 Ry

     convergence has been achieved in  25 iterations

     Writing output data file 9543815.save

     init_run     :    140.62s CPU    154.08s WALL (       1 calls)
     electrons    :   8749.63s CPU   9406.70s WALL (       1 calls)

     Called by init_run:
     wfcinit      :    107.80s CPU    120.14s WALL (       1 calls)
     potinit      :      9.75s CPU     10.32s WALL (       1 calls)

     Called by electrons:
     c_bands      :   7171.87s CPU   7707.74s WALL (      26 calls)
     sum_band     :   1134.22s CPU   1237.19s WALL (      26 calls)
     v_of_rho     :    124.93s CPU    137.25s WALL (      26 calls)
     newd         :    329.14s CPU    334.42s WALL (      26 calls)
     mix_rho      :      3.36s CPU      3.73s WALL (      26 calls)
     vdW_energy   :      9.76s CPU     11.30s WALL (      26 calls)
     vdW_ffts     :     64.71s CPU     70.76s WALL (      52 calls)
     vdW_v        :     15.62s CPU     16.44s WALL (      26 calls)

     Called by c_bands:
     init_us_2    :     22.41s CPU     22.93s WALL (     636 calls)
     cegterg      :   7089.85s CPU   7624.13s WALL (     312 calls)

     Called by *egterg:
     h_psi        :   3091.42s CPU   3582.20s WALL (    1661 calls)
     s_psi        :    453.26s CPU    456.00s WALL (    1661 calls)
     g_psi        :      6.11s CPU      6.23s WALL (    1337 calls)
     cdiaghg      :   2099.81s CPU   2104.66s WALL (    1637 calls)

     Called by h_psi:
     add_vuspsi   :    454.86s CPU    458.00s WALL (    1661 calls)

     General routines
     calbec       :    675.90s CPU    679.08s WALL (    1973 calls)
     fft          :    151.28s CPU    161.58s WALL (    1716 calls)
     ffts         :      1.93s CPU      2.21s WALL (      52 calls)
     fftw         :   1963.97s CPU   2379.24s WALL (  750672 calls)
     interpolate  :      5.36s CPU      6.13s WALL (      52 calls)
     davcio       :      0.00s CPU      0.47s WALL (      12 calls)

     Parallel routines
     fft_scatter  :   1301.71s CPU   1558.82s WALL (  752440 calls)

     PWSCF        :     2h28m CPU        2h40m WALL


   This run was terminated on:   1:48:11  24Aug2015            

=------------------------------------------------------------------------------=
   JOB DONE.
=------------------------------------------------------------------------------=
