Setting SGE environment for SCC

     Program PWSCF v.5.1.2 starts on  1Jul2015 at 10:52:38 

     This program is part of the open-source Quantum ESPRESSO suite
     for quantum simulation of materials; please cite
         "P. Giannozzi et al., J. Phys.:Condens. Matter 21 395502 (2009);
          URL http://www.quantum-espresso.org", 
     in publications or presentations arising from this work. More details at
     http://www.quantum-espresso.org/quote

     Parallel version (MPI), running on    32 processors
     R & G space division:  proc/nbgrp/npool/nimage =      32
     Reading input from bridge.O1.Au5455.d.2.7.phi.45.psi.0.in
Warning: card &IONS ignored
Warning: card / ignored
Warning: card &CELL ignored
Warning: card / ignored

     Current dimensions of program PWSCF are:
     Max number of different atomic species (ntypx) = 10
     Max number of k-points (npk) =  40000
     Max angular momentum in pseudopotentials (lmaxx) =  3

     IMPORTANT: XC functional enforced from input :
     Exchange-correlation      = VDW-DF ( 1  4  4  0 1 0)
     Any further DFT definition will be discarded
     Please, verify this is what you really want


     Subspace diagonalization in iterative solution of the eigenvalue problem:
     a serial algorithm will be used


     Parallelization info
     --------------------
     sticks:   dense  smooth     PW     G-vecs:    dense   smooth      PW
     Min         445     223     58                96775    34191    4534
     Max         446     224     59                96790    34246    4540
     Sum       14269    7147   1867              3097177  1095093  145167


     Title: 
     bridge.O1.Au5455.d.2.7.phi.45.psi.0                                        


     bravais-lattice index     =            4
     lattice parameter (alat)  =      22.7436  a.u.
     unit-cell volume          =   22924.1508 (a.u.)^3
     number of atoms/cell      =           67
     number of atomic types    =            3
     number of electrons       =       712.00
     number of Kohn-Sham states=          427
     kinetic-energy cutoff     =      50.0000  Ry
     charge density cutoff     =     400.0000  Ry
     convergence threshold     =      1.0E-08
     mixing beta               =       0.7000
     number of iterations used =            8  plain     mixing
     Exchange-correlation      = VDW-DF ( 1  4  4  0 1 0)

     celldm(1)=  22.743643  celldm(2)=   0.000000  celldm(3)=   2.250000
     celldm(4)=   0.000000  celldm(5)=   0.000000  celldm(6)=   0.000000

     crystal axes: (cart. coord. in units of alat)
               a(1) = (   1.000000   0.000000   0.000000 )  
               a(2) = (  -0.500000   0.866025   0.000000 )  
               a(3) = (   0.000000   0.000000   2.250000 )  

     reciprocal axes: (cart. coord. in units 2 pi/alat)
               b(1) = (  1.000000  0.577350 -0.000000 )  
               b(2) = (  0.000000  1.154701  0.000000 )  
               b(3) = (  0.000000 -0.000000  0.444444 )  


     PseudoPot. # 1 for Au read from file:
     /home/scc/andrejb/qe/pseudo/Au.pbe-nd-van.UPF
     MD5 check sum: 458681b50f36d87ef23c61b04bba420a
     Pseudo is Ultrasoft + core correction, Zval = 11.0
     Generated by new atomic code, or converted to UPF format
     Using radial grid of  985 points,  3 beta functions with: 
                l(1) =   1
                l(2) =   2
                l(3) =   2
     Q(r) pseudized with  8 coefficients,  rinner =    1.100   1.100   1.100
                                                       1.100   1.100

     PseudoPot. # 2 for H  read from file:
     /home/scc/andrejb/qe/pseudo/H.pbe-van_ak.UPF
     MD5 check sum: 403db7282739603aa925980fa9b8608d
     Pseudo is Ultrasoft, Zval =  1.0
     Generated by new atomic code, or converted to UPF format
     Using radial grid of  615 points,  1 beta functions with: 
                l(1) =   0
     Q(r) pseudized with  8 coefficients,  rinner =    0.800

     PseudoPot. # 3 for O  read from file:
     /home/scc/andrejb/qe/pseudo/O.pbe-van_ak.UPF
     MD5 check sum: 4b8c549914a63cae506c6ff22b5af4fe
     Pseudo is Ultrasoft, Zval =  6.0
     Generated by new atomic code, or converted to UPF format
     Using radial grid of  737 points,  4 beta functions with: 
                l(1) =   0
                l(2) =   0
                l(3) =   1
                l(4) =   1
     Q(r) pseudized with  8 coefficients,  rinner =    0.800   0.800   0.800


     vdW kernel table read from file vdW_kernel_table
     MD5 check sum: 48e77a2e26edf626eeb0eaa751ad5cac

     atomic species   valence    mass     pseudopotential
        Au            11.00   196.96657     Au( 1.00)
        H              1.00     1.01000     H ( 1.00)
        O              6.00    16.00000     O ( 1.00)

     No symmetry found



   Cartesian axes

     site n.     atom                  positions (alat units)
         1           O   tau(   1) = (   0.2915728   0.2885783   1.0450762  )
         2           H   tau(   2) = (   0.2856432   0.2238914   1.0933298  )
         3           H   tau(   3) = (   0.2973092   0.3513172   1.0958369  )
         4           Au  tau(   4) = (   0.3540481   0.6132292   0.0000000  )
         5           Au  tau(   5) = (   0.4790062   0.3967954   0.0000000  )
         6           Au  tau(   6) = (   0.6039644   0.1803616   0.0000000  )
         7           Au  tau(   7) = (   0.7289225  -0.0360723   0.0000000  )
         8           Au  tau(   8) = (   0.1041318   0.6132292   0.0000000  )
         9           Au  tau(   9) = (   0.2290899   0.3967954   0.0000000  )
        10           Au  tau(  10) = (   0.3540481   0.1803616   0.0000000  )
        11           Au  tau(  11) = (   0.4790062  -0.0360723   0.0000000  )
        12           Au  tau(  12) = (  -0.1457845   0.6132292   0.0000000  )
        13           Au  tau(  13) = (  -0.0208264   0.3967954   0.0000000  )
        14           Au  tau(  14) = (   0.1041318   0.1803616   0.0000000  )
        15           Au  tau(  15) = (   0.2290899  -0.0360723   0.0000000  )
        16           Au  tau(  16) = (  -0.3957008   0.6132292   0.0000000  )
        17           Au  tau(  17) = (  -0.2707426   0.3967954   0.0000000  )
        18           Au  tau(  18) = (  -0.1457845   0.1803616   0.0000000  )
        19           Au  tau(  19) = (  -0.0208264  -0.0360723   0.0000000  )
        20           Au  tau(  20) = (   0.4790062   0.6853738   0.2040557  )
        21           Au  tau(  21) = (   0.6039644   0.4689400   0.2040557  )
        22           Au  tau(  22) = (   0.7289225   0.2525061   0.2040557  )
        23           Au  tau(  23) = (   0.8538806   0.0360723   0.2040557  )
        24           Au  tau(  24) = (   0.2290899   0.6853738   0.2040557  )
        25           Au  tau(  25) = (   0.3540481   0.4689400   0.2040557  )
        26           Au  tau(  26) = (   0.4790062   0.2525061   0.2040557  )
        27           Au  tau(  27) = (   0.6039644   0.0360723   0.2040557  )
        28           Au  tau(  28) = (  -0.0208264   0.6853738   0.2040557  )
        29           Au  tau(  29) = (   0.1041318   0.4689400   0.2040557  )
        30           Au  tau(  30) = (   0.2290899   0.2525061   0.2040557  )
        31           Au  tau(  31) = (   0.3540481   0.0360723   0.2040557  )
        32           Au  tau(  32) = (  -0.2707426   0.6853738   0.2040557  )
        33           Au  tau(  33) = (  -0.1457845   0.4689400   0.2040557  )
        34           Au  tau(  34) = (  -0.0208264   0.2525061   0.2040557  )
        35           Au  tau(  35) = (   0.1041318   0.0360723   0.2040557  )
        36           Au  tau(  36) = (   0.3541162   0.7576593   0.4066483  )
        37           Au  tau(  37) = (   0.4791000   0.5411421   0.4066695  )
        38           Au  tau(  38) = (   0.6040570   0.3246862   0.4066617  )
        39           Au  tau(  39) = (   0.7290270   0.1081684   0.4066529  )
        40           Au  tau(  40) = (   0.1041162   0.7576236   0.4066247  )
        41           Au  tau(  41) = (   0.2291001   0.5411063   0.4066455  )
        42           Au  tau(  42) = (   0.3540567   0.3246505   0.4066380  )
        43           Au  tau(  43) = (   0.4790276   0.1081324   0.4066292  )
        44           Au  tau(  44) = (  -0.1458201   0.7576104   0.4066224  )
        45           Au  tau(  45) = (  -0.0208365   0.5410930   0.4066438  )
        46           Au  tau(  46) = (   0.1041202   0.3246372   0.4066359  )
        47           Au  tau(  47) = (   0.2290908   0.1081193   0.4066273  )
        48           Au  tau(  48) = (  -0.3958167   0.7575791   0.4065812  )
        49           Au  tau(  49) = (  -0.2708328   0.5410617   0.4066025  )
        50           Au  tau(  50) = (  -0.1458763   0.3246061   0.4065947  )
        51           Au  tau(  51) = (  -0.0209056   0.1080882   0.4065858  )
        52           Au  tau(  52) = (   0.3541085   0.6133344   0.6129762  )
        53           Au  tau(  53) = (   0.4790780   0.3968269   0.6129968  )
        54           Au  tau(  54) = (   0.6040356   0.1803811   0.6129859  )
        55           Au  tau(  55) = (   0.7290165  -0.0361221   0.6129385  )
        56           Au  tau(  56) = (   0.1041243   0.6133091   0.6130022  )
        57           Au  tau(  57) = (   0.2290941   0.3968013   0.6130241  )
        58           Au  tau(  58) = (   0.3540515   0.1803552   0.6130121  )
        59           Au  tau(  59) = (   0.4790323  -0.0361475   0.6129659  )
        60           Au  tau(  60) = (  -0.1458030   0.6133014   0.6129980  )
        61           Au  tau(  61) = (  -0.0208339   0.3967936   0.6130188  )
        62           Au  tau(  62) = (   0.1041239   0.1803477   0.6130083  )
        63           Au  tau(  63) = (   0.2291046  -0.0361554   0.6129607  )
        64           Au  tau(  64) = (  -0.3957908   0.6132739   0.6129471  )
        65           Au  tau(  65) = (  -0.2708208   0.3967658   0.6129688  )
        66           Au  tau(  66) = (  -0.1458636   0.1803200   0.6129569  )
        67           Au  tau(  67) = (  -0.0208823  -0.0361826   0.6129110  )

     number of k points=    12  Marzari-Vanderbilt smearing, width (Ry)=  0.0200
                       cart. coord. in units 2pi/alat
        k(    1) = (   0.2500000   0.4330127   0.1111111), wk =   0.1666667
        k(    2) = (   0.2500000  -0.1443376   0.1111111), wk =   0.1666667
        k(    3) = (  -0.2500000  -0.4330127   0.1111111), wk =   0.1666667
        k(    4) = (  -0.2500000   0.4330127  -0.1111111), wk =   0.1666667
        k(    5) = (   0.2500000  -0.4330127  -0.1111111), wk =   0.1666667
        k(    6) = (   0.5000000   0.0000000   0.1111111), wk =   0.1666667
        k(    7) = (  -0.5000000   0.0000000   0.1111111), wk =   0.1666667
        k(    8) = (  -0.2500000   0.1443376   0.1111111), wk =   0.1666667
        k(    9) = (  -0.2500000  -0.1443376  -0.1111111), wk =   0.1666667
        k(   10) = (   0.2500000   0.1443376  -0.1111111), wk =   0.1666667
        k(   11) = (   0.0000000  -0.2886751   0.1111111), wk =   0.1666667
        k(   12) = (   0.0000000   0.2886751   0.1111111), wk =   0.1666667

     Dense  grid:  3097177 G-vectors     FFT dimensions: ( 150, 150, 360)

     Smooth grid:  1095093 G-vectors     FFT dimensions: ( 108, 108, 240)

     Largest allocated arrays     est. size (Mb)     dimensions
        Kohn-Sham Wavefunctions        28.01 Mb     (    4299,  427)
        NL pseudopotentials            55.23 Mb     (    4299,  842)
        Each V/rho on FFT grid          4.12 Mb     (  270000)
        Each G-vector array             0.74 Mb     (   96788)
        G-vector shells                 0.16 Mb     (   21404)
     Largest temporary arrays     est. size (Mb)     dimensions
        Auxiliary wavefunctions       112.04 Mb     (    4299, 1708)
        Each subspace H/S matrix       44.51 Mb     (    1708, 1708)
        Each <psi_i|beta_j> matrix      5.49 Mb     (     842,  427)
        Arrays for rho mixing          32.96 Mb     (  270000,    8)

     Initial potential from superposition of free atoms
     Check: negative starting charge=   -1.729751

     starting charge  711.25682, renormalised to  712.00000

     negative rho (up, down):  1.732E+00 0.000E+00


     ************************************************************************
     *
     * You are using vdW-DF for exchange-correlation in this calculation.
     * Please cite the following three references that made this development
     * possible:
     *
     *   M. Dion, H. Rydberg, E. Schroder, D. C. Langreth, and
     *   B. I. Lundqvist, Phys. Rev. Lett. 92, 246401 (2004).
     *
     *   T. Thonhauser, V. R. Cooper, S. Li, A. Puzder, P. Hyldgaard, and
     *   D. C. Langreth, Phys. Rev. B 76, 125112 (2007).
     *
     *   G. Roman-Perez and J. M. Soler, Phys. Rev. Lett. 103, 096102 (2009).
     *
     *
     * If you are using vdW-DF2, please also cite:
     *
     *   K. Lee, E. D. Murray, L. Kong, B. I. Lundqvist, and
     *   D. C. Langreth, Phys. Rev. B 82, 081101(R) (2010).
     *
     *
     * If you are calculating the stress with vdW-DF, please also cite:
     *
     *   R. Sabatini, E. Kucukbenli, B. Kolb, T. Thonhauser, and
     *   S. de Gironcoli, J. Phys.: Condens. Matter 24, 424209 (2012).
     *
     ************************************************************************

     Carrying out vdW-DF run using the following parameters:

     Nqs =      20    Nr_points =    1024   r_max =   100.000
     q_mesh =
               0.00001000     0.04494208     0.09755937     0.15916263
               0.23128650     0.31572767     0.41458969     0.53033537
               0.66584808     0.82450364     1.01025438     1.22772762
               1.48234092     1.78043706     2.12944203     2.53805004
               3.01644009     3.57652955     4.23227104     5.00000000

     Gradients computed in reciprocal space

     ************************************************************************


     Starting wfc are  582 randomized atomic wfcs

     total cpu time spent up to now is      148.3 secs

     Self-consistent Calculation

     iteration #  1     ecut=    50.00 Ry     beta=0.70
     Davidson diagonalization with overlap
     ethr =  1.00E-02,  avg # of iterations =  3.0

     Threshold (ethr) on eigenvalues was too large:
     Diagonalizing with lowered threshold

     Davidson diagonalization with overlap
     ethr =  3.54E-04,  avg # of iterations =  3.0

     negative rho (up, down):  1.728E+00 0.000E+00

     total cpu time spent up to now is      700.7 secs

     total energy              =   -6602.75942412 Ry
     Harris-Foulkes estimate   =   -6605.04852370 Ry
     estimated scf accuracy    <       2.86193801 Ry

     iteration #  2     ecut=    50.00 Ry     beta=0.70
     Davidson diagonalization with overlap
     ethr =  4.02E-04,  avg # of iterations = 11.0

     negative rho (up, down):  1.725E+00 0.000E+00

     total cpu time spent up to now is     1624.4 secs

     total energy              =   -6596.47304133 Ry
     Harris-Foulkes estimate   =   -6610.20989061 Ry
     estimated scf accuracy    <      76.91108819 Ry

     iteration #  3     ecut=    50.00 Ry     beta=0.70
     Davidson diagonalization with overlap
     ethr =  4.02E-04,  avg # of iterations =  6.5

     negative rho (up, down):  1.736E+00 0.000E+00

     total cpu time spent up to now is     2232.5 secs

     total energy              =   -6603.20766455 Ry
     Harris-Foulkes estimate   =   -6604.98692700 Ry
     estimated scf accuracy    <       7.98291542 Ry

     iteration #  4     ecut=    50.00 Ry     beta=0.70
     Davidson diagonalization with overlap
     ethr =  4.02E-04,  avg # of iterations =  8.3

     negative rho (up, down):  1.739E+00 0.000E+00

     total cpu time spent up to now is     2613.9 secs

     total energy              =   -6604.04976561 Ry
     Harris-Foulkes estimate   =   -6604.66886169 Ry
     estimated scf accuracy    <       2.81906981 Ry

     iteration #  5     ecut=    50.00 Ry     beta=0.70
     Davidson diagonalization with overlap
     ethr =  3.96E-04,  avg # of iterations =  5.5

     negative rho (up, down):  1.747E+00 0.000E+00

     total cpu time spent up to now is     2944.2 secs

     total energy              =   -6603.99895120 Ry
     Harris-Foulkes estimate   =   -6604.90031143 Ry
     estimated scf accuracy    <       9.85409797 Ry

     iteration #  6     ecut=    50.00 Ry     beta=0.70
     Davidson diagonalization with overlap
     ethr =  3.96E-04,  avg # of iterations =  3.8

     negative rho (up, down):  1.752E+00 0.000E+00

     total cpu time spent up to now is     3238.1 secs

     total energy              =   -6604.42670543 Ry
     Harris-Foulkes estimate   =   -6604.46034204 Ry
     estimated scf accuracy    <       0.10819790 Ry

     iteration #  7     ecut=    50.00 Ry     beta=0.70
     Davidson diagonalization with overlap
     ethr =  1.52E-05,  avg # of iterations =  6.8

     negative rho (up, down):  1.754E+00 0.000E+00

     total cpu time spent up to now is     3655.8 secs

     total energy              =   -6604.43025857 Ry
     Harris-Foulkes estimate   =   -6604.44831242 Ry
     estimated scf accuracy    <       0.07010390 Ry

     iteration #  8     ecut=    50.00 Ry     beta=0.70
     Davidson diagonalization with overlap
     ethr =  9.85E-06,  avg # of iterations =  4.7

     negative rho (up, down):  1.755E+00 0.000E+00

     total cpu time spent up to now is     3968.4 secs

     total energy              =   -6604.42873759 Ry
     Harris-Foulkes estimate   =   -6604.44210864 Ry
     estimated scf accuracy    <       0.05177359 Ry

     iteration #  9     ecut=    50.00 Ry     beta=0.70
     Davidson diagonalization with overlap
     ethr =  7.27E-06,  avg # of iterations =  6.3

     negative rho (up, down):  1.756E+00 0.000E+00

     total cpu time spent up to now is     4311.4 secs

     total energy              =   -6604.42902242 Ry
     Harris-Foulkes estimate   =   -6604.43460785 Ry
     estimated scf accuracy    <       0.01978964 Ry

     iteration # 10     ecut=    50.00 Ry     beta=0.70
     Davidson diagonalization with overlap
     ethr =  2.78E-06,  avg # of iterations = 10.1

     negative rho (up, down):  1.758E+00 0.000E+00

     total cpu time spent up to now is     4709.3 secs

     total energy              =   -6604.42795962 Ry
     Harris-Foulkes estimate   =   -6604.43134250 Ry
     estimated scf accuracy    <       0.01055628 Ry

     iteration # 11     ecut=    50.00 Ry     beta=0.70
     Davidson diagonalization with overlap
     ethr =  1.48E-06,  avg # of iterations =  8.6

     negative rho (up, down):  1.758E+00 0.000E+00

     total cpu time spent up to now is     5087.8 secs

     total energy              =   -6604.42800070 Ry
     Harris-Foulkes estimate   =   -6604.42894766 Ry
     estimated scf accuracy    <       0.00480642 Ry

     iteration # 12     ecut=    50.00 Ry     beta=0.70
     Davidson diagonalization with overlap
     ethr =  6.75E-07,  avg # of iterations =  2.0

     negative rho (up, down):  1.759E+00 0.000E+00

     total cpu time spent up to now is     5343.5 secs

     total energy              =   -6604.42673503 Ry
     Harris-Foulkes estimate   =   -6604.42835656 Ry
     estimated scf accuracy    <       0.00227085 Ry

     iteration # 13     ecut=    50.00 Ry     beta=0.70
     Davidson diagonalization with overlap
     ethr =  3.19E-07,  avg # of iterations = 13.0

     negative rho (up, down):  1.758E+00 0.000E+00

     total cpu time spent up to now is     5805.6 secs

     total energy              =   -6604.42707838 Ry
     Harris-Foulkes estimate   =   -6604.42715374 Ry
     estimated scf accuracy    <       0.00014082 Ry

     iteration # 14     ecut=    50.00 Ry     beta=0.70
     Davidson diagonalization with overlap
     ethr =  1.98E-08,  avg # of iterations =  3.0

     negative rho (up, down):  1.758E+00 0.000E+00

     total cpu time spent up to now is     6178.2 secs

     total energy              =   -6604.42709369 Ry
     Harris-Foulkes estimate   =   -6604.42715768 Ry
     estimated scf accuracy    <       0.00019258 Ry

     iteration # 15     ecut=    50.00 Ry     beta=0.70
     Davidson diagonalization with overlap
     ethr =  1.98E-08,  avg # of iterations =  2.0

     negative rho (up, down):  1.758E+00 0.000E+00

     total cpu time spent up to now is     6463.8 secs

     total energy              =   -6604.42710918 Ry
     Harris-Foulkes estimate   =   -6604.42714272 Ry
     estimated scf accuracy    <       0.00016351 Ry

     iteration # 16     ecut=    50.00 Ry     beta=0.70
     Davidson diagonalization with overlap
     ethr =  1.98E-08,  avg # of iterations =  1.8

     negative rho (up, down):  1.758E+00 0.000E+00

     total cpu time spent up to now is     6716.0 secs

     total energy              =   -6604.42711227 Ry
     Harris-Foulkes estimate   =   -6604.42714448 Ry
     estimated scf accuracy    <       0.00025512 Ry

     iteration # 17     ecut=    50.00 Ry     beta=0.70
     Davidson diagonalization with overlap
     ethr =  1.98E-08,  avg # of iterations =  1.0

     negative rho (up, down):  1.758E+00 0.000E+00

     total cpu time spent up to now is     6965.2 secs

     total energy              =   -6604.42712446 Ry
     Harris-Foulkes estimate   =   -6604.42713716 Ry
     estimated scf accuracy    <       0.00008357 Ry

     iteration # 18     ecut=    50.00 Ry     beta=0.70
     Davidson diagonalization with overlap
     ethr =  1.17E-08,  avg # of iterations =  1.0

     negative rho (up, down):  1.758E+00 0.000E+00

     total cpu time spent up to now is     7202.2 secs

     total energy              =   -6604.42713089 Ry
     Harris-Foulkes estimate   =   -6604.42713143 Ry
     estimated scf accuracy    <       0.00000205 Ry

     iteration # 19     ecut=    50.00 Ry     beta=0.70
     Davidson diagonalization with overlap
     ethr =  2.88E-10,  avg # of iterations =  3.0

     negative rho (up, down):  1.758E+00 0.000E+00

     total cpu time spent up to now is     7549.7 secs

     total energy              =   -6604.42713144 Ry
     Harris-Foulkes estimate   =   -6604.42713182 Ry
     estimated scf accuracy    <       0.00000261 Ry

     iteration # 20     ecut=    50.00 Ry     beta=0.70
     Davidson diagonalization with overlap
     ethr =  2.88E-10,  avg # of iterations =  2.0

     negative rho (up, down):  1.758E+00 0.000E+00

     total cpu time spent up to now is     7809.5 secs

     total energy              =   -6604.42713180 Ry
     Harris-Foulkes estimate   =   -6604.42713187 Ry
     estimated scf accuracy    <       0.00000065 Ry

     iteration # 21     ecut=    50.00 Ry     beta=0.70
     Davidson diagonalization with overlap
     ethr =  9.17E-11,  avg # of iterations =  2.0

     negative rho (up, down):  1.758E+00 0.000E+00

     total cpu time spent up to now is     8065.1 secs

     total energy              =   -6604.42713188 Ry
     Harris-Foulkes estimate   =   -6604.42713192 Ry
     estimated scf accuracy    <       0.00000023 Ry

     iteration # 22     ecut=    50.00 Ry     beta=0.70
     Davidson diagonalization with overlap
     ethr =  3.17E-11,  avg # of iterations =  2.0

     negative rho (up, down):  1.758E+00 0.000E+00

     total cpu time spent up to now is     8313.9 secs

     total energy              =   -6604.42713192 Ry
     Harris-Foulkes estimate   =   -6604.42713191 Ry
     estimated scf accuracy    <       0.00000003 Ry

     iteration # 23     ecut=    50.00 Ry     beta=0.70
     Davidson diagonalization with overlap
     ethr =  4.25E-12,  avg # of iterations =  4.3

     negative rho (up, down):  1.758E+00 0.000E+00

     total cpu time spent up to now is     8724.6 secs

     total energy              =   -6604.42713194 Ry
     Harris-Foulkes estimate   =   -6604.42713194 Ry
     estimated scf accuracy    <       0.00000006 Ry

     iteration # 24     ecut=    50.00 Ry     beta=0.70
     Davidson diagonalization with overlap
     ethr =  4.25E-12,  avg # of iterations =  2.0

     negative rho (up, down):  1.758E+00 0.000E+00

     total cpu time spent up to now is     9019.1 secs

     End of self-consistent calculation

          k = 0.2500 0.4330 0.1111 (136853 PWs)   bands (ev):

   -18.7491  -6.5633  -6.2596  -5.8603  -5.8601  -5.1818  -4.8488  -4.8487
    -4.8092  -4.8086  -4.4485  -4.4484  -4.3498  -4.3498  -4.3358  -4.3147
    -4.2864  -4.1822  -4.1821  -4.1580  -4.1146  -4.1146  -4.0455  -4.0454
    -4.0383  -4.0382  -4.0174  -4.0116  -4.0114  -3.9381  -3.9372  -3.9091
    -3.9091  -3.8969  -3.8968  -3.8736  -3.8736  -3.8511  -3.8426  -3.8425
    -3.8157  -3.7636  -3.7635  -3.7156  -3.7156  -3.6559  -3.6558  -3.6017
    -3.6016  -3.6007  -3.6006  -3.5657  -3.5255  -3.5255  -3.5201  -3.5187
    -3.5186  -3.4878  -3.4871  -3.4794  -3.4168  -3.4167  -3.4069  -3.3915
    -3.3845  -3.3114  -3.3114  -3.2780  -3.2773  -3.2501  -3.2500  -3.2370
    -3.2202  -3.1597  -3.1595  -3.1424  -3.1424  -3.0900  -3.0850  -3.0850
    -3.0475  -3.0154  -3.0149  -3.0069  -3.0069  -2.9930  -2.9930  -2.9852
    -2.9850  -2.9751  -2.9348  -2.8971  -2.8969  -2.8821  -2.8819  -2.8566
    -2.8462  -2.8462  -2.8245  -2.7806  -2.7804  -2.7713  -2.7704  -2.7314
    -2.7253  -2.7137  -2.7136  -2.6841  -2.6837  -2.6550  -2.6169  -2.6169
    -2.5944  -2.5877  -2.5734  -2.5732  -2.5227  -2.5226  -2.4899  -2.4671
    -2.4671  -2.4428  -2.4426  -2.4316  -2.4314  -2.4207  -2.3976  -2.3976
    -2.3533  -2.3532  -2.3519  -2.3346  -2.3345  -2.3300  -2.3198  -2.3196
    -2.3169  -2.3167  -2.3115  -2.2983  -2.2980  -2.2869  -2.2619  -2.2618
    -2.2604  -2.2595  -2.2590  -2.2563  -2.2559  -2.2277  -2.2249  -2.2107
    -2.2106  -2.1931  -2.1931  -2.1829  -2.1828  -2.1812  -2.1808  -2.1612
    -2.1606  -2.1592  -2.1585  -2.1417  -2.1154  -2.1154  -2.0757  -2.0756
    -2.0494  -2.0493  -2.0222  -2.0221  -1.9942  -1.9941  -1.9771  -1.9728
    -1.9459  -1.9227  -1.9221  -1.9175  -1.9175  -1.9130  -1.9059  -1.9054
    -1.8803  -1.8735  -1.8625  -1.8070  -1.8025  -1.8019  -1.7992  -1.7991
    -1.7603  -1.7436  -1.7435  -1.7151  -1.7151  -1.6543  -1.6541  -1.6256
    -1.6072  -1.6071  -1.5459  -1.5458  -1.5341  -1.5336  -1.5229  -1.5225
    -1.5196  -1.5096  -1.5091  -1.4536  -1.4535  -1.4412  -1.4411  -1.4410
    -1.4215  -1.4207  -1.3856  -1.3854  -1.3683  -1.3682  -1.3680  -1.3617
    -1.3563  -1.3468  -1.3461  -1.3276  -1.3276  -1.2856  -1.2851  -1.2730
    -1.2724  -1.2524  -1.2398  -1.1958  -1.1953  -1.1699  -1.1649  -1.1647
    -1.1358  -1.0840  -1.0837  -1.0825  -1.0822  -1.0766  -1.0762  -1.0658
    -1.0474  -1.0470  -1.0074  -1.0069  -0.9763  -0.9763  -0.9714  -0.9713
    -0.9630  -0.9468  -0.9465  -0.9458  -0.9426  -0.9426  -0.9055  -0.9042
    -0.9031  -0.9029  -0.8712  -0.8711  -0.8682  -0.8438  -0.8358  -0.8353
    -0.7890  -0.7818  -0.7812  -0.7480  -0.7466  -0.7385  -0.7276  -0.7275
    -0.7192  -0.7189  -0.7181  -0.7175  -0.7059  -0.7059  -0.6795  -0.6795
    -0.6769  -0.6744  -0.6743  -0.6373  -0.6372  -0.6263  -0.6262  -0.6108
    -0.6032  -0.6028  -0.5913  -0.5359  -0.5331  -0.5242  -0.5242  -0.5231
    -0.5228  -0.5178  -0.4981  -0.4976  -0.4892  -0.4892  -0.4870  -0.4870
    -0.4476  -0.4450  -0.4448  -0.4366  -0.4363  -0.4311  -0.4294  -0.4200
    -0.4136  -0.4099  -0.4098  -0.3674  -0.3673  -0.3588  -0.3554  -0.3551
    -0.2778  -0.2773  -0.2749  -0.2748  -0.2655  -0.2654  -0.2289  -0.2160
    -0.2160  -0.1883  -0.1869  -0.1839  -0.0625  -0.0615   0.0401   0.4553
     0.4555   0.4584   0.4584   0.5194   0.5196   0.9086   0.9089   0.9516
     0.9517   1.0589   1.1398   1.2504   1.2524   1.4711   1.4740   2.1058
     2.1061   2.2683   2.2685   2.3996   2.3999   2.5040   2.5040   2.6582
     2.8956   2.9011   3.0185   3.2434   3.2455   3.3284   3.3285   3.4283
     3.4433   3.6378   3.6419   3.7000   3.9004   3.9007   3.9632   3.9641
     4.2206   4.2284   4.2286   4.4710   4.5136   4.5139   4.5587   4.8948
     4.8958   4.9248   5.0593   5.1738   5.2316   5.2316   5.2925   5.3036
     5.7367   5.9571   6.0032   6.0192   6.0261   6.0278   6.0948   6.0949
     6.1772   6.2057   6.2300   6.2484   6.2574   6.2593   6.2750   6.2786
     6.3178   6.3182   6.4845   6.5273   6.7717   6.8005   6.8300   6.9286
     6.9656   6.9756   7.0228

          k = 0.2500-0.1443 0.1111 (136898 PWs)   bands (ev):

   -18.7491  -6.5633  -6.4695  -5.6775  -5.3857  -5.3271  -5.3271  -4.7887
    -4.7887  -4.6567  -4.6562  -4.5020  -4.4693  -4.4091  -4.3749  -4.3747
    -4.3421  -4.3421  -4.2135  -4.1717  -4.1717  -4.1116  -4.0903  -4.0902
    -3.9882  -3.9882  -3.9520  -3.9518  -3.9518  -3.9247  -3.9032  -3.9032
    -3.7971  -3.7960  -3.7960  -3.7751  -3.7583  -3.7583  -3.7459  -3.7458
    -3.7325  -3.7024  -3.7024  -3.7022  -3.7022  -3.6695  -3.6694  -3.6518
    -3.6517  -3.6363  -3.5926  -3.5926  -3.5632  -3.5476  -3.5474  -3.5435
    -3.5435  -3.4688  -3.4688  -3.4330  -3.4307  -3.4306  -3.3633  -3.3633
    -3.3477  -3.3476  -3.3165  -3.3162  -3.3155  -3.3152  -3.1621  -3.1621
    -3.1360  -3.1360  -3.1309  -3.1151  -3.1150  -3.0890  -3.0889  -3.0391
    -3.0391  -3.0227  -3.0227  -3.0025  -2.9535  -2.9535  -2.9340  -2.9291
    -2.9290  -2.8881  -2.8881  -2.8818  -2.8818  -2.8648  -2.8646  -2.8252
    -2.8252  -2.8034  -2.8033  -2.8001  -2.8001  -2.7974  -2.7713  -2.7196
    -2.7196  -2.7182  -2.6895  -2.6894  -2.6273  -2.6273  -2.5993  -2.5979
    -2.5847  -2.5846  -2.5795  -2.5496  -2.5496  -2.5402  -2.5224  -2.4964
    -2.4964  -2.4961  -2.4755  -2.4755  -2.4641  -2.4640  -2.4605  -2.4603
    -2.4529  -2.4067  -2.3739  -2.3739  -2.3584  -2.3443  -2.3379  -2.3377
    -2.3303  -2.3301  -2.3288  -2.2987  -2.2986  -2.2985  -2.2887  -2.2887
    -2.2712  -2.2437  -2.2433  -2.2427  -2.2420  -2.2418  -2.1970  -2.1651
    -2.1649  -2.1648  -2.1582  -2.1494  -2.1359  -2.1359  -2.1195  -2.1194
    -2.0850  -2.0844  -2.0842  -2.0658  -2.0638  -2.0637  -2.0306  -2.0304
    -1.9893  -1.9889  -1.9817  -1.9797  -1.9796  -1.9729  -1.9728  -1.9705
    -1.9704  -1.9631  -1.9628  -1.9461  -1.9460  -1.8187  -1.8185  -1.7864
    -1.7806  -1.7804  -1.7752  -1.7752  -1.7569  -1.7569  -1.7540  -1.7539
    -1.7522  -1.7295  -1.7204  -1.7203  -1.7174  -1.7088  -1.7088  -1.6859
    -1.6858  -1.6572  -1.6572  -1.6245  -1.6244  -1.6146  -1.6064  -1.5886
    -1.5885  -1.5857  -1.5671  -1.5548  -1.5548  -1.5473  -1.5473  -1.5203
    -1.5202  -1.5032  -1.5031  -1.4711  -1.4709  -1.4608  -1.4097  -1.4097
    -1.3973  -1.3971  -1.3965  -1.3720  -1.3695  -1.3355  -1.3348  -1.3347
    -1.3010  -1.2910  -1.2908  -1.2753  -1.2752  -1.2482  -1.2468  -1.2467
    -1.2172  -1.2143  -1.2142  -1.1515  -1.1514  -1.1379  -1.1376  -1.1215
    -1.1215  -1.1089  -1.1089  -1.0910  -1.0782  -1.0502  -1.0502  -1.0388
    -1.0109  -1.0004  -1.0002  -0.9888  -0.9888  -0.9863  -0.9808  -0.9806
    -0.9680  -0.9364  -0.9364  -0.9252  -0.9248  -0.9239  -0.9237  -0.8997
    -0.8812  -0.8808  -0.8600  -0.8598  -0.7670  -0.7541  -0.7485  -0.7482
    -0.7480  -0.7441  -0.7386  -0.7385  -0.7178  -0.7124  -0.6975  -0.6972
    -0.6826  -0.6825  -0.6733  -0.6530  -0.6527  -0.6513  -0.6429  -0.5712
    -0.5712  -0.5368  -0.5365  -0.5328  -0.5254  -0.5251  -0.5244  -0.5244
    -0.5109  -0.5108  -0.4955  -0.4702  -0.4555  -0.4353  -0.4352  -0.4238
    -0.4237  -0.4109  -0.4109  -0.4098  -0.4084  -0.4084  -0.3907  -0.3864
    -0.3864  -0.3557  -0.3541  -0.3541  -0.3420  -0.3419  -0.3226  -0.2904
    -0.2903  -0.2810  -0.2810  -0.2128  -0.2128  -0.1754  -0.1753  -0.1181
    -0.1153  -0.1153  -0.1058  -0.0861   0.1359   0.1366   0.4836   0.4836
     0.5749   0.5756   0.7689   0.7812   0.8013   0.9324   0.9326   1.3638
     1.3638   1.3825   1.6397   1.6739   1.6739   1.9507   1.9519   2.0305
     2.0305   2.0578   2.0585   2.2871   2.2871   2.3750   2.3750   2.4474
     2.5137   2.5149   2.6791   2.7761   3.2180   3.2181   3.2209   3.2212
     3.2762   3.2762   3.5682   3.5682   3.8500   3.8509   3.9532   4.2639
     4.3073   4.3079   4.5262   4.5289   4.6082   4.6083   4.6992   4.8175
     4.8176   4.9344   4.9346   5.1376   5.2392   5.3086   5.3088   5.4740
     5.4791   5.6664   5.6960   5.6964   5.7222   5.7223   5.7864   5.7866
     5.8320   6.0700   6.2167   6.3297   6.3941   6.4090   6.5168   6.5288
     6.5290   6.5420   6.5425   6.7323   6.7833   6.7841   6.8100   6.9761
     6.9888   7.0154   7.0393

          k =-0.2500-0.4330 0.1111 (136853 PWs)   bands (ev):

   -18.7491  -6.5633  -6.2596  -5.8603  -5.8601  -5.1818  -4.8488  -4.8487
    -4.8092  -4.8086  -4.4485  -4.4484  -4.3498  -4.3498  -4.3358  -4.3147
    -4.2864  -4.1822  -4.1821  -4.1580  -4.1146  -4.1145  -4.0455  -4.0454
    -4.0383  -4.0382  -4.0174  -4.0116  -4.0114  -3.9381  -3.9372  -3.9091
    -3.9091  -3.8969  -3.8968  -3.8736  -3.8736  -3.8511  -3.8426  -3.8425
    -3.8157  -3.7636  -3.7635  -3.7156  -3.7156  -3.6559  -3.6558  -3.6017
    -3.6016  -3.6007  -3.6006  -3.5657  -3.5255  -3.5255  -3.5201  -3.5187
    -3.5186  -3.4878  -3.4871  -3.4794  -3.4168  -3.4167  -3.4069  -3.3915
    -3.3845  -3.3114  -3.3114  -3.2780  -3.2773  -3.2501  -3.2500  -3.2370
    -3.2202  -3.1597  -3.1595  -3.1424  -3.1424  -3.0900  -3.0850  -3.0850
    -3.0475  -3.0154  -3.0149  -3.0069  -3.0069  -2.9930  -2.9930  -2.9852
    -2.9850  -2.9751  -2.9348  -2.8971  -2.8969  -2.8821  -2.8819  -2.8566
    -2.8462  -2.8462  -2.8245  -2.7806  -2.7804  -2.7713  -2.7704  -2.7314
    -2.7253  -2.7137  -2.7136  -2.6841  -2.6837  -2.6550  -2.6169  -2.6169
    -2.5944  -2.5877  -2.5734  -2.5732  -2.5227  -2.5226  -2.4899  -2.4671
    -2.4671  -2.4428  -2.4426  -2.4316  -2.4314  -2.4207  -2.3976  -2.3976
    -2.3533  -2.3532  -2.3519  -2.3346  -2.3345  -2.3300  -2.3198  -2.3196
    -2.3169  -2.3167  -2.3115  -2.2983  -2.2980  -2.2869  -2.2619  -2.2618
    -2.2604  -2.2595  -2.2590  -2.2563  -2.2559  -2.2277  -2.2249  -2.2107
    -2.2106  -2.1931  -2.1931  -2.1829  -2.1828  -2.1812  -2.1808  -2.1612
    -2.1606  -2.1592  -2.1585  -2.1417  -2.1154  -2.1154  -2.0757  -2.0756
    -2.0494  -2.0493  -2.0222  -2.0221  -1.9942  -1.9941  -1.9771  -1.9728
    -1.9459  -1.9227  -1.9221  -1.9175  -1.9175  -1.9130  -1.9059  -1.9054
    -1.8803  -1.8735  -1.8625  -1.8070  -1.8025  -1.8019  -1.7992  -1.7991
    -1.7603  -1.7436  -1.7435  -1.7151  -1.7151  -1.6543  -1.6541  -1.6256
    -1.6072  -1.6071  -1.5459  -1.5458  -1.5341  -1.5336  -1.5229  -1.5225
    -1.5196  -1.5096  -1.5091  -1.4536  -1.4535  -1.4412  -1.4411  -1.4410
    -1.4215  -1.4207  -1.3856  -1.3854  -1.3683  -1.3682  -1.3680  -1.3617
    -1.3563  -1.3468  -1.3461  -1.3276  -1.3276  -1.2856  -1.2851  -1.2730
    -1.2724  -1.2524  -1.2398  -1.1958  -1.1953  -1.1699  -1.1649  -1.1647
    -1.1358  -1.0840  -1.0837  -1.0825  -1.0822  -1.0766  -1.0762  -1.0658
    -1.0474  -1.0470  -1.0074  -1.0069  -0.9763  -0.9763  -0.9714  -0.9713
    -0.9630  -0.9468  -0.9465  -0.9458  -0.9426  -0.9426  -0.9055  -0.9042
    -0.9031  -0.9029  -0.8712  -0.8711  -0.8682  -0.8438  -0.8358  -0.8353
    -0.7890  -0.7818  -0.7812  -0.7480  -0.7466  -0.7385  -0.7276  -0.7275
    -0.7192  -0.7189  -0.7181  -0.7175  -0.7059  -0.7059  -0.6795  -0.6795
    -0.6769  -0.6744  -0.6743  -0.6373  -0.6372  -0.6263  -0.6262  -0.6108
    -0.6032  -0.6028  -0.5913  -0.5359  -0.5331  -0.5242  -0.5242  -0.5231
    -0.5228  -0.5178  -0.4981  -0.4976  -0.4892  -0.4892  -0.4870  -0.4870
    -0.4476  -0.4450  -0.4448  -0.4366  -0.4363  -0.4311  -0.4294  -0.4200
    -0.4136  -0.4099  -0.4098  -0.3674  -0.3673  -0.3588  -0.3554  -0.3551
    -0.2778  -0.2773  -0.2749  -0.2748  -0.2655  -0.2654  -0.2289  -0.2160
    -0.2159  -0.1883  -0.1869  -0.1839  -0.0625  -0.0615   0.0401   0.4553
     0.4555   0.4584   0.4584   0.5194   0.5196   0.9086   0.9089   0.9516
     0.9517   1.0589   1.1398   1.2504   1.2524   1.4711   1.4740   2.1058
     2.1061   2.2683   2.2685   2.3996   2.3999   2.5040   2.5040   2.6582
     2.8956   2.9011   3.0185   3.2434   3.2455   3.3284   3.3285   3.4283
     3.4433   3.6378   3.6419   3.7000   3.9004   3.9007   3.9632   3.9641
     4.2206   4.2284   4.2286   4.4710   4.5136   4.5139   4.5587   4.8948
     4.8958   4.9248   5.0593   5.1738   5.2316   5.2316   5.2925   5.3036
     5.7364   5.9571   6.0037   6.0192   6.0261   6.0278   6.0948   6.0949
     6.1772   6.2057   6.2300   6.2490   6.2574   6.2594   6.2750   6.2786
     6.3178   6.3182   6.4835   6.5252   6.7707   6.8009   6.8318   6.9298
     6.9655   6.9756   7.0264

          k =-0.2500 0.4330-0.1111 (136853 PWs)   bands (ev):

   -18.7491  -6.5633  -6.2596  -5.8615  -5.8589  -5.1818  -4.8493  -4.8482
    -4.8099  -4.8079  -4.4491  -4.4477  -4.3500  -4.3497  -4.3356  -4.3147
    -4.2864  -4.1827  -4.1818  -4.1581  -4.1147  -4.1145  -4.0456  -4.0454
    -4.0385  -4.0379  -4.0173  -4.0130  -4.0101  -3.9382  -3.9371  -3.9098
    -3.9081  -3.8971  -3.8965  -3.8736  -3.8735  -3.8511  -3.8428  -3.8424
    -3.8158  -3.7639  -3.7633  -3.7166  -3.7147  -3.6559  -3.6558  -3.6017
    -3.6016  -3.6008  -3.6004  -3.5659  -3.5256  -3.5255  -3.5200  -3.5188
    -3.5186  -3.4881  -3.4868  -3.4793  -3.4170  -3.4166  -3.4068  -3.3913
    -3.3842  -3.3121  -3.3111  -3.2780  -3.2771  -3.2502  -3.2496  -3.2370
    -3.2203  -3.1598  -3.1597  -3.1427  -3.1418  -3.0900  -3.0851  -3.0849
    -3.0474  -3.0158  -3.0145  -3.0075  -3.0062  -2.9930  -2.9929  -2.9852
    -2.9850  -2.9752  -2.9347  -2.8977  -2.8965  -2.8822  -2.8817  -2.8567
    -2.8468  -2.8457  -2.8245  -2.7814  -2.7796  -2.7712  -2.7709  -2.7312
    -2.7252  -2.7142  -2.7128  -2.6842  -2.6839  -2.6550  -2.6168  -2.6165
    -2.5944  -2.5877  -2.5736  -2.5731  -2.5230  -2.5223  -2.4898  -2.4674
    -2.4672  -2.4430  -2.4427  -2.4317  -2.4311  -2.4208  -2.3981  -2.3972
    -2.3533  -2.3527  -2.3519  -2.3354  -2.3338  -2.3300  -2.3197  -2.3195
    -2.3172  -2.3165  -2.3114  -2.2988  -2.2973  -2.2869  -2.2621  -2.2615
    -2.2602  -2.2594  -2.2592  -2.2561  -2.2559  -2.2280  -2.2250  -2.2108
    -2.2105  -2.1935  -2.1927  -2.1828  -2.1826  -2.1813  -2.1809  -2.1616
    -2.1606  -2.1591  -2.1585  -2.1417  -2.1159  -2.1152  -2.0766  -2.0748
    -2.0501  -2.0487  -2.0220  -2.0218  -1.9945  -1.9938  -1.9772  -1.9726
    -1.9457  -1.9227  -1.9221  -1.9179  -1.9171  -1.9132  -1.9060  -1.9055
    -1.8802  -1.8730  -1.8625  -1.8071  -1.8027  -1.8020  -1.7996  -1.7990
    -1.7604  -1.7444  -1.7427  -1.7153  -1.7150  -1.6546  -1.6536  -1.6260
    -1.6073  -1.6069  -1.5462  -1.5454  -1.5339  -1.5337  -1.5232  -1.5222
    -1.5197  -1.5096  -1.5092  -1.4535  -1.4533  -1.4416  -1.4414  -1.4409
    -1.4215  -1.4205  -1.3857  -1.3854  -1.3686  -1.3681  -1.3679  -1.3614
    -1.3564  -1.3472  -1.3458  -1.3280  -1.3271  -1.2855  -1.2850  -1.2731
    -1.2722  -1.2523  -1.2398  -1.1962  -1.1950  -1.1700  -1.1651  -1.1645
    -1.1359  -1.0841  -1.0837  -1.0825  -1.0823  -1.0768  -1.0763  -1.0659
    -1.0475  -1.0467  -1.0073  -1.0070  -0.9764  -0.9762  -0.9717  -0.9710
    -0.9629  -0.9469  -0.9467  -0.9456  -0.9425  -0.9423  -0.9058  -0.9042
    -0.9033  -0.9025  -0.8713  -0.8709  -0.8679  -0.8441  -0.8358  -0.8350
    -0.7891  -0.7817  -0.7811  -0.7481  -0.7466  -0.7383  -0.7278  -0.7273
    -0.7193  -0.7187  -0.7183  -0.7175  -0.7061  -0.7058  -0.6798  -0.6792
    -0.6770  -0.6745  -0.6743  -0.6372  -0.6370  -0.6264  -0.6260  -0.6109
    -0.6033  -0.6028  -0.5911  -0.5359  -0.5329  -0.5245  -0.5241  -0.5230
    -0.5229  -0.5178  -0.4982  -0.4976  -0.4893  -0.4891  -0.4870  -0.4869
    -0.4477  -0.4451  -0.4447  -0.4369  -0.4360  -0.4312  -0.4294  -0.4198
    -0.4136  -0.4102  -0.4097  -0.3676  -0.3672  -0.3589  -0.3556  -0.3550
    -0.2778  -0.2773  -0.2750  -0.2747  -0.2656  -0.2654  -0.2289  -0.2161
    -0.2157  -0.1882  -0.1870  -0.1839  -0.0625  -0.0615   0.0401   0.4552
     0.4556   0.4581   0.4586   0.5190   0.5198   0.9085   0.9090   0.9515
     0.9518   1.0589   1.1399   1.2505   1.2525   1.4713   1.4738   2.1056
     2.1061   2.2682   2.2688   2.3993   2.4002   2.5037   2.5043   2.6580
     2.8959   2.9011   3.0184   3.2438   3.2450   3.3277   3.3292   3.4282
     3.4433   3.6382   3.6416   3.7003   3.9002   3.9009   3.9628   3.9647
     4.2202   4.2280   4.2290   4.4715   4.5130   4.5143   4.5585   4.8945
     4.8960   4.9243   5.0595   5.1734   5.2314   5.2318   5.2918   5.3031
     5.7399   5.9521   6.0083   6.0193   6.0258   6.0283   6.0946   6.0949
     6.1778   6.2055   6.2299   6.2540   6.2565   6.2616   6.2749   6.2789
     6.3182   6.3184   6.4692   6.5312   6.7731   6.7949   6.8380   6.9218
     6.9661   6.9754   7.0329

          k = 0.2500-0.4330-0.1111 (136853 PWs)   bands (ev):

   -18.7491  -6.5633  -6.2596  -5.8615  -5.8589  -5.1818  -4.8493  -4.8482
    -4.8099  -4.8079  -4.4491  -4.4477  -4.3500  -4.3497  -4.3356  -4.3147
    -4.2864  -4.1827  -4.1818  -4.1581  -4.1147  -4.1145  -4.0456  -4.0454
    -4.0385  -4.0379  -4.0173  -4.0130  -4.0101  -3.9382  -3.9371  -3.9098
    -3.9081  -3.8971  -3.8965  -3.8736  -3.8735  -3.8511  -3.8428  -3.8424
    -3.8158  -3.7639  -3.7633  -3.7166  -3.7147  -3.6559  -3.6558  -3.6017
    -3.6016  -3.6008  -3.6004  -3.5659  -3.5256  -3.5255  -3.5200  -3.5188
    -3.5186  -3.4881  -3.4868  -3.4793  -3.4170  -3.4166  -3.4068  -3.3913
    -3.3842  -3.3121  -3.3111  -3.2780  -3.2771  -3.2502  -3.2496  -3.2370
    -3.2203  -3.1598  -3.1597  -3.1427  -3.1418  -3.0900  -3.0851  -3.0849
    -3.0474  -3.0158  -3.0145  -3.0075  -3.0062  -2.9930  -2.9929  -2.9852
    -2.9850  -2.9752  -2.9347  -2.8977  -2.8965  -2.8822  -2.8817  -2.8567
    -2.8468  -2.8457  -2.8245  -2.7814  -2.7796  -2.7712  -2.7709  -2.7312
    -2.7252  -2.7142  -2.7128  -2.6842  -2.6839  -2.6550  -2.6168  -2.6165
    -2.5944  -2.5877  -2.5736  -2.5731  -2.5230  -2.5223  -2.4898  -2.4674
    -2.4672  -2.4430  -2.4427  -2.4317  -2.4311  -2.4208  -2.3981  -2.3972
    -2.3533  -2.3527  -2.3519  -2.3354  -2.3338  -2.3300  -2.3197  -2.3195
    -2.3172  -2.3165  -2.3114  -2.2988  -2.2973  -2.2869  -2.2621  -2.2615
    -2.2602  -2.2594  -2.2592  -2.2561  -2.2559  -2.2280  -2.2250  -2.2108
    -2.2105  -2.1935  -2.1927  -2.1828  -2.1826  -2.1813  -2.1809  -2.1616
    -2.1606  -2.1591  -2.1585  -2.1417  -2.1159  -2.1152  -2.0766  -2.0748
    -2.0501  -2.0487  -2.0220  -2.0218  -1.9945  -1.9938  -1.9772  -1.9726
    -1.9457  -1.9227  -1.9221  -1.9179  -1.9171  -1.9132  -1.9060  -1.9055
    -1.8802  -1.8730  -1.8625  -1.8071  -1.8027  -1.8020  -1.7996  -1.7990
    -1.7604  -1.7444  -1.7427  -1.7153  -1.7150  -1.6546  -1.6536  -1.6260
    -1.6073  -1.6069  -1.5462  -1.5454  -1.5339  -1.5337  -1.5232  -1.5222
    -1.5197  -1.5096  -1.5092  -1.4535  -1.4533  -1.4416  -1.4414  -1.4409
    -1.4215  -1.4205  -1.3857  -1.3854  -1.3686  -1.3681  -1.3679  -1.3614
    -1.3564  -1.3472  -1.3458  -1.3280  -1.3271  -1.2855  -1.2850  -1.2731
    -1.2722  -1.2523  -1.2398  -1.1962  -1.1950  -1.1700  -1.1651  -1.1645
    -1.1359  -1.0841  -1.0837  -1.0825  -1.0823  -1.0768  -1.0763  -1.0659
    -1.0475  -1.0467  -1.0073  -1.0070  -0.9764  -0.9762  -0.9717  -0.9710
    -0.9629  -0.9469  -0.9467  -0.9456  -0.9425  -0.9423  -0.9058  -0.9042
    -0.9033  -0.9025  -0.8713  -0.8709  -0.8679  -0.8441  -0.8358  -0.8350
    -0.7891  -0.7817  -0.7811  -0.7481  -0.7466  -0.7383  -0.7278  -0.7273
    -0.7193  -0.7187  -0.7183  -0.7175  -0.7061  -0.7058  -0.6798  -0.6792
    -0.6770  -0.6745  -0.6743  -0.6372  -0.6370  -0.6264  -0.6260  -0.6109
    -0.6033  -0.6028  -0.5911  -0.5359  -0.5329  -0.5245  -0.5241  -0.5231
    -0.5229  -0.5178  -0.4982  -0.4976  -0.4893  -0.4891  -0.4870  -0.4869
    -0.4477  -0.4451  -0.4447  -0.4369  -0.4360  -0.4312  -0.4294  -0.4198
    -0.4136  -0.4102  -0.4097  -0.3676  -0.3672  -0.3589  -0.3556  -0.3550
    -0.2778  -0.2773  -0.2750  -0.2747  -0.2656  -0.2654  -0.2289  -0.2161
    -0.2157  -0.1882  -0.1870  -0.1839  -0.0625  -0.0615   0.0401   0.4552
     0.4556   0.4581   0.4586   0.5190   0.5198   0.9085   0.9090   0.9515
     0.9518   1.0589   1.1399   1.2505   1.2525   1.4713   1.4738   2.1056
     2.1061   2.2682   2.2688   2.3993   2.4002   2.5037   2.5043   2.6580
     2.8959   2.9011   3.0184   3.2438   3.2450   3.3277   3.3292   3.4282
     3.4433   3.6382   3.6416   3.7003   3.9002   3.9009   3.9628   3.9647
     4.2202   4.2280   4.2290   4.4715   4.5130   4.5143   4.5585   4.8945
     4.8960   4.9243   5.0595   5.1734   5.2314   5.2318   5.2918   5.3031
     5.7402   5.9521   6.0079   6.0193   6.0258   6.0283   6.0946   6.0949
     6.1777   6.2055   6.2299   6.2534   6.2566   6.2613   6.2749   6.2789
     6.3182   6.3184   6.4703   6.5331   6.7742   6.7945   6.8370   6.9203
     6.9661   6.9754   7.0299

          k = 0.5000 0.0000 0.1111 (136853 PWs)   bands (ev):

   -18.7491  -6.5633  -6.2596  -5.8616  -5.8588  -5.1818  -4.8496  -4.8480
    -4.8100  -4.8079  -4.4491  -4.4477  -4.3499  -4.3497  -4.3356  -4.3146
    -4.2864  -4.1828  -4.1818  -4.1581  -4.1146  -4.1145  -4.0456  -4.0454
    -4.0388  -4.0377  -4.0173  -4.0130  -4.0100  -3.9382  -3.9371  -3.9099
    -3.9080  -3.8971  -3.8966  -3.8736  -3.8736  -3.8511  -3.8428  -3.8424
    -3.8158  -3.7638  -3.7634  -3.7167  -3.7146  -3.6559  -3.6557  -3.6018
    -3.6017  -3.6007  -3.6003  -3.5659  -3.5257  -3.5254  -3.5200  -3.5190
    -3.5185  -3.4882  -3.4867  -3.4794  -3.4170  -3.4166  -3.4068  -3.3913
    -3.3842  -3.3119  -3.3112  -3.2784  -3.2767  -3.2504  -3.2495  -3.2370
    -3.2203  -3.1599  -3.1596  -3.1426  -3.1419  -3.0900  -3.0851  -3.0849
    -3.0474  -3.0158  -3.0146  -3.0074  -3.0063  -2.9930  -2.9929  -2.9852
    -2.9850  -2.9753  -2.9347  -2.8977  -2.8965  -2.8823  -2.8816  -2.8567
    -2.8463  -2.8462  -2.8245  -2.7813  -2.7797  -2.7714  -2.7706  -2.7313
    -2.7252  -2.7143  -2.7128  -2.6845  -2.6836  -2.6550  -2.6170  -2.6164
    -2.5944  -2.5877  -2.5736  -2.5732  -2.5229  -2.5223  -2.4898  -2.4675
    -2.4671  -2.4430  -2.4426  -2.4318  -2.4310  -2.4208  -2.3980  -2.3973
    -2.3533  -2.3526  -2.3520  -2.3354  -2.3337  -2.3300  -2.3197  -2.3195
    -2.3171  -2.3166  -2.3115  -2.2987  -2.2974  -2.2869  -2.2619  -2.2616
    -2.2601  -2.2596  -2.2591  -2.2563  -2.2557  -2.2280  -2.2250  -2.2108
    -2.2105  -2.1935  -2.1928  -2.1829  -2.1826  -2.1813  -2.1808  -2.1617
    -2.1604  -2.1593  -2.1583  -2.1417  -2.1158  -2.1154  -2.0767  -2.0746
    -2.0502  -2.0486  -2.0221  -2.0217  -1.9943  -1.9940  -1.9772  -1.9726
    -1.9457  -1.9227  -1.9220  -1.9178  -1.9172  -1.9131  -1.9061  -1.9055
    -1.8803  -1.8731  -1.8624  -1.8070  -1.8029  -1.8018  -1.7996  -1.7990
    -1.7604  -1.7442  -1.7428  -1.7153  -1.7150  -1.6546  -1.6537  -1.6259
    -1.6073  -1.6068  -1.5462  -1.5455  -1.5341  -1.5335  -1.5231  -1.5223
    -1.5197  -1.5097  -1.5091  -1.4538  -1.4531  -1.4415  -1.4413  -1.4410
    -1.4216  -1.4205  -1.3859  -1.3853  -1.3685  -1.3681  -1.3680  -1.3614
    -1.3564  -1.3471  -1.3458  -1.3279  -1.3272  -1.2857  -1.2849  -1.2731
    -1.2721  -1.2523  -1.2398  -1.1961  -1.1951  -1.1701  -1.1651  -1.1646
    -1.1359  -1.0841  -1.0837  -1.0827  -1.0820  -1.0769  -1.0762  -1.0659
    -1.0472  -1.0470  -1.0072  -1.0070  -0.9763  -0.9762  -0.9717  -0.9711
    -0.9629  -0.9469  -0.9467  -0.9456  -0.9426  -0.9422  -0.9057  -0.9042
    -0.9032  -0.9026  -0.8714  -0.8710  -0.8679  -0.8441  -0.8356  -0.8352
    -0.7890  -0.7819  -0.7810  -0.7482  -0.7466  -0.7383  -0.7278  -0.7273
    -0.7193  -0.7186  -0.7182  -0.7175  -0.7060  -0.7059  -0.6799  -0.6792
    -0.6770  -0.6746  -0.6742  -0.6373  -0.6370  -0.6265  -0.6260  -0.6109
    -0.6034  -0.6027  -0.5911  -0.5358  -0.5330  -0.5243  -0.5242  -0.5233
    -0.5227  -0.5178  -0.4983  -0.4975  -0.4892  -0.4891  -0.4870  -0.4868
    -0.4477  -0.4452  -0.4446  -0.4368  -0.4361  -0.4312  -0.4294  -0.4198
    -0.4136  -0.4101  -0.4097  -0.3675  -0.3672  -0.3589  -0.3555  -0.3551
    -0.2779  -0.2772  -0.2750  -0.2746  -0.2657  -0.2653  -0.2289  -0.2161
    -0.2158  -0.1884  -0.1868  -0.1839  -0.0627  -0.0613   0.0401   0.4552
     0.4556   0.4581   0.4587   0.5189   0.5199   0.9086   0.9089   0.9510
     0.9522   1.0590   1.1399   1.2504   1.2526   1.4708   1.4743   2.1051
     2.1067   2.2678   2.2691   2.3991   2.4003   2.5033   2.5047   2.6580
     2.8959   2.9011   3.0185   3.2433   3.2455   3.3274   3.3295   3.4282
     3.4433   3.6369   3.6428   3.7002   3.9001   3.9011   3.9626   3.9649
     4.2202   4.2280   4.2291   4.4714   4.5128   4.5145   4.5585   4.8947
     4.8959   4.9243   5.0595   5.1723   5.2313   5.2319   5.2904   5.3002
     5.7542   5.9343   6.0192   6.0222   6.0259   6.0283   6.0944   6.0951
     6.1799   6.2055   6.2300   6.2568   6.2579   6.2733   6.2788   6.2958
     6.3178   6.3189   6.4080   6.5503   6.7702   6.7885   6.8624   6.8876
     6.9652   6.9672   6.9754

          k =-0.5000 0.0000 0.1111 (136853 PWs)   bands (ev):

   -18.7491  -6.5633  -6.2596  -5.8616  -5.8588  -5.1818  -4.8496  -4.8480
    -4.8100  -4.8079  -4.4491  -4.4477  -4.3499  -4.3497  -4.3356  -4.3146
    -4.2864  -4.1828  -4.1818  -4.1581  -4.1147  -4.1145  -4.0456  -4.0454
    -4.0388  -4.0377  -4.0173  -4.0130  -4.0100  -3.9382  -3.9371  -3.9099
    -3.9080  -3.8971  -3.8966  -3.8736  -3.8736  -3.8511  -3.8428  -3.8424
    -3.8158  -3.7638  -3.7634  -3.7167  -3.7146  -3.6559  -3.6557  -3.6018
    -3.6017  -3.6007  -3.6003  -3.5659  -3.5257  -3.5254  -3.5200  -3.5190
    -3.5185  -3.4882  -3.4867  -3.4794  -3.4170  -3.4166  -3.4068  -3.3913
    -3.3842  -3.3119  -3.3112  -3.2784  -3.2767  -3.2504  -3.2495  -3.2370
    -3.2203  -3.1599  -3.1596  -3.1426  -3.1419  -3.0900  -3.0851  -3.0849
    -3.0474  -3.0158  -3.0146  -3.0074  -3.0063  -2.9930  -2.9929  -2.9852
    -2.9850  -2.9753  -2.9347  -2.8977  -2.8965  -2.8823  -2.8816  -2.8567
    -2.8463  -2.8462  -2.8245  -2.7813  -2.7797  -2.7714  -2.7706  -2.7313
    -2.7252  -2.7143  -2.7128  -2.6845  -2.6836  -2.6550  -2.6170  -2.6164
    -2.5944  -2.5877  -2.5736  -2.5732  -2.5229  -2.5223  -2.4898  -2.4675
    -2.4671  -2.4430  -2.4426  -2.4318  -2.4310  -2.4208  -2.3980  -2.3973
    -2.3533  -2.3526  -2.3520  -2.3354  -2.3337  -2.3300  -2.3197  -2.3195
    -2.3171  -2.3166  -2.3115  -2.2987  -2.2974  -2.2869  -2.2619  -2.2616
    -2.2601  -2.2596  -2.2591  -2.2563  -2.2557  -2.2280  -2.2250  -2.2108
    -2.2105  -2.1935  -2.1928  -2.1829  -2.1826  -2.1813  -2.1808  -2.1617
    -2.1604  -2.1593  -2.1583  -2.1417  -2.1158  -2.1154  -2.0767  -2.0746
    -2.0502  -2.0486  -2.0221  -2.0217  -1.9943  -1.9940  -1.9772  -1.9726
    -1.9457  -1.9227  -1.9220  -1.9178  -1.9172  -1.9131  -1.9061  -1.9055
    -1.8803  -1.8731  -1.8624  -1.8070  -1.8029  -1.8018  -1.7996  -1.7990
    -1.7604  -1.7442  -1.7428  -1.7153  -1.7150  -1.6546  -1.6537  -1.6259
    -1.6073  -1.6068  -1.5462  -1.5455  -1.5341  -1.5335  -1.5231  -1.5223
    -1.5197  -1.5097  -1.5091  -1.4538  -1.4531  -1.4415  -1.4413  -1.4410
    -1.4216  -1.4205  -1.3859  -1.3853  -1.3685  -1.3681  -1.3680  -1.3614
    -1.3564  -1.3471  -1.3458  -1.3279  -1.3272  -1.2857  -1.2849  -1.2731
    -1.2721  -1.2523  -1.2398  -1.1961  -1.1951  -1.1701  -1.1651  -1.1646
    -1.1359  -1.0841  -1.0837  -1.0827  -1.0820  -1.0769  -1.0762  -1.0659
    -1.0472  -1.0470  -1.0072  -1.0070  -0.9763  -0.9762  -0.9717  -0.9711
    -0.9629  -0.9469  -0.9467  -0.9456  -0.9426  -0.9422  -0.9057  -0.9042
    -0.9032  -0.9026  -0.8714  -0.8710  -0.8679  -0.8441  -0.8356  -0.8352
    -0.7890  -0.7819  -0.7810  -0.7482  -0.7466  -0.7383  -0.7278  -0.7273
    -0.7193  -0.7186  -0.7182  -0.7175  -0.7060  -0.7059  -0.6799  -0.6792
    -0.6770  -0.6746  -0.6742  -0.6373  -0.6370  -0.6265  -0.6260  -0.6109
    -0.6034  -0.6027  -0.5911  -0.5358  -0.5330  -0.5243  -0.5242  -0.5233
    -0.5227  -0.5178  -0.4983  -0.4975  -0.4892  -0.4891  -0.4870  -0.4868
    -0.4477  -0.4452  -0.4446  -0.4368  -0.4361  -0.4312  -0.4294  -0.4198
    -0.4136  -0.4101  -0.4097  -0.3675  -0.3672  -0.3589  -0.3555  -0.3551
    -0.2779  -0.2772  -0.2750  -0.2746  -0.2657  -0.2653  -0.2289  -0.2161
    -0.2158  -0.1884  -0.1868  -0.1839  -0.0627  -0.0613   0.0401   0.4552
     0.4556   0.4581   0.4587   0.5189   0.5199   0.9086   0.9089   0.9510
     0.9522   1.0590   1.1399   1.2504   1.2526   1.4708   1.4743   2.1051
     2.1067   2.2678   2.2691   2.3991   2.4003   2.5033   2.5047   2.6580
     2.8959   2.9011   3.0185   3.2433   3.2455   3.3274   3.3295   3.4282
     3.4433   3.6369   3.6428   3.7002   3.9001   3.9011   3.9626   3.9649
     4.2202   4.2280   4.2291   4.4714   4.5128   4.5145   4.5585   4.8947
     4.8959   4.9243   5.0595   5.1723   5.2313   5.2319   5.2904   5.3002
     5.7542   5.9343   6.0192   6.0223   6.0259   6.0283   6.0944   6.0951
     6.1799   6.2055   6.2300   6.2568   6.2579   6.2733   6.2789   6.2958
     6.3177   6.3189   6.4078   6.5502   6.7706   6.7885   6.8631   6.8869
     6.9653   6.9672   6.9754

          k =-0.2500 0.1443 0.1111 (136898 PWs)   bands (ev):

   -18.7491  -6.5633  -6.4695  -5.6775  -5.3857  -5.3271  -5.3271  -4.7887
    -4.7887  -4.6567  -4.6562  -4.5020  -4.4693  -4.4091  -4.3749  -4.3747
    -4.3421  -4.3421  -4.2135  -4.1717  -4.1717  -4.1116  -4.0903  -4.0902
    -3.9882  -3.9882  -3.9520  -3.9518  -3.9518  -3.9247  -3.9032  -3.9032
    -3.7971  -3.7960  -3.7960  -3.7752  -3.7583  -3.7583  -3.7460  -3.7458
    -3.7325  -3.7024  -3.7024  -3.7022  -3.7022  -3.6695  -3.6694  -3.6518
    -3.6517  -3.6363  -3.5926  -3.5926  -3.5633  -3.5476  -3.5474  -3.5435
    -3.5435  -3.4688  -3.4688  -3.4330  -3.4307  -3.4306  -3.3633  -3.3633
    -3.3477  -3.3476  -3.3165  -3.3162  -3.3155  -3.3152  -3.1621  -3.1621
    -3.1360  -3.1360  -3.1309  -3.1151  -3.1150  -3.0890  -3.0889  -3.0391
    -3.0391  -3.0227  -3.0227  -3.0025  -2.9535  -2.9535  -2.9340  -2.9291
    -2.9290  -2.8881  -2.8881  -2.8818  -2.8818  -2.8648  -2.8646  -2.8252
    -2.8252  -2.8034  -2.8033  -2.8001  -2.8001  -2.7974  -2.7713  -2.7196
    -2.7196  -2.7182  -2.6895  -2.6894  -2.6274  -2.6273  -2.5993  -2.5979
    -2.5847  -2.5846  -2.5795  -2.5496  -2.5496  -2.5402  -2.5224  -2.4964
    -2.4964  -2.4961  -2.4755  -2.4755  -2.4641  -2.4640  -2.4605  -2.4603
    -2.4529  -2.4067  -2.3739  -2.3739  -2.3585  -2.3443  -2.3379  -2.3377
    -2.3303  -2.3301  -2.3288  -2.2987  -2.2986  -2.2985  -2.2887  -2.2887
    -2.2712  -2.2437  -2.2433  -2.2427  -2.2420  -2.2419  -2.1969  -2.1651
    -2.1649  -2.1649  -2.1582  -2.1494  -2.1359  -2.1359  -2.1194  -2.1194
    -2.0850  -2.0844  -2.0843  -2.0658  -2.0638  -2.0637  -2.0306  -2.0304
    -1.9893  -1.9889  -1.9817  -1.9797  -1.9796  -1.9729  -1.9728  -1.9705
    -1.9704  -1.9631  -1.9628  -1.9461  -1.9460  -1.8187  -1.8185  -1.7864
    -1.7806  -1.7804  -1.7752  -1.7752  -1.7569  -1.7569  -1.7540  -1.7539
    -1.7522  -1.7295  -1.7204  -1.7203  -1.7174  -1.7088  -1.7088  -1.6859
    -1.6858  -1.6572  -1.6572  -1.6245  -1.6244  -1.6146  -1.6064  -1.5886
    -1.5885  -1.5857  -1.5671  -1.5548  -1.5548  -1.5473  -1.5473  -1.5203
    -1.5202  -1.5032  -1.5031  -1.4711  -1.4709  -1.4608  -1.4097  -1.4097
    -1.3973  -1.3971  -1.3965  -1.3720  -1.3695  -1.3355  -1.3348  -1.3347
    -1.3010  -1.2910  -1.2908  -1.2753  -1.2752  -1.2482  -1.2468  -1.2467
    -1.2171  -1.2143  -1.2142  -1.1515  -1.1514  -1.1379  -1.1376  -1.1215
    -1.1215  -1.1089  -1.1089  -1.0910  -1.0782  -1.0502  -1.0502  -1.0388
    -1.0109  -1.0004  -1.0002  -0.9888  -0.9888  -0.9863  -0.9808  -0.9806
    -0.9680  -0.9364  -0.9364  -0.9252  -0.9248  -0.9239  -0.9237  -0.8997
    -0.8812  -0.8808  -0.8600  -0.8598  -0.7670  -0.7541  -0.7484  -0.7482
    -0.7480  -0.7441  -0.7386  -0.7385  -0.7178  -0.7124  -0.6975  -0.6972
    -0.6826  -0.6825  -0.6733  -0.6530  -0.6527  -0.6513  -0.6429  -0.5712
    -0.5712  -0.5368  -0.5365  -0.5328  -0.5254  -0.5251  -0.5244  -0.5244
    -0.5109  -0.5108  -0.4955  -0.4702  -0.4555  -0.4353  -0.4352  -0.4238
    -0.4237  -0.4109  -0.4109  -0.4098  -0.4084  -0.4084  -0.3907  -0.3864
    -0.3863  -0.3557  -0.3540  -0.3540  -0.3420  -0.3419  -0.3226  -0.2904
    -0.2903  -0.2810  -0.2810  -0.2128  -0.2128  -0.1754  -0.1753  -0.1181
    -0.1153  -0.1153  -0.1058  -0.0861   0.1359   0.1366   0.4836   0.4836
     0.5749   0.5756   0.7689   0.7812   0.8013   0.9324   0.9326   1.3638
     1.3638   1.3825   1.6397   1.6739   1.6739   1.9507   1.9519   2.0305
     2.0305   2.0578   2.0585   2.2871   2.2871   2.3750   2.3750   2.4474
     2.5137   2.5149   2.6791   2.7761   3.2180   3.2181   3.2209   3.2212
     3.2762   3.2762   3.5682   3.5682   3.8500   3.8509   3.9532   4.2639
     4.3073   4.3079   4.5262   4.5289   4.6082   4.6083   4.6992   4.8175
     4.8176   4.9344   4.9346   5.1376   5.2392   5.3086   5.3088   5.4741
     5.4791   5.6664   5.6960   5.6964   5.7222   5.7223   5.7864   5.7866
     5.8320   6.0687   6.2174   6.3317   6.3941   6.4097   6.5198   6.5288
     6.5290   6.5419   6.5425   6.7264   6.7833   6.7841   6.8100   6.9729
     6.9861   7.0150   7.0328

          k =-0.2500-0.1443-0.1111 (136898 PWs)   bands (ev):

   -18.7491  -6.5633  -6.4695  -5.6775  -5.3857  -5.3271  -5.3271  -4.7887
    -4.7886  -4.6571  -4.6560  -4.5019  -4.4693  -4.4092  -4.3749  -4.3748
    -4.3421  -4.3419  -4.2135  -4.1719  -4.1716  -4.1114  -4.0904  -4.0902
    -3.9882  -3.9881  -3.9521  -3.9518  -3.9517  -3.9246  -3.9034  -3.9030
    -3.7971  -3.7962  -3.7959  -3.7750  -3.7585  -3.7582  -3.7460  -3.7459
    -3.7324  -3.7024  -3.7023  -3.7022  -3.7021  -3.6696  -3.6694  -3.6517
    -3.6517  -3.6362  -3.5928  -3.5925  -3.5634  -3.5476  -3.5474  -3.5436
    -3.5434  -3.4689  -3.4687  -3.4328  -3.4306  -3.4304  -3.3635  -3.3634
    -3.3476  -3.3475  -3.3162  -3.3160  -3.3157  -3.3157  -3.1622  -3.1621
    -3.1361  -3.1360  -3.1309  -3.1151  -3.1150  -3.0890  -3.0887  -3.0392
    -3.0391  -3.0228  -3.0227  -3.0024  -2.9536  -2.9533  -2.9341  -2.9292
    -2.9291  -2.8882  -2.8880  -2.8819  -2.8818  -2.8648  -2.8647  -2.8251
    -2.8250  -2.8034  -2.8033  -2.8001  -2.8000  -2.7974  -2.7713  -2.7197
    -2.7195  -2.7185  -2.6896  -2.6894  -2.6274  -2.6271  -2.5992  -2.5980
    -2.5845  -2.5844  -2.5796  -2.5498  -2.5493  -2.5402  -2.5223  -2.4966
    -2.4964  -2.4964  -2.4755  -2.4754  -2.4644  -2.4642  -2.4604  -2.4602
    -2.4529  -2.4066  -2.3740  -2.3739  -2.3583  -2.3444  -2.3378  -2.3378
    -2.3303  -2.3302  -2.3290  -2.2988  -2.2987  -2.2983  -2.2887  -2.2885
    -2.2711  -2.2439  -2.2435  -2.2428  -2.2418  -2.2417  -2.1971  -2.1653
    -2.1650  -2.1648  -2.1581  -2.1495  -2.1361  -2.1354  -2.1193  -2.1193
    -2.0850  -2.0843  -2.0842  -2.0659  -2.0638  -2.0637  -2.0305  -2.0304
    -1.9895  -1.9888  -1.9814  -1.9796  -1.9795  -1.9730  -1.9728  -1.9709
    -1.9703  -1.9630  -1.9627  -1.9462  -1.9461  -1.8187  -1.8185  -1.7863
    -1.7806  -1.7804  -1.7751  -1.7751  -1.7576  -1.7572  -1.7540  -1.7538
    -1.7516  -1.7295  -1.7204  -1.7202  -1.7175  -1.7088  -1.7083  -1.6861
    -1.6860  -1.6576  -1.6570  -1.6245  -1.6244  -1.6145  -1.6064  -1.5886
    -1.5884  -1.5854  -1.5671  -1.5550  -1.5550  -1.5475  -1.5473  -1.5201
    -1.5200  -1.5034  -1.5028  -1.4712  -1.4710  -1.4609  -1.4101  -1.4094
    -1.3972  -1.3971  -1.3969  -1.3722  -1.3692  -1.3355  -1.3347  -1.3344
    -1.3011  -1.2909  -1.2907  -1.2752  -1.2750  -1.2481  -1.2469  -1.2468
    -1.2172  -1.2143  -1.2142  -1.1517  -1.1516  -1.1379  -1.1377  -1.1217
    -1.1215  -1.1087  -1.1086  -1.0905  -1.0780  -1.0503  -1.0500  -1.0389
    -1.0107  -1.0003  -1.0001  -0.9890  -0.9889  -0.9867  -0.9810  -0.9808
    -0.9679  -0.9365  -0.9362  -0.9252  -0.9248  -0.9241  -0.9236  -0.8997
    -0.8814  -0.8811  -0.8599  -0.8597  -0.7668  -0.7541  -0.7484  -0.7482
    -0.7479  -0.7440  -0.7388  -0.7386  -0.7176  -0.7124  -0.6975  -0.6972
    -0.6826  -0.6825  -0.6735  -0.6529  -0.6526  -0.6514  -0.6430  -0.5713
    -0.5711  -0.5368  -0.5365  -0.5329  -0.5254  -0.5252  -0.5244  -0.5243
    -0.5109  -0.5107  -0.4955  -0.4701  -0.4557  -0.4354  -0.4352  -0.4239
    -0.4237  -0.4110  -0.4108  -0.4098  -0.4084  -0.4083  -0.3907  -0.3866
    -0.3864  -0.3556  -0.3539  -0.3539  -0.3420  -0.3419  -0.3227  -0.2904
    -0.2903  -0.2810  -0.2809  -0.2130  -0.2128  -0.1756  -0.1751  -0.1181
    -0.1154  -0.1151  -0.1060  -0.0861   0.1361   0.1367   0.4836   0.4836
     0.5751   0.5757   0.7686   0.7813   0.8013   0.9324   0.9326   1.3637
     1.3639   1.3826   1.6397   1.6738   1.6740   1.9508   1.9518   2.0304
     2.0306   2.0578   2.0585   2.2868   2.2871   2.3750   2.3750   2.4474
     2.5137   2.5148   2.6789   2.7762   3.2181   3.2183   3.2209   3.2212
     3.2760   3.2765   3.5679   3.5685   3.8501   3.8508   3.9532   4.2639
     4.3071   4.3077   4.5265   4.5285   4.6079   4.6087   4.6992   4.8171
     4.8177   4.9347   4.9350   5.1387   5.2392   5.3083   5.3091   5.4744
     5.4790   5.6659   5.6957   5.6961   5.7222   5.7223   5.7863   5.7870
     5.8317   6.0618   6.2167   6.3388   6.3935   6.4082   6.5140   6.5287
     6.5292   6.5422   6.5426   6.7287   6.7834   6.7840   6.8249   6.9691
     6.9848   7.0144   7.0333

          k = 0.2500 0.1443-0.1111 (136898 PWs)   bands (ev):

   -18.7491  -6.5633  -6.4695  -5.6775  -5.3857  -5.3271  -5.3271  -4.7887
    -4.7886  -4.6571  -4.6560  -4.5019  -4.4693  -4.4092  -4.3749  -4.3748
    -4.3421  -4.3419  -4.2135  -4.1719  -4.1716  -4.1114  -4.0904  -4.0902
    -3.9882  -3.9881  -3.9521  -3.9518  -3.9517  -3.9247  -3.9034  -3.9030
    -3.7971  -3.7962  -3.7959  -3.7750  -3.7585  -3.7582  -3.7460  -3.7459
    -3.7324  -3.7024  -3.7023  -3.7022  -3.7021  -3.6696  -3.6694  -3.6517
    -3.6517  -3.6362  -3.5928  -3.5925  -3.5634  -3.5476  -3.5474  -3.5436
    -3.5434  -3.4689  -3.4687  -3.4328  -3.4306  -3.4304  -3.3635  -3.3634
    -3.3476  -3.3475  -3.3162  -3.3160  -3.3157  -3.3157  -3.1622  -3.1621
    -3.1361  -3.1360  -3.1309  -3.1151  -3.1150  -3.0890  -3.0887  -3.0392
    -3.0391  -3.0228  -3.0227  -3.0024  -2.9536  -2.9533  -2.9341  -2.9292
    -2.9291  -2.8882  -2.8880  -2.8819  -2.8818  -2.8648  -2.8647  -2.8251
    -2.8250  -2.8034  -2.8032  -2.8001  -2.8000  -2.7974  -2.7713  -2.7197
    -2.7195  -2.7184  -2.6896  -2.6894  -2.6274  -2.6271  -2.5992  -2.5980
    -2.5845  -2.5844  -2.5796  -2.5498  -2.5493  -2.5402  -2.5223  -2.4966
    -2.4964  -2.4964  -2.4755  -2.4754  -2.4644  -2.4642  -2.4604  -2.4602
    -2.4529  -2.4066  -2.3740  -2.3739  -2.3583  -2.3444  -2.3378  -2.3378
    -2.3303  -2.3302  -2.3290  -2.2987  -2.2987  -2.2983  -2.2887  -2.2885
    -2.2711  -2.2439  -2.2435  -2.2428  -2.2418  -2.2417  -2.1971  -2.1653
    -2.1650  -2.1648  -2.1581  -2.1495  -2.1361  -2.1354  -2.1193  -2.1193
    -2.0850  -2.0843  -2.0842  -2.0659  -2.0638  -2.0637  -2.0305  -2.0304
    -1.9895  -1.9888  -1.9814  -1.9796  -1.9795  -1.9730  -1.9728  -1.9709
    -1.9703  -1.9630  -1.9627  -1.9462  -1.9461  -1.8187  -1.8185  -1.7863
    -1.7806  -1.7804  -1.7751  -1.7751  -1.7576  -1.7572  -1.7540  -1.7538
    -1.7516  -1.7295  -1.7204  -1.7202  -1.7175  -1.7088  -1.7083  -1.6861
    -1.6860  -1.6576  -1.6570  -1.6245  -1.6244  -1.6145  -1.6064  -1.5886
    -1.5884  -1.5854  -1.5671  -1.5550  -1.5550  -1.5475  -1.5473  -1.5201
    -1.5200  -1.5034  -1.5028  -1.4712  -1.4710  -1.4609  -1.4101  -1.4094
    -1.3972  -1.3971  -1.3969  -1.3722  -1.3692  -1.3355  -1.3347  -1.3344
    -1.3011  -1.2909  -1.2907  -1.2752  -1.2750  -1.2481  -1.2470  -1.2468
    -1.2172  -1.2143  -1.2142  -1.1517  -1.1516  -1.1379  -1.1377  -1.1217
    -1.1215  -1.1087  -1.1086  -1.0905  -1.0780  -1.0503  -1.0500  -1.0389
    -1.0107  -1.0003  -1.0002  -0.9890  -0.9889  -0.9867  -0.9810  -0.9808
    -0.9679  -0.9365  -0.9362  -0.9252  -0.9248  -0.9241  -0.9236  -0.8997
    -0.8814  -0.8811  -0.8599  -0.8597  -0.7668  -0.7541  -0.7484  -0.7482
    -0.7479  -0.7440  -0.7388  -0.7386  -0.7177  -0.7124  -0.6975  -0.6972
    -0.6826  -0.6825  -0.6735  -0.6529  -0.6526  -0.6515  -0.6430  -0.5712
    -0.5711  -0.5368  -0.5365  -0.5329  -0.5254  -0.5252  -0.5244  -0.5243
    -0.5109  -0.5107  -0.4955  -0.4701  -0.4556  -0.4354  -0.4352  -0.4239
    -0.4237  -0.4110  -0.4108  -0.4098  -0.4084  -0.4083  -0.3907  -0.3866
    -0.3864  -0.3556  -0.3540  -0.3539  -0.3420  -0.3419  -0.3227  -0.2904
    -0.2903  -0.2810  -0.2809  -0.2130  -0.2128  -0.1756  -0.1751  -0.1181
    -0.1154  -0.1151  -0.1060  -0.0861   0.1361   0.1367   0.4836   0.4836
     0.5751   0.5757   0.7686   0.7813   0.8013   0.9324   0.9326   1.3637
     1.3639   1.3826   1.6397   1.6738   1.6740   1.9508   1.9518   2.0304
     2.0306   2.0578   2.0585   2.2868   2.2871   2.3750   2.3750   2.4474
     2.5137   2.5148   2.6789   2.7762   3.2181   3.2183   3.2209   3.2212
     3.2760   3.2765   3.5679   3.5685   3.8501   3.8508   3.9532   4.2639
     4.3071   4.3077   4.5265   4.5285   4.6079   4.6087   4.6992   4.8171
     4.8177   4.9347   4.9350   5.1386   5.2392   5.3083   5.3091   5.4744
     5.4790   5.6658   5.6957   5.6961   5.7221   5.7223   5.7863   5.7870
     5.8317   6.0634   6.2161   6.3366   6.3934   6.4074   6.5107   6.5287
     6.5292   6.5422   6.5426   6.7335   6.7834   6.7841   6.8271   6.9728
     6.9873   7.0149   7.0398

          k = 0.0000-0.2887 0.1111 (136898 PWs)   bands (ev):

   -18.7491  -6.5633  -6.4695  -5.6775  -5.3857  -5.3271  -5.3271  -4.7887
    -4.7886  -4.6571  -4.6560  -4.5020  -4.4693  -4.4092  -4.3749  -4.3748
    -4.3421  -4.3420  -4.2135  -4.1718  -4.1717  -4.1114  -4.0904  -4.0902
    -3.9882  -3.9881  -3.9520  -3.9518  -3.9517  -3.9247  -3.9033  -3.9031
    -3.7971  -3.7961  -3.7960  -3.7751  -3.7585  -3.7582  -3.7459  -3.7459
    -3.7325  -3.7026  -3.7024  -3.7021  -3.7019  -3.6696  -3.6694  -3.6517
    -3.6517  -3.6362  -3.5928  -3.5925  -3.5634  -3.5475  -3.5474  -3.5436
    -3.5434  -3.4689  -3.4687  -3.4329  -3.4306  -3.4304  -3.3635  -3.3634
    -3.3476  -3.3475  -3.3164  -3.3160  -3.3157  -3.3154  -3.1622  -3.1621
    -3.1361  -3.1359  -3.1309  -3.1151  -3.1150  -3.0891  -3.0886  -3.0392
    -3.0392  -3.0228  -3.0226  -3.0024  -2.9537  -2.9532  -2.9341  -2.9292
    -2.9291  -2.8881  -2.8880  -2.8819  -2.8818  -2.8648  -2.8647  -2.8251
    -2.8250  -2.8035  -2.8032  -2.8001  -2.8000  -2.7974  -2.7713  -2.7197
    -2.7195  -2.7184  -2.6895  -2.6894  -2.6276  -2.6270  -2.5992  -2.5979
    -2.5845  -2.5845  -2.5796  -2.5496  -2.5495  -2.5402  -2.5223  -2.4965
    -2.4964  -2.4964  -2.4755  -2.4754  -2.4644  -2.4642  -2.4604  -2.4603
    -2.4529  -2.4066  -2.3740  -2.3739  -2.3583  -2.3444  -2.3378  -2.3377
    -2.3303  -2.3302  -2.3290  -2.2988  -2.2986  -2.2983  -2.2889  -2.2884
    -2.2711  -2.2439  -2.2436  -2.2427  -2.2419  -2.2417  -2.1971  -2.1653
    -2.1650  -2.1648  -2.1581  -2.1495  -2.1360  -2.1356  -2.1193  -2.1192
    -2.0850  -2.0844  -2.0842  -2.0658  -2.0638  -2.0637  -2.0305  -2.0304
    -1.9893  -1.9890  -1.9814  -1.9797  -1.9794  -1.9729  -1.9728  -1.9708
    -1.9704  -1.9630  -1.9628  -1.9462  -1.9461  -1.8187  -1.8186  -1.7863
    -1.7805  -1.7804  -1.7752  -1.7751  -1.7576  -1.7571  -1.7540  -1.7538
    -1.7517  -1.7295  -1.7203  -1.7202  -1.7175  -1.7089  -1.7083  -1.6861
    -1.6860  -1.6576  -1.6570  -1.6245  -1.6244  -1.6145  -1.6064  -1.5886
    -1.5884  -1.5855  -1.5671  -1.5550  -1.5549  -1.5475  -1.5473  -1.5201
    -1.5200  -1.5034  -1.5028  -1.4712  -1.4711  -1.4609  -1.4100  -1.4095
    -1.3972  -1.3971  -1.3968  -1.3723  -1.3692  -1.3355  -1.3348  -1.3344
    -1.3011  -1.2909  -1.2908  -1.2752  -1.2750  -1.2481  -1.2469  -1.2468
    -1.2172  -1.2143  -1.2142  -1.1516  -1.1516  -1.1378  -1.1377  -1.1219
    -1.1212  -1.1087  -1.1087  -1.0906  -1.0781  -1.0504  -1.0500  -1.0389
    -1.0107  -1.0003  -1.0002  -0.9890  -0.9889  -0.9867  -0.9809  -0.9808
    -0.9679  -0.9365  -0.9362  -0.9252  -0.9248  -0.9240  -0.9237  -0.8997
    -0.8813  -0.8811  -0.8599  -0.8597  -0.7669  -0.7541  -0.7484  -0.7482
    -0.7478  -0.7441  -0.7388  -0.7385  -0.7177  -0.7124  -0.6974  -0.6972
    -0.6825  -0.6825  -0.6734  -0.6528  -0.6527  -0.6514  -0.6430  -0.5712
    -0.5711  -0.5367  -0.5366  -0.5329  -0.5254  -0.5252  -0.5244  -0.5244
    -0.5109  -0.5107  -0.4955  -0.4701  -0.4556  -0.4353  -0.4353  -0.4239
    -0.4238  -0.4109  -0.4108  -0.4098  -0.4084  -0.4084  -0.3906  -0.3866
    -0.3864  -0.3556  -0.3540  -0.3538  -0.3420  -0.3418  -0.3226  -0.2904
    -0.2903  -0.2810  -0.2809  -0.2129  -0.2128  -0.1756  -0.1751  -0.1182
    -0.1154  -0.1152  -0.1060  -0.0861   0.1362   0.1366   0.4836   0.4836
     0.5752   0.5756   0.7685   0.7814   0.8013   0.9324   0.9325   1.3638
     1.3638   1.3826   1.6397   1.6739   1.6739   1.9510   1.9516   2.0304
     2.0306   2.0580   2.0583   2.2868   2.2871   2.3750   2.3750   2.4474
     2.5139   2.5146   2.6789   2.7761   3.2181   3.2182   3.2210   3.2212
     3.2760   3.2764   3.5682   3.5683   3.8503   3.8507   3.9532   4.2639
     4.3072   4.3076   4.5270   4.5277   4.6082   4.6084   4.6992   4.8172
     4.8176   4.9347   4.9350   5.1428   5.2392   5.3086   5.3088   5.4758
     5.4783   5.6632   5.6958   5.6961   5.7221   5.7223   5.7864   5.7869
     5.8308   6.0410   6.2139   6.3740   6.3915   6.3938   6.4939   6.5286
     6.5293   6.5423   6.5426   6.7318   6.7835   6.7839   6.9211   6.9375
     6.9821   7.0109   7.0145

          k = 0.0000 0.2887 0.1111 (136898 PWs)   bands (ev):

   -18.7491  -6.5633  -6.4695  -5.6775  -5.3857  -5.3271  -5.3271  -4.7887
    -4.7886  -4.6571  -4.6560  -4.5020  -4.4693  -4.4092  -4.3749  -4.3748
    -4.3421  -4.3420  -4.2135  -4.1718  -4.1717  -4.1114  -4.0904  -4.0902
    -3.9882  -3.9881  -3.9521  -3.9518  -3.9517  -3.9247  -3.9033  -3.9031
    -3.7971  -3.7961  -3.7960  -3.7751  -3.7585  -3.7582  -3.7459  -3.7459
    -3.7325  -3.7026  -3.7024  -3.7021  -3.7019  -3.6696  -3.6693  -3.6517
    -3.6517  -3.6362  -3.5928  -3.5925  -3.5634  -3.5475  -3.5474  -3.5436
    -3.5434  -3.4689  -3.4687  -3.4329  -3.4306  -3.4305  -3.3635  -3.3634
    -3.3476  -3.3475  -3.3164  -3.3160  -3.3157  -3.3154  -3.1622  -3.1621
    -3.1361  -3.1359  -3.1309  -3.1151  -3.1151  -3.0891  -3.0886  -3.0392
    -3.0392  -3.0228  -3.0226  -3.0024  -2.9537  -2.9532  -2.9341  -2.9292
    -2.9291  -2.8881  -2.8880  -2.8819  -2.8818  -2.8648  -2.8647  -2.8251
    -2.8250  -2.8035  -2.8032  -2.8001  -2.8000  -2.7974  -2.7713  -2.7197
    -2.7195  -2.7184  -2.6895  -2.6894  -2.6276  -2.6270  -2.5992  -2.5979
    -2.5845  -2.5845  -2.5796  -2.5496  -2.5495  -2.5402  -2.5223  -2.4965
    -2.4964  -2.4964  -2.4755  -2.4754  -2.4644  -2.4642  -2.4604  -2.4603
    -2.4529  -2.4066  -2.3740  -2.3739  -2.3583  -2.3444  -2.3378  -2.3377
    -2.3303  -2.3302  -2.3289  -2.2988  -2.2986  -2.2983  -2.2889  -2.2884
    -2.2711  -2.2439  -2.2436  -2.2428  -2.2419  -2.2417  -2.1971  -2.1653
    -2.1650  -2.1648  -2.1581  -2.1495  -2.1360  -2.1356  -2.1193  -2.1193
    -2.0850  -2.0844  -2.0842  -2.0658  -2.0638  -2.0637  -2.0305  -2.0304
    -1.9893  -1.9890  -1.9814  -1.9797  -1.9794  -1.9729  -1.9728  -1.9708
    -1.9704  -1.9630  -1.9628  -1.9462  -1.9461  -1.8187  -1.8186  -1.7863
    -1.7805  -1.7804  -1.7752  -1.7751  -1.7576  -1.7571  -1.7540  -1.7538
    -1.7517  -1.7295  -1.7203  -1.7202  -1.7175  -1.7089  -1.7083  -1.6861
    -1.6860  -1.6576  -1.6570  -1.6245  -1.6244  -1.6145  -1.6064  -1.5886
    -1.5884  -1.5855  -1.5671  -1.5550  -1.5549  -1.5475  -1.5473  -1.5201
    -1.5200  -1.5034  -1.5028  -1.4712  -1.4711  -1.4609  -1.4100  -1.4095
    -1.3972  -1.3971  -1.3968  -1.3723  -1.3692  -1.3355  -1.3348  -1.3344
    -1.3011  -1.2909  -1.2908  -1.2752  -1.2750  -1.2481  -1.2469  -1.2468
    -1.2172  -1.2143  -1.2142  -1.1516  -1.1516  -1.1378  -1.1377  -1.1219
    -1.1212  -1.1087  -1.1087  -1.0906  -1.0781  -1.0504  -1.0500  -1.0389
    -1.0107  -1.0003  -1.0002  -0.9890  -0.9889  -0.9867  -0.9809  -0.9808
    -0.9679  -0.9365  -0.9362  -0.9252  -0.9248  -0.9240  -0.9237  -0.8997
    -0.8813  -0.8811  -0.8599  -0.8597  -0.7669  -0.7541  -0.7484  -0.7482
    -0.7478  -0.7441  -0.7388  -0.7385  -0.7178  -0.7124  -0.6974  -0.6972
    -0.6825  -0.6825  -0.6735  -0.6528  -0.6527  -0.6515  -0.6430  -0.5712
    -0.5711  -0.5367  -0.5366  -0.5329  -0.5254  -0.5252  -0.5244  -0.5244
    -0.5110  -0.5107  -0.4955  -0.4701  -0.4556  -0.4353  -0.4353  -0.4239
    -0.4237  -0.4109  -0.4108  -0.4097  -0.4084  -0.4084  -0.3906  -0.3866
    -0.3864  -0.3556  -0.3540  -0.3538  -0.3420  -0.3418  -0.3227  -0.2904
    -0.2903  -0.2810  -0.2809  -0.2129  -0.2128  -0.1756  -0.1751  -0.1182
    -0.1154  -0.1152  -0.1060  -0.0861   0.1362   0.1366   0.4836   0.4836
     0.5752   0.5756   0.7685   0.7814   0.8013   0.9324   0.9325   1.3638
     1.3638   1.3826   1.6397   1.6739   1.6739   1.9510   1.9516   2.0304
     2.0306   2.0580   2.0583   2.2868   2.2871   2.3750   2.3750   2.4474
     2.5139   2.5146   2.6789   2.7761   3.2181   3.2182   3.2210   3.2212
     3.2760   3.2764   3.5682   3.5682   3.8503   3.8507   3.9532   4.2639
     4.3072   4.3076   4.5270   4.5277   4.6082   4.6084   4.6992   4.8172
     4.8176   4.9347   4.9350   5.1427   5.2392   5.3086   5.3088   5.4758
     5.4783   5.6635   5.6958   5.6961   5.7221   5.7223   5.7864   5.7869
     5.8309   6.0406   6.2127   6.3732   6.3929   6.3938   6.4932   6.5286
     6.5293   6.5423   6.5426   6.7285   6.7835   6.7839   6.9267   6.9427
     6.9866   7.0123   7.0176

     the Fermi energy is     1.5061 ev

!    total energy              =   -6604.42713196 Ry
     Harris-Foulkes estimate   =   -6604.42713195 Ry
     estimated scf accuracy    <          3.6E-09 Ry

     The total energy is the sum of the following terms:

     one-electron contribution =  -48108.29684452 Ry
     hartree contribution      =   24557.20556550 Ry
     xc contribution           =   -3204.94724638 Ry
     ewald contribution        =   20151.60850070 Ry
     smearing contrib. (-TS)   =       0.00289273 Ry

     convergence has been achieved in  24 iterations

     Writing output data file 2929430.save

     init_run     :    137.33s CPU    147.62s WALL (       1 calls)
     electrons    :   8315.39s CPU   8871.32s WALL (       1 calls)

     Called by init_run:
     wfcinit      :    106.48s CPU    116.14s WALL (       1 calls)
     potinit      :      9.01s CPU      9.39s WALL (       1 calls)

     Called by electrons:
     c_bands      :   6985.87s CPU   7437.47s WALL (      25 calls)
     sum_band     :    946.68s CPU   1038.16s WALL (      25 calls)
     v_of_rho     :     95.84s CPU    105.07s WALL (      25 calls)
     newd         :    295.49s CPU    298.66s WALL (      25 calls)
     mix_rho      :      2.78s CPU      3.09s WALL (      25 calls)
     vdW_energy   :      6.55s CPU      7.09s WALL (      25 calls)
     vdW_ffts     :     49.75s CPU     54.51s WALL (      50 calls)
     vdW_v        :     12.62s CPU     13.39s WALL (      25 calls)

     Called by c_bands:
     init_us_2    :     14.60s CPU     15.01s WALL (     612 calls)
     cegterg      :   6910.48s CPU   7360.53s WALL (     300 calls)

     Called by *egterg:
     h_psi        :   2890.52s CPU   3305.97s WALL (    1712 calls)
     s_psi        :    429.30s CPU    431.67s WALL (    1712 calls)
     g_psi        :      6.22s CPU      6.25s WALL (    1400 calls)
     cdiaghg      :   2194.86s CPU   2200.87s WALL (    1688 calls)

     Called by h_psi:
     add_vuspsi   :    429.39s CPU    431.66s WALL (    1712 calls)

     General routines
     calbec       :    632.81s CPU    635.11s WALL (    2012 calls)
     fft          :    172.99s CPU    181.93s WALL (    1650 calls)
     ffts         :      1.45s CPU      1.68s WALL (      50 calls)
     fftw         :   2102.66s CPU   2532.87s WALL (  739576 calls)
     interpolate  :      3.80s CPU      4.45s WALL (      50 calls)
     davcio       :      0.01s CPU      0.20s WALL (      12 calls)

     Parallel routines
     fft_scatter  :   1501.17s CPU   1801.70s WALL (  741276 calls)

     PWSCF        :     2h21m CPU        2h30m WALL


   This run was terminated on:  13:23:16   1Jul2015            

=------------------------------------------------------------------------------=
   JOB DONE.
=------------------------------------------------------------------------------=
