Setting SGE environment for SCC

     Program PWSCF v.5.1.2 starts on  1Jul2015 at 13:26:25 

     This program is part of the open-source Quantum ESPRESSO suite
     for quantum simulation of materials; please cite
         "P. Giannozzi et al., J. Phys.:Condens. Matter 21 395502 (2009);
          URL http://www.quantum-espresso.org", 
     in publications or presentations arising from this work. More details at
     http://www.quantum-espresso.org/quote

     Parallel version (MPI), running on    32 processors
     R & G space division:  proc/nbgrp/npool/nimage =      32
     Reading input from bridge.O1.Au5455.d.2.5.phi.45.psi.90.in
Warning: card &IONS ignored
Warning: card / ignored
Warning: card &CELL ignored
Warning: card / ignored

     Current dimensions of program PWSCF are:
     Max number of different atomic species (ntypx) = 10
     Max number of k-points (npk) =  40000
     Max angular momentum in pseudopotentials (lmaxx) =  3

     IMPORTANT: XC functional enforced from input :
     Exchange-correlation      = VDW-DF ( 1  4  4  0 1 0)
     Any further DFT definition will be discarded
     Please, verify this is what you really want


     Subspace diagonalization in iterative solution of the eigenvalue problem:
     a serial algorithm will be used


     Parallelization info
     --------------------
     sticks:   dense  smooth     PW     G-vecs:    dense   smooth      PW
     Min         445     223     58                96775    34191    4534
     Max         446     224     59                96790    34246    4540
     Sum       14269    7147   1867              3097177  1095093  145167


     Title: 
     bridge.O1.Au5455.d.2.5.phi.45.psi.90                                       


     bravais-lattice index     =            4
     lattice parameter (alat)  =      22.7436  a.u.
     unit-cell volume          =   22924.1508 (a.u.)^3
     number of atoms/cell      =           67
     number of atomic types    =            3
     number of electrons       =       712.00
     number of Kohn-Sham states=          427
     kinetic-energy cutoff     =      50.0000  Ry
     charge density cutoff     =     400.0000  Ry
     convergence threshold     =      1.0E-08
     mixing beta               =       0.7000
     number of iterations used =            8  plain     mixing
     Exchange-correlation      = VDW-DF ( 1  4  4  0 1 0)

     celldm(1)=  22.743643  celldm(2)=   0.000000  celldm(3)=   2.250000
     celldm(4)=   0.000000  celldm(5)=   0.000000  celldm(6)=   0.000000

     crystal axes: (cart. coord. in units of alat)
               a(1) = (   1.000000   0.000000   0.000000 )  
               a(2) = (  -0.500000   0.866025   0.000000 )  
               a(3) = (   0.000000   0.000000   2.250000 )  

     reciprocal axes: (cart. coord. in units 2 pi/alat)
               b(1) = (  1.000000  0.577350 -0.000000 )  
               b(2) = (  0.000000  1.154701  0.000000 )  
               b(3) = (  0.000000 -0.000000  0.444444 )  


     PseudoPot. # 1 for Au read from file:
     /home/scc/andrejb/qe/pseudo/Au.pbe-nd-van.UPF
     MD5 check sum: 458681b50f36d87ef23c61b04bba420a
     Pseudo is Ultrasoft + core correction, Zval = 11.0
     Generated by new atomic code, or converted to UPF format
     Using radial grid of  985 points,  3 beta functions with: 
                l(1) =   1
                l(2) =   2
                l(3) =   2
     Q(r) pseudized with  8 coefficients,  rinner =    1.100   1.100   1.100
                                                       1.100   1.100

     PseudoPot. # 2 for H  read from file:
     /home/scc/andrejb/qe/pseudo/H.pbe-van_ak.UPF
     MD5 check sum: 403db7282739603aa925980fa9b8608d
     Pseudo is Ultrasoft, Zval =  1.0
     Generated by new atomic code, or converted to UPF format
     Using radial grid of  615 points,  1 beta functions with: 
                l(1) =   0
     Q(r) pseudized with  8 coefficients,  rinner =    0.800

     PseudoPot. # 3 for O  read from file:
     /home/scc/andrejb/qe/pseudo/O.pbe-van_ak.UPF
     MD5 check sum: 4b8c549914a63cae506c6ff22b5af4fe
     Pseudo is Ultrasoft, Zval =  6.0
     Generated by new atomic code, or converted to UPF format
     Using radial grid of  737 points,  4 beta functions with: 
                l(1) =   0
                l(2) =   0
                l(3) =   1
                l(4) =   1
     Q(r) pseudized with  8 coefficients,  rinner =    0.800   0.800   0.800


     vdW kernel table read from file vdW_kernel_table
     MD5 check sum: 48e77a2e26edf626eeb0eaa751ad5cac

     atomic species   valence    mass     pseudopotential
        Au            11.00   196.96657     Au( 1.00)
        H              1.00     1.01000     H ( 1.00)
        O              6.00    16.00000     O ( 1.00)

     No symmetry found



   Cartesian axes

     site n.     atom                  positions (alat units)
         1           O   tau(   1) = (   0.2915728   0.2885783   0.8207383  )
         2           H   tau(   2) = (   0.2856432   0.2403247   0.7560515  )
         3           H   tau(   3) = (   0.2973092   0.2378175   0.8834773  )
         4           Au  tau(   4) = (   0.3540481   0.6132292   0.0000000  )
         5           Au  tau(   5) = (   0.4790062   0.3967954   0.0000000  )
         6           Au  tau(   6) = (   0.6039644   0.1803616   0.0000000  )
         7           Au  tau(   7) = (   0.7289225  -0.0360723   0.0000000  )
         8           Au  tau(   8) = (   0.1041318   0.6132292   0.0000000  )
         9           Au  tau(   9) = (   0.2290899   0.3967954   0.0000000  )
        10           Au  tau(  10) = (   0.3540481   0.1803616   0.0000000  )
        11           Au  tau(  11) = (   0.4790062  -0.0360723   0.0000000  )
        12           Au  tau(  12) = (  -0.1457845   0.6132292   0.0000000  )
        13           Au  tau(  13) = (  -0.0208264   0.3967954   0.0000000  )
        14           Au  tau(  14) = (   0.1041318   0.1803616   0.0000000  )
        15           Au  tau(  15) = (   0.2290899  -0.0360723   0.0000000  )
        16           Au  tau(  16) = (  -0.3957008   0.6132292   0.0000000  )
        17           Au  tau(  17) = (  -0.2707426   0.3967954   0.0000000  )
        18           Au  tau(  18) = (  -0.1457845   0.1803616   0.0000000  )
        19           Au  tau(  19) = (  -0.0208264  -0.0360723   0.0000000  )
        20           Au  tau(  20) = (   0.4790062   0.6853738   0.2040557  )
        21           Au  tau(  21) = (   0.6039644   0.4689400   0.2040557  )
        22           Au  tau(  22) = (   0.7289225   0.2525061   0.2040557  )
        23           Au  tau(  23) = (   0.8538806   0.0360723   0.2040557  )
        24           Au  tau(  24) = (   0.2290899   0.6853738   0.2040557  )
        25           Au  tau(  25) = (   0.3540481   0.4689400   0.2040557  )
        26           Au  tau(  26) = (   0.4790062   0.2525061   0.2040557  )
        27           Au  tau(  27) = (   0.6039644   0.0360723   0.2040557  )
        28           Au  tau(  28) = (  -0.0208264   0.6853738   0.2040557  )
        29           Au  tau(  29) = (   0.1041318   0.4689400   0.2040557  )
        30           Au  tau(  30) = (   0.2290899   0.2525061   0.2040557  )
        31           Au  tau(  31) = (   0.3540481   0.0360723   0.2040557  )
        32           Au  tau(  32) = (  -0.2707426   0.6853738   0.2040557  )
        33           Au  tau(  33) = (  -0.1457845   0.4689400   0.2040557  )
        34           Au  tau(  34) = (  -0.0208264   0.2525061   0.2040557  )
        35           Au  tau(  35) = (   0.1041318   0.0360723   0.2040557  )
        36           Au  tau(  36) = (   0.3541162   0.7576593   0.4066483  )
        37           Au  tau(  37) = (   0.4791000   0.5411421   0.4066695  )
        38           Au  tau(  38) = (   0.6040570   0.3246862   0.4066617  )
        39           Au  tau(  39) = (   0.7290270   0.1081684   0.4066529  )
        40           Au  tau(  40) = (   0.1041162   0.7576236   0.4066247  )
        41           Au  tau(  41) = (   0.2291001   0.5411063   0.4066455  )
        42           Au  tau(  42) = (   0.3540567   0.3246505   0.4066380  )
        43           Au  tau(  43) = (   0.4790276   0.1081324   0.4066292  )
        44           Au  tau(  44) = (  -0.1458201   0.7576104   0.4066224  )
        45           Au  tau(  45) = (  -0.0208365   0.5410930   0.4066438  )
        46           Au  tau(  46) = (   0.1041202   0.3246372   0.4066359  )
        47           Au  tau(  47) = (   0.2290908   0.1081193   0.4066273  )
        48           Au  tau(  48) = (  -0.3958167   0.7575791   0.4065812  )
        49           Au  tau(  49) = (  -0.2708328   0.5410617   0.4066025  )
        50           Au  tau(  50) = (  -0.1458763   0.3246061   0.4065947  )
        51           Au  tau(  51) = (  -0.0209056   0.1080882   0.4065858  )
        52           Au  tau(  52) = (   0.3541085   0.6133344   0.6129762  )
        53           Au  tau(  53) = (   0.4790780   0.3968269   0.6129968  )
        54           Au  tau(  54) = (   0.6040356   0.1803811   0.6129859  )
        55           Au  tau(  55) = (   0.7290165  -0.0361221   0.6129385  )
        56           Au  tau(  56) = (   0.1041243   0.6133091   0.6130022  )
        57           Au  tau(  57) = (   0.2290941   0.3968013   0.6130241  )
        58           Au  tau(  58) = (   0.3540515   0.1803552   0.6130121  )
        59           Au  tau(  59) = (   0.4790323  -0.0361475   0.6129659  )
        60           Au  tau(  60) = (  -0.1458030   0.6133014   0.6129980  )
        61           Au  tau(  61) = (  -0.0208339   0.3967936   0.6130188  )
        62           Au  tau(  62) = (   0.1041239   0.1803477   0.6130083  )
        63           Au  tau(  63) = (   0.2291046  -0.0361554   0.6129607  )
        64           Au  tau(  64) = (  -0.3957908   0.6132739   0.6129471  )
        65           Au  tau(  65) = (  -0.2708208   0.3967658   0.6129688  )
        66           Au  tau(  66) = (  -0.1458636   0.1803200   0.6129569  )
        67           Au  tau(  67) = (  -0.0208823  -0.0361826   0.6129110  )

     number of k points=    12  Marzari-Vanderbilt smearing, width (Ry)=  0.0200
                       cart. coord. in units 2pi/alat
        k(    1) = (   0.2500000   0.4330127   0.1111111), wk =   0.1666667
        k(    2) = (   0.2500000  -0.1443376   0.1111111), wk =   0.1666667
        k(    3) = (  -0.2500000  -0.4330127   0.1111111), wk =   0.1666667
        k(    4) = (  -0.2500000   0.4330127  -0.1111111), wk =   0.1666667
        k(    5) = (   0.2500000  -0.4330127  -0.1111111), wk =   0.1666667
        k(    6) = (   0.5000000   0.0000000   0.1111111), wk =   0.1666667
        k(    7) = (  -0.5000000   0.0000000   0.1111111), wk =   0.1666667
        k(    8) = (  -0.2500000   0.1443376   0.1111111), wk =   0.1666667
        k(    9) = (  -0.2500000  -0.1443376  -0.1111111), wk =   0.1666667
        k(   10) = (   0.2500000   0.1443376  -0.1111111), wk =   0.1666667
        k(   11) = (   0.0000000  -0.2886751   0.1111111), wk =   0.1666667
        k(   12) = (   0.0000000   0.2886751   0.1111111), wk =   0.1666667

     Dense  grid:  3097177 G-vectors     FFT dimensions: ( 150, 150, 360)

     Smooth grid:  1095093 G-vectors     FFT dimensions: ( 108, 108, 240)

     Largest allocated arrays     est. size (Mb)     dimensions
        Kohn-Sham Wavefunctions        28.01 Mb     (    4299,  427)
        NL pseudopotentials            55.23 Mb     (    4299,  842)
        Each V/rho on FFT grid          4.12 Mb     (  270000)
        Each G-vector array             0.74 Mb     (   96788)
        G-vector shells                 0.16 Mb     (   21404)
     Largest temporary arrays     est. size (Mb)     dimensions
        Auxiliary wavefunctions       112.04 Mb     (    4299, 1708)
        Each subspace H/S matrix       44.51 Mb     (    1708, 1708)
        Each <psi_i|beta_j> matrix      5.49 Mb     (     842,  427)
        Arrays for rho mixing          32.96 Mb     (  270000,    8)

     Initial potential from superposition of free atoms
     Check: negative starting charge=   -1.730268

     starting charge  711.25682, renormalised to  712.00000

     negative rho (up, down):  1.732E+00 0.000E+00


     ************************************************************************
     *
     * You are using vdW-DF for exchange-correlation in this calculation.
     * Please cite the following three references that made this development
     * possible:
     *
     *   M. Dion, H. Rydberg, E. Schroder, D. C. Langreth, and
     *   B. I. Lundqvist, Phys. Rev. Lett. 92, 246401 (2004).
     *
     *   T. Thonhauser, V. R. Cooper, S. Li, A. Puzder, P. Hyldgaard, and
     *   D. C. Langreth, Phys. Rev. B 76, 125112 (2007).
     *
     *   G. Roman-Perez and J. M. Soler, Phys. Rev. Lett. 103, 096102 (2009).
     *
     *
     * If you are using vdW-DF2, please also cite:
     *
     *   K. Lee, E. D. Murray, L. Kong, B. I. Lundqvist, and
     *   D. C. Langreth, Phys. Rev. B 82, 081101(R) (2010).
     *
     *
     * If you are calculating the stress with vdW-DF, please also cite:
     *
     *   R. Sabatini, E. Kucukbenli, B. Kolb, T. Thonhauser, and
     *   S. de Gironcoli, J. Phys.: Condens. Matter 24, 424209 (2012).
     *
     ************************************************************************

     Carrying out vdW-DF run using the following parameters:

     Nqs =      20    Nr_points =    1024   r_max =   100.000
     q_mesh =
               0.00001000     0.04494208     0.09755937     0.15916263
               0.23128650     0.31572767     0.41458969     0.53033537
               0.66584808     0.82450364     1.01025438     1.22772762
               1.48234092     1.78043706     2.12944203     2.53805004
               3.01644009     3.57652955     4.23227104     5.00000000

     Gradients computed in reciprocal space

     ************************************************************************


     Starting wfc are  582 randomized atomic wfcs

     total cpu time spent up to now is      149.6 secs

     Self-consistent Calculation

     iteration #  1     ecut=    50.00 Ry     beta=0.70
     Davidson diagonalization with overlap
     ethr =  1.00E-02,  avg # of iterations =  3.0

     Threshold (ethr) on eigenvalues was too large:
     Diagonalizing with lowered threshold

     Davidson diagonalization with overlap
     ethr =  3.39E-04,  avg # of iterations =  3.7

     negative rho (up, down):  1.727E+00 0.000E+00

     total cpu time spent up to now is      717.4 secs

     total energy              =   -6602.80195210 Ry
     Harris-Foulkes estimate   =   -6605.00055003 Ry
     estimated scf accuracy    <       2.75519910 Ry

     iteration #  2     ecut=    50.00 Ry     beta=0.70
     Davidson diagonalization with overlap
     ethr =  3.87E-04,  avg # of iterations = 11.3

     negative rho (up, down):  1.726E+00 0.000E+00

     total cpu time spent up to now is     1642.6 secs

     total energy              =   -6597.12911911 Ry
     Harris-Foulkes estimate   =   -6609.88383007 Ry
     estimated scf accuracy    <      69.65135195 Ry

     iteration #  3     ecut=    50.00 Ry     beta=0.70
     Davidson diagonalization with overlap
     ethr =  3.87E-04,  avg # of iterations =  6.4

     negative rho (up, down):  1.737E+00 0.000E+00

     total cpu time spent up to now is     2241.6 secs

     total energy              =   -6603.26366434 Ry
     Harris-Foulkes estimate   =   -6604.94048125 Ry
     estimated scf accuracy    <       7.25094118 Ry

     iteration #  4     ecut=    50.00 Ry     beta=0.70
     Davidson diagonalization with overlap
     ethr =  3.87E-04,  avg # of iterations =  6.7

     negative rho (up, down):  1.739E+00 0.000E+00

     total cpu time spent up to now is     2591.9 secs

     total energy              =   -6603.83009319 Ry
     Harris-Foulkes estimate   =   -6604.84763227 Ry
     estimated scf accuracy    <       7.50023618 Ry

     iteration #  5     ecut=    50.00 Ry     beta=0.70
     Davidson diagonalization with overlap
     ethr =  3.87E-04,  avg # of iterations =  6.1

     negative rho (up, down):  1.747E+00 0.000E+00

     total cpu time spent up to now is     2931.8 secs

     total energy              =   -6604.20404935 Ry
     Harris-Foulkes estimate   =   -6604.67171036 Ry
     estimated scf accuracy    <       4.00967797 Ry

     iteration #  6     ecut=    50.00 Ry     beta=0.70
     Davidson diagonalization with overlap
     ethr =  3.87E-04,  avg # of iterations =  3.0

     negative rho (up, down):  1.752E+00 0.000E+00

     total cpu time spent up to now is     3197.8 secs

     total energy              =   -6604.39008435 Ry
     Harris-Foulkes estimate   =   -6604.44565869 Ry
     estimated scf accuracy    <       0.18353455 Ry

     iteration #  7     ecut=    50.00 Ry     beta=0.70
     Davidson diagonalization with overlap
     ethr =  2.58E-05,  avg # of iterations = 12.3

     negative rho (up, down):  1.754E+00 0.000E+00

     total cpu time spent up to now is     3655.6 secs

     total energy              =   -6604.40300473 Ry
     Harris-Foulkes estimate   =   -6604.43039025 Ry
     estimated scf accuracy    <       0.12115217 Ry

     iteration #  8     ecut=    50.00 Ry     beta=0.70
     Davidson diagonalization with overlap
     ethr =  1.70E-05,  avg # of iterations =  3.7

     negative rho (up, down):  1.755E+00 0.000E+00

     total cpu time spent up to now is     3937.8 secs

     total energy              =   -6604.40615485 Ry
     Harris-Foulkes estimate   =   -6604.41955391 Ry
     estimated scf accuracy    <       0.05208866 Ry

     iteration #  9     ecut=    50.00 Ry     beta=0.70
     Davidson diagonalization with overlap
     ethr =  7.32E-06,  avg # of iterations =  5.8

     negative rho (up, down):  1.756E+00 0.000E+00

     total cpu time spent up to now is     4256.4 secs

     total energy              =   -6604.40684597 Ry
     Harris-Foulkes estimate   =   -6604.41282394 Ry
     estimated scf accuracy    <       0.02006940 Ry

     iteration # 10     ecut=    50.00 Ry     beta=0.70
     Davidson diagonalization with overlap
     ethr =  2.82E-06,  avg # of iterations =  5.8

     negative rho (up, down):  1.757E+00 0.000E+00

     total cpu time spent up to now is     4571.5 secs

     total energy              =   -6604.40736252 Ry
     Harris-Foulkes estimate   =   -6604.40945605 Ry
     estimated scf accuracy    <       0.00668418 Ry

     iteration # 11     ecut=    50.00 Ry     beta=0.70
     Davidson diagonalization with overlap
     ethr =  9.39E-07,  avg # of iterations =  3.2

     negative rho (up, down):  1.757E+00 0.000E+00

     total cpu time spent up to now is     4845.9 secs

     total energy              =   -6604.40756785 Ry
     Harris-Foulkes estimate   =   -6604.40847205 Ry
     estimated scf accuracy    <       0.00314253 Ry

     iteration # 12     ecut=    50.00 Ry     beta=0.70
     Davidson diagonalization with overlap
     ethr =  4.41E-07,  avg # of iterations =  2.0

     negative rho (up, down):  1.758E+00 0.000E+00

     total cpu time spent up to now is     5090.3 secs

     total energy              =   -6604.40765143 Ry
     Harris-Foulkes estimate   =   -6604.40797224 Ry
     estimated scf accuracy    <       0.00059921 Ry

     iteration # 13     ecut=    50.00 Ry     beta=0.70
     Davidson diagonalization with overlap
     ethr =  8.42E-08,  avg # of iterations =  4.8

     negative rho (up, down):  1.758E+00 0.000E+00

     total cpu time spent up to now is     5469.0 secs

     total energy              =   -6604.40762744 Ry
     Harris-Foulkes estimate   =   -6604.40801429 Ry
     estimated scf accuracy    <       0.00174221 Ry

     iteration # 14     ecut=    50.00 Ry     beta=0.70
     Davidson diagonalization with overlap
     ethr =  8.42E-08,  avg # of iterations =  2.0

     negative rho (up, down):  1.757E+00 0.000E+00

     total cpu time spent up to now is     5734.2 secs

     total energy              =   -6604.40781373 Ry
     Harris-Foulkes estimate   =   -6604.40783225 Ry
     estimated scf accuracy    <       0.00005437 Ry

     iteration # 15     ecut=    50.00 Ry     beta=0.70
     Davidson diagonalization with overlap
     ethr =  7.64E-09,  avg # of iterations =  3.0

     negative rho (up, down):  1.757E+00 0.000E+00

     total cpu time spent up to now is     6059.4 secs

     total energy              =   -6604.40781219 Ry
     Harris-Foulkes estimate   =   -6604.40783592 Ry
     estimated scf accuracy    <       0.00011304 Ry

     iteration # 16     ecut=    50.00 Ry     beta=0.70
     Davidson diagonalization with overlap
     ethr =  7.64E-09,  avg # of iterations =  2.0

     negative rho (up, down):  1.757E+00 0.000E+00

     total cpu time spent up to now is     6308.5 secs

     total energy              =   -6604.40781012 Ry
     Harris-Foulkes estimate   =   -6604.40784187 Ry
     estimated scf accuracy    <       0.00032992 Ry

     iteration # 17     ecut=    50.00 Ry     beta=0.70
     Davidson diagonalization with overlap
     ethr =  7.64E-09,  avg # of iterations =  1.5

     negative rho (up, down):  1.757E+00 0.000E+00

     total cpu time spent up to now is     6543.1 secs

     total energy              =   -6604.40782565 Ry
     Harris-Foulkes estimate   =   -6604.40782709 Ry
     estimated scf accuracy    <       0.00000511 Ry

     iteration # 18     ecut=    50.00 Ry     beta=0.70
     Davidson diagonalization with overlap
     ethr =  7.17E-10,  avg # of iterations =  2.8

     negative rho (up, down):  1.757E+00 0.000E+00

     total cpu time spent up to now is     6850.0 secs

     total energy              =   -6604.40782559 Ry
     Harris-Foulkes estimate   =   -6604.40782781 Ry
     estimated scf accuracy    <       0.00000951 Ry

     iteration # 19     ecut=    50.00 Ry     beta=0.70
     Davidson diagonalization with overlap
     ethr =  7.17E-10,  avg # of iterations =  2.0

     negative rho (up, down):  1.757E+00 0.000E+00

     total cpu time spent up to now is     7097.4 secs

     total energy              =   -6604.40782666 Ry
     Harris-Foulkes estimate   =   -6604.40782687 Ry
     estimated scf accuracy    <       0.00000085 Ry

     iteration # 20     ecut=    50.00 Ry     beta=0.70
     Davidson diagonalization with overlap
     ethr =  1.19E-10,  avg # of iterations =  2.0

     negative rho (up, down):  1.757E+00 0.000E+00

     total cpu time spent up to now is     7355.7 secs

     total energy              =   -6604.40782680 Ry
     Harris-Foulkes estimate   =   -6604.40782683 Ry
     estimated scf accuracy    <       0.00000014 Ry

     iteration # 21     ecut=    50.00 Ry     beta=0.70
     Davidson diagonalization with overlap
     ethr =  1.94E-11,  avg # of iterations =  2.3

     negative rho (up, down):  1.757E+00 0.000E+00

     total cpu time spent up to now is     7645.6 secs

     total energy              =   -6604.40782682 Ry
     Harris-Foulkes estimate   =   -6604.40782685 Ry
     estimated scf accuracy    <       0.00000011 Ry

     iteration # 22     ecut=    50.00 Ry     beta=0.70
     Davidson diagonalization with overlap
     ethr =  1.60E-11,  avg # of iterations =  2.0

     negative rho (up, down):  1.757E+00 0.000E+00

     total cpu time spent up to now is     7903.2 secs

     total energy              =   -6604.40782684 Ry
     Harris-Foulkes estimate   =   -6604.40782684 Ry
     estimated scf accuracy    <       0.00000004 Ry

     iteration # 23     ecut=    50.00 Ry     beta=0.70
     Davidson diagonalization with overlap
     ethr =  5.38E-12,  avg # of iterations =  3.0

     negative rho (up, down):  1.757E+00 0.000E+00

     total cpu time spent up to now is     8192.1 secs

     total energy              =   -6604.40782684 Ry
     Harris-Foulkes estimate   =   -6604.40782684 Ry
     estimated scf accuracy    <       0.00000002 Ry

     iteration # 24     ecut=    50.00 Ry     beta=0.70
     Davidson diagonalization with overlap
     ethr =  3.10E-12,  avg # of iterations =  2.2

     negative rho (up, down):  1.757E+00 0.000E+00

     total cpu time spent up to now is     8462.6 secs

     total energy              =   -6604.40782684 Ry
     Harris-Foulkes estimate   =   -6604.40782685 Ry
     estimated scf accuracy    <       0.00000004 Ry

     iteration # 25     ecut=    50.00 Ry     beta=0.70
     Davidson diagonalization with overlap
     ethr =  3.10E-12,  avg # of iterations =  2.0

     negative rho (up, down):  1.757E+00 0.000E+00

     total cpu time spent up to now is     8710.8 secs

     End of self-consistent calculation

          k = 0.2500 0.4330 0.1111 (136853 PWs)   bands (ev):

   -18.9865  -7.1491  -6.3182  -5.9224  -5.9195  -5.2413  -4.9126  -4.9112
    -4.8736  -4.8676  -4.5122  -4.5107  -4.4137  -4.4122  -4.3990  -4.3753
    -4.3549  -4.2472  -4.2438  -4.2208  -4.1782  -4.1772  -4.1142  -4.1084
    -4.1045  -4.1011  -4.0803  -4.0752  -4.0735  -4.0083  -4.0021  -3.9743
    -3.9718  -3.9619  -3.9595  -3.9372  -3.9363  -3.9149  -3.9061  -3.9056
    -3.8815  -3.8290  -3.8272  -3.7814  -3.7774  -3.7324  -3.7223  -3.6762
    -3.6663  -3.6645  -3.6636  -3.6290  -3.6033  -3.5954  -3.5834  -3.5831
    -3.5816  -3.5622  -3.5521  -3.5438  -3.4940  -3.4854  -3.4786  -3.4593
    -3.4499  -3.3905  -3.3751  -3.3613  -3.3464  -3.3350  -3.3151  -3.3019
    -3.2978  -3.2728  -3.2266  -3.2140  -3.2072  -3.1978  -3.1533  -3.1519
    -3.1378  -3.1096  -3.0806  -3.0745  -3.0710  -3.0680  -3.0622  -3.0568
    -3.0517  -3.0480  -3.0375  -2.9994  -2.9629  -2.9592  -2.9507  -2.9463
    -2.9192  -2.9137  -2.9101  -2.8842  -2.8429  -2.8409  -2.8350  -2.7980
    -2.7891  -2.7774  -2.7765  -2.7502  -2.7482  -2.7171  -2.6850  -2.6805
    -2.6634  -2.6513  -2.6406  -2.6379  -2.5893  -2.5886  -2.5552  -2.5350
    -2.5317  -2.5087  -2.5053  -2.4974  -2.4932  -2.4868  -2.4665  -2.4647
    -2.4199  -2.4176  -2.4165  -2.4032  -2.4013  -2.3928  -2.3899  -2.3876
    -2.3828  -2.3802  -2.3759  -2.3742  -2.3640  -2.3574  -2.3332  -2.3276
    -2.3254  -2.3230  -2.3212  -2.3200  -2.3177  -2.2948  -2.2935  -2.2775
    -2.2761  -2.2570  -2.2567  -2.2502  -2.2481  -2.2460  -2.2442  -2.2320
    -2.2264  -2.2234  -2.2222  -2.2088  -2.1816  -2.1781  -2.1387  -2.1377
    -2.1188  -2.1169  -2.0916  -2.0859  -2.0620  -2.0588  -2.0448  -2.0384
    -2.0129  -2.0002  -1.9958  -1.9868  -1.9804  -1.9770  -1.9701  -1.9660
    -1.9441  -1.9371  -1.9353  -1.8783  -1.8701  -1.8671  -1.8642  -1.8617
    -1.8393  -1.8096  -1.8074  -1.7818  -1.7786  -1.7252  -1.7227  -1.6905
    -1.6775  -1.6705  -1.6188  -1.6116  -1.6056  -1.5995  -1.5915  -1.5868
    -1.5833  -1.5800  -1.5735  -1.5310  -1.5201  -1.5157  -1.5059  -1.5043
    -1.4907  -1.4861  -1.4632  -1.4524  -1.4400  -1.4348  -1.4333  -1.4259
    -1.4224  -1.4189  -1.4107  -1.3931  -1.3906  -1.3611  -1.3490  -1.3436
    -1.3404  -1.3209  -1.3039  -1.2875  -1.2635  -1.2444  -1.2368  -1.2319
    -1.2030  -1.1807  -1.1580  -1.1496  -1.1472  -1.1430  -1.1411  -1.1353
    -1.1194  -1.1144  -1.0885  -1.0719  -1.0649  -1.0458  -1.0401  -1.0352
    -1.0319  -1.0224  -1.0160  -1.0120  -1.0091  -1.0071  -0.9970  -0.9704
    -0.9675  -0.9649  -0.9525  -0.9394  -0.9365  -0.9233  -0.9048  -0.9016
    -0.8862  -0.8542  -0.8471  -0.8387  -0.8109  -0.8063  -0.7981  -0.7909
    -0.7873  -0.7853  -0.7829  -0.7779  -0.7677  -0.7604  -0.7480  -0.7448
    -0.7405  -0.7371  -0.7369  -0.7025  -0.7017  -0.6911  -0.6808  -0.6729
    -0.6656  -0.6609  -0.6552  -0.6000  -0.5985  -0.5922  -0.5896  -0.5865
    -0.5844  -0.5723  -0.5628  -0.5605  -0.5541  -0.5528  -0.5509  -0.5399
    -0.5143  -0.5102  -0.5082  -0.5015  -0.4998  -0.4964  -0.4932  -0.4783
    -0.4755  -0.4749  -0.4600  -0.4343  -0.4332  -0.4248  -0.4209  -0.4184
    -0.3471  -0.3405  -0.3400  -0.3379  -0.3308  -0.3242  -0.2931  -0.2834
    -0.2807  -0.2493  -0.2456  -0.2401  -0.1296  -0.1232  -0.0252   0.3883
     0.3891   0.3954   0.3963   0.4608   0.4658   0.8392   0.8440   0.8855
     0.8870   1.0038   1.0800   1.1870   1.1970   1.4100   1.4274   2.0390
     2.0467   2.2013   2.2080   2.3385   2.3476   2.4398   2.4403   2.5940
     2.8313   2.8473   2.9578   3.1776   3.1885   3.2582   3.2625   3.3585
     3.3793   3.5767   3.5992   3.6301   3.8347   3.8384   3.8987   3.9075
     4.1524   4.1606   4.1720   4.4019   4.4449   4.4498   4.4895   4.8171
     4.8303   4.8579   4.9929   5.1671   5.1690   5.2240   5.2548   5.5328
     5.8204   5.9271   5.9442   5.9551   5.9658   6.0202   6.0283   6.1041
     6.1378   6.1547   6.1662   6.1937   6.1983   6.2159   6.2328   6.2536
     6.2642   6.4444   6.5730   6.7062   6.7649   6.8053   6.8919   6.9044
     6.9144   7.0116   7.0191

          k = 0.2500-0.1443 0.1111 (136898 PWs)   bands (ev):

   -18.9865  -7.1501  -6.5264  -5.7390  -5.4442  -5.3901  -5.3877  -4.8523
    -4.8509  -4.7207  -4.7183  -4.5633  -4.5356  -4.4721  -4.4426  -4.4352
    -4.4056  -4.4043  -4.2761  -4.2349  -4.2342  -4.1769  -4.1575  -4.1531
    -4.0530  -4.0508  -4.0171  -4.0145  -4.0141  -3.9883  -3.9676  -3.9659
    -3.8645  -3.8601  -3.8591  -3.8412  -3.8265  -3.8215  -3.8123  -3.8092
    -3.7996  -3.7718  -3.7672  -3.7655  -3.7643  -3.7393  -3.7348  -3.7178
    -3.7145  -3.7092  -3.6758  -3.6640  -3.6296  -3.6181  -3.6125  -3.6062
    -3.6057  -3.5379  -3.5321  -3.5085  -3.4999  -3.4937  -3.4377  -3.4260
    -3.4233  -3.4103  -3.3913  -3.3839  -3.3829  -3.3801  -3.3062  -3.2261
    -3.2218  -3.2031  -3.2002  -3.1840  -3.1793  -3.1753  -3.1553  -3.1441
    -3.1040  -3.0991  -3.0888  -3.0847  -3.0647  -3.0220  -3.0207  -2.9975
    -2.9944  -2.9911  -2.9546  -2.9531  -2.9438  -2.9431  -2.9283  -2.9190
    -2.8921  -2.8899  -2.8721  -2.8673  -2.8652  -2.8631  -2.8591  -2.7873
    -2.7854  -2.7810  -2.7547  -2.7513  -2.6974  -2.6899  -2.6644  -2.6623
    -2.6535  -2.6499  -2.6416  -2.6162  -2.6137  -2.6034  -2.5875  -2.5652
    -2.5622  -2.5585  -2.5418  -2.5403  -2.5338  -2.5289  -2.5260  -2.5238
    -2.5146  -2.4692  -2.4429  -2.4400  -2.4214  -2.4100  -2.4066  -2.4024
    -2.3959  -2.3931  -2.3917  -2.3663  -2.3647  -2.3629  -2.3543  -2.3513
    -2.3392  -2.3152  -2.3110  -2.3093  -2.3063  -2.3058  -2.2599  -2.2331
    -2.2310  -2.2283  -2.2241  -2.2126  -2.2078  -2.2028  -2.1837  -2.1829
    -2.1585  -2.1509  -2.1495  -2.1359  -2.1332  -2.1310  -2.0995  -2.0980
    -2.0644  -2.0524  -2.0513  -2.0481  -2.0467  -2.0419  -2.0393  -2.0360
    -2.0343  -2.0332  -2.0277  -2.0152  -2.0113  -1.8974  -1.8883  -1.8631
    -1.8501  -1.8472  -1.8394  -1.8371  -1.8298  -1.8233  -1.8196  -1.8181
    -1.8153  -1.7982  -1.7925  -1.7904  -1.7798  -1.7760  -1.7701  -1.7545
    -1.7500  -1.7263  -1.7225  -1.6962  -1.6922  -1.6816  -1.6728  -1.6557
    -1.6532  -1.6501  -1.6358  -1.6232  -1.6198  -1.6141  -1.6118  -1.5921
    -1.5873  -1.5756  -1.5705  -1.5399  -1.5340  -1.5276  -1.4903  -1.4788
    -1.4682  -1.4615  -1.4583  -1.4360  -1.4332  -1.4064  -1.4022  -1.4000
    -1.3704  -1.3635  -1.3576  -1.3409  -1.3382  -1.3269  -1.3175  -1.3133
    -1.2871  -1.2821  -1.2791  -1.2229  -1.2177  -1.2114  -1.2059  -1.1933
    -1.1890  -1.1755  -1.1749  -1.1588  -1.1472  -1.1406  -1.1180  -1.1131
    -1.0950  -1.0715  -1.0662  -1.0596  -1.0547  -1.0524  -1.0508  -1.0466
    -1.0309  -1.0218  -1.0062  -1.0007  -0.9898  -0.9885  -0.9873  -0.9717
    -0.9676  -0.9448  -0.9377  -0.9238  -0.8889  -0.8363  -0.8239  -0.8160
    -0.8148  -0.8063  -0.8021  -0.7947  -0.7839  -0.7699  -0.7617  -0.7545
    -0.7500  -0.7463  -0.7399  -0.7219  -0.7179  -0.7100  -0.7032  -0.6366
    -0.6346  -0.6017  -0.5975  -0.5950  -0.5906  -0.5874  -0.5865  -0.5778
    -0.5723  -0.5697  -0.5555  -0.5320  -0.5129  -0.5028  -0.4985  -0.4895
    -0.4854  -0.4764  -0.4753  -0.4744  -0.4712  -0.4696  -0.4556  -0.4512
    -0.4471  -0.4212  -0.4197  -0.4160  -0.4056  -0.4048  -0.3861  -0.3546
    -0.3534  -0.3453  -0.3405  -0.2792  -0.2757  -0.2438  -0.2418  -0.1870
    -0.1848  -0.1808  -0.1600  -0.1578   0.0734   0.0856   0.4187   0.4192
     0.5106   0.5242   0.7096   0.7350   0.7375   0.8638   0.8690   1.2995
     1.3004   1.3151   1.5837   1.6095   1.6113   1.8847   1.9001   1.9631
     1.9666   1.9885   2.0041   2.2203   2.2221   2.3095   2.3119   2.3926
     2.4474   2.4680   2.6135   2.7193   3.1422   3.1526   3.1557   3.1617
     3.2092   3.2132   3.5032   3.5049   3.7805   3.7943   3.9039   4.1983
     4.2320   4.2459   4.4572   4.4904   4.5339   4.5430   4.6386   4.7438
     4.7581   4.8687   4.8728   5.1699   5.2244   5.2467   5.3722   5.4397
     5.4610   5.6159   5.6328   5.6580   5.6609   5.7145   5.7227   5.7759
     5.8866   6.0728   6.2888   6.3245   6.3755   6.4545   6.4624   6.4734
     6.4812   6.5319   6.6530   6.7024   6.7218   6.8531   6.9354   6.9589
     6.9807   7.0377   7.0830

          k =-0.2500-0.4330 0.1111 (136853 PWs)   bands (ev):

   -18.9865  -7.1491  -6.3182  -5.9224  -5.9195  -5.2413  -4.9126  -4.9112
    -4.8736  -4.8676  -4.5122  -4.5107  -4.4137  -4.4122  -4.3990  -4.3753
    -4.3549  -4.2472  -4.2438  -4.2208  -4.1782  -4.1772  -4.1142  -4.1084
    -4.1045  -4.1011  -4.0803  -4.0752  -4.0735  -4.0083  -4.0021  -3.9743
    -3.9718  -3.9619  -3.9595  -3.9372  -3.9363  -3.9149  -3.9061  -3.9056
    -3.8815  -3.8290  -3.8272  -3.7814  -3.7774  -3.7324  -3.7223  -3.6762
    -3.6663  -3.6645  -3.6636  -3.6290  -3.6033  -3.5954  -3.5834  -3.5831
    -3.5816  -3.5622  -3.5521  -3.5438  -3.4940  -3.4854  -3.4786  -3.4593
    -3.4499  -3.3905  -3.3751  -3.3613  -3.3464  -3.3350  -3.3151  -3.3019
    -3.2978  -3.2728  -3.2266  -3.2140  -3.2072  -3.1978  -3.1533  -3.1519
    -3.1378  -3.1096  -3.0806  -3.0745  -3.0710  -3.0680  -3.0622  -3.0568
    -3.0517  -3.0480  -3.0375  -2.9994  -2.9629  -2.9592  -2.9507  -2.9463
    -2.9192  -2.9137  -2.9101  -2.8842  -2.8429  -2.8409  -2.8350  -2.7980
    -2.7891  -2.7774  -2.7765  -2.7502  -2.7482  -2.7171  -2.6850  -2.6805
    -2.6634  -2.6513  -2.6406  -2.6379  -2.5893  -2.5886  -2.5552  -2.5350
    -2.5317  -2.5087  -2.5053  -2.4974  -2.4932  -2.4868  -2.4665  -2.4647
    -2.4199  -2.4176  -2.4165  -2.4032  -2.4013  -2.3928  -2.3899  -2.3876
    -2.3828  -2.3802  -2.3759  -2.3742  -2.3640  -2.3574  -2.3332  -2.3276
    -2.3254  -2.3230  -2.3212  -2.3200  -2.3177  -2.2948  -2.2935  -2.2775
    -2.2761  -2.2570  -2.2567  -2.2502  -2.2481  -2.2460  -2.2442  -2.2320
    -2.2264  -2.2234  -2.2222  -2.2088  -2.1816  -2.1781  -2.1387  -2.1377
    -2.1188  -2.1169  -2.0916  -2.0859  -2.0620  -2.0588  -2.0448  -2.0384
    -2.0129  -2.0002  -1.9958  -1.9868  -1.9803  -1.9770  -1.9701  -1.9660
    -1.9441  -1.9371  -1.9353  -1.8783  -1.8701  -1.8671  -1.8642  -1.8617
    -1.8393  -1.8096  -1.8074  -1.7818  -1.7786  -1.7252  -1.7227  -1.6905
    -1.6775  -1.6705  -1.6188  -1.6116  -1.6056  -1.5995  -1.5915  -1.5868
    -1.5833  -1.5800  -1.5735  -1.5310  -1.5201  -1.5157  -1.5059  -1.5043
    -1.4907  -1.4861  -1.4632  -1.4524  -1.4400  -1.4348  -1.4333  -1.4259
    -1.4224  -1.4189  -1.4107  -1.3931  -1.3906  -1.3611  -1.3490  -1.3436
    -1.3403  -1.3209  -1.3039  -1.2875  -1.2635  -1.2444  -1.2368  -1.2319
    -1.2030  -1.1807  -1.1580  -1.1496  -1.1472  -1.1430  -1.1411  -1.1353
    -1.1194  -1.1144  -1.0885  -1.0719  -1.0649  -1.0458  -1.0401  -1.0352
    -1.0319  -1.0224  -1.0160  -1.0120  -1.0091  -1.0071  -0.9970  -0.9704
    -0.9675  -0.9649  -0.9525  -0.9394  -0.9365  -0.9233  -0.9048  -0.9016
    -0.8862  -0.8542  -0.8471  -0.8387  -0.8109  -0.8063  -0.7981  -0.7909
    -0.7873  -0.7853  -0.7829  -0.7779  -0.7677  -0.7604  -0.7480  -0.7448
    -0.7405  -0.7371  -0.7369  -0.7025  -0.7017  -0.6911  -0.6808  -0.6729
    -0.6656  -0.6609  -0.6552  -0.6000  -0.5985  -0.5922  -0.5896  -0.5865
    -0.5844  -0.5723  -0.5628  -0.5605  -0.5541  -0.5528  -0.5509  -0.5399
    -0.5143  -0.5102  -0.5082  -0.5015  -0.4998  -0.4964  -0.4932  -0.4783
    -0.4755  -0.4749  -0.4600  -0.4344  -0.4332  -0.4248  -0.4209  -0.4184
    -0.3471  -0.3405  -0.3400  -0.3379  -0.3308  -0.3242  -0.2931  -0.2834
    -0.2807  -0.2493  -0.2456  -0.2401  -0.1296  -0.1232  -0.0252   0.3883
     0.3891   0.3954   0.3963   0.4608   0.4658   0.8392   0.8440   0.8855
     0.8870   1.0038   1.0800   1.1870   1.1970   1.4100   1.4274   2.0390
     2.0467   2.2013   2.2080   2.3385   2.3476   2.4398   2.4403   2.5940
     2.8313   2.8473   2.9578   3.1776   3.1885   3.2582   3.2625   3.3585
     3.3793   3.5767   3.5992   3.6301   3.8347   3.8384   3.8987   3.9075
     4.1524   4.1606   4.1720   4.4019   4.4449   4.4498   4.4895   4.8171
     4.8303   4.8579   4.9929   5.1671   5.1690   5.2240   5.2548   5.5329
     5.8197   5.9271   5.9441   5.9551   5.9657   6.0202   6.0283   6.1039
     6.1380   6.1557   6.1679   6.1939   6.1982   6.2157   6.2325   6.2536
     6.2652   6.4449   6.5736   6.6912   6.7655   6.8047   6.8912   6.9045
     6.9134   7.0150   7.0306

          k =-0.2500 0.4330-0.1111 (136853 PWs)   bands (ev):

   -18.9865  -7.1490  -6.3185  -5.9213  -5.9205  -5.2417  -4.9121  -4.9107
    -4.8716  -4.8695  -4.5135  -4.5101  -4.4142  -4.4125  -4.3988  -4.3754
    -4.3546  -4.2470  -4.2435  -4.2208  -4.1780  -4.1773  -4.1133  -4.1086
    -4.1033  -4.1006  -4.0806  -4.0766  -4.0723  -4.0088  -4.0019  -3.9743
    -3.9703  -3.9613  -3.9601  -3.9385  -3.9359  -3.9138  -3.9074  -3.9053
    -3.8836  -3.8302  -3.8270  -3.7807  -3.7764  -3.7329  -3.7244  -3.6788
    -3.6673  -3.6644  -3.6637  -3.6301  -3.6054  -3.5951  -3.5837  -3.5827
    -3.5811  -3.5572  -3.5523  -3.5444  -3.4952  -3.4847  -3.4782  -3.4592
    -3.4478  -3.3885  -3.3755  -3.3519  -3.3479  -3.3370  -3.3161  -3.3036
    -3.2986  -3.2689  -3.2273  -3.2137  -3.2094  -3.2031  -3.1570  -3.1515
    -3.1365  -3.1082  -3.0846  -3.0800  -3.0708  -3.0688  -3.0617  -3.0534
    -3.0509  -3.0450  -3.0347  -2.9983  -2.9629  -2.9586  -2.9490  -2.9470
    -2.9187  -2.9144  -2.9111  -2.8827  -2.8423  -2.8416  -2.8354  -2.7974
    -2.7888  -2.7773  -2.7771  -2.7527  -2.7466  -2.7171  -2.6840  -2.6815
    -2.6629  -2.6513  -2.6386  -2.6385  -2.5918  -2.5871  -2.5549  -2.5333
    -2.5317  -2.5126  -2.5054  -2.4972  -2.4946  -2.4865  -2.4672  -2.4644
    -2.4211  -2.4165  -2.4156  -2.4039  -2.4016  -2.3930  -2.3899  -2.3880
    -2.3835  -2.3801  -2.3744  -2.3714  -2.3635  -2.3561  -2.3342  -2.3281
    -2.3254  -2.3236  -2.3221  -2.3190  -2.3186  -2.2971  -2.2936  -2.2784
    -2.2751  -2.2577  -2.2565  -2.2515  -2.2465  -2.2456  -2.2438  -2.2318
    -2.2260  -2.2235  -2.2225  -2.2093  -2.1808  -2.1788  -2.1389  -2.1374
    -2.1186  -2.1170  -2.0870  -2.0866  -2.0644  -2.0590  -2.0481  -2.0390
    -2.0106  -2.0013  -1.9901  -1.9829  -1.9818  -1.9765  -1.9722  -1.9692
    -1.9449  -1.9402  -1.9348  -1.8786  -1.8728  -1.8662  -1.8632  -1.8605
    -1.8324  -1.8102  -1.8063  -1.7831  -1.7786  -1.7266  -1.7211  -1.6926
    -1.6739  -1.6713  -1.6201  -1.6125  -1.6039  -1.5986  -1.5920  -1.5884
    -1.5842  -1.5801  -1.5732  -1.5441  -1.5169  -1.5136  -1.5065  -1.5044
    -1.4968  -1.4858  -1.4537  -1.4520  -1.4390  -1.4370  -1.4335  -1.4267
    -1.4224  -1.4145  -1.4110  -1.3928  -1.3908  -1.3668  -1.3511  -1.3480
    -1.3394  -1.3223  -1.3033  -1.2666  -1.2642  -1.2380  -1.2352  -1.2314
    -1.2038  -1.1832  -1.1566  -1.1494  -1.1458  -1.1441  -1.1408  -1.1338
    -1.1278  -1.1129  -1.0900  -1.0758  -1.0662  -1.0459  -1.0395  -1.0351
    -1.0332  -1.0265  -1.0179  -1.0115  -1.0101  -1.0061  -0.9972  -0.9719
    -0.9685  -0.9663  -0.9604  -0.9390  -0.9343  -0.9246  -0.9058  -0.8989
    -0.8847  -0.8512  -0.8465  -0.8357  -0.8070  -0.8047  -0.7957  -0.7932
    -0.7876  -0.7856  -0.7817  -0.7763  -0.7687  -0.7574  -0.7477  -0.7456
    -0.7403  -0.7386  -0.7327  -0.7025  -0.7010  -0.6894  -0.6848  -0.6683
    -0.6660  -0.6586  -0.6529  -0.6003  -0.5983  -0.5917  -0.5896  -0.5875
    -0.5832  -0.5795  -0.5622  -0.5588  -0.5542  -0.5523  -0.5498  -0.5408
    -0.5134  -0.5114  -0.5085  -0.5010  -0.4978  -0.4947  -0.4909  -0.4788
    -0.4767  -0.4754  -0.4711  -0.4344  -0.4322  -0.4259  -0.4202  -0.4181
    -0.3483  -0.3413  -0.3389  -0.3374  -0.3310  -0.3276  -0.2942  -0.2828
    -0.2803  -0.2499  -0.2481  -0.2371  -0.1314  -0.1239  -0.0258   0.3885
     0.3901   0.3949   0.3961   0.4589   0.4653   0.8410   0.8446   0.8845
     0.8866   1.0045   1.0802   1.1869   1.1978   1.4108   1.4265   2.0402
     2.0455   2.2020   2.2083   2.3396   2.3443   2.4395   2.4405   2.5940
     2.8315   2.8482   2.9592   3.1804   3.1875   3.2593   3.2628   3.3618
     3.3788   3.5784   3.5976   3.6347   3.8329   3.8391   3.8978   3.9035
     4.1504   4.1648   4.1701   4.4024   4.4422   4.4494   4.4917   4.8165
     4.8316   4.8539   4.9889   5.1664   5.1688   5.2237   5.2484   5.5334
     5.8205   5.9362   5.9437   5.9550   5.9654   6.0191   6.0307   6.1082
     6.1337   6.1518   6.1690   6.1930   6.2012   6.2172   6.2408   6.2491
     6.2616   6.4458   6.5722   6.6909   6.7642   6.8039   6.8854   6.9025
     6.9097   7.0188   7.0332

          k = 0.2500-0.4330-0.1111 (136853 PWs)   bands (ev):

   -18.9865  -7.1490  -6.3185  -5.9213  -5.9205  -5.2417  -4.9121  -4.9107
    -4.8715  -4.8695  -4.5135  -4.5101  -4.4142  -4.4125  -4.3988  -4.3754
    -4.3546  -4.2470  -4.2435  -4.2208  -4.1780  -4.1773  -4.1133  -4.1086
    -4.1033  -4.1006  -4.0806  -4.0766  -4.0723  -4.0088  -4.0019  -3.9743
    -3.9703  -3.9613  -3.9600  -3.9385  -3.9359  -3.9138  -3.9074  -3.9053
    -3.8836  -3.8302  -3.8270  -3.7807  -3.7764  -3.7329  -3.7244  -3.6788
    -3.6673  -3.6644  -3.6637  -3.6301  -3.6054  -3.5951  -3.5837  -3.5827
    -3.5811  -3.5572  -3.5523  -3.5444  -3.4952  -3.4847  -3.4782  -3.4592
    -3.4478  -3.3885  -3.3755  -3.3519  -3.3479  -3.3370  -3.3161  -3.3036
    -3.2986  -3.2689  -3.2273  -3.2137  -3.2094  -3.2031  -3.1570  -3.1515
    -3.1365  -3.1082  -3.0846  -3.0800  -3.0708  -3.0688  -3.0617  -3.0534
    -3.0509  -3.0450  -3.0347  -2.9983  -2.9629  -2.9586  -2.9490  -2.9470
    -2.9187  -2.9144  -2.9111  -2.8827  -2.8423  -2.8416  -2.8354  -2.7974
    -2.7888  -2.7773  -2.7771  -2.7527  -2.7466  -2.7171  -2.6840  -2.6815
    -2.6629  -2.6513  -2.6386  -2.6385  -2.5918  -2.5871  -2.5549  -2.5333
    -2.5317  -2.5126  -2.5054  -2.4972  -2.4946  -2.4865  -2.4672  -2.4644
    -2.4211  -2.4165  -2.4156  -2.4039  -2.4016  -2.3930  -2.3899  -2.3880
    -2.3835  -2.3801  -2.3744  -2.3714  -2.3635  -2.3561  -2.3342  -2.3281
    -2.3254  -2.3236  -2.3221  -2.3190  -2.3186  -2.2971  -2.2936  -2.2784
    -2.2751  -2.2577  -2.2565  -2.2515  -2.2465  -2.2456  -2.2438  -2.2318
    -2.2260  -2.2235  -2.2225  -2.2093  -2.1808  -2.1788  -2.1389  -2.1374
    -2.1186  -2.1170  -2.0870  -2.0866  -2.0644  -2.0590  -2.0481  -2.0390
    -2.0106  -2.0013  -1.9901  -1.9829  -1.9818  -1.9765  -1.9722  -1.9692
    -1.9449  -1.9402  -1.9348  -1.8786  -1.8728  -1.8662  -1.8632  -1.8605
    -1.8324  -1.8102  -1.8063  -1.7831  -1.7786  -1.7266  -1.7211  -1.6926
    -1.6740  -1.6713  -1.6201  -1.6125  -1.6039  -1.5986  -1.5920  -1.5884
    -1.5842  -1.5801  -1.5732  -1.5441  -1.5169  -1.5136  -1.5065  -1.5044
    -1.4968  -1.4858  -1.4537  -1.4520  -1.4390  -1.4370  -1.4335  -1.4267
    -1.4224  -1.4145  -1.4110  -1.3928  -1.3908  -1.3668  -1.3511  -1.3480
    -1.3394  -1.3223  -1.3033  -1.2666  -1.2642  -1.2380  -1.2352  -1.2314
    -1.2038  -1.1832  -1.1566  -1.1494  -1.1458  -1.1441  -1.1408  -1.1338
    -1.1278  -1.1129  -1.0900  -1.0758  -1.0662  -1.0459  -1.0395  -1.0351
    -1.0332  -1.0265  -1.0179  -1.0115  -1.0101  -1.0061  -0.9972  -0.9719
    -0.9685  -0.9663  -0.9604  -0.9390  -0.9342  -0.9246  -0.9058  -0.8989
    -0.8847  -0.8512  -0.8465  -0.8357  -0.8070  -0.8047  -0.7957  -0.7932
    -0.7876  -0.7856  -0.7817  -0.7763  -0.7687  -0.7574  -0.7477  -0.7456
    -0.7403  -0.7386  -0.7327  -0.7025  -0.7010  -0.6894  -0.6848  -0.6683
    -0.6660  -0.6586  -0.6529  -0.6003  -0.5983  -0.5917  -0.5896  -0.5875
    -0.5832  -0.5795  -0.5622  -0.5588  -0.5542  -0.5523  -0.5498  -0.5408
    -0.5134  -0.5114  -0.5085  -0.5010  -0.4978  -0.4947  -0.4909  -0.4788
    -0.4767  -0.4754  -0.4711  -0.4344  -0.4322  -0.4259  -0.4202  -0.4181
    -0.3483  -0.3413  -0.3389  -0.3374  -0.3310  -0.3276  -0.2942  -0.2828
    -0.2803  -0.2499  -0.2481  -0.2371  -0.1314  -0.1239  -0.0258   0.3885
     0.3901   0.3949   0.3961   0.4589   0.4653   0.8410   0.8446   0.8845
     0.8866   1.0045   1.0802   1.1869   1.1978   1.4108   1.4265   2.0402
     2.0455   2.2020   2.2083   2.3396   2.3443   2.4395   2.4405   2.5940
     2.8315   2.8482   2.9592   3.1804   3.1875   3.2593   3.2628   3.3618
     3.3788   3.5784   3.5976   3.6347   3.8329   3.8391   3.8978   3.9035
     4.1504   4.1648   4.1701   4.4024   4.4422   4.4494   4.4917   4.8165
     4.8316   4.8539   4.9889   5.1664   5.1688   5.2237   5.2484   5.5333
     5.8213   5.9362   5.9439   5.9550   5.9654   6.0191   6.0307   6.1084
     6.1336   6.1517   6.1666   6.1930   6.2009   6.2173   6.2408   6.2488
     6.2609   6.4454   6.5716   6.7064   6.7638   6.8048   6.8859   6.9028
     6.9099   7.0143   7.0239

          k = 0.5000 0.0000 0.1111 (136853 PWs)   bands (ev):

   -18.9865  -7.1491  -6.3182  -5.9213  -5.9206  -5.2412  -4.9139  -4.9101
    -4.8732  -4.8681  -4.5131  -4.5094  -4.4135  -4.4121  -4.3984  -4.3753
    -4.3544  -4.2486  -4.2441  -4.2216  -4.1781  -4.1769  -4.1148  -4.1079
    -4.1069  -4.1007  -4.0803  -4.0772  -4.0713  -4.0102  -4.0005  -3.9741
    -3.9716  -3.9612  -3.9593  -3.9376  -3.9363  -3.9143  -3.9068  -3.9051
    -3.8808  -3.8286  -3.8269  -3.7807  -3.7765  -3.7249  -3.7218  -3.6694
    -3.6667  -3.6654  -3.6634  -3.6306  -3.6075  -3.5951  -3.5927  -3.5836
    -3.5812  -3.5741  -3.5534  -3.5439  -3.4945  -3.4856  -3.4829  -3.4560
    -3.4485  -3.3982  -3.3741  -3.3596  -3.3416  -3.3177  -3.3145  -3.3001
    -3.2921  -3.2717  -3.2277  -3.2189  -3.2075  -3.2020  -3.1563  -3.1523
    -3.1379  -3.1097  -3.0860  -3.0793  -3.0705  -3.0686  -3.0627  -3.0534
    -3.0508  -3.0417  -3.0368  -2.9995  -2.9631  -2.9584  -2.9499  -2.9449
    -2.9190  -2.9145  -2.9106  -2.8828  -2.8427  -2.8418  -2.8352  -2.7984
    -2.7891  -2.7781  -2.7760  -2.7525  -2.7455  -2.7170  -2.6839  -2.6820
    -2.6632  -2.6512  -2.6402  -2.6372  -2.5923  -2.5868  -2.5551  -2.5335
    -2.5309  -2.5116  -2.5073  -2.4973  -2.4935  -2.4864  -2.4681  -2.4644
    -2.4212  -2.4180  -2.4151  -2.4036  -2.4017  -2.3924  -2.3894  -2.3869
    -2.3833  -2.3804  -2.3747  -2.3718  -2.3637  -2.3584  -2.3331  -2.3289
    -2.3247  -2.3235  -2.3222  -2.3203  -2.3169  -2.2958  -2.2938  -2.2777
    -2.2755  -2.2576  -2.2567  -2.2522  -2.2475  -2.2464  -2.2419  -2.2327
    -2.2276  -2.2228  -2.2205  -2.2097  -2.1813  -2.1784  -2.1391  -2.1374
    -2.1187  -2.1170  -2.0895  -2.0847  -2.0619  -2.0592  -2.0462  -2.0384
    -2.0111  -2.0003  -1.9946  -1.9853  -1.9807  -1.9746  -1.9706  -1.9672
    -1.9454  -1.9372  -1.9351  -1.8792  -1.8739  -1.8674  -1.8640  -1.8610
    -1.8367  -1.8103  -1.8063  -1.7838  -1.7787  -1.7267  -1.7217  -1.6930
    -1.6740  -1.6692  -1.6186  -1.6108  -1.6079  -1.5979  -1.5908  -1.5873
    -1.5827  -1.5803  -1.5733  -1.5268  -1.5211  -1.5140  -1.5059  -1.5028
    -1.4900  -1.4854  -1.4716  -1.4524  -1.4405  -1.4363  -1.4341  -1.4281
    -1.4244  -1.4168  -1.4108  -1.3940  -1.3896  -1.3578  -1.3511  -1.3460
    -1.3386  -1.3225  -1.3033  -1.2813  -1.2639  -1.2421  -1.2357  -1.2336
    -1.2063  -1.1770  -1.1564  -1.1497  -1.1467  -1.1421  -1.1406  -1.1308
    -1.1243  -1.1173  -1.0842  -1.0728  -1.0699  -1.0467  -1.0420  -1.0351
    -1.0330  -1.0298  -1.0182  -1.0113  -1.0090  -1.0066  -0.9849  -0.9712
    -0.9676  -0.9656  -0.9524  -0.9386  -0.9330  -0.9300  -0.9051  -0.9004
    -0.8963  -0.8571  -0.8499  -0.8326  -0.8098  -0.8016  -0.7958  -0.7925
    -0.7868  -0.7845  -0.7823  -0.7764  -0.7680  -0.7571  -0.7482  -0.7460
    -0.7407  -0.7383  -0.7306  -0.7021  -0.7012  -0.6933  -0.6841  -0.6718
    -0.6670  -0.6564  -0.6472  -0.5999  -0.5968  -0.5922  -0.5893  -0.5857
    -0.5846  -0.5806  -0.5635  -0.5593  -0.5551  -0.5526  -0.5514  -0.5420
    -0.5133  -0.5115  -0.5091  -0.5012  -0.4991  -0.4950  -0.4879  -0.4781
    -0.4762  -0.4737  -0.4693  -0.4366  -0.4314  -0.4257  -0.4197  -0.4163
    -0.3480  -0.3408  -0.3390  -0.3374  -0.3308  -0.3283  -0.2942  -0.2833
    -0.2811  -0.2505  -0.2493  -0.2360  -0.1306  -0.1231  -0.0252   0.3886
     0.3904   0.3952   0.3960   0.4556   0.4676   0.8406   0.8438   0.8827
     0.8892   1.0062   1.0806   1.1845   1.2015   1.4049   1.4306   2.0394
     2.0463   2.1962   2.2142   2.3314   2.3508   2.4396   2.4405   2.5939
     2.8313   2.8503   2.9592   3.1749   3.1931   3.2577   3.2647   3.3621
     3.3790   3.5679   3.6037   3.6361   3.8335   3.8386   3.8936   3.9096
     4.1495   4.1584   4.1774   4.4030   4.4387   4.4502   4.4919   4.8194
     4.8308   4.8537   4.9866   5.1645   5.1709   5.2137   5.2635   5.5365
     5.8092   5.9280   5.9513   5.9579   5.9665   6.0199   6.0304   6.1011
     6.1294   6.1597   6.1646   6.1947   6.2039   6.2093   6.2337   6.2524
     6.2656   6.4454   6.5777   6.6953   6.7652   6.8175   6.8902   6.9037
     6.9145   7.0140   7.0279

          k =-0.5000 0.0000 0.1111 (136853 PWs)   bands (ev):

   -18.9865  -7.1491  -6.3182  -5.9213  -5.9206  -5.2412  -4.9139  -4.9101
    -4.8732  -4.8681  -4.5131  -4.5094  -4.4135  -4.4121  -4.3984  -4.3753
    -4.3544  -4.2486  -4.2441  -4.2216  -4.1781  -4.1769  -4.1148  -4.1079
    -4.1069  -4.1007  -4.0803  -4.0772  -4.0713  -4.0102  -4.0005  -3.9741
    -3.9716  -3.9612  -3.9593  -3.9376  -3.9363  -3.9143  -3.9068  -3.9051
    -3.8808  -3.8286  -3.8269  -3.7807  -3.7765  -3.7249  -3.7218  -3.6694
    -3.6667  -3.6654  -3.6634  -3.6306  -3.6075  -3.5951  -3.5927  -3.5836
    -3.5812  -3.5741  -3.5534  -3.5439  -3.4945  -3.4856  -3.4829  -3.4560
    -3.4485  -3.3982  -3.3741  -3.3596  -3.3416  -3.3177  -3.3145  -3.3001
    -3.2921  -3.2717  -3.2277  -3.2189  -3.2075  -3.2020  -3.1563  -3.1523
    -3.1379  -3.1097  -3.0860  -3.0793  -3.0705  -3.0686  -3.0627  -3.0534
    -3.0508  -3.0417  -3.0368  -2.9995  -2.9631  -2.9584  -2.9499  -2.9449
    -2.9190  -2.9145  -2.9106  -2.8828  -2.8427  -2.8418  -2.8352  -2.7984
    -2.7891  -2.7781  -2.7760  -2.7525  -2.7455  -2.7170  -2.6839  -2.6820
    -2.6632  -2.6512  -2.6402  -2.6372  -2.5923  -2.5868  -2.5551  -2.5335
    -2.5309  -2.5116  -2.5073  -2.4973  -2.4935  -2.4864  -2.4681  -2.4644
    -2.4212  -2.4180  -2.4151  -2.4036  -2.4017  -2.3924  -2.3894  -2.3869
    -2.3833  -2.3804  -2.3747  -2.3718  -2.3637  -2.3584  -2.3331  -2.3289
    -2.3247  -2.3235  -2.3222  -2.3203  -2.3169  -2.2958  -2.2938  -2.2777
    -2.2755  -2.2576  -2.2567  -2.2522  -2.2475  -2.2464  -2.2419  -2.2327
    -2.2276  -2.2228  -2.2205  -2.2097  -2.1813  -2.1784  -2.1391  -2.1374
    -2.1187  -2.1170  -2.0895  -2.0847  -2.0619  -2.0592  -2.0462  -2.0384
    -2.0111  -2.0003  -1.9946  -1.9853  -1.9807  -1.9746  -1.9706  -1.9672
    -1.9454  -1.9372  -1.9351  -1.8792  -1.8739  -1.8674  -1.8640  -1.8610
    -1.8367  -1.8103  -1.8063  -1.7838  -1.7787  -1.7267  -1.7217  -1.6930
    -1.6740  -1.6692  -1.6186  -1.6108  -1.6079  -1.5979  -1.5908  -1.5873
    -1.5827  -1.5803  -1.5733  -1.5268  -1.5211  -1.5140  -1.5059  -1.5028
    -1.4900  -1.4854  -1.4716  -1.4524  -1.4405  -1.4363  -1.4341  -1.4281
    -1.4244  -1.4168  -1.4108  -1.3940  -1.3896  -1.3578  -1.3511  -1.3460
    -1.3386  -1.3225  -1.3033  -1.2813  -1.2639  -1.2421  -1.2357  -1.2336
    -1.2063  -1.1770  -1.1564  -1.1497  -1.1467  -1.1421  -1.1406  -1.1308
    -1.1243  -1.1173  -1.0842  -1.0728  -1.0699  -1.0467  -1.0420  -1.0351
    -1.0330  -1.0298  -1.0182  -1.0113  -1.0090  -1.0066  -0.9849  -0.9712
    -0.9676  -0.9656  -0.9524  -0.9386  -0.9330  -0.9300  -0.9051  -0.9004
    -0.8963  -0.8571  -0.8499  -0.8326  -0.8098  -0.8016  -0.7958  -0.7925
    -0.7868  -0.7845  -0.7823  -0.7764  -0.7680  -0.7571  -0.7482  -0.7460
    -0.7407  -0.7383  -0.7306  -0.7021  -0.7012  -0.6933  -0.6841  -0.6718
    -0.6670  -0.6564  -0.6472  -0.5999  -0.5968  -0.5922  -0.5893  -0.5857
    -0.5846  -0.5806  -0.5635  -0.5593  -0.5551  -0.5526  -0.5514  -0.5420
    -0.5133  -0.5115  -0.5091  -0.5012  -0.4991  -0.4950  -0.4879  -0.4781
    -0.4762  -0.4737  -0.4693  -0.4366  -0.4314  -0.4257  -0.4197  -0.4163
    -0.3480  -0.3408  -0.3390  -0.3374  -0.3308  -0.3283  -0.2942  -0.2833
    -0.2811  -0.2505  -0.2493  -0.2360  -0.1306  -0.1231  -0.0252   0.3886
     0.3904   0.3952   0.3960   0.4556   0.4676   0.8406   0.8438   0.8827
     0.8892   1.0062   1.0806   1.1845   1.2015   1.4049   1.4306   2.0394
     2.0463   2.1962   2.2142   2.3314   2.3508   2.4396   2.4405   2.5939
     2.8313   2.8503   2.9592   3.1749   3.1931   3.2577   3.2647   3.3621
     3.3790   3.5679   3.6037   3.6361   3.8335   3.8386   3.8936   3.9096
     4.1495   4.1584   4.1774   4.4030   4.4387   4.4502   4.4919   4.8194
     4.8308   4.8537   4.9866   5.1645   5.1709   5.2137   5.2635   5.5365
     5.8092   5.9279   5.9512   5.9580   5.9665   6.0198   6.0304   6.1012
     6.1294   6.1593   6.1648   6.1947   6.2039   6.2093   6.2336   6.2524
     6.2655   6.4455   6.5775   6.6957   6.7655   6.8177   6.8902   6.9037
     6.9153   7.0144   7.0286

          k =-0.2500 0.1443 0.1111 (136898 PWs)   bands (ev):

   -18.9865  -7.1501  -6.5264  -5.7390  -5.4442  -5.3901  -5.3877  -4.8523
    -4.8509  -4.7207  -4.7183  -4.5633  -4.5356  -4.4721  -4.4426  -4.4352
    -4.4056  -4.4043  -4.2761  -4.2349  -4.2342  -4.1769  -4.1575  -4.1531
    -4.0530  -4.0508  -4.0171  -4.0145  -4.0141  -3.9883  -3.9676  -3.9659
    -3.8645  -3.8601  -3.8591  -3.8412  -3.8265  -3.8215  -3.8123  -3.8092
    -3.7996  -3.7718  -3.7672  -3.7655  -3.7643  -3.7393  -3.7348  -3.7178
    -3.7145  -3.7092  -3.6758  -3.6640  -3.6296  -3.6181  -3.6125  -3.6062
    -3.6057  -3.5379  -3.5321  -3.5085  -3.4999  -3.4937  -3.4377  -3.4260
    -3.4233  -3.4103  -3.3913  -3.3839  -3.3829  -3.3801  -3.3062  -3.2261
    -3.2218  -3.2031  -3.2002  -3.1840  -3.1792  -3.1753  -3.1553  -3.1441
    -3.1040  -3.0991  -3.0888  -3.0847  -3.0647  -3.0220  -3.0207  -2.9975
    -2.9944  -2.9911  -2.9546  -2.9531  -2.9438  -2.9431  -2.9283  -2.9190
    -2.8921  -2.8899  -2.8721  -2.8673  -2.8652  -2.8631  -2.8591  -2.7873
    -2.7854  -2.7810  -2.7546  -2.7513  -2.6974  -2.6899  -2.6644  -2.6623
    -2.6535  -2.6499  -2.6416  -2.6162  -2.6137  -2.6034  -2.5875  -2.5652
    -2.5622  -2.5585  -2.5418  -2.5403  -2.5338  -2.5289  -2.5260  -2.5238
    -2.5146  -2.4692  -2.4429  -2.4400  -2.4214  -2.4100  -2.4066  -2.4024
    -2.3959  -2.3931  -2.3917  -2.3663  -2.3647  -2.3629  -2.3543  -2.3513
    -2.3392  -2.3152  -2.3110  -2.3093  -2.3063  -2.3058  -2.2599  -2.2331
    -2.2310  -2.2283  -2.2241  -2.2126  -2.2078  -2.2028  -2.1837  -2.1829
    -2.1585  -2.1509  -2.1495  -2.1359  -2.1332  -2.1310  -2.0995  -2.0980
    -2.0644  -2.0524  -2.0513  -2.0481  -2.0467  -2.0419  -2.0393  -2.0360
    -2.0343  -2.0332  -2.0277  -2.0152  -2.0113  -1.8974  -1.8883  -1.8631
    -1.8501  -1.8472  -1.8394  -1.8371  -1.8298  -1.8233  -1.8196  -1.8181
    -1.8153  -1.7982  -1.7925  -1.7904  -1.7798  -1.7760  -1.7701  -1.7545
    -1.7500  -1.7263  -1.7225  -1.6962  -1.6922  -1.6816  -1.6728  -1.6557
    -1.6532  -1.6501  -1.6359  -1.6232  -1.6198  -1.6141  -1.6118  -1.5921
    -1.5873  -1.5756  -1.5705  -1.5399  -1.5340  -1.5276  -1.4903  -1.4788
    -1.4682  -1.4615  -1.4583  -1.4360  -1.4332  -1.4064  -1.4022  -1.4000
    -1.3704  -1.3635  -1.3576  -1.3409  -1.3382  -1.3269  -1.3175  -1.3133
    -1.2871  -1.2821  -1.2791  -1.2229  -1.2177  -1.2114  -1.2059  -1.1933
    -1.1890  -1.1755  -1.1749  -1.1588  -1.1472  -1.1406  -1.1180  -1.1131
    -1.0950  -1.0714  -1.0662  -1.0595  -1.0547  -1.0524  -1.0508  -1.0466
    -1.0309  -1.0218  -1.0062  -1.0007  -0.9898  -0.9885  -0.9873  -0.9717
    -0.9676  -0.9448  -0.9377  -0.9238  -0.8889  -0.8362  -0.8239  -0.8160
    -0.8148  -0.8063  -0.8021  -0.7947  -0.7839  -0.7699  -0.7617  -0.7545
    -0.7500  -0.7463  -0.7399  -0.7219  -0.7179  -0.7100  -0.7031  -0.6366
    -0.6346  -0.6017  -0.5975  -0.5950  -0.5906  -0.5874  -0.5865  -0.5778
    -0.5723  -0.5697  -0.5555  -0.5320  -0.5129  -0.5028  -0.4985  -0.4895
    -0.4854  -0.4764  -0.4753  -0.4744  -0.4712  -0.4696  -0.4556  -0.4512
    -0.4471  -0.4212  -0.4197  -0.4160  -0.4056  -0.4048  -0.3860  -0.3546
    -0.3534  -0.3453  -0.3405  -0.2792  -0.2757  -0.2438  -0.2418  -0.1870
    -0.1848  -0.1808  -0.1600  -0.1578   0.0734   0.0856   0.4187   0.4192
     0.5106   0.5242   0.7096   0.7350   0.7375   0.8638   0.8690   1.2995
     1.3004   1.3151   1.5837   1.6095   1.6113   1.8847   1.9001   1.9631
     1.9666   1.9885   2.0041   2.2203   2.2221   2.3095   2.3119   2.3926
     2.4474   2.4680   2.6135   2.7193   3.1422   3.1526   3.1557   3.1617
     3.2092   3.2132   3.5032   3.5049   3.7805   3.7943   3.9039   4.1983
     4.2320   4.2459   4.4572   4.4904   4.5339   4.5430   4.6386   4.7438
     4.7581   4.8687   4.8728   5.1699   5.2244   5.2467   5.3723   5.4398
     5.4609   5.6159   5.6328   5.6580   5.6609   5.7145   5.7228   5.7756
     5.8882   6.0699   6.2879   6.3242   6.3751   6.4542   6.4627   6.4733
     6.4801   6.5401   6.6581   6.7027   6.7219   6.8502   6.9335   6.9586
     6.9811   7.0363   7.0777

          k =-0.2500-0.1443-0.1111 (136898 PWs)   bands (ev):

   -18.9865  -7.1502  -6.5262  -5.7383  -5.4439  -5.3908  -5.3883  -4.8526
    -4.8511  -4.7194  -4.7175  -4.5633  -4.5357  -4.4716  -4.4445  -4.4361
    -4.4057  -4.4046  -4.2764  -4.2344  -4.2342  -4.1746  -4.1587  -4.1539
    -4.0520  -4.0511  -4.0171  -4.0149  -4.0140  -3.9884  -3.9678  -3.9660
    -3.8653  -3.8610  -3.8588  -3.8396  -3.8270  -3.8217  -3.8117  -3.8091
    -3.7984  -3.7706  -3.7674  -3.7657  -3.7647  -3.7396  -3.7351  -3.7186
    -3.7147  -3.7064  -3.6767  -3.6652  -3.6278  -3.6172  -3.6120  -3.6067
    -3.6059  -3.5370  -3.5322  -3.5073  -3.5008  -3.4945  -3.4393  -3.4267
    -3.4223  -3.4104  -3.3946  -3.3838  -3.3829  -3.3798  -3.3074  -3.2243
    -3.2207  -3.2021  -3.1990  -3.1881  -3.1793  -3.1740  -3.1560  -3.1398
    -3.1043  -3.1002  -3.0881  -3.0843  -3.0667  -3.0223  -3.0149  -3.0015
    -2.9941  -2.9919  -2.9545  -2.9512  -2.9437  -2.9428  -2.9331  -2.9251
    -2.8914  -2.8892  -2.8703  -2.8673  -2.8644  -2.8620  -2.8584  -2.7882
    -2.7861  -2.7819  -2.7540  -2.7508  -2.6933  -2.6920  -2.6649  -2.6625
    -2.6512  -2.6492  -2.6417  -2.6158  -2.6141  -2.6035  -2.5884  -2.5681
    -2.5638  -2.5576  -2.5424  -2.5401  -2.5339  -2.5279  -2.5256  -2.5234
    -2.5146  -2.4691  -2.4422  -2.4388  -2.4247  -2.4117  -2.4058  -2.4021
    -2.3972  -2.3939  -2.3913  -2.3654  -2.3636  -2.3621  -2.3527  -2.3505
    -2.3393  -2.3147  -2.3121  -2.3094  -2.3064  -2.3052  -2.2601  -2.2343
    -2.2323  -2.2280  -2.2243  -2.2126  -2.2047  -2.2018  -2.1830  -2.1827
    -2.1588  -2.1521  -2.1495  -2.1340  -2.1327  -2.1302  -2.1039  -2.0982
    -2.0642  -2.0522  -2.0512  -2.0491  -2.0456  -2.0421  -2.0390  -2.0378
    -2.0351  -2.0309  -2.0282  -2.0147  -2.0112  -1.8923  -1.8874  -1.8602
    -1.8504  -1.8463  -1.8395  -1.8380  -1.8368  -1.8248  -1.8200  -1.8171
    -1.8146  -1.7955  -1.7916  -1.7899  -1.7799  -1.7735  -1.7713  -1.7537
    -1.7501  -1.7238  -1.7219  -1.7086  -1.6941  -1.6820  -1.6738  -1.6562
    -1.6534  -1.6507  -1.6359  -1.6212  -1.6194  -1.6136  -1.6115  -1.5930
    -1.5873  -1.5735  -1.5693  -1.5422  -1.5359  -1.5304  -1.4816  -1.4798
    -1.4679  -1.4623  -1.4599  -1.4360  -1.4330  -1.4074  -1.4043  -1.3989
    -1.3736  -1.3590  -1.3574  -1.3416  -1.3393  -1.3318  -1.3147  -1.3111
    -1.2850  -1.2810  -1.2786  -1.2234  -1.2193  -1.2105  -1.2045  -1.1996
    -1.1907  -1.1811  -1.1737  -1.1577  -1.1456  -1.1364  -1.1152  -1.1093
    -1.0948  -1.0713  -1.0642  -1.0573  -1.0539  -1.0527  -1.0499  -1.0469
    -1.0326  -1.0304  -1.0078  -1.0012  -0.9900  -0.9880  -0.9837  -0.9736
    -0.9613  -0.9427  -0.9345  -0.9222  -0.8990  -0.8351  -0.8225  -0.8164
    -0.8150  -0.8064  -0.8018  -0.7948  -0.7840  -0.7705  -0.7628  -0.7610
    -0.7493  -0.7468  -0.7376  -0.7222  -0.7151  -0.7101  -0.7041  -0.6365
    -0.6346  -0.6011  -0.5970  -0.5963  -0.5895  -0.5882  -0.5866  -0.5835
    -0.5735  -0.5638  -0.5528  -0.5319  -0.5204  -0.5021  -0.4995  -0.4894
    -0.4867  -0.4793  -0.4746  -0.4742  -0.4717  -0.4651  -0.4555  -0.4508
    -0.4461  -0.4214  -0.4179  -0.4151  -0.4050  -0.4026  -0.3858  -0.3549
    -0.3537  -0.3451  -0.3417  -0.2772  -0.2754  -0.2435  -0.2418  -0.1861
    -0.1849  -0.1809  -0.1609  -0.1597   0.0764   0.0857   0.4188   0.4194
     0.5136   0.5233   0.7073   0.7323   0.7410   0.8643   0.8692   1.2987
     1.3005   1.3175   1.5827   1.6089   1.6108   1.8864   1.9006   1.9605
     1.9660   1.9906   2.0035   2.2185   2.2212   2.3100   2.3120   2.3922
     2.4482   2.4686   2.6149   2.7169   3.1413   3.1530   3.1546   3.1616
     3.2080   3.2120   3.5010   3.5047   3.7797   3.7949   3.9018   4.2010
     4.2322   4.2459   4.4593   4.4917   4.5381   4.5441   4.6332   4.7516
     4.7556   4.8640   4.8732   5.1666   5.2364   5.2461   5.3735   5.4420
     5.4610   5.6252   5.6318   5.6554   5.6597   5.7111   5.7229   5.7694
     5.8880   6.0687   6.2871   6.3210   6.3766   6.4520   6.4622   6.4684
     6.4831   6.5387   6.6597   6.7101   6.7196   6.8492   6.9323   6.9646
     6.9781   7.0339   7.0752

          k = 0.2500 0.1443-0.1111 (136898 PWs)   bands (ev):

   -18.9865  -7.1502  -6.5262  -5.7383  -5.4439  -5.3908  -5.3883  -4.8526
    -4.8511  -4.7194  -4.7175  -4.5633  -4.5357  -4.4716  -4.4445  -4.4361
    -4.4057  -4.4046  -4.2764  -4.2344  -4.2342  -4.1747  -4.1587  -4.1539
    -4.0520  -4.0511  -4.0171  -4.0149  -4.0140  -3.9884  -3.9678  -3.9660
    -3.8653  -3.8610  -3.8588  -3.8396  -3.8270  -3.8216  -3.8117  -3.8091
    -3.7984  -3.7706  -3.7674  -3.7657  -3.7647  -3.7396  -3.7351  -3.7186
    -3.7148  -3.7064  -3.6767  -3.6652  -3.6278  -3.6172  -3.6120  -3.6067
    -3.6059  -3.5370  -3.5322  -3.5073  -3.5008  -3.4945  -3.4393  -3.4267
    -3.4223  -3.4104  -3.3946  -3.3838  -3.3829  -3.3798  -3.3074  -3.2243
    -3.2207  -3.2021  -3.1990  -3.1881  -3.1793  -3.1740  -3.1560  -3.1398
    -3.1043  -3.1002  -3.0881  -3.0842  -3.0667  -3.0223  -3.0149  -3.0015
    -2.9941  -2.9919  -2.9545  -2.9512  -2.9437  -2.9428  -2.9331  -2.9251
    -2.8914  -2.8892  -2.8703  -2.8673  -2.8644  -2.8620  -2.8584  -2.7882
    -2.7861  -2.7819  -2.7540  -2.7508  -2.6933  -2.6920  -2.6649  -2.6625
    -2.6512  -2.6492  -2.6417  -2.6158  -2.6141  -2.6035  -2.5884  -2.5681
    -2.5638  -2.5576  -2.5424  -2.5401  -2.5339  -2.5279  -2.5256  -2.5234
    -2.5146  -2.4691  -2.4422  -2.4388  -2.4247  -2.4117  -2.4058  -2.4021
    -2.3972  -2.3939  -2.3913  -2.3654  -2.3636  -2.3621  -2.3527  -2.3505
    -2.3393  -2.3147  -2.3121  -2.3094  -2.3064  -2.3052  -2.2601  -2.2343
    -2.2323  -2.2280  -2.2243  -2.2126  -2.2047  -2.2018  -2.1830  -2.1827
    -2.1588  -2.1521  -2.1495  -2.1340  -2.1327  -2.1302  -2.1039  -2.0982
    -2.0642  -2.0522  -2.0512  -2.0491  -2.0456  -2.0421  -2.0390  -2.0378
    -2.0351  -2.0309  -2.0281  -2.0147  -2.0112  -1.8923  -1.8874  -1.8602
    -1.8504  -1.8463  -1.8395  -1.8380  -1.8368  -1.8248  -1.8200  -1.8171
    -1.8146  -1.7955  -1.7916  -1.7899  -1.7799  -1.7735  -1.7713  -1.7537
    -1.7501  -1.7238  -1.7219  -1.7086  -1.6941  -1.6820  -1.6738  -1.6562
    -1.6534  -1.6507  -1.6359  -1.6212  -1.6194  -1.6136  -1.6115  -1.5930
    -1.5873  -1.5735  -1.5693  -1.5422  -1.5359  -1.5304  -1.4816  -1.4798
    -1.4679  -1.4623  -1.4599  -1.4360  -1.4330  -1.4074  -1.4043  -1.3989
    -1.3736  -1.3590  -1.3574  -1.3416  -1.3393  -1.3318  -1.3147  -1.3111
    -1.2850  -1.2810  -1.2786  -1.2234  -1.2193  -1.2105  -1.2045  -1.1996
    -1.1907  -1.1811  -1.1737  -1.1577  -1.1456  -1.1364  -1.1152  -1.1093
    -1.0948  -1.0713  -1.0642  -1.0573  -1.0539  -1.0527  -1.0499  -1.0469
    -1.0326  -1.0304  -1.0078  -1.0012  -0.9900  -0.9880  -0.9837  -0.9736
    -0.9613  -0.9427  -0.9345  -0.9222  -0.8990  -0.8351  -0.8225  -0.8164
    -0.8150  -0.8064  -0.8018  -0.7948  -0.7840  -0.7705  -0.7628  -0.7610
    -0.7493  -0.7468  -0.7376  -0.7222  -0.7151  -0.7101  -0.7041  -0.6365
    -0.6346  -0.6011  -0.5970  -0.5963  -0.5895  -0.5882  -0.5866  -0.5835
    -0.5735  -0.5638  -0.5528  -0.5319  -0.5204  -0.5021  -0.4995  -0.4894
    -0.4867  -0.4793  -0.4746  -0.4742  -0.4717  -0.4651  -0.4555  -0.4508
    -0.4461  -0.4214  -0.4179  -0.4151  -0.4050  -0.4026  -0.3858  -0.3549
    -0.3537  -0.3451  -0.3416  -0.2772  -0.2754  -0.2435  -0.2418  -0.1861
    -0.1849  -0.1809  -0.1609  -0.1597   0.0764   0.0857   0.4187   0.4194
     0.5136   0.5233   0.7073   0.7323   0.7410   0.8643   0.8692   1.2987
     1.3005   1.3175   1.5827   1.6089   1.6108   1.8864   1.9006   1.9605
     1.9659   1.9906   2.0035   2.2185   2.2212   2.3100   2.3120   2.3922
     2.4482   2.4686   2.6149   2.7169   3.1413   3.1530   3.1546   3.1616
     3.2080   3.2120   3.5010   3.5047   3.7797   3.7949   3.9018   4.2010
     4.2322   4.2459   4.4593   4.4917   4.5381   4.5441   4.6332   4.7516
     4.7556   4.8640   4.8732   5.1666   5.2364   5.2461   5.3734   5.4420
     5.4611   5.6252   5.6318   5.6554   5.6597   5.7111   5.7228   5.7697
     5.8865   6.0713   6.2879   6.3211   6.3767   6.4518   6.4623   6.4684
     6.4828   6.5334   6.6549   6.7094   6.7198   6.8514   6.9344   6.9648
     6.9775   7.0365   7.0803

          k = 0.0000-0.2887 0.1111 (136898 PWs)   bands (ev):

   -18.9865  -7.1501  -6.5264  -5.7390  -5.4441  -5.3902  -5.3876  -4.8522
    -4.8507  -4.7217  -4.7184  -4.5634  -4.5357  -4.4727  -4.4407  -4.4354
    -4.4053  -4.4039  -4.2762  -4.2350  -4.2339  -4.1781  -4.1560  -4.1532
    -4.0522  -4.0508  -4.0172  -4.0146  -4.0141  -3.9891  -3.9671  -3.9662
    -3.8693  -3.8612  -3.8591  -3.8430  -3.8255  -3.8214  -3.8104  -3.8093
    -3.8025  -3.7674  -3.7667  -3.7660  -3.7646  -3.7367  -3.7344  -3.7207
    -3.7144  -3.7119  -3.6681  -3.6629  -3.6346  -3.6146  -3.6130  -3.6061
    -3.6056  -3.5350  -3.5320  -3.5060  -3.4982  -3.4955  -3.4394  -3.4262
    -3.4244  -3.4103  -3.3931  -3.3837  -3.3829  -3.3806  -3.3100  -3.2250
    -3.2214  -3.2024  -3.1978  -3.1836  -3.1795  -3.1704  -3.1548  -3.1519
    -3.1037  -3.1024  -3.0873  -3.0836  -3.0662  -3.0218  -3.0168  -2.9999
    -2.9948  -2.9893  -2.9549  -2.9509  -2.9445  -2.9431  -2.9297  -2.9249
    -2.8911  -2.8888  -2.8712  -2.8673  -2.8652  -2.8640  -2.8583  -2.7880
    -2.7864  -2.7811  -2.7540  -2.7516  -2.6950  -2.6910  -2.6647  -2.6628
    -2.6510  -2.6485  -2.6415  -2.6157  -2.6140  -2.6036  -2.5883  -2.5682
    -2.5622  -2.5605  -2.5416  -2.5403  -2.5315  -2.5297  -2.5260  -2.5217
    -2.5146  -2.4691  -2.4419  -2.4387  -2.4227  -2.4113  -2.4065  -2.4023
    -2.3963  -2.3940  -2.3920  -2.3658  -2.3640  -2.3619  -2.3535  -2.3502
    -2.3391  -2.3152  -2.3110  -2.3095  -2.3068  -2.3052  -2.2602  -2.2337
    -2.2312  -2.2282  -2.2245  -2.2125  -2.2054  -2.2035  -2.1834  -2.1827
    -2.1591  -2.1504  -2.1492  -2.1370  -2.1330  -2.1311  -2.1012  -2.0976
    -2.0641  -2.0528  -2.0511  -2.0494  -2.0461  -2.0436  -2.0403  -2.0378
    -2.0355  -2.0303  -2.0290  -2.0145  -2.0127  -1.8980  -1.8878  -1.8584
    -1.8492  -1.8463  -1.8392  -1.8378  -1.8323  -1.8234  -1.8207  -1.8180
    -1.8127  -1.7968  -1.7934  -1.7898  -1.7805  -1.7752  -1.7706  -1.7542
    -1.7506  -1.7265  -1.7225  -1.6977  -1.6931  -1.6829  -1.6727  -1.6572
    -1.6540  -1.6505  -1.6362  -1.6224  -1.6195  -1.6135  -1.6123  -1.5905
    -1.5868  -1.5789  -1.5700  -1.5428  -1.5360  -1.5252  -1.4872  -1.4782
    -1.4655  -1.4618  -1.4566  -1.4360  -1.4330  -1.4071  -1.4043  -1.4015
    -1.3681  -1.3606  -1.3602  -1.3406  -1.3392  -1.3198  -1.3174  -1.3084
    -1.2853  -1.2809  -1.2794  -1.2262  -1.2209  -1.2116  -1.2079  -1.1995
    -1.1892  -1.1780  -1.1746  -1.1578  -1.1501  -1.1430  -1.1148  -1.1040
    -1.0965  -1.0731  -1.0654  -1.0597  -1.0534  -1.0520  -1.0496  -1.0452
    -1.0394  -1.0309  -1.0092  -1.0039  -0.9905  -0.9887  -0.9835  -0.9699
    -0.9582  -0.9464  -0.9288  -0.9225  -0.8891  -0.8345  -0.8231  -0.8166
    -0.8154  -0.8074  -0.8018  -0.7888  -0.7842  -0.7733  -0.7654  -0.7575
    -0.7502  -0.7472  -0.7424  -0.7205  -0.7155  -0.7103  -0.7068  -0.6369
    -0.6328  -0.6009  -0.5983  -0.5969  -0.5901  -0.5881  -0.5862  -0.5847
    -0.5745  -0.5588  -0.5533  -0.5319  -0.5179  -0.5016  -0.4986  -0.4897
    -0.4866  -0.4803  -0.4765  -0.4732  -0.4720  -0.4643  -0.4560  -0.4513
    -0.4477  -0.4212  -0.4197  -0.4132  -0.4058  -0.4021  -0.3860  -0.3551
    -0.3529  -0.3453  -0.3435  -0.2791  -0.2726  -0.2442  -0.2413  -0.1868
    -0.1837  -0.1801  -0.1621  -0.1601   0.0794   0.0843   0.4189   0.4194
     0.5172   0.5200   0.7042   0.7307   0.7435   0.8656   0.8683   1.2988
     1.3004   1.3167   1.5828   1.6091   1.6107   1.8915   1.8963   1.9602
     1.9658   1.9948   1.9991   2.2172   2.2228   2.3104   2.3115   2.3934
     2.4530   2.4616   2.6152   2.7176   3.1418   3.1525   3.1567   3.1597
     3.2066   3.2146   3.5018   3.5044   3.7849   3.7897   3.9014   4.2010
     4.2348   4.2416   4.4706   4.4780   4.5359   4.5457   4.6348   4.7478
     4.7600   4.8668   4.8713   5.1673   5.2286   5.2518   5.3891   5.4263
     5.4583   5.6253   5.6305   5.6553   5.6597   5.7166   5.7213   5.7757
     5.8854   6.0817   6.2865   6.3210   6.3627   6.4503   6.4612   6.4738
     6.4787   6.5283   6.6569   6.7160   6.7185   6.8659   6.9274   6.9652
     6.9756   7.0399   7.0749

          k = 0.0000 0.2887 0.1111 (136898 PWs)   bands (ev):

   -18.9865  -7.1501  -6.5264  -5.7390  -5.4441  -5.3902  -5.3876  -4.8522
    -4.8507  -4.7217  -4.7184  -4.5634  -4.5357  -4.4727  -4.4407  -4.4354
    -4.4053  -4.4039  -4.2762  -4.2350  -4.2339  -4.1781  -4.1560  -4.1532
    -4.0522  -4.0508  -4.0172  -4.0146  -4.0141  -3.9891  -3.9671  -3.9662
    -3.8693  -3.8612  -3.8591  -3.8430  -3.8255  -3.8214  -3.8104  -3.8093
    -3.8025  -3.7674  -3.7667  -3.7660  -3.7646  -3.7367  -3.7344  -3.7207
    -3.7144  -3.7119  -3.6681  -3.6629  -3.6346  -3.6146  -3.6130  -3.6061
    -3.6056  -3.5350  -3.5320  -3.5060  -3.4982  -3.4955  -3.4394  -3.4262
    -3.4244  -3.4104  -3.3931  -3.3837  -3.3829  -3.3806  -3.3100  -3.2250
    -3.2214  -3.2024  -3.1978  -3.1836  -3.1795  -3.1704  -3.1548  -3.1519
    -3.1037  -3.1024  -3.0873  -3.0836  -3.0662  -3.0218  -3.0168  -2.9999
    -2.9948  -2.9893  -2.9549  -2.9509  -2.9445  -2.9431  -2.9297  -2.9249
    -2.8911  -2.8888  -2.8712  -2.8673  -2.8652  -2.8640  -2.8583  -2.7880
    -2.7864  -2.7811  -2.7540  -2.7516  -2.6950  -2.6910  -2.6647  -2.6628
    -2.6510  -2.6485  -2.6416  -2.6157  -2.6140  -2.6036  -2.5883  -2.5682
    -2.5622  -2.5605  -2.5416  -2.5403  -2.5315  -2.5297  -2.5260  -2.5217
    -2.5146  -2.4691  -2.4419  -2.4387  -2.4227  -2.4113  -2.4065  -2.4023
    -2.3963  -2.3940  -2.3920  -2.3658  -2.3640  -2.3619  -2.3535  -2.3502
    -2.3391  -2.3152  -2.3110  -2.3095  -2.3068  -2.3052  -2.2602  -2.2337
    -2.2312  -2.2282  -2.2245  -2.2125  -2.2054  -2.2035  -2.1834  -2.1827
    -2.1591  -2.1504  -2.1492  -2.1370  -2.1330  -2.1311  -2.1012  -2.0976
    -2.0641  -2.0528  -2.0511  -2.0494  -2.0461  -2.0436  -2.0403  -2.0378
    -2.0355  -2.0303  -2.0290  -2.0145  -2.0127  -1.8980  -1.8878  -1.8584
    -1.8492  -1.8463  -1.8392  -1.8378  -1.8323  -1.8234  -1.8207  -1.8180
    -1.8127  -1.7968  -1.7934  -1.7898  -1.7805  -1.7752  -1.7706  -1.7542
    -1.7506  -1.7265  -1.7225  -1.6977  -1.6931  -1.6829  -1.6727  -1.6572
    -1.6540  -1.6505  -1.6362  -1.6224  -1.6195  -1.6135  -1.6123  -1.5905
    -1.5868  -1.5789  -1.5700  -1.5428  -1.5360  -1.5252  -1.4872  -1.4782
    -1.4655  -1.4618  -1.4566  -1.4360  -1.4330  -1.4071  -1.4043  -1.4015
    -1.3681  -1.3606  -1.3602  -1.3406  -1.3392  -1.3198  -1.3174  -1.3084
    -1.2853  -1.2809  -1.2794  -1.2262  -1.2209  -1.2116  -1.2079  -1.1995
    -1.1892  -1.1780  -1.1746  -1.1578  -1.1501  -1.1430  -1.1148  -1.1040
    -1.0965  -1.0731  -1.0654  -1.0597  -1.0534  -1.0520  -1.0496  -1.0452
    -1.0394  -1.0309  -1.0092  -1.0039  -0.9905  -0.9887  -0.9835  -0.9699
    -0.9582  -0.9464  -0.9288  -0.9225  -0.8891  -0.8345  -0.8231  -0.8166
    -0.8154  -0.8074  -0.8018  -0.7888  -0.7842  -0.7733  -0.7654  -0.7575
    -0.7502  -0.7472  -0.7424  -0.7205  -0.7155  -0.7103  -0.7068  -0.6369
    -0.6328  -0.6009  -0.5983  -0.5969  -0.5901  -0.5881  -0.5862  -0.5847
    -0.5745  -0.5588  -0.5533  -0.5319  -0.5179  -0.5016  -0.4986  -0.4897
    -0.4866  -0.4802  -0.4765  -0.4732  -0.4720  -0.4643  -0.4560  -0.4513
    -0.4477  -0.4212  -0.4197  -0.4132  -0.4058  -0.4021  -0.3860  -0.3551
    -0.3529  -0.3453  -0.3435  -0.2791  -0.2726  -0.2442  -0.2413  -0.1868
    -0.1837  -0.1801  -0.1621  -0.1601   0.0794   0.0843   0.4189   0.4194
     0.5172   0.5200   0.7042   0.7307   0.7435   0.8655   0.8683   1.2988
     1.3004   1.3167   1.5828   1.6091   1.6107   1.8915   1.8963   1.9602
     1.9658   1.9948   1.9991   2.2172   2.2228   2.3104   2.3115   2.3934
     2.4530   2.4616   2.6152   2.7176   3.1418   3.1525   3.1567   3.1597
     3.2066   3.2146   3.5018   3.5044   3.7849   3.7897   3.9014   4.2010
     4.2348   4.2416   4.4706   4.4780   4.5359   4.5457   4.6348   4.7478
     4.7600   4.8668   4.8713   5.1673   5.2286   5.2518   5.3893   5.4263
     5.4580   5.6253   5.6305   5.6553   5.6597   5.7166   5.7213   5.7752
     5.8887   6.0773   6.2833   6.3199   6.3623   6.4503   6.4611   6.4738
     6.4783   6.5401   6.6586   6.7157   6.7185   6.8581   6.9276   6.9649
     6.9752   7.0481   7.0826

     the Fermi energy is     1.4462 ev

!    total energy              =   -6604.40782685 Ry
     Harris-Foulkes estimate   =   -6604.40782684 Ry
     estimated scf accuracy    <          2.2E-09 Ry

     The total energy is the sum of the following terms:

     one-electron contribution =  -48850.68201654 Ry
     hartree contribution      =   24926.65442751 Ry
     xc contribution           =   -3205.04669224 Ry
     ewald contribution        =   20524.66368396 Ry
     smearing contrib. (-TS)   =       0.00277046 Ry

     convergence has been achieved in  25 iterations

     Writing output data file 5561568.save

     init_run     :    137.92s CPU    148.87s WALL (       1 calls)
     electrons    :   7981.23s CPU   8561.69s WALL (       1 calls)

     Called by init_run:
     wfcinit      :    108.26s CPU    118.52s WALL (       1 calls)
     potinit      :      8.27s CPU      8.65s WALL (       1 calls)

     Called by electrons:
     c_bands      :   6747.95s CPU   7216.91s WALL (      26 calls)
     sum_band     :    908.49s CPU   1005.06s WALL (      26 calls)
     v_of_rho     :     80.90s CPU     90.45s WALL (      26 calls)
     newd         :    252.20s CPU    255.48s WALL (      26 calls)
     mix_rho      :      2.64s CPU      2.95s WALL (      26 calls)
     vdW_energy   :      6.74s CPU      7.28s WALL (      26 calls)
     vdW_ffts     :     39.16s CPU     44.09s WALL (      52 calls)
     vdW_v        :     11.39s CPU     12.08s WALL (      26 calls)

     Called by c_bands:
     init_us_2    :     15.51s CPU     15.96s WALL (     636 calls)
     cegterg      :   6672.91s CPU   7140.16s WALL (     312 calls)

     Called by *egterg:
     h_psi        :   2882.04s CPU   3314.95s WALL (    1577 calls)
     s_psi        :    438.76s CPU    441.24s WALL (    1577 calls)
     g_psi        :      6.34s CPU      6.37s WALL (    1253 calls)
     cdiaghg      :   2014.56s CPU   2019.92s WALL (    1553 calls)

     Called by h_psi:
     add_vuspsi   :    439.41s CPU    441.84s WALL (    1577 calls)

     General routines
     calbec       :    631.10s CPU    633.42s WALL (    1889 calls)
     fft          :    101.89s CPU    110.91s WALL (    1716 calls)
     ffts         :      1.29s CPU      1.52s WALL (      52 calls)
     fftw         :   2087.88s CPU   2534.20s WALL (  761040 calls)
     interpolate  :      3.24s CPU      3.87s WALL (      52 calls)
     davcio       :      0.00s CPU      0.21s WALL (      12 calls)

     Parallel routines
     fft_scatter  :   1390.44s CPU   1698.00s WALL (  762808 calls)

     PWSCF        :     2h15m CPU        2h25m WALL


   This run was terminated on:  15:51:49   1Jul2015            

=------------------------------------------------------------------------------=
   JOB DONE.
=------------------------------------------------------------------------------=
