
     Program PWSCF v.5.1.2 starts on  2Jul2015 at  1: 4:42 

     This program is part of the open-source Quantum ESPRESSO suite
     for quantum simulation of materials; please cite
         "P. Giannozzi et al., J. Phys.:Condens. Matter 21 395502 (2009);
          URL http://www.quantum-espresso.org", 
     in publications or presentations arising from this work. More details at
     http://www.quantum-espresso.org/quote

     Parallel version (MPI), running on    32 processors
     R & G space division:  proc/nbgrp/npool/nimage =      32
     Reading input from bridge.H2.Au5455.d.2.4.phi.45.psi.0.in
Warning: card &IONS ignored
Warning: card / ignored
Warning: card &CELL ignored
Warning: card / ignored

     Current dimensions of program PWSCF are:
     Max number of different atomic species (ntypx) = 10
     Max number of k-points (npk) =  40000
     Max angular momentum in pseudopotentials (lmaxx) =  3

     IMPORTANT: XC functional enforced from input :
     Exchange-correlation      = VDW-DF ( 1  4  4  0 1 0)
     Any further DFT definition will be discarded
     Please, verify this is what you really want


     Subspace diagonalization in iterative solution of the eigenvalue problem:
     a serial algorithm will be used


     Parallelization info
     --------------------
     sticks:   dense  smooth     PW     G-vecs:    dense   smooth      PW
     Min         445     223     58                96775    34191    4534
     Max         446     224     59                96790    34246    4540
     Sum       14269    7147   1867              3097177  1095093  145167


     Title: 
     bridge.H2.Au5455.d.2.4.phi.45.psi.0                                        


     bravais-lattice index     =            4
     lattice parameter (alat)  =      22.7436  a.u.
     unit-cell volume          =   22924.1508 (a.u.)^3
     number of atoms/cell      =           67
     number of atomic types    =            3
     number of electrons       =       712.00
     number of Kohn-Sham states=          427
     kinetic-energy cutoff     =      50.0000  Ry
     charge density cutoff     =     400.0000  Ry
     convergence threshold     =      1.0E-08
     mixing beta               =       0.7000
     number of iterations used =            8  plain     mixing
     Exchange-correlation      = VDW-DF ( 1  4  4  0 1 0)

     celldm(1)=  22.743643  celldm(2)=   0.000000  celldm(3)=   2.250000
     celldm(4)=   0.000000  celldm(5)=   0.000000  celldm(6)=   0.000000

     crystal axes: (cart. coord. in units of alat)
               a(1) = (   1.000000   0.000000   0.000000 )  
               a(2) = (  -0.500000   0.866025   0.000000 )  
               a(3) = (   0.000000   0.000000   2.250000 )  

     reciprocal axes: (cart. coord. in units 2 pi/alat)
               b(1) = (  1.000000  0.577350 -0.000000 )  
               b(2) = (  0.000000  1.154701  0.000000 )  
               b(3) = (  0.000000 -0.000000  0.444444 )  


     PseudoPot. # 1 for Au read from file:
     /home/scc/andrejb/qe/pseudo/Au.pbe-nd-van.UPF
     MD5 check sum: 458681b50f36d87ef23c61b04bba420a
     Pseudo is Ultrasoft + core correction, Zval = 11.0
     Generated by new atomic code, or converted to UPF format
     Using radial grid of  985 points,  3 beta functions with: 
                l(1) =   1
                l(2) =   2
                l(3) =   2
     Q(r) pseudized with  8 coefficients,  rinner =    1.100   1.100   1.100
                                                       1.100   1.100

     PseudoPot. # 2 for H  read from file:
     /home/scc/andrejb/qe/pseudo/H.pbe-van_ak.UPF
     MD5 check sum: 403db7282739603aa925980fa9b8608d
     Pseudo is Ultrasoft, Zval =  1.0
     Generated by new atomic code, or converted to UPF format
     Using radial grid of  615 points,  1 beta functions with: 
                l(1) =   0
     Q(r) pseudized with  8 coefficients,  rinner =    0.800

     PseudoPot. # 3 for O  read from file:
     /home/scc/andrejb/qe/pseudo/O.pbe-van_ak.UPF
     MD5 check sum: 4b8c549914a63cae506c6ff22b5af4fe
     Pseudo is Ultrasoft, Zval =  6.0
     Generated by new atomic code, or converted to UPF format
     Using radial grid of  737 points,  4 beta functions with: 
                l(1) =   0
                l(2) =   0
                l(3) =   1
                l(4) =   1
     Q(r) pseudized with  8 coefficients,  rinner =    0.800   0.800   0.800


     vdW kernel table read from file vdW_kernel_table
     MD5 check sum: 48e77a2e26edf626eeb0eaa751ad5cac

     atomic species   valence    mass     pseudopotential
        Au            11.00   196.96657     Au( 1.00)
        H              1.00     1.01000     H ( 1.00)
        O              6.00    16.00000     O ( 1.00)

     No symmetry found



   Cartesian axes

     site n.     atom                  positions (alat units)
         1           O   tau(   1) = (   0.2937541   0.3124901   1.0641895  )
         2           H   tau(   2) = (   0.2915728   0.2885783   0.9869145  )
         3           H   tau(   3) = (   0.2874926   0.2440115   1.1068181  )
         4           Au  tau(   4) = (   0.3540481   0.6132292   0.0000000  )
         5           Au  tau(   5) = (   0.4790062   0.3967954   0.0000000  )
         6           Au  tau(   6) = (   0.6039644   0.1803616   0.0000000  )
         7           Au  tau(   7) = (   0.7289225  -0.0360723   0.0000000  )
         8           Au  tau(   8) = (   0.1041318   0.6132292   0.0000000  )
         9           Au  tau(   9) = (   0.2290899   0.3967954   0.0000000  )
        10           Au  tau(  10) = (   0.3540481   0.1803616   0.0000000  )
        11           Au  tau(  11) = (   0.4790062  -0.0360723   0.0000000  )
        12           Au  tau(  12) = (  -0.1457845   0.6132292   0.0000000  )
        13           Au  tau(  13) = (  -0.0208264   0.3967954   0.0000000  )
        14           Au  tau(  14) = (   0.1041318   0.1803616   0.0000000  )
        15           Au  tau(  15) = (   0.2290899  -0.0360723   0.0000000  )
        16           Au  tau(  16) = (  -0.3957008   0.6132292   0.0000000  )
        17           Au  tau(  17) = (  -0.2707426   0.3967954   0.0000000  )
        18           Au  tau(  18) = (  -0.1457845   0.1803616   0.0000000  )
        19           Au  tau(  19) = (  -0.0208264  -0.0360723   0.0000000  )
        20           Au  tau(  20) = (   0.4790062   0.6853738   0.2040557  )
        21           Au  tau(  21) = (   0.6039644   0.4689400   0.2040557  )
        22           Au  tau(  22) = (   0.7289225   0.2525061   0.2040557  )
        23           Au  tau(  23) = (   0.8538806   0.0360723   0.2040557  )
        24           Au  tau(  24) = (   0.2290899   0.6853738   0.2040557  )
        25           Au  tau(  25) = (   0.3540481   0.4689400   0.2040557  )
        26           Au  tau(  26) = (   0.4790062   0.2525061   0.2040557  )
        27           Au  tau(  27) = (   0.6039644   0.0360723   0.2040557  )
        28           Au  tau(  28) = (  -0.0208264   0.6853738   0.2040557  )
        29           Au  tau(  29) = (   0.1041318   0.4689400   0.2040557  )
        30           Au  tau(  30) = (   0.2290899   0.2525061   0.2040557  )
        31           Au  tau(  31) = (   0.3540481   0.0360723   0.2040557  )
        32           Au  tau(  32) = (  -0.2707426   0.6853738   0.2040557  )
        33           Au  tau(  33) = (  -0.1457845   0.4689400   0.2040557  )
        34           Au  tau(  34) = (  -0.0208264   0.2525061   0.2040557  )
        35           Au  tau(  35) = (   0.1041318   0.0360723   0.2040557  )
        36           Au  tau(  36) = (   0.3541162   0.7576593   0.4066483  )
        37           Au  tau(  37) = (   0.4791000   0.5411421   0.4066695  )
        38           Au  tau(  38) = (   0.6040570   0.3246862   0.4066617  )
        39           Au  tau(  39) = (   0.7290270   0.1081684   0.4066529  )
        40           Au  tau(  40) = (   0.1041162   0.7576236   0.4066247  )
        41           Au  tau(  41) = (   0.2291001   0.5411063   0.4066455  )
        42           Au  tau(  42) = (   0.3540567   0.3246505   0.4066380  )
        43           Au  tau(  43) = (   0.4790276   0.1081324   0.4066292  )
        44           Au  tau(  44) = (  -0.1458201   0.7576104   0.4066224  )
        45           Au  tau(  45) = (  -0.0208365   0.5410930   0.4066438  )
        46           Au  tau(  46) = (   0.1041202   0.3246372   0.4066359  )
        47           Au  tau(  47) = (   0.2290908   0.1081193   0.4066273  )
        48           Au  tau(  48) = (  -0.3958167   0.7575791   0.4065812  )
        49           Au  tau(  49) = (  -0.2708328   0.5410617   0.4066025  )
        50           Au  tau(  50) = (  -0.1458763   0.3246061   0.4065947  )
        51           Au  tau(  51) = (  -0.0209056   0.1080882   0.4065858  )
        52           Au  tau(  52) = (   0.3541085   0.6133344   0.6129762  )
        53           Au  tau(  53) = (   0.4790780   0.3968269   0.6129968  )
        54           Au  tau(  54) = (   0.6040356   0.1803811   0.6129859  )
        55           Au  tau(  55) = (   0.7290165  -0.0361221   0.6129385  )
        56           Au  tau(  56) = (   0.1041243   0.6133091   0.6130022  )
        57           Au  tau(  57) = (   0.2290941   0.3968013   0.6130241  )
        58           Au  tau(  58) = (   0.3540515   0.1803552   0.6130121  )
        59           Au  tau(  59) = (   0.4790323  -0.0361475   0.6129659  )
        60           Au  tau(  60) = (  -0.1458030   0.6133014   0.6129980  )
        61           Au  tau(  61) = (  -0.0208339   0.3967936   0.6130188  )
        62           Au  tau(  62) = (   0.1041239   0.1803477   0.6130083  )
        63           Au  tau(  63) = (   0.2291046  -0.0361554   0.6129607  )
        64           Au  tau(  64) = (  -0.3957908   0.6132739   0.6129471  )
        65           Au  tau(  65) = (  -0.2708208   0.3967658   0.6129688  )
        66           Au  tau(  66) = (  -0.1458636   0.1803200   0.6129569  )
        67           Au  tau(  67) = (  -0.0208823  -0.0361826   0.6129110  )

     number of k points=    12  Marzari-Vanderbilt smearing, width (Ry)=  0.0200
                       cart. coord. in units 2pi/alat
        k(    1) = (   0.2500000   0.4330127   0.1111111), wk =   0.1666667
        k(    2) = (   0.2500000  -0.1443376   0.1111111), wk =   0.1666667
        k(    3) = (  -0.2500000  -0.4330127   0.1111111), wk =   0.1666667
        k(    4) = (  -0.2500000   0.4330127  -0.1111111), wk =   0.1666667
        k(    5) = (   0.2500000  -0.4330127  -0.1111111), wk =   0.1666667
        k(    6) = (   0.5000000   0.0000000   0.1111111), wk =   0.1666667
        k(    7) = (  -0.5000000   0.0000000   0.1111111), wk =   0.1666667
        k(    8) = (  -0.2500000   0.1443376   0.1111111), wk =   0.1666667
        k(    9) = (  -0.2500000  -0.1443376  -0.1111111), wk =   0.1666667
        k(   10) = (   0.2500000   0.1443376  -0.1111111), wk =   0.1666667
        k(   11) = (   0.0000000  -0.2886751   0.1111111), wk =   0.1666667
        k(   12) = (   0.0000000   0.2886751   0.1111111), wk =   0.1666667

     Dense  grid:  3097177 G-vectors     FFT dimensions: ( 150, 150, 360)

     Smooth grid:  1095093 G-vectors     FFT dimensions: ( 108, 108, 240)

     Largest allocated arrays     est. size (Mb)     dimensions
        Kohn-Sham Wavefunctions        28.01 Mb     (    4299,  427)
        NL pseudopotentials            55.23 Mb     (    4299,  842)
        Each V/rho on FFT grid          4.12 Mb     (  270000)
        Each G-vector array             0.74 Mb     (   96788)
        G-vector shells                 0.16 Mb     (   21404)
     Largest temporary arrays     est. size (Mb)     dimensions
        Auxiliary wavefunctions       112.04 Mb     (    4299, 1708)
        Each subspace H/S matrix       44.51 Mb     (    1708, 1708)
        Each <psi_i|beta_j> matrix      5.49 Mb     (     842,  427)
        Arrays for rho mixing          32.96 Mb     (  270000,    8)

     Initial potential from superposition of free atoms
     Check: negative starting charge=   -1.729885

     starting charge  711.25682, renormalised to  712.00000

     negative rho (up, down):  1.732E+00 0.000E+00


     ************************************************************************
     *
     * You are using vdW-DF for exchange-correlation in this calculation.
     * Please cite the following three references that made this development
     * possible:
     *
     *   M. Dion, H. Rydberg, E. Schroder, D. C. Langreth, and
     *   B. I. Lundqvist, Phys. Rev. Lett. 92, 246401 (2004).
     *
     *   T. Thonhauser, V. R. Cooper, S. Li, A. Puzder, P. Hyldgaard, and
     *   D. C. Langreth, Phys. Rev. B 76, 125112 (2007).
     *
     *   G. Roman-Perez and J. M. Soler, Phys. Rev. Lett. 103, 096102 (2009).
     *
     *
     * If you are using vdW-DF2, please also cite:
     *
     *   K. Lee, E. D. Murray, L. Kong, B. I. Lundqvist, and
     *   D. C. Langreth, Phys. Rev. B 82, 081101(R) (2010).
     *
     *
     * If you are calculating the stress with vdW-DF, please also cite:
     *
     *   R. Sabatini, E. Kucukbenli, B. Kolb, T. Thonhauser, and
     *   S. de Gironcoli, J. Phys.: Condens. Matter 24, 424209 (2012).
     *
     ************************************************************************

     Carrying out vdW-DF run using the following parameters:

     Nqs =      20    Nr_points =    1024   r_max =   100.000
     q_mesh =
               0.00001000     0.04494208     0.09755937     0.15916263
               0.23128650     0.31572767     0.41458969     0.53033537
               0.66584808     0.82450364     1.01025438     1.22772762
               1.48234092     1.78043706     2.12944203     2.53805004
               3.01644009     3.57652955     4.23227104     5.00000000

     Gradients computed in reciprocal space

     ************************************************************************


     Starting wfc are  582 randomized atomic wfcs

     total cpu time spent up to now is      195.8 secs

     Self-consistent Calculation

     iteration #  1     ecut=    50.00 Ry     beta=0.70
     Davidson diagonalization with overlap
     ethr =  1.00E-02,  avg # of iterations =  3.0

     Threshold (ethr) on eigenvalues was too large:
     Diagonalizing with lowered threshold

     Davidson diagonalization with overlap
     ethr =  3.54E-04,  avg # of iterations =  3.2

     negative rho (up, down):  1.728E+00 0.000E+00

     total cpu time spent up to now is      943.8 secs

     total energy              =   -6602.76117214 Ry
     Harris-Foulkes estimate   =   -6605.04724666 Ry
     estimated scf accuracy    <       2.85875964 Ry

     iteration #  2     ecut=    50.00 Ry     beta=0.70
     Davidson diagonalization with overlap
     ethr =  4.02E-04,  avg # of iterations = 11.6

     negative rho (up, down):  1.726E+00 0.000E+00

     total cpu time spent up to now is     1985.1 secs

     total energy              =   -6596.57081511 Ry
     Harris-Foulkes estimate   =   -6610.20802209 Ry
     estimated scf accuracy    <      76.11701037 Ry

     iteration #  3     ecut=    50.00 Ry     beta=0.70
     Davidson diagonalization with overlap
     ethr =  4.02E-04,  avg # of iterations =  6.0

     negative rho (up, down):  1.737E+00 0.000E+00

     total cpu time spent up to now is     2647.4 secs

     total energy              =   -6603.08589025 Ry
     Harris-Foulkes estimate   =   -6605.05100481 Ry
     estimated scf accuracy    <       9.21522968 Ry

     iteration #  4     ecut=    50.00 Ry     beta=0.70
     Davidson diagonalization with overlap
     ethr =  4.02E-04,  avg # of iterations =  7.4

     negative rho (up, down):  1.738E+00 0.000E+00

     total cpu time spent up to now is     3113.3 secs

     total energy              =   -6603.58434480 Ry
     Harris-Foulkes estimate   =   -6605.05650117 Ry
     estimated scf accuracy    <      12.60231480 Ry

     iteration #  5     ecut=    50.00 Ry     beta=0.70
     Davidson diagonalization with overlap
     ethr =  4.02E-04,  avg # of iterations =  6.0

     negative rho (up, down):  1.748E+00 0.000E+00

     total cpu time spent up to now is     3498.9 secs

     total energy              =   -6604.29433511 Ry
     Harris-Foulkes estimate   =   -6604.65470879 Ry
     estimated scf accuracy    <       2.96949662 Ry

     iteration #  6     ecut=    50.00 Ry     beta=0.70
     Davidson diagonalization with overlap
     ethr =  4.02E-04,  avg # of iterations =  2.1

     negative rho (up, down):  1.754E+00 0.000E+00

     total cpu time spent up to now is     3792.0 secs

     total energy              =   -6604.43151351 Ry
     Harris-Foulkes estimate   =   -6604.45937496 Ry
     estimated scf accuracy    <       0.08507297 Ry

     iteration #  7     ecut=    50.00 Ry     beta=0.70
     Davidson diagonalization with overlap
     ethr =  1.19E-05,  avg # of iterations = 10.9

     negative rho (up, down):  1.755E+00 0.000E+00

     total cpu time spent up to now is     4337.5 secs

     total energy              =   -6604.43222138 Ry
     Harris-Foulkes estimate   =   -6604.44746072 Ry
     estimated scf accuracy    <       0.05493951 Ry

     iteration #  8     ecut=    50.00 Ry     beta=0.70
     Davidson diagonalization with overlap
     ethr =  7.72E-06,  avg # of iterations =  8.1

     negative rho (up, down):  1.756E+00 0.000E+00

     total cpu time spent up to now is     4745.5 secs

     total energy              =   -6604.42922349 Ry
     Harris-Foulkes estimate   =   -6604.44197723 Ry
     estimated scf accuracy    <       0.04861661 Ry

     iteration #  9     ecut=    50.00 Ry     beta=0.70
     Davidson diagonalization with overlap
     ethr =  6.83E-06,  avg # of iterations = 12.9

     negative rho (up, down):  1.756E+00 0.000E+00

     total cpu time spent up to now is     5147.1 secs

     total energy              =   -6604.42968409 Ry
     Harris-Foulkes estimate   =   -6604.43465017 Ry
     estimated scf accuracy    <       0.01909825 Ry

     iteration # 10     ecut=    50.00 Ry     beta=0.70
     Davidson diagonalization with overlap
     ethr =  2.68E-06,  avg # of iterations = 10.8

     negative rho (up, down):  1.758E+00 0.000E+00

     total cpu time spent up to now is     5605.3 secs

     total energy              =   -6604.42828536 Ry
     Harris-Foulkes estimate   =   -6604.43182349 Ry
     estimated scf accuracy    <       0.01176245 Ry

     iteration # 11     ecut=    50.00 Ry     beta=0.70
     Davidson diagonalization with overlap
     ethr =  1.65E-06,  avg # of iterations =  7.6

     negative rho (up, down):  1.758E+00 0.000E+00

     total cpu time spent up to now is     6046.7 secs

     total energy              =   -6604.42840601 Ry
     Harris-Foulkes estimate   =   -6604.42922383 Ry
     estimated scf accuracy    <       0.00441765 Ry

     iteration # 12     ecut=    50.00 Ry     beta=0.70
     Davidson diagonalization with overlap
     ethr =  6.20E-07,  avg # of iterations =  1.3

     negative rho (up, down):  1.758E+00 0.000E+00

     total cpu time spent up to now is     6355.8 secs

     total energy              =   -6604.42718187 Ry
     Harris-Foulkes estimate   =   -6604.42870621 Ry
     estimated scf accuracy    <       0.00225649 Ry

     iteration # 13     ecut=    50.00 Ry     beta=0.70
     Davidson diagonalization with overlap
     ethr =  3.17E-07,  avg # of iterations =  7.3

     negative rho (up, down):  1.758E+00 0.000E+00

     total cpu time spent up to now is     6836.1 secs

     total energy              =   -6604.42751166 Ry
     Harris-Foulkes estimate   =   -6604.42758400 Ry
     estimated scf accuracy    <       0.00013795 Ry

     iteration # 14     ecut=    50.00 Ry     beta=0.70
     Davidson diagonalization with overlap
     ethr =  1.94E-08,  avg # of iterations =  3.0

     negative rho (up, down):  1.758E+00 0.000E+00

     total cpu time spent up to now is     7215.2 secs

     total energy              =   -6604.42753190 Ry
     Harris-Foulkes estimate   =   -6604.42757862 Ry
     estimated scf accuracy    <       0.00016094 Ry

     iteration # 15     ecut=    50.00 Ry     beta=0.70
     Davidson diagonalization with overlap
     ethr =  1.94E-08,  avg # of iterations =  2.0

     negative rho (up, down):  1.758E+00 0.000E+00

     total cpu time spent up to now is     7586.4 secs

     total energy              =   -6604.42753198 Ry
     Harris-Foulkes estimate   =   -6604.42757528 Ry
     estimated scf accuracy    <       0.00029691 Ry

     iteration # 16     ecut=    50.00 Ry     beta=0.70
     Davidson diagonalization with overlap
     ethr =  1.94E-08,  avg # of iterations =  1.0

     negative rho (up, down):  1.758E+00 0.000E+00

     total cpu time spent up to now is     7881.3 secs

     total energy              =   -6604.42754593 Ry
     Harris-Foulkes estimate   =   -6604.42756755 Ry
     estimated scf accuracy    <       0.00015877 Ry

     iteration # 17     ecut=    50.00 Ry     beta=0.70
     Davidson diagonalization with overlap
     ethr =  1.94E-08,  avg # of iterations =  1.8

     negative rho (up, down):  1.758E+00 0.000E+00

     total cpu time spent up to now is     8183.1 secs

     total energy              =   -6604.42755317 Ry
     Harris-Foulkes estimate   =   -6604.42756393 Ry
     estimated scf accuracy    <       0.00005636 Ry

     iteration # 18     ecut=    50.00 Ry     beta=0.70
     Davidson diagonalization with overlap
     ethr =  7.92E-09,  avg # of iterations =  2.0

     negative rho (up, down):  1.758E+00 0.000E+00

     total cpu time spent up to now is     8503.5 secs

     total energy              =   -6604.42755825 Ry
     Harris-Foulkes estimate   =   -6604.42755934 Ry
     estimated scf accuracy    <       0.00000389 Ry

     iteration # 19     ecut=    50.00 Ry     beta=0.70
     Davidson diagonalization with overlap
     ethr =  5.46E-10,  avg # of iterations =  2.0

     negative rho (up, down):  1.758E+00 0.000E+00

     total cpu time spent up to now is     8850.1 secs

     total energy              =   -6604.42755885 Ry
     Harris-Foulkes estimate   =   -6604.42755936 Ry
     estimated scf accuracy    <       0.00000236 Ry

     iteration # 20     ecut=    50.00 Ry     beta=0.70
     Davidson diagonalization with overlap
     ethr =  3.31E-10,  avg # of iterations =  2.0

     negative rho (up, down):  1.758E+00 0.000E+00

     total cpu time spent up to now is     9166.3 secs

     total energy              =   -6604.42755917 Ry
     Harris-Foulkes estimate   =   -6604.42755932 Ry
     estimated scf accuracy    <       0.00000095 Ry

     iteration # 21     ecut=    50.00 Ry     beta=0.70
     Davidson diagonalization with overlap
     ethr =  1.33E-10,  avg # of iterations =  2.0

     negative rho (up, down):  1.758E+00 0.000E+00

     total cpu time spent up to now is     9499.0 secs

     total energy              =   -6604.42755931 Ry
     Harris-Foulkes estimate   =   -6604.42755935 Ry
     estimated scf accuracy    <       0.00000032 Ry

     iteration # 22     ecut=    50.00 Ry     beta=0.70
     Davidson diagonalization with overlap
     ethr =  4.48E-11,  avg # of iterations =  2.0

     negative rho (up, down):  1.758E+00 0.000E+00

     total cpu time spent up to now is     9808.6 secs

     End of self-consistent calculation

          k = 0.2500 0.4330 0.1111 (136853 PWs)   bands (ev):

   -18.6240  -6.4396  -6.3922  -5.9929  -5.9928  -5.3145  -4.9814  -4.9814
    -4.9419  -4.9414  -4.5812  -4.5811  -4.4825  -4.4825  -4.4684  -4.4464
    -4.4202  -4.3149  -4.3147  -4.2907  -4.2473  -4.2472  -4.1783  -4.1781
    -4.1709  -4.1709  -4.1501  -4.1439  -4.1438  -4.0712  -4.0704  -4.0418
    -4.0417  -4.0296  -4.0295  -4.0063  -4.0063  -3.9838  -3.9753  -3.9752
    -3.9483  -3.8962  -3.8962  -3.8484  -3.8483  -3.7884  -3.7883  -3.7344
    -3.7343  -3.7334  -3.7333  -3.6984  -3.6585  -3.6584  -3.6527  -3.6514
    -3.6513  -3.6203  -3.6200  -3.6117  -3.5497  -3.5496  -3.5400  -3.5242
    -3.5172  -3.4442  -3.4442  -3.4107  -3.4102  -3.3828  -3.3826  -3.3697
    -3.3529  -3.2923  -3.2922  -3.2750  -3.2750  -3.2227  -3.2177  -3.2177
    -3.1798  -3.1481  -3.1476  -3.1396  -3.1396  -3.1258  -3.1257  -3.1180
    -3.1179  -3.1083  -3.0676  -3.0298  -3.0296  -3.0149  -3.0147  -2.9889
    -2.9790  -2.9790  -2.9577  -2.9131  -2.9130  -2.9034  -2.8640  -2.8579
    -2.8464  -2.8463  -2.8168  -2.8164  -2.7877  -2.7496  -2.7496  -2.7272
    -2.7203  -2.7062  -2.7059  -2.6554  -2.6553  -2.6463  -2.6226  -2.5999
    -2.5998  -2.5755  -2.5752  -2.5643  -2.5642  -2.5534  -2.5302  -2.5301
    -2.4860  -2.4858  -2.4844  -2.4673  -2.4672  -2.4625  -2.4528  -2.4508
    -2.4496  -2.4493  -2.4444  -2.4310  -2.4308  -2.4213  -2.3947  -2.3946
    -2.3931  -2.3922  -2.3918  -2.3891  -2.3887  -2.3605  -2.3575  -2.3435
    -2.3435  -2.3258  -2.3258  -2.3156  -2.3155  -2.3139  -2.3135  -2.2939
    -2.2934  -2.2920  -2.2913  -2.2747  -2.2481  -2.2480  -2.2084  -2.2082
    -2.1823  -2.1821  -2.1549  -2.1549  -2.1270  -2.1269  -2.1090  -2.1052
    -2.0782  -2.0558  -2.0556  -2.0502  -2.0502  -2.0457  -2.0386  -2.0382
    -2.0125  -2.0062  -1.9960  -1.9386  -1.9351  -1.9345  -1.9320  -1.9318
    -1.8942  -1.8761  -1.8760  -1.8479  -1.8478  -1.7873  -1.7871  -1.7584
    -1.7399  -1.7399  -1.6786  -1.6785  -1.6668  -1.6664  -1.6556  -1.6552
    -1.6524  -1.6423  -1.6419  -1.5865  -1.5862  -1.5740  -1.5738  -1.5736
    -1.5541  -1.5534  -1.5183  -1.5181  -1.5008  -1.5007  -1.5007  -1.4943
    -1.4891  -1.4793  -1.4787  -1.4603  -1.4603  -1.4186  -1.4181  -1.4059
    -1.4053  -1.3856  -1.3722  -1.3286  -1.3282  -1.3026  -1.2976  -1.2974
    -1.2684  -1.2167  -1.2164  -1.2153  -1.2150  -1.2094  -1.2090  -1.1986
    -1.1802  -1.1798  -1.1401  -1.1397  -1.1090  -1.1090  -1.1041  -1.1040
    -1.0956  -1.0795  -1.0793  -1.0786  -1.0754  -1.0753  -1.0383  -1.0370
    -1.0359  -1.0356  -1.0039  -1.0038  -1.0008  -0.9768  -0.9685  -0.9681
    -0.9218  -0.9146  -0.9139  -0.8793  -0.8713  -0.8600  -0.8600  -0.8520
    -0.8517  -0.8507  -0.8503  -0.8386  -0.8386  -0.8125  -0.8125  -0.8096
    -0.8071  -0.8071  -0.7700  -0.7699  -0.7592  -0.7590  -0.7435  -0.7360
    -0.7355  -0.7240  -0.6681  -0.6663  -0.6570  -0.6569  -0.6559  -0.6556
    -0.6505  -0.6309  -0.6304  -0.6254  -0.6219  -0.6217  -0.6198  -0.6196
    -0.5804  -0.5778  -0.5775  -0.5694  -0.5690  -0.5639  -0.5622  -0.5528
    -0.5464  -0.5426  -0.5425  -0.5001  -0.5000  -0.4915  -0.4881  -0.4879
    -0.4104  -0.4100  -0.4077  -0.4076  -0.3983  -0.3982  -0.3617  -0.3488
    -0.3488  -0.3211  -0.3195  -0.3166  -0.1953  -0.1944  -0.0927   0.3226
     0.3227   0.3258   0.3258   0.3865   0.3870   0.7758   0.7762   0.8189
     0.8190   0.9262   1.0071   1.1176   1.1197   1.3379   1.3418   1.9731
     1.9734   2.1354   2.1359   2.2666   2.2674   2.3713   2.3714   2.5255
     2.7629   2.7677   2.8858   3.1103   3.1131   3.1956   3.1958   3.2957
     3.3106   3.4992   3.5130   3.5672   3.7677   3.7680   3.8306   3.8314
     4.0879   4.0953   4.0962   4.3384   4.3809   4.3810   4.4258   4.7619
     4.7632   4.7919   4.9268   5.0860   5.0990   5.1005   5.1637   5.2568
     5.7094   5.8863   5.8905   5.8932   5.8954   5.9619   5.9624   6.0007
     6.0504   6.0730   6.0972   6.1246   6.1251   6.1398   6.1513   6.1851
     6.1856   6.3403   6.5392   6.5757   6.7092   6.7243   6.8329   6.8350
     6.8431   6.9004   7.0622

          k = 0.2500-0.1443 0.1111 (136898 PWs)   bands (ev):

   -18.6240  -6.6022  -6.4396  -5.8101  -5.5184  -5.4598  -5.4598  -4.9214
    -4.9213  -4.7894  -4.7890  -4.6338  -4.6029  -4.5418  -4.5076  -4.5075
    -4.4748  -4.4747  -4.3462  -4.3044  -4.3044  -4.2443  -4.2230  -4.2229
    -4.1209  -4.1209  -4.0847  -4.0845  -4.0845  -4.0572  -4.0359  -4.0359
    -3.9300  -3.9287  -3.9286  -3.9078  -3.8910  -3.8909  -3.8785  -3.8785
    -3.8649  -3.8351  -3.8350  -3.8349  -3.8349  -3.8017  -3.8017  -3.7844
    -3.7844  -3.7694  -3.7258  -3.7258  -3.6960  -3.6804  -3.6803  -3.6762
    -3.6762  -3.6015  -3.6015  -3.5658  -3.5634  -3.5633  -3.4960  -3.4960
    -3.4804  -3.4804  -3.4492  -3.4490  -3.4481  -3.4479  -3.2947  -3.2946
    -3.2688  -3.2688  -3.2636  -3.2478  -3.2477  -3.2216  -3.2216  -3.1718
    -3.1718  -3.1555  -3.1554  -3.1352  -3.0863  -3.0862  -3.0667  -3.0617
    -3.0617  -3.0207  -3.0207  -3.0144  -3.0144  -2.9975  -2.9974  -2.9580
    -2.9580  -2.9361  -2.9361  -2.9331  -2.9329  -2.9299  -2.8524  -2.8524
    -2.8511  -2.8223  -2.8222  -2.7600  -2.7600  -2.7320  -2.7305  -2.7175
    -2.7174  -2.7122  -2.6824  -2.6824  -2.6729  -2.6551  -2.6464  -2.6292
    -2.6292  -2.6290  -2.6082  -2.6082  -2.5968  -2.5967  -2.5933  -2.5931
    -2.5855  -2.5395  -2.5066  -2.5065  -2.4912  -2.4770  -2.4704  -2.4703
    -2.4630  -2.4629  -2.4615  -2.4315  -2.4313  -2.4311  -2.4214  -2.4214
    -2.4039  -2.3765  -2.3758  -2.3756  -2.3748  -2.3747  -2.3296  -2.2979
    -2.2976  -2.2976  -2.2904  -2.2821  -2.2687  -2.2686  -2.2521  -2.2521
    -2.2183  -2.2168  -2.2167  -2.1979  -2.1962  -2.1962  -2.1633  -2.1632
    -2.1224  -2.1219  -2.1144  -2.1124  -2.1123  -2.1056  -2.1055  -2.1033
    -2.1031  -2.0959  -2.0956  -2.0790  -2.0789  -1.9516  -1.9514  -1.9191
    -1.9130  -1.9127  -1.9079  -1.9079  -1.8896  -1.8895  -1.8865  -1.8864
    -1.8848  -1.8622  -1.8536  -1.8533  -1.8502  -1.8416  -1.8415  -1.8186
    -1.8185  -1.7899  -1.7899  -1.7573  -1.7572  -1.7473  -1.7391  -1.7214
    -1.7213  -1.7184  -1.6999  -1.6877  -1.6876  -1.6800  -1.6800  -1.6532
    -1.6531  -1.6357  -1.6357  -1.6039  -1.6037  -1.5934  -1.5428  -1.5427
    -1.5302  -1.5299  -1.5292  -1.5047  -1.5022  -1.4683  -1.4676  -1.4674
    -1.4338  -1.4236  -1.4234  -1.4080  -1.4079  -1.3811  -1.3795  -1.3794
    -1.3499  -1.3470  -1.3470  -1.2843  -1.2841  -1.2707  -1.2705  -1.2543
    -1.2543  -1.2417  -1.2416  -1.2237  -1.2110  -1.1830  -1.1829  -1.1716
    -1.1437  -1.1331  -1.1330  -1.1215  -1.1215  -1.1190  -1.1136  -1.1134
    -1.1007  -1.0692  -1.0691  -1.0580  -1.0574  -1.0567  -1.0565  -1.0325
    -1.0139  -1.0135  -0.9928  -0.9925  -0.8998  -0.8863  -0.8807  -0.8807
    -0.8771  -0.8713  -0.8713  -0.8507  -0.8455  -0.8302  -0.8300  -0.8156
    -0.8155  -0.8061  -0.7857  -0.7856  -0.7841  -0.7758  -0.7040  -0.7039
    -0.6696  -0.6692  -0.6655  -0.6581  -0.6578  -0.6571  -0.6571  -0.6436
    -0.6436  -0.6284  -0.6250  -0.6029  -0.5882  -0.5681  -0.5679  -0.5566
    -0.5565  -0.5437  -0.5436  -0.5425  -0.5412  -0.5411  -0.5234  -0.5191
    -0.5190  -0.4884  -0.4868  -0.4867  -0.4747  -0.4747  -0.4553  -0.4231
    -0.4231  -0.4138  -0.4138  -0.3456  -0.3455  -0.3078  -0.3077  -0.2498
    -0.2484  -0.2483  -0.2385  -0.2200   0.0032   0.0039   0.3509   0.3509
     0.4421   0.4430   0.6361   0.6485   0.6686   0.7996   0.7998   1.2311
     1.2311   1.2497   1.5069   1.5412   1.5412   1.8178   1.8194   1.8978
     1.8978   1.9250   1.9258   2.1543   2.1543   2.2423   2.2423   2.3141
     2.3810   2.3822   2.5463   2.6434   3.0851   3.0853   3.0882   3.0886
     3.1435   3.1435   3.4354   3.4355   3.7169   3.7184   3.8188   4.1311
     4.1744   4.1752   4.3845   4.3990   4.4753   4.4757   4.5665   4.6845
     4.6850   4.8016   4.8020   5.1064   5.1231   5.1764   5.1781   5.3477
     5.3626   5.5633   5.5638   5.5894   5.5896   5.6530   5.6537   5.6674
     5.7113   6.0168   6.2292   6.2615   6.2801   6.3693   6.3961   6.3963
     6.4091   6.4099   6.5954   6.6501   6.6514   6.7837   6.8517   6.8762
     6.8830   6.9151   7.0317

          k =-0.2500-0.4330 0.1111 (136853 PWs)   bands (ev):

   -18.6240  -6.4396  -6.3922  -5.9929  -5.9928  -5.3145  -4.9814  -4.9814
    -4.9419  -4.9414  -4.5812  -4.5811  -4.4825  -4.4825  -4.4684  -4.4464
    -4.4202  -4.3149  -4.3147  -4.2907  -4.2473  -4.2472  -4.1783  -4.1781
    -4.1709  -4.1709  -4.1501  -4.1439  -4.1438  -4.0712  -4.0704  -4.0418
    -4.0417  -4.0296  -4.0295  -4.0063  -4.0063  -3.9838  -3.9753  -3.9752
    -3.9483  -3.8962  -3.8962  -3.8484  -3.8483  -3.7884  -3.7883  -3.7344
    -3.7343  -3.7334  -3.7333  -3.6984  -3.6585  -3.6584  -3.6527  -3.6514
    -3.6513  -3.6203  -3.6200  -3.6117  -3.5497  -3.5496  -3.5400  -3.5242
    -3.5172  -3.4442  -3.4442  -3.4107  -3.4102  -3.3828  -3.3826  -3.3697
    -3.3529  -3.2923  -3.2922  -3.2750  -3.2750  -3.2227  -3.2177  -3.2177
    -3.1798  -3.1481  -3.1476  -3.1396  -3.1396  -3.1258  -3.1257  -3.1180
    -3.1179  -3.1083  -3.0676  -3.0298  -3.0296  -3.0149  -3.0147  -2.9889
    -2.9790  -2.9790  -2.9577  -2.9131  -2.9130  -2.9034  -2.8640  -2.8579
    -2.8464  -2.8463  -2.8168  -2.8164  -2.7877  -2.7496  -2.7496  -2.7272
    -2.7203  -2.7062  -2.7059  -2.6554  -2.6553  -2.6463  -2.6226  -2.5999
    -2.5998  -2.5755  -2.5752  -2.5643  -2.5642  -2.5534  -2.5302  -2.5301
    -2.4860  -2.4858  -2.4844  -2.4673  -2.4672  -2.4625  -2.4528  -2.4508
    -2.4496  -2.4493  -2.4444  -2.4310  -2.4308  -2.4213  -2.3947  -2.3946
    -2.3931  -2.3922  -2.3918  -2.3891  -2.3887  -2.3605  -2.3575  -2.3435
    -2.3435  -2.3258  -2.3258  -2.3156  -2.3155  -2.3139  -2.3135  -2.2939
    -2.2934  -2.2920  -2.2913  -2.2747  -2.2481  -2.2480  -2.2084  -2.2082
    -2.1823  -2.1821  -2.1549  -2.1549  -2.1270  -2.1269  -2.1090  -2.1052
    -2.0782  -2.0558  -2.0556  -2.0502  -2.0502  -2.0457  -2.0386  -2.0382
    -2.0125  -2.0062  -1.9960  -1.9386  -1.9351  -1.9345  -1.9320  -1.9318
    -1.8942  -1.8761  -1.8760  -1.8479  -1.8478  -1.7873  -1.7871  -1.7584
    -1.7399  -1.7399  -1.6786  -1.6785  -1.6668  -1.6664  -1.6556  -1.6552
    -1.6524  -1.6423  -1.6419  -1.5865  -1.5862  -1.5740  -1.5738  -1.5736
    -1.5541  -1.5534  -1.5183  -1.5181  -1.5008  -1.5007  -1.5007  -1.4943
    -1.4891  -1.4793  -1.4787  -1.4603  -1.4603  -1.4186  -1.4181  -1.4059
    -1.4053  -1.3856  -1.3722  -1.3286  -1.3282  -1.3026  -1.2976  -1.2974
    -1.2684  -1.2167  -1.2164  -1.2153  -1.2150  -1.2094  -1.2090  -1.1986
    -1.1802  -1.1798  -1.1401  -1.1397  -1.1090  -1.1090  -1.1041  -1.1040
    -1.0956  -1.0795  -1.0793  -1.0786  -1.0754  -1.0753  -1.0383  -1.0370
    -1.0359  -1.0356  -1.0039  -1.0038  -1.0008  -0.9768  -0.9685  -0.9681
    -0.9218  -0.9146  -0.9139  -0.8793  -0.8713  -0.8600  -0.8600  -0.8520
    -0.8517  -0.8507  -0.8503  -0.8386  -0.8386  -0.8125  -0.8125  -0.8096
    -0.8071  -0.8071  -0.7700  -0.7699  -0.7592  -0.7590  -0.7435  -0.7360
    -0.7355  -0.7240  -0.6681  -0.6663  -0.6570  -0.6569  -0.6559  -0.6556
    -0.6505  -0.6309  -0.6304  -0.6254  -0.6219  -0.6217  -0.6198  -0.6196
    -0.5804  -0.5778  -0.5775  -0.5694  -0.5690  -0.5639  -0.5622  -0.5528
    -0.5464  -0.5426  -0.5425  -0.5001  -0.5000  -0.4915  -0.4881  -0.4879
    -0.4104  -0.4100  -0.4077  -0.4076  -0.3983  -0.3982  -0.3617  -0.3488
    -0.3488  -0.3211  -0.3195  -0.3166  -0.1953  -0.1944  -0.0927   0.3226
     0.3227   0.3258   0.3258   0.3865   0.3870   0.7758   0.7762   0.8189
     0.8190   0.9262   1.0071   1.1176   1.1197   1.3379   1.3418   1.9731
     1.9734   2.1354   2.1359   2.2666   2.2674   2.3713   2.3714   2.5255
     2.7629   2.7677   2.8858   3.1103   3.1131   3.1956   3.1958   3.2957
     3.3106   3.4992   3.5130   3.5672   3.7677   3.7680   3.8306   3.8314
     4.0879   4.0953   4.0962   4.3384   4.3809   4.3810   4.4258   4.7619
     4.7632   4.7919   4.9268   5.0860   5.0990   5.1005   5.1637   5.2568
     5.7101   5.8863   5.8904   5.8932   5.8954   5.9619   5.9624   5.9996
     6.0506   6.0730   6.0972   6.1246   6.1251   6.1398   6.1513   6.1851
     6.1856   6.3338   6.5397   6.5952   6.7018   6.7240   6.8329   6.8350
     6.8431   6.8969   7.0621

          k =-0.2500 0.4330-0.1111 (136853 PWs)   bands (ev):

   -18.6240  -6.4396  -6.3922  -5.9943  -5.9914  -5.3145  -4.9819  -4.9809
    -4.9432  -4.9401  -4.5817  -4.5804  -4.4826  -4.4823  -4.4683  -4.4464
    -4.4202  -4.3154  -4.3145  -4.2908  -4.2474  -4.2472  -4.1783  -4.1781
    -4.1711  -4.1707  -4.1500  -4.1453  -4.1425  -4.0722  -4.0693  -4.0424
    -4.0408  -4.0297  -4.0293  -4.0063  -4.0062  -3.9838  -3.9754  -3.9751
    -3.9485  -3.8965  -3.8960  -3.8493  -3.8474  -3.7884  -3.7883  -3.7344
    -3.7343  -3.7336  -3.7330  -3.6986  -3.6586  -3.6585  -3.6527  -3.6515
    -3.6513  -3.6204  -3.6198  -3.6117  -3.5498  -3.5495  -3.5399  -3.5240
    -3.5169  -3.4448  -3.4439  -3.4105  -3.4102  -3.3830  -3.3822  -3.3697
    -3.3530  -3.2926  -3.2923  -3.2753  -3.2744  -3.2227  -3.2178  -3.2176
    -3.1797  -3.1483  -3.1475  -3.1403  -3.1389  -3.1259  -3.1256  -3.1180
    -3.1177  -3.1084  -3.0675  -3.0305  -3.0290  -3.0149  -3.0146  -2.9890
    -2.9795  -2.9786  -2.9577  -2.9139  -2.9122  -2.9037  -2.8638  -2.8579
    -2.8469  -2.8456  -2.8170  -2.8165  -2.7878  -2.7496  -2.7492  -2.7273
    -2.7204  -2.7062  -2.7059  -2.6557  -2.6550  -2.6463  -2.6225  -2.6001
    -2.5999  -2.5757  -2.5753  -2.5645  -2.5637  -2.5535  -2.5307  -2.5298
    -2.4860  -2.4853  -2.4845  -2.4679  -2.4666  -2.4626  -2.4527  -2.4508
    -2.4499  -2.4491  -2.4443  -2.4314  -2.4301  -2.4213  -2.3948  -2.3943
    -2.3929  -2.3923  -2.3918  -2.3891  -2.3884  -2.3608  -2.3575  -2.3436
    -2.3434  -2.3262  -2.3255  -2.3155  -2.3153  -2.3144  -2.3133  -2.2944
    -2.2932  -2.2922  -2.2910  -2.2747  -2.2486  -2.2479  -2.2092  -2.2075
    -2.1828  -2.1817  -2.1548  -2.1545  -2.1271  -2.1266  -2.1091  -2.1051
    -2.0780  -2.0557  -2.0555  -2.0505  -2.0499  -2.0458  -2.0389  -2.0381
    -2.0124  -2.0058  -1.9960  -1.9387  -1.9353  -1.9348  -1.9323  -1.9317
    -1.8942  -1.8770  -1.8750  -1.8479  -1.8478  -1.7878  -1.7864  -1.7587
    -1.7401  -1.7396  -1.6790  -1.6781  -1.6670  -1.6661  -1.6557  -1.6551
    -1.6525  -1.6427  -1.6416  -1.5864  -1.5861  -1.5741  -1.5740  -1.5738
    -1.5539  -1.5533  -1.5184  -1.5181  -1.5012  -1.5008  -1.5003  -1.4941
    -1.4891  -1.4794  -1.4787  -1.4606  -1.4598  -1.4185  -1.4180  -1.4056
    -1.4053  -1.3854  -1.3722  -1.3291  -1.3278  -1.3028  -1.2977  -1.2974
    -1.2686  -1.2169  -1.2165  -1.2155  -1.2149  -1.2098  -1.2090  -1.1986
    -1.1804  -1.1793  -1.1403  -1.1394  -1.1092  -1.1089  -1.1044  -1.1038
    -1.0955  -1.0798  -1.0793  -1.0784  -1.0753  -1.0750  -1.0384  -1.0372
    -1.0359  -1.0355  -1.0041  -1.0038  -1.0004  -0.9771  -0.9687  -0.9676
    -0.9219  -0.9146  -0.9138  -0.8794  -0.8711  -0.8602  -0.8598  -0.8518
    -0.8517  -0.8507  -0.8504  -0.8387  -0.8386  -0.8128  -0.8122  -0.8097
    -0.8072  -0.8072  -0.7699  -0.7698  -0.7593  -0.7590  -0.7436  -0.7361
    -0.7356  -0.7238  -0.6681  -0.6661  -0.6571  -0.6568  -0.6560  -0.6555
    -0.6504  -0.6310  -0.6305  -0.6253  -0.6219  -0.6217  -0.6197  -0.6195
    -0.5805  -0.5778  -0.5775  -0.5695  -0.5689  -0.5640  -0.5621  -0.5526
    -0.5464  -0.5430  -0.5422  -0.5004  -0.4998  -0.4917  -0.4881  -0.4879
    -0.4105  -0.4100  -0.4077  -0.4075  -0.3984  -0.3982  -0.3616  -0.3490
    -0.3486  -0.3215  -0.3192  -0.3166  -0.1953  -0.1943  -0.0927   0.3226
     0.3228   0.3255   0.3260   0.3865   0.3868   0.7759   0.7762   0.8187
     0.8190   0.9261   1.0071   1.1173   1.1201   1.3374   1.3423   1.9728
     1.9734   2.1351   2.1363   2.2664   2.2677   2.3709   2.3717   2.5253
     2.7632   2.7677   2.8857   3.1098   3.1136   3.1952   3.1962   3.2955
     3.3107   3.4983   3.5138   3.5675   3.7673   3.7685   3.8304   3.8315
     4.0876   4.0954   4.0961   4.3390   4.3805   4.3812   4.4256   4.7616
     4.7634   4.7913   4.9265   5.0858   5.0989   5.1010   5.1636   5.2567
     5.7102   5.8865   5.8904   5.8933   5.8955   5.9619   5.9623   5.9995
     6.0508   6.0726   6.0972   6.1239   6.1258   6.1398   6.1516   6.1852
     6.1860   6.3345   6.5392   6.5947   6.7022   6.7241   6.8316   6.8363
     6.8428   6.8964   7.0630

          k = 0.2500-0.4330-0.1111 (136853 PWs)   bands (ev):

   -18.6240  -6.4396  -6.3922  -5.9943  -5.9914  -5.3145  -4.9819  -4.9809
    -4.9432  -4.9401  -4.5817  -4.5804  -4.4826  -4.4823  -4.4683  -4.4464
    -4.4202  -4.3154  -4.3145  -4.2908  -4.2474  -4.2472  -4.1783  -4.1781
    -4.1711  -4.1707  -4.1500  -4.1453  -4.1425  -4.0722  -4.0693  -4.0424
    -4.0408  -4.0297  -4.0293  -4.0063  -4.0062  -3.9838  -3.9754  -3.9751
    -3.9485  -3.8965  -3.8960  -3.8493  -3.8474  -3.7884  -3.7883  -3.7344
    -3.7343  -3.7336  -3.7330  -3.6986  -3.6586  -3.6585  -3.6527  -3.6515
    -3.6513  -3.6204  -3.6198  -3.6117  -3.5498  -3.5495  -3.5399  -3.5240
    -3.5169  -3.4448  -3.4439  -3.4105  -3.4102  -3.3830  -3.3822  -3.3697
    -3.3530  -3.2926  -3.2923  -3.2753  -3.2744  -3.2227  -3.2178  -3.2176
    -3.1797  -3.1483  -3.1475  -3.1403  -3.1389  -3.1259  -3.1256  -3.1180
    -3.1177  -3.1084  -3.0675  -3.0305  -3.0290  -3.0149  -3.0146  -2.9890
    -2.9795  -2.9786  -2.9577  -2.9139  -2.9122  -2.9037  -2.8638  -2.8579
    -2.8469  -2.8456  -2.8170  -2.8165  -2.7878  -2.7496  -2.7492  -2.7273
    -2.7204  -2.7062  -2.7059  -2.6557  -2.6550  -2.6463  -2.6225  -2.6001
    -2.5999  -2.5757  -2.5753  -2.5645  -2.5637  -2.5535  -2.5307  -2.5298
    -2.4860  -2.4853  -2.4845  -2.4679  -2.4666  -2.4626  -2.4527  -2.4508
    -2.4499  -2.4491  -2.4443  -2.4314  -2.4301  -2.4213  -2.3948  -2.3943
    -2.3929  -2.3923  -2.3918  -2.3891  -2.3884  -2.3608  -2.3575  -2.3435
    -2.3434  -2.3262  -2.3255  -2.3155  -2.3153  -2.3144  -2.3133  -2.2944
    -2.2932  -2.2922  -2.2910  -2.2747  -2.2486  -2.2479  -2.2092  -2.2075
    -2.1828  -2.1817  -2.1548  -2.1545  -2.1271  -2.1266  -2.1091  -2.1051
    -2.0780  -2.0557  -2.0555  -2.0505  -2.0499  -2.0458  -2.0389  -2.0381
    -2.0124  -2.0058  -1.9960  -1.9387  -1.9353  -1.9348  -1.9323  -1.9317
    -1.8942  -1.8770  -1.8750  -1.8479  -1.8478  -1.7878  -1.7864  -1.7587
    -1.7401  -1.7395  -1.6790  -1.6781  -1.6670  -1.6661  -1.6557  -1.6551
    -1.6525  -1.6427  -1.6416  -1.5864  -1.5861  -1.5741  -1.5740  -1.5738
    -1.5539  -1.5533  -1.5184  -1.5181  -1.5012  -1.5008  -1.5003  -1.4941
    -1.4891  -1.4794  -1.4787  -1.4606  -1.4598  -1.4185  -1.4180  -1.4056
    -1.4053  -1.3854  -1.3722  -1.3291  -1.3278  -1.3028  -1.2977  -1.2974
    -1.2686  -1.2169  -1.2165  -1.2155  -1.2149  -1.2098  -1.2090  -1.1986
    -1.1804  -1.1793  -1.1403  -1.1394  -1.1092  -1.1089  -1.1044  -1.1038
    -1.0955  -1.0798  -1.0793  -1.0784  -1.0753  -1.0750  -1.0384  -1.0372
    -1.0359  -1.0355  -1.0041  -1.0038  -1.0004  -0.9771  -0.9687  -0.9676
    -0.9219  -0.9146  -0.9138  -0.8794  -0.8711  -0.8602  -0.8598  -0.8518
    -0.8517  -0.8507  -0.8504  -0.8387  -0.8386  -0.8128  -0.8122  -0.8097
    -0.8072  -0.8072  -0.7699  -0.7698  -0.7592  -0.7590  -0.7436  -0.7361
    -0.7356  -0.7238  -0.6681  -0.6661  -0.6571  -0.6568  -0.6560  -0.6555
    -0.6504  -0.6310  -0.6305  -0.6253  -0.6219  -0.6217  -0.6197  -0.6195
    -0.5805  -0.5778  -0.5775  -0.5695  -0.5689  -0.5640  -0.5621  -0.5526
    -0.5464  -0.5430  -0.5422  -0.5004  -0.4998  -0.4917  -0.4881  -0.4879
    -0.4105  -0.4100  -0.4077  -0.4075  -0.3984  -0.3982  -0.3616  -0.3490
    -0.3486  -0.3215  -0.3192  -0.3166  -0.1953  -0.1943  -0.0927   0.3226
     0.3228   0.3255   0.3260   0.3865   0.3868   0.7759   0.7762   0.8187
     0.8190   0.9261   1.0071   1.1173   1.1201   1.3374   1.3423   1.9728
     1.9734   2.1351   2.1363   2.2664   2.2677   2.3709   2.3717   2.5253
     2.7632   2.7677   2.8857   3.1098   3.1136   3.1952   3.1962   3.2955
     3.3107   3.4983   3.5138   3.5675   3.7673   3.7685   3.8304   3.8315
     4.0876   4.0954   4.0961   4.3390   4.3805   4.3812   4.4256   4.7616
     4.7634   4.7913   4.9265   5.0859   5.0989   5.1010   5.1636   5.2567
     5.7095   5.8865   5.8904   5.8933   5.8955   5.9619   5.9623   6.0004
     6.0507   6.0726   6.0972   6.1239   6.1258   6.1398   6.1516   6.1852
     6.1860   6.3403   6.5380   6.5778   6.7087   6.7249   6.8317   6.8363
     6.8428   6.8994   7.0632

          k = 0.5000 0.0000 0.1111 (136853 PWs)   bands (ev):

   -18.6240  -6.4396  -6.3922  -5.9943  -5.9914  -5.3145  -4.9823  -4.9806
    -4.9432  -4.9401  -4.5818  -4.5804  -4.4826  -4.4824  -4.4682  -4.4463
    -4.4202  -4.3154  -4.3145  -4.2908  -4.2474  -4.2472  -4.1784  -4.1779
    -4.1715  -4.1704  -4.1500  -4.1454  -4.1423  -4.0723  -4.0692  -4.0425
    -4.0407  -4.0297  -4.0293  -4.0063  -4.0062  -3.9838  -3.9754  -3.9751
    -3.9485  -3.8965  -3.8961  -3.8493  -3.8473  -3.7884  -3.7882  -3.7345
    -3.7344  -3.7335  -3.7330  -3.6986  -3.6586  -3.6585  -3.6527  -3.6518
    -3.6511  -3.6206  -3.6196  -3.6117  -3.5497  -3.5496  -3.5399  -3.5241
    -3.5169  -3.4447  -3.4440  -3.4105  -3.4102  -3.3830  -3.3822  -3.3697
    -3.3530  -3.2927  -3.2921  -3.2752  -3.2745  -3.2227  -3.2178  -3.2176
    -3.1796  -3.1484  -3.1474  -3.1402  -3.1390  -3.1258  -3.1256  -3.1181
    -3.1177  -3.1084  -3.0675  -3.0305  -3.0291  -3.0149  -3.0146  -2.9890
    -2.9791  -2.9790  -2.9577  -2.9138  -2.9123  -2.9037  -2.8639  -2.8579
    -2.8469  -2.8456  -2.8169  -2.8167  -2.7878  -2.7496  -2.7492  -2.7273
    -2.7204  -2.7062  -2.7060  -2.6557  -2.6550  -2.6463  -2.6225  -2.6002
    -2.5999  -2.5756  -2.5753  -2.5644  -2.5638  -2.5535  -2.5306  -2.5298
    -2.4861  -2.4852  -2.4845  -2.4679  -2.4666  -2.4625  -2.4526  -2.4508
    -2.4498  -2.4492  -2.4444  -2.4314  -2.4301  -2.4213  -2.3947  -2.3944
    -2.3928  -2.3923  -2.3919  -2.3892  -2.3883  -2.3608  -2.3575  -2.3436
    -2.3434  -2.3261  -2.3256  -2.3155  -2.3154  -2.3144  -2.3132  -2.2942
    -2.2934  -2.2922  -2.2910  -2.2746  -2.2485  -2.2481  -2.2092  -2.2074
    -2.1829  -2.1817  -2.1548  -2.1545  -2.1271  -2.1266  -2.1091  -2.1051
    -2.0781  -2.0557  -2.0555  -2.0505  -2.0500  -2.0458  -2.0389  -2.0381
    -2.0125  -2.0058  -1.9959  -1.9386  -1.9355  -1.9346  -1.9324  -1.9316
    -1.8942  -1.8769  -1.8752  -1.8481  -1.8477  -1.7878  -1.7864  -1.7587
    -1.7400  -1.7396  -1.6789  -1.6782  -1.6668  -1.6663  -1.6555  -1.6553
    -1.6525  -1.6424  -1.6420  -1.5866  -1.5859  -1.5742  -1.5740  -1.5737
    -1.5540  -1.5533  -1.5184  -1.5180  -1.5012  -1.5008  -1.5004  -1.4941
    -1.4891  -1.4793  -1.4788  -1.4606  -1.4598  -1.4186  -1.4179  -1.4058
    -1.4052  -1.3854  -1.3722  -1.3289  -1.3280  -1.3028  -1.2978  -1.2973
    -1.2685  -1.2168  -1.2166  -1.2154  -1.2150  -1.2095  -1.2091  -1.1986
    -1.1804  -1.1794  -1.1403  -1.1394  -1.1091  -1.1090  -1.1044  -1.1037
    -1.0955  -1.0799  -1.0791  -1.0784  -1.0753  -1.0750  -1.0385  -1.0369
    -1.0359  -1.0355  -1.0041  -1.0037  -1.0005  -0.9771  -0.9686  -0.9677
    -0.9219  -0.9146  -0.9138  -0.8794  -0.8711  -0.8603  -0.8597  -0.8520
    -0.8516  -0.8509  -0.8503  -0.8388  -0.8385  -0.8129  -0.8122  -0.8097
    -0.8075  -0.8069  -0.7701  -0.7697  -0.7592  -0.7590  -0.7436  -0.7361
    -0.7355  -0.7239  -0.6680  -0.6662  -0.6571  -0.6569  -0.6558  -0.6556
    -0.6505  -0.6308  -0.6306  -0.6253  -0.6219  -0.6218  -0.6197  -0.6195
    -0.5805  -0.5778  -0.5775  -0.5693  -0.5691  -0.5640  -0.5622  -0.5526
    -0.5464  -0.5428  -0.5425  -0.5002  -0.4999  -0.4917  -0.4882  -0.4879
    -0.4104  -0.4101  -0.4076  -0.4075  -0.3983  -0.3982  -0.3616  -0.3489
    -0.3486  -0.3213  -0.3194  -0.3166  -0.1953  -0.1943  -0.0927   0.3226
     0.3228   0.3254   0.3261   0.3864   0.3869   0.7756   0.7765   0.8184
     0.8193   0.9262   1.0071   1.1175   1.1200   1.3375   1.3422   1.9726
     1.9736   2.1352   2.1362   2.2667   2.2674   2.3706   2.3721   2.5253
     2.7631   2.7677   2.8857   3.1100   3.1135   3.1948   3.1966   3.2955
     3.3107   3.4984   3.5138   3.5674   3.7674   3.7684   3.8306   3.8314
     4.0876   4.0952   4.0963   4.3389   4.3803   4.3815   4.4256   4.7617
     4.7634   4.7913   4.9268   5.0874   5.0989   5.1011   5.1629   5.2544
     5.7105   5.8865   5.8904   5.8936   5.8954   5.9617   5.9625   5.9991
     6.0513   6.0728   6.0972   6.1242   6.1253   6.1402   6.1518   6.1853
     6.1860   6.3395   6.5360   6.5870   6.7073   6.7239   6.8324   6.8356
     6.8428   6.8967   7.0650

          k =-0.5000 0.0000 0.1111 (136853 PWs)   bands (ev):

   -18.6240  -6.4396  -6.3922  -5.9943  -5.9914  -5.3145  -4.9823  -4.9806
    -4.9432  -4.9401  -4.5818  -4.5804  -4.4826  -4.4824  -4.4682  -4.4463
    -4.4202  -4.3154  -4.3145  -4.2908  -4.2474  -4.2472  -4.1784  -4.1779
    -4.1715  -4.1704  -4.1500  -4.1454  -4.1423  -4.0723  -4.0692  -4.0425
    -4.0407  -4.0297  -4.0293  -4.0063  -4.0062  -3.9838  -3.9754  -3.9751
    -3.9485  -3.8965  -3.8961  -3.8493  -3.8473  -3.7884  -3.7882  -3.7345
    -3.7344  -3.7335  -3.7330  -3.6986  -3.6586  -3.6585  -3.6527  -3.6518
    -3.6511  -3.6206  -3.6196  -3.6117  -3.5497  -3.5496  -3.5399  -3.5241
    -3.5169  -3.4447  -3.4440  -3.4105  -3.4102  -3.3830  -3.3822  -3.3697
    -3.3530  -3.2927  -3.2921  -3.2752  -3.2745  -3.2227  -3.2178  -3.2176
    -3.1796  -3.1484  -3.1474  -3.1402  -3.1390  -3.1258  -3.1256  -3.1181
    -3.1177  -3.1084  -3.0675  -3.0305  -3.0291  -3.0149  -3.0146  -2.9890
    -2.9791  -2.9790  -2.9577  -2.9138  -2.9123  -2.9037  -2.8639  -2.8579
    -2.8469  -2.8456  -2.8169  -2.8167  -2.7878  -2.7496  -2.7492  -2.7273
    -2.7204  -2.7062  -2.7060  -2.6557  -2.6550  -2.6463  -2.6225  -2.6002
    -2.5999  -2.5756  -2.5753  -2.5644  -2.5638  -2.5535  -2.5306  -2.5298
    -2.4861  -2.4852  -2.4845  -2.4679  -2.4666  -2.4625  -2.4526  -2.4508
    -2.4498  -2.4492  -2.4444  -2.4314  -2.4301  -2.4213  -2.3947  -2.3944
    -2.3928  -2.3923  -2.3919  -2.3892  -2.3883  -2.3608  -2.3575  -2.3436
    -2.3434  -2.3261  -2.3256  -2.3155  -2.3154  -2.3144  -2.3132  -2.2942
    -2.2934  -2.2922  -2.2910  -2.2746  -2.2485  -2.2481  -2.2092  -2.2074
    -2.1829  -2.1817  -2.1548  -2.1545  -2.1271  -2.1266  -2.1091  -2.1051
    -2.0781  -2.0557  -2.0555  -2.0505  -2.0500  -2.0458  -2.0389  -2.0381
    -2.0125  -2.0058  -1.9959  -1.9386  -1.9355  -1.9346  -1.9324  -1.9316
    -1.8942  -1.8769  -1.8752  -1.8481  -1.8477  -1.7878  -1.7864  -1.7587
    -1.7400  -1.7396  -1.6789  -1.6782  -1.6668  -1.6663  -1.6555  -1.6553
    -1.6525  -1.6424  -1.6420  -1.5866  -1.5859  -1.5742  -1.5740  -1.5737
    -1.5540  -1.5533  -1.5184  -1.5180  -1.5012  -1.5008  -1.5004  -1.4941
    -1.4891  -1.4793  -1.4788  -1.4606  -1.4598  -1.4186  -1.4179  -1.4058
    -1.4052  -1.3854  -1.3722  -1.3289  -1.3280  -1.3028  -1.2978  -1.2973
    -1.2685  -1.2168  -1.2166  -1.2154  -1.2150  -1.2095  -1.2091  -1.1986
    -1.1804  -1.1794  -1.1403  -1.1394  -1.1091  -1.1090  -1.1044  -1.1037
    -1.0955  -1.0799  -1.0791  -1.0784  -1.0753  -1.0750  -1.0385  -1.0369
    -1.0359  -1.0355  -1.0041  -1.0037  -1.0005  -0.9771  -0.9686  -0.9677
    -0.9219  -0.9146  -0.9138  -0.8794  -0.8711  -0.8603  -0.8597  -0.8520
    -0.8516  -0.8509  -0.8503  -0.8388  -0.8385  -0.8129  -0.8122  -0.8097
    -0.8075  -0.8069  -0.7701  -0.7697  -0.7592  -0.7590  -0.7436  -0.7361
    -0.7355  -0.7239  -0.6680  -0.6662  -0.6571  -0.6569  -0.6558  -0.6556
    -0.6505  -0.6308  -0.6306  -0.6253  -0.6219  -0.6218  -0.6197  -0.6195
    -0.5805  -0.5778  -0.5775  -0.5693  -0.5691  -0.5640  -0.5622  -0.5526
    -0.5464  -0.5428  -0.5425  -0.5002  -0.4999  -0.4917  -0.4882  -0.4879
    -0.4104  -0.4101  -0.4076  -0.4075  -0.3983  -0.3982  -0.3616  -0.3489
    -0.3486  -0.3213  -0.3194  -0.3166  -0.1953  -0.1943  -0.0927   0.3226
     0.3228   0.3254   0.3261   0.3864   0.3869   0.7756   0.7765   0.8184
     0.8193   0.9262   1.0071   1.1175   1.1200   1.3375   1.3422   1.9726
     1.9736   2.1352   2.1362   2.2667   2.2674   2.3706   2.3721   2.5253
     2.7631   2.7677   2.8857   3.1100   3.1135   3.1948   3.1966   3.2955
     3.3107   3.4984   3.5138   3.5674   3.7674   3.7684   3.8306   3.8314
     4.0876   4.0952   4.0963   4.3389   4.3803   4.3815   4.4256   4.7617
     4.7634   4.7913   4.9268   5.0874   5.0989   5.1011   5.1629   5.2544
     5.7106   5.8865   5.8904   5.8936   5.8954   5.9617   5.9625   5.9990
     6.0513   6.0728   6.0972   6.1242   6.1253   6.1401   6.1518   6.1853
     6.1860   6.3388   6.5365   6.5885   6.7066   6.7236   6.8324   6.8356
     6.8428   6.8965   7.0649

          k =-0.2500 0.1443 0.1111 (136898 PWs)   bands (ev):

   -18.6240  -6.6022  -6.4396  -5.8101  -5.5184  -5.4598  -5.4598  -4.9214
    -4.9213  -4.7894  -4.7890  -4.6338  -4.6029  -4.5418  -4.5076  -4.5075
    -4.4748  -4.4747  -4.3462  -4.3044  -4.3044  -4.2443  -4.2230  -4.2229
    -4.1209  -4.1209  -4.0847  -4.0845  -4.0845  -4.0572  -4.0359  -4.0359
    -3.9300  -3.9287  -3.9286  -3.9078  -3.8910  -3.8909  -3.8785  -3.8785
    -3.8649  -3.8351  -3.8350  -3.8349  -3.8349  -3.8017  -3.8017  -3.7844
    -3.7844  -3.7694  -3.7258  -3.7258  -3.6960  -3.6804  -3.6803  -3.6762
    -3.6762  -3.6015  -3.6015  -3.5658  -3.5634  -3.5633  -3.4960  -3.4960
    -3.4804  -3.4803  -3.4492  -3.4490  -3.4481  -3.4479  -3.2947  -3.2946
    -3.2688  -3.2688  -3.2636  -3.2478  -3.2477  -3.2216  -3.2216  -3.1718
    -3.1718  -3.1555  -3.1554  -3.1352  -3.0863  -3.0862  -3.0667  -3.0617
    -3.0617  -3.0207  -3.0207  -3.0144  -3.0144  -2.9975  -2.9974  -2.9580
    -2.9580  -2.9361  -2.9361  -2.9331  -2.9329  -2.9299  -2.8524  -2.8524
    -2.8511  -2.8223  -2.8222  -2.7600  -2.7600  -2.7320  -2.7305  -2.7175
    -2.7174  -2.7121  -2.6824  -2.6824  -2.6729  -2.6551  -2.6464  -2.6292
    -2.6292  -2.6290  -2.6082  -2.6082  -2.5968  -2.5967  -2.5933  -2.5931
    -2.5855  -2.5395  -2.5066  -2.5065  -2.4912  -2.4770  -2.4704  -2.4703
    -2.4630  -2.4629  -2.4615  -2.4315  -2.4313  -2.4311  -2.4214  -2.4214
    -2.4039  -2.3765  -2.3758  -2.3756  -2.3749  -2.3747  -2.3296  -2.2979
    -2.2976  -2.2976  -2.2904  -2.2821  -2.2687  -2.2686  -2.2521  -2.2521
    -2.2183  -2.2168  -2.2167  -2.1979  -2.1962  -2.1962  -2.1633  -2.1632
    -2.1224  -2.1219  -2.1144  -2.1124  -2.1123  -2.1056  -2.1055  -2.1033
    -2.1031  -2.0959  -2.0956  -2.0790  -2.0789  -1.9516  -1.9514  -1.9191
    -1.9130  -1.9127  -1.9079  -1.9079  -1.8896  -1.8895  -1.8865  -1.8864
    -1.8848  -1.8622  -1.8536  -1.8533  -1.8502  -1.8416  -1.8415  -1.8186
    -1.8185  -1.7899  -1.7899  -1.7573  -1.7572  -1.7473  -1.7391  -1.7214
    -1.7213  -1.7184  -1.6999  -1.6877  -1.6876  -1.6800  -1.6800  -1.6532
    -1.6531  -1.6357  -1.6357  -1.6039  -1.6037  -1.5934  -1.5428  -1.5427
    -1.5302  -1.5299  -1.5292  -1.5047  -1.5022  -1.4683  -1.4676  -1.4674
    -1.4338  -1.4236  -1.4234  -1.4080  -1.4079  -1.3811  -1.3795  -1.3794
    -1.3499  -1.3470  -1.3470  -1.2843  -1.2841  -1.2707  -1.2705  -1.2543
    -1.2543  -1.2417  -1.2416  -1.2237  -1.2110  -1.1830  -1.1829  -1.1716
    -1.1437  -1.1331  -1.1330  -1.1215  -1.1215  -1.1190  -1.1136  -1.1134
    -1.1007  -1.0692  -1.0691  -1.0580  -1.0574  -1.0567  -1.0565  -1.0325
    -1.0139  -1.0135  -0.9928  -0.9925  -0.8998  -0.8863  -0.8807  -0.8807
    -0.8771  -0.8713  -0.8713  -0.8507  -0.8455  -0.8302  -0.8300  -0.8156
    -0.8155  -0.8061  -0.7857  -0.7856  -0.7840  -0.7758  -0.7040  -0.7039
    -0.6696  -0.6692  -0.6655  -0.6581  -0.6578  -0.6571  -0.6571  -0.6436
    -0.6436  -0.6284  -0.6250  -0.6029  -0.5882  -0.5681  -0.5679  -0.5566
    -0.5565  -0.5436  -0.5436  -0.5425  -0.5412  -0.5411  -0.5234  -0.5191
    -0.5190  -0.4884  -0.4868  -0.4867  -0.4747  -0.4747  -0.4553  -0.4231
    -0.4231  -0.4138  -0.4138  -0.3456  -0.3455  -0.3078  -0.3077  -0.2498
    -0.2484  -0.2483  -0.2385  -0.2200   0.0032   0.0039   0.3509   0.3509
     0.4421   0.4430   0.6361   0.6485   0.6686   0.7996   0.7998   1.2311
     1.2311   1.2497   1.5069   1.5412   1.5412   1.8178   1.8194   1.8978
     1.8978   1.9250   1.9258   2.1543   2.1543   2.2423   2.2423   2.3141
     2.3810   2.3822   2.5463   2.6434   3.0851   3.0853   3.0882   3.0886
     3.1435   3.1435   3.4354   3.4355   3.7169   3.7184   3.8188   4.1311
     4.1744   4.1752   4.3845   4.3990   4.4753   4.4757   4.5665   4.6845
     4.6850   4.8016   4.8020   5.1064   5.1232   5.1764   5.1781   5.3477
     5.3626   5.5633   5.5638   5.5894   5.5896   5.6529   5.6537   5.6669
     5.7113   6.0172   6.2313   6.2615   6.2809   6.3689   6.3961   6.3963
     6.4091   6.4099   6.5895   6.6502   6.6514   6.7897   6.8513   6.8759
     6.8832   6.9103   7.0251

          k =-0.2500-0.1443-0.1111 (136898 PWs)   bands (ev):

   -18.6240  -6.6022  -6.4396  -5.8101  -5.5184  -5.4598  -5.4597  -4.9214
    -4.9213  -4.7897  -4.7887  -4.6338  -4.6029  -4.5419  -4.5076  -4.5075
    -4.4748  -4.4746  -4.3462  -4.3046  -4.3043  -4.2441  -4.2231  -4.2229
    -4.1208  -4.1208  -4.0848  -4.0845  -4.0844  -4.0572  -4.0361  -4.0357
    -3.9300  -3.9289  -3.9286  -3.9077  -3.8911  -3.8909  -3.8786  -3.8785
    -3.8648  -3.8351  -3.8350  -3.8349  -3.8347  -3.8019  -3.8016  -3.7844
    -3.7843  -3.7693  -3.7260  -3.7257  -3.6961  -3.6804  -3.6803  -3.6763
    -3.6761  -3.6016  -3.6014  -3.5657  -3.5634  -3.5632  -3.4962  -3.4961
    -3.4803  -3.4803  -3.4490  -3.4488  -3.4485  -3.4483  -3.2948  -3.2947
    -3.2688  -3.2687  -3.2636  -3.2478  -3.2477  -3.2216  -3.2213  -3.1719
    -3.1718  -3.1555  -3.1554  -3.1351  -3.0863  -3.0861  -3.0668  -3.0619
    -3.0618  -3.0208  -3.0207  -3.0145  -3.0144  -2.9976  -2.9974  -2.9578
    -2.9577  -2.9362  -2.9360  -2.9330  -2.9329  -2.9299  -2.8525  -2.8523
    -2.8513  -2.8223  -2.8222  -2.7601  -2.7597  -2.7319  -2.7306  -2.7173
    -2.7172  -2.7122  -2.6825  -2.6821  -2.6730  -2.6550  -2.6464  -2.6294
    -2.6293  -2.6291  -2.6082  -2.6082  -2.5972  -2.5969  -2.5931  -2.5930
    -2.5855  -2.5394  -2.5067  -2.5066  -2.4911  -2.4771  -2.4704  -2.4703
    -2.4631  -2.4629  -2.4617  -2.4315  -2.4314  -2.4310  -2.4215  -2.4212
    -2.4037  -2.3767  -2.3762  -2.3754  -2.3747  -2.3745  -2.3298  -2.2981
    -2.2977  -2.2975  -2.2903  -2.2822  -2.2687  -2.2683  -2.2520  -2.2520
    -2.2183  -2.2168  -2.2166  -2.1980  -2.1963  -2.1962  -2.1633  -2.1632
    -2.1226  -2.1217  -2.1142  -2.1124  -2.1122  -2.1057  -2.1056  -2.1038
    -2.1030  -2.0958  -2.0955  -2.0791  -2.0790  -1.9516  -1.9514  -1.9191
    -1.9129  -1.9127  -1.9077  -1.9077  -1.8903  -1.8899  -1.8865  -1.8863
    -1.8843  -1.8622  -1.8535  -1.8532  -1.8503  -1.8415  -1.8411  -1.8188
    -1.8187  -1.7903  -1.7896  -1.7573  -1.7572  -1.7472  -1.7390  -1.7214
    -1.7212  -1.7181  -1.6999  -1.6878  -1.6877  -1.6802  -1.6801  -1.6530
    -1.6529  -1.6360  -1.6354  -1.6041  -1.6038  -1.5934  -1.5431  -1.5424
    -1.5301  -1.5298  -1.5296  -1.5049  -1.5019  -1.4682  -1.4675  -1.4672
    -1.4339  -1.4235  -1.4233  -1.4079  -1.4077  -1.3810  -1.3797  -1.3795
    -1.3500  -1.3470  -1.3469  -1.2844  -1.2843  -1.2707  -1.2705  -1.2544
    -1.2543  -1.2414  -1.2414  -1.2232  -1.2108  -1.1832  -1.1828  -1.1716
    -1.1434  -1.1331  -1.1329  -1.1217  -1.1216  -1.1194  -1.1137  -1.1136
    -1.1006  -1.0693  -1.0690  -1.0579  -1.0575  -1.0568  -1.0563  -1.0325
    -1.0141  -1.0138  -0.9926  -0.9924  -0.8996  -0.8863  -0.8807  -0.8807
    -0.8768  -0.8717  -0.8713  -0.8505  -0.8455  -0.8303  -0.8300  -0.8156
    -0.8156  -0.8062  -0.7856  -0.7855  -0.7842  -0.7759  -0.7040  -0.7039
    -0.6695  -0.6692  -0.6656  -0.6581  -0.6579  -0.6572  -0.6570  -0.6438
    -0.6433  -0.6284  -0.6250  -0.6028  -0.5884  -0.5681  -0.5680  -0.5566
    -0.5565  -0.5437  -0.5434  -0.5426  -0.5412  -0.5411  -0.5234  -0.5192
    -0.5191  -0.4883  -0.4868  -0.4865  -0.4747  -0.4746  -0.4554  -0.4231
    -0.4230  -0.4138  -0.4137  -0.3457  -0.3456  -0.3080  -0.3075  -0.2498
    -0.2485  -0.2483  -0.2387  -0.2200   0.0033   0.0040   0.3509   0.3509
     0.4422   0.4430   0.6359   0.6485   0.6686   0.7996   0.7998   1.2310
     1.2312   1.2499   1.5070   1.5411   1.5413   1.8178   1.8193   1.8977
     1.8978   1.9250   1.9257   2.1541   2.1544   2.2423   2.2423   2.3141
     2.3811   2.3821   2.5462   2.6435   3.0850   3.0857   3.0881   3.0886
     3.1434   3.1437   3.4352   3.4357   3.7170   3.7183   3.8188   4.1312
     4.1743   4.1750   4.3846   4.3989   4.4753   4.4759   4.5664   4.6846
     4.6848   4.8020   4.8023   5.1049   5.1265   5.1760   5.1771   5.3477
     5.3625   5.5630   5.5635   5.5894   5.5896   5.6534   5.6540   5.6664
     5.7113   6.0171   6.2303   6.2610   6.2814   6.3696   6.3962   6.3964
     6.4094   6.4100   6.5888   6.6502   6.6514   6.7895   6.8518   6.8756
     6.8834   6.9097   7.0251

          k = 0.2500 0.1443-0.1111 (136898 PWs)   bands (ev):

   -18.6240  -6.6022  -6.4396  -5.8101  -5.5184  -5.4598  -5.4597  -4.9214
    -4.9213  -4.7897  -4.7887  -4.6338  -4.6029  -4.5419  -4.5076  -4.5075
    -4.4748  -4.4746  -4.3462  -4.3046  -4.3043  -4.2442  -4.2231  -4.2229
    -4.1208  -4.1208  -4.0848  -4.0845  -4.0844  -4.0572  -4.0361  -4.0357
    -3.9300  -3.9289  -3.9286  -3.9077  -3.8911  -3.8909  -3.8786  -3.8785
    -3.8648  -3.8351  -3.8350  -3.8349  -3.8347  -3.8019  -3.8016  -3.7844
    -3.7843  -3.7693  -3.7260  -3.7257  -3.6961  -3.6804  -3.6802  -3.6763
    -3.6761  -3.6016  -3.6014  -3.5657  -3.5634  -3.5632  -3.4962  -3.4961
    -3.4803  -3.4803  -3.4490  -3.4488  -3.4485  -3.4483  -3.2948  -3.2947
    -3.2688  -3.2687  -3.2636  -3.2478  -3.2477  -3.2216  -3.2213  -3.1719
    -3.1718  -3.1555  -3.1554  -3.1351  -3.0863  -3.0861  -3.0668  -3.0619
    -3.0618  -3.0208  -3.0207  -3.0145  -3.0144  -2.9976  -2.9974  -2.9578
    -2.9578  -2.9362  -2.9360  -2.9330  -2.9329  -2.9299  -2.8525  -2.8523
    -2.8513  -2.8223  -2.8222  -2.7601  -2.7597  -2.7319  -2.7306  -2.7173
    -2.7172  -2.7122  -2.6825  -2.6821  -2.6730  -2.6550  -2.6464  -2.6294
    -2.6292  -2.6291  -2.6082  -2.6082  -2.5972  -2.5969  -2.5931  -2.5930
    -2.5855  -2.5394  -2.5067  -2.5066  -2.4911  -2.4771  -2.4704  -2.4703
    -2.4631  -2.4629  -2.4617  -2.4315  -2.4314  -2.4310  -2.4215  -2.4212
    -2.4037  -2.3767  -2.3762  -2.3754  -2.3747  -2.3745  -2.3298  -2.2981
    -2.2977  -2.2975  -2.2903  -2.2822  -2.2687  -2.2683  -2.2520  -2.2520
    -2.2183  -2.2167  -2.2166  -2.1980  -2.1963  -2.1962  -2.1633  -2.1632
    -2.1226  -2.1217  -2.1142  -2.1123  -2.1122  -2.1057  -2.1056  -2.1038
    -2.1030  -2.0958  -2.0955  -2.0791  -2.0790  -1.9516  -1.9514  -1.9191
    -1.9129  -1.9127  -1.9077  -1.9077  -1.8903  -1.8899  -1.8865  -1.8863
    -1.8843  -1.8622  -1.8535  -1.8532  -1.8503  -1.8415  -1.8411  -1.8188
    -1.8187  -1.7903  -1.7896  -1.7573  -1.7572  -1.7472  -1.7390  -1.7214
    -1.7212  -1.7181  -1.6999  -1.6878  -1.6877  -1.6802  -1.6801  -1.6530
    -1.6529  -1.6360  -1.6354  -1.6041  -1.6038  -1.5935  -1.5431  -1.5424
    -1.5301  -1.5298  -1.5296  -1.5049  -1.5019  -1.4682  -1.4675  -1.4672
    -1.4339  -1.4235  -1.4233  -1.4079  -1.4077  -1.3810  -1.3797  -1.3795
    -1.3500  -1.3470  -1.3469  -1.2844  -1.2843  -1.2707  -1.2705  -1.2544
    -1.2543  -1.2414  -1.2414  -1.2232  -1.2108  -1.1832  -1.1828  -1.1716
    -1.1434  -1.1331  -1.1329  -1.1217  -1.1216  -1.1194  -1.1137  -1.1136
    -1.1006  -1.0693  -1.0690  -1.0579  -1.0575  -1.0568  -1.0563  -1.0325
    -1.0141  -1.0138  -0.9926  -0.9924  -0.8996  -0.8863  -0.8807  -0.8807
    -0.8768  -0.8717  -0.8713  -0.8505  -0.8455  -0.8303  -0.8300  -0.8156
    -0.8156  -0.8062  -0.7856  -0.7855  -0.7842  -0.7759  -0.7040  -0.7038
    -0.6695  -0.6692  -0.6656  -0.6581  -0.6579  -0.6572  -0.6570  -0.6438
    -0.6433  -0.6284  -0.6250  -0.6028  -0.5884  -0.5681  -0.5680  -0.5566
    -0.5565  -0.5437  -0.5434  -0.5425  -0.5412  -0.5411  -0.5234  -0.5192
    -0.5191  -0.4883  -0.4868  -0.4865  -0.4747  -0.4746  -0.4554  -0.4231
    -0.4230  -0.4138  -0.4137  -0.3457  -0.3456  -0.3080  -0.3075  -0.2498
    -0.2485  -0.2483  -0.2387  -0.2200   0.0033   0.0040   0.3509   0.3509
     0.4422   0.4430   0.6359   0.6485   0.6686   0.7996   0.7998   1.2310
     1.2312   1.2499   1.5070   1.5411   1.5413   1.8178   1.8193   1.8977
     1.8978   1.9250   1.9257   2.1541   2.1544   2.2423   2.2423   2.3141
     2.3811   2.3821   2.5462   2.6435   3.0850   3.0857   3.0881   3.0886
     3.1434   3.1437   3.4352   3.4357   3.7170   3.7183   3.8188   4.1312
     4.1743   4.1750   4.3846   4.3989   4.4753   4.4759   4.5664   4.6846
     4.6848   4.8020   4.8023   5.1049   5.1265   5.1760   5.1771   5.3477
     5.3625   5.5630   5.5635   5.5894   5.5896   5.6534   5.6540   5.6670
     5.7113   6.0165   6.2276   6.2610   6.2806   6.3699   6.3962   6.3964
     6.4093   6.4100   6.5975   6.6502   6.6514   6.7815   6.8521   6.8759
     6.8832   6.9151   7.0320

          k = 0.0000-0.2887 0.1111 (136898 PWs)   bands (ev):

   -18.6240  -6.6022  -6.4395  -5.8101  -5.5184  -5.4598  -5.4597  -4.9214
    -4.9213  -4.7897  -4.7887  -4.6338  -4.6029  -4.5419  -4.5076  -4.5075
    -4.4747  -4.4746  -4.3462  -4.3045  -4.3044  -4.2441  -4.2231  -4.2229
    -4.1208  -4.1208  -4.0847  -4.0845  -4.0844  -4.0572  -4.0360  -4.0358
    -3.9300  -3.9288  -3.9286  -3.9077  -3.8911  -3.8909  -3.8786  -3.8785
    -3.8649  -3.8352  -3.8350  -3.8348  -3.8346  -3.8018  -3.8016  -3.7844
    -3.7843  -3.7693  -3.7260  -3.7258  -3.6961  -3.6804  -3.6803  -3.6762
    -3.6761  -3.6016  -3.6014  -3.5657  -3.5634  -3.5632  -3.4962  -3.4961
    -3.4803  -3.4803  -3.4492  -3.4488  -3.4485  -3.4481  -3.2948  -3.2947
    -3.2689  -3.2687  -3.2636  -3.2478  -3.2477  -3.2217  -3.2213  -3.1719
    -3.1718  -3.1555  -3.1554  -3.1351  -3.0864  -3.0860  -3.0668  -3.0618
    -3.0617  -3.0208  -3.0207  -3.0145  -3.0144  -2.9976  -2.9974  -2.9578
    -2.9578  -2.9362  -2.9359  -2.9330  -2.9329  -2.9299  -2.8525  -2.8523
    -2.8513  -2.8223  -2.8222  -2.7602  -2.7597  -2.7319  -2.7306  -2.7173
    -2.7172  -2.7122  -2.6824  -2.6822  -2.6730  -2.6550  -2.6464  -2.6294
    -2.6292  -2.6291  -2.6082  -2.6081  -2.5972  -2.5969  -2.5932  -2.5930
    -2.5855  -2.5395  -2.5067  -2.5066  -2.4911  -2.4771  -2.4704  -2.4703
    -2.4631  -2.4630  -2.4616  -2.4315  -2.4313  -2.4311  -2.4216  -2.4211
    -2.4037  -2.3766  -2.3763  -2.3757  -2.3747  -2.3744  -2.3298  -2.2981
    -2.2977  -2.2975  -2.2903  -2.2822  -2.2687  -2.2683  -2.2520  -2.2519
    -2.2183  -2.2168  -2.2166  -2.1980  -2.1963  -2.1962  -2.1633  -2.1631
    -2.1224  -2.1218  -2.1142  -2.1124  -2.1121  -2.1057  -2.1055  -2.1035
    -2.1032  -2.0958  -2.0955  -2.0791  -2.0790  -1.9516  -1.9514  -1.9191
    -1.9129  -1.9127  -1.9078  -1.9078  -1.8903  -1.8898  -1.8865  -1.8863
    -1.8844  -1.8622  -1.8535  -1.8532  -1.8503  -1.8416  -1.8411  -1.8188
    -1.8187  -1.7902  -1.7897  -1.7573  -1.7572  -1.7472  -1.7390  -1.7214
    -1.7212  -1.7182  -1.6999  -1.6878  -1.6877  -1.6802  -1.6801  -1.6530
    -1.6529  -1.6360  -1.6354  -1.6041  -1.6038  -1.5934  -1.5430  -1.5425
    -1.5301  -1.5298  -1.5296  -1.5049  -1.5019  -1.4683  -1.4675  -1.4672
    -1.4339  -1.4235  -1.4234  -1.4079  -1.4077  -1.3810  -1.3796  -1.3795
    -1.3499  -1.3470  -1.3469  -1.2844  -1.2843  -1.2707  -1.2705  -1.2546
    -1.2540  -1.2415  -1.2414  -1.2233  -1.2108  -1.1832  -1.1828  -1.1716
    -1.1434  -1.1331  -1.1329  -1.1217  -1.1216  -1.1193  -1.1137  -1.1135
    -1.1006  -1.0693  -1.0690  -1.0580  -1.0575  -1.0568  -1.0565  -1.0325
    -1.0141  -1.0137  -0.9927  -0.9924  -0.8997  -0.8863  -0.8807  -0.8807
    -0.8768  -0.8716  -0.8713  -0.8505  -0.8455  -0.8303  -0.8300  -0.8156
    -0.8155  -0.8062  -0.7857  -0.7856  -0.7841  -0.7759  -0.7040  -0.7039
    -0.6695  -0.6692  -0.6656  -0.6582  -0.6579  -0.6571  -0.6571  -0.6438
    -0.6433  -0.6283  -0.6251  -0.6028  -0.5884  -0.5681  -0.5680  -0.5566
    -0.5565  -0.5436  -0.5435  -0.5425  -0.5412  -0.5410  -0.5234  -0.5192
    -0.5190  -0.4883  -0.4867  -0.4866  -0.4748  -0.4746  -0.4554  -0.4231
    -0.4230  -0.4138  -0.4137  -0.3457  -0.3456  -0.3080  -0.3075  -0.2498
    -0.2485  -0.2483  -0.2387  -0.2199   0.0032   0.0041   0.3509   0.3509
     0.4421   0.4431   0.6359   0.6485   0.6686   0.7996   0.7998   1.2311
     1.2311   1.2499   1.5070   1.5412   1.5412   1.8177   1.8194   1.8976
     1.8979   1.9250   1.9258   2.1541   2.1544   2.2423   2.2424   2.3141
     2.3809   2.3822   2.5462   2.6435   3.0851   3.0855   3.0882   3.0886
     3.1433   3.1438   3.4354   3.4355   3.7169   3.7185   3.8188   4.1312
     4.1742   4.1750   4.3839   4.3994   4.4752   4.4759   4.5665   4.6846
     4.6847   4.8019   4.8023   5.1058   5.1252   5.1761   5.1780   5.3483
     5.3622   5.5630   5.5636   5.5893   5.5896   5.6524   5.6545   5.6691
     5.7095   6.0154   6.2230   6.2610   6.2835   6.3721   6.3961   6.3965
     6.4092   6.4101   6.6049   6.6498   6.6514   6.7772   6.8553   6.8740
     6.8836   6.9074   7.0264

          k = 0.0000 0.2887 0.1111 (136898 PWs)   bands (ev):

   -18.6240  -6.6022  -6.4396  -5.8101  -5.5184  -5.4598  -5.4597  -4.9214
    -4.9213  -4.7897  -4.7887  -4.6338  -4.6029  -4.5419  -4.5076  -4.5075
    -4.4747  -4.4746  -4.3462  -4.3045  -4.3044  -4.2441  -4.2231  -4.2229
    -4.1208  -4.1208  -4.0847  -4.0845  -4.0844  -4.0572  -4.0360  -4.0358
    -3.9300  -3.9288  -3.9286  -3.9077  -3.8911  -3.8909  -3.8786  -3.8785
    -3.8649  -3.8352  -3.8350  -3.8348  -3.8346  -3.8018  -3.8016  -3.7844
    -3.7843  -3.7693  -3.7260  -3.7258  -3.6961  -3.6804  -3.6802  -3.6762
    -3.6761  -3.6016  -3.6014  -3.5657  -3.5634  -3.5632  -3.4962  -3.4961
    -3.4803  -3.4803  -3.4492  -3.4488  -3.4485  -3.4481  -3.2948  -3.2947
    -3.2689  -3.2687  -3.2636  -3.2478  -3.2477  -3.2217  -3.2213  -3.1719
    -3.1718  -3.1555  -3.1554  -3.1351  -3.0864  -3.0860  -3.0668  -3.0618
    -3.0617  -3.0208  -3.0207  -3.0145  -3.0144  -2.9976  -2.9974  -2.9578
    -2.9578  -2.9362  -2.9359  -2.9330  -2.9329  -2.9299  -2.8525  -2.8523
    -2.8513  -2.8223  -2.8222  -2.7602  -2.7597  -2.7319  -2.7306  -2.7173
    -2.7172  -2.7122  -2.6823  -2.6822  -2.6730  -2.6550  -2.6464  -2.6294
    -2.6292  -2.6291  -2.6082  -2.6081  -2.5972  -2.5969  -2.5932  -2.5930
    -2.5855  -2.5395  -2.5067  -2.5066  -2.4911  -2.4771  -2.4704  -2.4703
    -2.4631  -2.4630  -2.4616  -2.4315  -2.4313  -2.4311  -2.4216  -2.4211
    -2.4037  -2.3766  -2.3763  -2.3757  -2.3747  -2.3744  -2.3298  -2.2981
    -2.2977  -2.2975  -2.2903  -2.2822  -2.2688  -2.2683  -2.2520  -2.2519
    -2.2183  -2.2168  -2.2166  -2.1980  -2.1963  -2.1962  -2.1633  -2.1631
    -2.1224  -2.1219  -2.1142  -2.1124  -2.1121  -2.1057  -2.1056  -2.1035
    -2.1032  -2.0958  -2.0955  -2.0791  -2.0790  -1.9516  -1.9514  -1.9191
    -1.9129  -1.9127  -1.9078  -1.9078  -1.8903  -1.8898  -1.8865  -1.8863
    -1.8844  -1.8622  -1.8535  -1.8532  -1.8503  -1.8416  -1.8411  -1.8188
    -1.8187  -1.7902  -1.7897  -1.7573  -1.7572  -1.7472  -1.7390  -1.7214
    -1.7212  -1.7182  -1.6999  -1.6878  -1.6877  -1.6802  -1.6801  -1.6530
    -1.6529  -1.6360  -1.6354  -1.6041  -1.6038  -1.5935  -1.5430  -1.5425
    -1.5301  -1.5298  -1.5296  -1.5049  -1.5019  -1.4683  -1.4675  -1.4672
    -1.4339  -1.4235  -1.4234  -1.4079  -1.4077  -1.3810  -1.3796  -1.3795
    -1.3499  -1.3470  -1.3469  -1.2844  -1.2843  -1.2707  -1.2705  -1.2546
    -1.2540  -1.2415  -1.2414  -1.2233  -1.2108  -1.1832  -1.1828  -1.1716
    -1.1434  -1.1331  -1.1329  -1.1217  -1.1216  -1.1193  -1.1137  -1.1135
    -1.1006  -1.0693  -1.0690  -1.0580  -1.0575  -1.0568  -1.0565  -1.0325
    -1.0141  -1.0137  -0.9927  -0.9924  -0.8997  -0.8863  -0.8807  -0.8807
    -0.8768  -0.8716  -0.8713  -0.8505  -0.8455  -0.8303  -0.8300  -0.8156
    -0.8155  -0.8062  -0.7857  -0.7856  -0.7841  -0.7759  -0.7040  -0.7038
    -0.6695  -0.6692  -0.6656  -0.6582  -0.6579  -0.6571  -0.6571  -0.6438
    -0.6433  -0.6283  -0.6251  -0.6028  -0.5884  -0.5681  -0.5680  -0.5566
    -0.5565  -0.5436  -0.5435  -0.5425  -0.5412  -0.5410  -0.5234  -0.5193
    -0.5190  -0.4883  -0.4867  -0.4866  -0.4748  -0.4746  -0.4554  -0.4231
    -0.4230  -0.4138  -0.4137  -0.3457  -0.3456  -0.3080  -0.3075  -0.2498
    -0.2485  -0.2483  -0.2387  -0.2200   0.0032   0.0041   0.3509   0.3509
     0.4421   0.4431   0.6359   0.6485   0.6686   0.7996   0.7998   1.2311
     1.2311   1.2499   1.5069   1.5412   1.5412   1.8177   1.8194   1.8976
     1.8979   1.9250   1.9258   2.1541   2.1544   2.2423   2.2424   2.3141
     2.3809   2.3822   2.5462   2.6435   3.0851   3.0855   3.0882   3.0886
     3.1433   3.1438   3.4354   3.4355   3.7169   3.7185   3.8188   4.1312
     4.1742   4.1750   4.3839   4.3994   4.4752   4.4759   4.5665   4.6846
     4.6847   4.8019   4.8023   5.1058   5.1252   5.1761   5.1780   5.3483
     5.3622   5.5630   5.5636   5.5893   5.5896   5.6523   5.6545   5.6683
     5.7095   6.0173   6.2260   6.2610   6.2831   6.3723   6.3961   6.3965
     6.4093   6.4102   6.5852   6.6501   6.6514   6.7871   6.8567   6.8744
     6.8836   6.9094   7.0312

     the Fermi energy is     1.3734 ev

!    total energy              =   -6604.42755937 Ry
     Harris-Foulkes estimate   =   -6604.42755935 Ry
     estimated scf accuracy    <          9.4E-09 Ry

     The total energy is the sum of the following terms:

     one-electron contribution =  -48097.32861286 Ry
     hartree contribution      =   24548.32165653 Ry
     xc contribution           =   -3204.94790038 Ry
     ewald contribution        =   20149.52440553 Ry
     smearing contrib. (-TS)   =       0.00289182 Ry

     convergence has been achieved in  22 iterations

     Writing output data file 9479892.save

     init_run     :    182.35s CPU    192.88s WALL (       1 calls)
     electrons    :   9108.37s CPU   9613.38s WALL (       1 calls)

     Called by init_run:
     wfcinit      :    152.22s CPU    161.90s WALL (       1 calls)
     potinit      :      9.11s CPU      9.50s WALL (       1 calls)

     Called by electrons:
     c_bands      :   7837.25s CPU   8247.59s WALL (      23 calls)
     sum_band     :   1026.28s CPU   1110.14s WALL (      23 calls)
     v_of_rho     :     56.22s CPU     63.78s WALL (      23 calls)
     newd         :    197.22s CPU    199.98s WALL (      23 calls)
     mix_rho      :      1.47s CPU      1.72s WALL (      23 calls)
     vdW_energy   :      5.40s CPU      5.85s WALL (      23 calls)
     vdW_ffts     :     25.77s CPU     29.73s WALL (      46 calls)
     vdW_v        :      8.98s CPU      9.56s WALL (      23 calls)

     Called by c_bands:
     init_us_2    :     13.70s CPU     14.02s WALL (     564 calls)
     cegterg      :   7567.71s CPU   7975.96s WALL (     276 calls)

     Called by *egterg:
     h_psi        :   2968.68s CPU   3343.41s WALL (    1680 calls)
     s_psi        :    263.08s CPU    264.81s WALL (    1680 calls)
     g_psi        :      5.94s CPU      5.97s WALL (    1392 calls)
     cdiaghg      :   1701.46s CPU   1706.38s WALL (    1656 calls)

     Called by h_psi:
     add_vuspsi   :    260.20s CPU    262.15s WALL (    1680 calls)

     General routines
     calbec       :    992.66s CPU    995.89s WALL (    1956 calls)
     fft          :    135.86s CPU    143.19s WALL (    1518 calls)
     ffts         :      0.82s CPU      1.00s WALL (      46 calls)
     fftw         :   2249.03s CPU   2665.28s WALL (  672306 calls)
     interpolate  :      2.01s CPU      2.53s WALL (      46 calls)
     davcio       :      0.01s CPU      0.21s WALL (      12 calls)

     Parallel routines
     fft_scatter  :   1732.98s CPU   2049.43s WALL (  673870 calls)

     PWSCF        :     2h35m CPU        2h43m WALL


   This run was terminated on:   3:48:28   2Jul2015            

=------------------------------------------------------------------------------=
   JOB DONE.
=------------------------------------------------------------------------------=
