Setting SGE environment for SCC

     Program PWSCF v.5.1.2 starts on  5Jul2015 at 14:38:27 

     This program is part of the open-source Quantum ESPRESSO suite
     for quantum simulation of materials; please cite
         "P. Giannozzi et al., J. Phys.:Condens. Matter 21 395502 (2009);
          URL http://www.quantum-espresso.org", 
     in publications or presentations arising from this work. More details at
     http://www.quantum-espresso.org/quote

     Parallel version (MPI), running on    32 processors
     R & G space division:  proc/nbgrp/npool/nimage =      32
     Reading input from hollow.H2.Au535758.d.2.1.phi.0.psi.0.in
Warning: card &IONS ignored
Warning: card / ignored
Warning: card &CELL ignored
Warning: card / ignored

     Current dimensions of program PWSCF are:
     Max number of different atomic species (ntypx) = 10
     Max number of k-points (npk) =  40000
     Max angular momentum in pseudopotentials (lmaxx) =  3

     IMPORTANT: XC functional enforced from input :
     Exchange-correlation      = VDW-DF ( 1  4  4  0 1 0)
     Any further DFT definition will be discarded
     Please, verify this is what you really want


     Subspace diagonalization in iterative solution of the eigenvalue problem:
     a serial algorithm will be used


     Parallelization info
     --------------------
     sticks:   dense  smooth     PW     G-vecs:    dense   smooth      PW
     Min         445     223     58                96775    34191    4534
     Max         446     224     59                96790    34246    4540
     Sum       14269    7147   1867              3097177  1095093  145167


     Title: 
     hollow.H2.Au535758.d.2.1.phi.0.psi.0                                       


     bravais-lattice index     =            4
     lattice parameter (alat)  =      22.7436  a.u.
     unit-cell volume          =   22924.1508 (a.u.)^3
     number of atoms/cell      =           67
     number of atomic types    =            3
     number of electrons       =       712.00
     number of Kohn-Sham states=          427
     kinetic-energy cutoff     =      50.0000  Ry
     charge density cutoff     =     400.0000  Ry
     convergence threshold     =      1.0E-08
     mixing beta               =       0.7000
     number of iterations used =            8  plain     mixing
     Exchange-correlation      = VDW-DF ( 1  4  4  0 1 0)

     celldm(1)=  22.743643  celldm(2)=   0.000000  celldm(3)=   2.250000
     celldm(4)=   0.000000  celldm(5)=   0.000000  celldm(6)=   0.000000

     crystal axes: (cart. coord. in units of alat)
               a(1) = (   1.000000   0.000000   0.000000 )  
               a(2) = (  -0.500000   0.866025   0.000000 )  
               a(3) = (   0.000000   0.000000   2.250000 )  

     reciprocal axes: (cart. coord. in units 2 pi/alat)
               b(1) = (  1.000000  0.577350 -0.000000 )  
               b(2) = (  0.000000  1.154701  0.000000 )  
               b(3) = (  0.000000 -0.000000  0.444444 )  


     PseudoPot. # 1 for Au read from file:
     /home/scc/andrejb/qe/pseudo/Au.pbe-nd-van.UPF
     MD5 check sum: 458681b50f36d87ef23c61b04bba420a
     Pseudo is Ultrasoft + core correction, Zval = 11.0
     Generated by new atomic code, or converted to UPF format
     Using radial grid of  985 points,  3 beta functions with: 
                l(1) =   1
                l(2) =   2
                l(3) =   2
     Q(r) pseudized with  8 coefficients,  rinner =    1.100   1.100   1.100
                                                       1.100   1.100

     PseudoPot. # 2 for H  read from file:
     /home/scc/andrejb/qe/pseudo/H.pbe-van_ak.UPF
     MD5 check sum: 403db7282739603aa925980fa9b8608d
     Pseudo is Ultrasoft, Zval =  1.0
     Generated by new atomic code, or converted to UPF format
     Using radial grid of  615 points,  1 beta functions with: 
                l(1) =   0
     Q(r) pseudized with  8 coefficients,  rinner =    0.800

     PseudoPot. # 3 for O  read from file:
     /home/scc/andrejb/qe/pseudo/O.pbe-van_ak.UPF
     MD5 check sum: 4b8c549914a63cae506c6ff22b5af4fe
     Pseudo is Ultrasoft, Zval =  6.0
     Generated by new atomic code, or converted to UPF format
     Using radial grid of  737 points,  4 beta functions with: 
                l(1) =   0
                l(2) =   0
                l(3) =   1
                l(4) =   1
     Q(r) pseudized with  8 coefficients,  rinner =    0.800   0.800   0.800


     vdW kernel table read from file vdW_kernel_table
     MD5 check sum: 48e77a2e26edf626eeb0eaa751ad5cac

     atomic species   valence    mass     pseudopotential
        Au            11.00   196.96657     Au( 1.00)
        H              1.00     1.01000     H ( 1.00)
        O              6.00    16.00000     O ( 1.00)

     No symmetry found



   Cartesian axes

     site n.     atom                  positions (alat units)
         1           O   tau(   1) = (  -0.0023868   0.5565005   0.8647663  )
         2           H   tau(   2) = (  -0.0208375   0.5411347   0.7874913  )
         3           H   tau(   3) = (  -0.0552361   0.5125063   0.9073949  )
         4           Au  tau(   4) = (   0.3540481   0.6132292   0.0000000  )
         5           Au  tau(   5) = (   0.4790062   0.3967954   0.0000000  )
         6           Au  tau(   6) = (   0.6039644   0.1803616   0.0000000  )
         7           Au  tau(   7) = (   0.7289225  -0.0360723   0.0000000  )
         8           Au  tau(   8) = (   0.1041318   0.6132292   0.0000000  )
         9           Au  tau(   9) = (   0.2290899   0.3967954   0.0000000  )
        10           Au  tau(  10) = (   0.3540481   0.1803616   0.0000000  )
        11           Au  tau(  11) = (   0.4790062  -0.0360723   0.0000000  )
        12           Au  tau(  12) = (  -0.1457845   0.6132292   0.0000000  )
        13           Au  tau(  13) = (  -0.0208264   0.3967954   0.0000000  )
        14           Au  tau(  14) = (   0.1041318   0.1803616   0.0000000  )
        15           Au  tau(  15) = (   0.2290899  -0.0360723   0.0000000  )
        16           Au  tau(  16) = (  -0.3957008   0.6132292   0.0000000  )
        17           Au  tau(  17) = (  -0.2707426   0.3967954   0.0000000  )
        18           Au  tau(  18) = (  -0.1457845   0.1803616   0.0000000  )
        19           Au  tau(  19) = (  -0.0208264  -0.0360723   0.0000000  )
        20           Au  tau(  20) = (   0.4790062   0.6853738   0.2040557  )
        21           Au  tau(  21) = (   0.6039644   0.4689400   0.2040557  )
        22           Au  tau(  22) = (   0.7289225   0.2525061   0.2040557  )
        23           Au  tau(  23) = (   0.8538806   0.0360723   0.2040557  )
        24           Au  tau(  24) = (   0.2290899   0.6853738   0.2040557  )
        25           Au  tau(  25) = (   0.3540481   0.4689400   0.2040557  )
        26           Au  tau(  26) = (   0.4790062   0.2525061   0.2040557  )
        27           Au  tau(  27) = (   0.6039644   0.0360723   0.2040557  )
        28           Au  tau(  28) = (  -0.0208264   0.6853738   0.2040557  )
        29           Au  tau(  29) = (   0.1041318   0.4689400   0.2040557  )
        30           Au  tau(  30) = (   0.2290899   0.2525061   0.2040557  )
        31           Au  tau(  31) = (   0.3540481   0.0360723   0.2040557  )
        32           Au  tau(  32) = (  -0.2707426   0.6853738   0.2040557  )
        33           Au  tau(  33) = (  -0.1457845   0.4689400   0.2040557  )
        34           Au  tau(  34) = (  -0.0208264   0.2525061   0.2040557  )
        35           Au  tau(  35) = (   0.1041318   0.0360723   0.2040557  )
        36           Au  tau(  36) = (   0.3541162   0.7576593   0.4066483  )
        37           Au  tau(  37) = (   0.4791000   0.5411421   0.4066695  )
        38           Au  tau(  38) = (   0.6040570   0.3246862   0.4066617  )
        39           Au  tau(  39) = (   0.7290270   0.1081684   0.4066529  )
        40           Au  tau(  40) = (   0.1041162   0.7576236   0.4066247  )
        41           Au  tau(  41) = (   0.2291001   0.5411063   0.4066455  )
        42           Au  tau(  42) = (   0.3540567   0.3246505   0.4066380  )
        43           Au  tau(  43) = (   0.4790276   0.1081324   0.4066292  )
        44           Au  tau(  44) = (  -0.1458201   0.7576104   0.4066224  )
        45           Au  tau(  45) = (  -0.0208365   0.5410930   0.4066438  )
        46           Au  tau(  46) = (   0.1041202   0.3246372   0.4066359  )
        47           Au  tau(  47) = (   0.2290908   0.1081193   0.4066273  )
        48           Au  tau(  48) = (  -0.3958167   0.7575791   0.4065812  )
        49           Au  tau(  49) = (  -0.2708328   0.5410617   0.4066025  )
        50           Au  tau(  50) = (  -0.1458763   0.3246061   0.4065947  )
        51           Au  tau(  51) = (  -0.0209056   0.1080882   0.4065858  )
        52           Au  tau(  52) = (   0.3541085   0.6133344   0.6129762  )
        53           Au  tau(  53) = (   0.4790780   0.3968269   0.6129968  )
        54           Au  tau(  54) = (   0.6040356   0.1803811   0.6129859  )
        55           Au  tau(  55) = (   0.7290165  -0.0361221   0.6129385  )
        56           Au  tau(  56) = (   0.1041243   0.6133091   0.6130022  )
        57           Au  tau(  57) = (   0.2290941   0.3968013   0.6130241  )
        58           Au  tau(  58) = (   0.3540515   0.1803552   0.6130121  )
        59           Au  tau(  59) = (   0.4790323  -0.0361475   0.6129659  )
        60           Au  tau(  60) = (  -0.1458030   0.6133014   0.6129980  )
        61           Au  tau(  61) = (  -0.0208339   0.3967936   0.6130188  )
        62           Au  tau(  62) = (   0.1041239   0.1803477   0.6130083  )
        63           Au  tau(  63) = (   0.2291046  -0.0361554   0.6129607  )
        64           Au  tau(  64) = (  -0.3957908   0.6132739   0.6129471  )
        65           Au  tau(  65) = (  -0.2708208   0.3967658   0.6129688  )
        66           Au  tau(  66) = (  -0.1458636   0.1803200   0.6129569  )
        67           Au  tau(  67) = (  -0.0208823  -0.0361826   0.6129110  )

     number of k points=    12  Marzari-Vanderbilt smearing, width (Ry)=  0.0200
                       cart. coord. in units 2pi/alat
        k(    1) = (   0.2500000   0.4330127   0.1111111), wk =   0.1666667
        k(    2) = (   0.2500000  -0.1443376   0.1111111), wk =   0.1666667
        k(    3) = (  -0.2500000  -0.4330127   0.1111111), wk =   0.1666667
        k(    4) = (  -0.2500000   0.4330127  -0.1111111), wk =   0.1666667
        k(    5) = (   0.2500000  -0.4330127  -0.1111111), wk =   0.1666667
        k(    6) = (   0.5000000   0.0000000   0.1111111), wk =   0.1666667
        k(    7) = (  -0.5000000   0.0000000   0.1111111), wk =   0.1666667
        k(    8) = (  -0.2500000   0.1443376   0.1111111), wk =   0.1666667
        k(    9) = (  -0.2500000  -0.1443376  -0.1111111), wk =   0.1666667
        k(   10) = (   0.2500000   0.1443376  -0.1111111), wk =   0.1666667
        k(   11) = (   0.0000000  -0.2886751   0.1111111), wk =   0.1666667
        k(   12) = (   0.0000000   0.2886751   0.1111111), wk =   0.1666667

     Dense  grid:  3097177 G-vectors     FFT dimensions: ( 150, 150, 360)

     Smooth grid:  1095093 G-vectors     FFT dimensions: ( 108, 108, 240)

     Largest allocated arrays     est. size (Mb)     dimensions
        Kohn-Sham Wavefunctions        28.01 Mb     (    4299,  427)
        NL pseudopotentials            55.23 Mb     (    4299,  842)
        Each V/rho on FFT grid          4.12 Mb     (  270000)
        Each G-vector array             0.74 Mb     (   96788)
        G-vector shells                 0.16 Mb     (   21404)
     Largest temporary arrays     est. size (Mb)     dimensions
        Auxiliary wavefunctions       112.04 Mb     (    4299, 1708)
        Each subspace H/S matrix       44.51 Mb     (    1708, 1708)
        Each <psi_i|beta_j> matrix      5.49 Mb     (     842,  427)
        Arrays for rho mixing          32.96 Mb     (  270000,    8)

     Initial potential from superposition of free atoms
     Check: negative starting charge=   -1.730269

     starting charge  711.25682, renormalised to  712.00000

     negative rho (up, down):  1.732E+00 0.000E+00


     ************************************************************************
     *
     * You are using vdW-DF for exchange-correlation in this calculation.
     * Please cite the following three references that made this development
     * possible:
     *
     *   M. Dion, H. Rydberg, E. Schroder, D. C. Langreth, and
     *   B. I. Lundqvist, Phys. Rev. Lett. 92, 246401 (2004).
     *
     *   T. Thonhauser, V. R. Cooper, S. Li, A. Puzder, P. Hyldgaard, and
     *   D. C. Langreth, Phys. Rev. B 76, 125112 (2007).
     *
     *   G. Roman-Perez and J. M. Soler, Phys. Rev. Lett. 103, 096102 (2009).
     *
     *
     * If you are using vdW-DF2, please also cite:
     *
     *   K. Lee, E. D. Murray, L. Kong, B. I. Lundqvist, and
     *   D. C. Langreth, Phys. Rev. B 82, 081101(R) (2010).
     *
     *
     * If you are calculating the stress with vdW-DF, please also cite:
     *
     *   R. Sabatini, E. Kucukbenli, B. Kolb, T. Thonhauser, and
     *   S. de Gironcoli, J. Phys.: Condens. Matter 24, 424209 (2012).
     *
     ************************************************************************

     Carrying out vdW-DF run using the following parameters:

     Nqs =      20    Nr_points =    1024   r_max =   100.000
     q_mesh =
               0.00001000     0.04494208     0.09755937     0.15916263
               0.23128650     0.31572767     0.41458969     0.53033537
               0.66584808     0.82450364     1.01025438     1.22772762
               1.48234092     1.78043706     2.12944203     2.53805004
               3.01644009     3.57652955     4.23227104     5.00000000

     Gradients computed in reciprocal space

     ************************************************************************


     Starting wfc are  582 randomized atomic wfcs

     total cpu time spent up to now is      162.2 secs

     Self-consistent Calculation

     iteration #  1     ecut=    50.00 Ry     beta=0.70
     Davidson diagonalization with overlap
     ethr =  1.00E-02,  avg # of iterations =  3.0

     Threshold (ethr) on eigenvalues was too large:
     Diagonalizing with lowered threshold

     Davidson diagonalization with overlap
     ethr =  3.41E-04,  avg # of iterations =  3.7

     negative rho (up, down):  1.727E+00 0.000E+00

     total cpu time spent up to now is      802.7 secs

     total energy              =   -6602.81273232 Ry
     Harris-Foulkes estimate   =   -6605.02435080 Ry
     estimated scf accuracy    <       2.77434958 Ry

     iteration #  2     ecut=    50.00 Ry     beta=0.70
     Davidson diagonalization with overlap
     ethr =  3.90E-04,  avg # of iterations = 11.5

     negative rho (up, down):  1.727E+00 0.000E+00

     total cpu time spent up to now is     1799.6 secs

     total energy              =   -6597.06812273 Ry
     Harris-Foulkes estimate   =   -6609.98058657 Ry
     estimated scf accuracy    <      70.84837571 Ry

     iteration #  3     ecut=    50.00 Ry     beta=0.70
     Davidson diagonalization with overlap
     ethr =  3.90E-04,  avg # of iterations =  6.3

     negative rho (up, down):  1.737E+00 0.000E+00

     total cpu time spent up to now is     2449.3 secs

     total energy              =   -6603.18286472 Ry
     Harris-Foulkes estimate   =   -6604.99950602 Ry
     estimated scf accuracy    <       8.19409464 Ry

     iteration #  4     ecut=    50.00 Ry     beta=0.70
     Davidson diagonalization with overlap
     ethr =  3.90E-04,  avg # of iterations =  7.0

     negative rho (up, down):  1.739E+00 0.000E+00

     total cpu time spent up to now is     2846.6 secs

     total energy              =   -6603.69782224 Ry
     Harris-Foulkes estimate   =   -6605.00080037 Ry
     estimated scf accuracy    <      10.80026885 Ry

     iteration #  5     ecut=    50.00 Ry     beta=0.70
     Davidson diagonalization with overlap
     ethr =  3.90E-04,  avg # of iterations =  6.6

     negative rho (up, down):  1.748E+00 0.000E+00

     total cpu time spent up to now is     3238.8 secs

     total energy              =   -6604.27305673 Ry
     Harris-Foulkes estimate   =   -6604.67081055 Ry
     estimated scf accuracy    <       3.16815116 Ry

     iteration #  6     ecut=    50.00 Ry     beta=0.70
     Davidson diagonalization with overlap
     ethr =  3.90E-04,  avg # of iterations =  2.8

     negative rho (up, down):  1.752E+00 0.000E+00

     total cpu time spent up to now is     3535.9 secs

     total energy              =   -6604.42213085 Ry
     Harris-Foulkes estimate   =   -6604.46890426 Ry
     estimated scf accuracy    <       0.15001317 Ry

     iteration #  7     ecut=    50.00 Ry     beta=0.70
     Davidson diagonalization with overlap
     ethr =  2.11E-05,  avg # of iterations = 11.8

     negative rho (up, down):  1.754E+00 0.000E+00

     total cpu time spent up to now is     4040.8 secs

     total energy              =   -6604.42898820 Ry
     Harris-Foulkes estimate   =   -6604.45744867 Ry
     estimated scf accuracy    <       0.12772726 Ry

     iteration #  8     ecut=    50.00 Ry     beta=0.70
     Davidson diagonalization with overlap
     ethr =  1.79E-05,  avg # of iterations =  3.5

     negative rho (up, down):  1.756E+00 0.000E+00

     total cpu time spent up to now is     4371.2 secs

     total energy              =   -6604.43184259 Ry
     Harris-Foulkes estimate   =   -6604.44542686 Ry
     estimated scf accuracy    <       0.05344638 Ry

     iteration #  9     ecut=    50.00 Ry     beta=0.70
     Davidson diagonalization with overlap
     ethr =  7.51E-06,  avg # of iterations =  5.8

     negative rho (up, down):  1.756E+00 0.000E+00

     total cpu time spent up to now is     4730.3 secs

     total energy              =   -6604.43138432 Ry
     Harris-Foulkes estimate   =   -6604.43793230 Ry
     estimated scf accuracy    <       0.02384609 Ry

     iteration # 10     ecut=    50.00 Ry     beta=0.70
     Davidson diagonalization with overlap
     ethr =  3.35E-06,  avg # of iterations =  5.4

     negative rho (up, down):  1.757E+00 0.000E+00

     total cpu time spent up to now is     5082.3 secs

     total energy              =   -6604.43085654 Ry
     Harris-Foulkes estimate   =   -6604.43381882 Ry
     estimated scf accuracy    <       0.01036813 Ry

     iteration # 11     ecut=    50.00 Ry     beta=0.70
     Davidson diagonalization with overlap
     ethr =  1.46E-06,  avg # of iterations =  4.9

     negative rho (up, down):  1.757E+00 0.000E+00

     total cpu time spent up to now is     5431.5 secs

     total energy              =   -6604.43064945 Ry
     Harris-Foulkes estimate   =   -6604.43204662 Ry
     estimated scf accuracy    <       0.00534732 Ry

     iteration # 12     ecut=    50.00 Ry     beta=0.70
     Davidson diagonalization with overlap
     ethr =  7.51E-07,  avg # of iterations =  3.8

     negative rho (up, down):  1.758E+00 0.000E+00

     total cpu time spent up to now is     5741.5 secs

     total energy              =   -6604.43041818 Ry
     Harris-Foulkes estimate   =   -6604.43114174 Ry
     estimated scf accuracy    <       0.00125927 Ry

     iteration # 13     ecut=    50.00 Ry     beta=0.70
     Davidson diagonalization with overlap
     c_bands:  1 eigenvalues not converged
     ethr =  1.77E-07,  avg # of iterations = 10.6

     negative rho (up, down):  1.758E+00 0.000E+00

     total cpu time spent up to now is     6229.6 secs

     total energy              =   -6604.43060010 Ry
     Harris-Foulkes estimate   =   -6604.43080154 Ry
     estimated scf accuracy    <       0.00063218 Ry

     iteration # 14     ecut=    50.00 Ry     beta=0.70
     Davidson diagonalization with overlap
     ethr =  8.88E-08,  avg # of iterations =  2.0

     negative rho (up, down):  1.758E+00 0.000E+00

     total cpu time spent up to now is     6510.9 secs

     total energy              =   -6604.43068298 Ry
     Harris-Foulkes estimate   =   -6604.43074734 Ry
     estimated scf accuracy    <       0.00024622 Ry

     iteration # 15     ecut=    50.00 Ry     beta=0.70
     Davidson diagonalization with overlap
     ethr =  3.46E-08,  avg # of iterations =  2.0

     negative rho (up, down):  1.757E+00 0.000E+00

     total cpu time spent up to now is     6809.1 secs

     total energy              =   -6604.43070727 Ry
     Harris-Foulkes estimate   =   -6604.43073286 Ry
     estimated scf accuracy    <       0.00009731 Ry

     iteration # 16     ecut=    50.00 Ry     beta=0.70
     Davidson diagonalization with overlap
     ethr =  1.37E-08,  avg # of iterations =  2.0

     negative rho (up, down):  1.757E+00 0.000E+00

     total cpu time spent up to now is     7096.1 secs

     total energy              =   -6604.43071085 Ry
     Harris-Foulkes estimate   =   -6604.43072712 Ry
     estimated scf accuracy    <       0.00012467 Ry

     iteration # 17     ecut=    50.00 Ry     beta=0.70
     Davidson diagonalization with overlap
     ethr =  1.37E-08,  avg # of iterations =  1.0

     negative rho (up, down):  1.757E+00 0.000E+00

     total cpu time spent up to now is     7365.1 secs

     total energy              =   -6604.43071906 Ry
     Harris-Foulkes estimate   =   -6604.43072371 Ry
     estimated scf accuracy    <       0.00004166 Ry

     iteration # 18     ecut=    50.00 Ry     beta=0.70
     Davidson diagonalization with overlap
     ethr =  5.85E-09,  avg # of iterations =  1.0

     negative rho (up, down):  1.757E+00 0.000E+00

     total cpu time spent up to now is     7654.0 secs

     total energy              =   -6604.43072025 Ry
     Harris-Foulkes estimate   =   -6604.43072286 Ry
     estimated scf accuracy    <       0.00000989 Ry

     iteration # 19     ecut=    50.00 Ry     beta=0.70
     Davidson diagonalization with overlap
     ethr =  1.39E-09,  avg # of iterations =  2.0

     negative rho (up, down):  1.757E+00 0.000E+00

     total cpu time spent up to now is     7937.8 secs

     total energy              =   -6604.43072154 Ry
     Harris-Foulkes estimate   =   -6604.43072194 Ry
     estimated scf accuracy    <       0.00000160 Ry

     iteration # 20     ecut=    50.00 Ry     beta=0.70
     Davidson diagonalization with overlap
     ethr =  2.25E-10,  avg # of iterations =  2.0

     negative rho (up, down):  1.757E+00 0.000E+00

     total cpu time spent up to now is     8229.9 secs

     total energy              =   -6604.43072182 Ry
     Harris-Foulkes estimate   =   -6604.43072184 Ry
     estimated scf accuracy    <       0.00000019 Ry

     iteration # 21     ecut=    50.00 Ry     beta=0.70
     Davidson diagonalization with overlap
     ethr =  2.67E-11,  avg # of iterations =  2.8

     negative rho (up, down):  1.757E+00 0.000E+00

     total cpu time spent up to now is     8591.4 secs

     total energy              =   -6604.43072187 Ry
     Harris-Foulkes estimate   =   -6604.43072191 Ry
     estimated scf accuracy    <       0.00000027 Ry

     iteration # 22     ecut=    50.00 Ry     beta=0.70
     Davidson diagonalization with overlap
     ethr =  2.67E-11,  avg # of iterations =  2.0

     negative rho (up, down):  1.757E+00 0.000E+00

     total cpu time spent up to now is     8871.4 secs

     total energy              =   -6604.43072190 Ry
     Harris-Foulkes estimate   =   -6604.43072190 Ry
     estimated scf accuracy    <       0.00000001 Ry

     iteration # 23     ecut=    50.00 Ry     beta=0.70
     Davidson diagonalization with overlap
     ethr =  1.99E-12,  avg # of iterations =  3.5

     negative rho (up, down):  1.757E+00 0.000E+00

     total cpu time spent up to now is     9267.4 secs

     total energy              =   -6604.43072190 Ry
     Harris-Foulkes estimate   =   -6604.43072190 Ry
     estimated scf accuracy    <       0.00000003 Ry

     iteration # 24     ecut=    50.00 Ry     beta=0.70
     Davidson diagonalization with overlap
     ethr =  1.99E-12,  avg # of iterations =  2.8

     negative rho (up, down):  1.757E+00 0.000E+00

     total cpu time spent up to now is     9602.9 secs

     total energy              =   -6604.43072191 Ry
     Harris-Foulkes estimate   =   -6604.43072191 Ry
     estimated scf accuracy    <       0.00000002 Ry

     iteration # 25     ecut=    50.00 Ry     beta=0.70
     Davidson diagonalization with overlap
     ethr =  1.99E-12,  avg # of iterations =  2.4

     negative rho (up, down):  1.757E+00 0.000E+00

     total cpu time spent up to now is     9886.6 secs

     End of self-consistent calculation

          k = 0.2500 0.4330 0.1111 (136853 PWs)   bands (ev):

   -18.6217  -6.5596  -6.3823  -5.9881  -5.9866  -5.3093  -4.9774  -4.9769
    -4.9379  -4.9369  -4.5772  -4.5766  -4.4784  -4.4781  -4.4643  -4.4416
    -4.4194  -4.3112  -4.3101  -4.2865  -4.2432  -4.2427  -4.1747  -4.1740
    -4.1679  -4.1671  -4.1459  -4.1409  -4.1391  -4.0724  -4.0666  -4.0379
    -4.0373  -4.0256  -4.0252  -4.0020  -4.0019  -3.9794  -3.9711  -3.9709
    -3.9450  -3.8926  -3.8922  -3.8444  -3.8435  -3.7876  -3.7859  -3.7319
    -3.7308  -3.7299  -3.7296  -3.6942  -3.6589  -3.6572  -3.6487  -3.6478
    -3.6472  -3.6201  -3.6160  -3.6081  -3.5490  -3.5476  -3.5399  -3.5204
    -3.5130  -3.4415  -3.4405  -3.4111  -3.4065  -3.3811  -3.3793  -3.3653
    -3.3489  -3.2912  -3.2895  -3.2722  -3.2711  -3.2214  -3.2162  -3.2150
    -3.1758  -3.1476  -3.1446  -3.1368  -3.1356  -3.1247  -3.1235  -3.1161
    -3.1149  -3.1057  -3.0644  -3.0267  -3.0254  -3.0140  -3.0120  -2.9849
    -2.9785  -2.9757  -2.9556  -2.9133  -2.9084  -2.9026  -2.8656  -2.8542
    -2.8441  -2.8424  -2.8299  -2.8127  -2.7871  -2.7744  -2.7465  -2.7331
    -2.7210  -2.7159  -2.7024  -2.6919  -2.6522  -2.6479  -2.6175  -2.5964
    -2.5947  -2.5724  -2.5683  -2.5612  -2.5597  -2.5501  -2.5284  -2.5267
    -2.4824  -2.4817  -2.4808  -2.4657  -2.4643  -2.4577  -2.4503  -2.4477
    -2.4472  -2.4454  -2.4400  -2.4301  -2.4277  -2.4191  -2.3915  -2.3906
    -2.3897  -2.3879  -2.3867  -2.3844  -2.3827  -2.3561  -2.3556  -2.3409
    -2.3392  -2.3219  -2.3214  -2.3126  -2.3118  -2.3098  -2.3092  -2.2919
    -2.2891  -2.2875  -2.2865  -2.2721  -2.2451  -2.2444  -2.2041  -2.2036
    -2.1808  -2.1793  -2.1526  -2.1511  -2.1241  -2.1233  -2.1065  -2.1023
    -2.0747  -2.0547  -2.0524  -2.0485  -2.0452  -2.0437  -2.0360  -2.0341
    -2.0083  -2.0030  -1.9956  -1.9360  -1.9331  -1.9309  -1.9283  -1.9273
    -1.8951  -1.8733  -1.8722  -1.8458  -1.8441  -1.7867  -1.7849  -1.7550
    -1.7379  -1.7359  -1.6760  -1.6756  -1.6646  -1.6632  -1.6536  -1.6516
    -1.6481  -1.6400  -1.6383  -1.5840  -1.5819  -1.5726  -1.5710  -1.5698
    -1.5532  -1.5500  -1.5160  -1.5153  -1.4995  -1.4990  -1.4976  -1.4905
    -1.4850  -1.4794  -1.4750  -1.4573  -1.4562  -1.4178  -1.4136  -1.4060
    -1.4025  -1.3846  -1.3688  -1.3296  -1.3257  -1.3000  -1.2962  -1.2950
    -1.2661  -1.2159  -1.2148  -1.2124  -1.2113  -1.2081  -1.2056  -1.1978
    -1.1797  -1.1773  -1.1410  -1.1359  -1.1086  -1.1061  -1.1019  -1.1002
    -1.0939  -1.0793  -1.0775  -1.0754  -1.0729  -1.0713  -1.0369  -1.0342
    -1.0327  -1.0316  -1.0055  -1.0020  -0.9976  -0.9728  -0.9688  -0.9662
    -0.9197  -0.9138  -0.9107  -0.8791  -0.8693  -0.8602  -0.8587  -0.8536
    -0.8497  -0.8486  -0.8466  -0.8372  -0.8346  -0.8119  -0.8103  -0.8065
    -0.8050  -0.8040  -0.7736  -0.7666  -0.7654  -0.7558  -0.7407  -0.7351
    -0.7320  -0.7210  -0.6975  -0.6644  -0.6607  -0.6549  -0.6537  -0.6517
    -0.6484  -0.6333  -0.6269  -0.6233  -0.6184  -0.6169  -0.6163  -0.5921
    -0.5767  -0.5751  -0.5716  -0.5657  -0.5627  -0.5592  -0.5585  -0.5466
    -0.5402  -0.5393  -0.5225  -0.4978  -0.4966  -0.4887  -0.4844  -0.4835
    -0.4094  -0.4060  -0.4041  -0.4027  -0.3951  -0.3912  -0.3580  -0.3463
    -0.3452  -0.3138  -0.3132  -0.3100  -0.1945  -0.1899  -0.0905   0.3252
     0.3260   0.3293   0.3297   0.3919   0.3960   0.7763   0.7800   0.8205
     0.8219   0.9359   1.0116   1.1210   1.1252   1.3474   1.3508   1.9746
     1.9787   2.1362   2.1406   2.2728   2.2757   2.3747   2.3752   2.5291
     2.7660   2.7819   2.8913   3.1141   3.1193   3.1958   3.1983   3.2962
     3.3141   3.5181   3.5266   3.5685   3.7700   3.7726   3.8346   3.8371
     4.0895   4.0983   4.1020   4.3406   4.3792   4.3835   4.4280   4.7612
     4.7668   4.7935   4.9294   5.1012   5.1034   5.1651   5.1876   5.5397
     5.8156   5.8869   5.8924   5.8998   5.9235   5.9626   5.9660   6.0633
     6.0763   6.0961   6.1234   6.1329   6.1424   6.1622   6.1716   6.1843
     6.1898   6.4523   6.5877   6.7313   6.7565   6.7846   6.8398   6.8462
     6.8471   6.9536   7.0343

          k = 0.2500-0.1443 0.1111 (136898 PWs)   bands (ev):

   -18.6217  -6.6156  -6.5354  -5.8051  -5.5124  -5.4557  -5.4547  -4.9174
    -4.9169  -4.7854  -4.7847  -4.6298  -4.6009  -4.5375  -4.5052  -4.5030
    -4.4706  -4.4703  -4.3419  -4.3003  -4.2998  -4.2405  -4.2200  -4.2190
    -4.1168  -4.1166  -4.0804  -4.0801  -4.0800  -4.0538  -4.0318  -4.0316
    -3.9289  -3.9247  -3.9243  -3.9046  -3.8872  -3.8870  -3.8756  -3.8745
    -3.8626  -3.8322  -3.8314  -3.8308  -3.8305  -3.8000  -3.7985  -3.7804
    -3.7803  -3.7693  -3.7276  -3.7257  -3.6928  -3.6800  -3.6769  -3.6719
    -3.6717  -3.5976  -3.5975  -3.5642  -3.5614  -3.5596  -3.4921  -3.4918
    -3.4769  -3.4763  -3.4478  -3.4458  -3.4453  -3.4451  -3.2914  -3.2904
    -3.2678  -3.2661  -3.2615  -3.2447  -3.2439  -3.2202  -3.2186  -3.1696
    -3.1682  -3.1534  -3.1518  -3.1315  -3.0852  -3.0842  -3.0646  -3.0592
    -3.0585  -3.0201  -3.0177  -3.0114  -3.0097  -2.9961  -2.9937  -2.9560
    -2.9550  -2.9392  -2.9326  -2.9302  -2.9292  -2.9259  -2.8604  -2.8496
    -2.8477  -2.8207  -2.8181  -2.7899  -2.7569  -2.7425  -2.7281  -2.7186
    -2.7147  -2.7139  -2.7062  -2.6789  -2.6739  -2.6687  -2.6500  -2.6273
    -2.6261  -2.6169  -2.6050  -2.6021  -2.5936  -2.5929  -2.5900  -2.5869
    -2.5808  -2.5350  -2.5035  -2.5028  -2.4873  -2.4740  -2.4682  -2.4663
    -2.4603  -2.4589  -2.4572  -2.4285  -2.4275  -2.4259  -2.4180  -2.4175
    -2.4017  -2.3740  -2.3732  -2.3721  -2.3715  -2.3713  -2.3254  -2.2954
    -2.2942  -2.2936  -2.2876  -2.2778  -2.2654  -2.2643  -2.2483  -2.2482
    -2.2184  -2.2136  -2.2135  -2.1953  -2.1939  -2.1930  -2.1608  -2.1602
    -2.1231  -2.1173  -2.1132  -2.1103  -2.1092  -2.1036  -2.1031  -2.0996
    -2.0987  -2.0936  -2.0929  -2.0764  -2.0752  -1.9507  -1.9488  -1.9167
    -1.9107  -1.9100  -1.9037  -1.9032  -1.8878  -1.8865  -1.8841  -1.8828
    -1.8813  -1.8588  -1.8531  -1.8514  -1.8436  -1.8392  -1.8383  -1.8161
    -1.8151  -1.7872  -1.7868  -1.7567  -1.7557  -1.7449  -1.7365  -1.7191
    -1.7175  -1.7153  -1.6982  -1.6842  -1.6838  -1.6768  -1.6766  -1.6515
    -1.6507  -1.6337  -1.6334  -1.6004  -1.5992  -1.5912  -1.5422  -1.5414
    -1.5296  -1.5258  -1.5257  -1.5009  -1.4984  -1.4671  -1.4654  -1.4647
    -1.4311  -1.4217  -1.4205  -1.4050  -1.4041  -1.3798  -1.3771  -1.3765
    -1.3481  -1.3454  -1.3441  -1.2828  -1.2812  -1.2711  -1.2680  -1.2533
    -1.2525  -1.2394  -1.2389  -1.2210  -1.2081  -1.1814  -1.1802  -1.1690
    -1.1411  -1.1318  -1.1295  -1.1184  -1.1180  -1.1176  -1.1144  -1.1105
    -1.0964  -1.0692  -1.0680  -1.0566  -1.0536  -1.0524  -1.0514  -1.0309
    -1.0164  -1.0095  -0.9931  -0.9886  -0.8978  -0.8849  -0.8808  -0.8784
    -0.8762  -0.8689  -0.8683  -0.8552  -0.8452  -0.8297  -0.8269  -0.8144
    -0.8135  -0.8050  -0.7858  -0.7838  -0.7811  -0.7735  -0.7111  -0.7003
    -0.6984  -0.6656  -0.6622  -0.6593  -0.6542  -0.6532  -0.6527  -0.6422
    -0.6398  -0.6260  -0.6194  -0.5982  -0.5721  -0.5646  -0.5638  -0.5532
    -0.5484  -0.5409  -0.5404  -0.5381  -0.5367  -0.5272  -0.5205  -0.5156
    -0.5109  -0.4853  -0.4837  -0.4808  -0.4708  -0.4698  -0.4514  -0.4195
    -0.4175  -0.4099  -0.4069  -0.3426  -0.3410  -0.3058  -0.3054  -0.2479
    -0.2465  -0.2461  -0.2279  -0.2205   0.0088   0.0119   0.3543   0.3544
     0.4469   0.4511   0.6433   0.6600   0.6719   0.8015   0.8028   1.2345
     1.2349   1.2517   1.5159   1.5442   1.5448   1.8226   1.8292   1.8993
     1.8998   1.9270   1.9312   2.1550   2.1568   2.2454   2.2464   2.3275
     2.3854   2.3918   2.5484   2.6500   3.0827   3.0876   3.0908   3.0921
     3.1430   3.1469   3.4374   3.4391   3.7194   3.7252   3.8364   4.1343
     4.1742   4.1791   4.4007   4.4228   4.4769   4.4791   4.5709   4.6876
     4.6892   4.8041   4.8062   5.1087   5.1763   5.1814   5.3339   5.3728
     5.4481   5.5612   5.5668   5.5904   5.5948   5.6493   5.6575   5.7130
     5.8780   6.0599   6.2605   6.2846   6.3626   6.3966   6.3998   6.4115
     6.4142   6.5550   6.6421   6.6549   6.6659   6.8461   6.8878   6.9165
     6.9422   7.0227   7.1150

          k =-0.2500-0.4330 0.1111 (136853 PWs)   bands (ev):

   -18.6217  -6.5596  -6.3823  -5.9881  -5.9866  -5.3093  -4.9774  -4.9769
    -4.9379  -4.9369  -4.5772  -4.5766  -4.4784  -4.4781  -4.4643  -4.4416
    -4.4194  -4.3112  -4.3101  -4.2865  -4.2432  -4.2427  -4.1747  -4.1740
    -4.1679  -4.1671  -4.1459  -4.1409  -4.1391  -4.0724  -4.0666  -4.0379
    -4.0373  -4.0256  -4.0252  -4.0020  -4.0019  -3.9794  -3.9711  -3.9709
    -3.9450  -3.8926  -3.8922  -3.8444  -3.8435  -3.7876  -3.7859  -3.7319
    -3.7308  -3.7299  -3.7296  -3.6942  -3.6589  -3.6572  -3.6487  -3.6478
    -3.6472  -3.6201  -3.6160  -3.6081  -3.5490  -3.5476  -3.5399  -3.5204
    -3.5130  -3.4415  -3.4405  -3.4111  -3.4065  -3.3811  -3.3793  -3.3653
    -3.3489  -3.2912  -3.2895  -3.2722  -3.2711  -3.2214  -3.2162  -3.2150
    -3.1758  -3.1476  -3.1446  -3.1368  -3.1356  -3.1247  -3.1235  -3.1161
    -3.1149  -3.1057  -3.0644  -3.0267  -3.0254  -3.0139  -3.0120  -2.9849
    -2.9785  -2.9757  -2.9556  -2.9133  -2.9084  -2.9026  -2.8656  -2.8542
    -2.8441  -2.8424  -2.8299  -2.8127  -2.7871  -2.7744  -2.7465  -2.7331
    -2.7210  -2.7159  -2.7024  -2.6919  -2.6522  -2.6479  -2.6175  -2.5964
    -2.5947  -2.5724  -2.5683  -2.5612  -2.5597  -2.5501  -2.5284  -2.5267
    -2.4824  -2.4817  -2.4808  -2.4657  -2.4643  -2.4577  -2.4503  -2.4477
    -2.4472  -2.4454  -2.4400  -2.4301  -2.4277  -2.4191  -2.3915  -2.3906
    -2.3897  -2.3879  -2.3867  -2.3844  -2.3827  -2.3561  -2.3556  -2.3409
    -2.3392  -2.3219  -2.3214  -2.3126  -2.3118  -2.3098  -2.3093  -2.2919
    -2.2891  -2.2875  -2.2865  -2.2721  -2.2451  -2.2444  -2.2041  -2.2036
    -2.1808  -2.1793  -2.1526  -2.1511  -2.1241  -2.1233  -2.1065  -2.1023
    -2.0747  -2.0547  -2.0524  -2.0485  -2.0452  -2.0437  -2.0360  -2.0341
    -2.0083  -2.0030  -1.9956  -1.9360  -1.9331  -1.9309  -1.9283  -1.9273
    -1.8951  -1.8733  -1.8722  -1.8458  -1.8441  -1.7867  -1.7849  -1.7550
    -1.7379  -1.7359  -1.6760  -1.6756  -1.6646  -1.6632  -1.6536  -1.6516
    -1.6481  -1.6400  -1.6383  -1.5840  -1.5819  -1.5726  -1.5710  -1.5698
    -1.5532  -1.5500  -1.5160  -1.5153  -1.4995  -1.4990  -1.4976  -1.4905
    -1.4850  -1.4794  -1.4750  -1.4573  -1.4562  -1.4178  -1.4136  -1.4060
    -1.4025  -1.3846  -1.3688  -1.3296  -1.3257  -1.3000  -1.2962  -1.2950
    -1.2661  -1.2159  -1.2148  -1.2124  -1.2113  -1.2081  -1.2056  -1.1978
    -1.1797  -1.1773  -1.1410  -1.1359  -1.1086  -1.1061  -1.1019  -1.1002
    -1.0939  -1.0793  -1.0775  -1.0754  -1.0729  -1.0713  -1.0369  -1.0342
    -1.0327  -1.0316  -1.0055  -1.0020  -0.9976  -0.9728  -0.9688  -0.9662
    -0.9197  -0.9138  -0.9107  -0.8791  -0.8693  -0.8602  -0.8587  -0.8536
    -0.8497  -0.8486  -0.8466  -0.8372  -0.8346  -0.8119  -0.8103  -0.8065
    -0.8050  -0.8040  -0.7736  -0.7666  -0.7654  -0.7558  -0.7407  -0.7351
    -0.7320  -0.7210  -0.6975  -0.6644  -0.6607  -0.6549  -0.6537  -0.6517
    -0.6484  -0.6333  -0.6269  -0.6233  -0.6184  -0.6169  -0.6163  -0.5921
    -0.5767  -0.5751  -0.5716  -0.5657  -0.5627  -0.5592  -0.5585  -0.5466
    -0.5402  -0.5393  -0.5225  -0.4978  -0.4966  -0.4887  -0.4844  -0.4835
    -0.4094  -0.4060  -0.4041  -0.4027  -0.3951  -0.3912  -0.3580  -0.3463
    -0.3452  -0.3138  -0.3132  -0.3100  -0.1945  -0.1899  -0.0905   0.3252
     0.3260   0.3293   0.3297   0.3919   0.3960   0.7763   0.7800   0.8205
     0.8219   0.9359   1.0116   1.1210   1.1252   1.3474   1.3508   1.9746
     1.9787   2.1362   2.1406   2.2728   2.2757   2.3747   2.3752   2.5291
     2.7660   2.7819   2.8913   3.1141   3.1193   3.1958   3.1983   3.2962
     3.3141   3.5181   3.5266   3.5685   3.7700   3.7726   3.8346   3.8371
     4.0895   4.0983   4.1020   4.3406   4.3792   4.3835   4.4280   4.7612
     4.7668   4.7935   4.9294   5.1012   5.1034   5.1651   5.1876   5.5397
     5.8150   5.8869   5.8923   5.8998   5.9235   5.9625   5.9660   6.0630
     6.0762   6.0960   6.1240   6.1329   6.1443   6.1623   6.1716   6.1844
     6.1900   6.4537   6.5883   6.7157   6.7573   6.7843   6.8398   6.8456
     6.8466   6.9536   7.0416

          k =-0.2500 0.4330-0.1111 (136853 PWs)   bands (ev):

   -18.6217  -6.5596  -6.3823  -5.9879  -5.9868  -5.3093  -4.9781  -4.9763
    -4.9388  -4.9361  -4.5775  -4.5762  -4.4783  -4.4781  -4.4641  -4.4416
    -4.4194  -4.3122  -4.3094  -4.2866  -4.2431  -4.2429  -4.1747  -4.1737
    -4.1696  -4.1662  -4.1458  -4.1412  -4.1389  -4.0731  -4.0658  -4.0384
    -4.0366  -4.0255  -4.0252  -4.0020  -4.0018  -3.9794  -3.9712  -3.9708
    -3.9448  -3.8928  -3.8919  -3.8451  -3.8428  -3.7868  -3.7858  -3.7314
    -3.7306  -3.7300  -3.7293  -3.6943  -3.6586  -3.6570  -3.6490  -3.6482
    -3.6469  -3.6218  -3.6162  -3.6082  -3.5490  -3.5473  -3.5408  -3.5201
    -3.5128  -3.4431  -3.4398  -3.4122  -3.4062  -3.3812  -3.3786  -3.3653
    -3.3488  -3.2907  -3.2897  -3.2725  -3.2709  -3.2205  -3.2166  -3.2149
    -3.1756  -3.1473  -3.1452  -3.1370  -3.1354  -3.1254  -3.1238  -3.1156
    -3.1142  -3.1058  -3.0641  -3.0270  -3.0248  -3.0158  -3.0112  -2.9852
    -2.9806  -2.9749  -2.9554  -2.9120  -2.9081  -2.9006  -2.8644  -2.8540
    -2.8441  -2.8419  -2.8275  -2.8143  -2.7895  -2.7772  -2.7465  -2.7311
    -2.7229  -2.7161  -2.7022  -2.6889  -2.6525  -2.6477  -2.6171  -2.5964
    -2.5924  -2.5734  -2.5718  -2.5614  -2.5572  -2.5501  -2.5288  -2.5266
    -2.4828  -2.4814  -2.4807  -2.4661  -2.4641  -2.4578  -2.4500  -2.4477
    -2.4469  -2.4457  -2.4400  -2.4308  -2.4269  -2.4179  -2.3915  -2.3900
    -2.3896  -2.3878  -2.3875  -2.3846  -2.3821  -2.3573  -2.3557  -2.3414
    -2.3392  -2.3219  -2.3215  -2.3128  -2.3119  -2.3109  -2.3087  -2.2925
    -2.2888  -2.2877  -2.2855  -2.2726  -2.2456  -2.2446  -2.2050  -2.2028
    -2.1811  -2.1790  -2.1521  -2.1499  -2.1253  -2.1229  -2.1072  -2.1022
    -2.0746  -2.0559  -2.0527  -2.0471  -2.0455  -2.0426  -2.0359  -2.0341
    -2.0084  -2.0023  -1.9955  -1.9360  -1.9345  -1.9304  -1.9292  -1.9278
    -1.8943  -1.8739  -1.8715  -1.8470  -1.8437  -1.7870  -1.7843  -1.7563
    -1.7366  -1.7356  -1.6764  -1.6750  -1.6649  -1.6627  -1.6539  -1.6512
    -1.6483  -1.6403  -1.6382  -1.5836  -1.5810  -1.5737  -1.5707  -1.5695
    -1.5536  -1.5494  -1.5163  -1.5157  -1.4999  -1.4983  -1.4979  -1.4904
    -1.4868  -1.4796  -1.4748  -1.4579  -1.4553  -1.4178  -1.4134  -1.4059
    -1.4025  -1.3847  -1.3687  -1.3296  -1.3252  -1.3001  -1.2961  -1.2954
    -1.2660  -1.2152  -1.2136  -1.2127  -1.2116  -1.2071  -1.2049  -1.1973
    -1.1802  -1.1774  -1.1413  -1.1355  -1.1110  -1.1056  -1.1023  -1.0995
    -1.0938  -1.0815  -1.0775  -1.0756  -1.0725  -1.0717  -1.0362  -1.0332
    -1.0318  -1.0314  -1.0062  -1.0011  -0.9969  -0.9735  -0.9703  -0.9632
    -0.9232  -0.9197  -0.9108  -0.8807  -0.8698  -0.8595  -0.8565  -0.8538
    -0.8498  -0.8484  -0.8460  -0.8368  -0.8345  -0.8119  -0.8098  -0.8067
    -0.8056  -0.8031  -0.7680  -0.7663  -0.7602  -0.7552  -0.7494  -0.7353
    -0.7318  -0.7211  -0.6835  -0.6645  -0.6591  -0.6536  -0.6529  -0.6519
    -0.6495  -0.6444  -0.6265  -0.6235  -0.6190  -0.6175  -0.6159  -0.5968
    -0.5760  -0.5753  -0.5729  -0.5651  -0.5625  -0.5594  -0.5521  -0.5434
    -0.5396  -0.5394  -0.5330  -0.4973  -0.4957  -0.4894  -0.4847  -0.4803
    -0.4098  -0.4054  -0.4038  -0.4029  -0.3949  -0.3937  -0.3584  -0.3460
    -0.3454  -0.3153  -0.3135  -0.3093  -0.1947  -0.1879  -0.0895   0.3254
     0.3260   0.3291   0.3297   0.3907   0.3945   0.7767   0.7792   0.8199
     0.8225   0.9369   1.0129   1.1201   1.1283   1.3436   1.3542   1.9742
     1.9777   2.1357   2.1415   2.2698   2.2772   2.3745   2.3753   2.5289
     2.7666   2.7824   2.8920   3.1135   3.1211   3.1951   3.1990   3.2964
     3.3142   3.5108   3.5332   3.5688   3.7696   3.7732   3.8315   3.8391
     4.0896   4.0971   4.1036   4.3411   4.3779   4.3840   4.4280   4.7611
     4.7674   4.7928   4.9270   5.1004   5.1040   5.1630   5.1912   5.5432
     5.8002   5.8840   5.8923   5.9005   5.9389   5.9643   5.9659   6.0580
     6.0719   6.0982   6.1260   6.1339   6.1367   6.1603   6.1715   6.1846
     6.1907   6.4493   6.6029   6.7178   6.7576   6.8006   6.8381   6.8461
     6.8493   6.9543   7.0424

          k = 0.2500-0.4330-0.1111 (136853 PWs)   bands (ev):

   -18.6217  -6.5596  -6.3823  -5.9879  -5.9868  -5.3093  -4.9781  -4.9763
    -4.9388  -4.9361  -4.5775  -4.5762  -4.4783  -4.4781  -4.4641  -4.4416
    -4.4194  -4.3122  -4.3094  -4.2866  -4.2431  -4.2429  -4.1747  -4.1737
    -4.1696  -4.1662  -4.1458  -4.1412  -4.1389  -4.0731  -4.0658  -4.0384
    -4.0366  -4.0255  -4.0252  -4.0020  -4.0018  -3.9794  -3.9712  -3.9708
    -3.9448  -3.8928  -3.8919  -3.8451  -3.8428  -3.7868  -3.7858  -3.7314
    -3.7306  -3.7300  -3.7293  -3.6943  -3.6586  -3.6570  -3.6490  -3.6482
    -3.6469  -3.6218  -3.6162  -3.6082  -3.5490  -3.5473  -3.5408  -3.5201
    -3.5128  -3.4431  -3.4398  -3.4122  -3.4062  -3.3812  -3.3786  -3.3653
    -3.3488  -3.2907  -3.2897  -3.2725  -3.2709  -3.2205  -3.2166  -3.2149
    -3.1756  -3.1473  -3.1452  -3.1370  -3.1354  -3.1254  -3.1238  -3.1156
    -3.1142  -3.1058  -3.0641  -3.0270  -3.0248  -3.0158  -3.0112  -2.9852
    -2.9806  -2.9749  -2.9554  -2.9120  -2.9081  -2.9006  -2.8644  -2.8540
    -2.8441  -2.8419  -2.8275  -2.8143  -2.7895  -2.7772  -2.7465  -2.7311
    -2.7229  -2.7161  -2.7022  -2.6889  -2.6525  -2.6477  -2.6171  -2.5964
    -2.5924  -2.5734  -2.5718  -2.5614  -2.5572  -2.5501  -2.5288  -2.5266
    -2.4828  -2.4814  -2.4807  -2.4661  -2.4641  -2.4578  -2.4500  -2.4477
    -2.4469  -2.4457  -2.4400  -2.4308  -2.4269  -2.4179  -2.3915  -2.3900
    -2.3896  -2.3878  -2.3875  -2.3846  -2.3821  -2.3573  -2.3557  -2.3414
    -2.3392  -2.3220  -2.3215  -2.3128  -2.3119  -2.3109  -2.3087  -2.2925
    -2.2888  -2.2877  -2.2855  -2.2726  -2.2456  -2.2446  -2.2050  -2.2028
    -2.1811  -2.1790  -2.1521  -2.1499  -2.1253  -2.1229  -2.1072  -2.1022
    -2.0746  -2.0559  -2.0527  -2.0471  -2.0455  -2.0426  -2.0359  -2.0341
    -2.0084  -2.0023  -1.9955  -1.9360  -1.9345  -1.9304  -1.9292  -1.9278
    -1.8943  -1.8739  -1.8715  -1.8470  -1.8437  -1.7870  -1.7843  -1.7563
    -1.7366  -1.7356  -1.6764  -1.6750  -1.6649  -1.6627  -1.6539  -1.6512
    -1.6483  -1.6403  -1.6382  -1.5836  -1.5810  -1.5737  -1.5707  -1.5695
    -1.5536  -1.5494  -1.5163  -1.5157  -1.4999  -1.4983  -1.4979  -1.4904
    -1.4868  -1.4796  -1.4748  -1.4579  -1.4553  -1.4178  -1.4134  -1.4059
    -1.4025  -1.3847  -1.3687  -1.3296  -1.3252  -1.3001  -1.2961  -1.2954
    -1.2660  -1.2152  -1.2136  -1.2127  -1.2116  -1.2071  -1.2049  -1.1973
    -1.1802  -1.1774  -1.1413  -1.1355  -1.1110  -1.1056  -1.1023  -1.0995
    -1.0938  -1.0815  -1.0775  -1.0756  -1.0725  -1.0717  -1.0362  -1.0332
    -1.0318  -1.0314  -1.0062  -1.0011  -0.9969  -0.9735  -0.9703  -0.9632
    -0.9232  -0.9197  -0.9108  -0.8807  -0.8698  -0.8595  -0.8565  -0.8538
    -0.8498  -0.8484  -0.8460  -0.8368  -0.8345  -0.8119  -0.8098  -0.8067
    -0.8056  -0.8031  -0.7680  -0.7663  -0.7602  -0.7552  -0.7494  -0.7353
    -0.7318  -0.7211  -0.6835  -0.6645  -0.6591  -0.6536  -0.6529  -0.6519
    -0.6495  -0.6444  -0.6265  -0.6235  -0.6190  -0.6175  -0.6159  -0.5968
    -0.5760  -0.5753  -0.5729  -0.5651  -0.5625  -0.5594  -0.5521  -0.5434
    -0.5396  -0.5394  -0.5330  -0.4973  -0.4957  -0.4894  -0.4847  -0.4803
    -0.4098  -0.4054  -0.4038  -0.4029  -0.3949  -0.3937  -0.3584  -0.3460
    -0.3453  -0.3153  -0.3135  -0.3093  -0.1947  -0.1879  -0.0895   0.3254
     0.3260   0.3291   0.3297   0.3907   0.3945   0.7767   0.7792   0.8199
     0.8225   0.9369   1.0129   1.1201   1.1283   1.3436   1.3542   1.9742
     1.9777   2.1357   2.1415   2.2698   2.2772   2.3745   2.3753   2.5289
     2.7666   2.7824   2.8920   3.1135   3.1211   3.1951   3.1990   3.2964
     3.3142   3.5108   3.5332   3.5688   3.7696   3.7732   3.8315   3.8391
     4.0896   4.0971   4.1036   4.3411   4.3779   4.3840   4.4280   4.7611
     4.7674   4.7928   4.9270   5.1004   5.1040   5.1630   5.1912   5.5432
     5.8003   5.8840   5.8923   5.9005   5.9389   5.9643   5.9659   6.0580
     6.0719   6.0982   6.1260   6.1337   6.1363   6.1602   6.1718   6.1846
     6.1907   6.4492   6.6026   6.7198   6.7584   6.8006   6.8381   6.8460
     6.8500   6.9543   7.0390

          k = 0.5000 0.0000 0.1111 (136853 PWs)   bands (ev):

   -18.6217  -6.5596  -6.3823  -5.9892  -5.9855  -5.3093  -4.9777  -4.9767
    -4.9398  -4.9351  -4.5775  -4.5763  -4.4784  -4.4781  -4.4642  -4.4416
    -4.4194  -4.3117  -4.3098  -4.2865  -4.2432  -4.2428  -4.1746  -4.1740
    -4.1678  -4.1672  -4.1458  -4.1411  -4.1390  -4.0724  -4.0665  -4.0384
    -4.0365  -4.0254  -4.0253  -4.0020  -4.0019  -3.9794  -3.9712  -3.9709
    -3.9451  -3.8927  -3.8923  -3.8450  -3.8429  -3.7877  -3.7859  -3.7320
    -3.7306  -3.7299  -3.7296  -3.6943  -3.6591  -3.6573  -3.6487  -3.6480
    -3.6470  -3.6195  -3.6163  -3.6082  -3.5491  -3.5476  -3.5396  -3.5203
    -3.5127  -3.4417  -3.4406  -3.4110  -3.4062  -3.3813  -3.3788  -3.3652
    -3.3490  -3.2913  -3.2898  -3.2717  -3.2712  -3.2216  -3.2161  -3.2151
    -3.1755  -3.1473  -3.1449  -3.1375  -3.1349  -3.1250  -3.1237  -3.1155
    -3.1147  -3.1058  -3.0642  -3.0272  -3.0251  -3.0137  -3.0119  -2.9849
    -2.9781  -2.9759  -2.9557  -2.9146  -2.9077  -2.9035  -2.8655  -2.8541
    -2.8451  -2.8417  -2.8309  -2.8126  -2.7862  -2.7722  -2.7461  -2.7334
    -2.7205  -2.7160  -2.7024  -2.6936  -2.6523  -2.6476  -2.6175  -2.5967
    -2.5954  -2.5725  -2.5677  -2.5612  -2.5595  -2.5502  -2.5282  -2.5269
    -2.4826  -2.4814  -2.4808  -2.4664  -2.4637  -2.4578  -2.4501  -2.4477
    -2.4472  -2.4454  -2.4401  -2.4307  -2.4270  -2.4199  -2.3913  -2.3904
    -2.3896  -2.3881  -2.3870  -2.3847  -2.3826  -2.3561  -2.3557  -2.3406
    -2.3389  -2.3220  -2.3214  -2.3125  -2.3117  -2.3104  -2.3084  -2.2926
    -2.2886  -2.2878  -2.2861  -2.2723  -2.2452  -2.2448  -2.2048  -2.2030
    -2.1814  -2.1789  -2.1524  -2.1513  -2.1239  -2.1228  -2.1064  -2.1022
    -2.0746  -2.0542  -2.0525  -2.0483  -2.0452  -2.0430  -2.0359  -2.0340
    -2.0083  -2.0027  -1.9955  -1.9362  -1.9338  -1.9312  -1.9286  -1.9274
    -1.8954  -1.8736  -1.8718  -1.8461  -1.8442  -1.7868  -1.7845  -1.7556
    -1.7373  -1.7358  -1.6763  -1.6750  -1.6648  -1.6629  -1.6539  -1.6515
    -1.6482  -1.6402  -1.6383  -1.5838  -1.5816  -1.5729  -1.5712  -1.5700
    -1.5529  -1.5498  -1.5163  -1.5155  -1.4993  -1.4990  -1.4977  -1.4903
    -1.4856  -1.4799  -1.4747  -1.4574  -1.4559  -1.4175  -1.4138  -1.4059
    -1.4024  -1.3846  -1.3687  -1.3300  -1.3253  -1.3001  -1.2961  -1.2952
    -1.2661  -1.2160  -1.2146  -1.2121  -1.2113  -1.2080  -1.2053  -1.1977
    -1.1801  -1.1770  -1.1408  -1.1359  -1.1092  -1.1063  -1.1019  -1.1002
    -1.0938  -1.0798  -1.0778  -1.0757  -1.0726  -1.0710  -1.0364  -1.0340
    -1.0322  -1.0316  -1.0054  -1.0017  -0.9973  -0.9733  -0.9691  -0.9653
    -0.9197  -0.9172  -0.9109  -0.8795  -0.8694  -0.8601  -0.8580  -0.8540
    -0.8495  -0.8485  -0.8465  -0.8367  -0.8346  -0.8117  -0.8101  -0.8066
    -0.8053  -0.8039  -0.7708  -0.7665  -0.7647  -0.7557  -0.7429  -0.7357
    -0.7318  -0.7211  -0.6928  -0.6643  -0.6604  -0.6545  -0.6538  -0.6516
    -0.6484  -0.6367  -0.6268  -0.6231  -0.6184  -0.6173  -0.6162  -0.5937
    -0.5764  -0.5751  -0.5724  -0.5655  -0.5624  -0.5592  -0.5552  -0.5458
    -0.5402  -0.5392  -0.5270  -0.4975  -0.4963  -0.4891  -0.4840  -0.4826
    -0.4093  -0.4060  -0.4041  -0.4027  -0.3951  -0.3923  -0.3582  -0.3462
    -0.3452  -0.3145  -0.3135  -0.3095  -0.1938  -0.1900  -0.0901   0.3252
     0.3261   0.3293   0.3296   0.3919   0.3948   0.7764   0.7797   0.8202
     0.8222   0.9363   1.0120   1.1209   1.1263   1.3451   1.3530   1.9747
     1.9780   2.1364   2.1406   2.2725   2.2755   2.3741   2.3757   2.5289
     2.7662   2.7822   2.8915   3.1130   3.1207   3.1952   3.1989   3.2961
     3.3141   3.5138   3.5308   3.5687   3.7697   3.7730   3.8352   3.8363
     4.0890   4.0985   4.1020   4.3411   4.3792   4.3830   4.4279   4.7611
     4.7672   4.7923   4.9293   5.1011   5.1035   5.1651   5.1881   5.5413
     5.8105   5.8871   5.8918   5.9004   5.9292   5.9631   5.9660   6.0614
     6.0752   6.0964   6.1237   6.1334   6.1394   6.1617   6.1709   6.1847
     6.1909   6.4509   6.5929   6.7272   6.7565   6.7912   6.8392   6.8456
     6.8482   6.9538   7.0372

          k =-0.5000 0.0000 0.1111 (136853 PWs)   bands (ev):

   -18.6217  -6.5596  -6.3823  -5.9892  -5.9855  -5.3093  -4.9777  -4.9767
    -4.9398  -4.9351  -4.5775  -4.5763  -4.4784  -4.4781  -4.4642  -4.4416
    -4.4194  -4.3117  -4.3098  -4.2865  -4.2432  -4.2428  -4.1746  -4.1740
    -4.1678  -4.1672  -4.1458  -4.1411  -4.1390  -4.0724  -4.0665  -4.0384
    -4.0365  -4.0254  -4.0253  -4.0020  -4.0019  -3.9794  -3.9712  -3.9709
    -3.9451  -3.8927  -3.8923  -3.8450  -3.8429  -3.7877  -3.7859  -3.7320
    -3.7306  -3.7299  -3.7296  -3.6943  -3.6591  -3.6573  -3.6486  -3.6480
    -3.6470  -3.6195  -3.6163  -3.6082  -3.5491  -3.5476  -3.5396  -3.5203
    -3.5127  -3.4417  -3.4406  -3.4110  -3.4062  -3.3813  -3.3788  -3.3652
    -3.3490  -3.2913  -3.2898  -3.2717  -3.2712  -3.2216  -3.2161  -3.2151
    -3.1755  -3.1473  -3.1449  -3.1375  -3.1349  -3.1250  -3.1237  -3.1155
    -3.1147  -3.1058  -3.0642  -3.0272  -3.0251  -3.0137  -3.0119  -2.9849
    -2.9781  -2.9759  -2.9557  -2.9146  -2.9077  -2.9035  -2.8655  -2.8541
    -2.8451  -2.8417  -2.8309  -2.8126  -2.7862  -2.7721  -2.7461  -2.7334
    -2.7205  -2.7160  -2.7024  -2.6936  -2.6523  -2.6476  -2.6175  -2.5967
    -2.5953  -2.5725  -2.5677  -2.5612  -2.5595  -2.5502  -2.5282  -2.5269
    -2.4826  -2.4814  -2.4808  -2.4664  -2.4637  -2.4578  -2.4501  -2.4477
    -2.4472  -2.4454  -2.4401  -2.4307  -2.4270  -2.4199  -2.3913  -2.3904
    -2.3896  -2.3881  -2.3870  -2.3847  -2.3826  -2.3561  -2.3557  -2.3406
    -2.3389  -2.3220  -2.3214  -2.3125  -2.3117  -2.3104  -2.3084  -2.2926
    -2.2886  -2.2878  -2.2861  -2.2723  -2.2452  -2.2448  -2.2048  -2.2030
    -2.1814  -2.1789  -2.1524  -2.1513  -2.1239  -2.1228  -2.1064  -2.1022
    -2.0746  -2.0542  -2.0525  -2.0483  -2.0452  -2.0430  -2.0359  -2.0340
    -2.0083  -2.0027  -1.9955  -1.9362  -1.9338  -1.9312  -1.9286  -1.9274
    -1.8954  -1.8736  -1.8718  -1.8461  -1.8442  -1.7868  -1.7845  -1.7556
    -1.7373  -1.7358  -1.6763  -1.6750  -1.6648  -1.6629  -1.6539  -1.6515
    -1.6482  -1.6402  -1.6383  -1.5838  -1.5816  -1.5729  -1.5712  -1.5700
    -1.5529  -1.5498  -1.5163  -1.5155  -1.4993  -1.4990  -1.4977  -1.4903
    -1.4856  -1.4799  -1.4747  -1.4574  -1.4559  -1.4175  -1.4138  -1.4059
    -1.4024  -1.3846  -1.3687  -1.3300  -1.3253  -1.3001  -1.2961  -1.2952
    -1.2661  -1.2160  -1.2146  -1.2121  -1.2113  -1.2080  -1.2053  -1.1977
    -1.1801  -1.1770  -1.1408  -1.1359  -1.1092  -1.1063  -1.1019  -1.1002
    -1.0938  -1.0798  -1.0778  -1.0757  -1.0726  -1.0710  -1.0364  -1.0340
    -1.0322  -1.0316  -1.0054  -1.0018  -0.9973  -0.9733  -0.9691  -0.9653
    -0.9197  -0.9172  -0.9109  -0.8795  -0.8694  -0.8601  -0.8580  -0.8540
    -0.8495  -0.8485  -0.8465  -0.8367  -0.8346  -0.8117  -0.8101  -0.8066
    -0.8053  -0.8039  -0.7708  -0.7665  -0.7647  -0.7557  -0.7429  -0.7357
    -0.7318  -0.7211  -0.6928  -0.6643  -0.6604  -0.6545  -0.6538  -0.6516
    -0.6484  -0.6367  -0.6268  -0.6231  -0.6184  -0.6173  -0.6162  -0.5937
    -0.5764  -0.5751  -0.5724  -0.5655  -0.5624  -0.5592  -0.5552  -0.5458
    -0.5402  -0.5392  -0.5270  -0.4975  -0.4963  -0.4891  -0.4840  -0.4826
    -0.4093  -0.4060  -0.4041  -0.4027  -0.3951  -0.3923  -0.3582  -0.3462
    -0.3452  -0.3145  -0.3135  -0.3095  -0.1938  -0.1900  -0.0901   0.3252
     0.3261   0.3293   0.3296   0.3919   0.3948   0.7764   0.7797   0.8202
     0.8222   0.9363   1.0120   1.1209   1.1263   1.3451   1.3530   1.9747
     1.9780   2.1364   2.1406   2.2725   2.2755   2.3741   2.3757   2.5289
     2.7662   2.7822   2.8915   3.1130   3.1207   3.1952   3.1989   3.2961
     3.3141   3.5138   3.5308   3.5687   3.7697   3.7730   3.8352   3.8363
     4.0890   4.0985   4.1020   4.3411   4.3792   4.3830   4.4279   4.7611
     4.7672   4.7923   4.9293   5.1011   5.1035   5.1651   5.1881   5.5414
     5.8100   5.8871   5.8918   5.9004   5.9291   5.9631   5.9660   6.0612
     6.0752   6.0964   6.1241   6.1335   6.1410   6.1620   6.1706   6.1848
     6.1911   6.4520   6.5936   6.7157   6.7554   6.7914   6.8391   6.8453
     6.8469   6.9537   7.0399

          k =-0.2500 0.1443 0.1111 (136898 PWs)   bands (ev):

   -18.6217  -6.6156  -6.5354  -5.8051  -5.5124  -5.4557  -5.4547  -4.9174
    -4.9169  -4.7854  -4.7847  -4.6297  -4.6009  -4.5375  -4.5052  -4.5030
    -4.4706  -4.4703  -4.3419  -4.3003  -4.2998  -4.2405  -4.2200  -4.2190
    -4.1168  -4.1166  -4.0804  -4.0801  -4.0800  -4.0538  -4.0318  -4.0316
    -3.9289  -3.9247  -3.9243  -3.9046  -3.8872  -3.8870  -3.8757  -3.8745
    -3.8626  -3.8322  -3.8314  -3.8308  -3.8305  -3.8000  -3.7985  -3.7804
    -3.7803  -3.7693  -3.7276  -3.7257  -3.6928  -3.6800  -3.6769  -3.6719
    -3.6717  -3.5976  -3.5975  -3.5642  -3.5614  -3.5596  -3.4921  -3.4918
    -3.4769  -3.4763  -3.4478  -3.4458  -3.4453  -3.4451  -3.2914  -3.2904
    -3.2678  -3.2661  -3.2615  -3.2447  -3.2439  -3.2202  -3.2186  -3.1696
    -3.1682  -3.1534  -3.1518  -3.1316  -3.0852  -3.0842  -3.0646  -3.0592
    -3.0585  -3.0201  -3.0177  -3.0114  -3.0097  -2.9961  -2.9937  -2.9560
    -2.9550  -2.9392  -2.9326  -2.9302  -2.9292  -2.9259  -2.8604  -2.8496
    -2.8477  -2.8207  -2.8181  -2.7899  -2.7569  -2.7425  -2.7281  -2.7186
    -2.7147  -2.7139  -2.7062  -2.6789  -2.6739  -2.6687  -2.6500  -2.6273
    -2.6261  -2.6169  -2.6050  -2.6021  -2.5936  -2.5929  -2.5900  -2.5869
    -2.5808  -2.5350  -2.5035  -2.5028  -2.4873  -2.4740  -2.4682  -2.4663
    -2.4603  -2.4589  -2.4572  -2.4285  -2.4275  -2.4259  -2.4180  -2.4175
    -2.4017  -2.3740  -2.3732  -2.3721  -2.3715  -2.3713  -2.3254  -2.2954
    -2.2942  -2.2936  -2.2876  -2.2778  -2.2654  -2.2643  -2.2483  -2.2482
    -2.2184  -2.2136  -2.2135  -2.1953  -2.1939  -2.1930  -2.1608  -2.1602
    -2.1231  -2.1172  -2.1132  -2.1103  -2.1092  -2.1036  -2.1031  -2.0996
    -2.0987  -2.0936  -2.0929  -2.0764  -2.0752  -1.9507  -1.9488  -1.9167
    -1.9107  -1.9100  -1.9037  -1.9032  -1.8878  -1.8865  -1.8841  -1.8828
    -1.8813  -1.8588  -1.8531  -1.8514  -1.8436  -1.8392  -1.8383  -1.8161
    -1.8151  -1.7872  -1.7868  -1.7567  -1.7557  -1.7449  -1.7365  -1.7191
    -1.7175  -1.7153  -1.6982  -1.6842  -1.6838  -1.6768  -1.6766  -1.6515
    -1.6507  -1.6337  -1.6334  -1.6004  -1.5992  -1.5912  -1.5422  -1.5414
    -1.5296  -1.5258  -1.5257  -1.5009  -1.4984  -1.4671  -1.4654  -1.4647
    -1.4311  -1.4217  -1.4205  -1.4050  -1.4041  -1.3798  -1.3771  -1.3765
    -1.3481  -1.3454  -1.3441  -1.2828  -1.2812  -1.2711  -1.2680  -1.2533
    -1.2525  -1.2394  -1.2389  -1.2210  -1.2081  -1.1814  -1.1802  -1.1690
    -1.1411  -1.1318  -1.1295  -1.1184  -1.1180  -1.1176  -1.1144  -1.1105
    -1.0964  -1.0692  -1.0680  -1.0566  -1.0536  -1.0524  -1.0513  -1.0309
    -1.0164  -1.0095  -0.9931  -0.9886  -0.8978  -0.8849  -0.8808  -0.8784
    -0.8762  -0.8689  -0.8683  -0.8552  -0.8452  -0.8297  -0.8269  -0.8144
    -0.8135  -0.8050  -0.7858  -0.7838  -0.7811  -0.7735  -0.7111  -0.7003
    -0.6984  -0.6656  -0.6622  -0.6593  -0.6542  -0.6533  -0.6527  -0.6422
    -0.6398  -0.6260  -0.6194  -0.5982  -0.5721  -0.5646  -0.5638  -0.5532
    -0.5484  -0.5409  -0.5404  -0.5381  -0.5367  -0.5272  -0.5205  -0.5156
    -0.5109  -0.4853  -0.4837  -0.4808  -0.4708  -0.4698  -0.4514  -0.4195
    -0.4175  -0.4100  -0.4069  -0.3426  -0.3410  -0.3058  -0.3054  -0.2479
    -0.2465  -0.2461  -0.2279  -0.2205   0.0088   0.0119   0.3543   0.3544
     0.4469   0.4511   0.6433   0.6600   0.6719   0.8015   0.8028   1.2345
     1.2349   1.2517   1.5159   1.5442   1.5448   1.8226   1.8292   1.8993
     1.8998   1.9270   1.9312   2.1550   2.1568   2.2454   2.2464   2.3275
     2.3854   2.3918   2.5484   2.6500   3.0827   3.0876   3.0908   3.0921
     3.1430   3.1469   3.4374   3.4391   3.7194   3.7252   3.8364   4.1343
     4.1742   4.1791   4.4007   4.4228   4.4769   4.4791   4.5709   4.6876
     4.6892   4.8041   4.8062   5.1087   5.1763   5.1814   5.3339   5.3728
     5.4481   5.5612   5.5668   5.5904   5.5948   5.6493   5.6575   5.7130
     5.8772   6.0608   6.2606   6.2854   6.3633   6.3966   6.3998   6.4115
     6.4143   6.5532   6.6428   6.6544   6.6648   6.8484   6.8885   6.9163
     6.9422   7.0206   7.1069

          k =-0.2500-0.1443-0.1111 (136898 PWs)   bands (ev):

   -18.6217  -6.6156  -6.5355  -5.8052  -5.5124  -5.4556  -5.4548  -4.9172
    -4.9169  -4.7858  -4.7848  -4.6297  -4.6009  -4.5377  -4.5043  -4.5036
    -4.4705  -4.4703  -4.3418  -4.3001  -4.3001  -4.2406  -4.2196  -4.2193
    -4.1167  -4.1166  -4.0805  -4.0802  -4.0799  -4.0538  -4.0319  -4.0315
    -3.9291  -3.9246  -3.9245  -3.9047  -3.8873  -3.8870  -3.8755  -3.8746
    -3.8630  -3.8319  -3.8314  -3.8307  -3.8305  -3.7998  -3.7984  -3.7803
    -3.7803  -3.7700  -3.7271  -3.7251  -3.6937  -3.6795  -3.6771  -3.6718
    -3.6716  -3.5976  -3.5974  -3.5642  -3.5604  -3.5598  -3.4922  -3.4920
    -3.4767  -3.4764  -3.4475  -3.4460  -3.4455  -3.4453  -3.2912  -3.2904
    -3.2685  -3.2658  -3.2612  -3.2444  -3.2440  -3.2195  -3.2183  -3.1692
    -3.1683  -3.1532  -3.1520  -3.1318  -3.0860  -3.0835  -3.0651  -3.0594
    -3.0587  -3.0183  -3.0178  -3.0116  -3.0099  -2.9963  -2.9943  -2.9560
    -2.9548  -2.9400  -2.9322  -2.9297  -2.9293  -2.9258  -2.8567  -2.8496
    -2.8487  -2.8215  -2.8182  -2.7991  -2.7566  -2.7360  -2.7279  -2.7240
    -2.7142  -2.7099  -2.7056  -2.6785  -2.6717  -2.6686  -2.6506  -2.6275
    -2.6266  -2.6237  -2.6051  -2.6038  -2.5945  -2.5939  -2.5898  -2.5815
    -2.5808  -2.5350  -2.5036  -2.5024  -2.4861  -2.4738  -2.4683  -2.4664
    -2.4600  -2.4596  -2.4575  -2.4282  -2.4273  -2.4252  -2.4179  -2.4170
    -2.4017  -2.3739  -2.3735  -2.3725  -2.3719  -2.3712  -2.3255  -2.2955
    -2.2941  -2.2940  -2.2874  -2.2778  -2.2649  -2.2643  -2.2482  -2.2478
    -2.2183  -2.2136  -2.2134  -2.1954  -2.1938  -2.1923  -2.1607  -2.1605
    -2.1233  -2.1171  -2.1126  -2.1099  -2.1095  -2.1047  -2.1024  -2.1004
    -2.0993  -2.0930  -2.0923  -2.0767  -2.0762  -1.9493  -1.9489  -1.9160
    -1.9106  -1.9099  -1.9036  -1.9032  -1.8894  -1.8871  -1.8838  -1.8835
    -1.8793  -1.8588  -1.8522  -1.8513  -1.8429  -1.8399  -1.8373  -1.8167
    -1.8152  -1.7877  -1.7866  -1.7569  -1.7561  -1.7451  -1.7364  -1.7187
    -1.7181  -1.7149  -1.6982  -1.6844  -1.6839  -1.6770  -1.6767  -1.6509
    -1.6505  -1.6341  -1.6332  -1.6022  -1.5993  -1.5911  -1.5431  -1.5405
    -1.5272  -1.5264  -1.5256  -1.5013  -1.4981  -1.4689  -1.4659  -1.4637
    -1.4304  -1.4215  -1.4207  -1.4046  -1.4042  -1.3795  -1.3770  -1.3756
    -1.3483  -1.3446  -1.3443  -1.2843  -1.2812  -1.2707  -1.2688  -1.2546
    -1.2522  -1.2399  -1.2386  -1.2207  -1.2078  -1.1810  -1.1797  -1.1680
    -1.1375  -1.1311  -1.1303  -1.1183  -1.1180  -1.1163  -1.1125  -1.1113
    -1.0964  -1.0757  -1.0673  -1.0633  -1.0533  -1.0528  -1.0523  -1.0314
    -1.0129  -1.0104  -0.9897  -0.9891  -0.8976  -0.8858  -0.8792  -0.8782
    -0.8736  -0.8710  -0.8679  -0.8464  -0.8452  -0.8293  -0.8284  -0.8177
    -0.8136  -0.8056  -0.7887  -0.7830  -0.7822  -0.7734  -0.7161  -0.7001
    -0.6933  -0.6657  -0.6627  -0.6591  -0.6552  -0.6533  -0.6529  -0.6483
    -0.6393  -0.6235  -0.6095  -0.5981  -0.5843  -0.5653  -0.5628  -0.5535
    -0.5510  -0.5406  -0.5396  -0.5380  -0.5372  -0.5255  -0.5198  -0.5156
    -0.5101  -0.4851  -0.4828  -0.4800  -0.4706  -0.4671  -0.4511  -0.4194
    -0.4184  -0.4100  -0.4087  -0.3413  -0.3404  -0.3058  -0.3051  -0.2478
    -0.2464  -0.2459  -0.2317  -0.2205   0.0098   0.0154   0.3543   0.3545
     0.4477   0.4512   0.6400   0.6607   0.6718   0.8012   0.8028   1.2346
     1.2348   1.2517   1.5149   1.5442   1.5448   1.8250   1.8283   1.8990
     1.9002   1.9272   1.9308   2.1540   2.1576   2.2454   2.2464   2.3280
     2.3872   2.3897   2.5477   2.6492   3.0836   3.0879   3.0902   3.0923
     3.1422   3.1483   3.4372   3.4393   3.7203   3.7241   3.8361   4.1345
     4.1735   4.1784   4.4036   4.4193   4.4775   4.4792   4.5701   4.6883
     4.6895   4.8046   4.8064   5.1078   5.1779   5.1823   5.3430   5.3685
     5.4411   5.5602   5.5666   5.5913   5.5944   5.6521   5.6559   5.7172
     5.8788   6.0733   6.2569   6.2746   6.3465   6.3943   6.4012   6.4117
     6.4139   6.5597   6.6459   6.6552   6.6748   6.8558   6.8915   6.9124
     6.9295   7.0297   7.0989

          k = 0.2500 0.1443-0.1111 (136898 PWs)   bands (ev):

   -18.6217  -6.6156  -6.5354  -5.8052  -5.5124  -5.4556  -5.4548  -4.9172
    -4.9169  -4.7858  -4.7848  -4.6297  -4.6009  -4.5377  -4.5043  -4.5036
    -4.4705  -4.4703  -4.3418  -4.3001  -4.3001  -4.2406  -4.2196  -4.2193
    -4.1167  -4.1166  -4.0805  -4.0802  -4.0799  -4.0538  -4.0319  -4.0315
    -3.9291  -3.9246  -3.9245  -3.9047  -3.8873  -3.8870  -3.8755  -3.8746
    -3.8630  -3.8319  -3.8314  -3.8306  -3.8305  -3.7998  -3.7984  -3.7803
    -3.7803  -3.7700  -3.7271  -3.7251  -3.6937  -3.6795  -3.6771  -3.6718
    -3.6716  -3.5976  -3.5974  -3.5642  -3.5604  -3.5598  -3.4922  -3.4920
    -3.4767  -3.4764  -3.4475  -3.4460  -3.4455  -3.4453  -3.2912  -3.2904
    -3.2685  -3.2658  -3.2612  -3.2444  -3.2440  -3.2195  -3.2183  -3.1692
    -3.1683  -3.1532  -3.1520  -3.1318  -3.0860  -3.0835  -3.0651  -3.0594
    -3.0587  -3.0183  -3.0178  -3.0116  -3.0099  -2.9963  -2.9943  -2.9560
    -2.9548  -2.9400  -2.9322  -2.9297  -2.9293  -2.9258  -2.8567  -2.8496
    -2.8486  -2.8215  -2.8182  -2.7991  -2.7566  -2.7360  -2.7279  -2.7240
    -2.7142  -2.7099  -2.7056  -2.6785  -2.6717  -2.6686  -2.6506  -2.6275
    -2.6266  -2.6236  -2.6051  -2.6038  -2.5945  -2.5939  -2.5898  -2.5815
    -2.5808  -2.5350  -2.5036  -2.5024  -2.4861  -2.4738  -2.4683  -2.4664
    -2.4600  -2.4596  -2.4575  -2.4282  -2.4273  -2.4252  -2.4179  -2.4170
    -2.4017  -2.3739  -2.3735  -2.3725  -2.3719  -2.3712  -2.3255  -2.2955
    -2.2941  -2.2940  -2.2874  -2.2778  -2.2649  -2.2643  -2.2482  -2.2478
    -2.2183  -2.2136  -2.2134  -2.1954  -2.1938  -2.1923  -2.1607  -2.1605
    -2.1233  -2.1171  -2.1126  -2.1099  -2.1095  -2.1047  -2.1024  -2.1004
    -2.0993  -2.0930  -2.0923  -2.0767  -2.0762  -1.9493  -1.9489  -1.9160
    -1.9106  -1.9099  -1.9036  -1.9032  -1.8894  -1.8871  -1.8838  -1.8835
    -1.8793  -1.8588  -1.8522  -1.8513  -1.8429  -1.8399  -1.8373  -1.8167
    -1.8152  -1.7877  -1.7866  -1.7569  -1.7561  -1.7451  -1.7364  -1.7187
    -1.7181  -1.7149  -1.6982  -1.6844  -1.6839  -1.6770  -1.6767  -1.6509
    -1.6505  -1.6341  -1.6332  -1.6022  -1.5994  -1.5911  -1.5431  -1.5405
    -1.5272  -1.5264  -1.5256  -1.5013  -1.4981  -1.4689  -1.4659  -1.4637
    -1.4304  -1.4215  -1.4207  -1.4046  -1.4042  -1.3795  -1.3770  -1.3756
    -1.3483  -1.3446  -1.3443  -1.2843  -1.2812  -1.2707  -1.2688  -1.2546
    -1.2522  -1.2399  -1.2386  -1.2207  -1.2078  -1.1810  -1.1797  -1.1680
    -1.1375  -1.1311  -1.1303  -1.1183  -1.1180  -1.1163  -1.1125  -1.1113
    -1.0964  -1.0757  -1.0673  -1.0633  -1.0533  -1.0528  -1.0523  -1.0314
    -1.0129  -1.0104  -0.9897  -0.9891  -0.8976  -0.8858  -0.8791  -0.8782
    -0.8736  -0.8710  -0.8679  -0.8464  -0.8452  -0.8293  -0.8284  -0.8177
    -0.8136  -0.8056  -0.7887  -0.7830  -0.7822  -0.7734  -0.7161  -0.7001
    -0.6933  -0.6657  -0.6627  -0.6591  -0.6552  -0.6533  -0.6529  -0.6483
    -0.6393  -0.6235  -0.6095  -0.5981  -0.5843  -0.5653  -0.5628  -0.5535
    -0.5510  -0.5406  -0.5396  -0.5380  -0.5372  -0.5255  -0.5198  -0.5157
    -0.5101  -0.4851  -0.4828  -0.4800  -0.4706  -0.4671  -0.4511  -0.4194
    -0.4184  -0.4100  -0.4087  -0.3413  -0.3404  -0.3058  -0.3051  -0.2478
    -0.2464  -0.2459  -0.2317  -0.2205   0.0098   0.0154   0.3543   0.3545
     0.4477   0.4512   0.6400   0.6607   0.6719   0.8012   0.8028   1.2346
     1.2348   1.2517   1.5149   1.5442   1.5448   1.8250   1.8283   1.8990
     1.9002   1.9272   1.9308   2.1540   2.1576   2.2454   2.2464   2.3280
     2.3872   2.3897   2.5477   2.6492   3.0836   3.0879   3.0902   3.0923
     3.1422   3.1483   3.4372   3.4393   3.7203   3.7241   3.8361   4.1345
     4.1735   4.1784   4.4036   4.4193   4.4775   4.4792   4.5701   4.6883
     4.6895   4.8046   4.8064   5.1078   5.1779   5.1823   5.3429   5.3685
     5.4412   5.5602   5.5666   5.5913   5.5944   5.6521   5.6559   5.7174
     5.8770   6.0766   6.2569   6.2772   6.3462   6.3943   6.4012   6.4118
     6.4139   6.5500   6.6465   6.6551   6.6677   6.8584   6.8918   6.9161
     6.9308   7.0262   7.1037

          k = 0.0000-0.2887 0.1111 (136898 PWs)   bands (ev):

   -18.6217  -6.6156  -6.5354  -5.8051  -5.5124  -5.4556  -5.4548  -4.9173
    -4.9169  -4.7859  -4.7843  -4.6297  -4.6009  -4.5376  -4.5051  -4.5033
    -4.4706  -4.4703  -4.3418  -4.3003  -4.2999  -4.2403  -4.2200  -4.2192
    -4.1167  -4.1166  -4.0804  -4.0802  -4.0799  -4.0538  -4.0318  -4.0316
    -3.9287  -3.9248  -3.9244  -3.9045  -3.8872  -3.8871  -3.8757  -3.8745
    -3.8625  -3.8323  -3.8314  -3.8307  -3.8303  -3.8000  -3.7985  -3.7804
    -3.7803  -3.7690  -3.7276  -3.7260  -3.6929  -3.6799  -3.6769  -3.6719
    -3.6716  -3.5978  -3.5975  -3.5640  -3.5613  -3.5595  -3.4923  -3.4919
    -3.4767  -3.4762  -3.4480  -3.4459  -3.4455  -3.4450  -3.2918  -3.2904
    -3.2675  -3.2661  -3.2616  -3.2447  -3.2440  -3.2202  -3.2186  -3.1698
    -3.1682  -3.1536  -3.1518  -3.1314  -3.0850  -3.0840  -3.0646  -3.0594
    -3.0586  -3.0205  -3.0177  -3.0112  -3.0098  -2.9959  -2.9939  -2.9560
    -2.9548  -2.9385  -2.9326  -2.9301  -2.9292  -2.9259  -2.8619  -2.8496
    -2.8479  -2.8204  -2.8181  -2.7863  -2.7571  -2.7455  -2.7280  -2.7174
    -2.7146  -2.7141  -2.7061  -2.6788  -2.6746  -2.6688  -2.6495  -2.6274
    -2.6261  -2.6164  -2.6050  -2.6019  -2.5940  -2.5922  -2.5900  -2.5872
    -2.5808  -2.5350  -2.5036  -2.5030  -2.4872  -2.4742  -2.4683  -2.4664
    -2.4603  -2.4590  -2.4574  -2.4286  -2.4276  -2.4260  -2.4179  -2.4172
    -2.4014  -2.3736  -2.3730  -2.3721  -2.3719  -2.3713  -2.3255  -2.2955
    -2.2942  -2.2936  -2.2876  -2.2778  -2.2657  -2.2641  -2.2481  -2.2480
    -2.2182  -2.2136  -2.2134  -2.1954  -2.1940  -2.1933  -2.1606  -2.1602
    -2.1230  -2.1172  -2.1127  -2.1102  -2.1091  -2.1038  -2.1033  -2.1003
    -2.0991  -2.0934  -2.0928  -2.0764  -2.0753  -1.9508  -1.9490  -1.9159
    -1.9105  -1.9101  -1.9036  -1.9032  -1.8884  -1.8870  -1.8841  -1.8825
    -1.8807  -1.8588  -1.8532  -1.8517  -1.8436  -1.8392  -1.8378  -1.8165
    -1.8153  -1.7875  -1.7869  -1.7565  -1.7556  -1.7448  -1.7364  -1.7190
    -1.7175  -1.7150  -1.6982  -1.6844  -1.6839  -1.6770  -1.6766  -1.6510
    -1.6505  -1.6339  -1.6333  -1.6011  -1.5993  -1.5909  -1.5425  -1.5412
    -1.5289  -1.5258  -1.5255  -1.5012  -1.4981  -1.4674  -1.4655  -1.4647
    -1.4308  -1.4216  -1.4205  -1.4048  -1.4040  -1.3797  -1.3772  -1.3762
    -1.3482  -1.3451  -1.3442  -1.2834  -1.2813  -1.2711  -1.2681  -1.2537
    -1.2525  -1.2396  -1.2386  -1.2206  -1.2080  -1.1813  -1.1800  -1.1687
    -1.1398  -1.1318  -1.1296  -1.1183  -1.1180  -1.1175  -1.1142  -1.1107
    -1.0964  -1.0701  -1.0680  -1.0595  -1.0542  -1.0523  -1.0517  -1.0311
    -1.0152  -1.0098  -0.9922  -0.9884  -0.8976  -0.8851  -0.8801  -0.8786
    -0.8754  -0.8697  -0.8681  -0.8523  -0.8451  -0.8297  -0.8271  -0.8154
    -0.8135  -0.8052  -0.7870  -0.7835  -0.7814  -0.7736  -0.7135  -0.7003
    -0.6959  -0.6653  -0.6624  -0.6591  -0.6543  -0.6532  -0.6528  -0.6456
    -0.6398  -0.6245  -0.6158  -0.5981  -0.5764  -0.5650  -0.5631  -0.5532
    -0.5503  -0.5410  -0.5401  -0.5380  -0.5369  -0.5261  -0.5202  -0.5157
    -0.5110  -0.4852  -0.4833  -0.4800  -0.4707  -0.4686  -0.4513  -0.4194
    -0.4179  -0.4099  -0.4078  -0.3417  -0.3410  -0.3058  -0.3053  -0.2477
    -0.2466  -0.2461  -0.2295  -0.2204   0.0093   0.0133   0.3543   0.3544
     0.4475   0.4510   0.6418   0.6604   0.6718   0.8014   0.8027   1.2345
     1.2349   1.2518   1.5156   1.5442   1.5449   1.8233   1.8290   1.8992
     1.9000   1.9271   1.9310   2.1549   2.1568   2.2454   2.2464   2.3277
     2.3860   2.3912   2.5481   2.6497   3.0822   3.0884   3.0910   3.0921
     3.1432   3.1468   3.4373   3.4391   3.7198   3.7248   3.8364   4.1345
     4.1740   4.1788   4.4016   4.4215   4.4776   4.4788   4.5707   4.6874
     4.6895   4.8041   4.8066   5.1083   5.1777   5.1806   5.3362   5.3713
     5.4464   5.5610   5.5666   5.5899   5.5949   5.6489   5.6582   5.7147
     5.8771   6.0659   6.2607   6.2818   6.3577   6.3969   6.3993   6.4110
     6.4147   6.5522   6.6433   6.6542   6.6656   6.8513   6.8927   6.9134
     6.9396   7.0222   7.1026

          k = 0.0000 0.2887 0.1111 (136898 PWs)   bands (ev):

   -18.6217  -6.6156  -6.5354  -5.8051  -5.5124  -5.4556  -5.4548  -4.9173
    -4.9169  -4.7859  -4.7843  -4.6297  -4.6009  -4.5376  -4.5051  -4.5033
    -4.4706  -4.4703  -4.3418  -4.3003  -4.2999  -4.2403  -4.2200  -4.2192
    -4.1167  -4.1166  -4.0804  -4.0802  -4.0799  -4.0538  -4.0318  -4.0316
    -3.9287  -3.9248  -3.9244  -3.9045  -3.8872  -3.8871  -3.8757  -3.8745
    -3.8625  -3.8323  -3.8314  -3.8307  -3.8303  -3.8000  -3.7985  -3.7804
    -3.7803  -3.7690  -3.7276  -3.7260  -3.6928  -3.6799  -3.6769  -3.6719
    -3.6716  -3.5978  -3.5975  -3.5640  -3.5613  -3.5595  -3.4923  -3.4919
    -3.4767  -3.4762  -3.4480  -3.4459  -3.4455  -3.4450  -3.2918  -3.2904
    -3.2675  -3.2661  -3.2616  -3.2447  -3.2440  -3.2202  -3.2186  -3.1698
    -3.1682  -3.1536  -3.1518  -3.1314  -3.0850  -3.0840  -3.0646  -3.0594
    -3.0586  -3.0205  -3.0177  -3.0112  -3.0098  -2.9959  -2.9939  -2.9560
    -2.9548  -2.9385  -2.9326  -2.9301  -2.9292  -2.9259  -2.8619  -2.8496
    -2.8479  -2.8204  -2.8181  -2.7863  -2.7571  -2.7455  -2.7280  -2.7174
    -2.7146  -2.7141  -2.7061  -2.6788  -2.6746  -2.6688  -2.6495  -2.6274
    -2.6261  -2.6164  -2.6050  -2.6019  -2.5940  -2.5922  -2.5900  -2.5872
    -2.5808  -2.5350  -2.5036  -2.5030  -2.4872  -2.4742  -2.4683  -2.4664
    -2.4603  -2.4590  -2.4574  -2.4286  -2.4276  -2.4260  -2.4179  -2.4172
    -2.4014  -2.3735  -2.3730  -2.3721  -2.3719  -2.3713  -2.3255  -2.2955
    -2.2942  -2.2936  -2.2876  -2.2778  -2.2657  -2.2641  -2.2481  -2.2480
    -2.2182  -2.2136  -2.2134  -2.1954  -2.1940  -2.1933  -2.1606  -2.1602
    -2.1230  -2.1173  -2.1127  -2.1102  -2.1091  -2.1038  -2.1033  -2.1003
    -2.0991  -2.0934  -2.0928  -2.0764  -2.0753  -1.9508  -1.9490  -1.9159
    -1.9105  -1.9101  -1.9036  -1.9032  -1.8884  -1.8870  -1.8841  -1.8825
    -1.8807  -1.8588  -1.8532  -1.8517  -1.8436  -1.8392  -1.8378  -1.8165
    -1.8154  -1.7875  -1.7869  -1.7565  -1.7556  -1.7448  -1.7364  -1.7190
    -1.7175  -1.7150  -1.6982  -1.6844  -1.6839  -1.6770  -1.6766  -1.6510
    -1.6505  -1.6339  -1.6333  -1.6011  -1.5993  -1.5909  -1.5425  -1.5412
    -1.5289  -1.5258  -1.5256  -1.5013  -1.4981  -1.4674  -1.4655  -1.4647
    -1.4308  -1.4216  -1.4205  -1.4048  -1.4040  -1.3797  -1.3772  -1.3762
    -1.3482  -1.3451  -1.3442  -1.2834  -1.2813  -1.2711  -1.2681  -1.2537
    -1.2525  -1.2396  -1.2386  -1.2206  -1.2080  -1.1813  -1.1800  -1.1687
    -1.1398  -1.1318  -1.1296  -1.1183  -1.1180  -1.1175  -1.1142  -1.1107
    -1.0964  -1.0701  -1.0680  -1.0595  -1.0542  -1.0523  -1.0517  -1.0311
    -1.0152  -1.0098  -0.9922  -0.9884  -0.8976  -0.8851  -0.8801  -0.8786
    -0.8754  -0.8697  -0.8681  -0.8523  -0.8451  -0.8297  -0.8271  -0.8155
    -0.8135  -0.8052  -0.7870  -0.7835  -0.7814  -0.7736  -0.7135  -0.7003
    -0.6959  -0.6653  -0.6624  -0.6591  -0.6543  -0.6532  -0.6528  -0.6456
    -0.6398  -0.6245  -0.6158  -0.5981  -0.5764  -0.5650  -0.5631  -0.5532
    -0.5503  -0.5410  -0.5401  -0.5380  -0.5369  -0.5261  -0.5202  -0.5157
    -0.5110  -0.4852  -0.4833  -0.4800  -0.4707  -0.4686  -0.4513  -0.4194
    -0.4179  -0.4098  -0.4078  -0.3417  -0.3410  -0.3059  -0.3053  -0.2477
    -0.2466  -0.2461  -0.2295  -0.2205   0.0093   0.0133   0.3543   0.3544
     0.4475   0.4510   0.6418   0.6604   0.6718   0.8014   0.8027   1.2345
     1.2349   1.2518   1.5156   1.5442   1.5448   1.8233   1.8290   1.8992
     1.9000   1.9271   1.9310   2.1549   2.1568   2.2454   2.2464   2.3277
     2.3860   2.3912   2.5481   2.6497   3.0822   3.0884   3.0910   3.0921
     3.1432   3.1468   3.4373   3.4391   3.7198   3.7248   3.8364   4.1345
     4.1740   4.1788   4.4016   4.4215   4.4776   4.4788   4.5707   4.6874
     4.6895   4.8041   4.8066   5.1083   5.1777   5.1806   5.3363   5.3713
     5.4463   5.5610   5.5666   5.5899   5.5949   5.6489   5.6582   5.7146
     5.8785   6.0641   6.2607   6.2801   6.3569   6.3969   6.3993   6.4108
     6.4146   6.5566   6.6430   6.6549   6.6674   6.8481   6.8916   6.9131
     6.9392   7.0256   7.1119

     the Fermi energy is     1.3790 ev

!    total energy              =   -6604.43072191 Ry
     Harris-Foulkes estimate   =   -6604.43072191 Ry
     estimated scf accuracy    <          4.2E-09 Ry

     The total energy is the sum of the following terms:

     one-electron contribution =  -48696.93543011 Ry
     hartree contribution      =   24848.21829327 Ry
     xc contribution           =   -3204.99012358 Ry
     ewald contribution        =   20449.27366048 Ry
     smearing contrib. (-TS)   =       0.00287803 Ry

     convergence has been achieved in  25 iterations

     Writing output data file 6390852.save

     init_run     :    151.66s CPU    161.29s WALL (       1 calls)
     electrons    :   9190.84s CPU   9724.76s WALL (       1 calls)

     Called by init_run:
     wfcinit      :    116.06s CPU    124.64s WALL (       1 calls)
     potinit      :     10.69s CPU     11.31s WALL (       1 calls)

     Called by electrons:
     c_bands      :   7482.74s CPU   7902.49s WALL (      26 calls)
     sum_band     :   1220.26s CPU   1316.22s WALL (      26 calls)
     v_of_rho     :    133.76s CPU    146.50s WALL (      26 calls)
     newd         :    365.46s CPU    368.88s WALL (      26 calls)
     mix_rho      :      3.92s CPU      4.40s WALL (      26 calls)
     vdW_energy   :      7.59s CPU      8.30s WALL (      26 calls)
     vdW_ffts     :     73.21s CPU     80.15s WALL (      52 calls)
     vdW_v        :     15.90s CPU     16.79s WALL (      26 calls)

     Called by c_bands:
     init_us_2    :     13.45s CPU     13.99s WALL (     636 calls)
     cegterg      :   7391.78s CPU   7810.14s WALL (     312 calls)

     Called by *egterg:
     h_psi        :   3362.71s CPU   3741.82s WALL (    1672 calls)
     s_psi        :    444.64s CPU    447.16s WALL (    1672 calls)
     g_psi        :      6.27s CPU      6.27s WALL (    1348 calls)
     cdiaghg      :   2129.88s CPU   2135.31s WALL (    1648 calls)

     Called by h_psi:
     add_vuspsi   :    445.90s CPU    448.40s WALL (    1672 calls)

     General routines
     calbec       :    676.06s CPU    678.54s WALL (    1984 calls)
     fft          :    275.68s CPU    288.51s WALL (    1716 calls)
     ffts         :      2.16s CPU      2.50s WALL (      52 calls)
     fftw         :   2699.56s CPU   3112.83s WALL (  753818 calls)
     interpolate  :      5.65s CPU      6.57s WALL (      52 calls)
     davcio       :      0.00s CPU      0.23s WALL (      12 calls)

     Parallel routines
     fft_scatter  :   2130.56s CPU   2467.38s WALL (  755586 calls)

     PWSCF        :     2h35m CPU        2h45m WALL


   This run was terminated on:  17:23:31   5Jul2015            

=------------------------------------------------------------------------------=
   JOB DONE.
=------------------------------------------------------------------------------=
