Setting SGE environment for SCC

     Program PWSCF v.5.1.2 starts on  3Jul2015 at 15:17:29 

     This program is part of the open-source Quantum ESPRESSO suite
     for quantum simulation of materials; please cite
         "P. Giannozzi et al., J. Phys.:Condens. Matter 21 395502 (2009);
          URL http://www.quantum-espresso.org", 
     in publications or presentations arising from this work. More details at
     http://www.quantum-espresso.org/quote

     Parallel version (MPI), running on    32 processors
     R & G space division:  proc/nbgrp/npool/nimage =      32
     Reading input from hollow.O1.Au535758.d.2.5.phi.45.psi.90.in
Warning: card &IONS ignored
Warning: card / ignored
Warning: card &CELL ignored
Warning: card / ignored

     Current dimensions of program PWSCF are:
     Max number of different atomic species (ntypx) = 10
     Max number of k-points (npk) =  40000
     Max angular momentum in pseudopotentials (lmaxx) =  3

     IMPORTANT: XC functional enforced from input :
     Exchange-correlation      = VDW-DF ( 1  4  4  0 1 0)
     Any further DFT definition will be discarded
     Please, verify this is what you really want


     Subspace diagonalization in iterative solution of the eigenvalue problem:
     a serial algorithm will be used


     Parallelization info
     --------------------
     sticks:   dense  smooth     PW     G-vecs:    dense   smooth      PW
     Min         445     223     58                96775    34191    4534
     Max         446     224     59                96790    34246    4540
     Sum       14269    7147   1867              3097177  1095093  145167


     Title: 
     hollow.O1.Au535758.d.2.5.phi.45.psi.90                                     


     bravais-lattice index     =            4
     lattice parameter (alat)  =      22.7436  a.u.
     unit-cell volume          =   22924.1508 (a.u.)^3
     number of atoms/cell      =           67
     number of atomic types    =            3
     number of electrons       =       712.00
     number of Kohn-Sham states=          427
     kinetic-energy cutoff     =      50.0000  Ry
     charge density cutoff     =     400.0000  Ry
     convergence threshold     =      1.0E-08
     mixing beta               =       0.7000
     number of iterations used =            8  plain     mixing
     Exchange-correlation      = VDW-DF ( 1  4  4  0 1 0)

     celldm(1)=  22.743643  celldm(2)=   0.000000  celldm(3)=   2.250000
     celldm(4)=   0.000000  celldm(5)=   0.000000  celldm(6)=   0.000000

     crystal axes: (cart. coord. in units of alat)
               a(1) = (   1.000000   0.000000   0.000000 )  
               a(2) = (  -0.500000   0.866025   0.000000 )  
               a(3) = (   0.000000   0.000000   2.250000 )  

     reciprocal axes: (cart. coord. in units 2 pi/alat)
               b(1) = (  1.000000  0.577350 -0.000000 )  
               b(2) = (  0.000000  1.154701  0.000000 )  
               b(3) = (  0.000000 -0.000000  0.444444 )  


     PseudoPot. # 1 for Au read from file:
     /home/scc/andrejb/qe/pseudo/Au.pbe-nd-van.UPF
     MD5 check sum: 458681b50f36d87ef23c61b04bba420a
     Pseudo is Ultrasoft + core correction, Zval = 11.0
     Generated by new atomic code, or converted to UPF format
     Using radial grid of  985 points,  3 beta functions with: 
                l(1) =   1
                l(2) =   2
                l(3) =   2
     Q(r) pseudized with  8 coefficients,  rinner =    1.100   1.100   1.100
                                                       1.100   1.100

     PseudoPot. # 2 for H  read from file:
     /home/scc/andrejb/qe/pseudo/H.pbe-van_ak.UPF
     MD5 check sum: 403db7282739603aa925980fa9b8608d
     Pseudo is Ultrasoft, Zval =  1.0
     Generated by new atomic code, or converted to UPF format
     Using radial grid of  615 points,  1 beta functions with: 
                l(1) =   0
     Q(r) pseudized with  8 coefficients,  rinner =    0.800

     PseudoPot. # 3 for O  read from file:
     /home/scc/andrejb/qe/pseudo/O.pbe-van_ak.UPF
     MD5 check sum: 4b8c549914a63cae506c6ff22b5af4fe
     Pseudo is Ultrasoft, Zval =  6.0
     Generated by new atomic code, or converted to UPF format
     Using radial grid of  737 points,  4 beta functions with: 
                l(1) =   0
                l(2) =   0
                l(3) =   1
                l(4) =   1
     Q(r) pseudized with  8 coefficients,  rinner =    0.800   0.800   0.800


     vdW kernel table read from file vdW_kernel_table
     MD5 check sum: 48e77a2e26edf626eeb0eaa751ad5cac

     atomic species   valence    mass     pseudopotential
        Au            11.00   196.96657     Au( 1.00)
        H              1.00     1.01000     H ( 1.00)
        O              6.00    16.00000     O ( 1.00)

     No symmetry found



   Cartesian axes

     site n.     atom                  positions (alat units)
         1           O   tau(   1) = (  -0.0208375   0.5411347   0.8207265  )
         2           H   tau(   2) = (  -0.0267671   0.4928811   0.7560397  )
         3           H   tau(   3) = (  -0.0151011   0.4903739   0.8834655  )
         4           Au  tau(   4) = (   0.3540481   0.6132292   0.0000000  )
         5           Au  tau(   5) = (   0.4790062   0.3967954   0.0000000  )
         6           Au  tau(   6) = (   0.6039644   0.1803616   0.0000000  )
         7           Au  tau(   7) = (   0.7289225  -0.0360723   0.0000000  )
         8           Au  tau(   8) = (   0.1041318   0.6132292   0.0000000  )
         9           Au  tau(   9) = (   0.2290899   0.3967954   0.0000000  )
        10           Au  tau(  10) = (   0.3540481   0.1803616   0.0000000  )
        11           Au  tau(  11) = (   0.4790062  -0.0360723   0.0000000  )
        12           Au  tau(  12) = (  -0.1457845   0.6132292   0.0000000  )
        13           Au  tau(  13) = (  -0.0208264   0.3967954   0.0000000  )
        14           Au  tau(  14) = (   0.1041318   0.1803616   0.0000000  )
        15           Au  tau(  15) = (   0.2290899  -0.0360723   0.0000000  )
        16           Au  tau(  16) = (  -0.3957008   0.6132292   0.0000000  )
        17           Au  tau(  17) = (  -0.2707426   0.3967954   0.0000000  )
        18           Au  tau(  18) = (  -0.1457845   0.1803616   0.0000000  )
        19           Au  tau(  19) = (  -0.0208264  -0.0360723   0.0000000  )
        20           Au  tau(  20) = (   0.4790062   0.6853738   0.2040557  )
        21           Au  tau(  21) = (   0.6039644   0.4689400   0.2040557  )
        22           Au  tau(  22) = (   0.7289225   0.2525061   0.2040557  )
        23           Au  tau(  23) = (   0.8538806   0.0360723   0.2040557  )
        24           Au  tau(  24) = (   0.2290899   0.6853738   0.2040557  )
        25           Au  tau(  25) = (   0.3540481   0.4689400   0.2040557  )
        26           Au  tau(  26) = (   0.4790062   0.2525061   0.2040557  )
        27           Au  tau(  27) = (   0.6039644   0.0360723   0.2040557  )
        28           Au  tau(  28) = (  -0.0208264   0.6853738   0.2040557  )
        29           Au  tau(  29) = (   0.1041318   0.4689400   0.2040557  )
        30           Au  tau(  30) = (   0.2290899   0.2525061   0.2040557  )
        31           Au  tau(  31) = (   0.3540481   0.0360723   0.2040557  )
        32           Au  tau(  32) = (  -0.2707426   0.6853738   0.2040557  )
        33           Au  tau(  33) = (  -0.1457845   0.4689400   0.2040557  )
        34           Au  tau(  34) = (  -0.0208264   0.2525061   0.2040557  )
        35           Au  tau(  35) = (   0.1041318   0.0360723   0.2040557  )
        36           Au  tau(  36) = (   0.3541162   0.7576593   0.4066483  )
        37           Au  tau(  37) = (   0.4791000   0.5411421   0.4066695  )
        38           Au  tau(  38) = (   0.6040570   0.3246862   0.4066617  )
        39           Au  tau(  39) = (   0.7290270   0.1081684   0.4066529  )
        40           Au  tau(  40) = (   0.1041162   0.7576236   0.4066247  )
        41           Au  tau(  41) = (   0.2291001   0.5411063   0.4066455  )
        42           Au  tau(  42) = (   0.3540567   0.3246505   0.4066380  )
        43           Au  tau(  43) = (   0.4790276   0.1081324   0.4066292  )
        44           Au  tau(  44) = (  -0.1458201   0.7576104   0.4066224  )
        45           Au  tau(  45) = (  -0.0208365   0.5410930   0.4066438  )
        46           Au  tau(  46) = (   0.1041202   0.3246372   0.4066359  )
        47           Au  tau(  47) = (   0.2290908   0.1081193   0.4066273  )
        48           Au  tau(  48) = (  -0.3958167   0.7575791   0.4065812  )
        49           Au  tau(  49) = (  -0.2708328   0.5410617   0.4066025  )
        50           Au  tau(  50) = (  -0.1458763   0.3246061   0.4065947  )
        51           Au  tau(  51) = (  -0.0209056   0.1080882   0.4065858  )
        52           Au  tau(  52) = (   0.3541085   0.6133344   0.6129762  )
        53           Au  tau(  53) = (   0.4790780   0.3968269   0.6129968  )
        54           Au  tau(  54) = (   0.6040356   0.1803811   0.6129859  )
        55           Au  tau(  55) = (   0.7290165  -0.0361221   0.6129385  )
        56           Au  tau(  56) = (   0.1041243   0.6133091   0.6130022  )
        57           Au  tau(  57) = (   0.2290941   0.3968013   0.6130241  )
        58           Au  tau(  58) = (   0.3540515   0.1803552   0.6130121  )
        59           Au  tau(  59) = (   0.4790323  -0.0361475   0.6129659  )
        60           Au  tau(  60) = (  -0.1458030   0.6133014   0.6129980  )
        61           Au  tau(  61) = (  -0.0208339   0.3967936   0.6130188  )
        62           Au  tau(  62) = (   0.1041239   0.1803477   0.6130083  )
        63           Au  tau(  63) = (   0.2291046  -0.0361554   0.6129607  )
        64           Au  tau(  64) = (  -0.3957908   0.6132739   0.6129471  )
        65           Au  tau(  65) = (  -0.2708208   0.3967658   0.6129688  )
        66           Au  tau(  66) = (  -0.1458636   0.1803200   0.6129569  )
        67           Au  tau(  67) = (  -0.0208823  -0.0361826   0.6129110  )

     number of k points=    12  Marzari-Vanderbilt smearing, width (Ry)=  0.0200
                       cart. coord. in units 2pi/alat
        k(    1) = (   0.2500000   0.4330127   0.1111111), wk =   0.1666667
        k(    2) = (   0.2500000  -0.1443376   0.1111111), wk =   0.1666667
        k(    3) = (  -0.2500000  -0.4330127   0.1111111), wk =   0.1666667
        k(    4) = (  -0.2500000   0.4330127  -0.1111111), wk =   0.1666667
        k(    5) = (   0.2500000  -0.4330127  -0.1111111), wk =   0.1666667
        k(    6) = (   0.5000000   0.0000000   0.1111111), wk =   0.1666667
        k(    7) = (  -0.5000000   0.0000000   0.1111111), wk =   0.1666667
        k(    8) = (  -0.2500000   0.1443376   0.1111111), wk =   0.1666667
        k(    9) = (  -0.2500000  -0.1443376  -0.1111111), wk =   0.1666667
        k(   10) = (   0.2500000   0.1443376  -0.1111111), wk =   0.1666667
        k(   11) = (   0.0000000  -0.2886751   0.1111111), wk =   0.1666667
        k(   12) = (   0.0000000   0.2886751   0.1111111), wk =   0.1666667

     Dense  grid:  3097177 G-vectors     FFT dimensions: ( 150, 150, 360)

     Smooth grid:  1095093 G-vectors     FFT dimensions: ( 108, 108, 240)

     Largest allocated arrays     est. size (Mb)     dimensions
        Kohn-Sham Wavefunctions        28.01 Mb     (    4299,  427)
        NL pseudopotentials            55.23 Mb     (    4299,  842)
        Each V/rho on FFT grid          4.12 Mb     (  270000)
        Each G-vector array             0.74 Mb     (   96788)
        G-vector shells                 0.16 Mb     (   21404)
     Largest temporary arrays     est. size (Mb)     dimensions
        Auxiliary wavefunctions       112.04 Mb     (    4299, 1708)
        Each subspace H/S matrix       44.51 Mb     (    1708, 1708)
        Each <psi_i|beta_j> matrix      5.49 Mb     (     842,  427)
        Arrays for rho mixing          32.96 Mb     (  270000,    8)

     Initial potential from superposition of free atoms
     Check: negative starting charge=   -1.730279

     starting charge  711.25682, renormalised to  712.00000

     negative rho (up, down):  1.732E+00 0.000E+00


     ************************************************************************
     *
     * You are using vdW-DF for exchange-correlation in this calculation.
     * Please cite the following three references that made this development
     * possible:
     *
     *   M. Dion, H. Rydberg, E. Schroder, D. C. Langreth, and
     *   B. I. Lundqvist, Phys. Rev. Lett. 92, 246401 (2004).
     *
     *   T. Thonhauser, V. R. Cooper, S. Li, A. Puzder, P. Hyldgaard, and
     *   D. C. Langreth, Phys. Rev. B 76, 125112 (2007).
     *
     *   G. Roman-Perez and J. M. Soler, Phys. Rev. Lett. 103, 096102 (2009).
     *
     *
     * If you are using vdW-DF2, please also cite:
     *
     *   K. Lee, E. D. Murray, L. Kong, B. I. Lundqvist, and
     *   D. C. Langreth, Phys. Rev. B 82, 081101(R) (2010).
     *
     *
     * If you are calculating the stress with vdW-DF, please also cite:
     *
     *   R. Sabatini, E. Kucukbenli, B. Kolb, T. Thonhauser, and
     *   S. de Gironcoli, J. Phys.: Condens. Matter 24, 424209 (2012).
     *
     ************************************************************************

     Carrying out vdW-DF run using the following parameters:

     Nqs =      20    Nr_points =    1024   r_max =   100.000
     q_mesh =
               0.00001000     0.04494208     0.09755937     0.15916263
               0.23128650     0.31572767     0.41458969     0.53033537
               0.66584808     0.82450364     1.01025438     1.22772762
               1.48234092     1.78043706     2.12944203     2.53805004
               3.01644009     3.57652955     4.23227104     5.00000000

     Gradients computed in reciprocal space

     ************************************************************************


     Starting wfc are  582 randomized atomic wfcs

     total cpu time spent up to now is      184.7 secs

     Self-consistent Calculation

     iteration #  1     ecut=    50.00 Ry     beta=0.70
     Davidson diagonalization with overlap
     ethr =  1.00E-02,  avg # of iterations =  3.0

     Threshold (ethr) on eigenvalues was too large:
     Diagonalizing with lowered threshold

     Davidson diagonalization with overlap
     ethr =  3.38E-04,  avg # of iterations =  4.0

     negative rho (up, down):  1.727E+00 0.000E+00

     total cpu time spent up to now is      943.1 secs

     total energy              =   -6602.80809591 Ry
     Harris-Foulkes estimate   =   -6605.00405661 Ry
     estimated scf accuracy    <       2.75195496 Ry

     iteration #  2     ecut=    50.00 Ry     beta=0.70
     Davidson diagonalization with overlap
     ethr =  3.87E-04,  avg # of iterations = 11.3

     negative rho (up, down):  1.726E+00 0.000E+00

     total cpu time spent up to now is     1996.4 secs

     total energy              =   -6597.14514835 Ry
     Harris-Foulkes estimate   =   -6609.88297942 Ry
     estimated scf accuracy    <      69.54321608 Ry

     iteration #  3     ecut=    50.00 Ry     beta=0.70
     Davidson diagonalization with overlap
     ethr =  3.87E-04,  avg # of iterations =  6.3

     negative rho (up, down):  1.737E+00 0.000E+00

     total cpu time spent up to now is     2720.2 secs

     total energy              =   -6603.29246527 Ry
     Harris-Foulkes estimate   =   -6604.94053759 Ry
     estimated scf accuracy    <       7.06926720 Ry

     iteration #  4     ecut=    50.00 Ry     beta=0.70
     Davidson diagonalization with overlap
     ethr =  3.87E-04,  avg # of iterations =  6.8

     negative rho (up, down):  1.739E+00 0.000E+00

     total cpu time spent up to now is     3164.3 secs

     total energy              =   -6603.85620906 Ry
     Harris-Foulkes estimate   =   -6604.83411504 Ry
     estimated scf accuracy    <       7.10640041 Ry

     iteration #  5     ecut=    50.00 Ry     beta=0.70
     Davidson diagonalization with overlap
     ethr =  3.87E-04,  avg # of iterations =  5.8

     negative rho (up, down):  1.748E+00 0.000E+00

     total cpu time spent up to now is     3565.2 secs

     total energy              =   -6604.20760748 Ry
     Harris-Foulkes estimate   =   -6604.67463655 Ry
     estimated scf accuracy    <       4.03595303 Ry

     iteration #  6     ecut=    50.00 Ry     beta=0.70
     Davidson diagonalization with overlap
     ethr =  3.87E-04,  avg # of iterations =  3.1

     negative rho (up, down):  1.752E+00 0.000E+00

     total cpu time spent up to now is     3893.2 secs

     total energy              =   -6604.39432052 Ry
     Harris-Foulkes estimate   =   -6604.44945891 Ry
     estimated scf accuracy    <       0.18204208 Ry

     iteration #  7     ecut=    50.00 Ry     beta=0.70
     Davidson diagonalization with overlap
     ethr =  2.56E-05,  avg # of iterations = 10.3

     negative rho (up, down):  1.754E+00 0.000E+00

     total cpu time spent up to now is     4363.5 secs

     total energy              =   -6604.40731279 Ry
     Harris-Foulkes estimate   =   -6604.43423806 Ry
     estimated scf accuracy    <       0.11822954 Ry

     iteration #  8     ecut=    50.00 Ry     beta=0.70
     Davidson diagonalization with overlap
     ethr =  1.66E-05,  avg # of iterations =  4.9

     negative rho (up, down):  1.755E+00 0.000E+00

     total cpu time spent up to now is     4746.3 secs

     total energy              =   -6604.41041385 Ry
     Harris-Foulkes estimate   =   -6604.42368648 Ry
     estimated scf accuracy    <       0.05113213 Ry

     iteration #  9     ecut=    50.00 Ry     beta=0.70
     Davidson diagonalization with overlap
     c_bands:  1 eigenvalues not converged
     ethr =  7.18E-06,  avg # of iterations =  7.1

     negative rho (up, down):  1.756E+00 0.000E+00

     total cpu time spent up to now is     5159.3 secs

     total energy              =   -6604.41126955 Ry
     Harris-Foulkes estimate   =   -6604.41708303 Ry
     estimated scf accuracy    <       0.01919644 Ry

     iteration # 10     ecut=    50.00 Ry     beta=0.70
     Davidson diagonalization with overlap
     ethr =  2.70E-06,  avg # of iterations =  6.1

     negative rho (up, down):  1.757E+00 0.000E+00

     total cpu time spent up to now is     5575.4 secs

     total energy              =   -6604.41188075 Ry
     Harris-Foulkes estimate   =   -6604.41387107 Ry
     estimated scf accuracy    <       0.00622433 Ry

     iteration # 11     ecut=    50.00 Ry     beta=0.70
     Davidson diagonalization with overlap
     ethr =  8.74E-07,  avg # of iterations =  3.0

     negative rho (up, down):  1.757E+00 0.000E+00

     total cpu time spent up to now is     5924.4 secs

     total energy              =   -6604.41212097 Ry
     Harris-Foulkes estimate   =   -6604.41297224 Ry
     estimated scf accuracy    <       0.00290417 Ry

     iteration # 12     ecut=    50.00 Ry     beta=0.70
     Davidson diagonalization with overlap
     ethr =  4.08E-07,  avg # of iterations =  2.0

     negative rho (up, down):  1.758E+00 0.000E+00

     total cpu time spent up to now is     6226.2 secs

     total energy              =   -6604.41222217 Ry
     Harris-Foulkes estimate   =   -6604.41251426 Ry
     estimated scf accuracy    <       0.00054844 Ry

     iteration # 13     ecut=    50.00 Ry     beta=0.70
     Davidson diagonalization with overlap
     ethr =  7.70E-08,  avg # of iterations =  4.8

     negative rho (up, down):  1.757E+00 0.000E+00

     total cpu time spent up to now is     6704.9 secs

     total energy              =   -6604.41217448 Ry
     Harris-Foulkes estimate   =   -6604.41259237 Ry
     estimated scf accuracy    <       0.00193140 Ry

     iteration # 14     ecut=    50.00 Ry     beta=0.70
     Davidson diagonalization with overlap
     ethr =  7.70E-08,  avg # of iterations =  2.0

     negative rho (up, down):  1.757E+00 0.000E+00

     total cpu time spent up to now is     7051.7 secs

     total energy              =   -6604.41237619 Ry
     Harris-Foulkes estimate   =   -6604.41239143 Ry
     estimated scf accuracy    <       0.00004457 Ry

     iteration # 15     ecut=    50.00 Ry     beta=0.70
     Davidson diagonalization with overlap
     ethr =  6.26E-09,  avg # of iterations =  3.0

     negative rho (up, down):  1.757E+00 0.000E+00

     total cpu time spent up to now is     7467.4 secs

     total energy              =   -6604.41237085 Ry
     Harris-Foulkes estimate   =   -6604.41239713 Ry
     estimated scf accuracy    <       0.00015024 Ry

     iteration # 16     ecut=    50.00 Ry     beta=0.70
     Davidson diagonalization with overlap
     ethr =  6.26E-09,  avg # of iterations =  2.0

     negative rho (up, down):  1.757E+00 0.000E+00

     total cpu time spent up to now is     7795.9 secs

     total energy              =   -6604.41237445 Ry
     Harris-Foulkes estimate   =   -6604.41239834 Ry
     estimated scf accuracy    <       0.00023240 Ry

     iteration # 17     ecut=    50.00 Ry     beta=0.70
     Davidson diagonalization with overlap
     ethr =  6.26E-09,  avg # of iterations =  2.0

     negative rho (up, down):  1.757E+00 0.000E+00

     total cpu time spent up to now is     8120.8 secs

     total energy              =   -6604.41238595 Ry
     Harris-Foulkes estimate   =   -6604.41238730 Ry
     estimated scf accuracy    <       0.00000456 Ry

     iteration # 18     ecut=    50.00 Ry     beta=0.70
     Davidson diagonalization with overlap
     ethr =  6.40E-10,  avg # of iterations =  2.5

     negative rho (up, down):  1.757E+00 0.000E+00

     total cpu time spent up to now is     8505.9 secs

     total energy              =   -6604.41238596 Ry
     Harris-Foulkes estimate   =   -6604.41238784 Ry
     estimated scf accuracy    <       0.00000792 Ry

     iteration # 19     ecut=    50.00 Ry     beta=0.70
     Davidson diagonalization with overlap
     ethr =  6.40E-10,  avg # of iterations =  2.0

     negative rho (up, down):  1.757E+00 0.000E+00

     total cpu time spent up to now is     8836.0 secs

     total energy              =   -6604.41238685 Ry
     Harris-Foulkes estimate   =   -6604.41238707 Ry
     estimated scf accuracy    <       0.00000086 Ry

     iteration # 20     ecut=    50.00 Ry     beta=0.70
     Davidson diagonalization with overlap
     ethr =  1.21E-10,  avg # of iterations =  2.0

     negative rho (up, down):  1.757E+00 0.000E+00

     total cpu time spent up to now is     9164.6 secs

     total energy              =   -6604.41238699 Ry
     Harris-Foulkes estimate   =   -6604.41238701 Ry
     estimated scf accuracy    <       0.00000010 Ry

     iteration # 21     ecut=    50.00 Ry     beta=0.70
     Davidson diagonalization with overlap
     ethr =  1.44E-11,  avg # of iterations =  3.0

     negative rho (up, down):  1.757E+00 0.000E+00

     total cpu time spent up to now is     9600.6 secs

     total energy              =   -6604.41238701 Ry
     Harris-Foulkes estimate   =   -6604.41238703 Ry
     estimated scf accuracy    <       0.00000010 Ry

     iteration # 22     ecut=    50.00 Ry     beta=0.70
     Davidson diagonalization with overlap
     ethr =  1.42E-11,  avg # of iterations =  2.0

     negative rho (up, down):  1.757E+00 0.000E+00

     total cpu time spent up to now is     9932.7 secs

     total energy              =   -6604.41238702 Ry
     Harris-Foulkes estimate   =   -6604.41238703 Ry
     estimated scf accuracy    <       0.00000003 Ry

     iteration # 23     ecut=    50.00 Ry     beta=0.70
     Davidson diagonalization with overlap
     ethr =  4.50E-12,  avg # of iterations =  2.5

     negative rho (up, down):  1.757E+00 0.000E+00

     total cpu time spent up to now is    10302.4 secs

     total energy              =   -6604.41238702 Ry
     Harris-Foulkes estimate   =   -6604.41238703 Ry
     estimated scf accuracy    <       0.00000002 Ry

     iteration # 24     ecut=    50.00 Ry     beta=0.70
     Davidson diagonalization with overlap
     ethr =  2.99E-12,  avg # of iterations =  2.0

     negative rho (up, down):  1.757E+00 0.000E+00

     total cpu time spent up to now is    10642.9 secs

     total energy              =   -6604.41238703 Ry
     Harris-Foulkes estimate   =   -6604.41238703 Ry
     estimated scf accuracy    <       0.00000003 Ry

     iteration # 25     ecut=    50.00 Ry     beta=0.70
     Davidson diagonalization with overlap
     ethr =  2.99E-12,  avg # of iterations =  2.0

     negative rho (up, down):  1.757E+00 0.000E+00

     total cpu time spent up to now is    10953.7 secs

     End of self-consistent calculation

          k = 0.2500 0.4330 0.1111 (136853 PWs)   bands (ev):

   -18.9780  -7.1088  -6.3184  -5.9223  -5.9197  -5.2415  -4.9124  -4.9113
    -4.8734  -4.8679  -4.5131  -4.5112  -4.4146  -4.4128  -4.3993  -4.3755
    -4.3538  -4.2476  -4.2439  -4.2214  -4.1781  -4.1772  -4.1147  -4.1082
    -4.1041  -4.1013  -4.0803  -4.0750  -4.0736  -4.0077  -4.0014  -3.9735
    -3.9720  -3.9622  -3.9600  -3.9370  -3.9359  -3.9142  -3.9061  -3.9054
    -3.8826  -3.8284  -3.8268  -3.7802  -3.7773  -3.7294  -3.7238  -3.6766
    -3.6664  -3.6645  -3.6636  -3.6290  -3.5997  -3.5973  -3.5848  -3.5838
    -3.5813  -3.5653  -3.5515  -3.5431  -3.4892  -3.4858  -3.4826  -3.4593
    -3.4490  -3.3884  -3.3748  -3.3531  -3.3473  -3.3354  -3.3150  -3.3007
    -3.2960  -3.2619  -3.2279  -3.2107  -3.2078  -3.1920  -3.1585  -3.1516
    -3.1472  -3.1078  -3.0842  -3.0784  -3.0714  -3.0683  -3.0618  -3.0610
    -3.0513  -3.0484  -3.0349  -2.9987  -2.9626  -2.9594  -2.9485  -2.9461
    -2.9188  -2.9149  -2.9099  -2.8847  -2.8431  -2.8413  -2.8357  -2.7981
    -2.7890  -2.7780  -2.7768  -2.7510  -2.7467  -2.7172  -2.6832  -2.6798
    -2.6633  -2.6513  -2.6395  -2.6371  -2.5905  -2.5875  -2.5545  -2.5337
    -2.5301  -2.5118  -2.5065  -2.4976  -2.4943  -2.4863  -2.4677  -2.4649
    -2.4191  -2.4180  -2.4155  -2.4047  -2.4008  -2.3922  -2.3890  -2.3872
    -2.3836  -2.3802  -2.3746  -2.3727  -2.3644  -2.3572  -2.3329  -2.3277
    -2.3254  -2.3228  -2.3205  -2.3204  -2.3185  -2.2945  -2.2930  -2.2787
    -2.2753  -2.2574  -2.2568  -2.2504  -2.2480  -2.2456  -2.2444  -2.2298
    -2.2254  -2.2236  -2.2225  -2.2088  -2.1819  -2.1787  -2.1389  -2.1378
    -2.1194  -2.1159  -2.0919  -2.0842  -2.0639  -2.0589  -2.0455  -2.0391
    -2.0106  -2.0014  -1.9918  -1.9859  -1.9822  -1.9781  -1.9718  -1.9692
    -1.9449  -1.9390  -1.9352  -1.8780  -1.8701  -1.8672  -1.8634  -1.8607
    -1.8362  -1.8095  -1.8073  -1.7846  -1.7780  -1.7254  -1.7224  -1.6924
    -1.6798  -1.6705  -1.6156  -1.6138  -1.6045  -1.5999  -1.5916  -1.5873
    -1.5827  -1.5774  -1.5737  -1.5332  -1.5174  -1.5156  -1.5070  -1.5046
    -1.4920  -1.4855  -1.4571  -1.4526  -1.4421  -1.4367  -1.4341  -1.4281
    -1.4230  -1.4174  -1.4102  -1.3943  -1.3905  -1.3631  -1.3489  -1.3432
    -1.3399  -1.3263  -1.3049  -1.2809  -1.2631  -1.2416  -1.2359  -1.2319
    -1.2093  -1.1884  -1.1593  -1.1490  -1.1469  -1.1455  -1.1422  -1.1352
    -1.1176  -1.1150  -1.0993  -1.0716  -1.0653  -1.0451  -1.0424  -1.0346
    -1.0311  -1.0299  -1.0168  -1.0112  -1.0102  -1.0063  -0.9997  -0.9706
    -0.9678  -0.9659  -0.9591  -0.9388  -0.9345  -0.9229  -0.9079  -0.9021
    -0.8830  -0.8572  -0.8480  -0.8420  -0.8139  -0.8033  -0.7977  -0.7920
    -0.7874  -0.7856  -0.7819  -0.7785  -0.7682  -0.7596  -0.7486  -0.7449
    -0.7415  -0.7390  -0.7324  -0.7030  -0.7014  -0.6909  -0.6849  -0.6726
    -0.6657  -0.6599  -0.6548  -0.6026  -0.5996  -0.5917  -0.5907  -0.5880
    -0.5846  -0.5755  -0.5631  -0.5605  -0.5533  -0.5526  -0.5507  -0.5360
    -0.5135  -0.5114  -0.5077  -0.5015  -0.4995  -0.4960  -0.4915  -0.4786
    -0.4758  -0.4755  -0.4553  -0.4336  -0.4324  -0.4253  -0.4194  -0.4172
    -0.3481  -0.3407  -0.3399  -0.3374  -0.3308  -0.3224  -0.2935  -0.2830
    -0.2795  -0.2501  -0.2448  -0.2392  -0.1298  -0.1235  -0.0256   0.3883
     0.3895   0.3949   0.3957   0.4604   0.4646   0.8406   0.8441   0.8850
     0.8873   1.0028   1.0798   1.1862   1.1966   1.4112   1.4260   2.0389
     2.0462   2.2003   2.2083   2.3395   2.3459   2.4396   2.4404   2.5940
     2.8316   2.8465   2.9585   3.1781   3.1882   3.2584   3.2629   3.3604
     3.3788   3.5776   3.5985   3.6311   3.8336   3.8384   3.8959   3.9068
     4.1512   4.1620   4.1721   4.4005   4.4430   4.4495   4.4905   4.8167
     4.8314   4.8593   4.9907   5.1667   5.1689   5.2222   5.2538   5.5346
     5.8185   5.9241   5.9463   5.9571   5.9667   6.0198   6.0303   6.1036
     6.1323   6.1601   6.1650   6.1936   6.1987   6.2194   6.2370   6.2517
     6.2610   6.4440   6.5738   6.7064   6.7638   6.8048   6.8965   6.9049
     6.9167   7.0113   7.0227

          k = 0.2500-0.1443 0.1111 (136898 PWs)   bands (ev):

   -18.9780  -7.1101  -6.5262  -5.7388  -5.4440  -5.3909  -5.3879  -4.8530
    -4.8510  -4.7205  -4.7182  -4.5633  -4.5350  -4.4725  -4.4443  -4.4352
    -4.4065  -4.4049  -4.2761  -4.2344  -4.2342  -4.1767  -4.1585  -4.1533
    -4.0528  -4.0511  -4.0164  -4.0142  -4.0139  -3.9884  -3.9679  -3.9664
    -3.8646  -3.8602  -3.8591  -3.8411  -3.8261  -3.8214  -3.8113  -3.8088
    -3.8000  -3.7695  -3.7670  -3.7659  -3.7643  -3.7364  -3.7355  -3.7189
    -3.7147  -3.7096  -3.6732  -3.6673  -3.6297  -3.6170  -3.6113  -3.6063
    -3.6060  -3.5362  -3.5320  -3.5044  -3.5014  -3.4936  -3.4372  -3.4264
    -3.4233  -3.4107  -3.3907  -3.3840  -3.3822  -3.3810  -3.2793  -3.2251
    -3.2196  -3.2050  -3.2004  -3.1948  -3.1795  -3.1744  -3.1556  -3.1476
    -3.1036  -3.1025  -3.0887  -3.0834  -3.0668  -3.0235  -3.0175  -3.0018
    -2.9953  -2.9921  -2.9548  -2.9534  -2.9440  -2.9432  -2.9300  -2.9226
    -2.8914  -2.8901  -2.8711  -2.8664  -2.8652  -2.8623  -2.8589  -2.7878
    -2.7855  -2.7820  -2.7543  -2.7520  -2.6953  -2.6874  -2.6650  -2.6624
    -2.6530  -2.6494  -2.6418  -2.6148  -2.6132  -2.6035  -2.5882  -2.5688
    -2.5625  -2.5573  -2.5422  -2.5403  -2.5367  -2.5279  -2.5260  -2.5207
    -2.5146  -2.4693  -2.4419  -2.4395  -2.4240  -2.4110  -2.4062  -2.4020
    -2.3977  -2.3939  -2.3911  -2.3660  -2.3633  -2.3622  -2.3538  -2.3525
    -2.3392  -2.3143  -2.3112  -2.3094  -2.3067  -2.3060  -2.2599  -2.2347
    -2.2313  -2.2279  -2.2240  -2.2124  -2.2036  -2.2020  -2.1836  -2.1832
    -2.1611  -2.1501  -2.1495  -2.1320  -2.1313  -2.1303  -2.1001  -2.0974
    -2.0643  -2.0527  -2.0514  -2.0499  -2.0456  -2.0417  -2.0398  -2.0366
    -2.0340  -2.0319  -2.0259  -2.0135  -2.0111  -1.8943  -1.8868  -1.8667
    -1.8507  -1.8450  -1.8390  -1.8374  -1.8306  -1.8236  -1.8196  -1.8189
    -1.8159  -1.7967  -1.7933  -1.7890  -1.7808  -1.7767  -1.7713  -1.7532
    -1.7504  -1.7265  -1.7217  -1.6968  -1.6938  -1.6821  -1.6729  -1.6567
    -1.6530  -1.6509  -1.6359  -1.6213  -1.6196  -1.6125  -1.6122  -1.5937
    -1.5874  -1.5729  -1.5690  -1.5424  -1.5346  -1.5278  -1.4945  -1.4788
    -1.4711  -1.4626  -1.4593  -1.4360  -1.4340  -1.4130  -1.4041  -1.3984
    -1.3706  -1.3615  -1.3582  -1.3419  -1.3385  -1.3218  -1.3157  -1.3138
    -1.2914  -1.2850  -1.2794  -1.2348  -1.2202  -1.2133  -1.2070  -1.1974
    -1.1893  -1.1791  -1.1738  -1.1587  -1.1494  -1.1420  -1.1197  -1.1101
    -1.0985  -1.0734  -1.0670  -1.0615  -1.0550  -1.0531  -1.0512  -1.0464
    -1.0310  -1.0217  -1.0074  -0.9973  -0.9900  -0.9893  -0.9869  -0.9738
    -0.9631  -0.9449  -0.9345  -0.9261  -0.8789  -0.8364  -0.8236  -0.8156
    -0.8145  -0.8116  -0.8028  -0.8008  -0.7837  -0.7696  -0.7639  -0.7588
    -0.7493  -0.7456  -0.7375  -0.7218  -0.7196  -0.7100  -0.7089  -0.6361
    -0.6346  -0.6073  -0.5993  -0.5955  -0.5922  -0.5879  -0.5870  -0.5819
    -0.5732  -0.5662  -0.5563  -0.5322  -0.5138  -0.5031  -0.4986  -0.4907
    -0.4853  -0.4784  -0.4748  -0.4738  -0.4708  -0.4627  -0.4555  -0.4515
    -0.4415  -0.4212  -0.4195  -0.4132  -0.4052  -0.4025  -0.3860  -0.3552
    -0.3523  -0.3452  -0.3360  -0.2776  -0.2755  -0.2435  -0.2418  -0.1870
    -0.1845  -0.1807  -0.1597  -0.1579   0.0732   0.0864   0.4188   0.4192
     0.5090   0.5255   0.7094   0.7338   0.7376   0.8642   0.8695   1.2987
     1.3005   1.3163   1.5830   1.6088   1.6104   1.8823   1.9024   1.9607
     1.9667   1.9877   2.0058   2.2190   2.2218   2.3098   2.3119   2.3909
     2.4454   2.4708   2.6142   2.7180   3.1401   3.1533   3.1549   3.1629
     3.2082   3.2125   3.5022   3.5044   3.7763   3.7964   3.9025   4.1983
     4.2287   4.2481   4.4549   4.4907   4.5390   4.5441   4.6370   4.7485
     4.7566   4.8677   4.8732   5.1691   5.2277   5.2484   5.3727   5.4444
     5.4612   5.6158   5.6340   5.6566   5.6599   5.7103   5.7228   5.7775
     5.8862   6.0733   6.2878   6.3227   6.3742   6.4528   6.4624   6.4716
     6.4843   6.5328   6.6526   6.7078   6.7234   6.8530   6.9315   6.9620
     6.9820   7.0379   7.0804

          k =-0.2500-0.4330 0.1111 (136853 PWs)   bands (ev):

   -18.9780  -7.1088  -6.3184  -5.9223  -5.9197  -5.2415  -4.9124  -4.9113
    -4.8734  -4.8679  -4.5131  -4.5112  -4.4146  -4.4128  -4.3993  -4.3755
    -4.3538  -4.2476  -4.2439  -4.2214  -4.1781  -4.1772  -4.1147  -4.1082
    -4.1041  -4.1013  -4.0803  -4.0750  -4.0736  -4.0077  -4.0014  -3.9735
    -3.9720  -3.9622  -3.9600  -3.9370  -3.9359  -3.9142  -3.9061  -3.9054
    -3.8826  -3.8284  -3.8268  -3.7802  -3.7773  -3.7294  -3.7238  -3.6766
    -3.6664  -3.6645  -3.6636  -3.6290  -3.5997  -3.5973  -3.5848  -3.5838
    -3.5813  -3.5653  -3.5515  -3.5431  -3.4892  -3.4858  -3.4826  -3.4593
    -3.4490  -3.3884  -3.3748  -3.3531  -3.3473  -3.3354  -3.3150  -3.3007
    -3.2960  -3.2619  -3.2279  -3.2107  -3.2078  -3.1920  -3.1585  -3.1516
    -3.1472  -3.1078  -3.0842  -3.0784  -3.0714  -3.0683  -3.0618  -3.0610
    -3.0513  -3.0484  -3.0349  -2.9987  -2.9626  -2.9594  -2.9485  -2.9461
    -2.9188  -2.9149  -2.9099  -2.8847  -2.8431  -2.8413  -2.8357  -2.7981
    -2.7890  -2.7780  -2.7768  -2.7510  -2.7467  -2.7172  -2.6832  -2.6798
    -2.6633  -2.6513  -2.6395  -2.6371  -2.5905  -2.5875  -2.5545  -2.5337
    -2.5301  -2.5118  -2.5065  -2.4976  -2.4943  -2.4863  -2.4677  -2.4649
    -2.4191  -2.4180  -2.4155  -2.4047  -2.4008  -2.3922  -2.3890  -2.3872
    -2.3836  -2.3802  -2.3746  -2.3727  -2.3644  -2.3572  -2.3329  -2.3277
    -2.3254  -2.3228  -2.3205  -2.3204  -2.3185  -2.2945  -2.2930  -2.2787
    -2.2753  -2.2574  -2.2568  -2.2504  -2.2480  -2.2456  -2.2444  -2.2298
    -2.2254  -2.2236  -2.2225  -2.2088  -2.1819  -2.1787  -2.1389  -2.1378
    -2.1194  -2.1159  -2.0919  -2.0842  -2.0639  -2.0589  -2.0455  -2.0391
    -2.0106  -2.0014  -1.9918  -1.9859  -1.9822  -1.9781  -1.9718  -1.9692
    -1.9449  -1.9390  -1.9352  -1.8780  -1.8701  -1.8672  -1.8634  -1.8607
    -1.8362  -1.8095  -1.8073  -1.7846  -1.7780  -1.7254  -1.7224  -1.6924
    -1.6798  -1.6705  -1.6156  -1.6138  -1.6045  -1.5999  -1.5916  -1.5873
    -1.5827  -1.5774  -1.5737  -1.5332  -1.5174  -1.5156  -1.5070  -1.5046
    -1.4920  -1.4855  -1.4571  -1.4526  -1.4421  -1.4367  -1.4341  -1.4281
    -1.4230  -1.4174  -1.4102  -1.3943  -1.3905  -1.3631  -1.3489  -1.3432
    -1.3399  -1.3263  -1.3049  -1.2809  -1.2631  -1.2416  -1.2359  -1.2319
    -1.2093  -1.1884  -1.1593  -1.1490  -1.1469  -1.1455  -1.1422  -1.1352
    -1.1176  -1.1150  -1.0993  -1.0716  -1.0653  -1.0451  -1.0424  -1.0346
    -1.0311  -1.0299  -1.0168  -1.0112  -1.0103  -1.0063  -0.9997  -0.9706
    -0.9678  -0.9659  -0.9591  -0.9388  -0.9345  -0.9229  -0.9079  -0.9021
    -0.8830  -0.8572  -0.8480  -0.8420  -0.8139  -0.8033  -0.7977  -0.7920
    -0.7874  -0.7856  -0.7819  -0.7785  -0.7682  -0.7596  -0.7486  -0.7449
    -0.7415  -0.7390  -0.7324  -0.7030  -0.7014  -0.6909  -0.6849  -0.6726
    -0.6657  -0.6599  -0.6548  -0.6026  -0.5996  -0.5917  -0.5907  -0.5880
    -0.5846  -0.5755  -0.5631  -0.5605  -0.5533  -0.5526  -0.5507  -0.5360
    -0.5135  -0.5114  -0.5077  -0.5015  -0.4995  -0.4960  -0.4915  -0.4786
    -0.4758  -0.4755  -0.4553  -0.4336  -0.4324  -0.4253  -0.4194  -0.4172
    -0.3481  -0.3407  -0.3399  -0.3374  -0.3308  -0.3224  -0.2935  -0.2830
    -0.2795  -0.2501  -0.2449  -0.2392  -0.1298  -0.1235  -0.0256   0.3883
     0.3895   0.3949   0.3957   0.4604   0.4646   0.8406   0.8441   0.8850
     0.8873   1.0028   1.0798   1.1862   1.1966   1.4112   1.4260   2.0389
     2.0462   2.2003   2.2083   2.3395   2.3459   2.4396   2.4404   2.5940
     2.8316   2.8465   2.9585   3.1781   3.1882   3.2584   3.2629   3.3604
     3.3788   3.5776   3.5985   3.6311   3.8336   3.8384   3.8959   3.9068
     4.1512   4.1620   4.1721   4.4005   4.4430   4.4495   4.4905   4.8167
     4.8314   4.8593   4.9907   5.1667   5.1689   5.2222   5.2538   5.5347
     5.8178   5.9241   5.9461   5.9571   5.9667   6.0197   6.0303   6.1033
     6.1327   6.1606   6.1670   6.1938   6.1988   6.2194   6.2371   6.2518
     6.2615   6.4443   6.5746   6.6920   6.7642   6.8048   6.8958   6.9034
     6.9164   7.0167   7.0324

          k =-0.2500 0.4330-0.1111 (136853 PWs)   bands (ev):

   -18.9780  -7.1087  -6.3185  -5.9218  -5.9202  -5.2416  -4.9128  -4.9108
    -4.8720  -4.8694  -4.5129  -4.5114  -4.4142  -4.4129  -4.3994  -4.3755
    -4.3537  -4.2484  -4.2435  -4.2214  -4.1780  -4.1774  -4.1146  -4.1083
    -4.1042  -4.1012  -4.0802  -4.0755  -4.0732  -4.0074  -4.0017  -3.9733
    -3.9719  -3.9619  -3.9601  -3.9371  -3.9360  -3.9141  -3.9062  -3.9055
    -3.8826  -3.8286  -3.8268  -3.7804  -3.7770  -3.7286  -3.7242  -3.6762
    -3.6665  -3.6644  -3.6635  -3.6293  -3.5999  -3.5975  -3.5853  -3.5837
    -3.5812  -3.5662  -3.5517  -3.5433  -3.4894  -3.4859  -3.4829  -3.4588
    -3.4486  -3.3899  -3.3746  -3.3542  -3.3462  -3.3333  -3.3146  -3.3005
    -3.2954  -3.2615  -3.2282  -3.2113  -3.2078  -3.1924  -3.1591  -3.1515
    -3.1469  -3.1076  -3.0846  -3.0790  -3.0719  -3.0678  -3.0619  -3.0613
    -3.0506  -3.0478  -3.0349  -2.9984  -2.9629  -2.9593  -2.9483  -2.9459
    -2.9189  -2.9154  -2.9095  -2.8845  -2.8429  -2.8415  -2.8363  -2.7978
    -2.7889  -2.7783  -2.7765  -2.7519  -2.7466  -2.7173  -2.6824  -2.6801
    -2.6632  -2.6513  -2.6392  -2.6372  -2.5909  -2.5871  -2.5544  -2.5333
    -2.5304  -2.5128  -2.5065  -2.4977  -2.4938  -2.4863  -2.4680  -2.4647
    -2.4189  -2.4177  -2.4155  -2.4050  -2.4006  -2.3923  -2.3889  -2.3868
    -2.3840  -2.3803  -2.3745  -2.3726  -2.3636  -2.3568  -2.3328  -2.3278
    -2.3253  -2.3227  -2.3209  -2.3202  -2.3185  -2.2951  -2.2934  -2.2790
    -2.2750  -2.2577  -2.2567  -2.2512  -2.2478  -2.2458  -2.2442  -2.2301
    -2.2255  -2.2232  -2.2222  -2.2090  -2.1819  -2.1792  -2.1397  -2.1371
    -2.1196  -2.1159  -2.0907  -2.0839  -2.0653  -2.0587  -2.0463  -2.0392
    -2.0106  -2.0018  -1.9910  -1.9854  -1.9826  -1.9780  -1.9726  -1.9693
    -1.9451  -1.9385  -1.9348  -1.8772  -1.8702  -1.8670  -1.8636  -1.8610
    -1.8347  -1.8099  -1.8068  -1.7851  -1.7780  -1.7259  -1.7218  -1.6933
    -1.6791  -1.6706  -1.6159  -1.6143  -1.6039  -1.5996  -1.5919  -1.5869
    -1.5830  -1.5775  -1.5740  -1.5359  -1.5167  -1.5135  -1.5072  -1.5045
    -1.4937  -1.4854  -1.4546  -1.4524  -1.4437  -1.4376  -1.4343  -1.4281
    -1.4229  -1.4165  -1.4102  -1.3948  -1.3901  -1.3635  -1.3488  -1.3462
    -1.3397  -1.3257  -1.3045  -1.2759  -1.2641  -1.2382  -1.2353  -1.2317
    -1.2111  -1.1905  -1.1589  -1.1502  -1.1476  -1.1452  -1.1420  -1.1351
    -1.1199  -1.1141  -1.0985  -1.0716  -1.0665  -1.0443  -1.0430  -1.0340
    -1.0314  -1.0301  -1.0167  -1.0114  -1.0109  -1.0064  -0.9972  -0.9720
    -0.9684  -0.9662  -0.9587  -0.9392  -0.9336  -0.9261  -0.9064  -0.9026
    -0.8806  -0.8567  -0.8480  -0.8410  -0.8135  -0.8036  -0.7983  -0.7920
    -0.7874  -0.7852  -0.7824  -0.7780  -0.7689  -0.7589  -0.7489  -0.7453
    -0.7418  -0.7395  -0.7315  -0.7029  -0.7011  -0.6902  -0.6862  -0.6720
    -0.6669  -0.6579  -0.6533  -0.6026  -0.5996  -0.5919  -0.5909  -0.5880
    -0.5847  -0.5755  -0.5632  -0.5605  -0.5532  -0.5523  -0.5503  -0.5368
    -0.5134  -0.5118  -0.5072  -0.5017  -0.4986  -0.4959  -0.4914  -0.4793
    -0.4757  -0.4753  -0.4553  -0.4339  -0.4326  -0.4252  -0.4196  -0.4171
    -0.3486  -0.3408  -0.3400  -0.3369  -0.3309  -0.3227  -0.2936  -0.2832
    -0.2792  -0.2503  -0.2469  -0.2368  -0.1325  -0.1231  -0.0265   0.3885
     0.3898   0.3947   0.3957   0.4579   0.4667   0.8422   0.8439   0.8842
     0.8874   1.0032   1.0797   1.1850   1.1979   1.4104   1.4265   2.0386
     2.0468   2.1984   2.2103   2.3366   2.3481   2.4393   2.4406   2.5940
     2.8317   2.8474   2.9587   3.1777   3.1888   3.2577   3.2638   3.3616
     3.3788   3.5775   3.5984   3.6316   3.8331   3.8389   3.8943   3.9077
     4.1503   4.1606   4.1745   4.4008   4.4410   4.4504   4.4905   4.8165
     4.8317   4.8593   4.9891   5.1661   5.1693   5.2195   5.2555   5.5342
     5.8206   5.9248   5.9429   5.9573   5.9670   6.0194   6.0305   6.1043
     6.1328   6.1597   6.1667   6.1944   6.1999   6.2192   6.2367   6.2503
     6.2644   6.4449   6.5718   6.6923   6.7647   6.8017   6.8967   6.9030
     6.9154   7.0174   7.0351

          k = 0.2500-0.4330-0.1111 (136853 PWs)   bands (ev):

   -18.9780  -7.1087  -6.3185  -5.9218  -5.9202  -5.2416  -4.9128  -4.9108
    -4.8720  -4.8694  -4.5129  -4.5114  -4.4142  -4.4129  -4.3994  -4.3755
    -4.3537  -4.2484  -4.2435  -4.2214  -4.1780  -4.1774  -4.1146  -4.1083
    -4.1042  -4.1012  -4.0802  -4.0755  -4.0732  -4.0074  -4.0017  -3.9733
    -3.9719  -3.9619  -3.9601  -3.9371  -3.9360  -3.9141  -3.9062  -3.9055
    -3.8826  -3.8286  -3.8268  -3.7804  -3.7770  -3.7286  -3.7242  -3.6762
    -3.6665  -3.6644  -3.6635  -3.6293  -3.5999  -3.5975  -3.5853  -3.5837
    -3.5812  -3.5662  -3.5517  -3.5433  -3.4894  -3.4859  -3.4829  -3.4588
    -3.4486  -3.3899  -3.3746  -3.3542  -3.3462  -3.3333  -3.3146  -3.3005
    -3.2954  -3.2615  -3.2282  -3.2113  -3.2078  -3.1924  -3.1591  -3.1515
    -3.1469  -3.1076  -3.0846  -3.0790  -3.0719  -3.0678  -3.0619  -3.0613
    -3.0506  -3.0478  -3.0349  -2.9984  -2.9629  -2.9593  -2.9483  -2.9459
    -2.9189  -2.9154  -2.9095  -2.8845  -2.8429  -2.8415  -2.8363  -2.7978
    -2.7889  -2.7783  -2.7765  -2.7519  -2.7466  -2.7173  -2.6824  -2.6801
    -2.6632  -2.6513  -2.6392  -2.6372  -2.5910  -2.5871  -2.5544  -2.5333
    -2.5304  -2.5128  -2.5065  -2.4977  -2.4938  -2.4863  -2.4680  -2.4647
    -2.4189  -2.4177  -2.4155  -2.4050  -2.4006  -2.3923  -2.3889  -2.3868
    -2.3840  -2.3803  -2.3745  -2.3726  -2.3636  -2.3568  -2.3328  -2.3278
    -2.3253  -2.3227  -2.3209  -2.3202  -2.3185  -2.2951  -2.2934  -2.2790
    -2.2750  -2.2577  -2.2567  -2.2512  -2.2478  -2.2458  -2.2442  -2.2301
    -2.2255  -2.2232  -2.2222  -2.2090  -2.1819  -2.1792  -2.1397  -2.1371
    -2.1196  -2.1159  -2.0907  -2.0839  -2.0653  -2.0587  -2.0463  -2.0392
    -2.0106  -2.0018  -1.9910  -1.9854  -1.9826  -1.9780  -1.9726  -1.9693
    -1.9451  -1.9385  -1.9348  -1.8772  -1.8702  -1.8670  -1.8636  -1.8610
    -1.8347  -1.8099  -1.8068  -1.7851  -1.7780  -1.7259  -1.7218  -1.6933
    -1.6791  -1.6706  -1.6159  -1.6143  -1.6039  -1.5996  -1.5919  -1.5869
    -1.5830  -1.5775  -1.5740  -1.5359  -1.5167  -1.5135  -1.5072  -1.5045
    -1.4937  -1.4854  -1.4546  -1.4524  -1.4437  -1.4376  -1.4343  -1.4281
    -1.4229  -1.4165  -1.4102  -1.3948  -1.3901  -1.3635  -1.3488  -1.3462
    -1.3397  -1.3257  -1.3045  -1.2759  -1.2641  -1.2382  -1.2353  -1.2317
    -1.2111  -1.1905  -1.1589  -1.1502  -1.1476  -1.1452  -1.1420  -1.1351
    -1.1199  -1.1141  -1.0985  -1.0716  -1.0665  -1.0443  -1.0430  -1.0340
    -1.0314  -1.0301  -1.0167  -1.0114  -1.0109  -1.0064  -0.9972  -0.9720
    -0.9684  -0.9662  -0.9587  -0.9392  -0.9336  -0.9261  -0.9064  -0.9026
    -0.8806  -0.8567  -0.8480  -0.8410  -0.8135  -0.8036  -0.7983  -0.7920
    -0.7874  -0.7852  -0.7824  -0.7780  -0.7689  -0.7589  -0.7489  -0.7453
    -0.7418  -0.7395  -0.7315  -0.7029  -0.7011  -0.6902  -0.6862  -0.6720
    -0.6669  -0.6579  -0.6534  -0.6026  -0.5996  -0.5919  -0.5909  -0.5880
    -0.5847  -0.5755  -0.5632  -0.5605  -0.5532  -0.5523  -0.5503  -0.5368
    -0.5134  -0.5118  -0.5072  -0.5017  -0.4986  -0.4959  -0.4914  -0.4793
    -0.4757  -0.4753  -0.4553  -0.4339  -0.4326  -0.4252  -0.4196  -0.4171
    -0.3486  -0.3408  -0.3400  -0.3369  -0.3309  -0.3227  -0.2936  -0.2832
    -0.2792  -0.2503  -0.2469  -0.2368  -0.1325  -0.1231  -0.0265   0.3885
     0.3898   0.3947   0.3957   0.4579   0.4667   0.8422   0.8439   0.8842
     0.8874   1.0032   1.0797   1.1850   1.1979   1.4104   1.4265   2.0386
     2.0468   2.1984   2.2103   2.3366   2.3481   2.4393   2.4406   2.5940
     2.8317   2.8474   2.9587   3.1777   3.1888   3.2577   3.2638   3.3616
     3.3788   3.5775   3.5984   3.6316   3.8331   3.8389   3.8943   3.9077
     4.1503   4.1606   4.1745   4.4008   4.4410   4.4504   4.4905   4.8165
     4.8317   4.8593   4.9891   5.1661   5.1693   5.2195   5.2555   5.5341
     5.8213   5.9248   5.9431   5.9573   5.9670   6.0195   6.0305   6.1046
     6.1326   6.1591   6.1649   6.1942   6.1997   6.2190   6.2365   6.2503
     6.2641   6.4445   6.5712   6.7076   6.7643   6.8020   6.8969   6.9049
     6.9157   7.0118   7.0244

          k = 0.5000 0.0000 0.1111 (136853 PWs)   bands (ev):

   -18.9780  -7.1088  -6.3182  -5.9236  -5.9185  -5.2412  -4.9130  -4.9115
    -4.8757  -4.8657  -4.5130  -4.5103  -4.4138  -4.4129  -4.3986  -4.3755
    -4.3536  -4.2500  -4.2439  -4.2223  -4.1777  -4.1771  -4.1145  -4.1083
    -4.1059  -4.1014  -4.0800  -4.0766  -4.0721  -4.0097  -3.9998  -3.9744
    -3.9711  -3.9611  -3.9602  -3.9370  -3.9360  -3.9141  -3.9067  -3.9051
    -3.8813  -3.8283  -3.8274  -3.7803  -3.7766  -3.7262  -3.7254  -3.6719
    -3.6680  -3.6646  -3.6638  -3.6308  -3.5995  -3.5983  -3.5853  -3.5836
    -3.5817  -3.5681  -3.5548  -3.5430  -3.4915  -3.4855  -3.4840  -3.4565
    -3.4479  -3.3895  -3.3744  -3.3530  -3.3413  -3.3180  -3.3156  -3.2997
    -3.2916  -3.2724  -3.2294  -3.2156  -3.2064  -3.1949  -3.1564  -3.1526
    -3.1463  -3.1102  -3.0851  -3.0802  -3.0702  -3.0688  -3.0655  -3.0595
    -3.0495  -3.0460  -3.0388  -3.0005  -2.9638  -2.9586  -2.9486  -2.9464
    -2.9196  -2.9132  -2.9111  -2.8839  -2.8432  -2.8416  -2.8306  -2.7979
    -2.7892  -2.7773  -2.7761  -2.7512  -2.7437  -2.7173  -2.6840  -2.6821
    -2.6633  -2.6515  -2.6401  -2.6375  -2.5905  -2.5870  -2.5545  -2.5340
    -2.5313  -2.5122  -2.5049  -2.4975  -2.4930  -2.4859  -2.4674  -2.4653
    -2.4245  -2.4184  -2.4153  -2.4033  -2.4014  -2.3926  -2.3904  -2.3882
    -2.3835  -2.3803  -2.3745  -2.3742  -2.3629  -2.3597  -2.3315  -2.3285
    -2.3262  -2.3234  -2.3219  -2.3202  -2.3174  -2.2945  -2.2931  -2.2771
    -2.2760  -2.2574  -2.2567  -2.2506  -2.2472  -2.2462  -2.2409  -2.2325
    -2.2264  -2.2229  -2.2199  -2.2112  -2.1829  -2.1794  -2.1390  -2.1379
    -2.1185  -2.1164  -2.0909  -2.0857  -2.0617  -2.0575  -2.0441  -2.0384
    -2.0108  -1.9939  -1.9909  -1.9850  -1.9811  -1.9752  -1.9709  -1.9643
    -1.9447  -1.9400  -1.9340  -1.8869  -1.8727  -1.8668  -1.8660  -1.8613
    -1.8374  -1.8104  -1.8071  -1.7850  -1.7816  -1.7262  -1.7219  -1.6971
    -1.6756  -1.6677  -1.6177  -1.6098  -1.6055  -1.5978  -1.5906  -1.5875
    -1.5836  -1.5788  -1.5731  -1.5297  -1.5239  -1.5143  -1.5100  -1.5032
    -1.4908  -1.4852  -1.4673  -1.4508  -1.4393  -1.4381  -1.4337  -1.4265
    -1.4254  -1.4187  -1.4096  -1.3928  -1.3914  -1.3579  -1.3559  -1.3469
    -1.3394  -1.3249  -1.3036  -1.2737  -1.2619  -1.2380  -1.2357  -1.2306
    -1.2075  -1.1805  -1.1606  -1.1495  -1.1462  -1.1428  -1.1411  -1.1388
    -1.1270  -1.1129  -1.1062  -1.0754  -1.0693  -1.0472  -1.0413  -1.0363
    -1.0316  -1.0281  -1.0188  -1.0121  -1.0094  -1.0065  -0.9851  -0.9710
    -0.9688  -0.9658  -0.9589  -0.9390  -0.9347  -0.9268  -0.9106  -0.8997
    -0.8917  -0.8568  -0.8501  -0.8289  -0.8144  -0.8048  -0.7952  -0.7918
    -0.7873  -0.7845  -0.7830  -0.7718  -0.7700  -0.7565  -0.7474  -0.7451
    -0.7430  -0.7396  -0.7286  -0.7037  -0.7015  -0.6925  -0.6864  -0.6766
    -0.6660  -0.6603  -0.6500  -0.6005  -0.5996  -0.5913  -0.5899  -0.5866
    -0.5846  -0.5817  -0.5647  -0.5592  -0.5539  -0.5529  -0.5522  -0.5367
    -0.5142  -0.5114  -0.5088  -0.5016  -0.4980  -0.4952  -0.4863  -0.4775
    -0.4755  -0.4717  -0.4668  -0.4361  -0.4305  -0.4255  -0.4193  -0.4114
    -0.3473  -0.3416  -0.3392  -0.3365  -0.3297  -0.3290  -0.2943  -0.2833
    -0.2804  -0.2527  -0.2491  -0.2328  -0.1282  -0.1226  -0.0238   0.3883
     0.3900   0.3946   0.3956   0.4530   0.4688   0.8408   0.8423   0.8844
     0.8875   1.0058   1.0799   1.1828   1.2044   1.4015   1.4331   2.0371
     2.0468   2.1965   2.2140   2.3288   2.3529   2.4392   2.4408   2.5934
     2.8313   2.8490   2.9581   3.1722   3.1952   3.2589   3.2639   3.3603
     3.3791   3.5643   3.6066   3.6351   3.8333   3.8388   3.8931   3.9113
     4.1447   4.1597   4.1792   4.4023   4.4383   4.4496   4.4928   4.8200
     4.8333   4.8498   4.9873   5.1666   5.1690   5.2120   5.2666   5.5391
     5.8100   5.9306   5.9544   5.9579   5.9677   6.0235   6.0310   6.0970
     6.1288   6.1605   6.1635   6.1953   6.2038   6.2085   6.2330   6.2475
     6.2718   6.4447   6.5776   6.6957   6.7653   6.8154   6.8893   6.9086
     6.9116   7.0164   7.0273

          k =-0.5000 0.0000 0.1111 (136853 PWs)   bands (ev):

   -18.9780  -7.1088  -6.3182  -5.9236  -5.9185  -5.2412  -4.9130  -4.9115
    -4.8757  -4.8657  -4.5130  -4.5103  -4.4138  -4.4129  -4.3986  -4.3755
    -4.3536  -4.2500  -4.2439  -4.2223  -4.1777  -4.1771  -4.1145  -4.1083
    -4.1059  -4.1014  -4.0800  -4.0766  -4.0721  -4.0097  -3.9998  -3.9744
    -3.9711  -3.9611  -3.9602  -3.9370  -3.9360  -3.9141  -3.9067  -3.9051
    -3.8813  -3.8283  -3.8274  -3.7803  -3.7766  -3.7262  -3.7254  -3.6719
    -3.6680  -3.6646  -3.6638  -3.6308  -3.5995  -3.5983  -3.5853  -3.5836
    -3.5817  -3.5681  -3.5548  -3.5430  -3.4915  -3.4855  -3.4840  -3.4565
    -3.4479  -3.3895  -3.3744  -3.3530  -3.3413  -3.3180  -3.3156  -3.2997
    -3.2916  -3.2724  -3.2294  -3.2156  -3.2064  -3.1949  -3.1564  -3.1526
    -3.1463  -3.1102  -3.0851  -3.0802  -3.0702  -3.0688  -3.0655  -3.0595
    -3.0495  -3.0460  -3.0388  -3.0005  -2.9638  -2.9586  -2.9486  -2.9464
    -2.9196  -2.9132  -2.9111  -2.8839  -2.8432  -2.8416  -2.8306  -2.7979
    -2.7892  -2.7773  -2.7761  -2.7512  -2.7437  -2.7173  -2.6840  -2.6821
    -2.6633  -2.6515  -2.6401  -2.6375  -2.5905  -2.5870  -2.5545  -2.5340
    -2.5313  -2.5122  -2.5049  -2.4975  -2.4930  -2.4859  -2.4674  -2.4653
    -2.4245  -2.4184  -2.4153  -2.4033  -2.4014  -2.3926  -2.3904  -2.3882
    -2.3835  -2.3803  -2.3745  -2.3742  -2.3629  -2.3597  -2.3315  -2.3285
    -2.3262  -2.3234  -2.3219  -2.3202  -2.3174  -2.2945  -2.2931  -2.2771
    -2.2760  -2.2574  -2.2567  -2.2506  -2.2472  -2.2462  -2.2409  -2.2325
    -2.2264  -2.2229  -2.2199  -2.2112  -2.1829  -2.1794  -2.1390  -2.1379
    -2.1185  -2.1164  -2.0909  -2.0857  -2.0617  -2.0575  -2.0441  -2.0384
    -2.0108  -1.9939  -1.9909  -1.9850  -1.9811  -1.9752  -1.9709  -1.9643
    -1.9447  -1.9400  -1.9340  -1.8869  -1.8727  -1.8668  -1.8660  -1.8613
    -1.8374  -1.8104  -1.8071  -1.7850  -1.7816  -1.7262  -1.7219  -1.6971
    -1.6756  -1.6677  -1.6177  -1.6098  -1.6055  -1.5978  -1.5906  -1.5875
    -1.5836  -1.5788  -1.5731  -1.5297  -1.5239  -1.5143  -1.5100  -1.5032
    -1.4908  -1.4852  -1.4673  -1.4508  -1.4393  -1.4381  -1.4337  -1.4265
    -1.4254  -1.4187  -1.4096  -1.3928  -1.3914  -1.3579  -1.3559  -1.3469
    -1.3394  -1.3249  -1.3036  -1.2737  -1.2619  -1.2380  -1.2357  -1.2306
    -1.2075  -1.1805  -1.1606  -1.1495  -1.1462  -1.1428  -1.1411  -1.1388
    -1.1270  -1.1129  -1.1062  -1.0754  -1.0693  -1.0472  -1.0413  -1.0363
    -1.0316  -1.0281  -1.0188  -1.0121  -1.0094  -1.0065  -0.9851  -0.9710
    -0.9688  -0.9658  -0.9589  -0.9390  -0.9347  -0.9268  -0.9106  -0.8997
    -0.8917  -0.8568  -0.8501  -0.8289  -0.8144  -0.8048  -0.7952  -0.7918
    -0.7873  -0.7845  -0.7830  -0.7718  -0.7700  -0.7565  -0.7474  -0.7451
    -0.7430  -0.7396  -0.7286  -0.7037  -0.7015  -0.6925  -0.6864  -0.6766
    -0.6660  -0.6603  -0.6500  -0.6005  -0.5996  -0.5913  -0.5899  -0.5866
    -0.5846  -0.5817  -0.5647  -0.5592  -0.5539  -0.5529  -0.5522  -0.5367
    -0.5142  -0.5114  -0.5088  -0.5016  -0.4980  -0.4952  -0.4863  -0.4775
    -0.4755  -0.4717  -0.4668  -0.4361  -0.4305  -0.4255  -0.4193  -0.4114
    -0.3473  -0.3416  -0.3392  -0.3365  -0.3297  -0.3290  -0.2943  -0.2833
    -0.2804  -0.2527  -0.2491  -0.2328  -0.1282  -0.1226  -0.0238   0.3883
     0.3900   0.3946   0.3956   0.4530   0.4688   0.8408   0.8423   0.8844
     0.8875   1.0058   1.0799   1.1828   1.2044   1.4015   1.4331   2.0371
     2.0468   2.1965   2.2140   2.3288   2.3529   2.4392   2.4408   2.5934
     2.8313   2.8490   2.9581   3.1722   3.1952   3.2589   3.2639   3.3603
     3.3791   3.5643   3.6066   3.6351   3.8333   3.8388   3.8931   3.9113
     4.1447   4.1597   4.1792   4.4023   4.4383   4.4496   4.4928   4.8200
     4.8333   4.8498   4.9873   5.1666   5.1690   5.2120   5.2666   5.5391
     5.8100   5.9306   5.9544   5.9579   5.9676   6.0235   6.0310   6.0969
     6.1289   6.1602   6.1636   6.1953   6.2040   6.2082   6.2331   6.2475
     6.2719   6.4447   6.5775   6.6962   6.7656   6.8160   6.8893   6.9084
     6.9119   7.0161   7.0260

          k =-0.2500 0.1443 0.1111 (136898 PWs)   bands (ev):

   -18.9780  -7.1101  -6.5262  -5.7388  -5.4440  -5.3910  -5.3879  -4.8530
    -4.8510  -4.7205  -4.7182  -4.5633  -4.5350  -4.4725  -4.4443  -4.4352
    -4.4065  -4.4049  -4.2761  -4.2344  -4.2342  -4.1767  -4.1585  -4.1533
    -4.0528  -4.0511  -4.0164  -4.0142  -4.0139  -3.9884  -3.9680  -3.9664
    -3.8646  -3.8602  -3.8591  -3.8412  -3.8261  -3.8214  -3.8113  -3.8088
    -3.8000  -3.7695  -3.7670  -3.7659  -3.7643  -3.7364  -3.7355  -3.7189
    -3.7147  -3.7096  -3.6732  -3.6673  -3.6297  -3.6170  -3.6113  -3.6063
    -3.6060  -3.5362  -3.5320  -3.5044  -3.5014  -3.4936  -3.4372  -3.4264
    -3.4233  -3.4107  -3.3907  -3.3840  -3.3822  -3.3810  -3.2793  -3.2251
    -3.2196  -3.2050  -3.2004  -3.1948  -3.1795  -3.1744  -3.1556  -3.1476
    -3.1036  -3.1025  -3.0887  -3.0834  -3.0668  -3.0235  -3.0175  -3.0018
    -2.9953  -2.9921  -2.9548  -2.9534  -2.9440  -2.9432  -2.9300  -2.9226
    -2.8914  -2.8901  -2.8711  -2.8664  -2.8652  -2.8623  -2.8589  -2.7878
    -2.7855  -2.7820  -2.7543  -2.7520  -2.6953  -2.6874  -2.6650  -2.6624
    -2.6530  -2.6494  -2.6418  -2.6148  -2.6132  -2.6035  -2.5882  -2.5689
    -2.5625  -2.5573  -2.5422  -2.5403  -2.5367  -2.5279  -2.5260  -2.5207
    -2.5146  -2.4693  -2.4419  -2.4395  -2.4240  -2.4110  -2.4062  -2.4020
    -2.3977  -2.3939  -2.3911  -2.3660  -2.3633  -2.3622  -2.3538  -2.3525
    -2.3392  -2.3143  -2.3112  -2.3094  -2.3067  -2.3060  -2.2599  -2.2347
    -2.2313  -2.2279  -2.2240  -2.2124  -2.2036  -2.2020  -2.1836  -2.1832
    -2.1611  -2.1501  -2.1495  -2.1320  -2.1313  -2.1303  -2.1001  -2.0974
    -2.0643  -2.0527  -2.0514  -2.0499  -2.0456  -2.0417  -2.0398  -2.0366
    -2.0340  -2.0319  -2.0259  -2.0135  -2.0111  -1.8942  -1.8868  -1.8667
    -1.8507  -1.8450  -1.8390  -1.8374  -1.8306  -1.8236  -1.8196  -1.8189
    -1.8159  -1.7967  -1.7933  -1.7890  -1.7808  -1.7767  -1.7713  -1.7532
    -1.7504  -1.7265  -1.7217  -1.6968  -1.6938  -1.6821  -1.6729  -1.6567
    -1.6530  -1.6509  -1.6359  -1.6213  -1.6196  -1.6125  -1.6122  -1.5937
    -1.5874  -1.5729  -1.5690  -1.5424  -1.5346  -1.5278  -1.4945  -1.4788
    -1.4711  -1.4626  -1.4593  -1.4360  -1.4340  -1.4130  -1.4041  -1.3984
    -1.3706  -1.3615  -1.3582  -1.3419  -1.3385  -1.3218  -1.3157  -1.3137
    -1.2914  -1.2850  -1.2794  -1.2348  -1.2202  -1.2133  -1.2070  -1.1974
    -1.1893  -1.1791  -1.1738  -1.1587  -1.1494  -1.1420  -1.1197  -1.1101
    -1.0985  -1.0734  -1.0670  -1.0615  -1.0550  -1.0531  -1.0512  -1.0464
    -1.0310  -1.0217  -1.0074  -0.9973  -0.9900  -0.9893  -0.9869  -0.9738
    -0.9631  -0.9449  -0.9345  -0.9261  -0.8789  -0.8364  -0.8236  -0.8156
    -0.8145  -0.8116  -0.8028  -0.8008  -0.7837  -0.7696  -0.7639  -0.7588
    -0.7493  -0.7456  -0.7375  -0.7218  -0.7196  -0.7100  -0.7089  -0.6361
    -0.6346  -0.6073  -0.5993  -0.5955  -0.5922  -0.5879  -0.5870  -0.5819
    -0.5732  -0.5662  -0.5563  -0.5322  -0.5138  -0.5031  -0.4986  -0.4907
    -0.4853  -0.4784  -0.4748  -0.4738  -0.4708  -0.4627  -0.4555  -0.4515
    -0.4415  -0.4212  -0.4195  -0.4132  -0.4052  -0.4025  -0.3860  -0.3552
    -0.3523  -0.3453  -0.3361  -0.2776  -0.2755  -0.2435  -0.2418  -0.1870
    -0.1845  -0.1807  -0.1597  -0.1579   0.0732   0.0864   0.4188   0.4192
     0.5090   0.5255   0.7094   0.7338   0.7376   0.8642   0.8695   1.2987
     1.3005   1.3163   1.5830   1.6088   1.6104   1.8823   1.9024   1.9607
     1.9667   1.9877   2.0058   2.2190   2.2218   2.3098   2.3119   2.3909
     2.4454   2.4708   2.6142   2.7180   3.1401   3.1533   3.1549   3.1629
     3.2082   3.2125   3.5022   3.5044   3.7763   3.7964   3.9025   4.1983
     4.2287   4.2481   4.4549   4.4907   4.5390   4.5441   4.6370   4.7485
     4.7566   4.8677   4.8732   5.1691   5.2277   5.2484   5.3727   5.4445
     5.4611   5.6158   5.6340   5.6567   5.6598   5.7103   5.7228   5.7771
     5.8878   6.0704   6.2869   6.3223   6.3739   6.4525   6.4623   6.4717
     6.4840   6.5403   6.6575   6.7079   6.7238   6.8503   6.9294   6.9614
     6.9825   7.0362   7.0757

          k =-0.2500-0.1443-0.1111 (136898 PWs)   bands (ev):

   -18.9780  -7.1101  -6.5261  -5.7388  -5.4439  -5.3911  -5.3879  -4.8530
    -4.8509  -4.7200  -4.7187  -4.5633  -4.5350  -4.4726  -4.4444  -4.4353
    -4.4062  -4.4050  -4.2761  -4.2346  -4.2340  -4.1765  -4.1584  -4.1534
    -4.0526  -4.0510  -4.0165  -4.0143  -4.0139  -3.9884  -3.9677  -3.9666
    -3.8649  -3.8604  -3.8592  -3.8412  -3.8262  -3.8215  -3.8111  -3.8088
    -3.8002  -3.7690  -3.7670  -3.7660  -3.7643  -3.7361  -3.7355  -3.7192
    -3.7147  -3.7097  -3.6715  -3.6684  -3.6300  -3.6168  -3.6111  -3.6064
    -3.6060  -3.5361  -3.5321  -3.5044  -3.5011  -3.4937  -3.4373  -3.4267
    -3.4234  -3.4106  -3.3911  -3.3839  -3.3824  -3.3806  -3.2802  -3.2252
    -3.2184  -3.2047  -3.2001  -3.1952  -3.1796  -3.1746  -3.1558  -3.1475
    -3.1037  -3.1027  -3.0887  -3.0831  -3.0668  -3.0235  -3.0170  -3.0020
    -2.9951  -2.9923  -2.9547  -2.9538  -2.9440  -2.9434  -2.9304  -2.9231
    -2.8913  -2.8898  -2.8707  -2.8662  -2.8650  -2.8624  -2.8588  -2.7881
    -2.7856  -2.7822  -2.7543  -2.7520  -2.6941  -2.6877  -2.6652  -2.6624
    -2.6524  -2.6493  -2.6418  -2.6146  -2.6131  -2.6037  -2.5884  -2.5695
    -2.5630  -2.5573  -2.5423  -2.5405  -2.5364  -2.5275  -2.5262  -2.5208
    -2.5147  -2.4692  -2.4418  -2.4395  -2.4239  -2.4110  -2.4061  -2.4020
    -2.3977  -2.3939  -2.3916  -2.3659  -2.3629  -2.3620  -2.3537  -2.3522
    -2.3391  -2.3144  -2.3109  -2.3097  -2.3068  -2.3063  -2.2601  -2.2351
    -2.2314  -2.2280  -2.2237  -2.2125  -2.2032  -2.2015  -2.1835  -2.1829
    -2.1612  -2.1502  -2.1495  -2.1322  -2.1311  -2.1299  -2.1006  -2.0975
    -2.0638  -2.0520  -2.0513  -2.0500  -2.0455  -2.0417  -2.0396  -2.0370
    -2.0346  -2.0319  -2.0260  -2.0135  -2.0119  -1.8917  -1.8867  -1.8685
    -1.8504  -1.8448  -1.8390  -1.8374  -1.8317  -1.8239  -1.8202  -1.8185
    -1.8153  -1.7959  -1.7927  -1.7889  -1.7805  -1.7762  -1.7714  -1.7532
    -1.7505  -1.7258  -1.7219  -1.6996  -1.6938  -1.6825  -1.6734  -1.6569
    -1.6532  -1.6507  -1.6358  -1.6215  -1.6195  -1.6126  -1.6121  -1.5942
    -1.5872  -1.5727  -1.5686  -1.5431  -1.5350  -1.5296  -1.4926  -1.4789
    -1.4713  -1.4625  -1.4597  -1.4363  -1.4336  -1.4123  -1.4041  -1.3983
    -1.3715  -1.3597  -1.3581  -1.3431  -1.3385  -1.3228  -1.3145  -1.3120
    -1.2905  -1.2849  -1.2796  -1.2350  -1.2206  -1.2125  -1.2075  -1.1995
    -1.1892  -1.1799  -1.1736  -1.1585  -1.1489  -1.1418  -1.1196  -1.1091
    -1.0999  -1.0734  -1.0666  -1.0617  -1.0555  -1.0533  -1.0513  -1.0466
    -1.0309  -1.0229  -1.0067  -0.9992  -0.9900  -0.9882  -0.9838  -0.9751
    -0.9640  -0.9442  -0.9341  -0.9257  -0.8803  -0.8361  -0.8235  -0.8157
    -0.8148  -0.8117  -0.8034  -0.8007  -0.7837  -0.7713  -0.7643  -0.7570
    -0.7491  -0.7455  -0.7367  -0.7223  -0.7166  -0.7117  -0.7096  -0.6359
    -0.6342  -0.6069  -0.5992  -0.5960  -0.5922  -0.5881  -0.5871  -0.5827
    -0.5735  -0.5655  -0.5560  -0.5321  -0.5136  -0.5027  -0.4990  -0.4908
    -0.4855  -0.4787  -0.4749  -0.4739  -0.4711  -0.4620  -0.4556  -0.4516
    -0.4422  -0.4211  -0.4197  -0.4123  -0.4052  -0.4017  -0.3861  -0.3552
    -0.3523  -0.3452  -0.3358  -0.2776  -0.2754  -0.2436  -0.2417  -0.1871
    -0.1842  -0.1806  -0.1597  -0.1588   0.0748   0.0857   0.4188   0.4192
     0.5102   0.5249   0.7083   0.7329   0.7392   0.8647   0.8695   1.2987
     1.3002   1.3175   1.5829   1.6087   1.6101   1.8832   1.9020   1.9603
     1.9658   1.9887   2.0050   2.2185   2.2211   2.3101   2.3119   2.3909
     2.4461   2.4700   2.6149   2.7179   3.1402   3.1535   3.1549   3.1624
     3.2080   3.2120   3.5022   3.5041   3.7768   3.7959   3.9018   4.1990
     4.2288   4.2470   4.4563   4.4908   4.5390   4.5439   4.6365   4.7484
     4.7573   4.8678   4.8740   5.1688   5.2290   5.2494   5.3728   5.4441
     5.4619   5.6173   5.6329   5.6561   5.6598   5.7099   5.7242   5.7743
     5.8882   6.0682   6.2872   6.3215   6.3772   6.4508   6.4621   6.4717
     6.4843   6.5395   6.6562   6.7117   6.7239   6.8476   6.9294   6.9648
     6.9806   7.0357   7.0767

          k = 0.2500 0.1443-0.1111 (136898 PWs)   bands (ev):

   -18.9780  -7.1101  -6.5261  -5.7388  -5.4439  -5.3911  -5.3879  -4.8530
    -4.8509  -4.7200  -4.7187  -4.5633  -4.5350  -4.4726  -4.4444  -4.4353
    -4.4062  -4.4050  -4.2761  -4.2346  -4.2340  -4.1765  -4.1584  -4.1534
    -4.0526  -4.0510  -4.0165  -4.0143  -4.0139  -3.9884  -3.9677  -3.9666
    -3.8649  -3.8604  -3.8592  -3.8412  -3.8262  -3.8215  -3.8111  -3.8088
    -3.8002  -3.7690  -3.7670  -3.7660  -3.7643  -3.7361  -3.7355  -3.7192
    -3.7147  -3.7097  -3.6715  -3.6684  -3.6300  -3.6168  -3.6111  -3.6064
    -3.6060  -3.5361  -3.5321  -3.5044  -3.5011  -3.4937  -3.4373  -3.4267
    -3.4234  -3.4106  -3.3911  -3.3839  -3.3824  -3.3806  -3.2802  -3.2252
    -3.2184  -3.2047  -3.2001  -3.1952  -3.1796  -3.1746  -3.1558  -3.1475
    -3.1037  -3.1027  -3.0887  -3.0831  -3.0668  -3.0235  -3.0170  -3.0020
    -2.9951  -2.9923  -2.9547  -2.9538  -2.9440  -2.9434  -2.9304  -2.9231
    -2.8913  -2.8898  -2.8707  -2.8662  -2.8650  -2.8624  -2.8588  -2.7881
    -2.7856  -2.7822  -2.7543  -2.7520  -2.6941  -2.6877  -2.6652  -2.6624
    -2.6524  -2.6493  -2.6418  -2.6146  -2.6131  -2.6037  -2.5884  -2.5694
    -2.5630  -2.5573  -2.5423  -2.5405  -2.5364  -2.5275  -2.5262  -2.5208
    -2.5147  -2.4692  -2.4418  -2.4396  -2.4239  -2.4110  -2.4061  -2.4020
    -2.3977  -2.3939  -2.3916  -2.3659  -2.3629  -2.3620  -2.3537  -2.3522
    -2.3391  -2.3144  -2.3109  -2.3097  -2.3068  -2.3063  -2.2601  -2.2351
    -2.2314  -2.2280  -2.2237  -2.2125  -2.2032  -2.2015  -2.1835  -2.1829
    -2.1612  -2.1502  -2.1494  -2.1322  -2.1311  -2.1299  -2.1006  -2.0975
    -2.0638  -2.0520  -2.0513  -2.0500  -2.0455  -2.0417  -2.0396  -2.0370
    -2.0346  -2.0319  -2.0260  -2.0135  -2.0119  -1.8917  -1.8867  -1.8685
    -1.8504  -1.8448  -1.8390  -1.8374  -1.8317  -1.8239  -1.8202  -1.8185
    -1.8153  -1.7959  -1.7927  -1.7889  -1.7805  -1.7762  -1.7714  -1.7532
    -1.7505  -1.7258  -1.7219  -1.6996  -1.6938  -1.6825  -1.6734  -1.6569
    -1.6532  -1.6507  -1.6358  -1.6215  -1.6195  -1.6126  -1.6121  -1.5942
    -1.5872  -1.5727  -1.5686  -1.5431  -1.5350  -1.5296  -1.4926  -1.4789
    -1.4713  -1.4625  -1.4597  -1.4363  -1.4336  -1.4123  -1.4041  -1.3983
    -1.3715  -1.3597  -1.3581  -1.3431  -1.3385  -1.3228  -1.3145  -1.3120
    -1.2905  -1.2849  -1.2796  -1.2350  -1.2206  -1.2125  -1.2075  -1.1995
    -1.1892  -1.1799  -1.1736  -1.1585  -1.1489  -1.1418  -1.1196  -1.1091
    -1.0999  -1.0734  -1.0666  -1.0617  -1.0555  -1.0533  -1.0513  -1.0466
    -1.0309  -1.0229  -1.0067  -0.9992  -0.9900  -0.9882  -0.9838  -0.9751
    -0.9640  -0.9442  -0.9341  -0.9257  -0.8803  -0.8361  -0.8235  -0.8157
    -0.8148  -0.8117  -0.8034  -0.8007  -0.7837  -0.7713  -0.7643  -0.7570
    -0.7491  -0.7455  -0.7367  -0.7223  -0.7166  -0.7117  -0.7096  -0.6359
    -0.6342  -0.6069  -0.5993  -0.5960  -0.5922  -0.5880  -0.5871  -0.5827
    -0.5735  -0.5655  -0.5560  -0.5321  -0.5136  -0.5027  -0.4990  -0.4908
    -0.4855  -0.4787  -0.4749  -0.4739  -0.4711  -0.4621  -0.4556  -0.4516
    -0.4422  -0.4211  -0.4197  -0.4123  -0.4052  -0.4017  -0.3861  -0.3552
    -0.3523  -0.3452  -0.3358  -0.2776  -0.2754  -0.2436  -0.2417  -0.1871
    -0.1842  -0.1806  -0.1597  -0.1588   0.0748   0.0857   0.4188   0.4192
     0.5102   0.5249   0.7083   0.7329   0.7392   0.8647   0.8695   1.2987
     1.3002   1.3175   1.5829   1.6087   1.6101   1.8832   1.9020   1.9603
     1.9658   1.9887   2.0050   2.2185   2.2211   2.3101   2.3119   2.3909
     2.4461   2.4700   2.6149   2.7179   3.1402   3.1535   3.1549   3.1624
     3.2081   3.2120   3.5022   3.5041   3.7768   3.7959   3.9018   4.1990
     4.2288   4.2470   4.4563   4.4908   4.5390   4.5439   4.6365   4.7484
     4.7573   4.8678   4.8740   5.1688   5.2290   5.2494   5.3727   5.4440
     5.4621   5.6173   5.6329   5.6561   5.6598   5.7099   5.7241   5.7747
     5.8867   6.0707   6.2877   6.3221   6.3773   6.4511   6.4622   6.4715
     6.4848   6.5334   6.6515   6.7116   6.7234   6.8499   6.9313   6.9649
     6.9804   7.0380   7.0823

          k = 0.0000-0.2887 0.1111 (136898 PWs)   bands (ev):

   -18.9780  -7.1100  -6.5262  -5.7392  -5.4441  -5.3896  -5.3885  -4.8522
    -4.8514  -4.7230  -4.7174  -4.5633  -4.5349  -4.4734  -4.4395  -4.4376
    -4.4056  -4.4051  -4.2763  -4.2346  -4.2340  -4.1780  -4.1562  -4.1545
    -4.0522  -4.0512  -4.0164  -4.0141  -4.0141  -3.9884  -3.9671  -3.9666
    -3.8657  -3.8614  -3.8593  -3.8406  -3.8256  -3.8216  -3.8103  -3.8097
    -3.8002  -3.7682  -3.7672  -3.7655  -3.7646  -3.7367  -3.7353  -3.7196
    -3.7146  -3.7093  -3.6705  -3.6683  -3.6313  -3.6144  -3.6132  -3.6060
    -3.6058  -3.5367  -3.5322  -3.5043  -3.4993  -3.4960  -3.4363  -3.4262
    -3.4231  -3.4106  -3.3929  -3.3840  -3.3834  -3.3806  -3.2982  -3.2245
    -3.2078  -3.2052  -3.1985  -3.1911  -3.1799  -3.1775  -3.1563  -3.1490
    -3.1035  -3.1003  -3.0868  -3.0780  -3.0648  -3.0264  -3.0192  -3.0004
    -2.9944  -2.9914  -2.9544  -2.9514  -2.9448  -2.9432  -2.9296  -2.9293
    -2.8904  -2.8889  -2.8713  -2.8673  -2.8649  -2.8648  -2.8586  -2.7865
    -2.7863  -2.7799  -2.7535  -2.7525  -2.6973  -2.6900  -2.6636  -2.6613
    -2.6508  -2.6504  -2.6417  -2.6153  -2.6141  -2.6035  -2.5868  -2.5721
    -2.5611  -2.5587  -2.5413  -2.5411  -2.5323  -2.5317  -2.5258  -2.5193
    -2.5148  -2.4693  -2.4410  -2.4404  -2.4230  -2.4106  -2.4070  -2.4018
    -2.3958  -2.3948  -2.3923  -2.3657  -2.3650  -2.3606  -2.3527  -2.3515
    -2.3387  -2.3121  -2.3116  -2.3091  -2.3074  -2.3055  -2.2605  -2.2329
    -2.2309  -2.2296  -2.2240  -2.2128  -2.2049  -2.1994  -2.1833  -2.1831
    -2.1579  -2.1502  -2.1491  -2.1361  -2.1314  -2.1310  -2.0991  -2.0974
    -2.0672  -2.0521  -2.0514  -2.0487  -2.0473  -2.0421  -2.0405  -2.0385
    -2.0360  -2.0302  -2.0288  -2.0125  -2.0117  -1.8931  -1.8887  -1.8536
    -1.8515  -1.8459  -1.8385  -1.8382  -1.8319  -1.8277  -1.8227  -1.8167
    -1.8131  -1.7975  -1.7934  -1.7888  -1.7809  -1.7737  -1.7727  -1.7565
    -1.7499  -1.7277  -1.7214  -1.6986  -1.6919  -1.6828  -1.6732  -1.6550
    -1.6541  -1.6515  -1.6362  -1.6208  -1.6198  -1.6126  -1.6118  -1.5903
    -1.5861  -1.5735  -1.5719  -1.5457  -1.5349  -1.5263  -1.4883  -1.4800
    -1.4671  -1.4634  -1.4563  -1.4369  -1.4332  -1.4207  -1.4029  -1.4025
    -1.3691  -1.3595  -1.3563  -1.3408  -1.3403  -1.3192  -1.3166  -1.3089
    -1.2968  -1.2797  -1.2792  -1.2459  -1.2164  -1.2111  -1.2095  -1.2015
    -1.1934  -1.1797  -1.1747  -1.1584  -1.1453  -1.1230  -1.1187  -1.1088
    -1.1040  -1.0747  -1.0676  -1.0618  -1.0563  -1.0524  -1.0518  -1.0442
    -1.0421  -1.0310  -1.0089  -1.0026  -0.9930  -0.9886  -0.9867  -0.9693
    -0.9516  -0.9456  -0.9308  -0.9237  -0.8822  -0.8364  -0.8199  -0.8183
    -0.8135  -0.8108  -0.8029  -0.7976  -0.7818  -0.7767  -0.7678  -0.7630
    -0.7508  -0.7467  -0.7393  -0.7201  -0.7165  -0.7118  -0.7047  -0.6374
    -0.6315  -0.6050  -0.5999  -0.5954  -0.5921  -0.5881  -0.5863  -0.5852
    -0.5782  -0.5588  -0.5545  -0.5320  -0.5187  -0.5013  -0.4979  -0.4909
    -0.4871  -0.4790  -0.4780  -0.4733  -0.4717  -0.4612  -0.4549  -0.4513
    -0.4431  -0.4216  -0.4208  -0.4112  -0.4062  -0.3962  -0.3842  -0.3548
    -0.3523  -0.3448  -0.3434  -0.2789  -0.2689  -0.2441  -0.2413  -0.1868
    -0.1834  -0.1799  -0.1629  -0.1597   0.0752   0.0884   0.4185   0.4194
     0.5154   0.5219   0.7027   0.7322   0.7409   0.8655   0.8673   1.2995
     1.3002   1.3156   1.5820   1.6095   1.6103   1.8890   1.8972   1.9620
     1.9667   1.9950   1.9979   2.2201   2.2217   2.3097   2.3117   2.3927
     2.4553   2.4588   2.6140   2.7180   3.1373   3.1538   3.1564   3.1622
     3.2101   3.2118   3.5013   3.5038   3.7832   3.7907   3.9017   4.2008
     4.2320   4.2437   4.4640   4.4801   4.5390   4.5493   4.6345   4.7440
     4.7635   4.8630   4.8720   5.1649   5.2269   5.2571   5.3887   5.4308
     5.4578   5.6248   5.6322   5.6514   5.6600   5.7058   5.7271   5.7765
     5.8861   6.0817   6.2864   6.3222   6.3626   6.4578   6.4629   6.4647
     6.4805   6.5301   6.6586   6.7086   6.7180   6.8656   6.9250   6.9715
     6.9748   7.0391   7.0752

          k = 0.0000 0.2887 0.1111 (136898 PWs)   bands (ev):

   -18.9780  -7.1100  -6.5262  -5.7392  -5.4441  -5.3896  -5.3885  -4.8522
    -4.8514  -4.7230  -4.7174  -4.5633  -4.5349  -4.4734  -4.4395  -4.4376
    -4.4056  -4.4051  -4.2763  -4.2346  -4.2340  -4.1780  -4.1562  -4.1545
    -4.0522  -4.0512  -4.0164  -4.0141  -4.0141  -3.9884  -3.9670  -3.9666
    -3.8657  -3.8614  -3.8593  -3.8406  -3.8256  -3.8216  -3.8103  -3.8097
    -3.8002  -3.7682  -3.7672  -3.7655  -3.7646  -3.7367  -3.7353  -3.7196
    -3.7146  -3.7093  -3.6705  -3.6683  -3.6313  -3.6144  -3.6132  -3.6061
    -3.6058  -3.5367  -3.5322  -3.5043  -3.4993  -3.4960  -3.4363  -3.4262
    -3.4231  -3.4106  -3.3929  -3.3840  -3.3834  -3.3806  -3.2982  -3.2245
    -3.2078  -3.2052  -3.1985  -3.1911  -3.1799  -3.1775  -3.1563  -3.1490
    -3.1035  -3.1003  -3.0868  -3.0780  -3.0648  -3.0264  -3.0192  -3.0004
    -2.9944  -2.9914  -2.9544  -2.9514  -2.9448  -2.9432  -2.9296  -2.9293
    -2.8904  -2.8889  -2.8713  -2.8673  -2.8649  -2.8648  -2.8586  -2.7866
    -2.7863  -2.7799  -2.7535  -2.7525  -2.6973  -2.6900  -2.6636  -2.6613
    -2.6508  -2.6504  -2.6417  -2.6153  -2.6141  -2.6035  -2.5868  -2.5721
    -2.5611  -2.5587  -2.5413  -2.5411  -2.5323  -2.5317  -2.5258  -2.5193
    -2.5148  -2.4693  -2.4410  -2.4404  -2.4230  -2.4106  -2.4070  -2.4018
    -2.3958  -2.3948  -2.3923  -2.3657  -2.3650  -2.3606  -2.3527  -2.3515
    -2.3387  -2.3121  -2.3115  -2.3091  -2.3074  -2.3055  -2.2605  -2.2329
    -2.2309  -2.2296  -2.2240  -2.2128  -2.2049  -2.1994  -2.1833  -2.1831
    -2.1579  -2.1502  -2.1491  -2.1361  -2.1314  -2.1310  -2.0991  -2.0974
    -2.0672  -2.0521  -2.0515  -2.0487  -2.0473  -2.0421  -2.0405  -2.0385
    -2.0360  -2.0302  -2.0288  -2.0125  -2.0117  -1.8931  -1.8887  -1.8536
    -1.8515  -1.8459  -1.8385  -1.8382  -1.8319  -1.8277  -1.8227  -1.8167
    -1.8131  -1.7975  -1.7934  -1.7888  -1.7809  -1.7737  -1.7727  -1.7565
    -1.7499  -1.7277  -1.7214  -1.6986  -1.6919  -1.6828  -1.6732  -1.6549
    -1.6541  -1.6515  -1.6362  -1.6208  -1.6198  -1.6126  -1.6118  -1.5903
    -1.5861  -1.5735  -1.5719  -1.5457  -1.5349  -1.5263  -1.4883  -1.4800
    -1.4671  -1.4634  -1.4563  -1.4369  -1.4332  -1.4207  -1.4029  -1.4025
    -1.3691  -1.3595  -1.3563  -1.3408  -1.3403  -1.3192  -1.3166  -1.3089
    -1.2968  -1.2797  -1.2792  -1.2459  -1.2164  -1.2111  -1.2095  -1.2015
    -1.1934  -1.1797  -1.1747  -1.1584  -1.1453  -1.1230  -1.1187  -1.1088
    -1.1040  -1.0747  -1.0676  -1.0618  -1.0563  -1.0524  -1.0518  -1.0442
    -1.0421  -1.0310  -1.0089  -1.0026  -0.9930  -0.9886  -0.9867  -0.9693
    -0.9516  -0.9456  -0.9308  -0.9237  -0.8822  -0.8364  -0.8198  -0.8183
    -0.8135  -0.8108  -0.8029  -0.7976  -0.7818  -0.7767  -0.7678  -0.7630
    -0.7508  -0.7467  -0.7393  -0.7201  -0.7165  -0.7118  -0.7047  -0.6373
    -0.6315  -0.6050  -0.5999  -0.5954  -0.5921  -0.5881  -0.5863  -0.5852
    -0.5782  -0.5588  -0.5545  -0.5320  -0.5187  -0.5013  -0.4979  -0.4909
    -0.4871  -0.4790  -0.4780  -0.4733  -0.4717  -0.4612  -0.4549  -0.4513
    -0.4431  -0.4216  -0.4208  -0.4112  -0.4062  -0.3962  -0.3842  -0.3548
    -0.3523  -0.3448  -0.3434  -0.2789  -0.2689  -0.2441  -0.2413  -0.1868
    -0.1834  -0.1799  -0.1629  -0.1597   0.0752   0.0884   0.4185   0.4194
     0.5154   0.5219   0.7027   0.7322   0.7409   0.8655   0.8673   1.2995
     1.3002   1.3156   1.5820   1.6095   1.6103   1.8890   1.8972   1.9620
     1.9667   1.9950   1.9979   2.2201   2.2217   2.3097   2.3117   2.3927
     2.4553   2.4588   2.6140   2.7180   3.1373   3.1538   3.1564   3.1622
     3.2101   3.2118   3.5013   3.5038   3.7832   3.7907   3.9017   4.2008
     4.2320   4.2437   4.4641   4.4801   4.5390   4.5493   4.6345   4.7440
     4.7635   4.8630   4.8720   5.1649   5.2269   5.2571   5.3889   5.4308
     5.4575   5.6248   5.6322   5.6514   5.6600   5.7058   5.7271   5.7759
     5.8895   6.0774   6.2836   6.3207   6.3622   6.4570   6.4629   6.4645
     6.4805   6.5423   6.6610   6.7074   6.7179   6.8579   6.9251   6.9720
     6.9748   7.0464   7.0828

     the Fermi energy is     1.4460 ev

!    total energy              =   -6604.41238703 Ry
     Harris-Foulkes estimate   =   -6604.41238703 Ry
     estimated scf accuracy    <          2.0E-09 Ry

     The total energy is the sum of the following terms:

     one-electron contribution =  -48850.55580283 Ry
     hartree contribution      =   24926.58929897 Ry
     xc contribution           =   -3205.04178061 Ry
     ewald contribution        =   20524.59313271 Ry
     smearing contrib. (-TS)   =       0.00276474 Ry

     convergence has been achieved in  25 iterations

     Writing output data file 8344620.save

     init_run     :    172.19s CPU    183.69s WALL (       1 calls)
     electrons    :  10159.26s CPU  10769.58s WALL (       1 calls)

     Called by init_run:
     wfcinit      :    141.74s CPU    152.09s WALL (       1 calls)
     potinit      :      9.23s CPU      9.65s WALL (       1 calls)

     Called by electrons:
     c_bands      :   8743.81s CPU   9242.02s WALL (      26 calls)
     sum_band     :   1087.97s CPU   1184.06s WALL (      26 calls)
     v_of_rho     :     88.48s CPU     99.97s WALL (      26 calls)
     newd         :    245.86s CPU    249.68s WALL (      26 calls)
     mix_rho      :      3.10s CPU      3.44s WALL (      26 calls)
     vdW_energy   :      8.44s CPU      9.64s WALL (      26 calls)
     vdW_ffts     :     42.16s CPU     47.56s WALL (      52 calls)
     vdW_v        :     12.31s CPU     13.20s WALL (      26 calls)

     Called by c_bands:
     init_us_2    :     19.55s CPU     20.01s WALL (     636 calls)
     cegterg      :   8526.59s CPU   9022.85s WALL (     312 calls)

     Called by *egterg:
     h_psi        :   3474.67s CPU   3891.28s WALL (    1587 calls)
     s_psi        :    445.22s CPU    448.13s WALL (    1587 calls)
     g_psi        :      6.47s CPU      6.54s WALL (    1263 calls)
     cdiaghg      :   2015.42s CPU   2020.87s WALL (    1563 calls)

     Called by h_psi:
     add_vuspsi   :    446.24s CPU    449.20s WALL (    1587 calls)

     General routines
     calbec       :   1045.26s CPU   1048.71s WALL (    1899 calls)
     fft          :    146.11s CPU    155.92s WALL (    1716 calls)
     ffts         :      1.27s CPU      1.49s WALL (      52 calls)
     fftw         :   2306.48s CPU   2727.52s WALL (  763004 calls)
     interpolate  :      3.54s CPU      4.22s WALL (      52 calls)
     davcio       :      0.00s CPU      0.25s WALL (      12 calls)

     Parallel routines
     fft_scatter  :   1654.93s CPU   1942.40s WALL (  764772 calls)

     PWSCF        :     2h52m CPU        3h 2m WALL


   This run was terminated on:  18:20:18   3Jul2015            

=------------------------------------------------------------------------------=
   JOB DONE.
=------------------------------------------------------------------------------=
