
     Program PWSCF v.5.1.2 starts on  3Jul2015 at 12:21:17 

     This program is part of the open-source Quantum ESPRESSO suite
     for quantum simulation of materials; please cite
         "P. Giannozzi et al., J. Phys.:Condens. Matter 21 395502 (2009);
          URL http://www.quantum-espresso.org", 
     in publications or presentations arising from this work. More details at
     http://www.quantum-espresso.org/quote

     Parallel version (MPI), running on    32 processors
     R & G space division:  proc/nbgrp/npool/nimage =      32
     Reading input from hollow.O1.Au535758.d.2.5.phi.45.psi.0.in
Warning: card &IONS ignored
Warning: card / ignored
Warning: card &CELL ignored
Warning: card / ignored

     Current dimensions of program PWSCF are:
     Max number of different atomic species (ntypx) = 10
     Max number of k-points (npk) =  40000
     Max angular momentum in pseudopotentials (lmaxx) =  3

     IMPORTANT: XC functional enforced from input :
     Exchange-correlation      = VDW-DF ( 1  4  4  0 1 0)
     Any further DFT definition will be discarded
     Please, verify this is what you really want


     Subspace diagonalization in iterative solution of the eigenvalue problem:
     a serial algorithm will be used


     Parallelization info
     --------------------
     sticks:   dense  smooth     PW     G-vecs:    dense   smooth      PW
     Min         445     223     58                96775    34191    4534
     Max         446     224     59                96790    34246    4540
     Sum       14269    7147   1867              3097177  1095093  145167


     Title: 
     hollow.O1.Au535758.d.2.5.phi.45.psi.0                                      


     bravais-lattice index     =            4
     lattice parameter (alat)  =      22.7436  a.u.
     unit-cell volume          =   22924.1508 (a.u.)^3
     number of atoms/cell      =           67
     number of atomic types    =            3
     number of electrons       =       712.00
     number of Kohn-Sham states=          427
     kinetic-energy cutoff     =      50.0000  Ry
     charge density cutoff     =     400.0000  Ry
     convergence threshold     =      1.0E-08
     mixing beta               =       0.7000
     number of iterations used =            8  plain     mixing
     Exchange-correlation      = VDW-DF ( 1  4  4  0 1 0)

     celldm(1)=  22.743643  celldm(2)=   0.000000  celldm(3)=   2.250000
     celldm(4)=   0.000000  celldm(5)=   0.000000  celldm(6)=   0.000000

     crystal axes: (cart. coord. in units of alat)
               a(1) = (   1.000000   0.000000   0.000000 )  
               a(2) = (  -0.500000   0.866025   0.000000 )  
               a(3) = (   0.000000   0.000000   2.250000 )  

     reciprocal axes: (cart. coord. in units 2 pi/alat)
               b(1) = (  1.000000  0.577350 -0.000000 )  
               b(2) = (  0.000000  1.154701  0.000000 )  
               b(3) = (  0.000000 -0.000000  0.444444 )  


     PseudoPot. # 1 for Au read from file:
     /home/scc/andrejb/qe/pseudo/Au.pbe-nd-van.UPF
     MD5 check sum: 458681b50f36d87ef23c61b04bba420a
     Pseudo is Ultrasoft + core correction, Zval = 11.0
     Generated by new atomic code, or converted to UPF format
     Using radial grid of  985 points,  3 beta functions with: 
                l(1) =   1
                l(2) =   2
                l(3) =   2
     Q(r) pseudized with  8 coefficients,  rinner =    1.100   1.100   1.100
                                                       1.100   1.100

     PseudoPot. # 2 for H  read from file:
     /home/scc/andrejb/qe/pseudo/H.pbe-van_ak.UPF
     MD5 check sum: 403db7282739603aa925980fa9b8608d
     Pseudo is Ultrasoft, Zval =  1.0
     Generated by new atomic code, or converted to UPF format
     Using radial grid of  615 points,  1 beta functions with: 
                l(1) =   0
     Q(r) pseudized with  8 coefficients,  rinner =    0.800

     PseudoPot. # 3 for O  read from file:
     /home/scc/andrejb/qe/pseudo/O.pbe-van_ak.UPF
     MD5 check sum: 4b8c549914a63cae506c6ff22b5af4fe
     Pseudo is Ultrasoft, Zval =  6.0
     Generated by new atomic code, or converted to UPF format
     Using radial grid of  737 points,  4 beta functions with: 
                l(1) =   0
                l(2) =   0
                l(3) =   1
                l(4) =   1
     Q(r) pseudized with  8 coefficients,  rinner =    0.800   0.800   0.800


     vdW kernel table read from file vdW_kernel_table
     MD5 check sum: 48e77a2e26edf626eeb0eaa751ad5cac

     atomic species   valence    mass     pseudopotential
        Au            11.00   196.96657     Au( 1.00)
        H              1.00     1.01000     H ( 1.00)
        O              6.00    16.00000     O ( 1.00)

     No symmetry found



   Cartesian axes

     site n.     atom                  positions (alat units)
         1           O   tau(   1) = (  -0.0208375   0.5411347   0.8207265  )
         2           H   tau(   2) = (  -0.0267671   0.4764478   0.8689801  )
         3           H   tau(   3) = (  -0.0151011   0.6038736   0.8714872  )
         4           Au  tau(   4) = (   0.3540481   0.6132292   0.0000000  )
         5           Au  tau(   5) = (   0.4790062   0.3967954   0.0000000  )
         6           Au  tau(   6) = (   0.6039644   0.1803616   0.0000000  )
         7           Au  tau(   7) = (   0.7289225  -0.0360723   0.0000000  )
         8           Au  tau(   8) = (   0.1041318   0.6132292   0.0000000  )
         9           Au  tau(   9) = (   0.2290899   0.3967954   0.0000000  )
        10           Au  tau(  10) = (   0.3540481   0.1803616   0.0000000  )
        11           Au  tau(  11) = (   0.4790062  -0.0360723   0.0000000  )
        12           Au  tau(  12) = (  -0.1457845   0.6132292   0.0000000  )
        13           Au  tau(  13) = (  -0.0208264   0.3967954   0.0000000  )
        14           Au  tau(  14) = (   0.1041318   0.1803616   0.0000000  )
        15           Au  tau(  15) = (   0.2290899  -0.0360723   0.0000000  )
        16           Au  tau(  16) = (  -0.3957008   0.6132292   0.0000000  )
        17           Au  tau(  17) = (  -0.2707426   0.3967954   0.0000000  )
        18           Au  tau(  18) = (  -0.1457845   0.1803616   0.0000000  )
        19           Au  tau(  19) = (  -0.0208264  -0.0360723   0.0000000  )
        20           Au  tau(  20) = (   0.4790062   0.6853738   0.2040557  )
        21           Au  tau(  21) = (   0.6039644   0.4689400   0.2040557  )
        22           Au  tau(  22) = (   0.7289225   0.2525061   0.2040557  )
        23           Au  tau(  23) = (   0.8538806   0.0360723   0.2040557  )
        24           Au  tau(  24) = (   0.2290899   0.6853738   0.2040557  )
        25           Au  tau(  25) = (   0.3540481   0.4689400   0.2040557  )
        26           Au  tau(  26) = (   0.4790062   0.2525061   0.2040557  )
        27           Au  tau(  27) = (   0.6039644   0.0360723   0.2040557  )
        28           Au  tau(  28) = (  -0.0208264   0.6853738   0.2040557  )
        29           Au  tau(  29) = (   0.1041318   0.4689400   0.2040557  )
        30           Au  tau(  30) = (   0.2290899   0.2525061   0.2040557  )
        31           Au  tau(  31) = (   0.3540481   0.0360723   0.2040557  )
        32           Au  tau(  32) = (  -0.2707426   0.6853738   0.2040557  )
        33           Au  tau(  33) = (  -0.1457845   0.4689400   0.2040557  )
        34           Au  tau(  34) = (  -0.0208264   0.2525061   0.2040557  )
        35           Au  tau(  35) = (   0.1041318   0.0360723   0.2040557  )
        36           Au  tau(  36) = (   0.3541162   0.7576593   0.4066483  )
        37           Au  tau(  37) = (   0.4791000   0.5411421   0.4066695  )
        38           Au  tau(  38) = (   0.6040570   0.3246862   0.4066617  )
        39           Au  tau(  39) = (   0.7290270   0.1081684   0.4066529  )
        40           Au  tau(  40) = (   0.1041162   0.7576236   0.4066247  )
        41           Au  tau(  41) = (   0.2291001   0.5411063   0.4066455  )
        42           Au  tau(  42) = (   0.3540567   0.3246505   0.4066380  )
        43           Au  tau(  43) = (   0.4790276   0.1081324   0.4066292  )
        44           Au  tau(  44) = (  -0.1458201   0.7576104   0.4066224  )
        45           Au  tau(  45) = (  -0.0208365   0.5410930   0.4066438  )
        46           Au  tau(  46) = (   0.1041202   0.3246372   0.4066359  )
        47           Au  tau(  47) = (   0.2290908   0.1081193   0.4066273  )
        48           Au  tau(  48) = (  -0.3958167   0.7575791   0.4065812  )
        49           Au  tau(  49) = (  -0.2708328   0.5410617   0.4066025  )
        50           Au  tau(  50) = (  -0.1458763   0.3246061   0.4065947  )
        51           Au  tau(  51) = (  -0.0209056   0.1080882   0.4065858  )
        52           Au  tau(  52) = (   0.3541085   0.6133344   0.6129762  )
        53           Au  tau(  53) = (   0.4790780   0.3968269   0.6129968  )
        54           Au  tau(  54) = (   0.6040356   0.1803811   0.6129859  )
        55           Au  tau(  55) = (   0.7290165  -0.0361221   0.6129385  )
        56           Au  tau(  56) = (   0.1041243   0.6133091   0.6130022  )
        57           Au  tau(  57) = (   0.2290941   0.3968013   0.6130241  )
        58           Au  tau(  58) = (   0.3540515   0.1803552   0.6130121  )
        59           Au  tau(  59) = (   0.4790323  -0.0361475   0.6129659  )
        60           Au  tau(  60) = (  -0.1458030   0.6133014   0.6129980  )
        61           Au  tau(  61) = (  -0.0208339   0.3967936   0.6130188  )
        62           Au  tau(  62) = (   0.1041239   0.1803477   0.6130083  )
        63           Au  tau(  63) = (   0.2291046  -0.0361554   0.6129607  )
        64           Au  tau(  64) = (  -0.3957908   0.6132739   0.6129471  )
        65           Au  tau(  65) = (  -0.2708208   0.3967658   0.6129688  )
        66           Au  tau(  66) = (  -0.1458636   0.1803200   0.6129569  )
        67           Au  tau(  67) = (  -0.0208823  -0.0361826   0.6129110  )

     number of k points=    12  Marzari-Vanderbilt smearing, width (Ry)=  0.0200
                       cart. coord. in units 2pi/alat
        k(    1) = (   0.2500000   0.4330127   0.1111111), wk =   0.1666667
        k(    2) = (   0.2500000  -0.1443376   0.1111111), wk =   0.1666667
        k(    3) = (  -0.2500000  -0.4330127   0.1111111), wk =   0.1666667
        k(    4) = (  -0.2500000   0.4330127  -0.1111111), wk =   0.1666667
        k(    5) = (   0.2500000  -0.4330127  -0.1111111), wk =   0.1666667
        k(    6) = (   0.5000000   0.0000000   0.1111111), wk =   0.1666667
        k(    7) = (  -0.5000000   0.0000000   0.1111111), wk =   0.1666667
        k(    8) = (  -0.2500000   0.1443376   0.1111111), wk =   0.1666667
        k(    9) = (  -0.2500000  -0.1443376  -0.1111111), wk =   0.1666667
        k(   10) = (   0.2500000   0.1443376  -0.1111111), wk =   0.1666667
        k(   11) = (   0.0000000  -0.2886751   0.1111111), wk =   0.1666667
        k(   12) = (   0.0000000   0.2886751   0.1111111), wk =   0.1666667

     Dense  grid:  3097177 G-vectors     FFT dimensions: ( 150, 150, 360)

     Smooth grid:  1095093 G-vectors     FFT dimensions: ( 108, 108, 240)

     Largest allocated arrays     est. size (Mb)     dimensions
        Kohn-Sham Wavefunctions        28.01 Mb     (    4299,  427)
        NL pseudopotentials            55.23 Mb     (    4299,  842)
        Each V/rho on FFT grid          4.12 Mb     (  270000)
        Each G-vector array             0.74 Mb     (   96788)
        G-vector shells                 0.16 Mb     (   21404)
     Largest temporary arrays     est. size (Mb)     dimensions
        Auxiliary wavefunctions       112.04 Mb     (    4299, 1708)
        Each subspace H/S matrix       44.51 Mb     (    1708, 1708)
        Each <psi_i|beta_j> matrix      5.49 Mb     (     842,  427)
        Arrays for rho mixing          32.96 Mb     (  270000,    8)

     Initial potential from superposition of free atoms
     Check: negative starting charge=   -1.730292

     starting charge  711.25682, renormalised to  712.00000

     negative rho (up, down):  1.732E+00 0.000E+00


     ************************************************************************
     *
     * You are using vdW-DF for exchange-correlation in this calculation.
     * Please cite the following three references that made this development
     * possible:
     *
     *   M. Dion, H. Rydberg, E. Schroder, D. C. Langreth, and
     *   B. I. Lundqvist, Phys. Rev. Lett. 92, 246401 (2004).
     *
     *   T. Thonhauser, V. R. Cooper, S. Li, A. Puzder, P. Hyldgaard, and
     *   D. C. Langreth, Phys. Rev. B 76, 125112 (2007).
     *
     *   G. Roman-Perez and J. M. Soler, Phys. Rev. Lett. 103, 096102 (2009).
     *
     *
     * If you are using vdW-DF2, please also cite:
     *
     *   K. Lee, E. D. Murray, L. Kong, B. I. Lundqvist, and
     *   D. C. Langreth, Phys. Rev. B 82, 081101(R) (2010).
     *
     *
     * If you are calculating the stress with vdW-DF, please also cite:
     *
     *   R. Sabatini, E. Kucukbenli, B. Kolb, T. Thonhauser, and
     *   S. de Gironcoli, J. Phys.: Condens. Matter 24, 424209 (2012).
     *
     ************************************************************************

     Carrying out vdW-DF run using the following parameters:

     Nqs =      20    Nr_points =    1024   r_max =   100.000
     q_mesh =
               0.00001000     0.04494208     0.09755937     0.15916263
               0.23128650     0.31572767     0.41458969     0.53033537
               0.66584808     0.82450364     1.01025438     1.22772762
               1.48234092     1.78043706     2.12944203     2.53805004
               3.01644009     3.57652955     4.23227104     5.00000000

     Gradients computed in reciprocal space

     ************************************************************************


     Starting wfc are  582 randomized atomic wfcs

     total cpu time spent up to now is      154.3 secs

     Self-consistent Calculation

     iteration #  1     ecut=    50.00 Ry     beta=0.70
     Davidson diagonalization with overlap
     ethr =  1.00E-02,  avg # of iterations =  3.0

     Threshold (ethr) on eigenvalues was too large:
     Diagonalizing with lowered threshold

     Davidson diagonalization with overlap
     ethr =  3.58E-04,  avg # of iterations =  4.8

     negative rho (up, down):  1.728E+00 0.000E+00

     total cpu time spent up to now is      775.0 secs

     total energy              =   -6602.73924038 Ry
     Harris-Foulkes estimate   =   -6605.04640842 Ry
     estimated scf accuracy    <       2.88497773 Ry

     iteration #  2     ecut=    50.00 Ry     beta=0.70
     Davidson diagonalization with overlap
     ethr =  4.05E-04,  avg # of iterations = 11.0

     negative rho (up, down):  1.725E+00 0.000E+00

     total cpu time spent up to now is     1730.8 secs

     total energy              =   -6595.82318712 Ry
     Harris-Foulkes estimate   =   -6610.40159765 Ry
     estimated scf accuracy    <      84.59467222 Ry

     iteration #  3     ecut=    50.00 Ry     beta=0.70
     Davidson diagonalization with overlap
     ethr =  4.05E-04,  avg # of iterations =  6.0

     negative rho (up, down):  1.733E+00 0.000E+00

     total cpu time spent up to now is     2341.8 secs

     total energy              =   -6603.01645325 Ry
     Harris-Foulkes estimate   =   -6605.03815308 Ry
     estimated scf accuracy    <       9.65889132 Ry

     iteration #  4     ecut=    50.00 Ry     beta=0.70
     Davidson diagonalization with overlap
     ethr =  4.05E-04,  avg # of iterations =  7.1

     negative rho (up, down):  1.737E+00 0.000E+00

     total cpu time spent up to now is     2743.0 secs

     total energy              =   -6602.98440478 Ry
     Harris-Foulkes estimate   =   -6605.62078375 Ry
     estimated scf accuracy    <      29.69595590 Ry

     iteration #  5     ecut=    50.00 Ry     beta=0.70
     Davidson diagonalization with overlap
     ethr =  4.05E-04,  avg # of iterations =  6.8

     negative rho (up, down):  1.746E+00 0.000E+00

     total cpu time spent up to now is     3129.2 secs

     total energy              =   -6604.35470390 Ry
     Harris-Foulkes estimate   =   -6604.56596761 Ry
     estimated scf accuracy    <       1.04241203 Ry

     iteration #  6     ecut=    50.00 Ry     beta=0.70
     Davidson diagonalization with overlap
     ethr =  1.46E-04,  avg # of iterations =  3.7

     negative rho (up, down):  1.750E+00 0.000E+00

     total cpu time spent up to now is     3435.4 secs

     total energy              =   -6604.40518859 Ry
     Harris-Foulkes estimate   =   -6604.46551227 Ry
     estimated scf accuracy    <       0.19296739 Ry

     iteration #  7     ecut=    50.00 Ry     beta=0.70
     Davidson diagonalization with overlap
     ethr =  2.71E-05,  avg # of iterations =  8.3

     negative rho (up, down):  1.753E+00 0.000E+00

     total cpu time spent up to now is     3835.6 secs

     total energy              =   -6604.42064887 Ry
     Harris-Foulkes estimate   =   -6604.44499568 Ry
     estimated scf accuracy    <       0.09692321 Ry

     iteration #  8     ecut=    50.00 Ry     beta=0.70
     Davidson diagonalization with overlap
     ethr =  1.36E-05,  avg # of iterations =  8.3

     negative rho (up, down):  1.754E+00 0.000E+00

     total cpu time spent up to now is     4215.8 secs

     total energy              =   -6604.42236787 Ry
     Harris-Foulkes estimate   =   -6604.43693825 Ry
     estimated scf accuracy    <       0.04998998 Ry

     iteration #  9     ecut=    50.00 Ry     beta=0.70
     Davidson diagonalization with overlap
     c_bands:  1 eigenvalues not converged
     ethr =  7.02E-06,  avg # of iterations = 13.3

     negative rho (up, down):  1.755E+00 0.000E+00

     total cpu time spent up to now is     4690.9 secs

     total energy              =   -6604.42538269 Ry
     Harris-Foulkes estimate   =   -6604.43033472 Ry
     estimated scf accuracy    <       0.01385713 Ry

     iteration # 10     ecut=    50.00 Ry     beta=0.70
     Davidson diagonalization with overlap
     ethr =  1.95E-06,  avg # of iterations =  7.9

     negative rho (up, down):  1.756E+00 0.000E+00

     total cpu time spent up to now is     5097.7 secs

     total energy              =   -6604.42682932 Ry
     Harris-Foulkes estimate   =   -6604.42838472 Ry
     estimated scf accuracy    <       0.00544121 Ry

     iteration # 11     ecut=    50.00 Ry     beta=0.70
     Davidson diagonalization with overlap
     ethr =  7.64E-07,  avg # of iterations =  6.3

     negative rho (up, down):  1.757E+00 0.000E+00

     total cpu time spent up to now is     5449.2 secs

     total energy              =   -6604.42733402 Ry
     Harris-Foulkes estimate   =   -6604.42784016 Ry
     estimated scf accuracy    <       0.00219901 Ry

     iteration # 12     ecut=    50.00 Ry     beta=0.70
     Davidson diagonalization with overlap
     ethr =  3.09E-07,  avg # of iterations =  3.3

     negative rho (up, down):  1.757E+00 0.000E+00

     total cpu time spent up to now is     5746.0 secs

     total energy              =   -6604.42746998 Ry
     Harris-Foulkes estimate   =   -6604.42762070 Ry
     estimated scf accuracy    <       0.00036674 Ry

     iteration # 13     ecut=    50.00 Ry     beta=0.70
     Davidson diagonalization with overlap
     ethr =  5.15E-08,  avg # of iterations =  7.4

     negative rho (up, down):  1.757E+00 0.000E+00

     total cpu time spent up to now is     6162.5 secs

     total energy              =   -6604.42749138 Ry
     Harris-Foulkes estimate   =   -6604.42757428 Ry
     estimated scf accuracy    <       0.00028462 Ry

     iteration # 14     ecut=    50.00 Ry     beta=0.70
     Davidson diagonalization with overlap
     ethr =  4.00E-08,  avg # of iterations =  2.0

     negative rho (up, down):  1.757E+00 0.000E+00

     total cpu time spent up to now is     6437.2 secs

     total energy              =   -6604.42751912 Ry
     Harris-Foulkes estimate   =   -6604.42755384 Ry
     estimated scf accuracy    <       0.00020205 Ry

     iteration # 15     ecut=    50.00 Ry     beta=0.70
     Davidson diagonalization with overlap
     ethr =  2.84E-08,  avg # of iterations =  1.3

     negative rho (up, down):  1.757E+00 0.000E+00

     total cpu time spent up to now is     6694.7 secs

     total energy              =   -6604.42753608 Ry
     Harris-Foulkes estimate   =   -6604.42754285 Ry
     estimated scf accuracy    <       0.00002918 Ry

     iteration # 16     ecut=    50.00 Ry     beta=0.70
     Davidson diagonalization with overlap
     ethr =  4.10E-09,  avg # of iterations =  3.0

     negative rho (up, down):  1.757E+00 0.000E+00

     total cpu time spent up to now is     6985.9 secs

     total energy              =   -6604.42753675 Ry
     Harris-Foulkes estimate   =   -6604.42754340 Ry
     estimated scf accuracy    <       0.00004307 Ry

     iteration # 17     ecut=    50.00 Ry     beta=0.70
     Davidson diagonalization with overlap
     ethr =  4.10E-09,  avg # of iterations =  1.3

     negative rho (up, down):  1.757E+00 0.000E+00

     total cpu time spent up to now is     7242.9 secs

     total energy              =   -6604.42753972 Ry
     Harris-Foulkes estimate   =   -6604.42754041 Ry
     estimated scf accuracy    <       0.00000252 Ry

     iteration # 18     ecut=    50.00 Ry     beta=0.70
     Davidson diagonalization with overlap
     ethr =  3.54E-10,  avg # of iterations =  2.9

     negative rho (up, down):  1.757E+00 0.000E+00

     total cpu time spent up to now is     7541.4 secs

     total energy              =   -6604.42753999 Ry
     Harris-Foulkes estimate   =   -6604.42754041 Ry
     estimated scf accuracy    <       0.00000179 Ry

     iteration # 19     ecut=    50.00 Ry     beta=0.70
     Davidson diagonalization with overlap
     ethr =  2.52E-10,  avg # of iterations =  3.0

     negative rho (up, down):  1.757E+00 0.000E+00

     total cpu time spent up to now is     7832.6 secs

     total energy              =   -6604.42754021 Ry
     Harris-Foulkes estimate   =   -6604.42754022 Ry
     estimated scf accuracy    <       0.00000010 Ry

     iteration # 20     ecut=    50.00 Ry     beta=0.70
     Davidson diagonalization with overlap
     ethr =  1.34E-11,  avg # of iterations =  3.0

     negative rho (up, down):  1.757E+00 0.000E+00

     total cpu time spent up to now is     8202.4 secs

     total energy              =   -6604.42754025 Ry
     Harris-Foulkes estimate   =   -6604.42754025 Ry
     estimated scf accuracy    <       0.00000010 Ry

     iteration # 21     ecut=    50.00 Ry     beta=0.70
     Davidson diagonalization with overlap
     ethr =  1.34E-11,  avg # of iterations =  2.0

     negative rho (up, down):  1.757E+00 0.000E+00

     total cpu time spent up to now is     8475.1 secs

     total energy              =   -6604.42754027 Ry
     Harris-Foulkes estimate   =   -6604.42754027 Ry
     estimated scf accuracy    <       0.00000002 Ry

     iteration # 22     ecut=    50.00 Ry     beta=0.70
     Davidson diagonalization with overlap
     ethr =  2.65E-12,  avg # of iterations =  2.0

     negative rho (up, down):  1.757E+00 0.000E+00

     total cpu time spent up to now is     8752.9 secs

     End of self-consistent calculation

          k = 0.2500 0.4330 0.1111 (136853 PWs)   bands (ev):

   -19.5445  -7.3450  -6.1852  -5.7869  -5.7849  -5.1150  -4.7764  -4.7734
    -4.7511  -4.7356  -4.3742  -4.3731  -4.2778  -4.2745  -4.2683  -4.2576
    -4.2385  -4.1090  -4.1067  -4.0831  -4.0781  -4.0394  -4.0348  -3.9704
    -3.9698  -3.9649  -3.9533  -3.9414  -3.9363  -3.9219  -3.8660  -3.8353
    -3.8337  -3.8219  -3.8216  -3.8061  -3.7983  -3.7859  -3.7751  -3.7675
    -3.7599  -3.7342  -3.6887  -3.6853  -3.6406  -3.6391  -3.5828  -3.5778
    -3.5274  -3.5261  -3.5261  -3.5191  -3.4904  -3.4539  -3.4504  -3.4453
    -3.4435  -3.4398  -3.4142  -3.4112  -3.4026  -3.3443  -3.3404  -3.3336
    -3.3157  -3.3093  -3.2379  -3.2312  -3.2052  -3.2015  -3.1762  -3.1730
    -3.1612  -3.1443  -3.0866  -3.0853  -3.0683  -3.0675  -3.0169  -3.0125
    -3.0072  -2.9722  -2.9424  -2.9413  -2.9326  -2.9299  -2.9200  -2.9172
    -2.9131  -2.9106  -2.9014  -2.8605  -2.8226  -2.8220  -2.8083  -2.8061
    -2.7814  -2.7731  -2.7704  -2.7515  -2.7052  -2.7029  -2.6955  -2.6566
    -2.6505  -2.6390  -2.6383  -2.6114  -2.6058  -2.5788  -2.5441  -2.5392
    -2.5210  -2.5125  -2.5000  -2.4956  -2.4496  -2.4459  -2.4145  -2.3934
    -2.3919  -2.3697  -2.3679  -2.3583  -2.3568  -2.3465  -2.3257  -2.3239
    -2.2794  -2.2784  -2.2779  -2.2616  -2.2610  -2.2542  -2.2471  -2.2448
    -2.2442  -2.2427  -2.2361  -2.2256  -2.2249  -2.2181  -2.1888  -2.1879
    -2.1868  -2.1861  -2.1847  -2.1823  -2.1751  -2.1531  -2.1512  -2.1386
    -2.1352  -2.1186  -2.1178  -2.1119  -2.1091  -2.1082  -2.1050  -2.0890
    -2.0879  -2.0868  -2.0753  -2.0671  -2.0441  -2.0417  -2.0004  -2.0001
    -1.9767  -1.9754  -1.9591  -1.9486  -1.9227  -1.9204  -1.9061  -1.8992
    -1.8765  -1.8702  -1.8521  -1.8477  -1.8442  -1.8380  -1.8361  -1.8323
    -1.8056  -1.7996  -1.7904  -1.7466  -1.7334  -1.7294  -1.7267  -1.7169
    -1.7006  -1.6697  -1.6691  -1.6645  -1.6421  -1.6169  -1.5821  -1.5800
    -1.5510  -1.5328  -1.5166  -1.4719  -1.4693  -1.4595  -1.4568  -1.4492
    -1.4480  -1.4439  -1.4355  -1.4328  -1.3803  -1.3756  -1.3686  -1.3666
    -1.3584  -1.3492  -1.3421  -1.3134  -1.3074  -1.2954  -1.2952  -1.2915
    -1.2870  -1.2789  -1.2729  -1.2673  -1.2528  -1.2512  -1.2137  -1.2074
    -1.2012  -1.1908  -1.1774  -1.1646  -1.1220  -1.1204  -1.0967  -1.0930
    -1.0857  -1.0615  -1.0122  -1.0105  -1.0094  -1.0053  -1.0007  -0.9993
    -0.9887  -0.9747  -0.9704  -0.9344  -0.9325  -0.9044  -0.9028  -0.8970
    -0.8951  -0.8907  -0.8742  -0.8733  -0.8718  -0.8703  -0.8663  -0.8330
    -0.8295  -0.8270  -0.8230  -0.7986  -0.7958  -0.7935  -0.7673  -0.7607
    -0.7586  -0.7150  -0.7104  -0.7035  -0.6738  -0.6650  -0.6546  -0.6541
    -0.6483  -0.6467  -0.6444  -0.6415  -0.6303  -0.6274  -0.6068  -0.6060
    -0.6018  -0.6005  -0.5986  -0.5631  -0.5627  -0.5526  -0.5479  -0.5346
    -0.5286  -0.5199  -0.5167  -0.4611  -0.4606  -0.4515  -0.4509  -0.4486
    -0.4461  -0.4410  -0.4247  -0.4229  -0.4157  -0.4148  -0.4119  -0.4080
    -0.3738  -0.3714  -0.3706  -0.3630  -0.3618  -0.3569  -0.3559  -0.3398
    -0.3388  -0.3351  -0.3298  -0.2941  -0.2929  -0.2856  -0.2813  -0.2804
    -0.2047  -0.2031  -0.2012  -0.2003  -0.1916  -0.1886  -0.1548  -0.1428
    -0.1417  -0.1150  -0.1096  -0.0985   0.0100   0.0173   0.1153   0.5296
     0.5297   0.5322   0.5343   0.5944   0.6040   0.9820   0.9839   1.0234
     1.0284   1.1360   1.2173   1.3207   1.3371   1.5399   1.5653   2.1804
     2.1832   2.3375   2.3493   2.4729   2.4821   2.5786   2.5798   2.7330
     2.9610   2.9728   3.0942   3.3127   3.3249   3.4001   3.4047   3.5023
     3.5183   3.6950   3.6979   3.7740   3.9750   3.9756   4.0364   4.0396
     4.2935   4.2975   4.3078   4.5431   4.5831   4.5918   4.6305   4.9647
     4.9663   4.9966   5.0374   5.1317   5.3047   5.3066   5.3464   5.4051
     5.6974   5.9253   6.0776   6.0901   6.0977   6.1040   6.1649   6.1666
     6.2162   6.2725   6.2976   6.3209   6.3223   6.3337   6.3420   6.3785
     6.3863   6.4320   6.5047   6.5848   6.6999   6.7517   6.9208   6.9915
     7.0274   7.0412   7.0458

          k = 0.2500-0.1443 0.1111 (136898 PWs)   bands (ev):

   -19.5445  -7.3450  -6.3952  -5.6032  -5.3181  -5.2535  -5.2520  -4.7151
    -4.7135  -4.5943  -4.5816  -4.4448  -4.4114  -4.3341  -4.3202  -4.3016
    -4.2671  -4.2666  -4.1403  -4.1048  -4.0965  -4.0620  -4.0326  -4.0161
    -3.9721  -3.9129  -3.9127  -3.8766  -3.8764  -3.8730  -3.8405  -3.8279
    -3.8276  -3.7213  -3.7211  -3.7128  -3.6974  -3.6834  -3.6831  -3.6717
    -3.6647  -3.6541  -3.6279  -3.6272  -3.6269  -3.6213  -3.5958  -3.5897
    -3.5767  -3.5765  -3.5626  -3.5220  -3.5184  -3.4876  -3.4753  -3.4682
    -3.4681  -3.4515  -3.3937  -3.3933  -3.3597  -3.3571  -3.3425  -3.2881
    -3.2879  -3.2731  -3.2725  -3.2430  -3.2421  -3.2414  -3.2388  -3.0876
    -3.0872  -3.0636  -3.0613  -3.0537  -3.0408  -3.0385  -3.0154  -3.0129
    -2.9649  -2.9628  -2.9487  -2.9470  -2.9275  -2.8808  -2.8801  -2.8599
    -2.8557  -2.8553  -2.8145  -2.8136  -2.8067  -2.8038  -2.7914  -2.7894
    -2.7518  -2.7512  -2.7300  -2.7275  -2.7262  -2.7249  -2.7195  -2.6467
    -2.6449  -2.6420  -2.6152  -2.6140  -2.5548  -2.5504  -2.5248  -2.5223
    -2.5113  -2.5109  -2.5036  -2.4757  -2.4731  -2.4649  -2.4477  -2.4258
    -2.4235  -2.4199  -2.4021  -2.3998  -2.3924  -2.3903  -2.3883  -2.3850
    -2.3770  -2.3311  -2.3003  -2.2991  -2.2840  -2.2708  -2.2643  -2.2632
    -2.2571  -2.2564  -2.2536  -2.2259  -2.2248  -2.2216  -2.2158  -2.2143
    -2.1981  -2.1715  -2.1702  -2.1700  -2.1687  -2.1671  -2.1217  -2.0930
    -2.0911  -2.0897  -2.0845  -2.0740  -2.0639  -2.0582  -2.0449  -2.0447
    -2.0153  -2.0108  -2.0105  -1.9927  -1.9918  -1.9875  -1.9594  -1.9538
    -1.9196  -1.9162  -1.9135  -1.9072  -1.9063  -1.9037  -1.9000  -1.8992
    -1.8968  -1.8931  -1.8900  -1.8750  -1.8662  -1.7888  -1.7483  -1.7362
    -1.7102  -1.7070  -1.7009  -1.6994  -1.6980  -1.6842  -1.6836  -1.6817
    -1.6758  -1.6623  -1.6550  -1.6511  -1.6461  -1.6364  -1.6311  -1.6165
    -1.6104  -1.6000  -1.5838  -1.5675  -1.5528  -1.5437  -1.5398  -1.5289
    -1.5154  -1.5119  -1.5053  -1.4944  -1.4808  -1.4794  -1.4740  -1.4709
    -1.4475  -1.4430  -1.4319  -1.4249  -1.3987  -1.3921  -1.3786  -1.3383
    -1.3356  -1.3253  -1.3172  -1.3077  -1.2971  -1.2939  -1.2631  -1.2619
    -1.2556  -1.2245  -1.2193  -1.2098  -1.2011  -1.1990  -1.1754  -1.1746
    -1.1609  -1.1426  -1.1414  -1.1368  -1.0783  -1.0770  -1.0667  -1.0620
    -1.0488  -1.0468  -1.0358  -1.0343  -1.0172  -1.0047  -0.9772  -0.9751
    -0.9633  -0.9354  -0.9280  -0.9220  -0.9147  -0.9143  -0.9113  -0.9095
    -0.8970  -0.8926  -0.8650  -0.8620  -0.8548  -0.8526  -0.8489  -0.8377
    -0.8275  -0.8109  -0.7992  -0.7885  -0.7743  -0.6943  -0.6809  -0.6757
    -0.6749  -0.6703  -0.6668  -0.6621  -0.6411  -0.6319  -0.6267  -0.6212
    -0.6099  -0.6073  -0.6015  -0.5820  -0.5796  -0.5707  -0.5703  -0.4969
    -0.4966  -0.4656  -0.4587  -0.4581  -0.4540  -0.4499  -0.4490  -0.4466
    -0.4375  -0.4347  -0.4120  -0.3943  -0.3790  -0.3621  -0.3602  -0.3511
    -0.3485  -0.3383  -0.3366  -0.3357  -0.3344  -0.3307  -0.3172  -0.3130
    -0.3103  -0.2821  -0.2805  -0.2786  -0.2672  -0.2665  -0.2477  -0.2166
    -0.2153  -0.2071  -0.2032  -0.1392  -0.1378  -0.1021  -0.1020  -0.0438
    -0.0435  -0.0429  -0.0234  -0.0162   0.2055   0.2257   0.5580   0.5583
     0.6431   0.6622   0.8395   0.8681   0.8836   1.0033   1.0125   1.4385
     1.4389   1.4574   1.7151   1.7476   1.7513   2.0161   2.0343   2.1025
     2.1056   2.1249   2.1484   2.3584   2.3639   2.4491   2.4504   2.5117
     2.5795   2.6055   2.7556   2.8534   3.2876   3.2896   3.2907   3.3045
     3.3460   3.3587   3.6412   3.6450   3.9155   3.9308   4.0075   4.3386
     4.3740   4.3849   4.5654   4.5728   4.6786   4.6813   4.7722   4.8897
     4.8903   5.0051   5.0109   5.0547   5.3109   5.3757   5.3807   5.5091
     5.5504   5.7625   5.7663   5.7816   5.7949   5.8002   5.8514   5.8546
     5.9146   6.0150   6.1831   6.2650   6.4538   6.4662   6.5967   6.5990
     6.6075   6.6148   6.6373   6.7413   6.8106   6.8508   6.8617   6.9883
     7.0272   7.0542   7.0800

          k =-0.2500-0.4330 0.1111 (136853 PWs)   bands (ev):

   -19.5445  -7.3450  -6.1852  -5.7869  -5.7849  -5.1150  -4.7764  -4.7734
    -4.7511  -4.7356  -4.3742  -4.3731  -4.2778  -4.2745  -4.2683  -4.2576
    -4.2385  -4.1090  -4.1067  -4.0831  -4.0781  -4.0394  -4.0348  -3.9704
    -3.9698  -3.9649  -3.9533  -3.9414  -3.9363  -3.9219  -3.8660  -3.8353
    -3.8337  -3.8219  -3.8216  -3.8061  -3.7983  -3.7859  -3.7751  -3.7675
    -3.7599  -3.7342  -3.6887  -3.6853  -3.6406  -3.6391  -3.5828  -3.5778
    -3.5274  -3.5261  -3.5261  -3.5191  -3.4904  -3.4539  -3.4504  -3.4453
    -3.4435  -3.4398  -3.4142  -3.4112  -3.4026  -3.3443  -3.3404  -3.3336
    -3.3157  -3.3093  -3.2379  -3.2312  -3.2052  -3.2015  -3.1762  -3.1730
    -3.1612  -3.1443  -3.0866  -3.0853  -3.0683  -3.0675  -3.0169  -3.0125
    -3.0072  -2.9722  -2.9424  -2.9413  -2.9326  -2.9299  -2.9200  -2.9172
    -2.9131  -2.9106  -2.9014  -2.8605  -2.8226  -2.8220  -2.8083  -2.8061
    -2.7814  -2.7731  -2.7704  -2.7515  -2.7052  -2.7029  -2.6955  -2.6566
    -2.6505  -2.6390  -2.6383  -2.6114  -2.6058  -2.5788  -2.5441  -2.5392
    -2.5210  -2.5125  -2.5000  -2.4956  -2.4496  -2.4459  -2.4145  -2.3934
    -2.3919  -2.3697  -2.3679  -2.3583  -2.3568  -2.3465  -2.3257  -2.3239
    -2.2794  -2.2784  -2.2779  -2.2616  -2.2610  -2.2542  -2.2471  -2.2448
    -2.2442  -2.2427  -2.2361  -2.2256  -2.2249  -2.2181  -2.1888  -2.1879
    -2.1868  -2.1861  -2.1847  -2.1823  -2.1751  -2.1531  -2.1512  -2.1386
    -2.1352  -2.1186  -2.1178  -2.1119  -2.1091  -2.1082  -2.1050  -2.0890
    -2.0879  -2.0868  -2.0753  -2.0671  -2.0441  -2.0417  -2.0004  -2.0001
    -1.9767  -1.9754  -1.9591  -1.9486  -1.9227  -1.9204  -1.9061  -1.8992
    -1.8765  -1.8702  -1.8521  -1.8477  -1.8442  -1.8380  -1.8361  -1.8323
    -1.8056  -1.7996  -1.7904  -1.7466  -1.7334  -1.7294  -1.7267  -1.7169
    -1.7006  -1.6697  -1.6691  -1.6645  -1.6420  -1.6169  -1.5821  -1.5800
    -1.5510  -1.5328  -1.5166  -1.4719  -1.4693  -1.4595  -1.4568  -1.4492
    -1.4480  -1.4439  -1.4355  -1.4328  -1.3803  -1.3756  -1.3686  -1.3666
    -1.3584  -1.3492  -1.3421  -1.3134  -1.3074  -1.2954  -1.2952  -1.2915
    -1.2870  -1.2789  -1.2729  -1.2673  -1.2528  -1.2512  -1.2137  -1.2074
    -1.2012  -1.1908  -1.1774  -1.1646  -1.1220  -1.1204  -1.0967  -1.0930
    -1.0857  -1.0615  -1.0122  -1.0105  -1.0094  -1.0053  -1.0007  -0.9993
    -0.9887  -0.9747  -0.9704  -0.9344  -0.9325  -0.9044  -0.9028  -0.8970
    -0.8951  -0.8907  -0.8742  -0.8733  -0.8718  -0.8703  -0.8663  -0.8330
    -0.8295  -0.8270  -0.8230  -0.7986  -0.7958  -0.7935  -0.7673  -0.7607
    -0.7586  -0.7150  -0.7104  -0.7035  -0.6738  -0.6650  -0.6546  -0.6541
    -0.6483  -0.6467  -0.6444  -0.6415  -0.6303  -0.6274  -0.6068  -0.6060
    -0.6018  -0.6005  -0.5986  -0.5631  -0.5627  -0.5526  -0.5479  -0.5346
    -0.5286  -0.5199  -0.5167  -0.4611  -0.4606  -0.4515  -0.4509  -0.4486
    -0.4461  -0.4410  -0.4247  -0.4229  -0.4157  -0.4148  -0.4119  -0.4080
    -0.3738  -0.3714  -0.3706  -0.3630  -0.3618  -0.3569  -0.3559  -0.3398
    -0.3388  -0.3351  -0.3298  -0.2941  -0.2929  -0.2856  -0.2813  -0.2804
    -0.2047  -0.2031  -0.2012  -0.2003  -0.1916  -0.1886  -0.1548  -0.1428
    -0.1417  -0.1150  -0.1096  -0.0985   0.0100   0.0173   0.1153   0.5296
     0.5297   0.5322   0.5343   0.5944   0.6040   0.9820   0.9839   1.0234
     1.0284   1.1360   1.2173   1.3207   1.3371   1.5399   1.5653   2.1804
     2.1832   2.3375   2.3493   2.4729   2.4821   2.5786   2.5798   2.7330
     2.9610   2.9728   3.0942   3.3127   3.3249   3.4001   3.4047   3.5023
     3.5183   3.6950   3.6979   3.7740   3.9750   3.9756   4.0364   4.0396
     4.2935   4.2975   4.3078   4.5431   4.5831   4.5918   4.6305   4.9647
     4.9663   4.9966   5.0374   5.1317   5.3047   5.3066   5.3464   5.4051
     5.6974   5.9254   6.0773   6.0902   6.0976   6.1045   6.1648   6.1667
     6.2162   6.2725   6.2977   6.3209   6.3224   6.3335   6.3419   6.3785
     6.3864   6.4320   6.5042   6.5839   6.7000   6.7523   6.9223   6.9924
     7.0272   7.0413   7.0456

          k =-0.2500 0.4330-0.1111 (136853 PWs)   bands (ev):

   -19.5445  -7.3450  -6.1852  -5.7880  -5.7838  -5.1150  -4.7770  -4.7731
    -4.7519  -4.7347  -4.3743  -4.3729  -4.2776  -4.2745  -4.2686  -4.2573
    -4.2385  -4.1091  -4.1069  -4.0831  -4.0783  -4.0396  -4.0347  -3.9704
    -3.9700  -3.9647  -3.9536  -3.9413  -3.9370  -3.9211  -3.8653  -3.8355
    -3.8333  -3.8221  -3.8213  -3.8061  -3.7982  -3.7862  -3.7751  -3.7675
    -3.7600  -3.7345  -3.6885  -3.6856  -3.6414  -3.6384  -3.5829  -3.5777
    -3.5275  -3.5261  -3.5260  -3.5194  -3.4905  -3.4541  -3.4504  -3.4453
    -3.4434  -3.4401  -3.4146  -3.4107  -3.4025  -3.3442  -3.3405  -3.3335
    -3.3155  -3.3090  -3.2383  -3.2310  -3.2052  -3.2011  -3.1760  -3.1730
    -3.1612  -3.1446  -3.0869  -3.0855  -3.0679  -3.0676  -3.0168  -3.0125
    -3.0072  -2.9721  -2.9421  -2.9417  -2.9320  -2.9302  -2.9201  -2.9170
    -2.9130  -2.9108  -2.9016  -2.8605  -2.8231  -2.8216  -2.8081  -2.8062
    -2.7815  -2.7728  -2.7707  -2.7515  -2.7048  -2.7033  -2.6957  -2.6564
    -2.6504  -2.6392  -2.6380  -2.6114  -2.6060  -2.5788  -2.5441  -2.5389
    -2.5210  -2.5126  -2.5001  -2.4958  -2.4493  -2.4461  -2.4144  -2.3936
    -2.3920  -2.3701  -2.3679  -2.3583  -2.3564  -2.3466  -2.3261  -2.3235
    -2.2796  -2.2782  -2.2777  -2.2618  -2.2608  -2.2543  -2.2469  -2.2446
    -2.2442  -2.2431  -2.2360  -2.2261  -2.2241  -2.2186  -2.1891  -2.1880
    -2.1866  -2.1862  -2.1846  -2.1823  -2.1750  -2.1533  -2.1513  -2.1387
    -2.1350  -2.1186  -2.1179  -2.1113  -2.1091  -2.1081  -2.1051  -2.0893
    -2.0879  -2.0868  -2.0754  -2.0673  -2.0443  -2.0420  -2.0011  -1.9995
    -1.9764  -1.9758  -1.9587  -1.9483  -1.9224  -1.9200  -1.9060  -1.8989
    -1.8740  -1.8694  -1.8520  -1.8479  -1.8442  -1.8378  -1.8360  -1.8323
    -1.8056  -1.7993  -1.7904  -1.7526  -1.7334  -1.7298  -1.7267  -1.7173
    -1.7005  -1.6705  -1.6683  -1.6650  -1.6421  -1.6136  -1.5815  -1.5805
    -1.5499  -1.5328  -1.5177  -1.4723  -1.4693  -1.4596  -1.4574  -1.4490
    -1.4481  -1.4438  -1.4357  -1.4326  -1.3809  -1.3749  -1.3684  -1.3669
    -1.3586  -1.3492  -1.3420  -1.3134  -1.3070  -1.2956  -1.2950  -1.2919
    -1.2867  -1.2790  -1.2726  -1.2670  -1.2528  -1.2511  -1.2137  -1.2075
    -1.2014  -1.1900  -1.1768  -1.1647  -1.1220  -1.1205  -1.0968  -1.0932
    -1.0859  -1.0617  -1.0124  -1.0107  -1.0092  -1.0053  -1.0013  -0.9996
    -0.9897  -0.9741  -0.9707  -0.9343  -0.9325  -0.9044  -0.9026  -0.8971
    -0.8948  -0.8906  -0.8741  -0.8732  -0.8714  -0.8701  -0.8661  -0.8334
    -0.8296  -0.8273  -0.8227  -0.7987  -0.7964  -0.7931  -0.7676  -0.7609
    -0.7583  -0.7150  -0.7105  -0.7022  -0.6737  -0.6645  -0.6545  -0.6541
    -0.6484  -0.6465  -0.6440  -0.6413  -0.6307  -0.6273  -0.6071  -0.6058
    -0.6020  -0.6005  -0.5987  -0.5631  -0.5626  -0.5533  -0.5476  -0.5344
    -0.5288  -0.5199  -0.5165  -0.4611  -0.4604  -0.4514  -0.4510  -0.4489
    -0.4460  -0.4418  -0.4247  -0.4229  -0.4158  -0.4146  -0.4121  -0.4078
    -0.3737  -0.3716  -0.3705  -0.3632  -0.3615  -0.3565  -0.3557  -0.3399
    -0.3388  -0.3350  -0.3308  -0.2945  -0.2925  -0.2858  -0.2814  -0.2800
    -0.2046  -0.2032  -0.2013  -0.2002  -0.1916  -0.1890  -0.1549  -0.1429
    -0.1417  -0.1153  -0.1098  -0.0981   0.0098   0.0176   0.1154   0.5296
     0.5300   0.5321   0.5342   0.5930   0.6045   0.9817   0.9840   1.0231
     1.0288   1.1364   1.2177   1.3207   1.3381   1.5393   1.5655   2.1792
     2.1837   2.3365   2.3509   2.4713   2.4831   2.5783   2.5800   2.7329
     2.9605   2.9738   3.0942   3.3126   3.3250   3.4002   3.4049   3.5024
     3.5185   3.6949   3.6976   3.7747   3.9752   3.9755   4.0360   4.0401
     4.2930   4.2970   4.3085   4.5436   4.5827   4.5912   4.6305   4.9647
     4.9671   4.9956   5.0409   5.1307   5.3049   5.3066   5.3419   5.4026
     5.7101   5.9127   6.0807   6.0904   6.0975   6.1070   6.1646   6.1671
     6.2165   6.2721   6.2981   6.3208   6.3225   6.3318   6.3436   6.3787
     6.3858   6.4321   6.4922   6.5928   6.7024   6.7397   6.9285   6.9900
     7.0280   7.0396   7.0456

          k = 0.2500-0.4330-0.1111 (136853 PWs)   bands (ev):

   -19.5445  -7.3450  -6.1852  -5.7880  -5.7838  -5.1150  -4.7770  -4.7731
    -4.7519  -4.7347  -4.3743  -4.3729  -4.2776  -4.2745  -4.2686  -4.2573
    -4.2385  -4.1091  -4.1069  -4.0831  -4.0783  -4.0396  -4.0347  -3.9704
    -3.9700  -3.9647  -3.9536  -3.9413  -3.9370  -3.9211  -3.8653  -3.8355
    -3.8333  -3.8221  -3.8213  -3.8061  -3.7982  -3.7862  -3.7751  -3.7675
    -3.7600  -3.7345  -3.6885  -3.6856  -3.6414  -3.6384  -3.5829  -3.5777
    -3.5275  -3.5261  -3.5260  -3.5194  -3.4905  -3.4541  -3.4504  -3.4453
    -3.4434  -3.4401  -3.4146  -3.4107  -3.4025  -3.3442  -3.3405  -3.3335
    -3.3155  -3.3090  -3.2383  -3.2310  -3.2052  -3.2011  -3.1760  -3.1730
    -3.1612  -3.1446  -3.0869  -3.0855  -3.0679  -3.0676  -3.0168  -3.0125
    -3.0072  -2.9721  -2.9421  -2.9417  -2.9320  -2.9302  -2.9201  -2.9170
    -2.9130  -2.9108  -2.9016  -2.8605  -2.8231  -2.8216  -2.8081  -2.8062
    -2.7815  -2.7728  -2.7707  -2.7515  -2.7048  -2.7033  -2.6957  -2.6564
    -2.6504  -2.6392  -2.6380  -2.6114  -2.6060  -2.5788  -2.5441  -2.5389
    -2.5210  -2.5126  -2.5001  -2.4958  -2.4493  -2.4461  -2.4144  -2.3936
    -2.3920  -2.3701  -2.3679  -2.3583  -2.3564  -2.3466  -2.3261  -2.3235
    -2.2796  -2.2782  -2.2777  -2.2618  -2.2608  -2.2543  -2.2469  -2.2446
    -2.2442  -2.2431  -2.2360  -2.2261  -2.2241  -2.2186  -2.1891  -2.1880
    -2.1866  -2.1862  -2.1846  -2.1823  -2.1750  -2.1533  -2.1513  -2.1387
    -2.1350  -2.1186  -2.1179  -2.1113  -2.1091  -2.1081  -2.1051  -2.0893
    -2.0879  -2.0868  -2.0754  -2.0673  -2.0443  -2.0420  -2.0011  -1.9995
    -1.9764  -1.9758  -1.9587  -1.9483  -1.9224  -1.9200  -1.9060  -1.8989
    -1.8740  -1.8694  -1.8520  -1.8479  -1.8442  -1.8378  -1.8360  -1.8323
    -1.8056  -1.7993  -1.7904  -1.7526  -1.7334  -1.7298  -1.7267  -1.7173
    -1.7005  -1.6705  -1.6683  -1.6650  -1.6421  -1.6136  -1.5815  -1.5805
    -1.5499  -1.5328  -1.5177  -1.4723  -1.4693  -1.4596  -1.4574  -1.4490
    -1.4481  -1.4438  -1.4357  -1.4326  -1.3809  -1.3749  -1.3684  -1.3669
    -1.3586  -1.3492  -1.3420  -1.3134  -1.3070  -1.2956  -1.2950  -1.2919
    -1.2867  -1.2790  -1.2726  -1.2670  -1.2528  -1.2511  -1.2137  -1.2075
    -1.2014  -1.1900  -1.1768  -1.1647  -1.1220  -1.1205  -1.0968  -1.0932
    -1.0859  -1.0617  -1.0124  -1.0107  -1.0092  -1.0053  -1.0013  -0.9996
    -0.9897  -0.9741  -0.9707  -0.9343  -0.9325  -0.9044  -0.9026  -0.8971
    -0.8948  -0.8906  -0.8741  -0.8732  -0.8714  -0.8701  -0.8661  -0.8334
    -0.8296  -0.8273  -0.8227  -0.7987  -0.7964  -0.7931  -0.7676  -0.7609
    -0.7583  -0.7150  -0.7105  -0.7022  -0.6737  -0.6645  -0.6545  -0.6541
    -0.6484  -0.6465  -0.6440  -0.6413  -0.6307  -0.6273  -0.6071  -0.6058
    -0.6020  -0.6005  -0.5987  -0.5631  -0.5626  -0.5533  -0.5476  -0.5344
    -0.5288  -0.5199  -0.5165  -0.4611  -0.4604  -0.4514  -0.4510  -0.4489
    -0.4460  -0.4418  -0.4247  -0.4229  -0.4158  -0.4146  -0.4121  -0.4078
    -0.3737  -0.3716  -0.3705  -0.3632  -0.3615  -0.3565  -0.3557  -0.3399
    -0.3388  -0.3350  -0.3308  -0.2945  -0.2925  -0.2858  -0.2814  -0.2800
    -0.2046  -0.2032  -0.2013  -0.2002  -0.1916  -0.1890  -0.1549  -0.1429
    -0.1417  -0.1153  -0.1098  -0.0981   0.0098   0.0176   0.1154   0.5296
     0.5300   0.5321   0.5342   0.5930   0.6045   0.9817   0.9840   1.0231
     1.0288   1.1364   1.2177   1.3207   1.3381   1.5393   1.5655   2.1792
     2.1837   2.3365   2.3509   2.4713   2.4831   2.5783   2.5800   2.7329
     2.9605   2.9738   3.0942   3.3126   3.3250   3.4002   3.4049   3.5024
     3.5185   3.6949   3.6976   3.7747   3.9752   3.9755   4.0360   4.0401
     4.2930   4.2970   4.3085   4.5436   4.5827   4.5912   4.6305   4.9647
     4.9671   4.9956   5.0409   5.1307   5.3049   5.3066   5.3419   5.4026
     5.7102   5.9126   6.0811   6.0903   6.0977   6.1065   6.1647   6.1671
     6.2164   6.2720   6.2981   6.3208   6.3224   6.3319   6.3438   6.3786
     6.3858   6.4320   6.4929   6.5934   6.7024   6.7391   6.9278   6.9889
     7.0280   7.0395   7.0459

          k = 0.5000 0.0000 0.1111 (136853 PWs)   bands (ev):

   -19.5445  -7.3450  -6.1853  -5.7878  -5.7840  -5.1151  -4.7774  -4.7724
    -4.7511  -4.7355  -4.3741  -4.3733  -4.2772  -4.2745  -4.2691  -4.2574
    -4.2384  -4.1089  -4.1070  -4.0832  -4.0780  -4.0397  -4.0346  -3.9703
    -3.9702  -3.9640  -3.9532  -3.9411  -3.9377  -3.9204  -3.8670  -3.8352
    -3.8336  -3.8221  -3.8214  -3.8054  -3.7982  -3.7855  -3.7750  -3.7674
    -3.7599  -3.7350  -3.6886  -3.6856  -3.6413  -3.6384  -3.5833  -3.5777
    -3.5277  -3.5262  -3.5261  -3.5196  -3.4905  -3.4543  -3.4505  -3.4452
    -3.4432  -3.4403  -3.4147  -3.4102  -3.4021  -3.3445  -3.3403  -3.3330
    -3.3158  -3.3090  -3.2375  -3.2311  -3.2050  -3.2008  -3.1764  -3.1732
    -3.1612  -3.1450  -3.0872  -3.0856  -3.0682  -3.0671  -3.0167  -3.0126
    -3.0071  -2.9722  -2.9423  -2.9414  -2.9319  -2.9298  -2.9201  -2.9177
    -2.9129  -2.9104  -2.9018  -2.8606  -2.8231  -2.8217  -2.8081  -2.8061
    -2.7815  -2.7733  -2.7700  -2.7514  -2.7050  -2.7032  -2.6952  -2.6565
    -2.6505  -2.6390  -2.6380  -2.6110  -2.6057  -2.5788  -2.5444  -2.5393
    -2.5210  -2.5126  -2.5003  -2.4959  -2.4498  -2.4455  -2.4144  -2.3943
    -2.3914  -2.3711  -2.3672  -2.3579  -2.3562  -2.3466  -2.3253  -2.3242
    -2.2810  -2.2783  -2.2777  -2.2618  -2.2607  -2.2542  -2.2466  -2.2454
    -2.2445  -2.2425  -2.2361  -2.2257  -2.2244  -2.2207  -2.1902  -2.1882
    -2.1866  -2.1863  -2.1846  -2.1828  -2.1743  -2.1535  -2.1514  -2.1384
    -2.1345  -2.1186  -2.1179  -2.1100  -2.1087  -2.1081  -2.1048  -2.0894
    -2.0880  -2.0875  -2.0751  -2.0678  -2.0450  -2.0419  -2.0011  -1.9994
    -1.9770  -1.9753  -1.9577  -1.9474  -1.9225  -1.9180  -1.9055  -1.8983
    -1.8719  -1.8553  -1.8508  -1.8480  -1.8444  -1.8390  -1.8345  -1.8310
    -1.8059  -1.8018  -1.7905  -1.7789  -1.7333  -1.7304  -1.7275  -1.7171
    -1.6997  -1.6704  -1.6693  -1.6648  -1.6427  -1.6030  -1.5819  -1.5808
    -1.5410  -1.5335  -1.5248  -1.4723  -1.4709  -1.4603  -1.4584  -1.4493
    -1.4476  -1.4434  -1.4366  -1.4315  -1.3836  -1.3739  -1.3687  -1.3658
    -1.3592  -1.3485  -1.3425  -1.3126  -1.3055  -1.2959  -1.2941  -1.2930
    -1.2868  -1.2797  -1.2723  -1.2634  -1.2529  -1.2512  -1.2143  -1.2084
    -1.2016  -1.1879  -1.1749  -1.1648  -1.1235  -1.1198  -1.0967  -1.0930
    -1.0861  -1.0621  -1.0126  -1.0103  -1.0087  -1.0059  -1.0039  -0.9990
    -0.9930  -0.9741  -0.9708  -0.9345  -0.9327  -0.9048  -0.9016  -0.8979
    -0.8936  -0.8905  -0.8743  -0.8732  -0.8699  -0.8691  -0.8650  -0.8353
    -0.8295  -0.8284  -0.8209  -0.8002  -0.7982  -0.7919  -0.7668  -0.7635
    -0.7569  -0.7148  -0.7111  -0.6981  -0.6727  -0.6640  -0.6550  -0.6535
    -0.6485  -0.6462  -0.6437  -0.6391  -0.6326  -0.6264  -0.6066  -0.6063
    -0.6018  -0.6000  -0.5993  -0.5632  -0.5625  -0.5565  -0.5459  -0.5322
    -0.5301  -0.5206  -0.5163  -0.4610  -0.4605  -0.4519  -0.4504  -0.4496
    -0.4459  -0.4443  -0.4253  -0.4222  -0.4159  -0.4145  -0.4134  -0.4069
    -0.3735  -0.3717  -0.3709  -0.3634  -0.3608  -0.3563  -0.3514  -0.3416
    -0.3381  -0.3358  -0.3337  -0.2944  -0.2920  -0.2859  -0.2816  -0.2784
    -0.2044  -0.2034  -0.2011  -0.1996  -0.1917  -0.1910  -0.1552  -0.1431
    -0.1419  -0.1184  -0.1101  -0.0946   0.0091   0.0187   0.1158   0.5295
     0.5301   0.5318   0.5345   0.5874   0.6072   0.9801   0.9844   1.0232
     1.0292   1.1384   1.2191   1.3186   1.3435   1.5346   1.5679   2.1754
     2.1857   2.3347   2.3547   2.4654   2.4861   2.5781   2.5802   2.7328
     2.9591   2.9758   3.0943   3.3104   3.3273   3.3990   3.4070   3.5029
     3.5187   3.6884   3.7020   3.7768   3.9751   3.9756   4.0334   4.0432
     4.2928   4.2949   4.3121   4.5439   4.5812   4.5914   4.6313   4.9643
     4.9680   4.9938   5.0539   5.1278   5.3045   5.3076   5.3259   5.3921
     5.7771   5.8477   6.0883   6.0927   6.0948   6.1196   6.1634   6.1691
     6.2171   6.2711   6.3002   6.3153   6.3267   6.3304   6.3487   6.3827
     6.3853   6.4228   6.4489   6.6128   6.6785   6.7579   6.9409   6.9801
     7.0278   7.0372   7.0467

          k =-0.5000 0.0000 0.1111 (136853 PWs)   bands (ev):

   -19.5445  -7.3450  -6.1853  -5.7878  -5.7840  -5.1151  -4.7774  -4.7724
    -4.7511  -4.7355  -4.3741  -4.3733  -4.2772  -4.2745  -4.2691  -4.2574
    -4.2384  -4.1089  -4.1070  -4.0832  -4.0780  -4.0397  -4.0346  -3.9703
    -3.9702  -3.9640  -3.9532  -3.9411  -3.9377  -3.9204  -3.8670  -3.8352
    -3.8336  -3.8221  -3.8214  -3.8054  -3.7982  -3.7855  -3.7750  -3.7674
    -3.7599  -3.7350  -3.6886  -3.6856  -3.6413  -3.6384  -3.5833  -3.5777
    -3.5277  -3.5262  -3.5261  -3.5196  -3.4905  -3.4543  -3.4505  -3.4452
    -3.4432  -3.4403  -3.4147  -3.4102  -3.4021  -3.3445  -3.3403  -3.3330
    -3.3158  -3.3090  -3.2375  -3.2311  -3.2050  -3.2008  -3.1764  -3.1732
    -3.1612  -3.1450  -3.0872  -3.0856  -3.0682  -3.0671  -3.0167  -3.0126
    -3.0071  -2.9722  -2.9423  -2.9414  -2.9319  -2.9298  -2.9201  -2.9177
    -2.9129  -2.9104  -2.9018  -2.8606  -2.8231  -2.8217  -2.8081  -2.8061
    -2.7815  -2.7733  -2.7700  -2.7514  -2.7050  -2.7032  -2.6952  -2.6565
    -2.6505  -2.6390  -2.6380  -2.6110  -2.6057  -2.5788  -2.5444  -2.5393
    -2.5210  -2.5126  -2.5003  -2.4959  -2.4498  -2.4455  -2.4144  -2.3943
    -2.3914  -2.3711  -2.3672  -2.3579  -2.3562  -2.3466  -2.3253  -2.3242
    -2.2810  -2.2783  -2.2777  -2.2618  -2.2607  -2.2542  -2.2466  -2.2454
    -2.2445  -2.2425  -2.2361  -2.2257  -2.2244  -2.2207  -2.1902  -2.1882
    -2.1866  -2.1863  -2.1846  -2.1828  -2.1743  -2.1535  -2.1514  -2.1384
    -2.1345  -2.1186  -2.1179  -2.1100  -2.1087  -2.1081  -2.1048  -2.0894
    -2.0880  -2.0875  -2.0751  -2.0678  -2.0450  -2.0419  -2.0011  -1.9994
    -1.9770  -1.9753  -1.9577  -1.9474  -1.9225  -1.9180  -1.9055  -1.8983
    -1.8719  -1.8553  -1.8508  -1.8480  -1.8444  -1.8390  -1.8345  -1.8310
    -1.8059  -1.8018  -1.7905  -1.7789  -1.7333  -1.7304  -1.7275  -1.7171
    -1.6997  -1.6704  -1.6693  -1.6648  -1.6427  -1.6030  -1.5819  -1.5808
    -1.5410  -1.5335  -1.5248  -1.4723  -1.4709  -1.4603  -1.4584  -1.4493
    -1.4476  -1.4434  -1.4366  -1.4315  -1.3836  -1.3739  -1.3687  -1.3658
    -1.3592  -1.3485  -1.3425  -1.3126  -1.3055  -1.2959  -1.2941  -1.2930
    -1.2868  -1.2797  -1.2723  -1.2634  -1.2529  -1.2512  -1.2143  -1.2084
    -1.2016  -1.1879  -1.1749  -1.1648  -1.1235  -1.1198  -1.0967  -1.0930
    -1.0861  -1.0621  -1.0126  -1.0103  -1.0087  -1.0059  -1.0039  -0.9990
    -0.9930  -0.9741  -0.9708  -0.9345  -0.9327  -0.9048  -0.9016  -0.8979
    -0.8936  -0.8905  -0.8743  -0.8732  -0.8699  -0.8691  -0.8650  -0.8353
    -0.8295  -0.8284  -0.8209  -0.8002  -0.7982  -0.7919  -0.7668  -0.7635
    -0.7569  -0.7148  -0.7111  -0.6981  -0.6727  -0.6640  -0.6550  -0.6535
    -0.6485  -0.6462  -0.6437  -0.6391  -0.6326  -0.6264  -0.6066  -0.6063
    -0.6018  -0.6000  -0.5993  -0.5632  -0.5625  -0.5565  -0.5459  -0.5322
    -0.5301  -0.5206  -0.5163  -0.4610  -0.4605  -0.4519  -0.4504  -0.4496
    -0.4459  -0.4443  -0.4253  -0.4222  -0.4159  -0.4145  -0.4134  -0.4069
    -0.3735  -0.3717  -0.3709  -0.3634  -0.3608  -0.3563  -0.3514  -0.3416
    -0.3381  -0.3358  -0.3337  -0.2944  -0.2920  -0.2859  -0.2816  -0.2784
    -0.2044  -0.2034  -0.2011  -0.1996  -0.1917  -0.1910  -0.1552  -0.1431
    -0.1419  -0.1184  -0.1101  -0.0946   0.0091   0.0187   0.1158   0.5295
     0.5301   0.5318   0.5345   0.5874   0.6072   0.9801   0.9844   1.0232
     1.0292   1.1384   1.2191   1.3186   1.3435   1.5346   1.5679   2.1754
     2.1857   2.3347   2.3547   2.4654   2.4861   2.5781   2.5802   2.7328
     2.9591   2.9758   3.0943   3.3104   3.3273   3.3990   3.4070   3.5029
     3.5187   3.6884   3.7020   3.7768   3.9751   3.9756   4.0334   4.0432
     4.2928   4.2949   4.3121   4.5439   4.5812   4.5914   4.6313   4.9643
     4.9680   4.9938   5.0539   5.1278   5.3045   5.3076   5.3259   5.3921
     5.7771   5.8477   6.0883   6.0926   6.0949   6.1196   6.1634   6.1691
     6.2171   6.2711   6.3002   6.3153   6.3267   6.3303   6.3488   6.3827
     6.3853   6.4225   6.4492   6.6124   6.6787   6.7579   6.9412   6.9800
     7.0278   7.0372   7.0467

          k =-0.2500 0.1443 0.1111 (136898 PWs)   bands (ev):

   -19.5445  -7.3450  -6.3952  -5.6032  -5.3181  -5.2535  -5.2520  -4.7151
    -4.7135  -4.5943  -4.5816  -4.4448  -4.4114  -4.3341  -4.3202  -4.3016
    -4.2671  -4.2666  -4.1403  -4.1048  -4.0965  -4.0620  -4.0326  -4.0161
    -3.9721  -3.9129  -3.9127  -3.8766  -3.8764  -3.8730  -3.8405  -3.8279
    -3.8276  -3.7213  -3.7211  -3.7127  -3.6974  -3.6834  -3.6831  -3.6717
    -3.6647  -3.6541  -3.6279  -3.6272  -3.6270  -3.6213  -3.5958  -3.5897
    -3.5767  -3.5765  -3.5627  -3.5220  -3.5184  -3.4876  -3.4753  -3.4682
    -3.4681  -3.4515  -3.3937  -3.3933  -3.3597  -3.3571  -3.3425  -3.2881
    -3.2879  -3.2731  -3.2725  -3.2430  -3.2421  -3.2414  -3.2388  -3.0876
    -3.0872  -3.0636  -3.0613  -3.0537  -3.0408  -3.0385  -3.0154  -3.0129
    -2.9649  -2.9628  -2.9487  -2.9470  -2.9275  -2.8808  -2.8801  -2.8600
    -2.8557  -2.8553  -2.8145  -2.8136  -2.8067  -2.8038  -2.7914  -2.7894
    -2.7518  -2.7512  -2.7300  -2.7275  -2.7262  -2.7250  -2.7195  -2.6467
    -2.6449  -2.6420  -2.6152  -2.6140  -2.5548  -2.5504  -2.5248  -2.5223
    -2.5113  -2.5109  -2.5036  -2.4757  -2.4731  -2.4649  -2.4477  -2.4258
    -2.4235  -2.4199  -2.4021  -2.3998  -2.3924  -2.3903  -2.3883  -2.3850
    -2.3770  -2.3311  -2.3003  -2.2991  -2.2840  -2.2708  -2.2643  -2.2632
    -2.2571  -2.2564  -2.2536  -2.2259  -2.2248  -2.2216  -2.2158  -2.2143
    -2.1981  -2.1715  -2.1702  -2.1700  -2.1687  -2.1671  -2.1217  -2.0930
    -2.0912  -2.0897  -2.0845  -2.0740  -2.0639  -2.0582  -2.0448  -2.0447
    -2.0153  -2.0108  -2.0105  -1.9927  -1.9918  -1.9875  -1.9594  -1.9538
    -1.9196  -1.9162  -1.9135  -1.9072  -1.9063  -1.9037  -1.9000  -1.8992
    -1.8968  -1.8931  -1.8900  -1.8750  -1.8662  -1.7888  -1.7483  -1.7362
    -1.7102  -1.7070  -1.7009  -1.6994  -1.6980  -1.6842  -1.6836  -1.6817
    -1.6758  -1.6623  -1.6549  -1.6511  -1.6461  -1.6364  -1.6311  -1.6165
    -1.6104  -1.6000  -1.5838  -1.5675  -1.5528  -1.5437  -1.5398  -1.5289
    -1.5154  -1.5119  -1.5053  -1.4944  -1.4809  -1.4794  -1.4740  -1.4709
    -1.4475  -1.4430  -1.4319  -1.4249  -1.3987  -1.3920  -1.3786  -1.3383
    -1.3356  -1.3253  -1.3172  -1.3077  -1.2971  -1.2939  -1.2631  -1.2619
    -1.2556  -1.2245  -1.2193  -1.2098  -1.2011  -1.1990  -1.1754  -1.1746
    -1.1609  -1.1426  -1.1414  -1.1368  -1.0783  -1.0770  -1.0667  -1.0620
    -1.0488  -1.0468  -1.0358  -1.0343  -1.0172  -1.0047  -0.9772  -0.9751
    -0.9633  -0.9354  -0.9280  -0.9220  -0.9147  -0.9143  -0.9113  -0.9095
    -0.8970  -0.8926  -0.8650  -0.8620  -0.8548  -0.8526  -0.8489  -0.8377
    -0.8274  -0.8109  -0.7992  -0.7885  -0.7743  -0.6943  -0.6809  -0.6757
    -0.6749  -0.6703  -0.6668  -0.6621  -0.6411  -0.6319  -0.6267  -0.6212
    -0.6099  -0.6073  -0.6015  -0.5820  -0.5796  -0.5707  -0.5703  -0.4969
    -0.4966  -0.4656  -0.4587  -0.4581  -0.4540  -0.4499  -0.4490  -0.4466
    -0.4375  -0.4347  -0.4120  -0.3943  -0.3790  -0.3621  -0.3602  -0.3511
    -0.3485  -0.3383  -0.3366  -0.3357  -0.3344  -0.3307  -0.3172  -0.3130
    -0.3103  -0.2821  -0.2805  -0.2786  -0.2672  -0.2665  -0.2477  -0.2166
    -0.2153  -0.2071  -0.2032  -0.1392  -0.1378  -0.1021  -0.1020  -0.0438
    -0.0435  -0.0429  -0.0234  -0.0162   0.2055   0.2257   0.5580   0.5583
     0.6431   0.6622   0.8395   0.8681   0.8836   1.0033   1.0125   1.4385
     1.4389   1.4573   1.7151   1.7476   1.7513   2.0161   2.0343   2.1025
     2.1056   2.1249   2.1484   2.3584   2.3639   2.4491   2.4504   2.5117
     2.5795   2.6055   2.7556   2.8534   3.2876   3.2896   3.2907   3.3045
     3.3460   3.3587   3.6412   3.6450   3.9155   3.9308   4.0075   4.3386
     4.3740   4.3849   4.5654   4.5728   4.6786   4.6813   4.7722   4.8897
     4.8903   5.0051   5.0109   5.0547   5.3109   5.3757   5.3807   5.5091
     5.5504   5.7626   5.7664   5.7815   5.7949   5.8002   5.8514   5.8546
     5.9147   6.0141   6.1838   6.2649   6.4577   6.4632   6.5966   6.5987
     6.6071   6.6154   6.6409   6.7400   6.8119   6.8507   6.8615   6.9848
     7.0224   7.0533   7.0785

          k =-0.2500-0.1443-0.1111 (136898 PWs)   bands (ev):

   -19.5445  -7.3450  -6.3952  -5.6032  -5.3182  -5.2535  -5.2520  -4.7151
    -4.7135  -4.5943  -4.5815  -4.4451  -4.4114  -4.3341  -4.3204  -4.3017
    -4.2671  -4.2664  -4.1402  -4.1046  -4.0968  -4.0617  -4.0325  -4.0162
    -3.9722  -3.9129  -3.9126  -3.8766  -3.8764  -3.8731  -3.8403  -3.8278
    -3.8276  -3.7213  -3.7211  -3.7127  -3.6976  -3.6835  -3.6832  -3.6717
    -3.6648  -3.6539  -3.6280  -3.6271  -3.6268  -3.6211  -3.5959  -3.5898
    -3.5767  -3.5764  -3.5625  -3.5221  -3.5185  -3.4877  -3.4753  -3.4682
    -3.4680  -3.4514  -3.3938  -3.3933  -3.3596  -3.3571  -3.3424  -3.2883
    -3.2880  -3.2731  -3.2723  -3.2428  -3.2423  -3.2418  -3.2387  -3.0876
    -3.0872  -3.0637  -3.0612  -3.0537  -3.0408  -3.0386  -3.0153  -3.0128
    -2.9649  -2.9629  -2.9487  -2.9469  -2.9274  -2.8807  -2.8802  -2.8600
    -2.8558  -2.8554  -2.8146  -2.8137  -2.8069  -2.8040  -2.7916  -2.7893
    -2.7515  -2.7511  -2.7301  -2.7273  -2.7261  -2.7249  -2.7195  -2.6468
    -2.6448  -2.6421  -2.6152  -2.6140  -2.5550  -2.5501  -2.5247  -2.5223
    -2.5111  -2.5107  -2.5036  -2.4755  -2.4731  -2.4650  -2.4475  -2.4261
    -2.4238  -2.4201  -2.4021  -2.3996  -2.3926  -2.3903  -2.3882  -2.3852
    -2.3771  -2.3310  -2.3004  -2.2992  -2.2839  -2.2709  -2.2643  -2.2632
    -2.2574  -2.2563  -2.2538  -2.2259  -2.2247  -2.2215  -2.2158  -2.2141
    -2.1979  -2.1715  -2.1701  -2.1697  -2.1688  -2.1672  -2.1218  -2.0931
    -2.0913  -2.0898  -2.0844  -2.0741  -2.0637  -2.0582  -2.0447  -2.0445
    -2.0150  -2.0109  -2.0103  -1.9930  -1.9919  -1.9876  -1.9596  -1.9536
    -1.9203  -1.9167  -1.9134  -1.9075  -1.9061  -1.9045  -1.9001  -1.8994
    -1.8970  -1.8929  -1.8888  -1.8753  -1.8662  -1.7871  -1.7478  -1.7368
    -1.7107  -1.7065  -1.7011  -1.6996  -1.6981  -1.6846  -1.6837  -1.6813
    -1.6758  -1.6636  -1.6549  -1.6506  -1.6452  -1.6362  -1.6306  -1.6182
    -1.6096  -1.5999  -1.5836  -1.5686  -1.5518  -1.5444  -1.5388  -1.5290
    -1.5150  -1.5118  -1.5054  -1.4943  -1.4809  -1.4795  -1.4741  -1.4710
    -1.4473  -1.4434  -1.4317  -1.4250  -1.3980  -1.3923  -1.3786  -1.3384
    -1.3354  -1.3253  -1.3174  -1.3096  -1.2972  -1.2938  -1.2630  -1.2618
    -1.2537  -1.2249  -1.2189  -1.2101  -1.2009  -1.1991  -1.1756  -1.1745
    -1.1612  -1.1427  -1.1413  -1.1372  -1.0786  -1.0769  -1.0665  -1.0625
    -1.0486  -1.0468  -1.0354  -1.0335  -1.0167  -1.0044  -0.9772  -0.9754
    -0.9636  -0.9352  -0.9278  -0.9222  -0.9149  -0.9144  -0.9117  -0.9094
    -0.8992  -0.8925  -0.8648  -0.8628  -0.8544  -0.8524  -0.8471  -0.8381
    -0.8271  -0.8102  -0.7996  -0.7881  -0.7755  -0.6941  -0.6809  -0.6756
    -0.6749  -0.6704  -0.6666  -0.6621  -0.6411  -0.6331  -0.6264  -0.6215
    -0.6095  -0.6075  -0.6015  -0.5816  -0.5796  -0.5709  -0.5703  -0.4968
    -0.4964  -0.4652  -0.4590  -0.4584  -0.4538  -0.4502  -0.4491  -0.4470
    -0.4365  -0.4345  -0.4122  -0.3942  -0.3799  -0.3619  -0.3603  -0.3512
    -0.3488  -0.3382  -0.3368  -0.3357  -0.3341  -0.3306  -0.3171  -0.3131
    -0.3102  -0.2820  -0.2804  -0.2783  -0.2673  -0.2661  -0.2477  -0.2166
    -0.2153  -0.2070  -0.2036  -0.1394  -0.1373  -0.1023  -0.1018  -0.0439
    -0.0435  -0.0427  -0.0242  -0.0162   0.2071   0.2252   0.5580   0.5583
     0.6443   0.6616   0.8386   0.8674   0.8840   1.0036   1.0124   1.4385
     1.4388   1.4575   1.7150   1.7476   1.7513   2.0176   2.0334   2.1027
     2.1054   2.1256   2.1475   2.3584   2.3635   2.4492   2.4503   2.5117
     2.5807   2.6041   2.7556   2.8534   3.2875   3.2896   3.2919   3.3040
     3.3465   3.3581   3.6414   3.6447   3.9161   3.9302   4.0079   4.3388
     4.3741   4.3841   4.5605   4.5747   4.6784   4.6823   4.7724   4.8884
     4.8914   5.0053   5.0108   5.0573   5.3106   5.3749   5.3823   5.5131
     5.5490   5.7626   5.7669   5.7781   5.7952   5.8003   5.8510   5.8553
     5.9063   6.0043   6.2134   6.2602   6.4577   6.4624   6.5963   6.5993
     6.6074   6.6144   6.6397   6.7284   6.8235   6.8522   6.8607   6.9831
     7.0172   7.0544   7.0825

          k = 0.2500 0.1443-0.1111 (136898 PWs)   bands (ev):

   -19.5445  -7.3450  -6.3952  -5.6032  -5.3182  -5.2535  -5.2520  -4.7151
    -4.7135  -4.5943  -4.5815  -4.4451  -4.4114  -4.3341  -4.3204  -4.3017
    -4.2671  -4.2664  -4.1402  -4.1046  -4.0968  -4.0617  -4.0325  -4.0162
    -3.9722  -3.9129  -3.9126  -3.8766  -3.8764  -3.8731  -3.8403  -3.8278
    -3.8276  -3.7213  -3.7212  -3.7127  -3.6976  -3.6835  -3.6832  -3.6717
    -3.6648  -3.6539  -3.6280  -3.6271  -3.6268  -3.6211  -3.5959  -3.5898
    -3.5767  -3.5764  -3.5625  -3.5221  -3.5185  -3.4877  -3.4753  -3.4682
    -3.4680  -3.4514  -3.3938  -3.3933  -3.3596  -3.3571  -3.3424  -3.2883
    -3.2880  -3.2731  -3.2723  -3.2428  -3.2423  -3.2418  -3.2387  -3.0876
    -3.0872  -3.0637  -3.0612  -3.0537  -3.0408  -3.0386  -3.0153  -3.0128
    -2.9649  -2.9629  -2.9487  -2.9469  -2.9274  -2.8807  -2.8802  -2.8600
    -2.8558  -2.8554  -2.8146  -2.8137  -2.8069  -2.8040  -2.7916  -2.7893
    -2.7515  -2.7511  -2.7301  -2.7273  -2.7261  -2.7249  -2.7195  -2.6468
    -2.6448  -2.6421  -2.6152  -2.6140  -2.5550  -2.5501  -2.5247  -2.5223
    -2.5111  -2.5107  -2.5036  -2.4755  -2.4731  -2.4650  -2.4476  -2.4260
    -2.4238  -2.4201  -2.4021  -2.3996  -2.3926  -2.3903  -2.3882  -2.3852
    -2.3771  -2.3310  -2.3004  -2.2992  -2.2839  -2.2709  -2.2643  -2.2632
    -2.2574  -2.2563  -2.2538  -2.2259  -2.2247  -2.2215  -2.2158  -2.2141
    -2.1979  -2.1715  -2.1701  -2.1697  -2.1688  -2.1672  -2.1218  -2.0931
    -2.0913  -2.0898  -2.0844  -2.0741  -2.0637  -2.0582  -2.0447  -2.0445
    -2.0150  -2.0109  -2.0103  -1.9930  -1.9919  -1.9876  -1.9596  -1.9536
    -1.9203  -1.9167  -1.9135  -1.9075  -1.9061  -1.9045  -1.9001  -1.8994
    -1.8970  -1.8929  -1.8888  -1.8753  -1.8662  -1.7871  -1.7478  -1.7368
    -1.7107  -1.7065  -1.7011  -1.6996  -1.6981  -1.6846  -1.6837  -1.6813
    -1.6758  -1.6636  -1.6549  -1.6506  -1.6452  -1.6362  -1.6306  -1.6182
    -1.6096  -1.5999  -1.5836  -1.5686  -1.5518  -1.5444  -1.5388  -1.5290
    -1.5150  -1.5118  -1.5054  -1.4943  -1.4809  -1.4795  -1.4741  -1.4710
    -1.4473  -1.4434  -1.4317  -1.4250  -1.3980  -1.3923  -1.3786  -1.3384
    -1.3354  -1.3253  -1.3174  -1.3096  -1.2972  -1.2938  -1.2630  -1.2618
    -1.2537  -1.2249  -1.2189  -1.2101  -1.2009  -1.1991  -1.1756  -1.1745
    -1.1612  -1.1427  -1.1413  -1.1372  -1.0786  -1.0769  -1.0665  -1.0625
    -1.0486  -1.0468  -1.0354  -1.0335  -1.0167  -1.0044  -0.9772  -0.9754
    -0.9636  -0.9352  -0.9278  -0.9222  -0.9149  -0.9144  -0.9117  -0.9094
    -0.8991  -0.8925  -0.8648  -0.8628  -0.8544  -0.8524  -0.8471  -0.8381
    -0.8271  -0.8102  -0.7996  -0.7881  -0.7755  -0.6941  -0.6809  -0.6756
    -0.6749  -0.6705  -0.6666  -0.6621  -0.6411  -0.6331  -0.6264  -0.6215
    -0.6095  -0.6075  -0.6015  -0.5816  -0.5796  -0.5709  -0.5703  -0.4968
    -0.4964  -0.4652  -0.4590  -0.4584  -0.4538  -0.4502  -0.4491  -0.4470
    -0.4365  -0.4345  -0.4122  -0.3942  -0.3798  -0.3619  -0.3603  -0.3512
    -0.3488  -0.3382  -0.3368  -0.3357  -0.3341  -0.3306  -0.3171  -0.3131
    -0.3102  -0.2820  -0.2804  -0.2783  -0.2673  -0.2661  -0.2477  -0.2166
    -0.2153  -0.2070  -0.2036  -0.1394  -0.1373  -0.1023  -0.1018  -0.0439
    -0.0435  -0.0427  -0.0242  -0.0162   0.2071   0.2252   0.5580   0.5583
     0.6443   0.6616   0.8385   0.8674   0.8840   1.0036   1.0124   1.4385
     1.4388   1.4575   1.7150   1.7476   1.7513   2.0176   2.0334   2.1027
     2.1054   2.1256   2.1475   2.3584   2.3635   2.4492   2.4503   2.5117
     2.5807   2.6041   2.7556   2.8534   3.2875   3.2896   3.2919   3.3040
     3.3465   3.3581   3.6414   3.6447   3.9161   3.9302   4.0079   4.3388
     4.3741   4.3841   4.5605   4.5747   4.6784   4.6823   4.7724   4.8884
     4.8914   5.0053   5.0108   5.0573   5.3106   5.3749   5.3823   5.5131
     5.5490   5.7625   5.7668   5.7782   5.7952   5.8003   5.8509   5.8552
     5.9062   6.0052   6.2126   6.2604   6.4528   6.4663   6.5962   6.5995
     6.6079   6.6133   6.6367   6.7298   6.8227   6.8523   6.8609   6.9868
     7.0215   7.0554   7.0846

          k = 0.0000-0.2887 0.1111 (136898 PWs)   bands (ev):

   -19.5445  -7.3450  -6.3952  -5.6032  -5.3181  -5.2537  -5.2520  -4.7151
    -4.7135  -4.5940  -4.5816  -4.4449  -4.4116  -4.3340  -4.3202  -4.3018
    -4.2671  -4.2666  -4.1402  -4.1046  -4.0968  -4.0621  -4.0322  -4.0163
    -3.9724  -3.9129  -3.9127  -3.8767  -3.8764  -3.8730  -3.8402  -3.8279
    -3.8277  -3.7213  -3.7212  -3.7126  -3.6971  -3.6835  -3.6831  -3.6716
    -3.6651  -3.6536  -3.6280  -3.6273  -3.6268  -3.6208  -3.5963  -3.5896
    -3.5767  -3.5765  -3.5617  -3.5231  -3.5183  -3.4873  -3.4753  -3.4683
    -3.4681  -3.4522  -3.3938  -3.3933  -3.3594  -3.3573  -3.3424  -3.2883
    -3.2880  -3.2731  -3.2723  -3.2430  -3.2422  -3.2416  -3.2389  -3.0874
    -3.0869  -3.0639  -3.0610  -3.0536  -3.0409  -3.0388  -3.0158  -3.0127
    -2.9649  -2.9628  -2.9486  -2.9467  -2.9272  -2.8817  -2.8798  -2.8598
    -2.8554  -2.8553  -2.8146  -2.8136  -2.8070  -2.8042  -2.7918  -2.7894
    -2.7513  -2.7511  -2.7307  -2.7272  -2.7263  -2.7248  -2.7194  -2.6467
    -2.6448  -2.6416  -2.6151  -2.6141  -2.5568  -2.5492  -2.5246  -2.5219
    -2.5108  -2.5106  -2.5037  -2.4762  -2.4728  -2.4649  -2.4473  -2.4271
    -2.4241  -2.4197  -2.4022  -2.3996  -2.3927  -2.3889  -2.3880  -2.3856
    -2.3771  -2.3311  -2.3003  -2.2993  -2.2836  -2.2708  -2.2649  -2.2630
    -2.2572  -2.2565  -2.2539  -2.2255  -2.2252  -2.2210  -2.2150  -2.2140
    -2.1978  -2.1707  -2.1703  -2.1695  -2.1689  -2.1667  -2.1220  -2.0926
    -2.0921  -2.0897  -2.0844  -2.0741  -2.0650  -2.0570  -2.0446  -2.0443
    -2.0140  -2.0108  -2.0101  -1.9948  -1.9920  -1.9870  -1.9600  -1.9540
    -1.9261  -1.9164  -1.9133  -1.9088  -1.9063  -1.9051  -1.9000  -1.8999
    -1.8970  -1.8924  -1.8875  -1.8759  -1.8647  -1.7802  -1.7433  -1.7397
    -1.7136  -1.7047  -1.7042  -1.7001  -1.6985  -1.6852  -1.6828  -1.6800
    -1.6763  -1.6670  -1.6549  -1.6496  -1.6422  -1.6373  -1.6282  -1.6233
    -1.6073  -1.6009  -1.5805  -1.5730  -1.5479  -1.5474  -1.5348  -1.5304
    -1.5138  -1.5129  -1.5056  -1.4939  -1.4804  -1.4797  -1.4737  -1.4711
    -1.4463  -1.4460  -1.4308  -1.4256  -1.3955  -1.3912  -1.3789  -1.3369
    -1.3360  -1.3248  -1.3184  -1.3165  -1.2971  -1.2942  -1.2629  -1.2624
    -1.2467  -1.2270  -1.2175  -1.2115  -1.2005  -1.2002  -1.1772  -1.1740
    -1.1617  -1.1426  -1.1407  -1.1390  -1.0781  -1.0763  -1.0652  -1.0640
    -1.0488  -1.0459  -1.0356  -1.0305  -1.0163  -1.0037  -0.9769  -0.9764
    -0.9651  -0.9354  -0.9266  -0.9233  -0.9148  -0.9143  -0.9121  -0.9085
    -0.9057  -0.8925  -0.8653  -0.8639  -0.8535  -0.8531  -0.8442  -0.8362
    -0.8248  -0.8050  -0.8022  -0.7840  -0.7827  -0.6944  -0.6804  -0.6753
    -0.6752  -0.6713  -0.6651  -0.6623  -0.6406  -0.6379  -0.6257  -0.6226
    -0.6083  -0.6081  -0.6010  -0.5809  -0.5782  -0.5722  -0.5701  -0.4973
    -0.4955  -0.4631  -0.4611  -0.4583  -0.4525  -0.4519  -0.4491  -0.4481
    -0.4359  -0.4314  -0.4130  -0.3942  -0.3825  -0.3611  -0.3606  -0.3507
    -0.3497  -0.3390  -0.3369  -0.3356  -0.3339  -0.3299  -0.3170  -0.3128
    -0.3100  -0.2819  -0.2814  -0.2770  -0.2678  -0.2642  -0.2474  -0.2164
    -0.2156  -0.2066  -0.2059  -0.1404  -0.1346  -0.1025  -0.1015  -0.0444
    -0.0435  -0.0415  -0.0263  -0.0162   0.2136   0.2215   0.5581   0.5582
     0.6501   0.6577   0.8351   0.8642   0.8862   1.0046   1.0119   1.4385
     1.4389   1.4571   1.7145   1.7478   1.7509   2.0239   2.0292   2.1038
     2.1044   2.1298   2.1426   2.3593   2.3630   2.4495   2.4498   2.5120
     2.5862   2.5981   2.7553   2.8531   3.2853   3.2899   3.2964   3.3011
     3.3481   3.3571   3.6414   3.6444   3.9205   3.9269   4.0095   4.3391
     4.3772   4.3801   4.5359   4.5863   4.6762   4.6875   4.7722   4.8796
     4.8975   5.0074   5.0084   5.0704   5.3092   5.3707   5.3895   5.5315
     5.5413   5.7530   5.7681   5.7687   5.7951   5.7990   5.8550   5.8573
     5.8814   5.9884   6.2390   6.3300   6.4451   6.4624   6.5906   6.5997
     6.6012   6.6117   6.6269   6.6799   6.8517   6.8571   6.9059   6.9675
     7.0052   7.0670   7.0751

          k = 0.0000 0.2887 0.1111 (136898 PWs)   bands (ev):

   -19.5445  -7.3450  -6.3952  -5.6032  -5.3181  -5.2537  -5.2520  -4.7151
    -4.7135  -4.5940  -4.5816  -4.4449  -4.4116  -4.3340  -4.3202  -4.3018
    -4.2671  -4.2665  -4.1402  -4.1046  -4.0968  -4.0621  -4.0322  -4.0163
    -3.9724  -3.9129  -3.9127  -3.8767  -3.8764  -3.8730  -3.8403  -3.8279
    -3.8277  -3.7213  -3.7212  -3.7126  -3.6971  -3.6835  -3.6831  -3.6716
    -3.6651  -3.6536  -3.6280  -3.6273  -3.6268  -3.6208  -3.5962  -3.5896
    -3.5767  -3.5765  -3.5617  -3.5231  -3.5183  -3.4873  -3.4753  -3.4683
    -3.4681  -3.4522  -3.3938  -3.3933  -3.3594  -3.3573  -3.3424  -3.2882
    -3.2880  -3.2731  -3.2723  -3.2430  -3.2422  -3.2416  -3.2389  -3.0874
    -3.0869  -3.0639  -3.0610  -3.0536  -3.0409  -3.0388  -3.0158  -3.0127
    -2.9649  -2.9628  -2.9486  -2.9467  -2.9272  -2.8817  -2.8798  -2.8598
    -2.8554  -2.8553  -2.8146  -2.8136  -2.8070  -2.8042  -2.7918  -2.7894
    -2.7513  -2.7511  -2.7307  -2.7272  -2.7263  -2.7248  -2.7194  -2.6467
    -2.6448  -2.6416  -2.6151  -2.6141  -2.5568  -2.5492  -2.5246  -2.5219
    -2.5108  -2.5106  -2.5037  -2.4762  -2.4728  -2.4649  -2.4473  -2.4271
    -2.4241  -2.4197  -2.4022  -2.3996  -2.3927  -2.3889  -2.3880  -2.3856
    -2.3771  -2.3310  -2.3003  -2.2993  -2.2836  -2.2708  -2.2649  -2.2630
    -2.2572  -2.2565  -2.2539  -2.2255  -2.2252  -2.2210  -2.2150  -2.2140
    -2.1978  -2.1707  -2.1703  -2.1695  -2.1689  -2.1667  -2.1220  -2.0926
    -2.0921  -2.0897  -2.0844  -2.0741  -2.0650  -2.0570  -2.0446  -2.0443
    -2.0140  -2.0108  -2.0101  -1.9948  -1.9920  -1.9870  -1.9600  -1.9540
    -1.9261  -1.9164  -1.9133  -1.9088  -1.9063  -1.9051  -1.9000  -1.8999
    -1.8970  -1.8924  -1.8875  -1.8759  -1.8647  -1.7802  -1.7433  -1.7397
    -1.7136  -1.7047  -1.7042  -1.7001  -1.6985  -1.6852  -1.6828  -1.6800
    -1.6763  -1.6670  -1.6549  -1.6496  -1.6422  -1.6373  -1.6282  -1.6233
    -1.6073  -1.6009  -1.5805  -1.5730  -1.5479  -1.5474  -1.5348  -1.5304
    -1.5138  -1.5129  -1.5056  -1.4938  -1.4804  -1.4797  -1.4737  -1.4711
    -1.4463  -1.4460  -1.4308  -1.4256  -1.3955  -1.3912  -1.3789  -1.3369
    -1.3360  -1.3248  -1.3184  -1.3165  -1.2971  -1.2942  -1.2629  -1.2624
    -1.2467  -1.2270  -1.2175  -1.2115  -1.2005  -1.2002  -1.1772  -1.1740
    -1.1617  -1.1426  -1.1407  -1.1390  -1.0781  -1.0763  -1.0652  -1.0640
    -1.0488  -1.0459  -1.0356  -1.0305  -1.0163  -1.0037  -0.9769  -0.9764
    -0.9651  -0.9354  -0.9266  -0.9233  -0.9148  -0.9143  -0.9121  -0.9085
    -0.9057  -0.8926  -0.8653  -0.8639  -0.8535  -0.8531  -0.8442  -0.8362
    -0.8249  -0.8050  -0.8022  -0.7840  -0.7827  -0.6944  -0.6804  -0.6753
    -0.6752  -0.6713  -0.6651  -0.6623  -0.6406  -0.6379  -0.6257  -0.6226
    -0.6083  -0.6081  -0.6010  -0.5809  -0.5782  -0.5722  -0.5701  -0.4973
    -0.4955  -0.4631  -0.4611  -0.4583  -0.4525  -0.4519  -0.4491  -0.4481
    -0.4359  -0.4314  -0.4130  -0.3942  -0.3824  -0.3611  -0.3606  -0.3507
    -0.3497  -0.3390  -0.3368  -0.3356  -0.3339  -0.3299  -0.3170  -0.3128
    -0.3100  -0.2819  -0.2814  -0.2770  -0.2678  -0.2642  -0.2474  -0.2164
    -0.2156  -0.2066  -0.2059  -0.1404  -0.1346  -0.1025  -0.1015  -0.0444
    -0.0435  -0.0415  -0.0263  -0.0162   0.2136   0.2215   0.5581   0.5582
     0.6501   0.6577   0.8351   0.8642   0.8862   1.0046   1.0119   1.4385
     1.4389   1.4571   1.7145   1.7478   1.7509   2.0239   2.0292   2.1038
     2.1044   2.1298   2.1426   2.3593   2.3630   2.4495   2.4498   2.5120
     2.5862   2.5981   2.7553   2.8531   3.2853   3.2899   3.2964   3.3011
     3.3481   3.3571   3.6414   3.6444   3.9205   3.9269   4.0095   4.3391
     4.3772   4.3801   4.5359   4.5863   4.6762   4.6875   4.7722   4.8796
     4.8975   5.0074   5.0084   5.0704   5.3092   5.3706   5.3895   5.5315
     5.5413   5.7530   5.7682   5.7689   5.7951   5.7989   5.8550   5.8573
     5.8815   5.9884   6.2391   6.3295   6.4418   6.4668   6.5887   6.5981
     6.6012   6.6117   6.6257   6.6793   6.8518   6.8573   6.9073   6.9690
     7.0112   7.0673   7.0765

     the Fermi energy is     1.5830 ev

!    total energy              =   -6604.42754028 Ry
     Harris-Foulkes estimate   =   -6604.42754027 Ry
     estimated scf accuracy    <          2.1E-09 Ry

     The total energy is the sum of the following terms:

     one-electron contribution =  -48807.23302911 Ry
     hartree contribution      =   24908.35996064 Ry
     xc contribution           =   -3204.99610310 Ry
     ewald contribution        =   20499.43883427 Ry
     smearing contrib. (-TS)   =       0.00279702 Ry

     convergence has been achieved in  22 iterations

     Writing output data file 9685050.save

     init_run     :    139.62s CPU    153.21s WALL (       1 calls)
     electrons    :   7988.30s CPU   8599.19s WALL (       1 calls)

     Called by init_run:
     wfcinit      :    106.36s CPU    118.79s WALL (       1 calls)
     potinit      :      9.54s CPU     10.12s WALL (       1 calls)

     Called by electrons:
     c_bands      :   6587.49s CPU   7081.78s WALL (      23 calls)
     sum_band     :   1004.16s CPU   1104.25s WALL (      23 calls)
     v_of_rho     :    104.34s CPU    115.36s WALL (      23 calls)
     newd         :    304.23s CPU    309.07s WALL (      23 calls)
     mix_rho      :      2.72s CPU      3.14s WALL (      23 calls)
     vdW_energy   :      8.50s CPU      9.82s WALL (      23 calls)
     vdW_ffts     :     52.72s CPU     58.22s WALL (      46 calls)
     vdW_v        :     13.48s CPU     14.40s WALL (      23 calls)

     Called by c_bands:
     init_us_2    :     27.16s CPU     27.70s WALL (     564 calls)
     cegterg      :   6520.16s CPU   7012.85s WALL (     276 calls)

     Called by *egterg:
     h_psi        :   2753.14s CPU   3206.60s WALL (    1702 calls)
     s_psi        :    411.57s CPU    414.31s WALL (    1702 calls)
     g_psi        :      5.52s CPU      5.62s WALL (    1414 calls)
     cdiaghg      :   2136.97s CPU   2143.08s WALL (    1678 calls)

     Called by h_psi:
     add_vuspsi   :    411.10s CPU    413.82s WALL (    1702 calls)

     General routines
     calbec       :    574.21s CPU    577.44s WALL (    1978 calls)
     fft          :    111.60s CPU    120.97s WALL (    1518 calls)
     ffts         :      1.33s CPU      1.74s WALL (      46 calls)
     fftw         :   1755.88s CPU   2153.93s WALL (  675030 calls)
     interpolate  :      3.84s CPU      4.75s WALL (      46 calls)
     davcio       :      0.01s CPU      0.59s WALL (      12 calls)

     Parallel routines
     fft_scatter  :   1149.60s CPU   1395.99s WALL (  676594 calls)

     PWSCF        :     2h15m CPU        2h26m WALL


   This run was terminated on:  14:47:29   3Jul2015            

=------------------------------------------------------------------------------=
   JOB DONE.
=------------------------------------------------------------------------------=
