Setting SGE environment for SCC

     Program PWSCF v.5.1.2 starts on  3Jul2015 at 15:59:43 

     This program is part of the open-source Quantum ESPRESSO suite
     for quantum simulation of materials; please cite
         "P. Giannozzi et al., J. Phys.:Condens. Matter 21 395502 (2009);
          URL http://www.quantum-espresso.org", 
     in publications or presentations arising from this work. More details at
     http://www.quantum-espresso.org/quote

     Parallel version (MPI), running on    32 processors
     R & G space division:  proc/nbgrp/npool/nimage =      32
     Reading input from hollow.O1.Au535758.d.2.7.phi.45.psi.90.in
Warning: card &IONS ignored
Warning: card / ignored
Warning: card &CELL ignored
Warning: card / ignored

     Current dimensions of program PWSCF are:
     Max number of different atomic species (ntypx) = 10
     Max number of k-points (npk) =  40000
     Max angular momentum in pseudopotentials (lmaxx) =  3

     IMPORTANT: XC functional enforced from input :
     Exchange-correlation      = VDW-DF ( 1  4  4  0 1 0)
     Any further DFT definition will be discarded
     Please, verify this is what you really want


     Subspace diagonalization in iterative solution of the eigenvalue problem:
     a serial algorithm will be used


     Parallelization info
     --------------------
     sticks:   dense  smooth     PW     G-vecs:    dense   smooth      PW
     Min         445     223     58                96775    34191    4534
     Max         446     224     59                96790    34246    4540
     Sum       14269    7147   1867              3097177  1095093  145167


     Title: 
     hollow.O1.Au535758.d.2.7.phi.45.psi.90                                     


     bravais-lattice index     =            4
     lattice parameter (alat)  =      22.7436  a.u.
     unit-cell volume          =   22924.1508 (a.u.)^3
     number of atoms/cell      =           67
     number of atomic types    =            3
     number of electrons       =       712.00
     number of Kohn-Sham states=          427
     kinetic-energy cutoff     =      50.0000  Ry
     charge density cutoff     =     400.0000  Ry
     convergence threshold     =      1.0E-08
     mixing beta               =       0.7000
     number of iterations used =            8  plain     mixing
     Exchange-correlation      = VDW-DF ( 1  4  4  0 1 0)

     celldm(1)=  22.743643  celldm(2)=   0.000000  celldm(3)=   2.250000
     celldm(4)=   0.000000  celldm(5)=   0.000000  celldm(6)=   0.000000

     crystal axes: (cart. coord. in units of alat)
               a(1) = (   1.000000   0.000000   0.000000 )  
               a(2) = (  -0.500000   0.866025   0.000000 )  
               a(3) = (   0.000000   0.000000   2.250000 )  

     reciprocal axes: (cart. coord. in units 2 pi/alat)
               b(1) = (  1.000000  0.577350 -0.000000 )  
               b(2) = (  0.000000  1.154701  0.000000 )  
               b(3) = (  0.000000 -0.000000  0.444444 )  


     PseudoPot. # 1 for Au read from file:
     /home/scc/andrejb/qe/pseudo/Au.pbe-nd-van.UPF
     MD5 check sum: 458681b50f36d87ef23c61b04bba420a
     Pseudo is Ultrasoft + core correction, Zval = 11.0
     Generated by new atomic code, or converted to UPF format
     Using radial grid of  985 points,  3 beta functions with: 
                l(1) =   1
                l(2) =   2
                l(3) =   2
     Q(r) pseudized with  8 coefficients,  rinner =    1.100   1.100   1.100
                                                       1.100   1.100

     PseudoPot. # 2 for H  read from file:
     /home/scc/andrejb/qe/pseudo/H.pbe-van_ak.UPF
     MD5 check sum: 403db7282739603aa925980fa9b8608d
     Pseudo is Ultrasoft, Zval =  1.0
     Generated by new atomic code, or converted to UPF format
     Using radial grid of  615 points,  1 beta functions with: 
                l(1) =   0
     Q(r) pseudized with  8 coefficients,  rinner =    0.800

     PseudoPot. # 3 for O  read from file:
     /home/scc/andrejb/qe/pseudo/O.pbe-van_ak.UPF
     MD5 check sum: 4b8c549914a63cae506c6ff22b5af4fe
     Pseudo is Ultrasoft, Zval =  6.0
     Generated by new atomic code, or converted to UPF format
     Using radial grid of  737 points,  4 beta functions with: 
                l(1) =   0
                l(2) =   0
                l(3) =   1
                l(4) =   1
     Q(r) pseudized with  8 coefficients,  rinner =    0.800   0.800   0.800


     vdW kernel table read from file vdW_kernel_table
     MD5 check sum: 48e77a2e26edf626eeb0eaa751ad5cac

     atomic species   valence    mass     pseudopotential
        Au            11.00   196.96657     Au( 1.00)
        H              1.00     1.01000     H ( 1.00)
        O              6.00    16.00000     O ( 1.00)

     No symmetry found



   Cartesian axes

     site n.     atom                  positions (alat units)
         1           O   tau(   1) = (  -0.0208375   0.5411347   1.0450644  )
         2           H   tau(   2) = (  -0.0267671   0.4928811   0.9803776  )
         3           H   tau(   3) = (  -0.0151011   0.4903739   1.1078033  )
         4           Au  tau(   4) = (   0.3540481   0.6132292   0.0000000  )
         5           Au  tau(   5) = (   0.4790062   0.3967954   0.0000000  )
         6           Au  tau(   6) = (   0.6039644   0.1803616   0.0000000  )
         7           Au  tau(   7) = (   0.7289225  -0.0360723   0.0000000  )
         8           Au  tau(   8) = (   0.1041318   0.6132292   0.0000000  )
         9           Au  tau(   9) = (   0.2290899   0.3967954   0.0000000  )
        10           Au  tau(  10) = (   0.3540481   0.1803616   0.0000000  )
        11           Au  tau(  11) = (   0.4790062  -0.0360723   0.0000000  )
        12           Au  tau(  12) = (  -0.1457845   0.6132292   0.0000000  )
        13           Au  tau(  13) = (  -0.0208264   0.3967954   0.0000000  )
        14           Au  tau(  14) = (   0.1041318   0.1803616   0.0000000  )
        15           Au  tau(  15) = (   0.2290899  -0.0360723   0.0000000  )
        16           Au  tau(  16) = (  -0.3957008   0.6132292   0.0000000  )
        17           Au  tau(  17) = (  -0.2707426   0.3967954   0.0000000  )
        18           Au  tau(  18) = (  -0.1457845   0.1803616   0.0000000  )
        19           Au  tau(  19) = (  -0.0208264  -0.0360723   0.0000000  )
        20           Au  tau(  20) = (   0.4790062   0.6853738   0.2040557  )
        21           Au  tau(  21) = (   0.6039644   0.4689400   0.2040557  )
        22           Au  tau(  22) = (   0.7289225   0.2525061   0.2040557  )
        23           Au  tau(  23) = (   0.8538806   0.0360723   0.2040557  )
        24           Au  tau(  24) = (   0.2290899   0.6853738   0.2040557  )
        25           Au  tau(  25) = (   0.3540481   0.4689400   0.2040557  )
        26           Au  tau(  26) = (   0.4790062   0.2525061   0.2040557  )
        27           Au  tau(  27) = (   0.6039644   0.0360723   0.2040557  )
        28           Au  tau(  28) = (  -0.0208264   0.6853738   0.2040557  )
        29           Au  tau(  29) = (   0.1041318   0.4689400   0.2040557  )
        30           Au  tau(  30) = (   0.2290899   0.2525061   0.2040557  )
        31           Au  tau(  31) = (   0.3540481   0.0360723   0.2040557  )
        32           Au  tau(  32) = (  -0.2707426   0.6853738   0.2040557  )
        33           Au  tau(  33) = (  -0.1457845   0.4689400   0.2040557  )
        34           Au  tau(  34) = (  -0.0208264   0.2525061   0.2040557  )
        35           Au  tau(  35) = (   0.1041318   0.0360723   0.2040557  )
        36           Au  tau(  36) = (   0.3541162   0.7576593   0.4066483  )
        37           Au  tau(  37) = (   0.4791000   0.5411421   0.4066695  )
        38           Au  tau(  38) = (   0.6040570   0.3246862   0.4066617  )
        39           Au  tau(  39) = (   0.7290270   0.1081684   0.4066529  )
        40           Au  tau(  40) = (   0.1041162   0.7576236   0.4066247  )
        41           Au  tau(  41) = (   0.2291001   0.5411063   0.4066455  )
        42           Au  tau(  42) = (   0.3540567   0.3246505   0.4066380  )
        43           Au  tau(  43) = (   0.4790276   0.1081324   0.4066292  )
        44           Au  tau(  44) = (  -0.1458201   0.7576104   0.4066224  )
        45           Au  tau(  45) = (  -0.0208365   0.5410930   0.4066438  )
        46           Au  tau(  46) = (   0.1041202   0.3246372   0.4066359  )
        47           Au  tau(  47) = (   0.2290908   0.1081193   0.4066273  )
        48           Au  tau(  48) = (  -0.3958167   0.7575791   0.4065812  )
        49           Au  tau(  49) = (  -0.2708328   0.5410617   0.4066025  )
        50           Au  tau(  50) = (  -0.1458763   0.3246061   0.4065947  )
        51           Au  tau(  51) = (  -0.0209056   0.1080882   0.4065858  )
        52           Au  tau(  52) = (   0.3541085   0.6133344   0.6129762  )
        53           Au  tau(  53) = (   0.4790780   0.3968269   0.6129968  )
        54           Au  tau(  54) = (   0.6040356   0.1803811   0.6129859  )
        55           Au  tau(  55) = (   0.7290165  -0.0361221   0.6129385  )
        56           Au  tau(  56) = (   0.1041243   0.6133091   0.6130022  )
        57           Au  tau(  57) = (   0.2290941   0.3968013   0.6130241  )
        58           Au  tau(  58) = (   0.3540515   0.1803552   0.6130121  )
        59           Au  tau(  59) = (   0.4790323  -0.0361475   0.6129659  )
        60           Au  tau(  60) = (  -0.1458030   0.6133014   0.6129980  )
        61           Au  tau(  61) = (  -0.0208339   0.3967936   0.6130188  )
        62           Au  tau(  62) = (   0.1041239   0.1803477   0.6130083  )
        63           Au  tau(  63) = (   0.2291046  -0.0361554   0.6129607  )
        64           Au  tau(  64) = (  -0.3957908   0.6132739   0.6129471  )
        65           Au  tau(  65) = (  -0.2708208   0.3967658   0.6129688  )
        66           Au  tau(  66) = (  -0.1458636   0.1803200   0.6129569  )
        67           Au  tau(  67) = (  -0.0208823  -0.0361826   0.6129110  )

     number of k points=    12  Marzari-Vanderbilt smearing, width (Ry)=  0.0200
                       cart. coord. in units 2pi/alat
        k(    1) = (   0.2500000   0.4330127   0.1111111), wk =   0.1666667
        k(    2) = (   0.2500000  -0.1443376   0.1111111), wk =   0.1666667
        k(    3) = (  -0.2500000  -0.4330127   0.1111111), wk =   0.1666667
        k(    4) = (  -0.2500000   0.4330127  -0.1111111), wk =   0.1666667
        k(    5) = (   0.2500000  -0.4330127  -0.1111111), wk =   0.1666667
        k(    6) = (   0.5000000   0.0000000   0.1111111), wk =   0.1666667
        k(    7) = (  -0.5000000   0.0000000   0.1111111), wk =   0.1666667
        k(    8) = (  -0.2500000   0.1443376   0.1111111), wk =   0.1666667
        k(    9) = (  -0.2500000  -0.1443376  -0.1111111), wk =   0.1666667
        k(   10) = (   0.2500000   0.1443376  -0.1111111), wk =   0.1666667
        k(   11) = (   0.0000000  -0.2886751   0.1111111), wk =   0.1666667
        k(   12) = (   0.0000000   0.2886751   0.1111111), wk =   0.1666667

     Dense  grid:  3097177 G-vectors     FFT dimensions: ( 150, 150, 360)

     Smooth grid:  1095093 G-vectors     FFT dimensions: ( 108, 108, 240)

     Largest allocated arrays     est. size (Mb)     dimensions
        Kohn-Sham Wavefunctions        28.01 Mb     (    4299,  427)
        NL pseudopotentials            55.23 Mb     (    4299,  842)
        Each V/rho on FFT grid          4.12 Mb     (  270000)
        Each G-vector array             0.74 Mb     (   96788)
        G-vector shells                 0.16 Mb     (   21404)
     Largest temporary arrays     est. size (Mb)     dimensions
        Auxiliary wavefunctions       112.04 Mb     (    4299, 1708)
        Each subspace H/S matrix       44.51 Mb     (    1708, 1708)
        Each <psi_i|beta_j> matrix      5.49 Mb     (     842,  427)
        Arrays for rho mixing          32.96 Mb     (  270000,    8)

     Initial potential from superposition of free atoms
     Check: negative starting charge=   -1.729903

     starting charge  711.25682, renormalised to  712.00000

     negative rho (up, down):  1.732E+00 0.000E+00


     ************************************************************************
     *
     * You are using vdW-DF for exchange-correlation in this calculation.
     * Please cite the following three references that made this development
     * possible:
     *
     *   M. Dion, H. Rydberg, E. Schroder, D. C. Langreth, and
     *   B. I. Lundqvist, Phys. Rev. Lett. 92, 246401 (2004).
     *
     *   T. Thonhauser, V. R. Cooper, S. Li, A. Puzder, P. Hyldgaard, and
     *   D. C. Langreth, Phys. Rev. B 76, 125112 (2007).
     *
     *   G. Roman-Perez and J. M. Soler, Phys. Rev. Lett. 103, 096102 (2009).
     *
     *
     * If you are using vdW-DF2, please also cite:
     *
     *   K. Lee, E. D. Murray, L. Kong, B. I. Lundqvist, and
     *   D. C. Langreth, Phys. Rev. B 82, 081101(R) (2010).
     *
     *
     * If you are calculating the stress with vdW-DF, please also cite:
     *
     *   R. Sabatini, E. Kucukbenli, B. Kolb, T. Thonhauser, and
     *   S. de Gironcoli, J. Phys.: Condens. Matter 24, 424209 (2012).
     *
     ************************************************************************

     Carrying out vdW-DF run using the following parameters:

     Nqs =      20    Nr_points =    1024   r_max =   100.000
     q_mesh =
               0.00001000     0.04494208     0.09755937     0.15916263
               0.23128650     0.31572767     0.41458969     0.53033537
               0.66584808     0.82450364     1.01025438     1.22772762
               1.48234092     1.78043706     2.12944203     2.53805004
               3.01644009     3.57652955     4.23227104     5.00000000

     Gradients computed in reciprocal space

     ************************************************************************


     Starting wfc are  582 randomized atomic wfcs

     total cpu time spent up to now is      171.2 secs

     Self-consistent Calculation

     iteration #  1     ecut=    50.00 Ry     beta=0.70
     Davidson diagonalization with overlap
     ethr =  1.00E-02,  avg # of iterations =  3.0

     Threshold (ethr) on eigenvalues was too large:
     Diagonalizing with lowered threshold

     Davidson diagonalization with overlap
     ethr =  3.54E-04,  avg # of iterations =  3.3

     negative rho (up, down):  1.728E+00 0.000E+00

     total cpu time spent up to now is      823.6 secs

     total energy              =   -6602.76221871 Ry
     Harris-Foulkes estimate   =   -6605.04739885 Ry
     estimated scf accuracy    <       2.85779769 Ry

     iteration #  2     ecut=    50.00 Ry     beta=0.70
     Davidson diagonalization with overlap
     ethr =  4.01E-04,  avg # of iterations = 11.6

     negative rho (up, down):  1.726E+00 0.000E+00

     total cpu time spent up to now is     1848.9 secs

     total energy              =   -6596.57775019 Ry
     Harris-Foulkes estimate   =   -6610.20547216 Ry
     estimated scf accuracy    <      76.00941883 Ry

     iteration #  3     ecut=    50.00 Ry     beta=0.70
     Davidson diagonalization with overlap
     ethr =  4.01E-04,  avg # of iterations =  6.3

     negative rho (up, down):  1.737E+00 0.000E+00

     total cpu time spent up to now is     2511.3 secs

     total energy              =   -6603.12043202 Ry
     Harris-Foulkes estimate   =   -6605.03002473 Ry
     estimated scf accuracy    <       8.82896563 Ry

     iteration #  4     ecut=    50.00 Ry     beta=0.70
     Davidson diagonalization with overlap
     ethr =  4.01E-04,  avg # of iterations =  7.1

     negative rho (up, down):  1.738E+00 0.000E+00

     total cpu time spent up to now is     2926.3 secs

     total energy              =   -6603.67540523 Ry
     Harris-Foulkes estimate   =   -6604.97244721 Ry
     estimated scf accuracy    <      10.42117663 Ry

     iteration #  5     ecut=    50.00 Ry     beta=0.70
     Davidson diagonalization with overlap
     ethr =  4.01E-04,  avg # of iterations =  6.6

     negative rho (up, down):  1.748E+00 0.000E+00

     total cpu time spent up to now is     3316.7 secs

     total energy              =   -6604.26821492 Ry
     Harris-Foulkes estimate   =   -6604.67780032 Ry
     estimated scf accuracy    <       3.55823216 Ry

     iteration #  6     ecut=    50.00 Ry     beta=0.70
     Davidson diagonalization with overlap
     ethr =  4.01E-04,  avg # of iterations =  2.5

     negative rho (up, down):  1.753E+00 0.000E+00

     total cpu time spent up to now is     3625.0 secs

     total energy              =   -6604.43131323 Ry
     Harris-Foulkes estimate   =   -6604.46050276 Ry
     estimated scf accuracy    <       0.08842197 Ry

     iteration #  7     ecut=    50.00 Ry     beta=0.70
     Davidson diagonalization with overlap
     ethr =  1.24E-05,  avg # of iterations = 10.5

     negative rho (up, down):  1.755E+00 0.000E+00

     total cpu time spent up to now is     4189.5 secs

     total energy              =   -6604.43226866 Ry
     Harris-Foulkes estimate   =   -6604.44886865 Ry
     estimated scf accuracy    <       0.06224086 Ry

     iteration #  8     ecut=    50.00 Ry     beta=0.70
     Davidson diagonalization with overlap
     ethr =  8.74E-06,  avg # of iterations =  6.0

     negative rho (up, down):  1.756E+00 0.000E+00

     total cpu time spent up to now is     4568.4 secs

     total energy              =   -6604.42989141 Ry
     Harris-Foulkes estimate   =   -6604.44305234 Ry
     estimated scf accuracy    <       0.05017326 Ry

     iteration #  9     ecut=    50.00 Ry     beta=0.70
     Davidson diagonalization with overlap
     ethr =  7.05E-06,  avg # of iterations =  7.9

     negative rho (up, down):  1.756E+00 0.000E+00

     total cpu time spent up to now is     4978.3 secs

     total energy              =   -6604.43020448 Ry
     Harris-Foulkes estimate   =   -6604.43538789 Ry
     estimated scf accuracy    <       0.01958508 Ry

     iteration # 10     ecut=    50.00 Ry     beta=0.70
     Davidson diagonalization with overlap
     c_bands:  1 eigenvalues not converged
     c_bands:  1 eigenvalues not converged
     ethr =  2.75E-06,  avg # of iterations = 13.3

     negative rho (up, down):  1.758E+00 0.000E+00

     total cpu time spent up to now is     5460.8 secs

     total energy              =   -6604.42887020 Ry
     Harris-Foulkes estimate   =   -6604.43238668 Ry
     estimated scf accuracy    <       0.01163265 Ry

     iteration # 11     ecut=    50.00 Ry     beta=0.70
     Davidson diagonalization with overlap
     c_bands:  1 eigenvalues not converged
     c_bands:  1 eigenvalues not converged
     ethr =  1.63E-06,  avg # of iterations = 13.3

     negative rho (up, down):  1.758E+00 0.000E+00

     total cpu time spent up to now is     5942.6 secs

     total energy              =   -6604.42888889 Ry
     Harris-Foulkes estimate   =   -6604.42984834 Ry
     estimated scf accuracy    <       0.00481833 Ry

     iteration # 12     ecut=    50.00 Ry     beta=0.70
     Davidson diagonalization with overlap
     ethr =  6.77E-07,  avg # of iterations =  1.3

     negative rho (up, down):  1.758E+00 0.000E+00

     total cpu time spent up to now is     6215.1 secs

     total energy              =   -6604.42768026 Ry
     Harris-Foulkes estimate   =   -6604.42922145 Ry
     estimated scf accuracy    <       0.00226622 Ry

     iteration # 13     ecut=    50.00 Ry     beta=0.70
     Davidson diagonalization with overlap
     ethr =  3.18E-07,  avg # of iterations =  7.8

     negative rho (up, down):  1.758E+00 0.000E+00

     total cpu time spent up to now is     6606.7 secs

     total energy              =   -6604.42801361 Ry
     Harris-Foulkes estimate   =   -6604.42809002 Ry
     estimated scf accuracy    <       0.00014370 Ry

     iteration # 14     ecut=    50.00 Ry     beta=0.70
     Davidson diagonalization with overlap
     ethr =  2.02E-08,  avg # of iterations =  3.0

     negative rho (up, down):  1.758E+00 0.000E+00

     total cpu time spent up to now is     7001.0 secs

     total energy              =   -6604.42803076 Ry
     Harris-Foulkes estimate   =   -6604.42808789 Ry
     estimated scf accuracy    <       0.00019851 Ry

     iteration # 15     ecut=    50.00 Ry     beta=0.70
     Davidson diagonalization with overlap
     ethr =  2.02E-08,  avg # of iterations =  2.0

     negative rho (up, down):  1.758E+00 0.000E+00

     total cpu time spent up to now is     7318.2 secs

     total energy              =   -6604.42803861 Ry
     Harris-Foulkes estimate   =   -6604.42808016 Ry
     estimated scf accuracy    <       0.00021724 Ry

     iteration # 16     ecut=    50.00 Ry     beta=0.70
     Davidson diagonalization with overlap
     ethr =  2.02E-08,  avg # of iterations =  2.0

     negative rho (up, down):  1.758E+00 0.000E+00

     total cpu time spent up to now is     7584.0 secs

     total energy              =   -6604.42804624 Ry
     Harris-Foulkes estimate   =   -6604.42807495 Ry
     estimated scf accuracy    <       0.00022060 Ry

     iteration # 17     ecut=    50.00 Ry     beta=0.70
     Davidson diagonalization with overlap
     ethr =  2.02E-08,  avg # of iterations =  1.0

     negative rho (up, down):  1.758E+00 0.000E+00

     total cpu time spent up to now is     7822.1 secs

     total energy              =   -6604.42805688 Ry
     Harris-Foulkes estimate   =   -6604.42807069 Ry
     estimated scf accuracy    <       0.00009065 Ry

     iteration # 18     ecut=    50.00 Ry     beta=0.70
     Davidson diagonalization with overlap
     ethr =  1.27E-08,  avg # of iterations =  1.5

     negative rho (up, down):  1.758E+00 0.000E+00

     total cpu time spent up to now is     8065.0 secs

     total energy              =   -6604.42806358 Ry
     Harris-Foulkes estimate   =   -6604.42806430 Ry
     estimated scf accuracy    <       0.00000261 Ry

     iteration # 19     ecut=    50.00 Ry     beta=0.70
     Davidson diagonalization with overlap
     ethr =  3.66E-10,  avg # of iterations =  3.0

     negative rho (up, down):  1.758E+00 0.000E+00

     total cpu time spent up to now is     8389.2 secs

     total energy              =   -6604.42806401 Ry
     Harris-Foulkes estimate   =   -6604.42806452 Ry
     estimated scf accuracy    <       0.00000229 Ry

     iteration # 20     ecut=    50.00 Ry     beta=0.70
     Davidson diagonalization with overlap
     ethr =  3.22E-10,  avg # of iterations =  2.0

     negative rho (up, down):  1.758E+00 0.000E+00

     total cpu time spent up to now is     8640.2 secs

     total energy              =   -6604.42806433 Ry
     Harris-Foulkes estimate   =   -6604.42806449 Ry
     estimated scf accuracy    <       0.00000101 Ry

     iteration # 21     ecut=    50.00 Ry     beta=0.70
     Davidson diagonalization with overlap
     ethr =  1.42E-10,  avg # of iterations =  2.0

     negative rho (up, down):  1.758E+00 0.000E+00

     total cpu time spent up to now is     8923.7 secs

     total energy              =   -6604.42806446 Ry
     Harris-Foulkes estimate   =   -6604.42806450 Ry
     estimated scf accuracy    <       0.00000024 Ry

     iteration # 22     ecut=    50.00 Ry     beta=0.70
     Davidson diagonalization with overlap
     ethr =  3.39E-11,  avg # of iterations =  2.0

     negative rho (up, down):  1.758E+00 0.000E+00

     total cpu time spent up to now is     9191.2 secs

     total energy              =   -6604.42806451 Ry
     Harris-Foulkes estimate   =   -6604.42806450 Ry
     estimated scf accuracy    <       0.00000001 Ry

     iteration # 23     ecut=    50.00 Ry     beta=0.70
     Davidson diagonalization with overlap
     ethr =  1.56E-12,  avg # of iterations =  3.0

     negative rho (up, down):  1.758E+00 0.000E+00

     total cpu time spent up to now is     9589.9 secs

     total energy              =   -6604.42806451 Ry
     Harris-Foulkes estimate   =   -6604.42806451 Ry
     estimated scf accuracy    <       0.00000001 Ry

     iteration # 24     ecut=    50.00 Ry     beta=0.70
     Davidson diagonalization with overlap
     ethr =  1.56E-12,  avg # of iterations =  3.0

     negative rho (up, down):  1.758E+00 0.000E+00

     total cpu time spent up to now is     9900.7 secs

     End of self-consistent calculation

          k = 0.2500 0.4330 0.1111 (136853 PWs)   bands (ev):

   -18.6451  -6.4608  -6.3641  -5.9648  -5.9647  -5.2864  -4.9533  -4.9533
    -4.9137  -4.9133  -4.5531  -4.5530  -4.4544  -4.4544  -4.4403  -4.4185
    -4.3918  -4.2868  -4.2867  -4.2626  -4.2192  -4.2191  -4.1502  -4.1500
    -4.1429  -4.1427  -4.1220  -4.1159  -4.1158  -4.0429  -4.0422  -4.0137
    -4.0136  -4.0015  -4.0014  -3.9782  -3.9782  -3.9557  -3.9471  -3.9471
    -3.9202  -3.8681  -3.8681  -3.8202  -3.8202  -3.7603  -3.7602  -3.7063
    -3.7062  -3.7053  -3.7052  -3.6703  -3.6303  -3.6302  -3.6246  -3.6233
    -3.6232  -3.5923  -3.5918  -3.5836  -3.5215  -3.5214  -3.5118  -3.4961
    -3.4891  -3.4161  -3.4160  -3.3825  -3.3820  -3.3547  -3.3545  -3.3416
    -3.3248  -3.2642  -3.2641  -3.2469  -3.2469  -3.1946  -3.1896  -3.1895
    -3.1518  -3.1199  -3.1195  -3.1115  -3.1115  -3.0976  -3.0976  -3.0898
    -3.0897  -3.0800  -3.0394  -3.0016  -3.0015  -2.9867  -2.9866  -2.9609
    -2.9509  -2.9508  -2.9294  -2.8850  -2.8849  -2.8753  -2.8359  -2.8298
    -2.8183  -2.8182  -2.7886  -2.7883  -2.7596  -2.7215  -2.7214  -2.6991
    -2.6922  -2.6780  -2.6778  -2.6681  -2.6272  -2.6272  -2.5945  -2.5717
    -2.5717  -2.5474  -2.5471  -2.5362  -2.5360  -2.5253  -2.5020  -2.5020
    -2.4579  -2.4577  -2.4563  -2.4392  -2.4390  -2.4344  -2.4246  -2.4230
    -2.4215  -2.4212  -2.4162  -2.4029  -2.4026  -2.3927  -2.3666  -2.3664
    -2.3650  -2.3640  -2.3637  -2.3609  -2.3606  -2.3323  -2.3294  -2.3154
    -2.3153  -2.2977  -2.2977  -2.2874  -2.2874  -2.2857  -2.2854  -2.2657
    -2.2653  -2.2638  -2.2632  -2.2465  -2.2200  -2.2199  -2.1802  -2.1801
    -2.1541  -2.1540  -2.1268  -2.1267  -2.0988  -2.0987  -2.0811  -2.0772
    -2.0502  -2.0275  -2.0272  -2.0222  -2.0220  -2.0176  -2.0104  -2.0101
    -1.9845  -1.9781  -1.9676  -1.9107  -1.9070  -1.9065  -1.9038  -1.9036
    -1.8658  -1.8480  -1.8479  -1.8198  -1.8196  -1.7591  -1.7589  -1.7302
    -1.7118  -1.7117  -1.6505  -1.6504  -1.6386  -1.6383  -1.6274  -1.6271
    -1.6242  -1.6141  -1.6138  -1.5583  -1.5581  -1.5459  -1.5457  -1.5455
    -1.5259  -1.5253  -1.4901  -1.4899  -1.4728  -1.4726  -1.4726  -1.4662
    -1.4609  -1.4511  -1.4506  -1.4322  -1.4321  -1.3903  -1.3899  -1.3776
    -1.3772  -1.3573  -1.3441  -1.3004  -1.3000  -1.2744  -1.2694  -1.2693
    -1.2403  -1.1886  -1.1883  -1.1871  -1.1869  -1.1812  -1.1809  -1.1704
    -1.1520  -1.1517  -1.1119  -1.1116  -1.0809  -1.0807  -1.0760  -1.0759
    -1.0675  -1.0514  -1.0511  -1.0504  -1.0472  -1.0472  -1.0101  -1.0089
    -1.0077  -1.0075  -0.9758  -0.9756  -0.9727  -0.9486  -0.9404  -0.9399
    -0.8937  -0.8864  -0.8858  -0.8512  -0.8431  -0.8320  -0.8319  -0.8238
    -0.8236  -0.8226  -0.8222  -0.8106  -0.8104  -0.7843  -0.7843  -0.7815
    -0.7790  -0.7789  -0.7419  -0.7418  -0.7311  -0.7309  -0.7154  -0.7078
    -0.7074  -0.6959  -0.6473  -0.6401  -0.6380  -0.6289  -0.6287  -0.6277
    -0.6273  -0.6223  -0.6027  -0.6023  -0.5938  -0.5937  -0.5917  -0.5915
    -0.5522  -0.5496  -0.5494  -0.5412  -0.5409  -0.5358  -0.5340  -0.5246
    -0.5182  -0.5145  -0.5144  -0.4720  -0.4718  -0.4634  -0.4600  -0.4597
    -0.3823  -0.3819  -0.3795  -0.3794  -0.3702  -0.3701  -0.3335  -0.3207
    -0.3206  -0.2928  -0.2915  -0.2884  -0.1670  -0.1663  -0.0646   0.3507
     0.3509   0.3538   0.3539   0.4146   0.4152   0.8040   0.8042   0.8470
     0.8472   0.9543   1.0352   1.1459   1.1477   1.3663   1.3696   2.0011
     2.0016   2.1635   2.1641   2.2945   2.2957   2.3994   2.3995   2.5536
     2.7910   2.7957   2.9139   3.1386   3.1410   3.2237   3.2239   3.3238
     3.3387   3.5282   3.5403   3.5954   3.7958   3.7961   3.8584   3.8597
     4.1161   4.1233   4.1244   4.3665   4.4089   4.4093   4.4540   4.7901
     4.7912   4.8202   4.9545   5.1115   5.1271   5.1285   5.1918   5.2731
     5.7284   5.9099   5.9146   5.9215   5.9233   5.9901   5.9905   6.0045
     6.0786   6.1009   6.1253   6.1526   6.1531   6.1684   6.1783   6.2133
     6.2136   6.3334   6.5437   6.5709   6.7232   6.7484   6.8587   6.8626
     6.8654   6.8715   7.0335

          k = 0.2500-0.1443 0.1111 (136898 PWs)   bands (ev):

   -18.6451  -6.5741  -6.4608  -5.7820  -5.4903  -5.4317  -5.4316  -4.8933
    -4.8932  -4.7613  -4.7608  -4.6059  -4.5746  -4.5137  -4.4795  -4.4793
    -4.4467  -4.4466  -4.3181  -4.2763  -4.2763  -4.2162  -4.1949  -4.1948
    -4.0928  -4.0928  -4.0566  -4.0564  -4.0563  -4.0291  -4.0078  -4.0078
    -3.9019  -3.9006  -3.9005  -3.8797  -3.8629  -3.8628  -3.8504  -3.8504
    -3.8368  -3.8070  -3.8069  -3.8068  -3.8067  -3.7737  -3.7736  -3.7563
    -3.7563  -3.7412  -3.6976  -3.6975  -3.6678  -3.6523  -3.6521  -3.6481
    -3.6481  -3.5734  -3.5733  -3.5376  -3.5353  -3.5352  -3.4679  -3.4679
    -3.4523  -3.4522  -3.4211  -3.4209  -3.4200  -3.4198  -3.2666  -3.2665
    -3.2407  -3.2406  -3.2355  -3.2196  -3.2196  -3.1935  -3.1934  -3.1437
    -3.1437  -3.1274  -3.1273  -3.1071  -3.0582  -3.0581  -3.0386  -3.0336
    -3.0335  -2.9926  -2.9926  -2.9863  -2.9863  -2.9694  -2.9692  -2.9299
    -2.9298  -2.9080  -2.9079  -2.9049  -2.9048  -2.9019  -2.8243  -2.8242
    -2.8229  -2.7942  -2.7940  -2.7319  -2.7318  -2.7039  -2.7024  -2.6893
    -2.6892  -2.6841  -2.6682  -2.6543  -2.6542  -2.6448  -2.6269  -2.6011
    -2.6010  -2.6008  -2.5801  -2.5801  -2.5687  -2.5686  -2.5652  -2.5649
    -2.5574  -2.5114  -2.4785  -2.4784  -2.4631  -2.4488  -2.4423  -2.4422
    -2.4349  -2.4348  -2.4334  -2.4033  -2.4032  -2.4031  -2.3933  -2.3933
    -2.3757  -2.3482  -2.3478  -2.3475  -2.3467  -2.3466  -2.3015  -2.2697
    -2.2695  -2.2694  -2.2624  -2.2540  -2.2405  -2.2404  -2.2240  -2.2240
    -2.1900  -2.1887  -2.1886  -2.1699  -2.1682  -2.1681  -2.1352  -2.1350
    -2.0941  -2.0938  -2.0863  -2.0843  -2.0842  -2.0775  -2.0774  -2.0751
    -2.0749  -2.0677  -2.0674  -2.0509  -2.0507  -1.9234  -1.9232  -1.8910
    -1.8849  -1.8847  -1.8798  -1.8797  -1.8615  -1.8614  -1.8584  -1.8583
    -1.8567  -1.8341  -1.8253  -1.8251  -1.8221  -1.8135  -1.8133  -1.7904
    -1.7904  -1.7618  -1.7617  -1.7292  -1.7290  -1.7192  -1.7109  -1.6932
    -1.6931  -1.6903  -1.6717  -1.6595  -1.6594  -1.6519  -1.6519  -1.6250
    -1.6249  -1.6076  -1.6075  -1.5757  -1.5755  -1.5653  -1.5146  -1.5145
    -1.5020  -1.5017  -1.5011  -1.4766  -1.4740  -1.4401  -1.4394  -1.4393
    -1.4057  -1.3955  -1.3953  -1.3799  -1.3797  -1.3529  -1.3514  -1.3513
    -1.3218  -1.3189  -1.3188  -1.2561  -1.2560  -1.2426  -1.2422  -1.2262
    -1.2261  -1.2135  -1.2134  -1.1956  -1.1828  -1.1549  -1.1548  -1.1434
    -1.1156  -1.1050  -1.1048  -1.0934  -1.0934  -1.0909  -1.0854  -1.0852
    -1.0726  -1.0411  -1.0409  -1.0300  -1.0293  -1.0285  -1.0283  -1.0043
    -0.9858  -0.9853  -0.9647  -0.9643  -0.8716  -0.8583  -0.8526  -0.8526
    -0.8489  -0.8432  -0.8431  -0.8226  -0.8173  -0.8021  -0.8017  -0.7874
    -0.7873  -0.7779  -0.7576  -0.7574  -0.7559  -0.7476  -0.6759  -0.6758
    -0.6477  -0.6413  -0.6407  -0.6374  -0.6300  -0.6296  -0.6290  -0.6289
    -0.6155  -0.6153  -0.6001  -0.5748  -0.5601  -0.5400  -0.5398  -0.5285
    -0.5283  -0.5156  -0.5154  -0.5144  -0.5130  -0.5128  -0.4953  -0.4910
    -0.4909  -0.4602  -0.4587  -0.4585  -0.4466  -0.4465  -0.4272  -0.3950
    -0.3949  -0.3857  -0.3856  -0.3175  -0.3173  -0.2797  -0.2796  -0.2219
    -0.2202  -0.2200  -0.2104  -0.1915   0.0312   0.0322   0.3790   0.3790
     0.4701   0.4712   0.6643   0.6766   0.6967   0.8277   0.8280   1.2592
     1.2592   1.2779   1.5350   1.5693   1.5693   1.8457   1.8477   1.9259
     1.9260   1.9530   1.9540   2.1824   2.1825   2.2704   2.2705   2.3422
     2.4089   2.4105   2.5745   2.6715   3.1131   3.1136   3.1164   3.1167
     3.1715   3.1717   3.4636   3.4636   3.7449   3.7466   3.8470   4.1592
     4.2024   4.2034   4.4120   4.4277   4.5034   4.5038   4.5945   4.7124
     4.7132   4.8297   4.8301   5.1330   5.1426   5.2048   5.2063   5.3767
     5.3881   5.5913   5.5920   5.6175   5.6177   5.6724   5.6819   5.6836
     5.7350   6.0323   6.2347   6.2894   6.3107   6.3588   6.4243   6.4244
     6.4371   6.4381   6.5810   6.6781   6.6796   6.7979   6.8809   6.9005
     6.9102   6.9198   7.0347

          k =-0.2500-0.4330 0.1111 (136853 PWs)   bands (ev):

   -18.6451  -6.4608  -6.3641  -5.9648  -5.9647  -5.2864  -4.9533  -4.9533
    -4.9137  -4.9133  -4.5531  -4.5530  -4.4544  -4.4544  -4.4403  -4.4185
    -4.3918  -4.2868  -4.2867  -4.2626  -4.2192  -4.2191  -4.1502  -4.1500
    -4.1429  -4.1427  -4.1220  -4.1159  -4.1158  -4.0429  -4.0422  -4.0137
    -4.0136  -4.0015  -4.0014  -3.9782  -3.9782  -3.9557  -3.9471  -3.9471
    -3.9202  -3.8681  -3.8681  -3.8202  -3.8202  -3.7603  -3.7602  -3.7063
    -3.7062  -3.7053  -3.7052  -3.6703  -3.6303  -3.6302  -3.6246  -3.6233
    -3.6232  -3.5923  -3.5918  -3.5836  -3.5215  -3.5214  -3.5118  -3.4961
    -3.4891  -3.4161  -3.4160  -3.3825  -3.3820  -3.3547  -3.3545  -3.3416
    -3.3248  -3.2642  -3.2641  -3.2469  -3.2469  -3.1946  -3.1896  -3.1895
    -3.1518  -3.1199  -3.1195  -3.1115  -3.1115  -3.0976  -3.0976  -3.0898
    -3.0897  -3.0800  -3.0394  -3.0016  -3.0015  -2.9867  -2.9866  -2.9609
    -2.9509  -2.9508  -2.9294  -2.8850  -2.8849  -2.8753  -2.8359  -2.8298
    -2.8183  -2.8182  -2.7886  -2.7883  -2.7596  -2.7215  -2.7214  -2.6991
    -2.6922  -2.6780  -2.6778  -2.6681  -2.6272  -2.6272  -2.5945  -2.5717
    -2.5717  -2.5474  -2.5471  -2.5362  -2.5360  -2.5253  -2.5020  -2.5020
    -2.4579  -2.4577  -2.4563  -2.4392  -2.4390  -2.4344  -2.4246  -2.4230
    -2.4215  -2.4212  -2.4162  -2.4029  -2.4026  -2.3927  -2.3666  -2.3664
    -2.3650  -2.3640  -2.3637  -2.3609  -2.3606  -2.3323  -2.3294  -2.3154
    -2.3153  -2.2977  -2.2977  -2.2874  -2.2874  -2.2857  -2.2854  -2.2657
    -2.2653  -2.2638  -2.2632  -2.2465  -2.2200  -2.2199  -2.1802  -2.1801
    -2.1541  -2.1540  -2.1268  -2.1267  -2.0988  -2.0987  -2.0811  -2.0772
    -2.0502  -2.0275  -2.0272  -2.0222  -2.0220  -2.0176  -2.0104  -2.0101
    -1.9845  -1.9781  -1.9676  -1.9107  -1.9070  -1.9065  -1.9038  -1.9036
    -1.8658  -1.8480  -1.8479  -1.8198  -1.8196  -1.7591  -1.7589  -1.7302
    -1.7118  -1.7117  -1.6505  -1.6504  -1.6386  -1.6383  -1.6274  -1.6271
    -1.6242  -1.6141  -1.6138  -1.5583  -1.5581  -1.5459  -1.5457  -1.5455
    -1.5259  -1.5253  -1.4901  -1.4899  -1.4728  -1.4726  -1.4726  -1.4662
    -1.4609  -1.4511  -1.4506  -1.4322  -1.4321  -1.3903  -1.3899  -1.3776
    -1.3772  -1.3573  -1.3441  -1.3004  -1.3000  -1.2744  -1.2694  -1.2693
    -1.2403  -1.1886  -1.1883  -1.1871  -1.1869  -1.1812  -1.1809  -1.1704
    -1.1520  -1.1517  -1.1119  -1.1116  -1.0809  -1.0807  -1.0760  -1.0759
    -1.0675  -1.0514  -1.0511  -1.0504  -1.0472  -1.0472  -1.0101  -1.0089
    -1.0077  -1.0075  -0.9758  -0.9756  -0.9727  -0.9486  -0.9404  -0.9399
    -0.8937  -0.8864  -0.8858  -0.8512  -0.8431  -0.8320  -0.8319  -0.8238
    -0.8236  -0.8226  -0.8222  -0.8106  -0.8104  -0.7843  -0.7843  -0.7815
    -0.7790  -0.7789  -0.7419  -0.7418  -0.7311  -0.7309  -0.7154  -0.7078
    -0.7074  -0.6959  -0.6473  -0.6401  -0.6380  -0.6289  -0.6287  -0.6277
    -0.6273  -0.6223  -0.6027  -0.6023  -0.5938  -0.5937  -0.5917  -0.5915
    -0.5522  -0.5496  -0.5494  -0.5412  -0.5409  -0.5358  -0.5340  -0.5246
    -0.5182  -0.5145  -0.5144  -0.4720  -0.4718  -0.4634  -0.4600  -0.4597
    -0.3823  -0.3819  -0.3795  -0.3794  -0.3702  -0.3701  -0.3335  -0.3207
    -0.3206  -0.2928  -0.2915  -0.2884  -0.1670  -0.1663  -0.0646   0.3507
     0.3509   0.3539   0.3539   0.4146   0.4152   0.8040   0.8042   0.8470
     0.8472   0.9543   1.0352   1.1459   1.1477   1.3663   1.3696   2.0011
     2.0016   2.1635   2.1641   2.2945   2.2957   2.3994   2.3995   2.5536
     2.7910   2.7957   2.9139   3.1386   3.1410   3.2237   3.2239   3.3238
     3.3387   3.5282   3.5403   3.5954   3.7958   3.7961   3.8584   3.8597
     4.1161   4.1233   4.1244   4.3665   4.4089   4.4093   4.4540   4.7901
     4.7912   4.8202   4.9545   5.1115   5.1271   5.1285   5.1918   5.2731
     5.7271   5.9099   5.9146   5.9215   5.9233   5.9900   5.9905   6.0082
     6.0791   6.1009   6.1253   6.1526   6.1531   6.1677   6.1783   6.2133
     6.2136   6.3362   6.5431   6.5510   6.7288   6.7473   6.8604   6.8630
     6.8708   6.8783   7.0332

          k =-0.2500 0.4330-0.1111 (136853 PWs)   bands (ev):

   -18.6451  -6.4608  -6.3641  -5.9661  -5.9634  -5.2864  -4.9539  -4.9528
    -4.9148  -4.9123  -4.5536  -4.5523  -4.4545  -4.4543  -4.4402  -4.4185
    -4.3918  -4.2873  -4.2864  -4.2627  -4.2193  -4.2191  -4.1502  -4.1500
    -4.1431  -4.1424  -4.1219  -4.1172  -4.1145  -4.0435  -4.0415  -4.0143
    -4.0127  -4.0017  -4.0011  -3.9782  -3.9781  -3.9557  -3.9473  -3.9470
    -3.9204  -3.8684  -3.8679  -3.8212  -3.8193  -3.7603  -3.7602  -3.7063
    -3.7062  -3.7055  -3.7049  -3.6705  -3.6304  -3.6302  -3.6246  -3.6234
    -3.6232  -3.5925  -3.5916  -3.5835  -3.5217  -3.5213  -3.5117  -3.4959
    -3.4888  -3.4167  -3.4158  -3.3825  -3.3819  -3.3549  -3.3541  -3.3416
    -3.3249  -3.2644  -3.2642  -3.2472  -3.2463  -3.1946  -3.1897  -3.1895
    -3.1517  -3.1201  -3.1194  -3.1121  -3.1108  -3.0977  -3.0975  -3.0898
    -3.0896  -3.0801  -3.0393  -3.0023  -3.0010  -2.9868  -2.9863  -2.9610
    -2.9514  -2.9503  -2.9294  -2.8857  -2.8841  -2.8756  -2.8357  -2.8298
    -2.8188  -2.8174  -2.7889  -2.7884  -2.7597  -2.7214  -2.7211  -2.6991
    -2.6923  -2.6782  -2.6777  -2.6681  -2.6276  -2.6268  -2.5944  -2.5720
    -2.5718  -2.5475  -2.5472  -2.5364  -2.5356  -2.5254  -2.5026  -2.5017
    -2.4578  -2.4573  -2.4564  -2.4399  -2.4384  -2.4345  -2.4245  -2.4230
    -2.4218  -2.4211  -2.4161  -2.4034  -2.4018  -2.3927  -2.3668  -2.3661
    -2.3647  -2.3641  -2.3638  -2.3607  -2.3605  -2.3326  -2.3294  -2.3155
    -2.3152  -2.2981  -2.2973  -2.2874  -2.2872  -2.2861  -2.2853  -2.2664
    -2.2650  -2.2636  -2.2633  -2.2464  -2.2205  -2.2198  -2.1812  -2.1793
    -2.1548  -2.1534  -2.1266  -2.1264  -2.0991  -2.0984  -2.0811  -2.0770
    -2.0500  -2.0275  -2.0272  -2.0225  -2.0217  -2.0178  -2.0107  -2.0100
    -1.9844  -1.9776  -1.9676  -1.9108  -1.9072  -1.9067  -1.9041  -1.9036
    -1.8658  -1.8488  -1.8470  -1.8199  -1.8195  -1.7595  -1.7583  -1.7306
    -1.7119  -1.7115  -1.6508  -1.6500  -1.6387  -1.6381  -1.6277  -1.6268
    -1.6244  -1.6144  -1.6136  -1.5581  -1.5580  -1.5462  -1.5459  -1.5454
    -1.5259  -1.5251  -1.4901  -1.4901  -1.4730  -1.4727  -1.4723  -1.4659
    -1.4610  -1.4516  -1.4503  -1.4326  -1.4316  -1.3902  -1.3898  -1.3776
    -1.3770  -1.3572  -1.3442  -1.3010  -1.2995  -1.2746  -1.2696  -1.2693
    -1.2404  -1.1888  -1.1883  -1.1872  -1.1868  -1.1816  -1.1808  -1.1705
    -1.1523  -1.1512  -1.1120  -1.1114  -1.0810  -1.0807  -1.0763  -1.0756
    -1.0674  -1.0514  -1.0513  -1.0502  -1.0471  -1.0469  -1.0103  -1.0089
    -1.0079  -1.0072  -0.9760  -0.9755  -0.9723  -0.9489  -0.9406  -0.9394
    -0.8938  -0.8863  -0.8858  -0.8513  -0.8429  -0.8322  -0.8316  -0.8238
    -0.8233  -0.8227  -0.8222  -0.8107  -0.8104  -0.7846  -0.7840  -0.7816
    -0.7792  -0.7789  -0.7418  -0.7416  -0.7312  -0.7307  -0.7155  -0.7079
    -0.7074  -0.6957  -0.6473  -0.6401  -0.6378  -0.6291  -0.6286  -0.6277
    -0.6274  -0.6223  -0.6026  -0.6023  -0.5939  -0.5936  -0.5916  -0.5914
    -0.5523  -0.5497  -0.5492  -0.5415  -0.5406  -0.5358  -0.5340  -0.5244
    -0.5182  -0.5148  -0.5142  -0.4721  -0.4717  -0.4635  -0.4601  -0.4597
    -0.3822  -0.3820  -0.3796  -0.3793  -0.3702  -0.3700  -0.3335  -0.3208
    -0.3204  -0.2933  -0.2911  -0.2885  -0.1671  -0.1662  -0.0645   0.3507
     0.3510   0.3536   0.3541   0.4142   0.4154   0.8040   0.8044   0.8469
     0.8472   0.9543   1.0353   1.1455   1.1483   1.3659   1.3700   2.0011
     2.0014   2.1636   2.1642   2.2943   2.2960   2.3991   2.3998   2.5534
     2.7913   2.7957   2.9138   3.1384   3.1412   3.2232   3.2245   3.3237
     3.3388   3.5275   3.5409   3.5956   3.7955   3.7965   3.8585   3.8597
     4.1156   4.1231   4.1247   4.3671   4.4085   4.4095   4.4537   4.7896
     4.7917   4.8196   4.9545   5.1105   5.1272   5.1283   5.1925   5.2741
     5.7265   5.9107   5.9147   5.9208   5.9241   5.9900   5.9904   6.0073
     6.0789   6.1007   6.1252   6.1518   6.1540   6.1673   6.1788   6.2135
     6.2138   6.3348   6.5368   6.5623   6.7251   6.7503   6.8598   6.8633
     6.8706   6.8791   7.0307

          k = 0.2500-0.4330-0.1111 (136853 PWs)   bands (ev):

   -18.6451  -6.4608  -6.3641  -5.9661  -5.9634  -5.2864  -4.9539  -4.9528
    -4.9148  -4.9123  -4.5536  -4.5523  -4.4545  -4.4543  -4.4402  -4.4185
    -4.3918  -4.2873  -4.2864  -4.2627  -4.2193  -4.2191  -4.1502  -4.1500
    -4.1431  -4.1424  -4.1219  -4.1172  -4.1145  -4.0435  -4.0415  -4.0143
    -4.0127  -4.0017  -4.0011  -3.9782  -3.9781  -3.9557  -3.9473  -3.9470
    -3.9204  -3.8684  -3.8679  -3.8212  -3.8193  -3.7603  -3.7602  -3.7063
    -3.7062  -3.7055  -3.7049  -3.6705  -3.6304  -3.6302  -3.6246  -3.6234
    -3.6232  -3.5925  -3.5916  -3.5835  -3.5217  -3.5213  -3.5117  -3.4959
    -3.4888  -3.4167  -3.4158  -3.3825  -3.3819  -3.3549  -3.3541  -3.3416
    -3.3249  -3.2644  -3.2642  -3.2472  -3.2463  -3.1946  -3.1897  -3.1895
    -3.1517  -3.1201  -3.1194  -3.1121  -3.1108  -3.0977  -3.0975  -3.0898
    -3.0896  -3.0801  -3.0393  -3.0023  -3.0010  -2.9868  -2.9863  -2.9610
    -2.9514  -2.9503  -2.9294  -2.8857  -2.8841  -2.8756  -2.8357  -2.8298
    -2.8188  -2.8174  -2.7889  -2.7884  -2.7597  -2.7214  -2.7211  -2.6991
    -2.6923  -2.6782  -2.6777  -2.6681  -2.6276  -2.6268  -2.5944  -2.5720
    -2.5718  -2.5475  -2.5472  -2.5364  -2.5356  -2.5254  -2.5026  -2.5017
    -2.4578  -2.4573  -2.4564  -2.4399  -2.4384  -2.4345  -2.4245  -2.4230
    -2.4218  -2.4211  -2.4161  -2.4034  -2.4018  -2.3927  -2.3668  -2.3661
    -2.3647  -2.3641  -2.3638  -2.3607  -2.3605  -2.3326  -2.3294  -2.3155
    -2.3152  -2.2981  -2.2973  -2.2874  -2.2872  -2.2861  -2.2853  -2.2664
    -2.2650  -2.2636  -2.2633  -2.2464  -2.2205  -2.2198  -2.1812  -2.1793
    -2.1548  -2.1534  -2.1266  -2.1264  -2.0991  -2.0984  -2.0811  -2.0770
    -2.0500  -2.0275  -2.0272  -2.0225  -2.0217  -2.0178  -2.0107  -2.0100
    -1.9844  -1.9776  -1.9676  -1.9108  -1.9072  -1.9067  -1.9041  -1.9036
    -1.8658  -1.8488  -1.8470  -1.8199  -1.8195  -1.7595  -1.7583  -1.7306
    -1.7119  -1.7115  -1.6508  -1.6500  -1.6387  -1.6381  -1.6277  -1.6268
    -1.6244  -1.6144  -1.6136  -1.5581  -1.5580  -1.5462  -1.5459  -1.5454
    -1.5259  -1.5251  -1.4901  -1.4901  -1.4730  -1.4727  -1.4723  -1.4659
    -1.4610  -1.4516  -1.4503  -1.4326  -1.4316  -1.3902  -1.3898  -1.3776
    -1.3770  -1.3572  -1.3442  -1.3010  -1.2995  -1.2746  -1.2696  -1.2693
    -1.2404  -1.1888  -1.1883  -1.1872  -1.1868  -1.1816  -1.1809  -1.1705
    -1.1523  -1.1512  -1.1120  -1.1114  -1.0810  -1.0807  -1.0763  -1.0756
    -1.0674  -1.0514  -1.0513  -1.0502  -1.0471  -1.0469  -1.0103  -1.0089
    -1.0079  -1.0072  -0.9760  -0.9755  -0.9723  -0.9489  -0.9406  -0.9394
    -0.8938  -0.8863  -0.8858  -0.8513  -0.8429  -0.8322  -0.8316  -0.8238
    -0.8233  -0.8227  -0.8222  -0.8107  -0.8104  -0.7846  -0.7840  -0.7816
    -0.7792  -0.7789  -0.7418  -0.7416  -0.7312  -0.7307  -0.7155  -0.7079
    -0.7074  -0.6957  -0.6473  -0.6401  -0.6378  -0.6291  -0.6286  -0.6277
    -0.6274  -0.6223  -0.6026  -0.6023  -0.5939  -0.5936  -0.5916  -0.5914
    -0.5523  -0.5497  -0.5492  -0.5415  -0.5406  -0.5358  -0.5340  -0.5244
    -0.5182  -0.5148  -0.5142  -0.4721  -0.4718  -0.4635  -0.4601  -0.4597
    -0.3822  -0.3820  -0.3796  -0.3793  -0.3702  -0.3700  -0.3335  -0.3208
    -0.3204  -0.2933  -0.2911  -0.2885  -0.1671  -0.1662  -0.0645   0.3507
     0.3510   0.3536   0.3541   0.4142   0.4154   0.8040   0.8044   0.8469
     0.8472   0.9543   1.0353   1.1455   1.1483   1.3659   1.3700   2.0011
     2.0014   2.1636   2.1642   2.2943   2.2960   2.3991   2.3998   2.5534
     2.7913   2.7957   2.9138   3.1384   3.1412   3.2232   3.2245   3.3237
     3.3388   3.5275   3.5409   3.5956   3.7955   3.7965   3.8585   3.8597
     4.1156   4.1231   4.1247   4.3671   4.4085   4.4095   4.4537   4.7896
     4.7917   4.8196   4.9545   5.1105   5.1272   5.1283   5.1925   5.2741
     5.7271   5.9108   5.9147   5.9208   5.9241   5.9900   5.9904   6.0048
     6.0785   6.1007   6.1252   6.1518   6.1540   6.1679   6.1788   6.2135
     6.2138   6.3352   6.5358   6.5723   6.7241   6.7507   6.8593   6.8629
     6.8686   6.8716   7.0305

          k = 0.5000 0.0000 0.1111 (136853 PWs)   bands (ev):

   -18.6451  -6.4608  -6.3641  -5.9663  -5.9632  -5.2864  -4.9541  -4.9526
    -4.9153  -4.9117  -4.5536  -4.5523  -4.4545  -4.4543  -4.4401  -4.4185
    -4.3918  -4.2874  -4.2863  -4.2627  -4.2192  -4.2191  -4.1503  -4.1498
    -4.1434  -4.1423  -4.1219  -4.1173  -4.1144  -4.0441  -4.0409  -4.0144
    -4.0126  -4.0015  -4.0013  -3.9782  -3.9781  -3.9557  -3.9473  -3.9470
    -3.9204  -3.8684  -3.8680  -3.8212  -3.8192  -3.7603  -3.7602  -3.7063
    -3.7063  -3.7054  -3.7048  -3.6705  -3.6305  -3.6302  -3.6246  -3.6236
    -3.6230  -3.5922  -3.5918  -3.5837  -3.5216  -3.5213  -3.5117  -3.4959
    -3.4888  -3.4165  -3.4159  -3.3826  -3.3818  -3.3550  -3.3539  -3.3415
    -3.3249  -3.2646  -3.2640  -3.2471  -3.2464  -3.1946  -3.1896  -3.1895
    -3.1516  -3.1200  -3.1195  -3.1120  -3.1109  -3.0979  -3.0975  -3.0898
    -3.0894  -3.0802  -3.0393  -3.0025  -3.0008  -2.9867  -2.9865  -2.9610
    -2.9510  -2.9508  -2.9294  -2.8858  -2.8841  -2.8755  -2.8358  -2.8298
    -2.8188  -2.8175  -2.7891  -2.7882  -2.7597  -2.7215  -2.7210  -2.6991
    -2.6923  -2.6782  -2.6777  -2.6682  -2.6274  -2.6269  -2.5944  -2.5721
    -2.5717  -2.5476  -2.5471  -2.5364  -2.5356  -2.5254  -2.5024  -2.5017
    -2.4579  -2.4571  -2.4564  -2.4398  -2.4384  -2.4345  -2.4244  -2.4229
    -2.4217  -2.4212  -2.4162  -2.4034  -2.4018  -2.3927  -2.3665  -2.3662
    -2.3647  -2.3643  -2.3637  -2.3610  -2.3602  -2.3326  -2.3294  -2.3155
    -2.3151  -2.2980  -2.2975  -2.2874  -2.2873  -2.2862  -2.2851  -2.2664
    -2.2648  -2.2639  -2.2629  -2.2465  -2.2203  -2.2199  -2.1811  -2.1793
    -2.1548  -2.1535  -2.1267  -2.1264  -2.0989  -2.0986  -2.0811  -2.0770
    -2.0500  -2.0276  -2.0271  -2.0224  -2.0217  -2.0177  -2.0108  -2.0099
    -1.9845  -1.9777  -1.9676  -1.9107  -1.9071  -1.9067  -1.9041  -1.9036
    -1.8658  -1.8488  -1.8471  -1.8199  -1.8195  -1.7597  -1.7581  -1.7305
    -1.7119  -1.7114  -1.6508  -1.6500  -1.6388  -1.6379  -1.6276  -1.6269
    -1.6243  -1.6144  -1.6137  -1.5585  -1.5577  -1.5461  -1.5458  -1.5456
    -1.5261  -1.5249  -1.4901  -1.4900  -1.4731  -1.4727  -1.4723  -1.4659
    -1.4610  -1.4516  -1.4502  -1.4324  -1.4318  -1.3903  -1.3898  -1.3777
    -1.3770  -1.3572  -1.3442  -1.3010  -1.2995  -1.2746  -1.2696  -1.2693
    -1.2404  -1.1887  -1.1884  -1.1874  -1.1867  -1.1815  -1.1808  -1.1705
    -1.1523  -1.1511  -1.1122  -1.1112  -1.0809  -1.0808  -1.0762  -1.0756
    -1.0674  -1.0518  -1.0509  -1.0503  -1.0472  -1.0467  -1.0107  -1.0085
    -1.0076  -1.0074  -0.9760  -0.9756  -0.9724  -0.9489  -0.9406  -0.9394
    -0.8937  -0.8864  -0.8856  -0.8513  -0.8429  -0.8322  -0.8316  -0.8237
    -0.8235  -0.8228  -0.8221  -0.8106  -0.8105  -0.7846  -0.7840  -0.7815
    -0.7792  -0.7789  -0.7419  -0.7416  -0.7311  -0.7308  -0.7155  -0.7081
    -0.7072  -0.6957  -0.6472  -0.6400  -0.6379  -0.6289  -0.6287  -0.6278
    -0.6273  -0.6223  -0.6028  -0.6021  -0.5938  -0.5937  -0.5917  -0.5913
    -0.5523  -0.5498  -0.5491  -0.5414  -0.5407  -0.5358  -0.5340  -0.5244
    -0.5182  -0.5146  -0.5144  -0.4720  -0.4718  -0.4635  -0.4601  -0.4597
    -0.3824  -0.3818  -0.3795  -0.3794  -0.3702  -0.3700  -0.3335  -0.3207
    -0.3205  -0.2936  -0.2908  -0.2885  -0.1673  -0.1660  -0.0645   0.3508
     0.3509   0.3535   0.3541   0.4143   0.4153   0.8037   0.8046   0.8465
     0.8476   0.9543   1.0353   1.1450   1.1488   1.3650   1.3709   2.0008
     2.0017   2.1633   2.1644   2.2944   2.2959   2.3987   2.4002   2.5534
     2.7913   2.7958   2.9139   3.1374   3.1422   3.2229   3.2249   3.3237
     3.3388   3.5259   3.5425   3.5956   3.7953   3.7967   3.8586   3.8596
     4.1157   4.1233   4.1244   4.3670   4.4085   4.4095   4.4538   4.7893
     4.7920   4.8194   4.9547   5.1104   5.1270   5.1285   5.1924   5.2747
     5.7242   5.9145   5.9155   5.9207   5.9242   5.9900   5.9905   6.0021
     6.0783   6.1009   6.1253   6.1522   6.1534   6.1663   6.1804   6.2135
     6.2138   6.3309   6.5429   6.5744   6.7229   6.7530   6.8565   6.8635
     6.8704   6.8710   7.0338

          k =-0.5000 0.0000 0.1111 (136853 PWs)   bands (ev):

   -18.6451  -6.4608  -6.3641  -5.9663  -5.9632  -5.2864  -4.9541  -4.9526
    -4.9153  -4.9117  -4.5536  -4.5523  -4.4545  -4.4543  -4.4401  -4.4185
    -4.3918  -4.2874  -4.2863  -4.2627  -4.2192  -4.2191  -4.1503  -4.1498
    -4.1434  -4.1423  -4.1219  -4.1173  -4.1144  -4.0441  -4.0409  -4.0144
    -4.0126  -4.0015  -4.0013  -3.9782  -3.9781  -3.9557  -3.9473  -3.9470
    -3.9204  -3.8684  -3.8680  -3.8212  -3.8192  -3.7603  -3.7602  -3.7063
    -3.7063  -3.7054  -3.7048  -3.6705  -3.6305  -3.6302  -3.6246  -3.6236
    -3.6230  -3.5922  -3.5918  -3.5837  -3.5216  -3.5213  -3.5117  -3.4959
    -3.4888  -3.4165  -3.4159  -3.3826  -3.3818  -3.3550  -3.3539  -3.3415
    -3.3249  -3.2646  -3.2640  -3.2471  -3.2464  -3.1946  -3.1896  -3.1895
    -3.1516  -3.1200  -3.1195  -3.1120  -3.1109  -3.0979  -3.0975  -3.0898
    -3.0894  -3.0802  -3.0393  -3.0025  -3.0008  -2.9867  -2.9865  -2.9610
    -2.9510  -2.9508  -2.9294  -2.8858  -2.8841  -2.8755  -2.8358  -2.8298
    -2.8188  -2.8175  -2.7891  -2.7882  -2.7597  -2.7215  -2.7210  -2.6991
    -2.6923  -2.6782  -2.6777  -2.6682  -2.6274  -2.6269  -2.5944  -2.5721
    -2.5717  -2.5476  -2.5471  -2.5364  -2.5356  -2.5254  -2.5024  -2.5017
    -2.4579  -2.4571  -2.4564  -2.4398  -2.4384  -2.4345  -2.4244  -2.4229
    -2.4217  -2.4212  -2.4162  -2.4034  -2.4018  -2.3927  -2.3665  -2.3662
    -2.3647  -2.3643  -2.3637  -2.3610  -2.3602  -2.3326  -2.3294  -2.3155
    -2.3151  -2.2980  -2.2975  -2.2874  -2.2873  -2.2862  -2.2851  -2.2664
    -2.2648  -2.2639  -2.2629  -2.2465  -2.2203  -2.2199  -2.1811  -2.1793
    -2.1548  -2.1535  -2.1267  -2.1264  -2.0989  -2.0986  -2.0811  -2.0770
    -2.0500  -2.0276  -2.0271  -2.0224  -2.0218  -2.0177  -2.0108  -2.0099
    -1.9845  -1.9777  -1.9676  -1.9107  -1.9071  -1.9067  -1.9041  -1.9036
    -1.8658  -1.8488  -1.8471  -1.8199  -1.8195  -1.7597  -1.7581  -1.7305
    -1.7119  -1.7114  -1.6508  -1.6500  -1.6388  -1.6379  -1.6276  -1.6269
    -1.6243  -1.6144  -1.6137  -1.5585  -1.5577  -1.5461  -1.5458  -1.5456
    -1.5261  -1.5249  -1.4901  -1.4900  -1.4731  -1.4727  -1.4723  -1.4659
    -1.4610  -1.4516  -1.4502  -1.4324  -1.4318  -1.3903  -1.3898  -1.3777
    -1.3770  -1.3572  -1.3442  -1.3010  -1.2995  -1.2746  -1.2696  -1.2693
    -1.2404  -1.1887  -1.1884  -1.1874  -1.1867  -1.1815  -1.1808  -1.1705
    -1.1523  -1.1511  -1.1122  -1.1112  -1.0809  -1.0808  -1.0762  -1.0756
    -1.0674  -1.0518  -1.0509  -1.0503  -1.0472  -1.0467  -1.0107  -1.0085
    -1.0076  -1.0074  -0.9760  -0.9756  -0.9724  -0.9489  -0.9406  -0.9394
    -0.8937  -0.8864  -0.8856  -0.8513  -0.8429  -0.8322  -0.8316  -0.8237
    -0.8235  -0.8228  -0.8221  -0.8106  -0.8105  -0.7846  -0.7840  -0.7815
    -0.7792  -0.7789  -0.7419  -0.7416  -0.7311  -0.7308  -0.7155  -0.7081
    -0.7072  -0.6957  -0.6472  -0.6400  -0.6379  -0.6289  -0.6287  -0.6278
    -0.6273  -0.6223  -0.6028  -0.6021  -0.5938  -0.5937  -0.5917  -0.5913
    -0.5523  -0.5498  -0.5491  -0.5414  -0.5407  -0.5358  -0.5340  -0.5244
    -0.5182  -0.5146  -0.5144  -0.4720  -0.4718  -0.4635  -0.4601  -0.4597
    -0.3824  -0.3818  -0.3795  -0.3794  -0.3702  -0.3700  -0.3335  -0.3207
    -0.3205  -0.2936  -0.2908  -0.2885  -0.1673  -0.1660  -0.0645   0.3508
     0.3509   0.3535   0.3541   0.4143   0.4153   0.8037   0.8046   0.8465
     0.8476   0.9543   1.0353   1.1450   1.1488   1.3650   1.3709   2.0008
     2.0017   2.1633   2.1644   2.2944   2.2959   2.3987   2.4002   2.5534
     2.7913   2.7958   2.9139   3.1374   3.1422   3.2229   3.2249   3.3237
     3.3388   3.5259   3.5425   3.5956   3.7953   3.7967   3.8586   3.8596
     4.1157   4.1233   4.1244   4.3670   4.4085   4.4095   4.4538   4.7893
     4.7920   4.8194   4.9547   5.1104   5.1270   5.1285   5.1924   5.2747
     5.7236   5.9145   5.9155   5.9207   5.9242   5.9900   5.9905   6.0034
     6.0784   6.1009   6.1252   6.1522   6.1534   6.1661   6.1804   6.2135
     6.2138   6.3339   6.5383   6.5677   6.7266   6.7529   6.8577   6.8636
     6.8708   6.8739   7.0337

          k =-0.2500 0.1443 0.1111 (136898 PWs)   bands (ev):

   -18.6451  -6.5741  -6.4608  -5.7820  -5.4903  -5.4317  -5.4316  -4.8933
    -4.8932  -4.7613  -4.7608  -4.6059  -4.5746  -4.5137  -4.4795  -4.4793
    -4.4467  -4.4466  -4.3181  -4.2763  -4.2763  -4.2162  -4.1949  -4.1948
    -4.0928  -4.0928  -4.0566  -4.0564  -4.0563  -4.0291  -4.0078  -4.0078
    -3.9019  -3.9006  -3.9005  -3.8797  -3.8629  -3.8628  -3.8504  -3.8504
    -3.8368  -3.8070  -3.8069  -3.8068  -3.8067  -3.7737  -3.7736  -3.7563
    -3.7563  -3.7412  -3.6976  -3.6975  -3.6678  -3.6523  -3.6521  -3.6481
    -3.6481  -3.5734  -3.5733  -3.5376  -3.5353  -3.5352  -3.4679  -3.4679
    -3.4523  -3.4522  -3.4211  -3.4209  -3.4200  -3.4198  -3.2666  -3.2665
    -3.2407  -3.2406  -3.2355  -3.2196  -3.2196  -3.1935  -3.1934  -3.1437
    -3.1437  -3.1274  -3.1273  -3.1071  -3.0582  -3.0581  -3.0386  -3.0336
    -3.0335  -2.9926  -2.9926  -2.9863  -2.9863  -2.9694  -2.9692  -2.9298
    -2.9298  -2.9080  -2.9079  -2.9049  -2.9048  -2.9019  -2.8243  -2.8242
    -2.8229  -2.7941  -2.7940  -2.7319  -2.7318  -2.7039  -2.7024  -2.6893
    -2.6892  -2.6840  -2.6682  -2.6543  -2.6542  -2.6448  -2.6269  -2.6011
    -2.6010  -2.6008  -2.5801  -2.5801  -2.5687  -2.5686  -2.5652  -2.5649
    -2.5574  -2.5114  -2.4785  -2.4784  -2.4631  -2.4488  -2.4423  -2.4422
    -2.4349  -2.4348  -2.4334  -2.4034  -2.4032  -2.4031  -2.3933  -2.3933
    -2.3757  -2.3482  -2.3477  -2.3475  -2.3467  -2.3466  -2.3015  -2.2697
    -2.2695  -2.2694  -2.2623  -2.2540  -2.2405  -2.2404  -2.2240  -2.2240
    -2.1900  -2.1887  -2.1886  -2.1699  -2.1682  -2.1681  -2.1352  -2.1350
    -2.0941  -2.0938  -2.0863  -2.0843  -2.0842  -2.0775  -2.0774  -2.0751
    -2.0749  -2.0677  -2.0674  -2.0509  -2.0507  -1.9234  -1.9232  -1.8910
    -1.8849  -1.8847  -1.8798  -1.8797  -1.8615  -1.8614  -1.8584  -1.8583
    -1.8567  -1.8341  -1.8253  -1.8251  -1.8221  -1.8135  -1.8133  -1.7904
    -1.7904  -1.7618  -1.7617  -1.7292  -1.7290  -1.7192  -1.7109  -1.6932
    -1.6931  -1.6903  -1.6717  -1.6595  -1.6594  -1.6519  -1.6519  -1.6250
    -1.6249  -1.6076  -1.6075  -1.5757  -1.5755  -1.5653  -1.5146  -1.5145
    -1.5020  -1.5017  -1.5011  -1.4766  -1.4741  -1.4401  -1.4394  -1.4393
    -1.4057  -1.3955  -1.3953  -1.3799  -1.3797  -1.3529  -1.3514  -1.3513
    -1.3218  -1.3189  -1.3188  -1.2561  -1.2560  -1.2426  -1.2422  -1.2262
    -1.2261  -1.2135  -1.2134  -1.1956  -1.1828  -1.1549  -1.1548  -1.1434
    -1.1156  -1.1050  -1.1048  -1.0934  -1.0934  -1.0909  -1.0854  -1.0852
    -1.0726  -1.0411  -1.0409  -1.0300  -1.0293  -1.0285  -1.0283  -1.0043
    -0.9858  -0.9853  -0.9647  -0.9643  -0.8716  -0.8583  -0.8526  -0.8526
    -0.8489  -0.8432  -0.8431  -0.8226  -0.8173  -0.8021  -0.8018  -0.7874
    -0.7873  -0.7779  -0.7576  -0.7574  -0.7559  -0.7476  -0.6759  -0.6758
    -0.6477  -0.6413  -0.6407  -0.6374  -0.6300  -0.6296  -0.6290  -0.6289
    -0.6155  -0.6153  -0.6001  -0.5748  -0.5601  -0.5400  -0.5398  -0.5285
    -0.5283  -0.5156  -0.5154  -0.5144  -0.5130  -0.5128  -0.4953  -0.4910
    -0.4909  -0.4602  -0.4587  -0.4585  -0.4466  -0.4465  -0.4272  -0.3950
    -0.3949  -0.3857  -0.3856  -0.3175  -0.3173  -0.2797  -0.2796  -0.2219
    -0.2202  -0.2200  -0.2104  -0.1915   0.0312   0.0322   0.3790   0.3790
     0.4701   0.4712   0.6643   0.6766   0.6967   0.8277   0.8280   1.2592
     1.2592   1.2779   1.5350   1.5693   1.5693   1.8457   1.8477   1.9259
     1.9260   1.9530   1.9540   2.1824   2.1825   2.2704   2.2705   2.3422
     2.4089   2.4105   2.5745   2.6715   3.1131   3.1136   3.1164   3.1167
     3.1715   3.1717   3.4636   3.4636   3.7449   3.7466   3.8470   4.1592
     4.2024   4.2034   4.4120   4.4277   4.5034   4.5038   4.5945   4.7124
     4.7132   4.8297   4.8301   5.1330   5.1426   5.2048   5.2063   5.3767
     5.3881   5.5913   5.5920   5.6175   5.6177   5.6722   5.6819   5.6836
     5.7352   6.0310   6.2364   6.2894   6.3097   6.3624   6.4243   6.4244
     6.4371   6.4381   6.5800   6.6782   6.6796   6.7997   6.8795   6.8992
     6.9106   6.9174   7.0327

          k =-0.2500-0.1443-0.1111 (136898 PWs)   bands (ev):

   -18.6451  -6.5741  -6.4608  -5.7820  -5.4903  -5.4317  -5.4316  -4.8933
    -4.8932  -4.7616  -4.7606  -4.6059  -4.5746  -4.5138  -4.4795  -4.4793
    -4.4467  -4.4465  -4.3181  -4.2764  -4.2762  -4.2160  -4.1949  -4.1948
    -4.0927  -4.0927  -4.0567  -4.0564  -4.0563  -4.0291  -4.0080  -4.0076
    -3.9018  -3.9007  -3.9005  -3.8796  -3.8630  -3.8628  -3.8505  -3.8504
    -3.8368  -3.8070  -3.8069  -3.8068  -3.8066  -3.7739  -3.7736  -3.7563
    -3.7562  -3.7411  -3.6978  -3.6974  -3.6680  -3.6523  -3.6521  -3.6482
    -3.6480  -3.5735  -3.5733  -3.5375  -3.5352  -3.5351  -3.4681  -3.4680
    -3.4522  -3.4521  -3.4209  -3.4206  -3.4204  -3.4202  -3.2667  -3.2666
    -3.2407  -3.2406  -3.2355  -3.2197  -3.2196  -3.1935  -3.1932  -3.1438
    -3.1437  -3.1274  -3.1273  -3.1070  -3.0582  -3.0578  -3.0387  -3.0338
    -3.0336  -2.9927  -2.9926  -2.9864  -2.9863  -2.9695  -2.9693  -2.9297
    -2.9296  -2.9080  -2.9079  -2.9048  -2.9047  -2.9018  -2.8243  -2.8242
    -2.8232  -2.7942  -2.7940  -2.7320  -2.7316  -2.7038  -2.7025  -2.6891
    -2.6891  -2.6841  -2.6682  -2.6544  -2.6540  -2.6449  -2.6269  -2.6012
    -2.6011  -2.6010  -2.5801  -2.5800  -2.5690  -2.5688  -2.5651  -2.5648
    -2.5575  -2.5113  -2.4786  -2.4785  -2.4630  -2.4490  -2.4423  -2.4422
    -2.4350  -2.4348  -2.4336  -2.4034  -2.4033  -2.4028  -2.3933  -2.3931
    -2.3756  -2.3484  -2.3480  -2.3474  -2.3466  -2.3464  -2.3016  -2.2699
    -2.2696  -2.2694  -2.2623  -2.2541  -2.2407  -2.2400  -2.2239  -2.2238
    -2.1900  -2.1887  -2.1886  -2.1700  -2.1682  -2.1681  -2.1352  -2.1350
    -2.0943  -2.0935  -2.0860  -2.0842  -2.0840  -2.0776  -2.0774  -2.0755
    -2.0749  -2.0676  -2.0673  -2.0510  -2.0508  -1.9234  -1.9232  -1.8909
    -1.8848  -1.8846  -1.8797  -1.8796  -1.8623  -1.8618  -1.8584  -1.8582
    -1.8562  -1.8341  -1.8252  -1.8250  -1.8222  -1.8134  -1.8129  -1.7906
    -1.7906  -1.7621  -1.7616  -1.7292  -1.7290  -1.7191  -1.7109  -1.6932
    -1.6930  -1.6900  -1.6717  -1.6596  -1.6596  -1.6521  -1.6519  -1.6248
    -1.6247  -1.6079  -1.6072  -1.5759  -1.5757  -1.5653  -1.5149  -1.5142
    -1.5019  -1.5016  -1.5015  -1.4768  -1.4738  -1.4401  -1.4394  -1.4390
    -1.4058  -1.3954  -1.3952  -1.3798  -1.3796  -1.3528  -1.3515  -1.3513
    -1.3218  -1.3189  -1.3188  -1.2563  -1.2562  -1.2426  -1.2423  -1.2263
    -1.2260  -1.2133  -1.2132  -1.1951  -1.1826  -1.1550  -1.1547  -1.1435
    -1.1153  -1.1050  -1.1048  -1.0935  -1.0935  -1.0913  -1.0856  -1.0854
    -1.0725  -1.0412  -1.0408  -1.0301  -1.0292  -1.0288  -1.0280  -1.0044
    -0.9860  -0.9856  -0.9645  -0.9642  -0.8714  -0.8583  -0.8526  -0.8526
    -0.8487  -0.8435  -0.8432  -0.8223  -0.8173  -0.8021  -0.8018  -0.7874
    -0.7873  -0.7781  -0.7575  -0.7573  -0.7560  -0.7477  -0.6759  -0.6757
    -0.6477  -0.6412  -0.6407  -0.6375  -0.6301  -0.6297  -0.6291  -0.6289
    -0.6155  -0.6153  -0.6001  -0.5747  -0.5602  -0.5400  -0.5398  -0.5285
    -0.5283  -0.5156  -0.5153  -0.5144  -0.5131  -0.5129  -0.4953  -0.4911
    -0.4909  -0.4602  -0.4586  -0.4584  -0.4466  -0.4465  -0.4273  -0.3950
    -0.3949  -0.3857  -0.3855  -0.3176  -0.3174  -0.2799  -0.2794  -0.2219
    -0.2203  -0.2200  -0.2106  -0.1915   0.0314   0.0323   0.3790   0.3790
     0.4703   0.4713   0.6640   0.6767   0.6967   0.8278   0.8280   1.2591
     1.2593   1.2780   1.5351   1.5693   1.5694   1.8458   1.8475   1.9258
     1.9260   1.9531   1.9540   2.1821   2.1826   2.2704   2.2705   2.3422
     2.4090   2.4104   2.5743   2.6716   3.1133   3.1137   3.1164   3.1167
     3.1714   3.1720   3.4633   3.4639   3.7449   3.7466   3.8470   4.1593
     4.2023   4.2032   4.4125   4.4273   4.5032   4.5042   4.5945   4.7121
     4.7134   4.8300   4.8305   5.1321   5.1439   5.2049   5.2057   5.3762
     5.3882   5.5910   5.5917   5.6175   5.6176   5.6728   5.6820   5.6837
     5.7358   6.0299   6.2341   6.2890   6.3112   6.3629   6.4242   6.4246
     6.4373   6.4383   6.5849   6.6783   6.6796   6.7962   6.8838   6.8934
     6.9107   6.9174   7.0341

          k = 0.2500 0.1443-0.1111 (136898 PWs)   bands (ev):

   -18.6451  -6.5741  -6.4608  -5.7820  -5.4903  -5.4317  -5.4316  -4.8933
    -4.8932  -4.7616  -4.7606  -4.6059  -4.5746  -4.5138  -4.4795  -4.4793
    -4.4467  -4.4465  -4.3181  -4.2764  -4.2762  -4.2160  -4.1949  -4.1948
    -4.0927  -4.0927  -4.0567  -4.0564  -4.0563  -4.0291  -4.0080  -4.0076
    -3.9018  -3.9008  -3.9005  -3.8796  -3.8630  -3.8628  -3.8505  -3.8504
    -3.8368  -3.8070  -3.8069  -3.8068  -3.8066  -3.7739  -3.7736  -3.7563
    -3.7562  -3.7411  -3.6978  -3.6974  -3.6680  -3.6523  -3.6521  -3.6482
    -3.6480  -3.5735  -3.5733  -3.5375  -3.5352  -3.5351  -3.4681  -3.4680
    -3.4522  -3.4521  -3.4209  -3.4206  -3.4204  -3.4202  -3.2667  -3.2666
    -3.2407  -3.2406  -3.2355  -3.2197  -3.2196  -3.1935  -3.1932  -3.1438
    -3.1437  -3.1274  -3.1273  -3.1070  -3.0582  -3.0578  -3.0386  -3.0338
    -3.0336  -2.9927  -2.9926  -2.9864  -2.9863  -2.9695  -2.9693  -2.9297
    -2.9296  -2.9080  -2.9079  -2.9048  -2.9047  -2.9018  -2.8243  -2.8242
    -2.8232  -2.7942  -2.7940  -2.7320  -2.7316  -2.7038  -2.7025  -2.6891
    -2.6891  -2.6841  -2.6682  -2.6544  -2.6539  -2.6449  -2.6269  -2.6012
    -2.6011  -2.6010  -2.5801  -2.5800  -2.5690  -2.5688  -2.5651  -2.5648
    -2.5575  -2.5113  -2.4786  -2.4785  -2.4630  -2.4490  -2.4423  -2.4422
    -2.4350  -2.4348  -2.4335  -2.4034  -2.4033  -2.4029  -2.3933  -2.3931
    -2.3756  -2.3484  -2.3480  -2.3474  -2.3466  -2.3464  -2.3017  -2.2699
    -2.2696  -2.2694  -2.2623  -2.2541  -2.2407  -2.2400  -2.2239  -2.2238
    -2.1900  -2.1887  -2.1885  -2.1700  -2.1682  -2.1681  -2.1352  -2.1350
    -2.0944  -2.0935  -2.0860  -2.0842  -2.0840  -2.0776  -2.0774  -2.0755
    -2.0749  -2.0676  -2.0673  -2.0510  -2.0508  -1.9234  -1.9232  -1.8909
    -1.8848  -1.8846  -1.8797  -1.8796  -1.8623  -1.8618  -1.8584  -1.8582
    -1.8562  -1.8341  -1.8252  -1.8250  -1.8222  -1.8134  -1.8129  -1.7906
    -1.7906  -1.7621  -1.7616  -1.7292  -1.7290  -1.7191  -1.7109  -1.6932
    -1.6930  -1.6900  -1.6717  -1.6596  -1.6596  -1.6521  -1.6519  -1.6248
    -1.6247  -1.6079  -1.6072  -1.5759  -1.5757  -1.5653  -1.5149  -1.5142
    -1.5019  -1.5016  -1.5015  -1.4768  -1.4738  -1.4401  -1.4394  -1.4390
    -1.4058  -1.3954  -1.3952  -1.3798  -1.3796  -1.3528  -1.3515  -1.3513
    -1.3218  -1.3189  -1.3188  -1.2563  -1.2562  -1.2426  -1.2423  -1.2263
    -1.2260  -1.2133  -1.2132  -1.1951  -1.1826  -1.1550  -1.1547  -1.1435
    -1.1153  -1.1050  -1.1048  -1.0935  -1.0935  -1.0913  -1.0856  -1.0854
    -1.0725  -1.0412  -1.0408  -1.0301  -1.0292  -1.0288  -1.0280  -1.0044
    -0.9860  -0.9856  -0.9645  -0.9642  -0.8714  -0.8583  -0.8526  -0.8526
    -0.8487  -0.8435  -0.8432  -0.8224  -0.8173  -0.8021  -0.8018  -0.7874
    -0.7873  -0.7781  -0.7575  -0.7573  -0.7560  -0.7477  -0.6759  -0.6757
    -0.6477  -0.6412  -0.6407  -0.6375  -0.6301  -0.6296  -0.6290  -0.6289
    -0.6155  -0.6153  -0.6001  -0.5747  -0.5602  -0.5400  -0.5398  -0.5285
    -0.5283  -0.5156  -0.5153  -0.5144  -0.5130  -0.5129  -0.4953  -0.4911
    -0.4909  -0.4602  -0.4586  -0.4584  -0.4466  -0.4465  -0.4273  -0.3950
    -0.3949  -0.3856  -0.3855  -0.3176  -0.3174  -0.2799  -0.2794  -0.2219
    -0.2203  -0.2200  -0.2106  -0.1915   0.0314   0.0323   0.3790   0.3790
     0.4703   0.4713   0.6640   0.6767   0.6967   0.8278   0.8280   1.2591
     1.2593   1.2780   1.5351   1.5693   1.5694   1.8458   1.8475   1.9258
     1.9260   1.9531   1.9540   2.1821   2.1826   2.2704   2.2705   2.3422
     2.4090   2.4104   2.5743   2.6716   3.1133   3.1137   3.1164   3.1167
     3.1714   3.1720   3.4633   3.4639   3.7449   3.7466   3.8470   4.1593
     4.2023   4.2032   4.4125   4.4273   4.5032   4.5042   4.5945   4.7121
     4.7134   4.8300   4.8305   5.1321   5.1439   5.2049   5.2057   5.3762
     5.3883   5.5910   5.5917   5.6175   5.6176   5.6722   5.6820   5.6836
     5.7353   6.0348   6.2373   6.2890   6.3111   6.3534   6.4242   6.4246
     6.4373   6.4383   6.5744   6.6782   6.6796   6.8049   6.8842   6.8983
     6.9098   6.9179   7.0389

          k = 0.0000-0.2887 0.1111 (136898 PWs)   bands (ev):

   -18.6451  -6.5741  -6.4608  -5.7820  -5.4903  -5.4317  -5.4316  -4.8933
    -4.8932  -4.7617  -4.7605  -4.6059  -4.5746  -4.5138  -4.4795  -4.4794
    -4.4466  -4.4465  -4.3181  -4.2763  -4.2763  -4.2160  -4.1950  -4.1948
    -4.0927  -4.0927  -4.0566  -4.0564  -4.0563  -4.0291  -4.0079  -4.0077
    -3.9018  -3.9007  -3.9005  -3.8796  -3.8630  -3.8628  -3.8505  -3.8504
    -3.8368  -3.8071  -3.8069  -3.8067  -3.8065  -3.7738  -3.7736  -3.7563
    -3.7562  -3.7411  -3.6978  -3.6974  -3.6680  -3.6523  -3.6521  -3.6481
    -3.6480  -3.5735  -3.5733  -3.5375  -3.5353  -3.5351  -3.4681  -3.4680
    -3.4522  -3.4521  -3.4210  -3.4206  -3.4203  -3.4200  -3.2667  -3.2666
    -3.2407  -3.2406  -3.2355  -3.2197  -3.2196  -3.1936  -3.1931  -3.1438
    -3.1437  -3.1274  -3.1273  -3.1069  -3.0583  -3.0577  -3.0386  -3.0337
    -3.0336  -2.9927  -2.9926  -2.9864  -2.9863  -2.9695  -2.9693  -2.9297
    -2.9296  -2.9081  -2.9078  -2.9048  -2.9047  -2.9018  -2.8244  -2.8242
    -2.8231  -2.7942  -2.7940  -2.7322  -2.7315  -2.7038  -2.7024  -2.6892
    -2.6891  -2.6841  -2.6682  -2.6542  -2.6541  -2.6449  -2.6268  -2.6011
    -2.6011  -2.6010  -2.5801  -2.5800  -2.5691  -2.5688  -2.5650  -2.5649
    -2.5575  -2.5113  -2.4786  -2.4785  -2.4629  -2.4490  -2.4423  -2.4422
    -2.4349  -2.4348  -2.4335  -2.4034  -2.4032  -2.4029  -2.3935  -2.3929
    -2.3756  -2.3484  -2.3482  -2.3475  -2.3465  -2.3463  -2.3017  -2.2699
    -2.2696  -2.2694  -2.2623  -2.2541  -2.2406  -2.2402  -2.2239  -2.2238
    -2.1900  -2.1888  -2.1886  -2.1700  -2.1682  -2.1681  -2.1352  -2.1350
    -2.0941  -2.0937  -2.0860  -2.0842  -2.0840  -2.0775  -2.0774  -2.0753
    -2.0750  -2.0676  -2.0674  -2.0510  -2.0508  -1.9234  -1.9232  -1.8909
    -1.8849  -1.8847  -1.8797  -1.8797  -1.8621  -1.8617  -1.8584  -1.8582
    -1.8562  -1.8341  -1.8252  -1.8250  -1.8221  -1.8135  -1.8128  -1.7906
    -1.7906  -1.7621  -1.7615  -1.7291  -1.7290  -1.7191  -1.7109  -1.6932
    -1.6930  -1.6900  -1.6717  -1.6596  -1.6596  -1.6521  -1.6519  -1.6248
    -1.6247  -1.6079  -1.6073  -1.5759  -1.5757  -1.5653  -1.5148  -1.5143
    -1.5020  -1.5017  -1.5014  -1.4768  -1.4738  -1.4401  -1.4394  -1.4390
    -1.4057  -1.3954  -1.3953  -1.3798  -1.3796  -1.3528  -1.3515  -1.3513
    -1.3218  -1.3189  -1.3188  -1.2563  -1.2561  -1.2425  -1.2423  -1.2266
    -1.2258  -1.2133  -1.2132  -1.1951  -1.1827  -1.1550  -1.1546  -1.1435
    -1.1153  -1.1050  -1.1047  -1.0935  -1.0935  -1.0912  -1.0855  -1.0854
    -1.0725  -1.0412  -1.0408  -1.0299  -1.0293  -1.0287  -1.0283  -1.0043
    -0.9860  -0.9856  -0.9645  -0.9642  -0.8715  -0.8583  -0.8526  -0.8526
    -0.8487  -0.8435  -0.8431  -0.8223  -0.8173  -0.8022  -0.8018  -0.7874
    -0.7873  -0.7781  -0.7575  -0.7574  -0.7561  -0.7477  -0.6759  -0.6757
    -0.6475  -0.6414  -0.6408  -0.6375  -0.6300  -0.6297  -0.6290  -0.6290
    -0.6154  -0.6152  -0.6001  -0.5747  -0.5603  -0.5400  -0.5398  -0.5285
    -0.5283  -0.5156  -0.5153  -0.5144  -0.5131  -0.5129  -0.4952  -0.4911
    -0.4909  -0.4602  -0.4587  -0.4583  -0.4466  -0.4464  -0.4273  -0.3950
    -0.3949  -0.3856  -0.3855  -0.3175  -0.3175  -0.2799  -0.2794  -0.2219
    -0.2202  -0.2200  -0.2106  -0.1915   0.0314   0.0323   0.3790   0.3790
     0.4703   0.4712   0.6639   0.6768   0.6967   0.8278   0.8280   1.2592
     1.2592   1.2780   1.5351   1.5693   1.5693   1.8458   1.8475   1.9258
     1.9260   1.9531   1.9539   2.1822   2.1825   2.2704   2.2705   2.3422
     2.4091   2.4103   2.5743   2.6716   3.1132   3.1137   3.1164   3.1167
     3.1714   3.1719   3.4636   3.4636   3.7450   3.7465   3.8470   4.1593
     4.2023   4.2032   4.4126   4.4271   4.5035   4.5040   4.5945   4.7123
     4.7132   4.8300   4.8305   5.1316   5.1448   5.2047   5.2059   5.3759
     5.3878   5.5912   5.5917   5.6172   5.6178   5.6726   5.6822   5.6846
     5.7346   6.0400   6.2330   6.2889   6.3053   6.3547   6.4240   6.4248
     6.4373   6.4383   6.5808   6.6781   6.6795   6.8124   6.8730   6.8945
     6.9110   6.9131   7.0256

          k = 0.0000 0.2887 0.1111 (136898 PWs)   bands (ev):

   -18.6451  -6.5741  -6.4608  -5.7820  -5.4903  -5.4317  -5.4316  -4.8933
    -4.8932  -4.7617  -4.7605  -4.6059  -4.5746  -4.5138  -4.4795  -4.4794
    -4.4466  -4.4465  -4.3181  -4.2763  -4.2763  -4.2160  -4.1950  -4.1948
    -4.0927  -4.0927  -4.0566  -4.0564  -4.0563  -4.0291  -4.0079  -4.0077
    -3.9018  -3.9007  -3.9005  -3.8796  -3.8630  -3.8628  -3.8505  -3.8504
    -3.8368  -3.8071  -3.8069  -3.8067  -3.8065  -3.7738  -3.7736  -3.7563
    -3.7562  -3.7411  -3.6978  -3.6974  -3.6680  -3.6523  -3.6521  -3.6481
    -3.6480  -3.5735  -3.5733  -3.5375  -3.5353  -3.5351  -3.4681  -3.4680
    -3.4522  -3.4521  -3.4210  -3.4206  -3.4203  -3.4200  -3.2667  -3.2666
    -3.2407  -3.2406  -3.2355  -3.2197  -3.2196  -3.1936  -3.1931  -3.1438
    -3.1437  -3.1274  -3.1273  -3.1069  -3.0583  -3.0577  -3.0386  -3.0337
    -3.0336  -2.9927  -2.9926  -2.9864  -2.9863  -2.9695  -2.9693  -2.9297
    -2.9296  -2.9081  -2.9078  -2.9048  -2.9047  -2.9018  -2.8244  -2.8242
    -2.8231  -2.7942  -2.7940  -2.7322  -2.7315  -2.7038  -2.7024  -2.6892
    -2.6891  -2.6841  -2.6682  -2.6542  -2.6541  -2.6449  -2.6269  -2.6011
    -2.6011  -2.6010  -2.5801  -2.5800  -2.5691  -2.5688  -2.5650  -2.5649
    -2.5574  -2.5113  -2.4786  -2.4785  -2.4629  -2.4490  -2.4423  -2.4422
    -2.4349  -2.4348  -2.4335  -2.4034  -2.4032  -2.4029  -2.3935  -2.3929
    -2.3756  -2.3484  -2.3482  -2.3475  -2.3465  -2.3463  -2.3017  -2.2699
    -2.2696  -2.2694  -2.2623  -2.2541  -2.2406  -2.2402  -2.2239  -2.2238
    -2.1900  -2.1887  -2.1885  -2.1700  -2.1682  -2.1681  -2.1352  -2.1350
    -2.0941  -2.0938  -2.0860  -2.0842  -2.0840  -2.0775  -2.0774  -2.0753
    -2.0750  -2.0676  -2.0674  -2.0510  -2.0508  -1.9234  -1.9232  -1.8909
    -1.8849  -1.8847  -1.8797  -1.8797  -1.8621  -1.8617  -1.8584  -1.8582
    -1.8562  -1.8341  -1.8252  -1.8250  -1.8221  -1.8135  -1.8128  -1.7906
    -1.7906  -1.7621  -1.7615  -1.7291  -1.7290  -1.7191  -1.7109  -1.6932
    -1.6930  -1.6900  -1.6717  -1.6596  -1.6596  -1.6521  -1.6519  -1.6248
    -1.6247  -1.6079  -1.6073  -1.5759  -1.5757  -1.5653  -1.5148  -1.5143
    -1.5020  -1.5017  -1.5014  -1.4768  -1.4738  -1.4401  -1.4394  -1.4390
    -1.4058  -1.3954  -1.3953  -1.3798  -1.3796  -1.3528  -1.3515  -1.3513
    -1.3218  -1.3189  -1.3188  -1.2563  -1.2561  -1.2425  -1.2423  -1.2266
    -1.2258  -1.2133  -1.2132  -1.1951  -1.1827  -1.1550  -1.1546  -1.1435
    -1.1153  -1.1050  -1.1048  -1.0935  -1.0935  -1.0912  -1.0855  -1.0854
    -1.0725  -1.0412  -1.0408  -1.0299  -1.0293  -1.0287  -1.0283  -1.0043
    -0.9860  -0.9856  -0.9645  -0.9642  -0.8715  -0.8583  -0.8526  -0.8526
    -0.8487  -0.8435  -0.8431  -0.8223  -0.8173  -0.8021  -0.8018  -0.7874
    -0.7873  -0.7781  -0.7575  -0.7574  -0.7561  -0.7477  -0.6758  -0.6757
    -0.6475  -0.6414  -0.6408  -0.6375  -0.6300  -0.6297  -0.6290  -0.6290
    -0.6154  -0.6152  -0.6001  -0.5747  -0.5602  -0.5400  -0.5398  -0.5285
    -0.5283  -0.5156  -0.5153  -0.5143  -0.5131  -0.5129  -0.4952  -0.4911
    -0.4909  -0.4602  -0.4587  -0.4583  -0.4466  -0.4464  -0.4273  -0.3950
    -0.3949  -0.3856  -0.3855  -0.3175  -0.3175  -0.2799  -0.2794  -0.2219
    -0.2202  -0.2200  -0.2106  -0.1915   0.0314   0.0323   0.3790   0.3790
     0.4703   0.4712   0.6639   0.6768   0.6967   0.8278   0.8280   1.2592
     1.2592   1.2780   1.5351   1.5693   1.5693   1.8458   1.8475   1.9258
     1.9260   1.9531   1.9539   2.1822   2.1825   2.2704   2.2705   2.3422
     2.4091   2.4103   2.5743   2.6716   3.1132   3.1137   3.1164   3.1167
     3.1714   3.1719   3.4636   3.4636   3.7450   3.7465   3.8470   4.1593
     4.2023   4.2032   4.4126   4.4271   4.5035   4.5040   4.5945   4.7123
     4.7132   4.8300   4.8305   5.1316   5.1448   5.2047   5.2059   5.3759
     5.3877   5.5912   5.5917   5.6172   5.6178   5.6732   5.6822   5.6848
     5.7353   6.0346   6.2286   6.2891   6.3049   6.3677   6.4240   6.4248
     6.4372   6.4383   6.5838   6.6783   6.6795   6.8015   6.8746   6.8933
     6.9111   6.9191   7.0315

     the Fermi energy is     1.4015 ev

!    total energy              =   -6604.42806452 Ry
     Harris-Foulkes estimate   =   -6604.42806452 Ry
     estimated scf accuracy    <          5.6E-09 Ry

     The total energy is the sum of the following terms:

     one-electron contribution =  -48135.33444150 Ry
     hartree contribution      =   24568.05156878 Ry
     xc contribution           =   -3204.94756390 Ry
     ewald contribution        =   20167.79948028 Ry
     smearing contrib. (-TS)   =       0.00289182 Ry

     convergence has been achieved in  24 iterations

     Writing output data file 6793375.save

     init_run     :    162.58s CPU    170.16s WALL (       1 calls)
     electrons    :   9308.79s CPU   9730.01s WALL (       1 calls)

     Called by init_run:
     wfcinit      :    128.32s CPU    135.12s WALL (       1 calls)
     potinit      :     11.42s CPU     11.82s WALL (       1 calls)

     Called by electrons:
     c_bands      :   7939.35s CPU   8276.36s WALL (      25 calls)
     sum_band     :   1051.94s CPU   1124.62s WALL (      25 calls)
     v_of_rho     :     73.28s CPU     81.48s WALL (      25 calls)
     newd         :    254.83s CPU    257.57s WALL (      25 calls)
     mix_rho      :      2.08s CPU      2.37s WALL (      25 calls)
     vdW_energy   :      6.31s CPU      6.82s WALL (      25 calls)
     vdW_ffts     :     35.22s CPU     39.40s WALL (      50 calls)
     vdW_v        :      9.97s CPU     10.56s WALL (      25 calls)

     Called by c_bands:
     init_us_2    :     11.15s CPU     11.42s WALL (     612 calls)
     cegterg      :   7853.40s CPU   8189.10s WALL (     300 calls)

     Called by *egterg:
     h_psi        :   3424.34s CPU   3717.76s WALL (    1811 calls)
     s_psi        :    435.34s CPU    437.52s WALL (    1811 calls)
     g_psi        :      6.32s CPU      6.25s WALL (    1499 calls)
     cdiaghg      :   2391.37s CPU   2398.05s WALL (    1787 calls)

     Called by h_psi:
     add_vuspsi   :    435.31s CPU    437.59s WALL (    1811 calls)

     General routines
     calbec       :    646.26s CPU    648.43s WALL (    2111 calls)
     fft          :    139.33s CPU    147.36s WALL (    1650 calls)
     ffts         :      1.08s CPU      1.23s WALL (      50 calls)
     fftw         :   2904.94s CPU   3240.05s WALL (  739406 calls)
     interpolate  :      2.72s CPU      3.19s WALL (      50 calls)
     davcio       :      0.00s CPU      0.16s WALL (      12 calls)

     Parallel routines
     fft_scatter  :   2254.39s CPU   2546.69s WALL (  741106 calls)

     PWSCF        :     2h38m CPU        2h45m WALL


   This run was terminated on:  18:45: 0   3Jul2015            

=------------------------------------------------------------------------------=
   JOB DONE.
=------------------------------------------------------------------------------=
