Setting SGE environment for SCC

     Program PWSCF v.5.1.2 starts on  3Jul2015 at 11: 3: 2 

     This program is part of the open-source Quantum ESPRESSO suite
     for quantum simulation of materials; please cite
         "P. Giannozzi et al., J. Phys.:Condens. Matter 21 395502 (2009);
          URL http://www.quantum-espresso.org", 
     in publications or presentations arising from this work. More details at
     http://www.quantum-espresso.org/quote

     Parallel version (MPI), running on    32 processors
     R & G space division:  proc/nbgrp/npool/nimage =      32
     Reading input from hollow.O1.Au535758.d.2.7.phi.0.psi.90.in
Warning: card &IONS ignored
Warning: card / ignored
Warning: card &CELL ignored
Warning: card / ignored

     Current dimensions of program PWSCF are:
     Max number of different atomic species (ntypx) = 10
     Max number of k-points (npk) =  40000
     Max angular momentum in pseudopotentials (lmaxx) =  3

     IMPORTANT: XC functional enforced from input :
     Exchange-correlation      = VDW-DF ( 1  4  4  0 1 0)
     Any further DFT definition will be discarded
     Please, verify this is what you really want


     Subspace diagonalization in iterative solution of the eigenvalue problem:
     a serial algorithm will be used


     Parallelization info
     --------------------
     sticks:   dense  smooth     PW     G-vecs:    dense   smooth      PW
     Min         445     223     58                96775    34191    4534
     Max         446     224     59                96790    34246    4540
     Sum       14269    7147   1867              3097177  1095093  145167


     Title: 
     hollow.O1.Au535758.d.2.7.phi.0.psi.90                                      


     bravais-lattice index     =            4
     lattice parameter (alat)  =      22.7436  a.u.
     unit-cell volume          =   22924.1508 (a.u.)^3
     number of atoms/cell      =           67
     number of atomic types    =            3
     number of electrons       =       712.00
     number of Kohn-Sham states=          427
     kinetic-energy cutoff     =      50.0000  Ry
     charge density cutoff     =     400.0000  Ry
     convergence threshold     =      1.0E-08
     mixing beta               =       0.7000
     number of iterations used =            8  plain     mixing
     Exchange-correlation      = VDW-DF ( 1  4  4  0 1 0)

     celldm(1)=  22.743643  celldm(2)=   0.000000  celldm(3)=   2.250000
     celldm(4)=   0.000000  celldm(5)=   0.000000  celldm(6)=   0.000000

     crystal axes: (cart. coord. in units of alat)
               a(1) = (   1.000000   0.000000   0.000000 )  
               a(2) = (  -0.500000   0.866025   0.000000 )  
               a(3) = (   0.000000   0.000000   2.250000 )  

     reciprocal axes: (cart. coord. in units 2 pi/alat)
               b(1) = (  1.000000  0.577350 -0.000000 )  
               b(2) = (  0.000000  1.154701  0.000000 )  
               b(3) = (  0.000000 -0.000000  0.444444 )  


     PseudoPot. # 1 for Au read from file:
     /home/scc/andrejb/qe/pseudo/Au.pbe-nd-van.UPF
     MD5 check sum: 458681b50f36d87ef23c61b04bba420a
     Pseudo is Ultrasoft + core correction, Zval = 11.0
     Generated by new atomic code, or converted to UPF format
     Using radial grid of  985 points,  3 beta functions with: 
                l(1) =   1
                l(2) =   2
                l(3) =   2
     Q(r) pseudized with  8 coefficients,  rinner =    1.100   1.100   1.100
                                                       1.100   1.100

     PseudoPot. # 2 for H  read from file:
     /home/scc/andrejb/qe/pseudo/H.pbe-van_ak.UPF
     MD5 check sum: 403db7282739603aa925980fa9b8608d
     Pseudo is Ultrasoft, Zval =  1.0
     Generated by new atomic code, or converted to UPF format
     Using radial grid of  615 points,  1 beta functions with: 
                l(1) =   0
     Q(r) pseudized with  8 coefficients,  rinner =    0.800

     PseudoPot. # 3 for O  read from file:
     /home/scc/andrejb/qe/pseudo/O.pbe-van_ak.UPF
     MD5 check sum: 4b8c549914a63cae506c6ff22b5af4fe
     Pseudo is Ultrasoft, Zval =  6.0
     Generated by new atomic code, or converted to UPF format
     Using radial grid of  737 points,  4 beta functions with: 
                l(1) =   0
                l(2) =   0
                l(3) =   1
                l(4) =   1
     Q(r) pseudized with  8 coefficients,  rinner =    0.800   0.800   0.800


     vdW kernel table read from file vdW_kernel_table
     MD5 check sum: 48e77a2e26edf626eeb0eaa751ad5cac

     atomic species   valence    mass     pseudopotential
        Au            11.00   196.96657     Au( 1.00)
        H              1.00     1.01000     H ( 1.00)
        O              6.00    16.00000     O ( 1.00)

     No symmetry found



   Cartesian axes

     site n.     atom                  positions (alat units)
         1           O   tau(   1) = (  -0.0208375   0.5411347   1.0450644  )
         2           H   tau(   2) = (  -0.0707709   0.4928811   1.0035168  )
         3           H   tau(   3) = (   0.0275819   0.4903739   1.0853713  )
         4           Au  tau(   4) = (   0.3540481   0.6132292   0.0000000  )
         5           Au  tau(   5) = (   0.4790062   0.3967954   0.0000000  )
         6           Au  tau(   6) = (   0.6039644   0.1803616   0.0000000  )
         7           Au  tau(   7) = (   0.7289225  -0.0360723   0.0000000  )
         8           Au  tau(   8) = (   0.1041318   0.6132292   0.0000000  )
         9           Au  tau(   9) = (   0.2290899   0.3967954   0.0000000  )
        10           Au  tau(  10) = (   0.3540481   0.1803616   0.0000000  )
        11           Au  tau(  11) = (   0.4790062  -0.0360723   0.0000000  )
        12           Au  tau(  12) = (  -0.1457845   0.6132292   0.0000000  )
        13           Au  tau(  13) = (  -0.0208264   0.3967954   0.0000000  )
        14           Au  tau(  14) = (   0.1041318   0.1803616   0.0000000  )
        15           Au  tau(  15) = (   0.2290899  -0.0360723   0.0000000  )
        16           Au  tau(  16) = (  -0.3957008   0.6132292   0.0000000  )
        17           Au  tau(  17) = (  -0.2707426   0.3967954   0.0000000  )
        18           Au  tau(  18) = (  -0.1457845   0.1803616   0.0000000  )
        19           Au  tau(  19) = (  -0.0208264  -0.0360723   0.0000000  )
        20           Au  tau(  20) = (   0.4790062   0.6853738   0.2040557  )
        21           Au  tau(  21) = (   0.6039644   0.4689400   0.2040557  )
        22           Au  tau(  22) = (   0.7289225   0.2525061   0.2040557  )
        23           Au  tau(  23) = (   0.8538806   0.0360723   0.2040557  )
        24           Au  tau(  24) = (   0.2290899   0.6853738   0.2040557  )
        25           Au  tau(  25) = (   0.3540481   0.4689400   0.2040557  )
        26           Au  tau(  26) = (   0.4790062   0.2525061   0.2040557  )
        27           Au  tau(  27) = (   0.6039644   0.0360723   0.2040557  )
        28           Au  tau(  28) = (  -0.0208264   0.6853738   0.2040557  )
        29           Au  tau(  29) = (   0.1041318   0.4689400   0.2040557  )
        30           Au  tau(  30) = (   0.2290899   0.2525061   0.2040557  )
        31           Au  tau(  31) = (   0.3540481   0.0360723   0.2040557  )
        32           Au  tau(  32) = (  -0.2707426   0.6853738   0.2040557  )
        33           Au  tau(  33) = (  -0.1457845   0.4689400   0.2040557  )
        34           Au  tau(  34) = (  -0.0208264   0.2525061   0.2040557  )
        35           Au  tau(  35) = (   0.1041318   0.0360723   0.2040557  )
        36           Au  tau(  36) = (   0.3541162   0.7576593   0.4066483  )
        37           Au  tau(  37) = (   0.4791000   0.5411421   0.4066695  )
        38           Au  tau(  38) = (   0.6040570   0.3246862   0.4066617  )
        39           Au  tau(  39) = (   0.7290270   0.1081684   0.4066529  )
        40           Au  tau(  40) = (   0.1041162   0.7576236   0.4066247  )
        41           Au  tau(  41) = (   0.2291001   0.5411063   0.4066455  )
        42           Au  tau(  42) = (   0.3540567   0.3246505   0.4066380  )
        43           Au  tau(  43) = (   0.4790276   0.1081324   0.4066292  )
        44           Au  tau(  44) = (  -0.1458201   0.7576104   0.4066224  )
        45           Au  tau(  45) = (  -0.0208365   0.5410930   0.4066438  )
        46           Au  tau(  46) = (   0.1041202   0.3246372   0.4066359  )
        47           Au  tau(  47) = (   0.2290908   0.1081193   0.4066273  )
        48           Au  tau(  48) = (  -0.3958167   0.7575791   0.4065812  )
        49           Au  tau(  49) = (  -0.2708328   0.5410617   0.4066025  )
        50           Au  tau(  50) = (  -0.1458763   0.3246061   0.4065947  )
        51           Au  tau(  51) = (  -0.0209056   0.1080882   0.4065858  )
        52           Au  tau(  52) = (   0.3541085   0.6133344   0.6129762  )
        53           Au  tau(  53) = (   0.4790780   0.3968269   0.6129968  )
        54           Au  tau(  54) = (   0.6040356   0.1803811   0.6129859  )
        55           Au  tau(  55) = (   0.7290165  -0.0361221   0.6129385  )
        56           Au  tau(  56) = (   0.1041243   0.6133091   0.6130022  )
        57           Au  tau(  57) = (   0.2290941   0.3968013   0.6130241  )
        58           Au  tau(  58) = (   0.3540515   0.1803552   0.6130121  )
        59           Au  tau(  59) = (   0.4790323  -0.0361475   0.6129659  )
        60           Au  tau(  60) = (  -0.1458030   0.6133014   0.6129980  )
        61           Au  tau(  61) = (  -0.0208339   0.3967936   0.6130188  )
        62           Au  tau(  62) = (   0.1041239   0.1803477   0.6130083  )
        63           Au  tau(  63) = (   0.2291046  -0.0361554   0.6129607  )
        64           Au  tau(  64) = (  -0.3957908   0.6132739   0.6129471  )
        65           Au  tau(  65) = (  -0.2708208   0.3967658   0.6129688  )
        66           Au  tau(  66) = (  -0.1458636   0.1803200   0.6129569  )
        67           Au  tau(  67) = (  -0.0208823  -0.0361826   0.6129110  )

     number of k points=    12  Marzari-Vanderbilt smearing, width (Ry)=  0.0200
                       cart. coord. in units 2pi/alat
        k(    1) = (   0.2500000   0.4330127   0.1111111), wk =   0.1666667
        k(    2) = (   0.2500000  -0.1443376   0.1111111), wk =   0.1666667
        k(    3) = (  -0.2500000  -0.4330127   0.1111111), wk =   0.1666667
        k(    4) = (  -0.2500000   0.4330127  -0.1111111), wk =   0.1666667
        k(    5) = (   0.2500000  -0.4330127  -0.1111111), wk =   0.1666667
        k(    6) = (   0.5000000   0.0000000   0.1111111), wk =   0.1666667
        k(    7) = (  -0.5000000   0.0000000   0.1111111), wk =   0.1666667
        k(    8) = (  -0.2500000   0.1443376   0.1111111), wk =   0.1666667
        k(    9) = (  -0.2500000  -0.1443376  -0.1111111), wk =   0.1666667
        k(   10) = (   0.2500000   0.1443376  -0.1111111), wk =   0.1666667
        k(   11) = (   0.0000000  -0.2886751   0.1111111), wk =   0.1666667
        k(   12) = (   0.0000000   0.2886751   0.1111111), wk =   0.1666667

     Dense  grid:  3097177 G-vectors     FFT dimensions: ( 150, 150, 360)

     Smooth grid:  1095093 G-vectors     FFT dimensions: ( 108, 108, 240)

     Largest allocated arrays     est. size (Mb)     dimensions
        Kohn-Sham Wavefunctions        28.01 Mb     (    4299,  427)
        NL pseudopotentials            55.23 Mb     (    4299,  842)
        Each V/rho on FFT grid          4.12 Mb     (  270000)
        Each G-vector array             0.74 Mb     (   96788)
        G-vector shells                 0.16 Mb     (   21404)
     Largest temporary arrays     est. size (Mb)     dimensions
        Auxiliary wavefunctions       112.04 Mb     (    4299, 1708)
        Each subspace H/S matrix       44.51 Mb     (    1708, 1708)
        Each <psi_i|beta_j> matrix      5.49 Mb     (     842,  427)
        Arrays for rho mixing          32.96 Mb     (  270000,    8)

     Initial potential from superposition of free atoms
     Check: negative starting charge=   -1.729892

     starting charge  711.25682, renormalised to  712.00000

     negative rho (up, down):  1.732E+00 0.000E+00


     ************************************************************************
     *
     * You are using vdW-DF for exchange-correlation in this calculation.
     * Please cite the following three references that made this development
     * possible:
     *
     *   M. Dion, H. Rydberg, E. Schroder, D. C. Langreth, and
     *   B. I. Lundqvist, Phys. Rev. Lett. 92, 246401 (2004).
     *
     *   T. Thonhauser, V. R. Cooper, S. Li, A. Puzder, P. Hyldgaard, and
     *   D. C. Langreth, Phys. Rev. B 76, 125112 (2007).
     *
     *   G. Roman-Perez and J. M. Soler, Phys. Rev. Lett. 103, 096102 (2009).
     *
     *
     * If you are using vdW-DF2, please also cite:
     *
     *   K. Lee, E. D. Murray, L. Kong, B. I. Lundqvist, and
     *   D. C. Langreth, Phys. Rev. B 82, 081101(R) (2010).
     *
     *
     * If you are calculating the stress with vdW-DF, please also cite:
     *
     *   R. Sabatini, E. Kucukbenli, B. Kolb, T. Thonhauser, and
     *   S. de Gironcoli, J. Phys.: Condens. Matter 24, 424209 (2012).
     *
     ************************************************************************

     Carrying out vdW-DF run using the following parameters:

     Nqs =      20    Nr_points =    1024   r_max =   100.000
     q_mesh =
               0.00001000     0.04494208     0.09755937     0.15916263
               0.23128650     0.31572767     0.41458969     0.53033537
               0.66584808     0.82450364     1.01025438     1.22772762
               1.48234092     1.78043706     2.12944203     2.53805004
               3.01644009     3.57652955     4.23227104     5.00000000

     Gradients computed in reciprocal space

     ************************************************************************


     Starting wfc are  582 randomized atomic wfcs

     total cpu time spent up to now is      210.3 secs

     Self-consistent Calculation

     iteration #  1     ecut=    50.00 Ry     beta=0.70
     Davidson diagonalization with overlap
     ethr =  1.00E-02,  avg # of iterations =  3.0

     Threshold (ethr) on eigenvalues was too large:
     Diagonalizing with lowered threshold

     Davidson diagonalization with overlap
     ethr =  3.54E-04,  avg # of iterations =  3.0

     negative rho (up, down):  1.728E+00 0.000E+00

     total cpu time spent up to now is     1017.5 secs

     total energy              =   -6602.76178972 Ry
     Harris-Foulkes estimate   =   -6605.04804517 Ry
     estimated scf accuracy    <       2.85881571 Ry

     iteration #  2     ecut=    50.00 Ry     beta=0.70
     Davidson diagonalization with overlap
     ethr =  4.02E-04,  avg # of iterations = 11.3

     negative rho (up, down):  1.726E+00 0.000E+00

     total cpu time spent up to now is     2433.0 secs

     total energy              =   -6596.53704104 Ry
     Harris-Foulkes estimate   =   -6610.20714338 Ry
     estimated scf accuracy    <      76.39819189 Ry

     iteration #  3     ecut=    50.00 Ry     beta=0.70
     Davidson diagonalization with overlap
     ethr =  4.02E-04,  avg # of iterations =  6.1

     negative rho (up, down):  1.737E+00 0.000E+00

     total cpu time spent up to now is     3270.8 secs

     total energy              =   -6603.11638747 Ry
     Harris-Foulkes estimate   =   -6605.03377768 Ry
     estimated scf accuracy    <       8.88783136 Ry

     iteration #  4     ecut=    50.00 Ry     beta=0.70
     Davidson diagonalization with overlap
     ethr =  4.02E-04,  avg # of iterations =  7.0

     negative rho (up, down):  1.738E+00 0.000E+00

     total cpu time spent up to now is     3792.3 secs

     total energy              =   -6603.65991599 Ry
     Harris-Foulkes estimate   =   -6604.98710753 Ry
     estimated scf accuracy    <      10.81072122 Ry

     iteration #  5     ecut=    50.00 Ry     beta=0.70
     Davidson diagonalization with overlap
     ethr =  4.02E-04,  avg # of iterations =  5.8

     negative rho (up, down):  1.748E+00 0.000E+00

     total cpu time spent up to now is     4314.6 secs

     total energy              =   -6604.27349913 Ry
     Harris-Foulkes estimate   =   -6604.67198658 Ry
     estimated scf accuracy    <       3.42600952 Ry

     iteration #  6     ecut=    50.00 Ry     beta=0.70
     Davidson diagonalization with overlap
     ethr =  4.02E-04,  avg # of iterations =  2.5

     negative rho (up, down):  1.753E+00 0.000E+00

     total cpu time spent up to now is     4721.2 secs

     total energy              =   -6604.43051233 Ry
     Harris-Foulkes estimate   =   -6604.45997625 Ry
     estimated scf accuracy    <       0.08863916 Ry

     iteration #  7     ecut=    50.00 Ry     beta=0.70
     Davidson diagonalization with overlap
     ethr =  1.24E-05,  avg # of iterations = 10.7

     negative rho (up, down):  1.755E+00 0.000E+00

     total cpu time spent up to now is     5478.8 secs

     total energy              =   -6604.43136927 Ry
     Harris-Foulkes estimate   =   -6604.44877062 Ry
     estimated scf accuracy    <       0.06582581 Ry

     iteration #  8     ecut=    50.00 Ry     beta=0.70
     Davidson diagonalization with overlap
     ethr =  9.25E-06,  avg # of iterations =  4.9

     negative rho (up, down):  1.756E+00 0.000E+00

     total cpu time spent up to now is     5816.5 secs

     total energy              =   -6604.42958291 Ry
     Harris-Foulkes estimate   =   -6604.44273184 Ry
     estimated scf accuracy    <       0.04971272 Ry

     iteration #  9     ecut=    50.00 Ry     beta=0.70
     Davidson diagonalization with overlap
     ethr =  6.98E-06,  avg # of iterations =  7.3

     negative rho (up, down):  1.756E+00 0.000E+00

     total cpu time spent up to now is     6190.6 secs

     total energy              =   -6604.42992451 Ry
     Harris-Foulkes estimate   =   -6604.43510171 Ry
     estimated scf accuracy    <       0.01932095 Ry

     iteration # 10     ecut=    50.00 Ry     beta=0.70
     Davidson diagonalization with overlap
     c_bands:  1 eigenvalues not converged
     c_bands:  1 eigenvalues not converged
     c_bands:  1 eigenvalues not converged
     c_bands:  1 eigenvalues not converged
     ethr =  2.71E-06,  avg # of iterations = 12.5

     negative rho (up, down):  1.758E+00 0.000E+00

     total cpu time spent up to now is     6646.0 secs

     total energy              =   -6604.42875634 Ry
     Harris-Foulkes estimate   =   -6604.43214041 Ry
     estimated scf accuracy    <       0.01136087 Ry

     iteration # 11     ecut=    50.00 Ry     beta=0.70
     Davidson diagonalization with overlap
     c_bands:  1 eigenvalues not converged
     c_bands:  1 eigenvalues not converged
     c_bands:  1 eigenvalues not converged
     c_bands:  1 eigenvalues not converged
     c_bands:  1 eigenvalues not converged
     ethr =  1.60E-06,  avg # of iterations = 14.1

     negative rho (up, down):  1.758E+00 0.000E+00

     total cpu time spent up to now is     7128.0 secs

     total energy              =   -6604.42876628 Ry
     Harris-Foulkes estimate   =   -6604.42973989 Ry
     estimated scf accuracy    <       0.00483769 Ry

     iteration # 12     ecut=    50.00 Ry     beta=0.70
     Davidson diagonalization with overlap
     ethr =  6.79E-07,  avg # of iterations =  1.7

     negative rho (up, down):  1.758E+00 0.000E+00

     total cpu time spent up to now is     7386.4 secs

     total energy              =   -6604.42759485 Ry
     Harris-Foulkes estimate   =   -6604.42910567 Ry
     estimated scf accuracy    <       0.00222385 Ry

     iteration # 13     ecut=    50.00 Ry     beta=0.70
     Davidson diagonalization with overlap
     c_bands:  1 eigenvalues not converged
     ethr =  3.12E-07,  avg # of iterations =  8.8

     negative rho (up, down):  1.758E+00 0.000E+00

     total cpu time spent up to now is     7789.6 secs

     total energy              =   -6604.42792453 Ry
     Harris-Foulkes estimate   =   -6604.42800216 Ry
     estimated scf accuracy    <       0.00014727 Ry

     iteration # 14     ecut=    50.00 Ry     beta=0.70
     Davidson diagonalization with overlap
     ethr =  2.07E-08,  avg # of iterations =  3.0

     negative rho (up, down):  1.758E+00 0.000E+00

     total cpu time spent up to now is     8171.9 secs

     total energy              =   -6604.42794278 Ry
     Harris-Foulkes estimate   =   -6604.42799954 Ry
     estimated scf accuracy    <       0.00019737 Ry

     iteration # 15     ecut=    50.00 Ry     beta=0.70
     Davidson diagonalization with overlap
     ethr =  2.07E-08,  avg # of iterations =  2.0

     negative rho (up, down):  1.758E+00 0.000E+00

     total cpu time spent up to now is     8474.4 secs

     total energy              =   -6604.42795005 Ry
     Harris-Foulkes estimate   =   -6604.42799267 Ry
     estimated scf accuracy    <       0.00022462 Ry

     iteration # 16     ecut=    50.00 Ry     beta=0.70
     Davidson diagonalization with overlap
     ethr =  2.07E-08,  avg # of iterations =  1.8

     negative rho (up, down):  1.758E+00 0.000E+00

     total cpu time spent up to now is     8746.3 secs

     total energy              =   -6604.42795825 Ry
     Harris-Foulkes estimate   =   -6604.42798712 Ry
     estimated scf accuracy    <       0.00022133 Ry

     iteration # 17     ecut=    50.00 Ry     beta=0.70
     Davidson diagonalization with overlap
     ethr =  2.07E-08,  avg # of iterations =  1.0

     negative rho (up, down):  1.758E+00 0.000E+00

     total cpu time spent up to now is     9003.1 secs

     total energy              =   -6604.42796918 Ry
     Harris-Foulkes estimate   =   -6604.42798243 Ry
     estimated scf accuracy    <       0.00008679 Ry

     iteration # 18     ecut=    50.00 Ry     beta=0.70
     Davidson diagonalization with overlap
     ethr =  1.22E-08,  avg # of iterations =  1.5

     negative rho (up, down):  1.758E+00 0.000E+00

     total cpu time spent up to now is     9269.9 secs

     total energy              =   -6604.42797568 Ry
     Harris-Foulkes estimate   =   -6604.42797633 Ry
     estimated scf accuracy    <       0.00000257 Ry

     iteration # 19     ecut=    50.00 Ry     beta=0.70
     Davidson diagonalization with overlap
     ethr =  3.61E-10,  avg # of iterations =  3.0

     negative rho (up, down):  1.758E+00 0.000E+00

     total cpu time spent up to now is     9622.0 secs

     total energy              =   -6604.42797611 Ry
     Harris-Foulkes estimate   =   -6604.42797657 Ry
     estimated scf accuracy    <       0.00000215 Ry

     iteration # 20     ecut=    50.00 Ry     beta=0.70
     Davidson diagonalization with overlap
     ethr =  3.01E-10,  avg # of iterations =  2.0

     negative rho (up, down):  1.758E+00 0.000E+00

     total cpu time spent up to now is     9895.9 secs

     total energy              =   -6604.42797642 Ry
     Harris-Foulkes estimate   =   -6604.42797656 Ry
     estimated scf accuracy    <       0.00000095 Ry

     iteration # 21     ecut=    50.00 Ry     beta=0.70
     Davidson diagonalization with overlap
     ethr =  1.34E-10,  avg # of iterations =  2.0

     negative rho (up, down):  1.758E+00 0.000E+00

     total cpu time spent up to now is    10166.5 secs

     total energy              =   -6604.42797655 Ry
     Harris-Foulkes estimate   =   -6604.42797658 Ry
     estimated scf accuracy    <       0.00000026 Ry

     iteration # 22     ecut=    50.00 Ry     beta=0.70
     Davidson diagonalization with overlap
     ethr =  3.60E-11,  avg # of iterations =  2.0

     negative rho (up, down):  1.758E+00 0.000E+00

     total cpu time spent up to now is    10448.2 secs

     total energy              =   -6604.42797659 Ry
     Harris-Foulkes estimate   =   -6604.42797658 Ry
     estimated scf accuracy    <       0.00000001 Ry

     iteration # 23     ecut=    50.00 Ry     beta=0.70
     Davidson diagonalization with overlap
     ethr =  1.52E-12,  avg # of iterations =  3.0

     negative rho (up, down):  1.758E+00 0.000E+00

     total cpu time spent up to now is    10858.0 secs

     total energy              =   -6604.42797660 Ry
     Harris-Foulkes estimate   =   -6604.42797660 Ry
     estimated scf accuracy    <       0.00000002 Ry

     iteration # 24     ecut=    50.00 Ry     beta=0.70
     Davidson diagonalization with overlap
     ethr =  1.52E-12,  avg # of iterations =  3.0

     negative rho (up, down):  1.758E+00 0.000E+00

     total cpu time spent up to now is    11204.6 secs

     End of self-consistent calculation

          k = 0.2500 0.4330 0.1111 (136853 PWs)   bands (ev):

   -18.6762  -6.4910  -6.3518  -5.9524  -5.9524  -5.2740  -4.9410  -4.9410
    -4.9012  -4.9012  -4.5407  -4.5407  -4.4421  -4.4420  -4.4280  -4.4061
    -4.3795  -4.2744  -4.2743  -4.2502  -4.2068  -4.2068  -4.1378  -4.1377
    -4.1305  -4.1304  -4.1097  -4.1035  -4.1035  -4.0303  -4.0302  -4.0013
    -4.0013  -3.9891  -3.9891  -3.9658  -3.9658  -3.9434  -3.9348  -3.9348
    -3.9079  -3.8558  -3.8557  -3.8079  -3.8079  -3.7479  -3.7479  -3.6939
    -3.6939  -3.6929  -3.6929  -3.6579  -3.6179  -3.6179  -3.6123  -3.6110
    -3.6108  -3.5798  -3.5796  -3.5713  -3.5091  -3.5091  -3.4995  -3.4837
    -3.4767  -3.4037  -3.4037  -3.3700  -3.3699  -3.3423  -3.3423  -3.3293
    -3.3124  -3.2518  -3.2518  -3.2346  -3.2346  -3.1823  -3.1772  -3.1772
    -3.1394  -3.1074  -3.1074  -3.0992  -3.0992  -3.0853  -3.0852  -3.0775
    -3.0774  -3.0677  -3.0271  -2.9892  -2.9892  -2.9743  -2.9743  -2.9486
    -2.9385  -2.9385  -2.9171  -2.8726  -2.8726  -2.8630  -2.8236  -2.8175
    -2.8059  -2.8059  -2.7761  -2.7761  -2.7472  -2.7092  -2.7091  -2.6986
    -2.6867  -2.6799  -2.6656  -2.6655  -2.6149  -2.6149  -2.5822  -2.5594
    -2.5594  -2.5349  -2.5349  -2.5238  -2.5237  -2.5130  -2.4897  -2.4897
    -2.4455  -2.4454  -2.4440  -2.4268  -2.4268  -2.4221  -2.4122  -2.4106
    -2.4091  -2.4089  -2.4039  -2.3905  -2.3904  -2.3804  -2.3542  -2.3541
    -2.3526  -2.3516  -2.3515  -2.3484  -2.3484  -2.3200  -2.3170  -2.3030
    -2.3030  -2.2854  -2.2853  -2.2751  -2.2751  -2.2732  -2.2732  -2.2532
    -2.2531  -2.2512  -2.2512  -2.2342  -2.2076  -2.2076  -2.1679  -2.1678
    -2.1417  -2.1417  -2.1144  -2.1144  -2.0865  -2.0864  -2.0688  -2.0648
    -2.0378  -2.0152  -2.0150  -2.0098  -2.0097  -2.0053  -1.9980  -1.9979
    -1.9722  -1.9658  -1.9553  -1.8984  -1.8945  -1.8944  -1.8914  -1.8913
    -1.8534  -1.8357  -1.8356  -1.8074  -1.8074  -1.7467  -1.7466  -1.7179
    -1.6995  -1.6994  -1.6381  -1.6381  -1.6261  -1.6261  -1.6149  -1.6149
    -1.6119  -1.6016  -1.6016  -1.5459  -1.5459  -1.5335  -1.5334  -1.5332
    -1.5133  -1.5132  -1.4777  -1.4777  -1.4604  -1.4603  -1.4602  -1.4539
    -1.4486  -1.4386  -1.4385  -1.4198  -1.4198  -1.3779  -1.3778  -1.3651
    -1.3650  -1.3450  -1.3318  -1.2879  -1.2879  -1.2621  -1.2571  -1.2570
    -1.2280  -1.1762  -1.1761  -1.1747  -1.1746  -1.1687  -1.1687  -1.1581
    -1.1395  -1.1395  -1.0995  -1.0994  -1.0685  -1.0685  -1.0636  -1.0636
    -1.0552  -1.0389  -1.0389  -1.0381  -1.0349  -1.0349  -0.9973  -0.9972
    -0.9953  -0.9953  -0.9634  -0.9634  -0.9604  -0.9364  -0.9279  -0.9278
    -0.8813  -0.8738  -0.8738  -0.8389  -0.8309  -0.8196  -0.8196  -0.8115
    -0.8114  -0.8101  -0.8100  -0.7982  -0.7981  -0.7720  -0.7720  -0.7691
    -0.7667  -0.7666  -0.7295  -0.7295  -0.7192  -0.7186  -0.7033  -0.6955
    -0.6953  -0.6836  -0.6782  -0.6278  -0.6257  -0.6165  -0.6165  -0.6152
    -0.6151  -0.6100  -0.5902  -0.5901  -0.5814  -0.5814  -0.5793  -0.5792
    -0.5399  -0.5372  -0.5371  -0.5287  -0.5287  -0.5234  -0.5217  -0.5121
    -0.5059  -0.5021  -0.5021  -0.4596  -0.4596  -0.4511  -0.4475  -0.4475
    -0.3698  -0.3697  -0.3672  -0.3672  -0.3578  -0.3578  -0.3212  -0.3083
    -0.3083  -0.2799  -0.2797  -0.2761  -0.1544  -0.1543  -0.0522   0.3631
     0.3632   0.3662   0.3662   0.4271   0.4274   0.8164   0.8165   0.8594
     0.8594   0.9667   1.0475   1.1591   1.1592   1.3803   1.3805   2.0136
     2.0137   2.1760   2.1762   2.3073   2.3077   2.4118   2.4118   2.5659
     2.8034   2.8084   2.9262   3.1521   3.1523   3.2361   3.2362   3.3361
     3.3511   3.5446   3.5492   3.6077   3.8083   3.8083   3.8714   3.8715
     4.1284   4.1360   4.1364   4.3788   4.4214   4.4215   4.4663   4.8030
     4.8031   4.8324   4.9672   5.1193   5.1393   5.1403   5.2002   5.2494
     5.7292   5.8906   5.9269   5.9347   5.9348   6.0025   6.0027   6.0093
     6.0902   6.1134   6.1377   6.1647   6.1653   6.1842   6.1869   6.2256
     6.2258   6.3229   6.4869   6.6232   6.7193   6.7458   6.8729   6.8741
     6.8810   6.8841   7.0223

          k = 0.2500-0.1443 0.1111 (136898 PWs)   bands (ev):

   -18.6762  -6.5618  -6.4910  -5.7697  -5.4780  -5.4194  -5.4193  -4.8809
    -4.8809  -4.7489  -4.7485  -4.5936  -4.5623  -4.5013  -4.4672  -4.4670
    -4.4343  -4.4343  -4.3058  -4.2639  -4.2639  -4.2038  -4.1825  -4.1824
    -4.0804  -4.0804  -4.0443  -4.0440  -4.0440  -4.0168  -3.9954  -3.9954
    -3.8895  -3.8882  -3.8882  -3.8673  -3.8505  -3.8505  -3.8381  -3.8380
    -3.8245  -3.7947  -3.7946  -3.7945  -3.7944  -3.7614  -3.7613  -3.7440
    -3.7439  -3.7289  -3.6853  -3.6852  -3.6555  -3.6400  -3.6398  -3.6358
    -3.6358  -3.5610  -3.5610  -3.5253  -3.5230  -3.5229  -3.4555  -3.4555
    -3.4400  -3.4399  -3.4087  -3.4086  -3.4077  -3.4075  -3.2543  -3.2542
    -3.2283  -3.2283  -3.2232  -3.2073  -3.2072  -3.1811  -3.1811  -3.1314
    -3.1313  -3.1150  -3.1149  -3.0947  -3.0458  -3.0458  -3.0262  -3.0213
    -3.0212  -2.9803  -2.9802  -2.9740  -2.9739  -2.9571  -2.9569  -2.9175
    -2.9175  -2.8957  -2.8956  -2.8925  -2.8924  -2.8895  -2.8119  -2.8119
    -2.8106  -2.7818  -2.7817  -2.7196  -2.7195  -2.6986  -2.6916  -2.6901
    -2.6770  -2.6769  -2.6717  -2.6419  -2.6419  -2.6325  -2.6146  -2.5888
    -2.5887  -2.5885  -2.5678  -2.5677  -2.5564  -2.5562  -2.5528  -2.5526
    -2.5451  -2.4990  -2.4661  -2.4661  -2.4507  -2.4365  -2.4300  -2.4299
    -2.4225  -2.4224  -2.4211  -2.3910  -2.3909  -2.3907  -2.3810  -2.3809
    -2.3634  -2.3359  -2.3354  -2.3350  -2.3343  -2.3343  -2.2892  -2.2574
    -2.2572  -2.2571  -2.2500  -2.2417  -2.2281  -2.2281  -2.2117  -2.2117
    -2.1777  -2.1764  -2.1763  -2.1576  -2.1558  -2.1558  -2.1229  -2.1227
    -2.0817  -2.0815  -2.0739  -2.0719  -2.0718  -2.0652  -2.0651  -2.0627
    -2.0626  -2.0554  -2.0551  -2.0385  -2.0384  -1.9111  -1.9109  -1.8787
    -1.8726  -1.8723  -1.8674  -1.8674  -1.8491  -1.8491  -1.8461  -1.8460
    -1.8443  -1.8218  -1.8131  -1.8128  -1.8097  -1.8011  -1.8010  -1.7781
    -1.7781  -1.7494  -1.7494  -1.7169  -1.7167  -1.7069  -1.6986  -1.6809
    -1.6808  -1.6779  -1.6594  -1.6472  -1.6471  -1.6396  -1.6395  -1.6127
    -1.6126  -1.5953  -1.5952  -1.5634  -1.5632  -1.5530  -1.5022  -1.5022
    -1.4897  -1.4894  -1.4888  -1.4642  -1.4617  -1.4278  -1.4270  -1.4270
    -1.3934  -1.3832  -1.3830  -1.3675  -1.3674  -1.3406  -1.3391  -1.3390
    -1.3094  -1.3066  -1.3065  -1.2438  -1.2436  -1.2302  -1.2299  -1.2138
    -1.2138  -1.2012  -1.2011  -1.1832  -1.1705  -1.1425  -1.1424  -1.1311
    -1.1033  -1.0927  -1.0925  -1.0811  -1.0811  -1.0786  -1.0731  -1.0729
    -1.0602  -1.0287  -1.0286  -1.0176  -1.0172  -1.0161  -1.0159  -0.9920
    -0.9735  -0.9730  -0.9524  -0.9520  -0.8594  -0.8459  -0.8403  -0.8403
    -0.8366  -0.8309  -0.8308  -0.8104  -0.8049  -0.7898  -0.7895  -0.7751
    -0.7750  -0.7656  -0.7454  -0.7451  -0.7436  -0.7353  -0.6793  -0.6635
    -0.6635  -0.6291  -0.6286  -0.6251  -0.6177  -0.6173  -0.6166  -0.6166
    -0.6031  -0.6031  -0.5874  -0.5624  -0.5478  -0.5276  -0.5274  -0.5161
    -0.5160  -0.5032  -0.5032  -0.5021  -0.5007  -0.5005  -0.4830  -0.4787
    -0.4785  -0.4479  -0.4463  -0.4463  -0.4342  -0.4342  -0.4149  -0.3826
    -0.3826  -0.3734  -0.3733  -0.3051  -0.3051  -0.2674  -0.2673  -0.2096
    -0.2078  -0.2078  -0.1979  -0.1792   0.0436   0.0445   0.3914   0.3914
     0.4825   0.4835   0.6768   0.6889   0.7091   0.8401   0.8403   1.2716
     1.2716   1.2902   1.5474   1.5816   1.5816   1.8582   1.8600   1.9382
     1.9383   1.9654   1.9663   2.1948   2.1948   2.2827   2.2828   2.3549
     2.4213   2.4229   2.5868   2.6839   3.1257   3.1258   3.1286   3.1290
     3.1839   3.1840   3.4759   3.4759   3.7574   3.7589   3.8598   4.1716
     4.2148   4.2157   4.4257   4.4398   4.5159   4.5160   4.6069   4.7251
     4.7253   4.8421   4.8424   5.1197   5.1470   5.2165   5.2177   5.3884
     5.3931   5.6037   5.6043   5.6299   5.6300   5.6769   5.6941   5.6946
     5.7412   6.0060   6.2265   6.3011   6.3057   6.4024   6.4365   6.4368
     6.4495   6.4504   6.5861   6.6895   6.6920   6.7283   6.8766   6.9127
     6.9205   6.9447   6.9995

          k =-0.2500-0.4330 0.1111 (136853 PWs)   bands (ev):

   -18.6762  -6.4910  -6.3518  -5.9524  -5.9524  -5.2740  -4.9410  -4.9410
    -4.9012  -4.9012  -4.5407  -4.5407  -4.4420  -4.4420  -4.4280  -4.4061
    -4.3795  -4.2744  -4.2743  -4.2502  -4.2068  -4.2068  -4.1378  -4.1377
    -4.1305  -4.1304  -4.1097  -4.1035  -4.1035  -4.0303  -4.0302  -4.0013
    -4.0013  -3.9891  -3.9891  -3.9658  -3.9658  -3.9434  -3.9348  -3.9348
    -3.9079  -3.8558  -3.8557  -3.8079  -3.8079  -3.7479  -3.7479  -3.6939
    -3.6939  -3.6929  -3.6929  -3.6579  -3.6179  -3.6179  -3.6123  -3.6110
    -3.6108  -3.5798  -3.5796  -3.5713  -3.5091  -3.5091  -3.4995  -3.4837
    -3.4767  -3.4037  -3.4037  -3.3700  -3.3699  -3.3423  -3.3423  -3.3293
    -3.3124  -3.2518  -3.2518  -3.2346  -3.2346  -3.1823  -3.1772  -3.1772
    -3.1394  -3.1074  -3.1074  -3.0992  -3.0992  -3.0853  -3.0852  -3.0775
    -3.0774  -3.0677  -3.0271  -2.9892  -2.9892  -2.9743  -2.9743  -2.9486
    -2.9385  -2.9385  -2.9171  -2.8726  -2.8726  -2.8630  -2.8236  -2.8175
    -2.8059  -2.8059  -2.7761  -2.7761  -2.7472  -2.7092  -2.7091  -2.6986
    -2.6867  -2.6799  -2.6656  -2.6655  -2.6149  -2.6149  -2.5822  -2.5594
    -2.5594  -2.5349  -2.5349  -2.5238  -2.5237  -2.5130  -2.4897  -2.4897
    -2.4455  -2.4454  -2.4440  -2.4268  -2.4268  -2.4221  -2.4122  -2.4106
    -2.4091  -2.4089  -2.4039  -2.3905  -2.3904  -2.3804  -2.3542  -2.3541
    -2.3526  -2.3516  -2.3515  -2.3484  -2.3484  -2.3200  -2.3170  -2.3030
    -2.3030  -2.2854  -2.2853  -2.2751  -2.2751  -2.2732  -2.2732  -2.2532
    -2.2531  -2.2512  -2.2512  -2.2342  -2.2076  -2.2076  -2.1679  -2.1678
    -2.1417  -2.1417  -2.1144  -2.1144  -2.0865  -2.0864  -2.0688  -2.0648
    -2.0378  -2.0152  -2.0150  -2.0098  -2.0097  -2.0053  -1.9980  -1.9979
    -1.9722  -1.9658  -1.9553  -1.8984  -1.8945  -1.8944  -1.8914  -1.8913
    -1.8534  -1.8357  -1.8356  -1.8074  -1.8074  -1.7467  -1.7466  -1.7179
    -1.6995  -1.6994  -1.6381  -1.6381  -1.6261  -1.6261  -1.6149  -1.6149
    -1.6119  -1.6016  -1.6016  -1.5459  -1.5459  -1.5335  -1.5334  -1.5332
    -1.5133  -1.5132  -1.4777  -1.4777  -1.4604  -1.4603  -1.4602  -1.4539
    -1.4486  -1.4386  -1.4385  -1.4198  -1.4198  -1.3779  -1.3778  -1.3651
    -1.3650  -1.3450  -1.3318  -1.2879  -1.2879  -1.2621  -1.2571  -1.2570
    -1.2280  -1.1762  -1.1761  -1.1747  -1.1746  -1.1687  -1.1687  -1.1581
    -1.1395  -1.1395  -1.0995  -1.0994  -1.0685  -1.0685  -1.0636  -1.0636
    -1.0552  -1.0389  -1.0389  -1.0381  -1.0349  -1.0349  -0.9973  -0.9972
    -0.9953  -0.9953  -0.9634  -0.9634  -0.9604  -0.9364  -0.9279  -0.9278
    -0.8813  -0.8738  -0.8738  -0.8389  -0.8309  -0.8196  -0.8196  -0.8115
    -0.8114  -0.8101  -0.8100  -0.7982  -0.7981  -0.7720  -0.7720  -0.7691
    -0.7667  -0.7666  -0.7295  -0.7295  -0.7192  -0.7186  -0.7033  -0.6955
    -0.6953  -0.6836  -0.6782  -0.6278  -0.6257  -0.6165  -0.6165  -0.6152
    -0.6151  -0.6100  -0.5902  -0.5901  -0.5814  -0.5814  -0.5793  -0.5792
    -0.5399  -0.5372  -0.5371  -0.5287  -0.5287  -0.5234  -0.5217  -0.5121
    -0.5059  -0.5021  -0.5021  -0.4596  -0.4596  -0.4511  -0.4475  -0.4475
    -0.3698  -0.3697  -0.3672  -0.3672  -0.3578  -0.3578  -0.3212  -0.3083
    -0.3083  -0.2799  -0.2797  -0.2761  -0.1544  -0.1543  -0.0522   0.3631
     0.3632   0.3662   0.3662   0.4271   0.4274   0.8164   0.8165   0.8594
     0.8594   0.9667   1.0475   1.1591   1.1592   1.3803   1.3805   2.0136
     2.0137   2.1760   2.1762   2.3073   2.3077   2.4118   2.4118   2.5659
     2.8034   2.8084   2.9262   3.1521   3.1523   3.2361   3.2362   3.3361
     3.3511   3.5446   3.5492   3.6077   3.8083   3.8083   3.8714   3.8715
     4.1284   4.1360   4.1364   4.3788   4.4214   4.4215   4.4663   4.8030
     4.8031   4.8324   4.9672   5.1193   5.1393   5.1403   5.2002   5.2495
     5.7268   5.8910   5.9269   5.9346   5.9348   6.0025   6.0027   6.0147
     6.0907   6.1134   6.1377   6.1647   6.1653   6.1834   6.1869   6.2256
     6.2258   6.3307   6.4786   6.5906   6.7277   6.7469   6.8737   6.8742
     6.8835   6.9066   7.0215

          k =-0.2500 0.4330-0.1111 (136853 PWs)   bands (ev):

   -18.6762  -6.4910  -6.3518  -5.9537  -5.9511  -5.2740  -4.9415  -4.9404
    -4.9022  -4.9002  -4.5413  -4.5400  -4.4422  -4.4419  -4.4278  -4.4062
    -4.3795  -4.2750  -4.2740  -4.2503  -4.2070  -4.2067  -4.1379  -4.1376
    -4.1308  -4.1301  -4.1096  -4.1049  -4.1021  -4.0309  -4.0296  -4.0020
    -4.0003  -3.9894  -3.9888  -3.9659  -3.9657  -3.9434  -3.9350  -3.9346
    -3.9080  -3.8561  -3.8555  -3.8089  -3.8069  -3.7480  -3.7479  -3.6940
    -3.6938  -3.6931  -3.6926  -3.6581  -3.6181  -3.6179  -3.6122  -3.6110
    -3.6109  -3.5803  -3.5791  -3.5712  -3.5094  -3.5089  -3.4994  -3.4836
    -3.4765  -3.4044  -3.4034  -3.3703  -3.3694  -3.3425  -3.3418  -3.3292
    -3.3126  -3.2521  -3.2519  -3.2348  -3.2340  -3.1823  -3.1774  -3.1771
    -3.1393  -3.1080  -3.1068  -3.0998  -3.0985  -3.0853  -3.0852  -3.0775
    -3.0773  -3.0678  -3.0270  -2.9899  -2.9887  -2.9745  -2.9740  -2.9487
    -2.9391  -2.9380  -2.9171  -2.8733  -2.8718  -2.8632  -2.8234  -2.8175
    -2.8065  -2.8050  -2.7765  -2.7761  -2.7473  -2.7091  -2.7088  -2.6986
    -2.6868  -2.6800  -2.6659  -2.6653  -2.6152  -2.6145  -2.5821  -2.5596
    -2.5594  -2.5352  -2.5349  -2.5240  -2.5233  -2.5130  -2.4902  -2.4893
    -2.4454  -2.4449  -2.4440  -2.4276  -2.4260  -2.4222  -2.4121  -2.4106
    -2.4094  -2.4088  -2.4038  -2.3911  -2.3895  -2.3804  -2.3544  -2.3538
    -2.3524  -2.3518  -2.3514  -2.3483  -2.3482  -2.3203  -2.3171  -2.3032
    -2.3028  -2.2858  -2.2850  -2.2751  -2.2749  -2.2736  -2.2731  -2.2540
    -2.2527  -2.2513  -2.2509  -2.2341  -2.2081  -2.2075  -2.1688  -2.1670
    -2.1425  -2.1410  -2.1143  -2.1141  -2.0867  -2.0861  -2.0688  -2.0647
    -2.0377  -2.0152  -2.0149  -2.0102  -2.0093  -2.0054  -1.9984  -1.9977
    -1.9721  -1.9653  -1.9553  -1.8985  -1.8950  -1.8943  -1.8918  -1.8913
    -1.8535  -1.8364  -1.8348  -1.8075  -1.8073  -1.7471  -1.7460  -1.7182
    -1.6995  -1.6991  -1.6385  -1.6377  -1.6262  -1.6259  -1.6154  -1.6144
    -1.6120  -1.6019  -1.6014  -1.5459  -1.5456  -1.5338  -1.5336  -1.5331
    -1.5137  -1.5126  -1.4779  -1.4777  -1.4607  -1.4604  -1.4600  -1.4536
    -1.4487  -1.4393  -1.4379  -1.4203  -1.4193  -1.3780  -1.3775  -1.3655
    -1.3645  -1.3448  -1.3318  -1.2886  -1.2873  -1.2623  -1.2573  -1.2569
    -1.2281  -1.1765  -1.1760  -1.1749  -1.1745  -1.1692  -1.1686  -1.1581
    -1.1399  -1.1389  -1.0996  -1.0991  -1.0687  -1.0684  -1.0639  -1.0633
    -1.0551  -1.0391  -1.0390  -1.0379  -1.0347  -1.0345  -0.9982  -0.9965
    -0.9956  -0.9948  -0.9636  -0.9632  -0.9600  -0.9367  -0.9282  -0.9271
    -0.8814  -0.8740  -0.8734  -0.8390  -0.8307  -0.8199  -0.8193  -0.8116
    -0.8110  -0.8105  -0.8097  -0.7984  -0.7980  -0.7723  -0.7717  -0.7692
    -0.7669  -0.7665  -0.7295  -0.7292  -0.7193  -0.7185  -0.7034  -0.6958
    -0.6952  -0.6834  -0.6781  -0.6278  -0.6255  -0.6167  -0.6163  -0.6153
    -0.6152  -0.6100  -0.5904  -0.5899  -0.5816  -0.5813  -0.5792  -0.5791
    -0.5400  -0.5374  -0.5369  -0.5292  -0.5282  -0.5235  -0.5217  -0.5119
    -0.5059  -0.5025  -0.5019  -0.4598  -0.4594  -0.4512  -0.4478  -0.4473
    -0.3700  -0.3696  -0.3673  -0.3669  -0.3579  -0.3577  -0.3212  -0.3085
    -0.3081  -0.2807  -0.2789  -0.2761  -0.1548  -0.1538  -0.0522   0.3630
     0.3634   0.3659   0.3664   0.4267   0.4276   0.8162   0.8168   0.8591
     0.8595   0.9668   1.0476   1.1579   1.1605   1.3785   1.3822   2.0135
     2.0137   2.1757   2.1767   2.3067   2.3083   2.4114   2.4121   2.5658
     2.8036   2.8085   2.9262   3.1510   3.1533   3.2355   3.2369   3.3360
     3.3511   3.5413   3.5525   3.6079   3.8079   3.8088   3.8708   3.8722
     4.1279   4.1355   4.1370   4.3794   4.4208   4.4219   4.4661   4.8021
     4.8039   4.8318   4.9671   5.1137   5.1393   5.1399   5.2040   5.2544
     5.7238   5.8936   5.9270   5.9332   5.9364   6.0022   6.0026   6.0122
     6.0894   6.1132   6.1376   6.1644   6.1659   6.1789   6.1908   6.2259
     6.2262   6.3225   6.4819   6.6171   6.7100   6.7567   6.8718   6.8746
     6.8831   6.9127   7.0082

          k = 0.2500-0.4330-0.1111 (136853 PWs)   bands (ev):

   -18.6762  -6.4910  -6.3518  -5.9537  -5.9511  -5.2740  -4.9415  -4.9404
    -4.9022  -4.9002  -4.5413  -4.5400  -4.4422  -4.4419  -4.4278  -4.4062
    -4.3795  -4.2750  -4.2740  -4.2503  -4.2070  -4.2067  -4.1379  -4.1376
    -4.1308  -4.1301  -4.1096  -4.1049  -4.1021  -4.0309  -4.0296  -4.0020
    -4.0003  -3.9894  -3.9888  -3.9659  -3.9657  -3.9434  -3.9350  -3.9346
    -3.9080  -3.8561  -3.8555  -3.8089  -3.8069  -3.7480  -3.7479  -3.6940
    -3.6938  -3.6931  -3.6926  -3.6581  -3.6181  -3.6179  -3.6122  -3.6110
    -3.6109  -3.5803  -3.5791  -3.5712  -3.5094  -3.5089  -3.4994  -3.4836
    -3.4765  -3.4044  -3.4034  -3.3703  -3.3694  -3.3425  -3.3418  -3.3292
    -3.3126  -3.2521  -3.2519  -3.2348  -3.2340  -3.1823  -3.1774  -3.1771
    -3.1393  -3.1080  -3.1068  -3.0998  -3.0985  -3.0853  -3.0852  -3.0775
    -3.0773  -3.0678  -3.0270  -2.9899  -2.9887  -2.9745  -2.9740  -2.9487
    -2.9391  -2.9380  -2.9171  -2.8733  -2.8718  -2.8632  -2.8234  -2.8175
    -2.8065  -2.8050  -2.7765  -2.7761  -2.7473  -2.7091  -2.7088  -2.6986
    -2.6868  -2.6800  -2.6659  -2.6653  -2.6152  -2.6145  -2.5821  -2.5596
    -2.5594  -2.5352  -2.5349  -2.5240  -2.5233  -2.5130  -2.4902  -2.4893
    -2.4454  -2.4449  -2.4440  -2.4276  -2.4260  -2.4222  -2.4121  -2.4106
    -2.4094  -2.4088  -2.4038  -2.3911  -2.3895  -2.3804  -2.3544  -2.3538
    -2.3524  -2.3518  -2.3514  -2.3483  -2.3482  -2.3203  -2.3171  -2.3032
    -2.3028  -2.2858  -2.2850  -2.2751  -2.2749  -2.2736  -2.2731  -2.2540
    -2.2527  -2.2513  -2.2509  -2.2341  -2.2081  -2.2075  -2.1688  -2.1670
    -2.1425  -2.1410  -2.1143  -2.1141  -2.0867  -2.0861  -2.0688  -2.0647
    -2.0377  -2.0152  -2.0149  -2.0102  -2.0093  -2.0054  -1.9984  -1.9977
    -1.9721  -1.9653  -1.9553  -1.8985  -1.8950  -1.8943  -1.8918  -1.8913
    -1.8535  -1.8364  -1.8348  -1.8075  -1.8073  -1.7471  -1.7460  -1.7182
    -1.6995  -1.6991  -1.6385  -1.6377  -1.6262  -1.6259  -1.6154  -1.6144
    -1.6120  -1.6019  -1.6014  -1.5459  -1.5456  -1.5338  -1.5336  -1.5331
    -1.5137  -1.5126  -1.4779  -1.4777  -1.4607  -1.4604  -1.4600  -1.4536
    -1.4487  -1.4393  -1.4379  -1.4203  -1.4193  -1.3780  -1.3775  -1.3655
    -1.3645  -1.3448  -1.3318  -1.2886  -1.2873  -1.2623  -1.2573  -1.2569
    -1.2281  -1.1765  -1.1760  -1.1749  -1.1745  -1.1692  -1.1686  -1.1581
    -1.1399  -1.1389  -1.0996  -1.0991  -1.0687  -1.0684  -1.0639  -1.0633
    -1.0551  -1.0391  -1.0390  -1.0379  -1.0347  -1.0345  -0.9982  -0.9965
    -0.9956  -0.9948  -0.9636  -0.9632  -0.9600  -0.9367  -0.9282  -0.9271
    -0.8814  -0.8740  -0.8734  -0.8390  -0.8307  -0.8199  -0.8193  -0.8116
    -0.8110  -0.8105  -0.8097  -0.7984  -0.7980  -0.7723  -0.7717  -0.7692
    -0.7669  -0.7665  -0.7295  -0.7292  -0.7193  -0.7185  -0.7034  -0.6958
    -0.6952  -0.6834  -0.6782  -0.6278  -0.6255  -0.6167  -0.6163  -0.6153
    -0.6152  -0.6100  -0.5904  -0.5899  -0.5816  -0.5813  -0.5792  -0.5791
    -0.5400  -0.5374  -0.5369  -0.5292  -0.5282  -0.5235  -0.5217  -0.5119
    -0.5059  -0.5025  -0.5019  -0.4598  -0.4594  -0.4512  -0.4478  -0.4473
    -0.3700  -0.3696  -0.3673  -0.3669  -0.3579  -0.3577  -0.3212  -0.3085
    -0.3081  -0.2807  -0.2789  -0.2761  -0.1548  -0.1538  -0.0522   0.3630
     0.3634   0.3659   0.3664   0.4267   0.4276   0.8162   0.8168   0.8591
     0.8595   0.9668   1.0476   1.1579   1.1605   1.3785   1.3822   2.0135
     2.0137   2.1757   2.1767   2.3067   2.3083   2.4114   2.4121   2.5658
     2.8036   2.8085   2.9262   3.1510   3.1533   3.2355   3.2369   3.3360
     3.3511   3.5413   3.5525   3.6079   3.8079   3.8088   3.8708   3.8722
     4.1279   4.1355   4.1370   4.3794   4.4208   4.4219   4.4661   4.8021
     4.8039   4.8318   4.9671   5.1137   5.1393   5.1399   5.2040   5.2545
     5.7229   5.8945   5.9270   5.9332   5.9364   6.0023   6.0026   6.0119
     6.0893   6.1132   6.1376   6.1644   6.1658   6.1790   6.1909   6.2259
     6.2262   6.3325   6.4690   6.6073   6.7254   6.7554   6.8726   6.8748
     6.8831   6.9042   7.0080

          k = 0.5000 0.0000 0.1111 (136853 PWs)   bands (ev):

   -18.6762  -6.4910  -6.3518  -5.9540  -5.9508  -5.2740  -4.9418  -4.9402
    -4.9030  -4.8994  -4.5413  -4.5399  -4.4422  -4.4419  -4.4278  -4.4061
    -4.3795  -4.2751  -4.2740  -4.2503  -4.2069  -4.2068  -4.1380  -4.1375
    -4.1310  -4.1300  -4.1096  -4.1050  -4.1020  -4.0318  -4.0286  -4.0021
    -4.0002  -3.9892  -3.9889  -3.9659  -3.9658  -3.9434  -3.9349  -3.9347
    -3.9081  -3.8560  -3.8556  -3.8089  -3.8069  -3.7480  -3.7478  -3.6940
    -3.6939  -3.6931  -3.6925  -3.6581  -3.6181  -3.6179  -3.6122  -3.6113
    -3.6107  -3.5799  -3.5794  -3.5713  -3.5093  -3.5090  -3.4994  -3.4836
    -3.4765  -3.4042  -3.4035  -3.3701  -3.3696  -3.3427  -3.3416  -3.3292
    -3.3126  -3.2523  -3.2517  -3.2348  -3.2340  -3.1822  -3.1773  -3.1772
    -3.1393  -3.1078  -3.1071  -3.0997  -3.0986  -3.0855  -3.0852  -3.0775
    -3.0771  -3.0678  -3.0270  -2.9901  -2.9885  -2.9743  -2.9742  -2.9486
    -2.9387  -2.9384  -2.9171  -2.8734  -2.8718  -2.8632  -2.8234  -2.8175
    -2.8064  -2.8051  -2.7766  -2.7760  -2.7473  -2.7092  -2.7087  -2.6986
    -2.6868  -2.6800  -2.6659  -2.6654  -2.6151  -2.6146  -2.5820  -2.5597
    -2.5594  -2.5352  -2.5348  -2.5240  -2.5233  -2.5130  -2.4901  -2.4894
    -2.4456  -2.4447  -2.4440  -2.4275  -2.4261  -2.4221  -2.4121  -2.4106
    -2.4093  -2.4089  -2.4039  -2.3910  -2.3896  -2.3805  -2.3542  -2.3539
    -2.3524  -2.3519  -2.3514  -2.3487  -2.3479  -2.3203  -2.3171  -2.3032
    -2.3028  -2.2856  -2.2851  -2.2751  -2.2750  -2.2739  -2.2727  -2.2540
    -2.2526  -2.2516  -2.2505  -2.2341  -2.2080  -2.2076  -2.1688  -2.1670
    -2.1424  -2.1411  -2.1143  -2.1141  -2.0866  -2.0862  -2.0688  -2.0647
    -2.0377  -2.0152  -2.0148  -2.0101  -2.0094  -2.0053  -1.9985  -1.9976
    -1.9722  -1.9654  -1.9553  -1.8984  -1.8949  -1.8943  -1.8918  -1.8912
    -1.8535  -1.8365  -1.8347  -1.8076  -1.8072  -1.7473  -1.7458  -1.7182
    -1.6996  -1.6991  -1.6385  -1.6377  -1.6265  -1.6257  -1.6152  -1.6146
    -1.6120  -1.6020  -1.6014  -1.5461  -1.5454  -1.5338  -1.5335  -1.5333
    -1.5137  -1.5127  -1.4778  -1.4777  -1.4607  -1.4604  -1.4600  -1.4536
    -1.4487  -1.4392  -1.4380  -1.4201  -1.4195  -1.3780  -1.3775  -1.3653
    -1.3647  -1.3449  -1.3318  -1.2886  -1.2873  -1.2623  -1.2573  -1.2569
    -1.2281  -1.1763  -1.1761  -1.1750  -1.1744  -1.1692  -1.1685  -1.1581
    -1.1400  -1.1388  -1.0999  -1.0988  -1.0686  -1.0685  -1.0639  -1.0633
    -1.0551  -1.0394  -1.0386  -1.0380  -1.0349  -1.0345  -0.9984  -0.9963
    -0.9953  -0.9951  -0.9636  -0.9633  -0.9601  -0.9367  -0.9282  -0.9271
    -0.8814  -0.8741  -0.8734  -0.8390  -0.8307  -0.8199  -0.8193  -0.8114
    -0.8112  -0.8104  -0.8098  -0.7983  -0.7982  -0.7723  -0.7717  -0.7692
    -0.7668  -0.7666  -0.7296  -0.7292  -0.7193  -0.7185  -0.7034  -0.6959
    -0.6951  -0.6835  -0.6781  -0.6277  -0.6256  -0.6166  -0.6164  -0.6154
    -0.6150  -0.6100  -0.5904  -0.5899  -0.5814  -0.5814  -0.5794  -0.5790
    -0.5400  -0.5374  -0.5369  -0.5290  -0.5285  -0.5235  -0.5217  -0.5119
    -0.5059  -0.5023  -0.5021  -0.4597  -0.4595  -0.4512  -0.4477  -0.4474
    -0.3700  -0.3695  -0.3671  -0.3671  -0.3579  -0.3577  -0.3212  -0.3084
    -0.3081  -0.2810  -0.2786  -0.2761  -0.1549  -0.1537  -0.0522   0.3632
     0.3632   0.3658   0.3665   0.4267   0.4275   0.8160   0.8169   0.8588
     0.8598   0.9668   1.0476   1.1575   1.1609   1.3777   1.3830   2.0132
     2.0140   2.1758   2.1766   2.3070   2.3081   2.4110   2.4125   2.5658
     2.8036   2.8085   2.9262   3.1501   3.1543   3.2352   3.2371   3.3360
     3.3511   3.5398   3.5540   3.6079   3.8077   3.8090   3.8712   3.8718
     4.1281   4.1359   4.1365   4.3793   4.4208   4.4219   4.4661   4.8018
     4.8042   4.8318   4.9671   5.1121   5.1392   5.1400   5.2039   5.2607
     5.7083   5.9157   5.9269   5.9332   5.9363   5.9935   6.0024   6.0028
     6.0870   6.1133   6.1377   6.1645   6.1658   6.1781   6.1917   6.2260
     6.2261   6.2986   6.5432   6.6207   6.7078   6.7544   6.8634   6.8744
     6.8787   6.8833   7.0373

          k =-0.5000 0.0000 0.1111 (136853 PWs)   bands (ev):

   -18.6762  -6.4910  -6.3518  -5.9540  -5.9508  -5.2740  -4.9418  -4.9402
    -4.9030  -4.8994  -4.5413  -4.5399  -4.4422  -4.4419  -4.4278  -4.4061
    -4.3795  -4.2751  -4.2740  -4.2503  -4.2069  -4.2068  -4.1380  -4.1375
    -4.1310  -4.1300  -4.1096  -4.1050  -4.1020  -4.0318  -4.0286  -4.0021
    -4.0002  -3.9892  -3.9889  -3.9659  -3.9658  -3.9434  -3.9349  -3.9347
    -3.9081  -3.8560  -3.8556  -3.8089  -3.8069  -3.7480  -3.7478  -3.6940
    -3.6939  -3.6931  -3.6925  -3.6581  -3.6181  -3.6179  -3.6122  -3.6113
    -3.6107  -3.5799  -3.5794  -3.5713  -3.5093  -3.5090  -3.4994  -3.4836
    -3.4765  -3.4042  -3.4035  -3.3701  -3.3696  -3.3427  -3.3416  -3.3292
    -3.3126  -3.2523  -3.2517  -3.2348  -3.2340  -3.1822  -3.1773  -3.1772
    -3.1393  -3.1078  -3.1071  -3.0997  -3.0986  -3.0855  -3.0852  -3.0775
    -3.0771  -3.0678  -3.0270  -2.9901  -2.9885  -2.9743  -2.9742  -2.9486
    -2.9387  -2.9384  -2.9171  -2.8734  -2.8718  -2.8632  -2.8234  -2.8175
    -2.8064  -2.8051  -2.7766  -2.7760  -2.7473  -2.7092  -2.7087  -2.6986
    -2.6868  -2.6800  -2.6659  -2.6654  -2.6151  -2.6146  -2.5820  -2.5597
    -2.5594  -2.5352  -2.5348  -2.5240  -2.5233  -2.5130  -2.4901  -2.4894
    -2.4456  -2.4447  -2.4440  -2.4275  -2.4261  -2.4221  -2.4121  -2.4106
    -2.4093  -2.4089  -2.4039  -2.3910  -2.3896  -2.3805  -2.3542  -2.3539
    -2.3524  -2.3519  -2.3514  -2.3487  -2.3479  -2.3203  -2.3171  -2.3032
    -2.3028  -2.2857  -2.2851  -2.2751  -2.2750  -2.2739  -2.2727  -2.2540
    -2.2526  -2.2516  -2.2505  -2.2341  -2.2080  -2.2076  -2.1688  -2.1670
    -2.1424  -2.1411  -2.1143  -2.1141  -2.0866  -2.0862  -2.0688  -2.0647
    -2.0377  -2.0152  -2.0148  -2.0101  -2.0094  -2.0053  -1.9985  -1.9976
    -1.9722  -1.9654  -1.9553  -1.8984  -1.8949  -1.8943  -1.8918  -1.8912
    -1.8535  -1.8365  -1.8347  -1.8076  -1.8072  -1.7473  -1.7458  -1.7182
    -1.6996  -1.6991  -1.6385  -1.6377  -1.6265  -1.6257  -1.6152  -1.6146
    -1.6120  -1.6020  -1.6014  -1.5461  -1.5454  -1.5338  -1.5335  -1.5333
    -1.5137  -1.5127  -1.4778  -1.4777  -1.4607  -1.4604  -1.4600  -1.4536
    -1.4487  -1.4392  -1.4380  -1.4201  -1.4195  -1.3780  -1.3775  -1.3653
    -1.3647  -1.3449  -1.3318  -1.2886  -1.2873  -1.2623  -1.2573  -1.2569
    -1.2281  -1.1763  -1.1761  -1.1750  -1.1744  -1.1692  -1.1685  -1.1581
    -1.1400  -1.1388  -1.0999  -1.0988  -1.0686  -1.0685  -1.0639  -1.0633
    -1.0551  -1.0394  -1.0386  -1.0380  -1.0349  -1.0345  -0.9984  -0.9963
    -0.9953  -0.9951  -0.9636  -0.9633  -0.9601  -0.9367  -0.9282  -0.9271
    -0.8814  -0.8741  -0.8734  -0.8390  -0.8307  -0.8199  -0.8193  -0.8114
    -0.8112  -0.8104  -0.8098  -0.7983  -0.7982  -0.7723  -0.7717  -0.7692
    -0.7668  -0.7666  -0.7296  -0.7292  -0.7193  -0.7185  -0.7034  -0.6959
    -0.6951  -0.6835  -0.6781  -0.6277  -0.6256  -0.6166  -0.6164  -0.6154
    -0.6150  -0.6100  -0.5904  -0.5899  -0.5814  -0.5814  -0.5794  -0.5790
    -0.5400  -0.5374  -0.5369  -0.5290  -0.5285  -0.5235  -0.5217  -0.5119
    -0.5059  -0.5023  -0.5021  -0.4597  -0.4595  -0.4512  -0.4477  -0.4474
    -0.3700  -0.3695  -0.3671  -0.3671  -0.3579  -0.3577  -0.3212  -0.3084
    -0.3081  -0.2810  -0.2786  -0.2761  -0.1549  -0.1537  -0.0522   0.3632
     0.3632   0.3658   0.3665   0.4267   0.4275   0.8160   0.8169   0.8588
     0.8598   0.9668   1.0476   1.1575   1.1609   1.3777   1.3830   2.0132
     2.0140   2.1758   2.1766   2.3070   2.3081   2.4110   2.4125   2.5658
     2.8036   2.8085   2.9262   3.1501   3.1543   3.2352   3.2371   3.3360
     3.3511   3.5398   3.5540   3.6079   3.8077   3.8090   3.8712   3.8718
     4.1281   4.1359   4.1365   4.3793   4.4208   4.4219   4.4661   4.8018
     4.8042   4.8318   4.9671   5.1122   5.1392   5.1400   5.2039   5.2608
     5.7056   5.9156   5.9270   5.9332   5.9363   5.9996   6.0025   6.0029
     6.0871   6.1133   6.1377   6.1645   6.1658   6.1776   6.1916   6.2260
     6.2261   6.3086   6.5399   6.5657   6.7306   6.7550   6.8721   6.8754
     6.8831   6.8950   7.0367

          k =-0.2500 0.1443 0.1111 (136898 PWs)   bands (ev):

   -18.6762  -6.5618  -6.4910  -5.7697  -5.4780  -5.4194  -5.4193  -4.8809
    -4.8809  -4.7489  -4.7485  -4.5936  -4.5623  -4.5013  -4.4672  -4.4670
    -4.4343  -4.4343  -4.3058  -4.2639  -4.2639  -4.2038  -4.1825  -4.1824
    -4.0804  -4.0804  -4.0443  -4.0440  -4.0440  -4.0168  -3.9954  -3.9954
    -3.8895  -3.8882  -3.8882  -3.8673  -3.8505  -3.8505  -3.8381  -3.8380
    -3.8245  -3.7947  -3.7946  -3.7945  -3.7944  -3.7614  -3.7613  -3.7440
    -3.7439  -3.7289  -3.6853  -3.6852  -3.6555  -3.6400  -3.6398  -3.6358
    -3.6358  -3.5610  -3.5610  -3.5253  -3.5230  -3.5229  -3.4555  -3.4555
    -3.4400  -3.4399  -3.4087  -3.4086  -3.4077  -3.4075  -3.2543  -3.2542
    -3.2283  -3.2283  -3.2232  -3.2073  -3.2072  -3.1811  -3.1811  -3.1314
    -3.1313  -3.1150  -3.1149  -3.0947  -3.0458  -3.0458  -3.0263  -3.0213
    -3.0212  -2.9803  -2.9802  -2.9740  -2.9739  -2.9571  -2.9569  -2.9175
    -2.9175  -2.8957  -2.8956  -2.8925  -2.8924  -2.8895  -2.8119  -2.8119
    -2.8106  -2.7818  -2.7817  -2.7196  -2.7195  -2.6986  -2.6916  -2.6901
    -2.6770  -2.6769  -2.6717  -2.6419  -2.6419  -2.6325  -2.6146  -2.5888
    -2.5887  -2.5885  -2.5678  -2.5677  -2.5564  -2.5562  -2.5528  -2.5526
    -2.5451  -2.4990  -2.4661  -2.4661  -2.4507  -2.4365  -2.4300  -2.4299
    -2.4225  -2.4224  -2.4211  -2.3910  -2.3909  -2.3907  -2.3810  -2.3809
    -2.3634  -2.3359  -2.3354  -2.3350  -2.3343  -2.3343  -2.2892  -2.2574
    -2.2572  -2.2571  -2.2500  -2.2417  -2.2281  -2.2281  -2.2117  -2.2117
    -2.1777  -2.1764  -2.1763  -2.1576  -2.1558  -2.1558  -2.1229  -2.1227
    -2.0817  -2.0815  -2.0739  -2.0719  -2.0718  -2.0652  -2.0650  -2.0627
    -2.0626  -2.0554  -2.0551  -2.0385  -2.0384  -1.9111  -1.9109  -1.8787
    -1.8726  -1.8723  -1.8674  -1.8674  -1.8491  -1.8491  -1.8461  -1.8460
    -1.8443  -1.8218  -1.8131  -1.8128  -1.8097  -1.8011  -1.8010  -1.7781
    -1.7781  -1.7494  -1.7494  -1.7169  -1.7167  -1.7069  -1.6986  -1.6809
    -1.6808  -1.6779  -1.6594  -1.6472  -1.6471  -1.6396  -1.6395  -1.6127
    -1.6126  -1.5953  -1.5952  -1.5634  -1.5632  -1.5529  -1.5022  -1.5022
    -1.4897  -1.4894  -1.4888  -1.4642  -1.4617  -1.4278  -1.4270  -1.4270
    -1.3934  -1.3832  -1.3830  -1.3675  -1.3674  -1.3406  -1.3391  -1.3390
    -1.3094  -1.3066  -1.3065  -1.2438  -1.2436  -1.2302  -1.2299  -1.2138
    -1.2138  -1.2012  -1.2011  -1.1832  -1.1705  -1.1425  -1.1424  -1.1311
    -1.1033  -1.0927  -1.0925  -1.0811  -1.0810  -1.0786  -1.0731  -1.0729
    -1.0602  -1.0287  -1.0286  -1.0176  -1.0172  -1.0161  -1.0159  -0.9920
    -0.9735  -0.9730  -0.9524  -0.9520  -0.8594  -0.8459  -0.8403  -0.8403
    -0.8366  -0.8309  -0.8308  -0.8103  -0.8050  -0.7898  -0.7895  -0.7751
    -0.7750  -0.7656  -0.7454  -0.7451  -0.7436  -0.7353  -0.6793  -0.6635
    -0.6635  -0.6291  -0.6286  -0.6251  -0.6177  -0.6173  -0.6166  -0.6166
    -0.6031  -0.6031  -0.5874  -0.5624  -0.5478  -0.5276  -0.5274  -0.5161
    -0.5160  -0.5032  -0.5031  -0.5021  -0.5007  -0.5005  -0.4830  -0.4786
    -0.4785  -0.4479  -0.4463  -0.4463  -0.4342  -0.4342  -0.4149  -0.3826
    -0.3826  -0.3734  -0.3733  -0.3051  -0.3051  -0.2674  -0.2673  -0.2096
    -0.2078  -0.2078  -0.1979  -0.1792   0.0436   0.0445   0.3914   0.3914
     0.4825   0.4835   0.6768   0.6889   0.7091   0.8401   0.8403   1.2716
     1.2716   1.2902   1.5474   1.5816   1.5816   1.8582   1.8600   1.9383
     1.9383   1.9654   1.9663   2.1948   2.1948   2.2827   2.2828   2.3549
     2.4213   2.4229   2.5868   2.6839   3.1257   3.1258   3.1286   3.1290
     3.1839   3.1840   3.4759   3.4759   3.7574   3.7589   3.8598   4.1716
     4.2148   4.2157   4.4257   4.4398   4.5159   4.5160   4.6069   4.7251
     4.7253   4.8421   4.8424   5.1198   5.1470   5.2165   5.2177   5.3884
     5.3931   5.6037   5.6043   5.6299   5.6300   5.6744   5.6941   5.6946
     5.7410   6.0128   6.2385   6.2943   6.3020   6.4007   6.4366   6.4368
     6.4495   6.4504   6.5525   6.6903   6.6920   6.7653   6.8705   6.9133
     6.9201   6.9391   7.0072

          k =-0.2500-0.1443-0.1111 (136898 PWs)   bands (ev):

   -18.6762  -6.5618  -6.4910  -5.7697  -5.4780  -5.4193  -5.4193  -4.8809
    -4.8808  -4.7493  -4.7482  -4.5935  -4.5623  -4.5015  -4.4672  -4.4671
    -4.4344  -4.4341  -4.3057  -4.2641  -4.2638  -4.2037  -4.1826  -4.1825
    -4.0804  -4.0803  -4.0443  -4.0440  -4.0440  -4.0167  -3.9956  -3.9952
    -3.8895  -3.8884  -3.8881  -3.8672  -3.8507  -3.8504  -3.8381  -3.8381
    -3.8244  -3.7947  -3.7945  -3.7944  -3.7943  -3.7615  -3.7613  -3.7439
    -3.7439  -3.7288  -3.6855  -3.6851  -3.6557  -3.6399  -3.6398  -3.6358
    -3.6356  -3.5611  -3.5610  -3.5252  -3.5229  -3.5227  -3.4558  -3.4556
    -3.4398  -3.4398  -3.4086  -3.4083  -3.4080  -3.4078  -3.2543  -3.2543
    -3.2284  -3.2283  -3.2231  -3.2073  -3.2072  -3.1812  -3.1809  -3.1314
    -3.1314  -3.1151  -3.1149  -3.0946  -3.0459  -3.0455  -3.0263  -3.0214
    -3.0213  -2.9804  -2.9803  -2.9741  -2.9740  -2.9571  -2.9570  -2.9173
    -2.9173  -2.8957  -2.8955  -2.8925  -2.8924  -2.8895  -2.8120  -2.8119
    -2.8108  -2.7818  -2.7817  -2.7196  -2.7193  -2.6986  -2.6915  -2.6901
    -2.6768  -2.6767  -2.6718  -2.6420  -2.6416  -2.6325  -2.6145  -2.5889
    -2.5888  -2.5887  -2.5677  -2.5677  -2.5567  -2.5565  -2.5527  -2.5526
    -2.5451  -2.4990  -2.4662  -2.4661  -2.4506  -2.4367  -2.4299  -2.4299
    -2.4226  -2.4225  -2.4212  -2.3910  -2.3909  -2.3905  -2.3810  -2.3807
    -2.3633  -2.3361  -2.3357  -2.3350  -2.3342  -2.3341  -2.2893  -2.2576
    -2.2572  -2.2571  -2.2499  -2.2417  -2.2283  -2.2277  -2.2115  -2.2115
    -2.1777  -2.1763  -2.1762  -2.1577  -2.1559  -2.1558  -2.1228  -2.1227
    -2.0820  -2.0812  -2.0737  -2.0719  -2.0717  -2.0652  -2.0651  -2.0632
    -2.0625  -2.0552  -2.0551  -2.0386  -2.0386  -1.9110  -1.9109  -1.8786
    -1.8725  -1.8724  -1.8673  -1.8673  -1.8499  -1.8495  -1.8460  -1.8459
    -1.8438  -1.8218  -1.8128  -1.8127  -1.8099  -1.8011  -1.8006  -1.7783
    -1.7782  -1.7498  -1.7492  -1.7168  -1.7167  -1.7067  -1.6986  -1.6809
    -1.6807  -1.6777  -1.6594  -1.6473  -1.6473  -1.6398  -1.6396  -1.6125
    -1.6124  -1.5956  -1.5949  -1.5636  -1.5634  -1.5530  -1.5026  -1.5019
    -1.4895  -1.4894  -1.4891  -1.4645  -1.4615  -1.4278  -1.4270  -1.4267
    -1.3935  -1.3830  -1.3830  -1.3674  -1.3673  -1.3405  -1.3392  -1.3390
    -1.3095  -1.3065  -1.3065  -1.2439  -1.2439  -1.2302  -1.2300  -1.2140
    -1.2137  -1.2009  -1.2009  -1.1828  -1.1703  -1.1426  -1.1424  -1.1312
    -1.1030  -1.0926  -1.0925  -1.0812  -1.0812  -1.0789  -1.0732  -1.0731
    -1.0601  -1.0288  -1.0285  -1.0175  -1.0169  -1.0166  -1.0158  -0.9920
    -0.9736  -0.9734  -0.9521  -0.9520  -0.8592  -0.8460  -0.8403  -0.8403
    -0.8363  -0.8312  -0.8309  -0.8101  -0.8050  -0.7898  -0.7896  -0.7751
    -0.7750  -0.7658  -0.7453  -0.7450  -0.7438  -0.7354  -0.6793  -0.6635
    -0.6634  -0.6289  -0.6287  -0.6251  -0.6176  -0.6175  -0.6167  -0.6166
    -0.6032  -0.6029  -0.5875  -0.5623  -0.5479  -0.5276  -0.5275  -0.5161
    -0.5160  -0.5032  -0.5030  -0.5020  -0.5007  -0.5006  -0.4829  -0.4788
    -0.4786  -0.4479  -0.4462  -0.4461  -0.4342  -0.4341  -0.4149  -0.3826
    -0.3825  -0.3733  -0.3732  -0.3052  -0.3051  -0.2676  -0.2671  -0.2096
    -0.2080  -0.2077  -0.1982  -0.1792   0.0440   0.0443   0.3914   0.3914
     0.4829   0.4833   0.6763   0.6892   0.7091   0.8402   0.8402   1.2714
     1.2717   1.2904   1.5475   1.5816   1.5817   1.8588   1.8593   1.9382
     1.9383   1.9657   1.9660   2.1945   2.1949   2.2827   2.2828   2.3549
     2.4218   2.4223   2.5866   2.6839   3.1257   3.1259   3.1288   3.1289
     3.1837   3.1842   3.4757   3.4762   3.7579   3.7584   3.8598   4.1716
     4.2149   4.2153   4.4287   4.4372   4.5157   4.5163   4.6069   4.7248
     4.7255   4.8425   4.8427   5.1189   5.1477   5.2162   5.2174   5.3852
     5.3947   5.6036   5.6038   5.6299   5.6300   5.6780   5.6939   5.6950
     5.7432   6.0067   6.2288   6.3009   6.3024   6.4009   6.4363   6.4370
     6.4500   6.4503   6.5858   6.6901   6.6915   6.7327   6.8754   6.9113
     6.9212   6.9379   7.0058

          k = 0.2500 0.1443-0.1111 (136898 PWs)   bands (ev):

   -18.6762  -6.5618  -6.4910  -5.7697  -5.4780  -5.4193  -5.4193  -4.8809
    -4.8808  -4.7493  -4.7482  -4.5935  -4.5623  -4.5015  -4.4672  -4.4671
    -4.4344  -4.4341  -4.3057  -4.2641  -4.2638  -4.2037  -4.1826  -4.1825
    -4.0804  -4.0803  -4.0443  -4.0440  -4.0440  -4.0168  -3.9956  -3.9952
    -3.8895  -3.8884  -3.8881  -3.8672  -3.8507  -3.8504  -3.8381  -3.8381
    -3.8244  -3.7947  -3.7945  -3.7944  -3.7943  -3.7615  -3.7613  -3.7439
    -3.7439  -3.7288  -3.6855  -3.6851  -3.6557  -3.6399  -3.6398  -3.6358
    -3.6356  -3.5611  -3.5610  -3.5252  -3.5229  -3.5227  -3.4558  -3.4556
    -3.4399  -3.4398  -3.4086  -3.4083  -3.4080  -3.4078  -3.2543  -3.2543
    -3.2284  -3.2283  -3.2231  -3.2073  -3.2072  -3.1812  -3.1809  -3.1314
    -3.1314  -3.1151  -3.1149  -3.0946  -3.0459  -3.0455  -3.0263  -3.0214
    -3.0213  -2.9804  -2.9803  -2.9741  -2.9740  -2.9571  -2.9570  -2.9173
    -2.9173  -2.8957  -2.8955  -2.8925  -2.8924  -2.8895  -2.8120  -2.8119
    -2.8108  -2.7818  -2.7817  -2.7196  -2.7193  -2.6986  -2.6914  -2.6902
    -2.6768  -2.6767  -2.6718  -2.6420  -2.6416  -2.6325  -2.6145  -2.5889
    -2.5888  -2.5887  -2.5677  -2.5677  -2.5567  -2.5565  -2.5527  -2.5526
    -2.5451  -2.4990  -2.4662  -2.4661  -2.4506  -2.4367  -2.4299  -2.4299
    -2.4226  -2.4225  -2.4212  -2.3910  -2.3909  -2.3905  -2.3810  -2.3807
    -2.3633  -2.3361  -2.3357  -2.3350  -2.3342  -2.3341  -2.2893  -2.2576
    -2.2572  -2.2571  -2.2499  -2.2417  -2.2283  -2.2277  -2.2115  -2.2115
    -2.1777  -2.1763  -2.1762  -2.1577  -2.1559  -2.1558  -2.1228  -2.1227
    -2.0820  -2.0812  -2.0737  -2.0719  -2.0717  -2.0652  -2.0651  -2.0632
    -2.0625  -2.0552  -2.0551  -2.0386  -2.0386  -1.9110  -1.9109  -1.8786
    -1.8725  -1.8724  -1.8673  -1.8673  -1.8499  -1.8495  -1.8460  -1.8459
    -1.8438  -1.8218  -1.8128  -1.8127  -1.8099  -1.8011  -1.8006  -1.7783
    -1.7782  -1.7498  -1.7492  -1.7168  -1.7167  -1.7067  -1.6986  -1.6809
    -1.6807  -1.6777  -1.6594  -1.6473  -1.6473  -1.6398  -1.6396  -1.6125
    -1.6124  -1.5956  -1.5949  -1.5636  -1.5634  -1.5530  -1.5026  -1.5019
    -1.4895  -1.4894  -1.4891  -1.4645  -1.4615  -1.4278  -1.4270  -1.4267
    -1.3935  -1.3830  -1.3830  -1.3674  -1.3673  -1.3405  -1.3392  -1.3390
    -1.3095  -1.3065  -1.3065  -1.2439  -1.2439  -1.2302  -1.2300  -1.2140
    -1.2137  -1.2009  -1.2009  -1.1828  -1.1703  -1.1426  -1.1423  -1.1312
    -1.1030  -1.0926  -1.0925  -1.0812  -1.0812  -1.0789  -1.0732  -1.0731
    -1.0601  -1.0288  -1.0285  -1.0175  -1.0169  -1.0166  -1.0158  -0.9920
    -0.9736  -0.9734  -0.9521  -0.9520  -0.8592  -0.8459  -0.8403  -0.8403
    -0.8363  -0.8312  -0.8309  -0.8101  -0.8049  -0.7898  -0.7895  -0.7751
    -0.7750  -0.7658  -0.7453  -0.7450  -0.7438  -0.7354  -0.6793  -0.6635
    -0.6634  -0.6289  -0.6287  -0.6251  -0.6176  -0.6175  -0.6167  -0.6166
    -0.6032  -0.6029  -0.5875  -0.5623  -0.5479  -0.5276  -0.5275  -0.5161
    -0.5160  -0.5032  -0.5030  -0.5020  -0.5007  -0.5006  -0.4829  -0.4788
    -0.4786  -0.4479  -0.4462  -0.4461  -0.4342  -0.4341  -0.4149  -0.3826
    -0.3826  -0.3733  -0.3732  -0.3052  -0.3051  -0.2676  -0.2671  -0.2096
    -0.2080  -0.2077  -0.1982  -0.1792   0.0440   0.0443   0.3914   0.3914
     0.4829   0.4833   0.6763   0.6892   0.7091   0.8402   0.8402   1.2714
     1.2717   1.2904   1.5475   1.5816   1.5817   1.8588   1.8593   1.9382
     1.9383   1.9657   1.9660   2.1945   2.1949   2.2827   2.2828   2.3549
     2.4218   2.4223   2.5866   2.6840   3.1257   3.1259   3.1288   3.1289
     3.1837   3.1842   3.4757   3.4762   3.7579   3.7584   3.8598   4.1716
     4.2149   4.2153   4.4287   4.4372   4.5157   4.5163   4.6069   4.7248
     4.7255   4.8425   4.8427   5.1189   5.1477   5.2162   5.2174   5.3852
     5.3949   5.6036   5.6038   5.6299   5.6300   5.6750   5.6939   5.6950
     5.7426   6.0178   6.2397   6.2991   6.3017   6.3829   6.4363   6.4370
     6.4500   6.4504   6.5456   6.6909   6.6916   6.7737   6.8769   6.9140
     6.9210   6.9344   7.0150

          k = 0.0000-0.2887 0.1111 (136898 PWs)   bands (ev):

   -18.6762  -6.5618  -6.4910  -5.7697  -5.4780  -5.4193  -5.4193  -4.8809
    -4.8808  -4.7493  -4.7482  -4.5936  -4.5623  -4.5015  -4.4672  -4.4670
    -4.4343  -4.4342  -4.3057  -4.2640  -4.2639  -4.2037  -4.1826  -4.1825
    -4.0804  -4.0803  -4.0443  -4.0441  -4.0440  -4.0168  -3.9955  -3.9953
    -3.8895  -3.8883  -3.8882  -3.8673  -3.8507  -3.8504  -3.8381  -3.8381
    -3.8245  -3.7948  -3.7946  -3.7944  -3.7941  -3.7615  -3.7613  -3.7439
    -3.7439  -3.7287  -3.6855  -3.6851  -3.6557  -3.6399  -3.6398  -3.6358
    -3.6357  -3.5611  -3.5610  -3.5252  -3.5229  -3.5227  -3.4558  -3.4556
    -3.4399  -3.4398  -3.4087  -3.4083  -3.4080  -3.4077  -3.2544  -3.2543
    -3.2284  -3.2283  -3.2231  -3.2074  -3.2073  -3.1813  -3.1808  -3.1314
    -3.1314  -3.1151  -3.1149  -3.0946  -3.0460  -3.0454  -3.0263  -3.0214
    -3.0213  -2.9804  -2.9803  -2.9740  -2.9740  -2.9571  -2.9570  -2.9174
    -2.9173  -2.8958  -2.8954  -2.8925  -2.8923  -2.8895  -2.8120  -2.8118
    -2.8108  -2.7818  -2.7817  -2.7198  -2.7192  -2.6986  -2.6914  -2.6901
    -2.6768  -2.6767  -2.6718  -2.6419  -2.6417  -2.6325  -2.6145  -2.5888
    -2.5888  -2.5887  -2.5677  -2.5677  -2.5567  -2.5565  -2.5527  -2.5525
    -2.5451  -2.4990  -2.4662  -2.4661  -2.4506  -2.4367  -2.4300  -2.4299
    -2.4226  -2.4225  -2.4212  -2.3910  -2.3909  -2.3906  -2.3811  -2.3806
    -2.3633  -2.3361  -2.3359  -2.3351  -2.3342  -2.3339  -2.2893  -2.2576
    -2.2572  -2.2571  -2.2500  -2.2417  -2.2283  -2.2278  -2.2115  -2.2115
    -2.1776  -2.1764  -2.1762  -2.1576  -2.1558  -2.1558  -2.1228  -2.1227
    -2.0818  -2.0814  -2.0737  -2.0719  -2.0717  -2.0652  -2.0651  -2.0630
    -2.0627  -2.0553  -2.0550  -2.0386  -2.0385  -1.9111  -1.9109  -1.8786
    -1.8725  -1.8724  -1.8674  -1.8673  -1.8498  -1.8494  -1.8461  -1.8459
    -1.8439  -1.8218  -1.8129  -1.8127  -1.8098  -1.8012  -1.8005  -1.7783
    -1.7782  -1.7498  -1.7492  -1.7168  -1.7167  -1.7067  -1.6986  -1.6809
    -1.6807  -1.6777  -1.6594  -1.6473  -1.6472  -1.6397  -1.6396  -1.6125
    -1.6124  -1.5955  -1.5950  -1.5636  -1.5634  -1.5530  -1.5025  -1.5020
    -1.4896  -1.4894  -1.4891  -1.4645  -1.4615  -1.4278  -1.4271  -1.4267
    -1.3935  -1.3831  -1.3829  -1.3675  -1.3673  -1.3405  -1.3392  -1.3390
    -1.3095  -1.3065  -1.3065  -1.2439  -1.2438  -1.2302  -1.2300  -1.2142
    -1.2134  -1.2010  -1.2009  -1.1828  -1.1703  -1.1427  -1.1423  -1.1312
    -1.1030  -1.0927  -1.0925  -1.0812  -1.0811  -1.0789  -1.0732  -1.0731
    -1.0601  -1.0289  -1.0285  -1.0175  -1.0169  -1.0165  -1.0159  -0.9920
    -0.9736  -0.9733  -0.9522  -0.9519  -0.8593  -0.8460  -0.8403  -0.8403
    -0.8364  -0.8312  -0.8308  -0.8101  -0.8050  -0.7898  -0.7895  -0.7751
    -0.7750  -0.7657  -0.7452  -0.7451  -0.7438  -0.7354  -0.6793  -0.6635
    -0.6634  -0.6290  -0.6286  -0.6251  -0.6176  -0.6174  -0.6167  -0.6167
    -0.6031  -0.6029  -0.5875  -0.5623  -0.5479  -0.5276  -0.5275  -0.5162
    -0.5160  -0.5032  -0.5030  -0.5020  -0.5007  -0.5006  -0.4829  -0.4788
    -0.4786  -0.4479  -0.4463  -0.4460  -0.4343  -0.4341  -0.4149  -0.3826
    -0.3826  -0.3733  -0.3732  -0.3052  -0.3051  -0.2676  -0.2671  -0.2096
    -0.2079  -0.2077  -0.1982  -0.1792   0.0438   0.0446   0.3914   0.3914
     0.4827   0.4835   0.6763   0.6892   0.7090   0.8401   0.8403   1.2715
     1.2716   1.2904   1.5475   1.5816   1.5817   1.8584   1.8597   1.9381
     1.9383   1.9655   1.9662   2.1946   2.1948   2.2827   2.2828   2.3549
     2.4214   2.4226   2.5866   2.6839   3.1257   3.1259   3.1287   3.1290
     3.1837   3.1843   3.4759   3.4760   3.7577   3.7587   3.8597   4.1716
     4.2148   4.2154   4.4281   4.4380   4.5158   4.5163   4.6069   4.7248
     4.7254   4.8424   4.8427   5.1169   5.1476   5.2162   5.2175   5.3842
     5.3941   5.6035   5.6040   5.6298   5.6300   5.6783   5.6942   5.6947
     5.7452   6.0403   6.2370   6.2545   6.3015   6.3978   6.4363   6.4371
     6.4499   6.4505   6.5768   6.6905   6.6918   6.7810   6.8200   6.9152
     6.9219   6.9437   6.9880

          k = 0.0000 0.2887 0.1111 (136898 PWs)   bands (ev):

   -18.6762  -6.5618  -6.4910  -5.7697  -5.4780  -5.4193  -5.4193  -4.8809
    -4.8808  -4.7493  -4.7482  -4.5936  -4.5623  -4.5015  -4.4672  -4.4670
    -4.4343  -4.4342  -4.3057  -4.2640  -4.2639  -4.2037  -4.1826  -4.1825
    -4.0804  -4.0803  -4.0443  -4.0441  -4.0440  -4.0168  -3.9955  -3.9953
    -3.8895  -3.8884  -3.8882  -3.8673  -3.8507  -3.8504  -3.8381  -3.8381
    -3.8245  -3.7948  -3.7946  -3.7944  -3.7941  -3.7615  -3.7613  -3.7439
    -3.7439  -3.7287  -3.6855  -3.6851  -3.6556  -3.6399  -3.6398  -3.6358
    -3.6357  -3.5611  -3.5610  -3.5252  -3.5229  -3.5227  -3.4558  -3.4556
    -3.4399  -3.4398  -3.4087  -3.4083  -3.4080  -3.4077  -3.2544  -3.2543
    -3.2284  -3.2283  -3.2231  -3.2074  -3.2073  -3.1813  -3.1808  -3.1314
    -3.1314  -3.1151  -3.1149  -3.0946  -3.0460  -3.0454  -3.0263  -3.0214
    -3.0213  -2.9804  -2.9803  -2.9740  -2.9740  -2.9571  -2.9570  -2.9174
    -2.9173  -2.8958  -2.8954  -2.8925  -2.8923  -2.8895  -2.8120  -2.8118
    -2.8108  -2.7818  -2.7817  -2.7198  -2.7192  -2.6986  -2.6914  -2.6901
    -2.6768  -2.6767  -2.6718  -2.6419  -2.6417  -2.6325  -2.6145  -2.5888
    -2.5888  -2.5886  -2.5677  -2.5677  -2.5567  -2.5565  -2.5527  -2.5525
    -2.5451  -2.4990  -2.4663  -2.4662  -2.4506  -2.4367  -2.4300  -2.4299
    -2.4226  -2.4225  -2.4212  -2.3910  -2.3909  -2.3906  -2.3811  -2.3806
    -2.3633  -2.3361  -2.3359  -2.3351  -2.3342  -2.3339  -2.2893  -2.2576
    -2.2572  -2.2571  -2.2500  -2.2417  -2.2283  -2.2278  -2.2115  -2.2115
    -2.1776  -2.1764  -2.1762  -2.1576  -2.1558  -2.1558  -2.1228  -2.1227
    -2.0818  -2.0814  -2.0737  -2.0719  -2.0717  -2.0652  -2.0651  -2.0630
    -2.0627  -2.0553  -2.0550  -2.0386  -2.0385  -1.9111  -1.9109  -1.8786
    -1.8725  -1.8724  -1.8674  -1.8673  -1.8498  -1.8494  -1.8461  -1.8459
    -1.8439  -1.8218  -1.8129  -1.8127  -1.8098  -1.8012  -1.8005  -1.7783
    -1.7782  -1.7498  -1.7492  -1.7168  -1.7167  -1.7067  -1.6986  -1.6809
    -1.6807  -1.6777  -1.6594  -1.6473  -1.6472  -1.6397  -1.6396  -1.6125
    -1.6124  -1.5955  -1.5950  -1.5636  -1.5634  -1.5530  -1.5025  -1.5020
    -1.4896  -1.4894  -1.4891  -1.4645  -1.4615  -1.4278  -1.4271  -1.4267
    -1.3935  -1.3831  -1.3829  -1.3675  -1.3673  -1.3405  -1.3392  -1.3390
    -1.3095  -1.3065  -1.3065  -1.2439  -1.2438  -1.2302  -1.2300  -1.2142
    -1.2134  -1.2010  -1.2009  -1.1828  -1.1703  -1.1427  -1.1423  -1.1312
    -1.1030  -1.0927  -1.0925  -1.0812  -1.0811  -1.0789  -1.0732  -1.0731
    -1.0601  -1.0289  -1.0285  -1.0175  -1.0169  -1.0165  -1.0159  -0.9920
    -0.9736  -0.9733  -0.9522  -0.9519  -0.8593  -0.8460  -0.8403  -0.8403
    -0.8364  -0.8312  -0.8308  -0.8101  -0.8050  -0.7898  -0.7895  -0.7751
    -0.7750  -0.7657  -0.7452  -0.7451  -0.7438  -0.7354  -0.6793  -0.6635
    -0.6634  -0.6290  -0.6287  -0.6251  -0.6176  -0.6174  -0.6167  -0.6166
    -0.6031  -0.6029  -0.5875  -0.5623  -0.5479  -0.5276  -0.5275  -0.5162
    -0.5160  -0.5032  -0.5030  -0.5020  -0.5007  -0.5006  -0.4829  -0.4788
    -0.4786  -0.4479  -0.4463  -0.4460  -0.4343  -0.4341  -0.4149  -0.3826
    -0.3826  -0.3733  -0.3732  -0.3052  -0.3051  -0.2676  -0.2671  -0.2096
    -0.2079  -0.2077  -0.1982  -0.1792   0.0438   0.0446   0.3914   0.3914
     0.4827   0.4835   0.6763   0.6892   0.7090   0.8401   0.8403   1.2715
     1.2716   1.2904   1.5475   1.5816   1.5817   1.8584   1.8597   1.9381
     1.9383   1.9655   1.9662   2.1946   2.1948   2.2827   2.2828   2.3549
     2.4214   2.4226   2.5866   2.6839   3.1257   3.1259   3.1287   3.1290
     3.1837   3.1843   3.4759   3.4760   3.7577   3.7587   3.8597   4.1716
     4.2148   4.2154   4.4281   4.4380   4.5158   4.5163   4.6069   4.7248
     4.7254   4.8424   4.8427   5.1169   5.1476   5.2162   5.2175   5.3842
     5.3940   5.6035   5.6040   5.6298   5.6300   5.6789   5.6942   5.6947
     5.7458   6.0363   6.2330   6.2544   6.3015   6.4107   6.4363   6.4372
     6.4498   6.4505   6.5754   6.6906   6.6918   6.7834   6.8110   6.9148
     6.9216   6.9480   6.9891

     the Fermi energy is     1.4139 ev

!    total energy              =   -6604.42797661 Ry
     Harris-Foulkes estimate   =   -6604.42797660 Ry
     estimated scf accuracy    <          5.3E-09 Ry

     The total energy is the sum of the following terms:

     one-electron contribution =  -48133.86596901 Ry
     hartree contribution      =   24567.62754148 Ry
     xc contribution           =   -3204.94760788 Ry
     ewald contribution        =   20166.75516495 Ry
     smearing contrib. (-TS)   =       0.00289385 Ry

     convergence has been achieved in  24 iterations

     Writing output data file 6819492.save

     init_run     :    200.01s CPU    209.68s WALL (       1 calls)
     electrons    :  10451.73s CPU  10994.79s WALL (       1 calls)

     Called by init_run:
     wfcinit      :    167.92s CPU    176.79s WALL (       1 calls)
     potinit      :     10.50s CPU     10.86s WALL (       1 calls)

     Called by electrons:
     c_bands      :   8993.97s CPU   9432.81s WALL (      25 calls)
     sum_band     :   1146.56s CPU   1235.37s WALL (      25 calls)
     v_of_rho     :     74.88s CPU     86.22s WALL (      25 calls)
     newd         :    244.69s CPU    247.94s WALL (      25 calls)
     mix_rho      :      2.33s CPU      2.77s WALL (      25 calls)
     vdW_energy   :      7.68s CPU      8.54s WALL (      25 calls)
     vdW_ffts     :     35.62s CPU     41.68s WALL (      50 calls)
     vdW_v        :      9.76s CPU     10.55s WALL (      25 calls)

     Called by c_bands:
     init_us_2    :     15.17s CPU     15.64s WALL (     612 calls)
     cegterg      :   8893.00s CPU   9330.46s WALL (     300 calls)

     Called by *egterg:
     h_psi        :   3671.77s CPU   4067.36s WALL (    1786 calls)
     s_psi        :    548.78s CPU    551.43s WALL (    1786 calls)
     g_psi        :      7.15s CPU      7.11s WALL (    1474 calls)
     cdiaghg      :   2803.53s CPU   2810.62s WALL (    1762 calls)

     Called by h_psi:
     add_vuspsi   :    550.28s CPU    552.82s WALL (    1786 calls)

     General routines
     calbec       :    826.45s CPU    829.16s WALL (    2086 calls)
     fft          :    110.96s CPU    121.60s WALL (    1650 calls)
     ffts         :      0.95s CPU      1.18s WALL (      50 calls)
     fftw         :   2866.62s CPU   3298.16s WALL (  740078 calls)
     interpolate  :      2.76s CPU      3.38s WALL (      50 calls)
     davcio       :      0.01s CPU      0.19s WALL (      12 calls)

     Parallel routines
     fft_scatter  :   2002.50s CPU   2364.12s WALL (  741778 calls)

     PWSCF        :     2h57m CPU        3h 7m WALL


   This run was terminated on:  14:10: 3   3Jul2015            

=------------------------------------------------------------------------------=
   JOB DONE.
=------------------------------------------------------------------------------=
