Setting SGE environment for SCC

     Program PWSCF v.5.1.2 starts on  5Jul2015 at 23:15:47 

     This program is part of the open-source Quantum ESPRESSO suite
     for quantum simulation of materials; please cite
         "P. Giannozzi et al., J. Phys.:Condens. Matter 21 395502 (2009);
          URL http://www.quantum-espresso.org", 
     in publications or presentations arising from this work. More details at
     http://www.quantum-espresso.org/quote

     Parallel version (MPI), running on    32 processors
     R & G space division:  proc/nbgrp/npool/nimage =      32
     Reading input from hollow.H2.Au535758.d.2.1.phi.45.psi.0.in
Warning: card &IONS ignored
Warning: card / ignored
Warning: card &CELL ignored
Warning: card / ignored

     Current dimensions of program PWSCF are:
     Max number of different atomic species (ntypx) = 10
     Max number of k-points (npk) =  40000
     Max angular momentum in pseudopotentials (lmaxx) =  3

     IMPORTANT: XC functional enforced from input :
     Exchange-correlation      = VDW-DF ( 1  4  4  0 1 0)
     Any further DFT definition will be discarded
     Please, verify this is what you really want


     Subspace diagonalization in iterative solution of the eigenvalue problem:
     a serial algorithm will be used


     Parallelization info
     --------------------
     sticks:   dense  smooth     PW     G-vecs:    dense   smooth      PW
     Min         445     223     58                96775    34191    4534
     Max         446     224     59                96790    34246    4540
     Sum       14269    7147   1867              3097177  1095093  145167


     Title: 
     hollow.H2.Au535758.d.2.1.phi.45.psi.0                                      


     bravais-lattice index     =            4
     lattice parameter (alat)  =      22.7436  a.u.
     unit-cell volume          =   22924.1508 (a.u.)^3
     number of atoms/cell      =           67
     number of atomic types    =            3
     number of electrons       =       712.00
     number of Kohn-Sham states=          427
     kinetic-energy cutoff     =      50.0000  Ry
     charge density cutoff     =     400.0000  Ry
     convergence threshold     =      1.0E-08
     mixing beta               =       0.7000
     number of iterations used =            8  plain     mixing
     Exchange-correlation      = VDW-DF ( 1  4  4  0 1 0)

     celldm(1)=  22.743643  celldm(2)=   0.000000  celldm(3)=   2.250000
     celldm(4)=   0.000000  celldm(5)=   0.000000  celldm(6)=   0.000000

     crystal axes: (cart. coord. in units of alat)
               a(1) = (   1.000000   0.000000   0.000000 )  
               a(2) = (  -0.500000   0.866025   0.000000 )  
               a(3) = (   0.000000   0.000000   2.250000 )  

     reciprocal axes: (cart. coord. in units 2 pi/alat)
               b(1) = (  1.000000  0.577350 -0.000000 )  
               b(2) = (  0.000000  1.154701  0.000000 )  
               b(3) = (  0.000000 -0.000000  0.444444 )  


     PseudoPot. # 1 for Au read from file:
     /home/scc/andrejb/qe/pseudo/Au.pbe-nd-van.UPF
     MD5 check sum: 458681b50f36d87ef23c61b04bba420a
     Pseudo is Ultrasoft + core correction, Zval = 11.0
     Generated by new atomic code, or converted to UPF format
     Using radial grid of  985 points,  3 beta functions with: 
                l(1) =   1
                l(2) =   2
                l(3) =   2
     Q(r) pseudized with  8 coefficients,  rinner =    1.100   1.100   1.100
                                                       1.100   1.100

     PseudoPot. # 2 for H  read from file:
     /home/scc/andrejb/qe/pseudo/H.pbe-van_ak.UPF
     MD5 check sum: 403db7282739603aa925980fa9b8608d
     Pseudo is Ultrasoft, Zval =  1.0
     Generated by new atomic code, or converted to UPF format
     Using radial grid of  615 points,  1 beta functions with: 
                l(1) =   0
     Q(r) pseudized with  8 coefficients,  rinner =    0.800

     PseudoPot. # 3 for O  read from file:
     /home/scc/andrejb/qe/pseudo/O.pbe-van_ak.UPF
     MD5 check sum: 4b8c549914a63cae506c6ff22b5af4fe
     Pseudo is Ultrasoft, Zval =  6.0
     Generated by new atomic code, or converted to UPF format
     Using radial grid of  737 points,  4 beta functions with: 
                l(1) =   0
                l(2) =   0
                l(3) =   1
                l(4) =   1
     Q(r) pseudized with  8 coefficients,  rinner =    0.800   0.800   0.800


     vdW kernel table read from file vdW_kernel_table
     MD5 check sum: 48e77a2e26edf626eeb0eaa751ad5cac

     atomic species   valence    mass     pseudopotential
        Au            11.00   196.96657     Au( 1.00)
        H              1.00     1.01000     H ( 1.00)
        O              6.00    16.00000     O ( 1.00)

     No symmetry found



   Cartesian axes

     site n.     atom                  positions (alat units)
         1           O   tau(   1) = (  -0.0186562   0.5650466   0.8647663  )
         2           H   tau(   2) = (  -0.0208375   0.5411347   0.7874913  )
         3           H   tau(   3) = (  -0.0249177   0.4965679   0.9073949  )
         4           Au  tau(   4) = (   0.3540481   0.6132292   0.0000000  )
         5           Au  tau(   5) = (   0.4790062   0.3967954   0.0000000  )
         6           Au  tau(   6) = (   0.6039644   0.1803616   0.0000000  )
         7           Au  tau(   7) = (   0.7289225  -0.0360723   0.0000000  )
         8           Au  tau(   8) = (   0.1041318   0.6132292   0.0000000  )
         9           Au  tau(   9) = (   0.2290899   0.3967954   0.0000000  )
        10           Au  tau(  10) = (   0.3540481   0.1803616   0.0000000  )
        11           Au  tau(  11) = (   0.4790062  -0.0360723   0.0000000  )
        12           Au  tau(  12) = (  -0.1457845   0.6132292   0.0000000  )
        13           Au  tau(  13) = (  -0.0208264   0.3967954   0.0000000  )
        14           Au  tau(  14) = (   0.1041318   0.1803616   0.0000000  )
        15           Au  tau(  15) = (   0.2290899  -0.0360723   0.0000000  )
        16           Au  tau(  16) = (  -0.3957008   0.6132292   0.0000000  )
        17           Au  tau(  17) = (  -0.2707426   0.3967954   0.0000000  )
        18           Au  tau(  18) = (  -0.1457845   0.1803616   0.0000000  )
        19           Au  tau(  19) = (  -0.0208264  -0.0360723   0.0000000  )
        20           Au  tau(  20) = (   0.4790062   0.6853738   0.2040557  )
        21           Au  tau(  21) = (   0.6039644   0.4689400   0.2040557  )
        22           Au  tau(  22) = (   0.7289225   0.2525061   0.2040557  )
        23           Au  tau(  23) = (   0.8538806   0.0360723   0.2040557  )
        24           Au  tau(  24) = (   0.2290899   0.6853738   0.2040557  )
        25           Au  tau(  25) = (   0.3540481   0.4689400   0.2040557  )
        26           Au  tau(  26) = (   0.4790062   0.2525061   0.2040557  )
        27           Au  tau(  27) = (   0.6039644   0.0360723   0.2040557  )
        28           Au  tau(  28) = (  -0.0208264   0.6853738   0.2040557  )
        29           Au  tau(  29) = (   0.1041318   0.4689400   0.2040557  )
        30           Au  tau(  30) = (   0.2290899   0.2525061   0.2040557  )
        31           Au  tau(  31) = (   0.3540481   0.0360723   0.2040557  )
        32           Au  tau(  32) = (  -0.2707426   0.6853738   0.2040557  )
        33           Au  tau(  33) = (  -0.1457845   0.4689400   0.2040557  )
        34           Au  tau(  34) = (  -0.0208264   0.2525061   0.2040557  )
        35           Au  tau(  35) = (   0.1041318   0.0360723   0.2040557  )
        36           Au  tau(  36) = (   0.3541162   0.7576593   0.4066483  )
        37           Au  tau(  37) = (   0.4791000   0.5411421   0.4066695  )
        38           Au  tau(  38) = (   0.6040570   0.3246862   0.4066617  )
        39           Au  tau(  39) = (   0.7290270   0.1081684   0.4066529  )
        40           Au  tau(  40) = (   0.1041162   0.7576236   0.4066247  )
        41           Au  tau(  41) = (   0.2291001   0.5411063   0.4066455  )
        42           Au  tau(  42) = (   0.3540567   0.3246505   0.4066380  )
        43           Au  tau(  43) = (   0.4790276   0.1081324   0.4066292  )
        44           Au  tau(  44) = (  -0.1458201   0.7576104   0.4066224  )
        45           Au  tau(  45) = (  -0.0208365   0.5410930   0.4066438  )
        46           Au  tau(  46) = (   0.1041202   0.3246372   0.4066359  )
        47           Au  tau(  47) = (   0.2290908   0.1081193   0.4066273  )
        48           Au  tau(  48) = (  -0.3958167   0.7575791   0.4065812  )
        49           Au  tau(  49) = (  -0.2708328   0.5410617   0.4066025  )
        50           Au  tau(  50) = (  -0.1458763   0.3246061   0.4065947  )
        51           Au  tau(  51) = (  -0.0209056   0.1080882   0.4065858  )
        52           Au  tau(  52) = (   0.3541085   0.6133344   0.6129762  )
        53           Au  tau(  53) = (   0.4790780   0.3968269   0.6129968  )
        54           Au  tau(  54) = (   0.6040356   0.1803811   0.6129859  )
        55           Au  tau(  55) = (   0.7290165  -0.0361221   0.6129385  )
        56           Au  tau(  56) = (   0.1041243   0.6133091   0.6130022  )
        57           Au  tau(  57) = (   0.2290941   0.3968013   0.6130241  )
        58           Au  tau(  58) = (   0.3540515   0.1803552   0.6130121  )
        59           Au  tau(  59) = (   0.4790323  -0.0361475   0.6129659  )
        60           Au  tau(  60) = (  -0.1458030   0.6133014   0.6129980  )
        61           Au  tau(  61) = (  -0.0208339   0.3967936   0.6130188  )
        62           Au  tau(  62) = (   0.1041239   0.1803477   0.6130083  )
        63           Au  tau(  63) = (   0.2291046  -0.0361554   0.6129607  )
        64           Au  tau(  64) = (  -0.3957908   0.6132739   0.6129471  )
        65           Au  tau(  65) = (  -0.2708208   0.3967658   0.6129688  )
        66           Au  tau(  66) = (  -0.1458636   0.1803200   0.6129569  )
        67           Au  tau(  67) = (  -0.0208823  -0.0361826   0.6129110  )

     number of k points=    12  Marzari-Vanderbilt smearing, width (Ry)=  0.0200
                       cart. coord. in units 2pi/alat
        k(    1) = (   0.2500000   0.4330127   0.1111111), wk =   0.1666667
        k(    2) = (   0.2500000  -0.1443376   0.1111111), wk =   0.1666667
        k(    3) = (  -0.2500000  -0.4330127   0.1111111), wk =   0.1666667
        k(    4) = (  -0.2500000   0.4330127  -0.1111111), wk =   0.1666667
        k(    5) = (   0.2500000  -0.4330127  -0.1111111), wk =   0.1666667
        k(    6) = (   0.5000000   0.0000000   0.1111111), wk =   0.1666667
        k(    7) = (  -0.5000000   0.0000000   0.1111111), wk =   0.1666667
        k(    8) = (  -0.2500000   0.1443376   0.1111111), wk =   0.1666667
        k(    9) = (  -0.2500000  -0.1443376  -0.1111111), wk =   0.1666667
        k(   10) = (   0.2500000   0.1443376  -0.1111111), wk =   0.1666667
        k(   11) = (   0.0000000  -0.2886751   0.1111111), wk =   0.1666667
        k(   12) = (   0.0000000   0.2886751   0.1111111), wk =   0.1666667

     Dense  grid:  3097177 G-vectors     FFT dimensions: ( 150, 150, 360)

     Smooth grid:  1095093 G-vectors     FFT dimensions: ( 108, 108, 240)

     Largest allocated arrays     est. size (Mb)     dimensions
        Kohn-Sham Wavefunctions        28.01 Mb     (    4299,  427)
        NL pseudopotentials            55.23 Mb     (    4299,  842)
        Each V/rho on FFT grid          4.12 Mb     (  270000)
        Each G-vector array             0.74 Mb     (   96788)
        G-vector shells                 0.16 Mb     (   21404)
     Largest temporary arrays     est. size (Mb)     dimensions
        Auxiliary wavefunctions       112.04 Mb     (    4299, 1708)
        Each subspace H/S matrix       44.51 Mb     (    1708, 1708)
        Each <psi_i|beta_j> matrix      5.49 Mb     (     842,  427)
        Arrays for rho mixing          32.96 Mb     (  270000,    8)

     Initial potential from superposition of free atoms
     Check: negative starting charge=   -1.730278

     starting charge  711.25682, renormalised to  712.00000

     negative rho (up, down):  1.732E+00 0.000E+00


     ************************************************************************
     *
     * You are using vdW-DF for exchange-correlation in this calculation.
     * Please cite the following three references that made this development
     * possible:
     *
     *   M. Dion, H. Rydberg, E. Schroder, D. C. Langreth, and
     *   B. I. Lundqvist, Phys. Rev. Lett. 92, 246401 (2004).
     *
     *   T. Thonhauser, V. R. Cooper, S. Li, A. Puzder, P. Hyldgaard, and
     *   D. C. Langreth, Phys. Rev. B 76, 125112 (2007).
     *
     *   G. Roman-Perez and J. M. Soler, Phys. Rev. Lett. 103, 096102 (2009).
     *
     *
     * If you are using vdW-DF2, please also cite:
     *
     *   K. Lee, E. D. Murray, L. Kong, B. I. Lundqvist, and
     *   D. C. Langreth, Phys. Rev. B 82, 081101(R) (2010).
     *
     *
     * If you are calculating the stress with vdW-DF, please also cite:
     *
     *   R. Sabatini, E. Kucukbenli, B. Kolb, T. Thonhauser, and
     *   S. de Gironcoli, J. Phys.: Condens. Matter 24, 424209 (2012).
     *
     ************************************************************************

     Carrying out vdW-DF run using the following parameters:

     Nqs =      20    Nr_points =    1024   r_max =   100.000
     q_mesh =
               0.00001000     0.04494208     0.09755937     0.15916263
               0.23128650     0.31572767     0.41458969     0.53033537
               0.66584808     0.82450364     1.01025438     1.22772762
               1.48234092     1.78043706     2.12944203     2.53805004
               3.01644009     3.57652955     4.23227104     5.00000000

     Gradients computed in reciprocal space

     ************************************************************************


     Starting wfc are  582 randomized atomic wfcs

     total cpu time spent up to now is      164.1 secs

     Self-consistent Calculation

     iteration #  1     ecut=    50.00 Ry     beta=0.70
     Davidson diagonalization with overlap
     ethr =  1.00E-02,  avg # of iterations =  3.0

     Threshold (ethr) on eigenvalues was too large:
     Diagonalizing with lowered threshold

     Davidson diagonalization with overlap
     ethr =  3.41E-04,  avg # of iterations =  4.3

     negative rho (up, down):  1.727E+00 0.000E+00

     total cpu time spent up to now is      832.5 secs

     total energy              =   -6602.81366426 Ry
     Harris-Foulkes estimate   =   -6605.02450353 Ry
     estimated scf accuracy    <       2.77339712 Ry

     iteration #  2     ecut=    50.00 Ry     beta=0.70
     Davidson diagonalization with overlap
     ethr =  3.90E-04,  avg # of iterations = 11.3

     negative rho (up, down):  1.727E+00 0.000E+00

     total cpu time spent up to now is     1852.0 secs

     total energy              =   -6597.07087465 Ry
     Harris-Foulkes estimate   =   -6609.97971090 Ry
     estimated scf accuracy    <      70.82555678 Ry

     iteration #  3     ecut=    50.00 Ry     beta=0.70
     Davidson diagonalization with overlap
     ethr =  3.90E-04,  avg # of iterations =  6.4

     negative rho (up, down):  1.737E+00 0.000E+00

     total cpu time spent up to now is     2510.0 secs

     total energy              =   -6603.18616820 Ry
     Harris-Foulkes estimate   =   -6604.99761630 Ry
     estimated scf accuracy    <       8.16134181 Ry

     iteration #  4     ecut=    50.00 Ry     beta=0.70
     Davidson diagonalization with overlap
     ethr =  3.90E-04,  avg # of iterations =  7.0

     negative rho (up, down):  1.739E+00 0.000E+00

     total cpu time spent up to now is     2912.5 secs

     total energy              =   -6603.69836906 Ry
     Harris-Foulkes estimate   =   -6605.00127030 Ry
     estimated scf accuracy    <      10.81372343 Ry

     iteration #  5     ecut=    50.00 Ry     beta=0.70
     Davidson diagonalization with overlap
     ethr =  3.90E-04,  avg # of iterations =  6.8

     negative rho (up, down):  1.748E+00 0.000E+00

     total cpu time spent up to now is     3317.3 secs

     total energy              =   -6604.27431937 Ry
     Harris-Foulkes estimate   =   -6604.66998540 Ry
     estimated scf accuracy    <       3.14628443 Ry

     iteration #  6     ecut=    50.00 Ry     beta=0.70
     Davidson diagonalization with overlap
     ethr =  3.90E-04,  avg # of iterations =  2.9

     negative rho (up, down):  1.752E+00 0.000E+00

     total cpu time spent up to now is     3620.1 secs

     total energy              =   -6604.42252351 Ry
     Harris-Foulkes estimate   =   -6604.46922333 Ry
     estimated scf accuracy    <       0.14931251 Ry

     iteration #  7     ecut=    50.00 Ry     beta=0.70
     Davidson diagonalization with overlap
     ethr =  2.10E-05,  avg # of iterations = 11.5

     negative rho (up, down):  1.754E+00 0.000E+00

     total cpu time spent up to now is     4123.6 secs

     total energy              =   -6604.42931966 Ry
     Harris-Foulkes estimate   =   -6604.45773571 Ry
     estimated scf accuracy    <       0.12750710 Ry

     iteration #  8     ecut=    50.00 Ry     beta=0.70
     Davidson diagonalization with overlap
     ethr =  1.79E-05,  avg # of iterations =  3.4

     negative rho (up, down):  1.756E+00 0.000E+00

     total cpu time spent up to now is     4434.4 secs

     total energy              =   -6604.43219511 Ry
     Harris-Foulkes estimate   =   -6604.44573749 Ry
     estimated scf accuracy    <       0.05316033 Ry

     iteration #  9     ecut=    50.00 Ry     beta=0.70
     Davidson diagonalization with overlap
     ethr =  7.47E-06,  avg # of iterations =  5.8

     negative rho (up, down):  1.756E+00 0.000E+00

     total cpu time spent up to now is     4791.3 secs

     total energy              =   -6604.43176360 Ry
     Harris-Foulkes estimate   =   -6604.43827672 Ry
     estimated scf accuracy    <       0.02362443 Ry

     iteration # 10     ecut=    50.00 Ry     beta=0.70
     Davidson diagonalization with overlap
     ethr =  3.32E-06,  avg # of iterations =  5.3

     negative rho (up, down):  1.757E+00 0.000E+00

     total cpu time spent up to now is     5139.5 secs

     total energy              =   -6604.43127868 Ry
     Harris-Foulkes estimate   =   -6604.43419885 Ry
     estimated scf accuracy    <       0.01019933 Ry

     iteration # 11     ecut=    50.00 Ry     beta=0.70
     Davidson diagonalization with overlap
     ethr =  1.43E-06,  avg # of iterations =  4.1

     negative rho (up, down):  1.757E+00 0.000E+00

     total cpu time spent up to now is     5482.9 secs

     total energy              =   -6604.43109346 Ry
     Harris-Foulkes estimate   =   -6604.43246316 Ry
     estimated scf accuracy    <       0.00523182 Ry

     iteration # 12     ecut=    50.00 Ry     beta=0.70
     Davidson diagonalization with overlap
     ethr =  7.35E-07,  avg # of iterations =  3.8

     negative rho (up, down):  1.758E+00 0.000E+00

     total cpu time spent up to now is     5794.0 secs

     total energy              =   -6604.43088006 Ry
     Harris-Foulkes estimate   =   -6604.43158063 Ry
     estimated scf accuracy    <       0.00122183 Ry

     iteration # 13     ecut=    50.00 Ry     beta=0.70
     Davidson diagonalization with overlap
     c_bands:  1 eigenvalues not converged
     c_bands:  1 eigenvalues not converged
     ethr =  1.72E-07,  avg # of iterations = 10.5

     negative rho (up, down):  1.758E+00 0.000E+00

     total cpu time spent up to now is     6282.9 secs

     total energy              =   -6604.43104731 Ry
     Harris-Foulkes estimate   =   -6604.43126589 Ry
     estimated scf accuracy    <       0.00071486 Ry

     iteration # 14     ecut=    50.00 Ry     beta=0.70
     Davidson diagonalization with overlap
     ethr =  1.00E-07,  avg # of iterations =  2.0

     negative rho (up, down):  1.758E+00 0.000E+00

     total cpu time spent up to now is     6577.0 secs

     total energy              =   -6604.43114075 Ry
     Harris-Foulkes estimate   =   -6604.43120135 Ry
     estimated scf accuracy    <       0.00022890 Ry

     iteration # 15     ecut=    50.00 Ry     beta=0.70
     Davidson diagonalization with overlap
     ethr =  3.21E-08,  avg # of iterations =  2.0

     negative rho (up, down):  1.757E+00 0.000E+00

     total cpu time spent up to now is     6871.7 secs

     total energy              =   -6604.43116305 Ry
     Harris-Foulkes estimate   =   -6604.43118837 Ry
     estimated scf accuracy    <       0.00009471 Ry

     iteration # 16     ecut=    50.00 Ry     beta=0.70
     Davidson diagonalization with overlap
     ethr =  1.33E-08,  avg # of iterations =  2.0

     negative rho (up, down):  1.757E+00 0.000E+00

     total cpu time spent up to now is     7160.5 secs

     total energy              =   -6604.43116496 Ry
     Harris-Foulkes estimate   =   -6604.43118484 Ry
     estimated scf accuracy    <       0.00017001 Ry

     iteration # 17     ecut=    50.00 Ry     beta=0.70
     Davidson diagonalization with overlap
     ethr =  1.33E-08,  avg # of iterations =  1.0

     negative rho (up, down):  1.757E+00 0.000E+00

     total cpu time spent up to now is     7435.3 secs

     total energy              =   -6604.43117525 Ry
     Harris-Foulkes estimate   =   -6604.43117901 Ry
     estimated scf accuracy    <       0.00003030 Ry

     iteration # 18     ecut=    50.00 Ry     beta=0.70
     Davidson diagonalization with overlap
     ethr =  4.26E-09,  avg # of iterations =  2.0

     negative rho (up, down):  1.757E+00 0.000E+00

     total cpu time spent up to now is     7722.1 secs

     total energy              =   -6604.43117584 Ry
     Harris-Foulkes estimate   =   -6604.43117886 Ry
     estimated scf accuracy    <       0.00001211 Ry

     iteration # 19     ecut=    50.00 Ry     beta=0.70
     Davidson diagonalization with overlap
     ethr =  1.70E-09,  avg # of iterations =  2.0

     negative rho (up, down):  1.757E+00 0.000E+00

     total cpu time spent up to now is     8010.8 secs

     total energy              =   -6604.43117734 Ry
     Harris-Foulkes estimate   =   -6604.43117768 Ry
     estimated scf accuracy    <       0.00000128 Ry

     iteration # 20     ecut=    50.00 Ry     beta=0.70
     Davidson diagonalization with overlap
     ethr =  1.80E-10,  avg # of iterations =  2.0

     negative rho (up, down):  1.757E+00 0.000E+00

     total cpu time spent up to now is     8313.0 secs

     total energy              =   -6604.43117758 Ry
     Harris-Foulkes estimate   =   -6604.43117762 Ry
     estimated scf accuracy    <       0.00000021 Ry

     iteration # 21     ecut=    50.00 Ry     beta=0.70
     Davidson diagonalization with overlap
     ethr =  2.96E-11,  avg # of iterations =  3.0

     negative rho (up, down):  1.757E+00 0.000E+00

     total cpu time spent up to now is     8690.1 secs

     total energy              =   -6604.43117762 Ry
     Harris-Foulkes estimate   =   -6604.43117766 Ry
     estimated scf accuracy    <       0.00000025 Ry

     iteration # 22     ecut=    50.00 Ry     beta=0.70
     Davidson diagonalization with overlap
     ethr =  2.96E-11,  avg # of iterations =  2.0

     negative rho (up, down):  1.757E+00 0.000E+00

     total cpu time spent up to now is     8990.1 secs

     total energy              =   -6604.43117765 Ry
     Harris-Foulkes estimate   =   -6604.43117765 Ry
     estimated scf accuracy    <       0.00000001 Ry

     iteration # 23     ecut=    50.00 Ry     beta=0.70
     Davidson diagonalization with overlap
     ethr =  1.71E-12,  avg # of iterations =  3.2

     negative rho (up, down):  1.757E+00 0.000E+00

     total cpu time spent up to now is     9414.8 secs

     total energy              =   -6604.43117765 Ry
     Harris-Foulkes estimate   =   -6604.43117765 Ry
     estimated scf accuracy    <       0.00000002 Ry

     iteration # 24     ecut=    50.00 Ry     beta=0.70
     Davidson diagonalization with overlap
     ethr =  1.71E-12,  avg # of iterations =  2.8

     negative rho (up, down):  1.757E+00 0.000E+00

     total cpu time spent up to now is     9780.8 secs

     total energy              =   -6604.43117766 Ry
     Harris-Foulkes estimate   =   -6604.43117766 Ry
     estimated scf accuracy    <       0.00000002 Ry

     iteration # 25     ecut=    50.00 Ry     beta=0.70
     Davidson diagonalization with overlap
     ethr =  1.71E-12,  avg # of iterations =  2.0

     negative rho (up, down):  1.757E+00 0.000E+00

     total cpu time spent up to now is    10068.3 secs

     End of self-consistent calculation

          k = 0.2500 0.4330 0.1111 (136853 PWs)   bands (ev):

   -18.6353  -6.5690  -6.3816  -5.9871  -5.9857  -5.3083  -4.9765  -4.9759
    -4.9373  -4.9356  -4.5761  -4.5757  -4.4774  -4.4771  -4.4633  -4.4406
    -4.4184  -4.3104  -4.3089  -4.2855  -4.2422  -4.2417  -4.1738  -4.1728
    -4.1676  -4.1657  -4.1449  -4.1397  -4.1383  -4.0716  -4.0655  -4.0369
    -4.0363  -4.0246  -4.0242  -4.0010  -4.0008  -3.9784  -3.9701  -3.9699
    -3.9439  -3.8916  -3.8912  -3.8434  -3.8425  -3.7862  -3.7848  -3.7307
    -3.7297  -3.7289  -3.7285  -3.6931  -3.6577  -3.6561  -3.6477  -3.6472
    -3.6461  -3.6201  -3.6150  -3.6072  -3.5480  -3.5465  -3.5395  -3.5194
    -3.5120  -3.4410  -3.4392  -3.4109  -3.4052  -3.3802  -3.3781  -3.3643
    -3.3478  -3.2899  -3.2886  -3.2714  -3.2701  -3.2199  -3.2155  -3.2140
    -3.1748  -3.1467  -3.1438  -3.1356  -3.1348  -3.1240  -3.1225  -3.1152
    -3.1137  -3.1047  -3.0634  -3.0256  -3.0242  -3.0140  -3.0106  -2.9841
    -2.9785  -2.9745  -2.9542  -2.9114  -2.9074  -2.9001  -2.8645  -2.8533
    -2.8430  -2.8415  -2.8283  -2.8123  -2.7893  -2.7770  -2.7455  -2.7316
    -2.7214  -2.7151  -2.7013  -2.6894  -2.6514  -2.6472  -2.6164  -2.5953
    -2.5924  -2.5717  -2.5693  -2.5603  -2.5578  -2.5490  -2.5274  -2.5258
    -2.4815  -2.4807  -2.4797  -2.4647  -2.4634  -2.4567  -2.4492  -2.4467
    -2.4463  -2.4445  -2.4390  -2.4293  -2.4267  -2.4168  -2.3908  -2.3895
    -2.3887  -2.3868  -2.3855  -2.3835  -2.3813  -2.3558  -2.3547  -2.3402
    -2.3384  -2.3209  -2.3204  -2.3117  -2.3110  -2.3095  -2.3082  -2.2909
    -2.2880  -2.2867  -2.2851  -2.2712  -2.2441  -2.2436  -2.2031  -2.2026
    -2.1798  -2.1782  -2.1516  -2.1496  -2.1240  -2.1223  -2.1059  -2.1013
    -2.0737  -2.0549  -2.0515  -2.0471  -2.0449  -2.0424  -2.0351  -2.0333
    -2.0074  -2.0020  -1.9946  -1.9350  -1.9318  -1.9298  -1.9278  -1.9261
    -1.8933  -1.8723  -1.8712  -1.8451  -1.8429  -1.7857  -1.7839  -1.7542
    -1.7371  -1.7348  -1.6750  -1.6747  -1.6637  -1.6621  -1.6527  -1.6506
    -1.6471  -1.6390  -1.6374  -1.5832  -1.5807  -1.5720  -1.5695  -1.5687
    -1.5526  -1.5488  -1.5149  -1.5141  -1.4988  -1.4977  -1.4968  -1.4896
    -1.4843  -1.4781  -1.4737  -1.4565  -1.4550  -1.4171  -1.4121  -1.4050
    -1.4016  -1.3835  -1.3678  -1.3281  -1.3248  -1.2990  -1.2951  -1.2941
    -1.2651  -1.2146  -1.2137  -1.2119  -1.2109  -1.2070  -1.2049  -1.1966
    -1.1788  -1.1766  -1.1404  -1.1347  -1.1083  -1.1047  -1.1010  -1.0990
    -1.0929  -1.0779  -1.0771  -1.0743  -1.0721  -1.0708  -1.0369  -1.0327
    -1.0315  -1.0306  -1.0051  -1.0013  -0.9968  -0.9719  -0.9685  -0.9652
    -0.9189  -0.9141  -0.9098  -0.8817  -0.8697  -0.8600  -0.8579  -0.8531
    -0.8490  -0.8476  -0.8460  -0.8372  -0.8337  -0.8120  -0.8095  -0.8061
    -0.8042  -0.8032  -0.7751  -0.7658  -0.7643  -0.7550  -0.7418  -0.7348
    -0.7312  -0.7204  -0.7028  -0.6634  -0.6604  -0.6541  -0.6527  -0.6510
    -0.6478  -0.6348  -0.6260  -0.6221  -0.6171  -0.6162  -0.6152  -0.5928
    -0.5755  -0.5742  -0.5710  -0.5647  -0.5613  -0.5586  -0.5562  -0.5456
    -0.5390  -0.5386  -0.5182  -0.4967  -0.4953  -0.4876  -0.4834  -0.4818
    -0.4086  -0.4048  -0.4032  -0.4012  -0.3942  -0.3891  -0.3567  -0.3454
    -0.3438  -0.3132  -0.3120  -0.3078  -0.1941  -0.1885  -0.0895   0.3262
     0.3270   0.3303   0.3307   0.3926   0.3977   0.7775   0.7807   0.8212
     0.8230   0.9368   1.0127   1.1213   1.1272   1.3476   1.3526   1.9751
     1.9803   2.1365   2.1423   2.2725   2.2781   2.3756   2.3762   2.5301
     2.7672   2.7826   2.8925   3.1150   3.1207   3.1965   3.1996   3.2972
     3.3151   3.5177   3.5283   3.5695   3.7709   3.7737   3.8337   3.8399
     4.0909   4.0984   4.1040   4.3417   4.3797   4.3850   4.4291   4.7620
     4.7680   4.7948   4.9298   5.1019   5.1046   5.1640   5.1900   5.5390
     5.8137   5.8864   5.8935   5.9008   5.9256   5.9633   5.9671   6.0617
     6.0790   6.0983   6.1247   6.1338   6.1436   6.1627   6.1734   6.1853
     6.1904   6.4520   6.5886   6.7296   6.7553   6.7877   6.8404   6.8465
     6.8497   6.9546   7.0347

          k = 0.2500-0.1443 0.1111 (136898 PWs)   bands (ev):

   -18.6353  -6.6172  -6.5427  -5.8041  -5.5115  -5.4548  -5.4536  -4.9164
    -4.9159  -4.7847  -4.7837  -4.6288  -4.5999  -4.5365  -4.5042  -4.5019
    -4.4697  -4.4693  -4.3409  -4.2993  -4.2988  -4.2396  -4.2189  -4.2179
    -4.1158  -4.1156  -4.0795  -4.0791  -4.0790  -4.0528  -4.0308  -4.0306
    -3.9280  -3.9237  -3.9233  -3.9038  -3.8862  -3.8859  -3.8746  -3.8735
    -3.8619  -3.8310  -3.8304  -3.8298  -3.8295  -3.7989  -3.7974  -3.7795
    -3.7792  -3.7688  -3.7262  -3.7245  -3.6922  -3.6789  -3.6759  -3.6708
    -3.6707  -3.5966  -3.5964  -3.5633  -3.5601  -3.5585  -3.4911  -3.4908
    -3.4760  -3.4752  -3.4467  -3.4449  -3.4443  -3.4441  -3.2901  -3.2893
    -3.2675  -3.2650  -3.2603  -3.2437  -3.2429  -3.2189  -3.2176  -3.1683
    -3.1672  -3.1522  -3.1509  -3.1307  -3.0849  -3.0831  -3.0637  -3.0581
    -3.0575  -3.0182  -3.0167  -3.0108  -3.0087  -2.9953  -2.9928  -2.9549
    -2.9540  -2.9394  -2.9314  -2.9291  -2.9282  -2.9248  -2.8574  -2.8486
    -2.8471  -2.8205  -2.8170  -2.7978  -2.7558  -2.7373  -2.7271  -2.7214
    -2.7136  -2.7109  -2.7053  -2.6779  -2.6720  -2.6676  -2.6496  -2.6266
    -2.6250  -2.6191  -2.6040  -2.6022  -2.5932  -2.5923  -2.5890  -2.5829
    -2.5797  -2.5340  -2.5025  -2.5017  -2.4860  -2.4730  -2.4672  -2.4653
    -2.4593  -2.4582  -2.4562  -2.4274  -2.4265  -2.4243  -2.4170  -2.4167
    -2.4008  -2.3732  -2.3726  -2.3715  -2.3705  -2.3703  -2.3244  -2.2944
    -2.2932  -2.2926  -2.2865  -2.2768  -2.2643  -2.2632  -2.2473  -2.2471
    -2.2175  -2.2126  -2.2125  -2.1943  -2.1928  -2.1915  -2.1599  -2.1593
    -2.1222  -2.1162  -2.1121  -2.1093  -2.1083  -2.1029  -2.1019  -2.0988
    -2.0976  -2.0928  -2.0912  -2.0757  -2.0745  -1.9493  -1.9474  -1.9164
    -1.9098  -1.9085  -1.9026  -1.9022  -1.8871  -1.8853  -1.8830  -1.8823
    -1.8801  -1.8578  -1.8520  -1.8498  -1.8424  -1.8385  -1.8373  -1.8151
    -1.8140  -1.7863  -1.7853  -1.7560  -1.7547  -1.7440  -1.7356  -1.7181
    -1.7168  -1.7142  -1.6972  -1.6832  -1.6828  -1.6758  -1.6757  -1.6507
    -1.6496  -1.6328  -1.6322  -1.5995  -1.5980  -1.5904  -1.5415  -1.5400
    -1.5286  -1.5251  -1.5246  -1.5000  -1.4974  -1.4663  -1.4650  -1.4632
    -1.4301  -1.4206  -1.4194  -1.4040  -1.4030  -1.3787  -1.3763  -1.3755
    -1.3467  -1.3447  -1.3430  -1.2816  -1.2805  -1.2699  -1.2672  -1.2523
    -1.2515  -1.2385  -1.2378  -1.2201  -1.2071  -1.1804  -1.1796  -1.1681
    -1.1402  -1.1309  -1.1287  -1.1173  -1.1169  -1.1167  -1.1136  -1.1095
    -1.0954  -1.0690  -1.0671  -1.0566  -1.0524  -1.0516  -1.0506  -1.0301
    -1.0163  -1.0087  -0.9927  -0.9882  -0.8971  -0.8847  -0.8817  -0.8773
    -0.8760  -0.8697  -0.8673  -0.8544  -0.8442  -0.8289  -0.8261  -0.8140
    -0.8125  -0.8043  -0.7861  -0.7826  -0.7801  -0.7724  -0.7246  -0.6994
    -0.6985  -0.6657  -0.6613  -0.6591  -0.6544  -0.6522  -0.6517  -0.6433
    -0.6389  -0.6234  -0.6178  -0.5972  -0.5733  -0.5643  -0.5626  -0.5528
    -0.5472  -0.5400  -0.5392  -0.5371  -0.5358  -0.5260  -0.5192  -0.5149
    -0.5064  -0.4843  -0.4828  -0.4777  -0.4698  -0.4680  -0.4503  -0.4187
    -0.4160  -0.4090  -0.4047  -0.3414  -0.3395  -0.3049  -0.3043  -0.2471
    -0.2455  -0.2448  -0.2266  -0.2195   0.0102   0.0132   0.3553   0.3554
     0.4475   0.4528   0.6444   0.6610   0.6728   0.8026   0.8036   1.2355
     1.2359   1.2526   1.5168   1.5452   1.5458   1.8235   1.8305   1.9001
     1.9007   1.9279   1.9325   2.1555   2.1580   2.2464   2.2473   2.3282
     2.3862   2.3932   2.5494   2.6511   3.0842   3.0882   3.0919   3.0931
     3.1436   3.1480   3.4385   3.4400   3.7199   3.7266   3.8371   4.1353
     4.1748   4.1805   4.4014   4.4237   4.4777   4.4803   4.5718   4.6884
     4.6910   4.8053   4.8073   5.1095   5.1762   5.1839   5.3336   5.3739
     5.4481   5.5618   5.5679   5.5922   5.5956   5.6522   5.6573   5.7150
     5.8772   6.0619   6.2593   6.2870   6.3619   6.3968   6.4012   6.4127
     6.4161   6.5518   6.6441   6.6532   6.6655   6.8465   6.8905   6.9181
     6.9420   7.0236   7.1118

          k =-0.2500-0.4330 0.1111 (136853 PWs)   bands (ev):

   -18.6353  -6.5690  -6.3816  -5.9871  -5.9857  -5.3083  -4.9765  -4.9759
    -4.9373  -4.9356  -4.5761  -4.5757  -4.4774  -4.4771  -4.4633  -4.4406
    -4.4184  -4.3104  -4.3089  -4.2855  -4.2422  -4.2417  -4.1738  -4.1728
    -4.1676  -4.1657  -4.1449  -4.1397  -4.1383  -4.0716  -4.0655  -4.0369
    -4.0363  -4.0246  -4.0242  -4.0010  -4.0008  -3.9784  -3.9701  -3.9699
    -3.9439  -3.8916  -3.8912  -3.8434  -3.8425  -3.7863  -3.7848  -3.7307
    -3.7297  -3.7289  -3.7285  -3.6931  -3.6577  -3.6561  -3.6477  -3.6472
    -3.6461  -3.6201  -3.6150  -3.6072  -3.5480  -3.5465  -3.5395  -3.5194
    -3.5120  -3.4410  -3.4392  -3.4109  -3.4052  -3.3802  -3.3781  -3.3643
    -3.3478  -3.2899  -3.2886  -3.2714  -3.2701  -3.2199  -3.2155  -3.2140
    -3.1748  -3.1467  -3.1438  -3.1356  -3.1348  -3.1240  -3.1225  -3.1152
    -3.1137  -3.1047  -3.0634  -3.0256  -3.0242  -3.0140  -3.0106  -2.9841
    -2.9785  -2.9745  -2.9542  -2.9114  -2.9074  -2.9001  -2.8645  -2.8533
    -2.8430  -2.8415  -2.8283  -2.8123  -2.7893  -2.7770  -2.7455  -2.7316
    -2.7214  -2.7151  -2.7013  -2.6894  -2.6514  -2.6472  -2.6164  -2.5954
    -2.5924  -2.5717  -2.5693  -2.5603  -2.5578  -2.5490  -2.5274  -2.5258
    -2.4815  -2.4807  -2.4797  -2.4647  -2.4634  -2.4567  -2.4492  -2.4467
    -2.4463  -2.4445  -2.4390  -2.4293  -2.4267  -2.4168  -2.3908  -2.3895
    -2.3887  -2.3868  -2.3855  -2.3835  -2.3813  -2.3558  -2.3547  -2.3402
    -2.3384  -2.3209  -2.3204  -2.3117  -2.3110  -2.3095  -2.3082  -2.2909
    -2.2880  -2.2867  -2.2851  -2.2712  -2.2441  -2.2436  -2.2031  -2.2026
    -2.1798  -2.1782  -2.1515  -2.1496  -2.1240  -2.1223  -2.1059  -2.1013
    -2.0737  -2.0549  -2.0515  -2.0471  -2.0449  -2.0424  -2.0351  -2.0333
    -2.0074  -2.0020  -1.9946  -1.9350  -1.9318  -1.9299  -1.9278  -1.9261
    -1.8933  -1.8723  -1.8712  -1.8451  -1.8429  -1.7857  -1.7839  -1.7542
    -1.7371  -1.7348  -1.6750  -1.6747  -1.6637  -1.6621  -1.6527  -1.6506
    -1.6471  -1.6390  -1.6374  -1.5832  -1.5807  -1.5720  -1.5695  -1.5687
    -1.5526  -1.5488  -1.5149  -1.5141  -1.4988  -1.4977  -1.4968  -1.4896
    -1.4843  -1.4781  -1.4737  -1.4565  -1.4550  -1.4171  -1.4121  -1.4050
    -1.4016  -1.3835  -1.3678  -1.3281  -1.3248  -1.2990  -1.2951  -1.2941
    -1.2651  -1.2146  -1.2137  -1.2119  -1.2109  -1.2070  -1.2049  -1.1966
    -1.1788  -1.1766  -1.1404  -1.1347  -1.1083  -1.1047  -1.1010  -1.0990
    -1.0929  -1.0779  -1.0771  -1.0743  -1.0721  -1.0708  -1.0369  -1.0327
    -1.0315  -1.0306  -1.0051  -1.0013  -0.9968  -0.9719  -0.9685  -0.9652
    -0.9189  -0.9141  -0.9098  -0.8817  -0.8697  -0.8600  -0.8579  -0.8531
    -0.8490  -0.8476  -0.8460  -0.8372  -0.8337  -0.8120  -0.8095  -0.8061
    -0.8042  -0.8032  -0.7751  -0.7658  -0.7643  -0.7549  -0.7418  -0.7347
    -0.7312  -0.7204  -0.7028  -0.6634  -0.6604  -0.6541  -0.6527  -0.6510
    -0.6478  -0.6348  -0.6260  -0.6221  -0.6171  -0.6162  -0.6152  -0.5928
    -0.5755  -0.5742  -0.5710  -0.5647  -0.5613  -0.5586  -0.5562  -0.5456
    -0.5390  -0.5386  -0.5182  -0.4967  -0.4953  -0.4876  -0.4834  -0.4818
    -0.4086  -0.4048  -0.4032  -0.4012  -0.3942  -0.3891  -0.3567  -0.3454
    -0.3438  -0.3132  -0.3120  -0.3078  -0.1941  -0.1885  -0.0895   0.3262
     0.3270   0.3303   0.3307   0.3926   0.3977   0.7775   0.7807   0.8212
     0.8230   0.9368   1.0127   1.1213   1.1272   1.3476   1.3526   1.9751
     1.9803   2.1365   2.1423   2.2725   2.2781   2.3756   2.3762   2.5301
     2.7672   2.7826   2.8925   3.1150   3.1207   3.1965   3.1996   3.2972
     3.3151   3.5177   3.5283   3.5695   3.7709   3.7737   3.8337   3.8399
     4.0909   4.0984   4.1040   4.3417   4.3797   4.3850   4.4291   4.7620
     4.7680   4.7948   4.9298   5.1019   5.1046   5.1640   5.1900   5.5390
     5.8132   5.8864   5.8935   5.9008   5.9255   5.9633   5.9671   6.0614
     6.0788   6.0983   6.1252   6.1338   6.1459   6.1629   6.1729   6.1853
     6.1905   6.4531   6.5894   6.7154   6.7559   6.7870   6.8403   6.8462
     6.8488   6.9546   7.0453

          k =-0.2500 0.4330-0.1111 (136853 PWs)   bands (ev):

   -18.6353  -6.5690  -6.3816  -5.9872  -5.9856  -5.3083  -4.9770  -4.9754
    -4.9378  -4.9352  -4.5765  -4.5752  -4.4773  -4.4771  -4.4631  -4.4406
    -4.4184  -4.3110  -4.3086  -4.2855  -4.2422  -4.2418  -4.1738  -4.1728
    -4.1681  -4.1654  -4.1448  -4.1403  -4.1378  -4.0720  -4.0649  -4.0374
    -4.0355  -4.0245  -4.0242  -4.0010  -4.0008  -3.9784  -3.9702  -3.9699
    -3.9439  -3.8919  -3.8910  -3.8441  -3.8418  -3.7862  -3.7848  -3.7306
    -3.7298  -3.7289  -3.7283  -3.6933  -3.6578  -3.6561  -3.6478  -3.6471
    -3.6460  -3.6201  -3.6153  -3.6072  -3.5481  -3.5463  -3.5395  -3.5192
    -3.5117  -3.4416  -3.4391  -3.4109  -3.4052  -3.3803  -3.3776  -3.3642
    -3.3479  -3.2900  -3.2887  -3.2714  -3.2699  -3.2198  -3.2156  -3.2140
    -3.1746  -3.1464  -3.1442  -3.1361  -3.1342  -3.1244  -3.1228  -3.1148
    -3.1133  -3.1049  -3.0632  -3.0261  -3.0239  -3.0143  -3.0103  -2.9842
    -2.9791  -2.9740  -2.9542  -2.9115  -2.9070  -2.9001  -2.8642  -2.8532
    -2.8434  -2.8408  -2.8282  -2.8127  -2.7897  -2.7772  -2.7454  -2.7312
    -2.7217  -2.7151  -2.7013  -2.6893  -2.6512  -2.6473  -2.6163  -2.5954
    -2.5924  -2.5719  -2.5699  -2.5604  -2.5572  -2.5491  -2.5279  -2.5255
    -2.4815  -2.4805  -2.4796  -2.4650  -2.4632  -2.4568  -2.4491  -2.4466
    -2.4463  -2.4446  -2.4390  -2.4297  -2.4260  -2.4168  -2.3908  -2.3893
    -2.3886  -2.3868  -2.3855  -2.3833  -2.3813  -2.3562  -2.3547  -2.3402
    -2.3383  -2.3209  -2.3205  -2.3118  -2.3110  -2.3096  -2.3081  -2.2914
    -2.2877  -2.2867  -2.2852  -2.2712  -2.2443  -2.2438  -2.2039  -2.2019
    -2.1800  -2.1781  -2.1512  -2.1493  -2.1243  -2.1220  -2.1060  -2.1012
    -2.0736  -2.0550  -2.0515  -2.0471  -2.0447  -2.0422  -2.0353  -2.0332
    -2.0073  -2.0016  -1.9945  -1.9350  -1.9321  -1.9299  -1.9280  -1.9266
    -1.8933  -1.8729  -1.8705  -1.8454  -1.8428  -1.7861  -1.7833  -1.7547
    -1.7367  -1.7347  -1.6753  -1.6743  -1.6638  -1.6619  -1.6529  -1.6503
    -1.6473  -1.6393  -1.6372  -1.5832  -1.5804  -1.5724  -1.5697  -1.5687
    -1.5525  -1.5486  -1.5150  -1.5143  -1.4988  -1.4977  -1.4968  -1.4894
    -1.4847  -1.4783  -1.4736  -1.4568  -1.4544  -1.4170  -1.4120  -1.4049
    -1.4015  -1.3835  -1.3677  -1.3286  -1.3244  -1.2991  -1.2950  -1.2943
    -1.2652  -1.2144  -1.2135  -1.2119  -1.2111  -1.2072  -1.2047  -1.1966
    -1.1791  -1.1762  -1.1405  -1.1345  -1.1088  -1.1047  -1.1013  -1.0987
    -1.0928  -1.0785  -1.0770  -1.0745  -1.0718  -1.0707  -1.0368  -1.0325
    -1.0313  -1.0306  -1.0051  -1.0013  -0.9963  -0.9723  -0.9688  -0.9645
    -0.9191  -0.9161  -0.9097  -0.8818  -0.8696  -0.8594  -0.8579  -0.8530
    -0.8489  -0.8474  -0.8460  -0.8371  -0.8336  -0.8118  -0.8096  -0.8061
    -0.8045  -0.8030  -0.7736  -0.7657  -0.7638  -0.7550  -0.7432  -0.7347
    -0.7313  -0.7202  -0.7009  -0.6635  -0.6602  -0.6542  -0.6526  -0.6510
    -0.6479  -0.6360  -0.6260  -0.6221  -0.6171  -0.6164  -0.6151  -0.5934
    -0.5754  -0.5742  -0.5712  -0.5647  -0.5612  -0.5586  -0.5553  -0.5453
    -0.5391  -0.5384  -0.5198  -0.4965  -0.4953  -0.4878  -0.4834  -0.4812
    -0.4086  -0.4048  -0.4032  -0.4011  -0.3942  -0.3895  -0.3568  -0.3454
    -0.3438  -0.3135  -0.3122  -0.3076  -0.1940  -0.1883  -0.0893   0.3263
     0.3270   0.3302   0.3307   0.3923   0.3973   0.7776   0.7806   0.8211
     0.8230   0.9370   1.0130   1.1210   1.1281   1.3469   1.3532   1.9751
     1.9799   2.1368   2.1422   2.2722   2.2781   2.3756   2.3763   2.5299
     2.7675   2.7826   2.8926   3.1148   3.1210   3.1961   3.1999   3.2972
     3.3151   3.5163   3.5296   3.5698   3.7706   3.7741   3.8334   3.8400
     4.0906   4.0982   4.1042   4.3422   4.3791   4.3852   4.4289   4.7615
     4.7686   4.7942   4.9296   5.1017   5.1048   5.1638   5.1905   5.5397
     5.8106   5.8859   5.8930   5.9014   5.9285   5.9636   5.9669   6.0607
     6.0779   6.0986   6.1247   6.1347   6.1443   6.1632   6.1724   6.1854
     6.1909   6.4525   6.5921   6.7156   6.7550   6.7907   6.8407   6.8460
     6.8485   6.9549   7.0458

          k = 0.2500-0.4330-0.1111 (136853 PWs)   bands (ev):

   -18.6353  -6.5690  -6.3816  -5.9872  -5.9856  -5.3083  -4.9770  -4.9754
    -4.9378  -4.9352  -4.5765  -4.5752  -4.4773  -4.4771  -4.4631  -4.4406
    -4.4184  -4.3110  -4.3086  -4.2855  -4.2422  -4.2418  -4.1738  -4.1728
    -4.1681  -4.1654  -4.1448  -4.1403  -4.1378  -4.0720  -4.0649  -4.0374
    -4.0355  -4.0245  -4.0242  -4.0010  -4.0008  -3.9784  -3.9702  -3.9699
    -3.9439  -3.8919  -3.8910  -3.8441  -3.8418  -3.7862  -3.7848  -3.7306
    -3.7298  -3.7289  -3.7283  -3.6933  -3.6578  -3.6561  -3.6478  -3.6471
    -3.6460  -3.6201  -3.6153  -3.6072  -3.5481  -3.5464  -3.5395  -3.5192
    -3.5117  -3.4416  -3.4391  -3.4109  -3.4052  -3.3803  -3.3776  -3.3642
    -3.3479  -3.2900  -3.2887  -3.2714  -3.2699  -3.2198  -3.2156  -3.2140
    -3.1746  -3.1464  -3.1442  -3.1361  -3.1342  -3.1244  -3.1228  -3.1148
    -3.1133  -3.1049  -3.0632  -3.0261  -3.0239  -3.0143  -3.0103  -2.9842
    -2.9791  -2.9740  -2.9542  -2.9115  -2.9070  -2.9001  -2.8642  -2.8532
    -2.8434  -2.8408  -2.8282  -2.8127  -2.7897  -2.7772  -2.7454  -2.7312
    -2.7217  -2.7151  -2.7013  -2.6893  -2.6512  -2.6473  -2.6163  -2.5954
    -2.5924  -2.5719  -2.5699  -2.5604  -2.5572  -2.5491  -2.5279  -2.5255
    -2.4815  -2.4805  -2.4796  -2.4650  -2.4632  -2.4568  -2.4491  -2.4466
    -2.4463  -2.4446  -2.4390  -2.4297  -2.4260  -2.4168  -2.3908  -2.3893
    -2.3886  -2.3868  -2.3855  -2.3833  -2.3813  -2.3562  -2.3547  -2.3402
    -2.3383  -2.3209  -2.3205  -2.3118  -2.3110  -2.3096  -2.3081  -2.2914
    -2.2877  -2.2867  -2.2852  -2.2712  -2.2443  -2.2438  -2.2039  -2.2019
    -2.1800  -2.1781  -2.1512  -2.1493  -2.1243  -2.1220  -2.1060  -2.1012
    -2.0736  -2.0550  -2.0515  -2.0471  -2.0447  -2.0422  -2.0353  -2.0332
    -2.0073  -2.0016  -1.9945  -1.9350  -1.9321  -1.9299  -1.9280  -1.9266
    -1.8933  -1.8729  -1.8705  -1.8454  -1.8428  -1.7861  -1.7833  -1.7547
    -1.7367  -1.7347  -1.6753  -1.6743  -1.6638  -1.6619  -1.6529  -1.6503
    -1.6473  -1.6393  -1.6372  -1.5832  -1.5804  -1.5724  -1.5697  -1.5687
    -1.5525  -1.5486  -1.5150  -1.5143  -1.4988  -1.4977  -1.4968  -1.4894
    -1.4847  -1.4783  -1.4736  -1.4568  -1.4544  -1.4170  -1.4120  -1.4049
    -1.4015  -1.3835  -1.3677  -1.3286  -1.3244  -1.2991  -1.2950  -1.2943
    -1.2652  -1.2144  -1.2135  -1.2119  -1.2111  -1.2072  -1.2047  -1.1966
    -1.1791  -1.1762  -1.1405  -1.1345  -1.1088  -1.1047  -1.1013  -1.0987
    -1.0928  -1.0785  -1.0770  -1.0745  -1.0718  -1.0707  -1.0368  -1.0325
    -1.0313  -1.0306  -1.0051  -1.0013  -0.9963  -0.9723  -0.9688  -0.9645
    -0.9191  -0.9161  -0.9097  -0.8818  -0.8696  -0.8594  -0.8579  -0.8530
    -0.8489  -0.8474  -0.8460  -0.8371  -0.8336  -0.8118  -0.8096  -0.8061
    -0.8045  -0.8030  -0.7736  -0.7657  -0.7638  -0.7550  -0.7432  -0.7347
    -0.7313  -0.7202  -0.7009  -0.6635  -0.6602  -0.6542  -0.6526  -0.6510
    -0.6479  -0.6360  -0.6260  -0.6221  -0.6171  -0.6164  -0.6150  -0.5934
    -0.5754  -0.5742  -0.5712  -0.5647  -0.5612  -0.5586  -0.5553  -0.5453
    -0.5391  -0.5384  -0.5198  -0.4965  -0.4953  -0.4878  -0.4834  -0.4812
    -0.4086  -0.4048  -0.4032  -0.4011  -0.3942  -0.3895  -0.3568  -0.3454
    -0.3438  -0.3135  -0.3122  -0.3076  -0.1940  -0.1883  -0.0893   0.3263
     0.3270   0.3302   0.3307   0.3923   0.3973   0.7776   0.7806   0.8211
     0.8230   0.9370   1.0130   1.1210   1.1281   1.3469   1.3532   1.9751
     1.9799   2.1368   2.1422   2.2722   2.2781   2.3756   2.3763   2.5299
     2.7675   2.7826   2.8926   3.1148   3.1210   3.1961   3.1999   3.2972
     3.3151   3.5163   3.5296   3.5698   3.7706   3.7741   3.8334   3.8400
     4.0906   4.0982   4.1042   4.3422   4.3791   4.3852   4.4289   4.7615
     4.7686   4.7942   4.9296   5.1017   5.1048   5.1638   5.1905   5.5397
     5.8110   5.8859   5.8930   5.9014   5.9285   5.9637   5.9669   6.0609
     6.0781   6.0986   6.1243   6.1346   6.1421   6.1629   6.1731   6.1854
     6.1908   6.4515   6.5912   6.7277   6.7553   6.7913   6.8407   6.8461
     6.8497   6.9549   7.0351

          k = 0.5000 0.0000 0.1111 (136853 PWs)   bands (ev):

   -18.6353  -6.5690  -6.3817  -5.9884  -5.9843  -5.3084  -4.9766  -4.9757
    -4.9394  -4.9336  -4.5765  -4.5752  -4.4774  -4.4771  -4.4631  -4.4406
    -4.4184  -4.3108  -4.3088  -4.2855  -4.2422  -4.2418  -4.1738  -4.1729
    -4.1669  -4.1661  -4.1448  -4.1402  -4.1379  -4.0719  -4.0651  -4.0374
    -4.0355  -4.0244  -4.0243  -4.0011  -4.0008  -3.9783  -3.9702  -3.9700
    -3.9441  -3.8918  -3.8913  -3.8441  -3.8418  -3.7867  -3.7850  -3.7310
    -3.7298  -3.7289  -3.7287  -3.6933  -3.6583  -3.6565  -3.6476  -3.6468
    -3.6461  -3.6183  -3.6153  -3.6073  -3.5482  -3.5466  -3.5385  -3.5193
    -3.5117  -3.4407  -3.4397  -3.4097  -3.4053  -3.3801  -3.3778  -3.3642
    -3.3479  -3.2902  -3.2889  -3.2707  -3.2702  -3.2211  -3.2150  -3.2141
    -3.1745  -3.1465  -3.1437  -3.1368  -3.1339  -3.1242  -3.1227  -3.1145
    -3.1137  -3.1047  -3.0632  -3.0262  -3.0242  -3.0122  -3.0111  -2.9838
    -2.9767  -2.9751  -2.9548  -2.9154  -2.9066  -2.9034  -2.8648  -2.8531
    -2.8449  -2.8408  -2.8316  -2.8117  -2.7844  -2.7690  -2.7451  -2.7340
    -2.7191  -2.7151  -2.7013  -2.6954  -2.6513  -2.6469  -2.6166  -2.5959
    -2.5950  -2.5715  -2.5664  -2.5595  -2.5586  -2.5493  -2.5271  -2.5257
    -2.4823  -2.4805  -2.4798  -2.4654  -2.4627  -2.4568  -2.4492  -2.4466
    -2.4461  -2.4444  -2.4391  -2.4300  -2.4259  -2.4200  -2.3904  -2.3896
    -2.3886  -2.3875  -2.3863  -2.3840  -2.3813  -2.3549  -2.3546  -2.3395
    -2.3376  -2.3210  -2.3204  -2.3114  -2.3108  -2.3096  -2.3065  -2.2919
    -2.2876  -2.2873  -2.2846  -2.2715  -2.2446  -2.2437  -2.2038  -2.2021
    -2.1804  -2.1780  -2.1512  -2.1510  -2.1230  -2.1211  -2.1050  -2.1012
    -2.0737  -2.0527  -2.0517  -2.0461  -2.0449  -2.0410  -2.0344  -2.0327
    -2.0074  -2.0019  -1.9946  -1.9360  -1.9340  -1.9303  -1.9276  -1.9263
    -1.8947  -1.8727  -1.8708  -1.8454  -1.8437  -1.7859  -1.7834  -1.7554
    -1.7355  -1.7347  -1.6754  -1.6737  -1.6642  -1.6616  -1.6529  -1.6505
    -1.6473  -1.6394  -1.6371  -1.5817  -1.5807  -1.5724  -1.5707  -1.5692
    -1.5513  -1.5485  -1.5157  -1.5145  -1.4982  -1.4977  -1.4967  -1.4893
    -1.4861  -1.4787  -1.4737  -1.4562  -1.4550  -1.4159  -1.4134  -1.4048
    -1.4011  -1.3836  -1.3677  -1.3283  -1.3243  -1.2990  -1.2952  -1.2943
    -1.2650  -1.2153  -1.2124  -1.2118  -1.2100  -1.2061  -1.2042  -1.1959
    -1.1799  -1.1760  -1.1400  -1.1348  -1.1101  -1.1056  -1.1004  -1.0995
    -1.0930  -1.0800  -1.0776  -1.0749  -1.0714  -1.0706  -1.0350  -1.0322
    -1.0308  -1.0305  -1.0047  -1.0006  -0.9962  -0.9731  -0.9689  -0.9632
    -0.9255  -0.9187  -0.9104  -0.8811  -0.8691  -0.8606  -0.8566  -0.8538
    -0.8482  -0.8475  -0.8457  -0.8356  -0.8340  -0.8109  -0.8091  -0.8060
    -0.8046  -0.8032  -0.7672  -0.7659  -0.7603  -0.7546  -0.7508  -0.7358
    -0.7307  -0.7208  -0.6912  -0.6634  -0.6593  -0.6529  -0.6520  -0.6506
    -0.6493  -0.6440  -0.6260  -0.6215  -0.6176  -0.6168  -0.6153  -0.5954
    -0.5753  -0.5734  -0.5726  -0.5645  -0.5611  -0.5582  -0.5503  -0.5421
    -0.5386  -0.5382  -0.5300  -0.4964  -0.4944  -0.4883  -0.4828  -0.4792
    -0.4079  -0.4052  -0.4031  -0.4008  -0.3935  -0.3930  -0.3574  -0.3451
    -0.3440  -0.3149  -0.3125  -0.3068  -0.1913  -0.1895  -0.0886   0.3261
     0.3271   0.3303   0.3306   0.3920   0.3951   0.7774   0.7801   0.8215
     0.8228   0.9378   1.0140   1.1217   1.1293   1.3434   1.3564   1.9762
     1.9776   2.1380   2.1414   2.2718   2.2775   2.3751   2.3767   2.5299
     2.7671   2.7834   2.8929   3.1129   3.1237   3.1965   3.1996   3.2969
     3.3152   3.5097   3.5362   3.5697   3.7708   3.7740   3.8354   3.8380
     4.0894   4.0994   4.1043   4.3422   4.3803   4.3839   4.4292   4.7627
     4.7683   4.7922   4.9298   5.1022   5.1045   5.1639   5.1914   5.5430
     5.7997   5.8872   5.8944   5.9015   5.9396   5.9652   5.9669   6.0554
     6.0768   6.0988   6.1267   6.1340   6.1363   6.1587   6.1713   6.1858
     6.1953   6.4482   6.6026   6.7186   6.7584   6.8000   6.8386   6.8468
     6.8511   6.9543   7.0388

          k =-0.5000 0.0000 0.1111 (136853 PWs)   bands (ev):

   -18.6353  -6.5690  -6.3817  -5.9884  -5.9843  -5.3084  -4.9766  -4.9757
    -4.9394  -4.9336  -4.5765  -4.5752  -4.4774  -4.4771  -4.4631  -4.4406
    -4.4184  -4.3108  -4.3088  -4.2855  -4.2422  -4.2418  -4.1738  -4.1729
    -4.1669  -4.1661  -4.1448  -4.1402  -4.1379  -4.0719  -4.0651  -4.0374
    -4.0355  -4.0244  -4.0243  -4.0011  -4.0008  -3.9783  -3.9702  -3.9700
    -3.9441  -3.8918  -3.8913  -3.8441  -3.8418  -3.7867  -3.7850  -3.7310
    -3.7298  -3.7289  -3.7287  -3.6933  -3.6583  -3.6565  -3.6476  -3.6468
    -3.6461  -3.6183  -3.6153  -3.6073  -3.5482  -3.5466  -3.5385  -3.5193
    -3.5117  -3.4407  -3.4397  -3.4097  -3.4053  -3.3801  -3.3778  -3.3642
    -3.3479  -3.2902  -3.2889  -3.2707  -3.2702  -3.2211  -3.2150  -3.2141
    -3.1745  -3.1465  -3.1437  -3.1368  -3.1339  -3.1242  -3.1227  -3.1145
    -3.1137  -3.1047  -3.0632  -3.0262  -3.0242  -3.0122  -3.0111  -2.9838
    -2.9767  -2.9751  -2.9548  -2.9154  -2.9066  -2.9034  -2.8648  -2.8531
    -2.8449  -2.8408  -2.8316  -2.8117  -2.7844  -2.7690  -2.7451  -2.7340
    -2.7191  -2.7151  -2.7013  -2.6954  -2.6513  -2.6469  -2.6166  -2.5959
    -2.5950  -2.5715  -2.5664  -2.5595  -2.5586  -2.5493  -2.5271  -2.5257
    -2.4823  -2.4805  -2.4798  -2.4654  -2.4627  -2.4568  -2.4492  -2.4466
    -2.4461  -2.4444  -2.4391  -2.4300  -2.4259  -2.4200  -2.3904  -2.3896
    -2.3886  -2.3875  -2.3863  -2.3840  -2.3813  -2.3549  -2.3546  -2.3395
    -2.3376  -2.3210  -2.3204  -2.3114  -2.3108  -2.3096  -2.3065  -2.2919
    -2.2876  -2.2873  -2.2846  -2.2715  -2.2446  -2.2437  -2.2038  -2.2021
    -2.1804  -2.1780  -2.1512  -2.1510  -2.1230  -2.1211  -2.1050  -2.1012
    -2.0737  -2.0527  -2.0517  -2.0461  -2.0449  -2.0410  -2.0344  -2.0327
    -2.0074  -2.0019  -1.9946  -1.9360  -1.9340  -1.9303  -1.9276  -1.9263
    -1.8947  -1.8727  -1.8708  -1.8454  -1.8437  -1.7859  -1.7834  -1.7554
    -1.7355  -1.7347  -1.6754  -1.6737  -1.6642  -1.6616  -1.6529  -1.6505
    -1.6473  -1.6394  -1.6371  -1.5817  -1.5807  -1.5724  -1.5707  -1.5692
    -1.5513  -1.5485  -1.5157  -1.5145  -1.4982  -1.4977  -1.4967  -1.4893
    -1.4861  -1.4787  -1.4737  -1.4562  -1.4550  -1.4159  -1.4134  -1.4048
    -1.4011  -1.3836  -1.3677  -1.3283  -1.3243  -1.2990  -1.2952  -1.2943
    -1.2650  -1.2153  -1.2124  -1.2118  -1.2100  -1.2061  -1.2042  -1.1959
    -1.1799  -1.1760  -1.1400  -1.1348  -1.1101  -1.1056  -1.1004  -1.0995
    -1.0930  -1.0800  -1.0776  -1.0749  -1.0714  -1.0706  -1.0350  -1.0322
    -1.0308  -1.0305  -1.0047  -1.0006  -0.9962  -0.9731  -0.9689  -0.9632
    -0.9255  -0.9187  -0.9104  -0.8811  -0.8691  -0.8606  -0.8566  -0.8538
    -0.8482  -0.8475  -0.8457  -0.8356  -0.8340  -0.8109  -0.8091  -0.8060
    -0.8046  -0.8032  -0.7672  -0.7659  -0.7603  -0.7546  -0.7508  -0.7358
    -0.7307  -0.7208  -0.6912  -0.6634  -0.6593  -0.6529  -0.6520  -0.6506
    -0.6493  -0.6440  -0.6260  -0.6215  -0.6176  -0.6168  -0.6153  -0.5954
    -0.5753  -0.5734  -0.5726  -0.5645  -0.5611  -0.5582  -0.5503  -0.5421
    -0.5386  -0.5382  -0.5300  -0.4964  -0.4944  -0.4883  -0.4828  -0.4792
    -0.4079  -0.4052  -0.4031  -0.4008  -0.3935  -0.3930  -0.3574  -0.3451
    -0.3440  -0.3149  -0.3125  -0.3068  -0.1913  -0.1895  -0.0886   0.3261
     0.3271   0.3303   0.3306   0.3920   0.3951   0.7774   0.7801   0.8215
     0.8228   0.9378   1.0140   1.1217   1.1293   1.3434   1.3564   1.9762
     1.9776   2.1380   2.1414   2.2718   2.2775   2.3751   2.3767   2.5299
     2.7671   2.7834   2.8929   3.1129   3.1237   3.1965   3.1996   3.2969
     3.3152   3.5097   3.5362   3.5697   3.7708   3.7740   3.8354   3.8380
     4.0894   4.0994   4.1043   4.3422   4.3803   4.3839   4.4292   4.7627
     4.7683   4.7922   4.9298   5.1022   5.1045   5.1639   5.1914   5.5430
     5.7996   5.8872   5.8944   5.9015   5.9396   5.9652   5.9669   6.0554
     6.0768   6.0987   6.1268   6.1342   6.1364   6.1587   6.1712   6.1858
     6.1953   6.4482   6.6028   6.7175   6.7580   6.8001   6.8386   6.8468
     6.8508   6.9543   7.0388

          k =-0.2500 0.1443 0.1111 (136898 PWs)   bands (ev):

   -18.6353  -6.6172  -6.5427  -5.8041  -5.5115  -5.4548  -5.4536  -4.9164
    -4.9159  -4.7847  -4.7837  -4.6288  -4.5999  -4.5365  -4.5042  -4.5019
    -4.4697  -4.4693  -4.3409  -4.2993  -4.2988  -4.2396  -4.2189  -4.2179
    -4.1158  -4.1156  -4.0795  -4.0791  -4.0790  -4.0528  -4.0308  -4.0306
    -3.9280  -3.9237  -3.9233  -3.9038  -3.8862  -3.8859  -3.8746  -3.8735
    -3.8619  -3.8310  -3.8304  -3.8298  -3.8295  -3.7989  -3.7974  -3.7795
    -3.7792  -3.7688  -3.7262  -3.7245  -3.6922  -3.6789  -3.6759  -3.6708
    -3.6707  -3.5966  -3.5964  -3.5633  -3.5601  -3.5585  -3.4911  -3.4908
    -3.4760  -3.4752  -3.4467  -3.4449  -3.4443  -3.4441  -3.2901  -3.2893
    -3.2675  -3.2650  -3.2603  -3.2437  -3.2429  -3.2189  -3.2176  -3.1683
    -3.1672  -3.1522  -3.1509  -3.1307  -3.0849  -3.0831  -3.0637  -3.0581
    -3.0575  -3.0182  -3.0167  -3.0108  -3.0087  -2.9953  -2.9928  -2.9549
    -2.9540  -2.9394  -2.9314  -2.9291  -2.9282  -2.9248  -2.8574  -2.8486
    -2.8471  -2.8205  -2.8170  -2.7978  -2.7558  -2.7373  -2.7271  -2.7214
    -2.7136  -2.7109  -2.7053  -2.6779  -2.6720  -2.6676  -2.6496  -2.6266
    -2.6250  -2.6191  -2.6040  -2.6022  -2.5932  -2.5923  -2.5890  -2.5829
    -2.5797  -2.5340  -2.5025  -2.5017  -2.4860  -2.4730  -2.4672  -2.4653
    -2.4593  -2.4582  -2.4562  -2.4274  -2.4265  -2.4243  -2.4170  -2.4167
    -2.4008  -2.3732  -2.3726  -2.3715  -2.3705  -2.3703  -2.3244  -2.2944
    -2.2932  -2.2926  -2.2865  -2.2768  -2.2643  -2.2632  -2.2473  -2.2471
    -2.2175  -2.2127  -2.2125  -2.1943  -2.1928  -2.1915  -2.1599  -2.1593
    -2.1222  -2.1162  -2.1121  -2.1093  -2.1083  -2.1029  -2.1019  -2.0988
    -2.0976  -2.0928  -2.0912  -2.0757  -2.0745  -1.9493  -1.9474  -1.9164
    -1.9098  -1.9085  -1.9026  -1.9022  -1.8871  -1.8853  -1.8830  -1.8823
    -1.8801  -1.8578  -1.8520  -1.8498  -1.8424  -1.8385  -1.8373  -1.8151
    -1.8140  -1.7863  -1.7853  -1.7560  -1.7547  -1.7440  -1.7356  -1.7181
    -1.7168  -1.7142  -1.6973  -1.6832  -1.6828  -1.6758  -1.6757  -1.6507
    -1.6496  -1.6328  -1.6322  -1.5995  -1.5980  -1.5903  -1.5415  -1.5400
    -1.5286  -1.5251  -1.5246  -1.5000  -1.4974  -1.4663  -1.4650  -1.4632
    -1.4301  -1.4206  -1.4194  -1.4040  -1.4030  -1.3787  -1.3762  -1.3755
    -1.3467  -1.3447  -1.3430  -1.2816  -1.2805  -1.2699  -1.2672  -1.2523
    -1.2515  -1.2385  -1.2378  -1.2201  -1.2071  -1.1804  -1.1796  -1.1681
    -1.1402  -1.1309  -1.1287  -1.1173  -1.1169  -1.1167  -1.1136  -1.1095
    -1.0954  -1.0690  -1.0671  -1.0566  -1.0524  -1.0516  -1.0506  -1.0301
    -1.0163  -1.0087  -0.9927  -0.9882  -0.8971  -0.8847  -0.8817  -0.8773
    -0.8760  -0.8697  -0.8673  -0.8544  -0.8442  -0.8289  -0.8261  -0.8140
    -0.8125  -0.8043  -0.7861  -0.7826  -0.7801  -0.7724  -0.7246  -0.6994
    -0.6985  -0.6657  -0.6613  -0.6591  -0.6544  -0.6522  -0.6517  -0.6433
    -0.6389  -0.6234  -0.6178  -0.5972  -0.5733  -0.5643  -0.5626  -0.5528
    -0.5472  -0.5400  -0.5392  -0.5371  -0.5358  -0.5260  -0.5192  -0.5149
    -0.5064  -0.4843  -0.4828  -0.4777  -0.4698  -0.4680  -0.4503  -0.4187
    -0.4160  -0.4090  -0.4047  -0.3414  -0.3395  -0.3049  -0.3042  -0.2471
    -0.2455  -0.2448  -0.2266  -0.2195   0.0102   0.0132   0.3553   0.3554
     0.4475   0.4528   0.6444   0.6610   0.6728   0.8026   0.8036   1.2355
     1.2359   1.2526   1.5168   1.5452   1.5458   1.8235   1.8305   1.9001
     1.9007   1.9279   1.9325   2.1555   2.1580   2.2464   2.2473   2.3282
     2.3862   2.3932   2.5494   2.6511   3.0842   3.0882   3.0919   3.0931
     3.1436   3.1480   3.4385   3.4400   3.7199   3.7266   3.8371   4.1353
     4.1748   4.1805   4.4013   4.4237   4.4777   4.4803   4.5718   4.6884
     4.6910   4.8053   4.8073   5.1095   5.1762   5.1839   5.3336   5.3739
     5.4480   5.5618   5.5679   5.5922   5.5956   5.6522   5.6574   5.7148
     5.8780   6.0603   6.2595   6.2863   6.3617   6.3967   6.4011   6.4127
     6.4161   6.5555   6.6444   6.6545   6.6694   6.8456   6.8894   6.9179
     6.9405   7.0214   7.1092

          k =-0.2500-0.1443-0.1111 (136898 PWs)   bands (ev):

   -18.6353  -6.6172  -6.5427  -5.8042  -5.5114  -5.4547  -5.4537  -4.9163
    -4.9158  -4.7845  -4.7840  -4.6288  -4.5999  -4.5366  -4.5041  -4.5020
    -4.4695  -4.4693  -4.3408  -4.2992  -4.2990  -4.2396  -4.2189  -4.2180
    -4.1158  -4.1155  -4.0795  -4.0791  -4.0789  -4.0528  -4.0308  -4.0305
    -3.9280  -3.9236  -3.9235  -3.9037  -3.8864  -3.8859  -3.8746  -3.8735
    -3.8619  -3.8311  -3.8303  -3.8297  -3.8294  -3.7989  -3.7974  -3.7794
    -3.7792  -3.7687  -3.7264  -3.7244  -3.6925  -3.6788  -3.6759  -3.6709
    -3.6706  -3.5966  -3.5965  -3.5632  -3.5599  -3.5585  -3.4912  -3.4909
    -3.4758  -3.4751  -3.4465  -3.4451  -3.4445  -3.4442  -3.2902  -3.2894
    -3.2675  -3.2649  -3.2602  -3.2436  -3.2429  -3.2189  -3.2173  -3.1683
    -3.1672  -3.1522  -3.1509  -3.1306  -3.0850  -3.0828  -3.0639  -3.0583
    -3.0576  -3.0179  -3.0167  -3.0109  -3.0088  -2.9955  -2.9929  -2.9548
    -2.9538  -2.9394  -2.9314  -2.9290  -2.9282  -2.9247  -2.8571  -2.8486
    -2.8473  -2.8206  -2.8171  -2.7988  -2.7556  -2.7366  -2.7270  -2.7221
    -2.7134  -2.7104  -2.7052  -2.6776  -2.6717  -2.6677  -2.6496  -2.6267
    -2.6251  -2.6201  -2.6040  -2.6024  -2.5935  -2.5927  -2.5890  -2.5822
    -2.5798  -2.5340  -2.5026  -2.5017  -2.4858  -2.4731  -2.4672  -2.4653
    -2.4593  -2.4582  -2.4565  -2.4275  -2.4262  -2.4243  -2.4170  -2.4165
    -2.4007  -2.3731  -2.3723  -2.3714  -2.3709  -2.3705  -2.3245  -2.2946
    -2.2932  -2.2927  -2.2864  -2.2768  -2.2641  -2.2632  -2.2472  -2.2469
    -2.2174  -2.2127  -2.2124  -2.1944  -2.1928  -2.1914  -2.1599  -2.1593
    -2.1221  -2.1161  -2.1117  -2.1092  -2.1082  -2.1033  -2.1017  -2.0991
    -2.0981  -2.0926  -2.0910  -2.0758  -2.0748  -1.9492  -1.9474  -1.9162
    -1.9098  -1.9084  -1.9026  -1.9021  -1.8878  -1.8858  -1.8830  -1.8823
    -1.8794  -1.8578  -1.8518  -1.8497  -1.8424  -1.8384  -1.8368  -1.8153
    -1.8142  -1.7863  -1.7856  -1.7560  -1.7548  -1.7440  -1.7355  -1.7180
    -1.7168  -1.7139  -1.6972  -1.6834  -1.6829  -1.6760  -1.6758  -1.6504
    -1.6494  -1.6328  -1.6322  -1.6000  -1.5982  -1.5903  -1.5417  -1.5399
    -1.5283  -1.5251  -1.5245  -1.5002  -1.4971  -1.4665  -1.4650  -1.4630
    -1.4300  -1.4205  -1.4194  -1.4038  -1.4030  -1.3787  -1.3763  -1.3754
    -1.3467  -1.3445  -1.3431  -1.2821  -1.2805  -1.2698  -1.2673  -1.2527
    -1.2514  -1.2386  -1.2376  -1.2196  -1.2069  -1.1802  -1.1796  -1.1680
    -1.1393  -1.1309  -1.1287  -1.1173  -1.1170  -1.1167  -1.1136  -1.1097
    -1.0954  -1.0703  -1.0668  -1.0583  -1.0521  -1.0518  -1.0507  -1.0303
    -1.0156  -1.0089  -0.9920  -0.9881  -0.8969  -0.8850  -0.8809  -0.8773
    -0.8758  -0.8700  -0.8672  -0.8529  -0.8443  -0.8290  -0.8263  -0.8146
    -0.8125  -0.8045  -0.7866  -0.7825  -0.7803  -0.7725  -0.7253  -0.6992
    -0.6980  -0.6656  -0.6614  -0.6592  -0.6547  -0.6522  -0.6518  -0.6441
    -0.6387  -0.6230  -0.6166  -0.5971  -0.5751  -0.5643  -0.5624  -0.5530
    -0.5478  -0.5399  -0.5390  -0.5371  -0.5360  -0.5255  -0.5191  -0.5150
    -0.5065  -0.4842  -0.4825  -0.4774  -0.4697  -0.4673  -0.4504  -0.4186
    -0.4161  -0.4089  -0.4050  -0.3412  -0.3395  -0.3049  -0.3042  -0.2471
    -0.2454  -0.2448  -0.2275  -0.2195   0.0107   0.0138   0.3553   0.3554
     0.4478   0.4528   0.6435   0.6612   0.6729   0.8025   0.8036   1.2355
     1.2359   1.2528   1.5166   1.5453   1.5458   1.8240   1.8302   1.9001
     1.9006   1.9280   1.9324   2.1553   2.1581   2.2464   2.2473   2.3283
     2.3865   2.3928   2.5491   2.6510   3.0841   3.0884   3.0921   3.0931
     3.1435   3.1484   3.4382   3.4403   3.7201   3.7264   3.8370   4.1354
     4.1745   4.1801   4.4020   4.4230   4.4776   4.4806   4.5717   4.6884
     4.6911   4.8057   4.8076   5.1094   5.1764   5.1841   5.3348   5.3731
     5.4471   5.5613   5.5676   5.5923   5.5956   5.6528   5.6572   5.7157
     5.8782   6.0625   6.2587   6.2843   6.3589   6.3964   6.4013   6.4130
     6.4161   6.5563   6.6451   6.6545   6.6703   6.8464   6.8915   6.9163
     6.9387   7.0230   7.1072

          k = 0.2500 0.1443-0.1111 (136898 PWs)   bands (ev):

   -18.6353  -6.6172  -6.5427  -5.8042  -5.5114  -5.4547  -5.4537  -4.9163
    -4.9158  -4.7845  -4.7840  -4.6288  -4.5999  -4.5366  -4.5041  -4.5020
    -4.4695  -4.4693  -4.3408  -4.2992  -4.2990  -4.2396  -4.2189  -4.2180
    -4.1158  -4.1155  -4.0795  -4.0791  -4.0789  -4.0528  -4.0308  -4.0305
    -3.9280  -3.9236  -3.9235  -3.9037  -3.8864  -3.8859  -3.8746  -3.8735
    -3.8619  -3.8311  -3.8303  -3.8297  -3.8294  -3.7989  -3.7974  -3.7794
    -3.7792  -3.7687  -3.7264  -3.7244  -3.6924  -3.6788  -3.6759  -3.6709
    -3.6706  -3.5966  -3.5965  -3.5632  -3.5599  -3.5585  -3.4912  -3.4909
    -3.4758  -3.4751  -3.4465  -3.4451  -3.4445  -3.4442  -3.2902  -3.2894
    -3.2675  -3.2649  -3.2602  -3.2437  -3.2429  -3.2189  -3.2173  -3.1683
    -3.1672  -3.1522  -3.1509  -3.1306  -3.0850  -3.0828  -3.0639  -3.0583
    -3.0576  -3.0179  -3.0167  -3.0109  -3.0088  -2.9954  -2.9929  -2.9548
    -2.9538  -2.9394  -2.9314  -2.9290  -2.9282  -2.9247  -2.8571  -2.8486
    -2.8473  -2.8206  -2.8171  -2.7988  -2.7556  -2.7366  -2.7270  -2.7221
    -2.7134  -2.7104  -2.7052  -2.6776  -2.6717  -2.6677  -2.6497  -2.6267
    -2.6251  -2.6201  -2.6040  -2.6024  -2.5935  -2.5927  -2.5890  -2.5822
    -2.5798  -2.5340  -2.5026  -2.5017  -2.4858  -2.4731  -2.4672  -2.4653
    -2.4593  -2.4582  -2.4565  -2.4275  -2.4262  -2.4243  -2.4170  -2.4165
    -2.4007  -2.3731  -2.3723  -2.3714  -2.3709  -2.3705  -2.3245  -2.2946
    -2.2932  -2.2927  -2.2864  -2.2768  -2.2641  -2.2632  -2.2472  -2.2469
    -2.2174  -2.2126  -2.2124  -2.1944  -2.1928  -2.1914  -2.1599  -2.1593
    -2.1221  -2.1161  -2.1117  -2.1092  -2.1082  -2.1033  -2.1017  -2.0991
    -2.0981  -2.0926  -2.0910  -2.0758  -2.0748  -1.9492  -1.9474  -1.9162
    -1.9098  -1.9084  -1.9026  -1.9021  -1.8878  -1.8858  -1.8830  -1.8823
    -1.8794  -1.8578  -1.8518  -1.8497  -1.8424  -1.8384  -1.8368  -1.8153
    -1.8142  -1.7863  -1.7856  -1.7560  -1.7548  -1.7440  -1.7355  -1.7180
    -1.7168  -1.7139  -1.6972  -1.6834  -1.6829  -1.6759  -1.6758  -1.6504
    -1.6494  -1.6328  -1.6322  -1.6000  -1.5982  -1.5904  -1.5417  -1.5399
    -1.5283  -1.5251  -1.5246  -1.5002  -1.4971  -1.4665  -1.4650  -1.4630
    -1.4300  -1.4205  -1.4194  -1.4038  -1.4030  -1.3786  -1.3763  -1.3754
    -1.3467  -1.3445  -1.3431  -1.2821  -1.2805  -1.2698  -1.2673  -1.2527
    -1.2514  -1.2386  -1.2376  -1.2196  -1.2069  -1.1802  -1.1796  -1.1680
    -1.1393  -1.1309  -1.1287  -1.1173  -1.1170  -1.1167  -1.1136  -1.1096
    -1.0954  -1.0703  -1.0668  -1.0583  -1.0521  -1.0518  -1.0507  -1.0303
    -1.0156  -1.0089  -0.9920  -0.9881  -0.8969  -0.8850  -0.8809  -0.8773
    -0.8758  -0.8700  -0.8672  -0.8529  -0.8443  -0.8290  -0.8263  -0.8146
    -0.8125  -0.8045  -0.7866  -0.7825  -0.7803  -0.7725  -0.7253  -0.6992
    -0.6980  -0.6656  -0.6614  -0.6592  -0.6547  -0.6522  -0.6518  -0.6441
    -0.6387  -0.6230  -0.6166  -0.5971  -0.5751  -0.5643  -0.5624  -0.5530
    -0.5478  -0.5399  -0.5390  -0.5371  -0.5360  -0.5255  -0.5191  -0.5150
    -0.5065  -0.4842  -0.4825  -0.4774  -0.4697  -0.4673  -0.4504  -0.4186
    -0.4161  -0.4089  -0.4050  -0.3412  -0.3395  -0.3049  -0.3042  -0.2471
    -0.2454  -0.2448  -0.2275  -0.2195   0.0107   0.0138   0.3553   0.3554
     0.4478   0.4528   0.6435   0.6612   0.6729   0.8025   0.8036   1.2355
     1.2359   1.2528   1.5166   1.5453   1.5458   1.8240   1.8302   1.9001
     1.9006   1.9280   1.9324   2.1553   2.1581   2.2464   2.2473   2.3283
     2.3865   2.3928   2.5491   2.6510   3.0841   3.0884   3.0921   3.0931
     3.1435   3.1484   3.4382   3.4403   3.7201   3.7264   3.8370   4.1354
     4.1745   4.1801   4.4020   4.4230   4.4776   4.4806   4.5717   4.6884
     4.6911   4.8057   4.8076   5.1094   5.1764   5.1841   5.3348   5.3731
     5.4472   5.5613   5.5676   5.5923   5.5956   5.6528   5.6572   5.7159
     5.8771   6.0645   6.2585   6.2854   6.3591   6.3964   6.4014   6.4130
     6.4160   6.5513   6.6451   6.6531   6.6656   6.8477   6.8929   6.9167
     6.9404   7.0246   7.1095

          k = 0.0000-0.2887 0.1111 (136898 PWs)   bands (ev):

   -18.6353  -6.6172  -6.5426  -5.8041  -5.5115  -5.4544  -5.4540  -4.9162
    -4.9160  -4.7851  -4.7831  -4.6288  -4.5999  -4.5366  -4.5035  -4.5030
    -4.4695  -4.4693  -4.3408  -4.2992  -4.2989  -4.2392  -4.2189  -4.2184
    -4.1157  -4.1156  -4.0795  -4.0791  -4.0790  -4.0527  -4.0308  -4.0306
    -3.9277  -3.9238  -3.9233  -3.9034  -3.8863  -3.8860  -3.8747  -3.8735
    -3.8614  -3.8314  -3.8304  -3.8296  -3.8294  -3.7990  -3.7976  -3.7794
    -3.7792  -3.7678  -3.7266  -3.7252  -3.6918  -3.6788  -3.6760  -3.6709
    -3.6706  -3.5968  -3.5965  -3.5629  -3.5603  -3.5588  -3.4913  -3.4909
    -3.4757  -3.4752  -3.4470  -3.4450  -3.4444  -3.4440  -3.2912  -3.2893
    -3.2661  -3.2653  -3.2609  -3.2437  -3.2430  -3.2192  -3.2177  -3.1691
    -3.1672  -3.1528  -3.1508  -3.1304  -3.0837  -3.0829  -3.0638  -3.0587
    -3.0575  -3.0200  -3.0167  -3.0097  -3.0089  -2.9945  -2.9931  -2.9554
    -2.9538  -2.9365  -2.9318  -2.9290  -2.9283  -2.9251  -2.8638  -2.8486
    -2.8469  -2.8192  -2.8170  -2.7831  -2.7564  -2.7500  -2.7270  -2.7165
    -2.7134  -2.7131  -2.7050  -2.6779  -2.6748  -2.6678  -2.6484  -2.6266
    -2.6251  -2.6154  -2.6040  -2.6012  -2.5933  -2.5916  -2.5889  -2.5842
    -2.5798  -2.5340  -2.5026  -2.5023  -2.4861  -2.4732  -2.4674  -2.4655
    -2.4589  -2.4585  -2.4564  -2.4275  -2.4268  -2.4252  -2.4166  -2.4163
    -2.4003  -2.3727  -2.3721  -2.3711  -2.3708  -2.3696  -2.3246  -2.2944
    -2.2932  -2.2929  -2.2866  -2.2768  -2.2648  -2.2634  -2.2471  -2.2470
    -2.2170  -2.2125  -2.2123  -2.1945  -2.1930  -2.1928  -2.1594  -2.1593
    -2.1221  -2.1162  -2.1117  -2.1090  -2.1085  -2.1032  -2.1023  -2.1001
    -2.0983  -2.0920  -2.0918  -2.0749  -2.0747  -1.9499  -1.9482  -1.9138
    -1.9094  -1.9093  -1.9026  -1.9023  -1.8881  -1.8862  -1.8829  -1.8813
    -1.8792  -1.8578  -1.8521  -1.8512  -1.8425  -1.8379  -1.8373  -1.8159
    -1.8144  -1.7869  -1.7858  -1.7553  -1.7541  -1.7440  -1.7352  -1.7177
    -1.7169  -1.7141  -1.6972  -1.6835  -1.6829  -1.6760  -1.6757  -1.6496
    -1.6494  -1.6330  -1.6324  -1.6011  -1.5984  -1.5893  -1.5414  -1.5401
    -1.5261  -1.5251  -1.5247  -1.5003  -1.4971  -1.4678  -1.4648  -1.4639
    -1.4290  -1.4205  -1.4198  -1.4037  -1.4031  -1.3785  -1.3761  -1.3748
    -1.3473  -1.3437  -1.3432  -1.2832  -1.2802  -1.2701  -1.2674  -1.2530
    -1.2522  -1.2392  -1.2374  -1.2197  -1.2070  -1.1798  -1.1793  -1.1672
    -1.1363  -1.1304  -1.1297  -1.1172  -1.1170  -1.1160  -1.1111  -1.1101
    -1.0954  -1.0748  -1.0674  -1.0631  -1.0536  -1.0515  -1.0509  -1.0303
    -1.0116  -1.0101  -0.9894  -0.9888  -0.8966  -0.8853  -0.8782  -0.8780
    -0.8733  -0.8720  -0.8675  -0.8451  -0.8441  -0.8286  -0.8275  -0.8186
    -0.8126  -0.8050  -0.7902  -0.7814  -0.7813  -0.7727  -0.7271  -0.6994
    -0.6953  -0.6657  -0.6619  -0.6586  -0.6548  -0.6522  -0.6519  -0.6479
    -0.6393  -0.6226  -0.6077  -0.5970  -0.5839  -0.5643  -0.5619  -0.5531
    -0.5498  -0.5398  -0.5396  -0.5368  -0.5360  -0.5243  -0.5187  -0.5147
    -0.5073  -0.4841  -0.4826  -0.4762  -0.4697  -0.4635  -0.4500  -0.4186
    -0.4168  -0.4090  -0.4072  -0.3407  -0.3376  -0.3048  -0.3042  -0.2462
    -0.2457  -0.2449  -0.2309  -0.2195   0.0099   0.0184   0.3552   0.3555
     0.4481   0.4536   0.6407   0.6618   0.6728   0.8021   0.8036   1.2356
     1.2358   1.2525   1.5159   1.5452   1.5458   1.8244   1.8308   1.8999
     1.9016   1.9277   1.9324   2.1558   2.1578   2.2463   2.2474   2.3286
     2.3873   2.3919   2.5486   2.6503   3.0821   3.0911   3.0916   3.0933
     3.1441   3.1480   3.4382   3.4403   3.7206   3.7261   3.8371   4.1356
     4.1744   4.1803   4.4025   4.4212   4.4791   4.4797   4.5713   4.6872
     4.6923   4.8045   4.8079   5.1086   5.1777   5.1836   5.3418   5.3706
     5.4414   5.5624   5.5680   5.5902   5.5961   5.6484   5.6615   5.7183
     5.8773   6.0772   6.2613   6.2762   6.3463   6.3978   6.3997   6.4106
     6.4169   6.5504   6.6426   6.6558   6.6712   6.8606   6.8908   6.9185
     6.9317   7.0229   7.0962

          k = 0.0000 0.2887 0.1111 (136898 PWs)   bands (ev):

   -18.6353  -6.6172  -6.5426  -5.8041  -5.5115  -5.4544  -5.4540  -4.9162
    -4.9160  -4.7851  -4.7831  -4.6288  -4.5999  -4.5366  -4.5035  -4.5030
    -4.4695  -4.4693  -4.3408  -4.2992  -4.2989  -4.2392  -4.2189  -4.2184
    -4.1157  -4.1156  -4.0795  -4.0791  -4.0790  -4.0527  -4.0308  -4.0306
    -3.9277  -3.9238  -3.9233  -3.9034  -3.8863  -3.8860  -3.8747  -3.8735
    -3.8614  -3.8314  -3.8304  -3.8296  -3.8294  -3.7990  -3.7976  -3.7794
    -3.7792  -3.7678  -3.7266  -3.7252  -3.6918  -3.6788  -3.6760  -3.6709
    -3.6706  -3.5968  -3.5965  -3.5629  -3.5603  -3.5588  -3.4913  -3.4909
    -3.4757  -3.4752  -3.4470  -3.4450  -3.4444  -3.4440  -3.2912  -3.2893
    -3.2661  -3.2653  -3.2609  -3.2437  -3.2430  -3.2192  -3.2177  -3.1691
    -3.1672  -3.1528  -3.1508  -3.1304  -3.0837  -3.0829  -3.0638  -3.0587
    -3.0575  -3.0200  -3.0167  -3.0097  -3.0089  -2.9945  -2.9931  -2.9554
    -2.9538  -2.9365  -2.9318  -2.9290  -2.9283  -2.9251  -2.8638  -2.8486
    -2.8469  -2.8192  -2.8170  -2.7831  -2.7564  -2.7500  -2.7270  -2.7165
    -2.7134  -2.7131  -2.7050  -2.6779  -2.6748  -2.6678  -2.6484  -2.6266
    -2.6251  -2.6154  -2.6040  -2.6012  -2.5933  -2.5916  -2.5889  -2.5842
    -2.5798  -2.5340  -2.5026  -2.5023  -2.4861  -2.4732  -2.4674  -2.4655
    -2.4589  -2.4585  -2.4564  -2.4275  -2.4268  -2.4252  -2.4166  -2.4163
    -2.4003  -2.3727  -2.3721  -2.3711  -2.3708  -2.3696  -2.3246  -2.2943
    -2.2932  -2.2929  -2.2866  -2.2768  -2.2648  -2.2634  -2.2471  -2.2470
    -2.2170  -2.2125  -2.2123  -2.1945  -2.1930  -2.1928  -2.1594  -2.1593
    -2.1221  -2.1162  -2.1117  -2.1090  -2.1085  -2.1032  -2.1023  -2.1001
    -2.0983  -2.0920  -2.0918  -2.0749  -2.0747  -1.9499  -1.9482  -1.9138
    -1.9094  -1.9093  -1.9026  -1.9023  -1.8881  -1.8862  -1.8829  -1.8813
    -1.8792  -1.8578  -1.8521  -1.8512  -1.8425  -1.8379  -1.8373  -1.8159
    -1.8144  -1.7869  -1.7858  -1.7553  -1.7541  -1.7440  -1.7352  -1.7177
    -1.7169  -1.7141  -1.6972  -1.6835  -1.6829  -1.6760  -1.6757  -1.6496
    -1.6494  -1.6330  -1.6324  -1.6011  -1.5984  -1.5893  -1.5414  -1.5401
    -1.5261  -1.5251  -1.5247  -1.5003  -1.4971  -1.4678  -1.4648  -1.4639
    -1.4290  -1.4205  -1.4198  -1.4037  -1.4031  -1.3785  -1.3761  -1.3748
    -1.3474  -1.3437  -1.3432  -1.2832  -1.2802  -1.2701  -1.2674  -1.2530
    -1.2522  -1.2392  -1.2374  -1.2197  -1.2070  -1.1798  -1.1793  -1.1672
    -1.1363  -1.1304  -1.1297  -1.1172  -1.1170  -1.1160  -1.1111  -1.1100
    -1.0954  -1.0748  -1.0674  -1.0631  -1.0536  -1.0515  -1.0509  -1.0303
    -1.0116  -1.0101  -0.9894  -0.9888  -0.8966  -0.8853  -0.8782  -0.8780
    -0.8733  -0.8720  -0.8675  -0.8451  -0.8441  -0.8286  -0.8275  -0.8186
    -0.8126  -0.8050  -0.7902  -0.7814  -0.7813  -0.7727  -0.7271  -0.6994
    -0.6953  -0.6657  -0.6619  -0.6586  -0.6548  -0.6522  -0.6519  -0.6479
    -0.6393  -0.6226  -0.6077  -0.5970  -0.5839  -0.5643  -0.5619  -0.5531
    -0.5498  -0.5398  -0.5396  -0.5368  -0.5360  -0.5243  -0.5187  -0.5147
    -0.5073  -0.4841  -0.4826  -0.4762  -0.4697  -0.4635  -0.4500  -0.4186
    -0.4168  -0.4090  -0.4072  -0.3407  -0.3376  -0.3048  -0.3042  -0.2462
    -0.2457  -0.2449  -0.2309  -0.2195   0.0099   0.0184   0.3552   0.3555
     0.4481   0.4536   0.6407   0.6618   0.6728   0.8021   0.8036   1.2356
     1.2358   1.2525   1.5159   1.5452   1.5458   1.8244   1.8308   1.8999
     1.9016   1.9277   1.9324   2.1558   2.1578   2.2463   2.2474   2.3286
     2.3873   2.3919   2.5486   2.6503   3.0821   3.0911   3.0916   3.0933
     3.1441   3.1480   3.4382   3.4403   3.7206   3.7261   3.8371   4.1356
     4.1744   4.1803   4.4025   4.4212   4.4791   4.4797   4.5713   4.6872
     4.6923   4.8045   4.8079   5.1086   5.1777   5.1836   5.3419   5.3706
     5.4412   5.5624   5.5680   5.5902   5.5961   5.6484   5.6615   5.7181
     5.8795   6.0745   6.2614   6.2729   6.3460   6.3978   6.3997   6.4102
     6.4169   6.5587   6.6437   6.6558   6.6725   6.8567   6.8909   6.9146
     6.9317   7.0311   7.1030

     the Fermi energy is     1.3801 ev

!    total energy              =   -6604.43117766 Ry
     Harris-Foulkes estimate   =   -6604.43117766 Ry
     estimated scf accuracy    <          3.6E-09 Ry

     The total energy is the sum of the following terms:

     one-electron contribution =  -48696.97471060 Ry
     hartree contribution      =   24848.25821216 Ry
     xc contribution           =   -3204.98924327 Ry
     ewald contribution        =   20449.27169597 Ry
     smearing contrib. (-TS)   =       0.00286809 Ry

     convergence has been achieved in  25 iterations

     Writing output data file 5639594.save

     init_run     :    149.75s CPU    161.91s WALL (       1 calls)
     electrons    :   9255.04s CPU   9905.42s WALL (       1 calls)

     Called by init_run:
     wfcinit      :    116.32s CPU    126.71s WALL (       1 calls)
     potinit      :      9.75s CPU     11.07s WALL (       1 calls)

     Called by electrons:
     c_bands      :   7620.35s CPU   8134.45s WALL (      26 calls)
     sum_band     :   1220.80s CPU   1318.27s WALL (      26 calls)
     v_of_rho     :    118.92s CPU    138.80s WALL (      26 calls)
     newd         :    305.25s CPU    322.89s WALL (      26 calls)
     mix_rho      :      2.94s CPU      3.47s WALL (      26 calls)
     vdW_energy   :      8.06s CPU      9.33s WALL (      26 calls)
     vdW_ffts     :     65.68s CPU     76.29s WALL (      52 calls)
     vdW_v        :     14.10s CPU     16.20s WALL (      26 calls)

     Called by c_bands:
     init_us_2    :     11.62s CPU     12.40s WALL (     636 calls)
     cegterg      :   7534.53s CPU   8045.15s WALL (     312 calls)

     Called by *egterg:
     h_psi        :   3383.94s CPU   3823.49s WALL (    1669 calls)
     s_psi        :    441.59s CPU    448.55s WALL (    1669 calls)
     g_psi        :      6.32s CPU      6.42s WALL (    1345 calls)
     cdiaghg      :   2253.58s CPU   2276.64s WALL (    1645 calls)

     Called by h_psi:
     add_vuspsi   :    441.04s CPU    448.76s WALL (    1669 calls)

     General routines
     calbec       :    655.62s CPU    663.43s WALL (    1981 calls)
     fft          :    243.44s CPU    265.77s WALL (    1716 calls)
     ffts         :      1.85s CPU      2.22s WALL (      52 calls)
     fftw         :   2908.42s CPU   3386.00s WALL (  755426 calls)
     interpolate  :      4.86s CPU      5.84s WALL (      52 calls)
     davcio       :      0.01s CPU      0.20s WALL (      12 calls)

     Parallel routines
     fft_scatter  :   2294.38s CPU   2714.39s WALL (  757194 calls)

     PWSCF        :     2h36m CPU        2h48m WALL


   This run was terminated on:   2: 3:51   6Jul2015            

=------------------------------------------------------------------------------=
   JOB DONE.
=------------------------------------------------------------------------------=
