Setting SGE environment for SCC

     Program PWSCF v.5.1.2 starts on 24Aug2015 at 13:35:29 

     This program is part of the open-source Quantum ESPRESSO suite
     for quantum simulation of materials; please cite
         "P. Giannozzi et al., J. Phys.:Condens. Matter 21 395502 (2009);
          URL http://www.quantum-espresso.org", 
     in publications or presentations arising from this work. More details at
     http://www.quantum-espresso.org/quote

     Parallel version (MPI), running on    32 processors
     R & G space division:  proc/nbgrp/npool/nimage =      32
     Reading input from hollow.O1.Au535758.d.2.7.phi.45.psi.90.in
Warning: card &IONS ignored
Warning: card / ignored
Warning: card &CELL ignored
Warning: card / ignored

     Current dimensions of program PWSCF are:
     Max number of different atomic species (ntypx) = 10
     Max number of k-points (npk) =  40000
     Max angular momentum in pseudopotentials (lmaxx) =  3

     IMPORTANT: XC functional enforced from input :
     Exchange-correlation      = VDW-DF ( 1  4  4  0 1 0)
     Any further DFT definition will be discarded
     Please, verify this is what you really want


     Subspace diagonalization in iterative solution of the eigenvalue problem:
     a serial algorithm will be used


     Parallelization info
     --------------------
     sticks:   dense  smooth     PW     G-vecs:    dense   smooth      PW
     Min         445     223     58                96775    34191    4534
     Max         446     224     59                96790    34246    4540
     Sum       14269    7147   1867              3097177  1095093  145167


     Title: 
     hollow.O1.Au535758.d.2.7.phi.45.psi.90                                     


     bravais-lattice index     =            4
     lattice parameter (alat)  =      22.7436  a.u.
     unit-cell volume          =   22924.1508 (a.u.)^3
     number of atoms/cell      =           67
     number of atomic types    =            3
     number of electrons       =       712.00
     number of Kohn-Sham states=          427
     kinetic-energy cutoff     =      50.0000  Ry
     charge density cutoff     =     400.0000  Ry
     convergence threshold     =      1.0E-08
     mixing beta               =       0.7000
     number of iterations used =            8  plain     mixing
     Exchange-correlation      = VDW-DF ( 1  4  4  0 1 0)

     celldm(1)=  22.743643  celldm(2)=   0.000000  celldm(3)=   2.250000
     celldm(4)=   0.000000  celldm(5)=   0.000000  celldm(6)=   0.000000

     crystal axes: (cart. coord. in units of alat)
               a(1) = (   1.000000   0.000000   0.000000 )  
               a(2) = (  -0.500000   0.866025   0.000000 )  
               a(3) = (   0.000000   0.000000   2.250000 )  

     reciprocal axes: (cart. coord. in units 2 pi/alat)
               b(1) = (  1.000000  0.577350 -0.000000 )  
               b(2) = (  0.000000  1.154701  0.000000 )  
               b(3) = (  0.000000 -0.000000  0.444444 )  


     PseudoPot. # 1 for Au read from file:
     /home/scc/andrejb/qe/pseudo/Au.pbe-nd-van.UPF
     MD5 check sum: 458681b50f36d87ef23c61b04bba420a
     Pseudo is Ultrasoft + core correction, Zval = 11.0
     Generated by new atomic code, or converted to UPF format
     Using radial grid of  985 points,  3 beta functions with: 
                l(1) =   1
                l(2) =   2
                l(3) =   2
     Q(r) pseudized with  8 coefficients,  rinner =    1.100   1.100   1.100
                                                       1.100   1.100

     PseudoPot. # 2 for H  read from file:
     /home/scc/andrejb/qe/pseudo/H.pbe-van_ak.UPF
     MD5 check sum: 403db7282739603aa925980fa9b8608d
     Pseudo is Ultrasoft, Zval =  1.0
     Generated by new atomic code, or converted to UPF format
     Using radial grid of  615 points,  1 beta functions with: 
                l(1) =   0
     Q(r) pseudized with  8 coefficients,  rinner =    0.800

     PseudoPot. # 3 for O  read from file:
     /home/scc/andrejb/qe/pseudo/O.pbe-van_ak.UPF
     MD5 check sum: 4b8c549914a63cae506c6ff22b5af4fe
     Pseudo is Ultrasoft, Zval =  6.0
     Generated by new atomic code, or converted to UPF format
     Using radial grid of  737 points,  4 beta functions with: 
                l(1) =   0
                l(2) =   0
                l(3) =   1
                l(4) =   1
     Q(r) pseudized with  8 coefficients,  rinner =    0.800   0.800   0.800


     vdW kernel table read from file vdW_kernel_table
     MD5 check sum: 48e77a2e26edf626eeb0eaa751ad5cac

     atomic species   valence    mass     pseudopotential
        Au            11.00   196.96657     Au( 1.00)
        H              1.00     1.01000     H ( 1.00)
        O              6.00    16.00000     O ( 1.00)

     No symmetry found



   Cartesian axes

     site n.     atom                  positions (alat units)
         1           O   tau(   1) = (  -0.0208375   0.5411347   0.8373442  )
         2           H   tau(   2) = (  -0.0267671   0.4928811   0.7726574  )
         3           H   tau(   3) = (  -0.0151011   0.4903739   0.9000832  )
         4           Au  tau(   4) = (   0.3540481   0.6132292   0.0000000  )
         5           Au  tau(   5) = (   0.4790062   0.3967954   0.0000000  )
         6           Au  tau(   6) = (   0.6039644   0.1803616   0.0000000  )
         7           Au  tau(   7) = (   0.7289225  -0.0360723   0.0000000  )
         8           Au  tau(   8) = (   0.1041318   0.6132292   0.0000000  )
         9           Au  tau(   9) = (   0.2290899   0.3967954   0.0000000  )
        10           Au  tau(  10) = (   0.3540481   0.1803616   0.0000000  )
        11           Au  tau(  11) = (   0.4790062  -0.0360723   0.0000000  )
        12           Au  tau(  12) = (  -0.1457845   0.6132292   0.0000000  )
        13           Au  tau(  13) = (  -0.0208264   0.3967954   0.0000000  )
        14           Au  tau(  14) = (   0.1041318   0.1803616   0.0000000  )
        15           Au  tau(  15) = (   0.2290899  -0.0360723   0.0000000  )
        16           Au  tau(  16) = (  -0.3957008   0.6132292   0.0000000  )
        17           Au  tau(  17) = (  -0.2707426   0.3967954   0.0000000  )
        18           Au  tau(  18) = (  -0.1457845   0.1803616   0.0000000  )
        19           Au  tau(  19) = (  -0.0208264  -0.0360723   0.0000000  )
        20           Au  tau(  20) = (   0.4790062   0.6853738   0.2040557  )
        21           Au  tau(  21) = (   0.6039644   0.4689400   0.2040557  )
        22           Au  tau(  22) = (   0.7289225   0.2525061   0.2040557  )
        23           Au  tau(  23) = (   0.8538806   0.0360723   0.2040557  )
        24           Au  tau(  24) = (   0.2290899   0.6853738   0.2040557  )
        25           Au  tau(  25) = (   0.3540481   0.4689400   0.2040557  )
        26           Au  tau(  26) = (   0.4790062   0.2525061   0.2040557  )
        27           Au  tau(  27) = (   0.6039644   0.0360723   0.2040557  )
        28           Au  tau(  28) = (  -0.0208264   0.6853738   0.2040557  )
        29           Au  tau(  29) = (   0.1041318   0.4689400   0.2040557  )
        30           Au  tau(  30) = (   0.2290899   0.2525061   0.2040557  )
        31           Au  tau(  31) = (   0.3540481   0.0360723   0.2040557  )
        32           Au  tau(  32) = (  -0.2707426   0.6853738   0.2040557  )
        33           Au  tau(  33) = (  -0.1457845   0.4689400   0.2040557  )
        34           Au  tau(  34) = (  -0.0208264   0.2525061   0.2040557  )
        35           Au  tau(  35) = (   0.1041318   0.0360723   0.2040557  )
        36           Au  tau(  36) = (   0.3541162   0.7576593   0.4066483  )
        37           Au  tau(  37) = (   0.4791000   0.5411421   0.4066695  )
        38           Au  tau(  38) = (   0.6040570   0.3246862   0.4066617  )
        39           Au  tau(  39) = (   0.7290270   0.1081684   0.4066529  )
        40           Au  tau(  40) = (   0.1041162   0.7576236   0.4066247  )
        41           Au  tau(  41) = (   0.2291001   0.5411063   0.4066455  )
        42           Au  tau(  42) = (   0.3540567   0.3246505   0.4066380  )
        43           Au  tau(  43) = (   0.4790276   0.1081324   0.4066292  )
        44           Au  tau(  44) = (  -0.1458201   0.7576104   0.4066224  )
        45           Au  tau(  45) = (  -0.0208365   0.5410930   0.4066438  )
        46           Au  tau(  46) = (   0.1041202   0.3246372   0.4066359  )
        47           Au  tau(  47) = (   0.2290908   0.1081193   0.4066273  )
        48           Au  tau(  48) = (  -0.3958167   0.7575791   0.4065812  )
        49           Au  tau(  49) = (  -0.2708328   0.5410617   0.4066025  )
        50           Au  tau(  50) = (  -0.1458763   0.3246061   0.4065947  )
        51           Au  tau(  51) = (  -0.0209056   0.1080882   0.4065858  )
        52           Au  tau(  52) = (   0.3541085   0.6133344   0.6129762  )
        53           Au  tau(  53) = (   0.4790780   0.3968269   0.6129968  )
        54           Au  tau(  54) = (   0.6040356   0.1803811   0.6129859  )
        55           Au  tau(  55) = (   0.7290165  -0.0361221   0.6129385  )
        56           Au  tau(  56) = (   0.1041243   0.6133091   0.6130022  )
        57           Au  tau(  57) = (   0.2290941   0.3968013   0.6130241  )
        58           Au  tau(  58) = (   0.3540515   0.1803552   0.6130121  )
        59           Au  tau(  59) = (   0.4790323  -0.0361475   0.6129659  )
        60           Au  tau(  60) = (  -0.1458030   0.6133014   0.6129980  )
        61           Au  tau(  61) = (  -0.0208339   0.3967936   0.6130188  )
        62           Au  tau(  62) = (   0.1041239   0.1803477   0.6130083  )
        63           Au  tau(  63) = (   0.2291046  -0.0361554   0.6129607  )
        64           Au  tau(  64) = (  -0.3957908   0.6132739   0.6129471  )
        65           Au  tau(  65) = (  -0.2708208   0.3967658   0.6129688  )
        66           Au  tau(  66) = (  -0.1458636   0.1803200   0.6129569  )
        67           Au  tau(  67) = (  -0.0208823  -0.0361826   0.6129110  )

     number of k points=    12  Marzari-Vanderbilt smearing, width (Ry)=  0.0200
                       cart. coord. in units 2pi/alat
        k(    1) = (   0.2500000   0.4330127   0.1111111), wk =   0.1666667
        k(    2) = (   0.2500000  -0.1443376   0.1111111), wk =   0.1666667
        k(    3) = (  -0.2500000  -0.4330127   0.1111111), wk =   0.1666667
        k(    4) = (  -0.2500000   0.4330127  -0.1111111), wk =   0.1666667
        k(    5) = (   0.2500000  -0.4330127  -0.1111111), wk =   0.1666667
        k(    6) = (   0.5000000   0.0000000   0.1111111), wk =   0.1666667
        k(    7) = (  -0.5000000   0.0000000   0.1111111), wk =   0.1666667
        k(    8) = (  -0.2500000   0.1443376   0.1111111), wk =   0.1666667
        k(    9) = (  -0.2500000  -0.1443376  -0.1111111), wk =   0.1666667
        k(   10) = (   0.2500000   0.1443376  -0.1111111), wk =   0.1666667
        k(   11) = (   0.0000000  -0.2886751   0.1111111), wk =   0.1666667
        k(   12) = (   0.0000000   0.2886751   0.1111111), wk =   0.1666667

     Dense  grid:  3097177 G-vectors     FFT dimensions: ( 150, 150, 360)

     Smooth grid:  1095093 G-vectors     FFT dimensions: ( 108, 108, 240)

     Largest allocated arrays     est. size (Mb)     dimensions
        Kohn-Sham Wavefunctions        28.01 Mb     (    4299,  427)
        NL pseudopotentials            55.23 Mb     (    4299,  842)
        Each V/rho on FFT grid          4.12 Mb     (  270000)
        Each G-vector array             0.74 Mb     (   96788)
        G-vector shells                 0.16 Mb     (   21404)
     Largest temporary arrays     est. size (Mb)     dimensions
        Auxiliary wavefunctions       112.04 Mb     (    4299, 1708)
        Each subspace H/S matrix       44.51 Mb     (    1708, 1708)
        Each <psi_i|beta_j> matrix      5.49 Mb     (     842,  427)
        Arrays for rho mixing          32.96 Mb     (  270000,    8)

     Initial potential from superposition of free atoms
     Check: negative starting charge=   -1.730279

     starting charge  711.25682, renormalised to  712.00000

     negative rho (up, down):  1.732E+00 0.000E+00


     ************************************************************************
     *
     * You are using vdW-DF for exchange-correlation in this calculation.
     * Please cite the following three references that made this development
     * possible:
     *
     *   M. Dion, H. Rydberg, E. Schroder, D. C. Langreth, and
     *   B. I. Lundqvist, Phys. Rev. Lett. 92, 246401 (2004).
     *
     *   T. Thonhauser, V. R. Cooper, S. Li, A. Puzder, P. Hyldgaard, and
     *   D. C. Langreth, Phys. Rev. B 76, 125112 (2007).
     *
     *   G. Roman-Perez and J. M. Soler, Phys. Rev. Lett. 103, 096102 (2009).
     *
     *
     * If you are using vdW-DF2, please also cite:
     *
     *   K. Lee, E. D. Murray, L. Kong, B. I. Lundqvist, and
     *   D. C. Langreth, Phys. Rev. B 82, 081101(R) (2010).
     *
     *
     * If you are calculating the stress with vdW-DF, please also cite:
     *
     *   R. Sabatini, E. Kucukbenli, B. Kolb, T. Thonhauser, and
     *   S. de Gironcoli, J. Phys.: Condens. Matter 24, 424209 (2012).
     *
     ************************************************************************

     Carrying out vdW-DF run using the following parameters:

     Nqs =      20    Nr_points =    1024   r_max =   100.000
     q_mesh =
               0.00001000     0.04494208     0.09755937     0.15916263
               0.23128650     0.31572767     0.41458969     0.53033537
               0.66584808     0.82450364     1.01025438     1.22772762
               1.48234092     1.78043706     2.12944203     2.53805004
               3.01644009     3.57652955     4.23227104     5.00000000

     Gradients computed in reciprocal space

     ************************************************************************


     Starting wfc are  582 randomized atomic wfcs

     total cpu time spent up to now is      157.8 secs

     Self-consistent Calculation

     iteration #  1     ecut=    50.00 Ry     beta=0.70
     Davidson diagonalization with overlap
     ethr =  1.00E-02,  avg # of iterations =  3.0

     Threshold (ethr) on eigenvalues was too large:
     Diagonalizing with lowered threshold

     Davidson diagonalization with overlap
     ethr =  3.40E-04,  avg # of iterations =  4.8

     negative rho (up, down):  1.727E+00 0.000E+00

     total cpu time spent up to now is      817.0 secs

     total energy              =   -6602.81341240 Ry
     Harris-Foulkes estimate   =   -6605.01716844 Ry
     estimated scf accuracy    <       2.76285161 Ry

     iteration #  2     ecut=    50.00 Ry     beta=0.70
     Davidson diagonalization with overlap
     ethr =  3.88E-04,  avg # of iterations = 11.5

     negative rho (up, down):  1.726E+00 0.000E+00

     total cpu time spent up to now is     1796.5 secs

     total energy              =   -6597.10186766 Ry
     Harris-Foulkes estimate   =   -6609.93420922 Ry
     estimated scf accuracy    <      70.24991392 Ry

     iteration #  3     ecut=    50.00 Ry     beta=0.70
     Davidson diagonalization with overlap
     ethr =  3.88E-04,  avg # of iterations =  6.5

     negative rho (up, down):  1.737E+00 0.000E+00

     total cpu time spent up to now is     2423.8 secs

     total energy              =   -6603.24424726 Ry
     Harris-Foulkes estimate   =   -6604.95925451 Ry
     estimated scf accuracy    <       7.51779118 Ry

     iteration #  4     ecut=    50.00 Ry     beta=0.70
     Davidson diagonalization with overlap
     ethr =  3.88E-04,  avg # of iterations =  6.8

     negative rho (up, down):  1.739E+00 0.000E+00

     total cpu time spent up to now is     2837.1 secs

     total energy              =   -6603.82187535 Ry
     Harris-Foulkes estimate   =   -6604.87990675 Ry
     estimated scf accuracy    <       7.88290033 Ry

     iteration #  5     ecut=    50.00 Ry     beta=0.70
     Davidson diagonalization with overlap
     ethr =  3.88E-04,  avg # of iterations =  6.0

     negative rho (up, down):  1.748E+00 0.000E+00

     total cpu time spent up to now is     3197.5 secs

     total energy              =   -6604.22328656 Ry
     Harris-Foulkes estimate   =   -6604.69136917 Ry
     estimated scf accuracy    <       4.02056790 Ry

     iteration #  6     ecut=    50.00 Ry     beta=0.70
     Davidson diagonalization with overlap
     ethr =  3.88E-04,  avg # of iterations =  3.0

     negative rho (up, down):  1.752E+00 0.000E+00

     total cpu time spent up to now is     3486.3 secs

     total energy              =   -6604.40905556 Ry
     Harris-Foulkes estimate   =   -6604.46271200 Ry
     estimated scf accuracy    <       0.17634254 Ry

     iteration #  7     ecut=    50.00 Ry     beta=0.70
     Davidson diagonalization with overlap
     ethr =  2.48E-05,  avg # of iterations = 11.1

     negative rho (up, down):  1.754E+00 0.000E+00

     total cpu time spent up to now is     3947.9 secs

     total energy              =   -6604.42047570 Ry
     Harris-Foulkes estimate   =   -6604.44866582 Ry
     estimated scf accuracy    <       0.12564233 Ry

     iteration #  8     ecut=    50.00 Ry     beta=0.70
     Davidson diagonalization with overlap
     ethr =  1.76E-05,  avg # of iterations =  3.8

     negative rho (up, down):  1.755E+00 0.000E+00

     total cpu time spent up to now is     4250.4 secs

     total energy              =   -6604.42360326 Ry
     Harris-Foulkes estimate   =   -6604.43721054 Ry
     estimated scf accuracy    <       0.05355356 Ry

     iteration #  9     ecut=    50.00 Ry     beta=0.70
     Davidson diagonalization with overlap
     ethr =  7.52E-06,  avg # of iterations =  5.6

     negative rho (up, down):  1.756E+00 0.000E+00

     total cpu time spent up to now is     4589.4 secs

     total energy              =   -6604.42381405 Ry
     Harris-Foulkes estimate   =   -6604.43014673 Ry
     estimated scf accuracy    <       0.02202738 Ry

     iteration # 10     ecut=    50.00 Ry     beta=0.70
     Davidson diagonalization with overlap
     ethr =  3.09E-06,  avg # of iterations =  6.5

     negative rho (up, down):  1.757E+00 0.000E+00

     total cpu time spent up to now is     4942.5 secs

     total energy              =   -6604.42388848 Ry
     Harris-Foulkes estimate   =   -6604.42637376 Ry
     estimated scf accuracy    <       0.00822618 Ry

     iteration # 11     ecut=    50.00 Ry     beta=0.70
     Davidson diagonalization with overlap
     ethr =  1.16E-06,  avg # of iterations =  3.9

     negative rho (up, down):  1.757E+00 0.000E+00

     total cpu time spent up to now is     5256.5 secs

     total energy              =   -6604.42394070 Ry
     Harris-Foulkes estimate   =   -6604.42505509 Ry
     estimated scf accuracy    <       0.00402710 Ry

     iteration # 12     ecut=    50.00 Ry     beta=0.70
     Davidson diagonalization with overlap
     ethr =  5.66E-07,  avg # of iterations =  2.2

     negative rho (up, down):  1.758E+00 0.000E+00

     total cpu time spent up to now is     5531.7 secs

     total energy              =   -6604.42390214 Ry
     Harris-Foulkes estimate   =   -6604.42439293 Ry
     estimated scf accuracy    <       0.00086726 Ry

     iteration # 13     ecut=    50.00 Ry     beta=0.70
     Davidson diagonalization with overlap
     ethr =  1.22E-07,  avg # of iterations =  6.6

     negative rho (up, down):  1.758E+00 0.000E+00

     total cpu time spent up to now is     5971.6 secs

     total energy              =   -6604.42389411 Ry
     Harris-Foulkes estimate   =   -6604.42438875 Ry
     estimated scf accuracy    <       0.00219309 Ry

     iteration # 14     ecut=    50.00 Ry     beta=0.70
     Davidson diagonalization with overlap
     ethr =  1.22E-07,  avg # of iterations =  2.0

     negative rho (up, down):  1.757E+00 0.000E+00

     total cpu time spent up to now is     6255.8 secs

     total energy              =   -6604.42413220 Ry
     Harris-Foulkes estimate   =   -6604.42415863 Ry
     estimated scf accuracy    <       0.00007842 Ry

     iteration # 15     ecut=    50.00 Ry     beta=0.70
     Davidson diagonalization with overlap
     ethr =  1.10E-08,  avg # of iterations =  3.0

     negative rho (up, down):  1.757E+00 0.000E+00

     total cpu time spent up to now is     6604.1 secs

     total energy              =   -6604.42413778 Ry
     Harris-Foulkes estimate   =   -6604.42416029 Ry
     estimated scf accuracy    <       0.00009101 Ry

     iteration # 16     ecut=    50.00 Ry     beta=0.70
     Davidson diagonalization with overlap
     ethr =  1.10E-08,  avg # of iterations =  2.0

     negative rho (up, down):  1.757E+00 0.000E+00

     total cpu time spent up to now is     6878.4 secs

     total energy              =   -6604.42413697 Ry
     Harris-Foulkes estimate   =   -6604.42416163 Ry
     estimated scf accuracy    <       0.00024547 Ry

     iteration # 17     ecut=    50.00 Ry     beta=0.70
     Davidson diagonalization with overlap
     ethr =  1.10E-08,  avg # of iterations =  1.0

     negative rho (up, down):  1.757E+00 0.000E+00

     total cpu time spent up to now is     7174.1 secs

     total energy              =   -6604.42414949 Ry
     Harris-Foulkes estimate   =   -6604.42415159 Ry
     estimated scf accuracy    <       0.00001132 Ry

     iteration # 18     ecut=    50.00 Ry     beta=0.70
     Davidson diagonalization with overlap
     ethr =  1.59E-09,  avg # of iterations =  2.0

     negative rho (up, down):  1.757E+00 0.000E+00

     total cpu time spent up to now is     7455.9 secs

     total energy              =   -6604.42414960 Ry
     Harris-Foulkes estimate   =   -6604.42415202 Ry
     estimated scf accuracy    <       0.00000996 Ry

     iteration # 19     ecut=    50.00 Ry     beta=0.70
     Davidson diagonalization with overlap
     ethr =  1.40E-09,  avg # of iterations =  2.0

     negative rho (up, down):  1.757E+00 0.000E+00

     total cpu time spent up to now is     7732.8 secs

     total energy              =   -6604.42415079 Ry
     Harris-Foulkes estimate   =   -6604.42415103 Ry
     estimated scf accuracy    <       0.00000091 Ry

     iteration # 20     ecut=    50.00 Ry     beta=0.70
     Davidson diagonalization with overlap
     ethr =  1.28E-10,  avg # of iterations =  2.0

     negative rho (up, down):  1.757E+00 0.000E+00

     total cpu time spent up to now is     8030.8 secs

     total energy              =   -6604.42415096 Ry
     Harris-Foulkes estimate   =   -6604.42415100 Ry
     estimated scf accuracy    <       0.00000018 Ry

     iteration # 21     ecut=    50.00 Ry     beta=0.70
     Davidson diagonalization with overlap
     ethr =  2.60E-11,  avg # of iterations =  2.2

     negative rho (up, down):  1.757E+00 0.000E+00

     total cpu time spent up to now is     8390.5 secs

     total energy              =   -6604.42415100 Ry
     Harris-Foulkes estimate   =   -6604.42415103 Ry
     estimated scf accuracy    <       0.00000018 Ry

     iteration # 22     ecut=    50.00 Ry     beta=0.70
     Davidson diagonalization with overlap
     ethr =  2.48E-11,  avg # of iterations =  2.0

     negative rho (up, down):  1.757E+00 0.000E+00

     total cpu time spent up to now is     8673.2 secs

     total energy              =   -6604.42415102 Ry
     Harris-Foulkes estimate   =   -6604.42415103 Ry
     estimated scf accuracy    <       0.00000003 Ry

     iteration # 23     ecut=    50.00 Ry     beta=0.70
     Davidson diagonalization with overlap
     ethr =  4.07E-12,  avg # of iterations =  3.0

     negative rho (up, down):  1.757E+00 0.000E+00

     total cpu time spent up to now is     9034.5 secs

     total energy              =   -6604.42415102 Ry
     Harris-Foulkes estimate   =   -6604.42415103 Ry
     estimated scf accuracy    <       0.00000003 Ry

     iteration # 24     ecut=    50.00 Ry     beta=0.70
     Davidson diagonalization with overlap
     ethr =  4.07E-12,  avg # of iterations =  2.2

     negative rho (up, down):  1.757E+00 0.000E+00

     total cpu time spent up to now is     9334.4 secs

     total energy              =   -6604.42415102 Ry
     Harris-Foulkes estimate   =   -6604.42415103 Ry
     estimated scf accuracy    <       0.00000004 Ry

     iteration # 25     ecut=    50.00 Ry     beta=0.70
     Davidson diagonalization with overlap
     ethr =  4.07E-12,  avg # of iterations =  2.0

     negative rho (up, down):  1.757E+00 0.000E+00

     total cpu time spent up to now is     9607.6 secs

     End of self-consistent calculation

          k = 0.2500 0.4330 0.1111 (136853 PWs)   bands (ev):

   -18.8292  -6.8520  -6.3309  -5.9346  -5.9326  -5.2546  -4.9242  -4.9235
    -4.8850  -4.8814  -4.5244  -4.5233  -4.4257  -4.4248  -4.4112  -4.3881
    -4.3649  -4.2588  -4.2563  -4.2333  -4.1899  -4.1894  -4.1235  -4.1203
    -4.1154  -4.1132  -4.0924  -4.0870  -4.0859  -4.0180  -4.0132  -3.9850
    -3.9840  -3.9731  -3.9720  -3.9490  -3.9483  -3.9262  -3.9179  -3.9176
    -3.8927  -3.8397  -3.8388  -3.7916  -3.7898  -3.7358  -3.7340  -3.6817
    -3.6776  -3.6766  -3.6760  -3.6409  -3.6068  -3.6061  -3.5956  -3.5952
    -3.5935  -3.5705  -3.5631  -3.5548  -3.4966  -3.4956  -3.4896  -3.4681
    -3.4603  -3.3900  -3.3867  -3.3596  -3.3540  -3.3316  -3.3261  -3.3119
    -3.2981  -3.2446  -3.2380  -3.2204  -3.2182  -3.1709  -3.1642  -3.1625
    -3.1266  -3.1056  -3.0919  -3.0861  -3.0826  -3.0747  -3.0715  -3.0683
    -3.0624  -3.0569  -3.0232  -3.0029  -2.9732  -2.9713  -2.9589  -2.9568
    -2.9306  -2.9250  -2.9212  -2.8924  -2.8552  -2.8535  -2.8469  -2.8089
    -2.8007  -2.7895  -2.7885  -2.7618  -2.7587  -2.7296  -2.6943  -2.6912
    -2.6735  -2.6631  -2.6505  -2.6486  -2.6009  -2.5989  -2.5661  -2.5444
    -2.5419  -2.5215  -2.5177  -2.5086  -2.5062  -2.4975  -2.4771  -2.4754
    -2.4296  -2.4291  -2.4274  -2.4142  -2.4117  -2.4043  -2.3989  -2.3968
    -2.3947  -2.3925  -2.3866  -2.3809  -2.3753  -2.3675  -2.3423  -2.3384
    -2.3370  -2.3347  -2.3333  -2.3323  -2.3308  -2.3053  -2.3036  -2.2893
    -2.2869  -2.2689  -2.2686  -2.2610  -2.2591  -2.2574  -2.2563  -2.2401
    -2.2373  -2.2354  -2.2344  -2.2197  -2.1926  -2.1907  -2.1508  -2.1501
    -2.1291  -2.1269  -2.1009  -2.0967  -2.0736  -2.0702  -2.0553  -2.0499
    -2.0222  -2.0072  -2.0022  -1.9962  -1.9931  -1.9896  -1.9831  -1.9810
    -1.9561  -1.9502  -1.9445  -1.8857  -1.8813  -1.8784  -1.8751  -1.8735
    -1.8445  -1.8206  -1.8191  -1.7941  -1.7901  -1.7349  -1.7327  -1.7026
    -1.6875  -1.6823  -1.6249  -1.6235  -1.6141  -1.6102  -1.6018  -1.5988
    -1.5948  -1.5882  -1.5852  -1.5361  -1.5291  -1.5243  -1.5176  -1.5162
    -1.5019  -1.4970  -1.4648  -1.4633  -1.4496  -1.4465  -1.4449  -1.4381
    -1.4335  -1.4281  -1.4218  -1.4052  -1.4024  -1.3695  -1.3598  -1.3540
    -1.3504  -1.3330  -1.3161  -1.2818  -1.2736  -1.2489  -1.2452  -1.2426
    -1.2147  -1.1730  -1.1668  -1.1601  -1.1578  -1.1569  -1.1537  -1.1457
    -1.1275  -1.1254  -1.0960  -1.0830  -1.0644  -1.0542  -1.0518  -1.0466
    -1.0417  -1.0323  -1.0270  -1.0226  -1.0212  -1.0181  -1.0022  -0.9813
    -0.9794  -0.9780  -0.9649  -0.9496  -0.9455  -0.9278  -0.9203  -0.9134
    -0.8839  -0.8678  -0.8586  -0.8510  -0.8241  -0.8131  -0.8076  -0.8030
    -0.7984  -0.7964  -0.7936  -0.7897  -0.7807  -0.7702  -0.7590  -0.7559
    -0.7528  -0.7508  -0.7438  -0.7142  -0.7131  -0.7029  -0.6954  -0.6844
    -0.6782  -0.6717  -0.6664  -0.6127  -0.6113  -0.6028  -0.6015  -0.5995
    -0.5964  -0.5873  -0.5745  -0.5722  -0.5648  -0.5646  -0.5626  -0.5496
    -0.5245  -0.5227  -0.5197  -0.5132  -0.5112  -0.5075  -0.5038  -0.4920
    -0.4875  -0.4870  -0.4714  -0.4449  -0.4437  -0.4363  -0.4313  -0.4298
    -0.3580  -0.3526  -0.3515  -0.3496  -0.3423  -0.3363  -0.3051  -0.2940
    -0.2914  -0.2614  -0.2584  -0.2546  -0.1413  -0.1358  -0.0371   0.3775
     0.3784   0.3828   0.3833   0.4460   0.4509   0.8298   0.8325   0.8737
     0.8755   0.9892   1.0664   1.1740   1.1817   1.3988   1.4095   2.0267
     2.0333   2.1884   2.1955   2.3253   2.3323   2.4279   2.4284   2.5822
     2.8198   2.8334   2.9454   3.1659   3.1745   3.2479   3.2516   3.3495
     3.3671   3.5661   3.5835   3.6206   3.8225   3.8262   3.8834   3.8937
     4.1405   4.1496   4.1585   4.3907   4.4319   4.4377   4.4795   4.8080
     4.8198   4.8477   4.9791   5.1548   5.1568   5.2092   5.2412   5.5306
     5.8148   5.9201   5.9405   5.9469   5.9561   6.0103   6.0190   6.0944
     6.1225   6.1498   6.1542   6.1817   6.1865   6.2079   6.2238   6.2399
     6.2460   6.4374   6.5759   6.7080   6.7627   6.8048   6.8874   6.8945
     6.9030   7.0054   7.0154

          k = 0.2500-0.1443 0.1111 (136898 PWs)   bands (ev):

   -18.8292  -6.8545  -6.5375  -5.7514  -5.4574  -5.4027  -5.4006  -4.8646
    -4.8632  -4.7322  -4.7307  -4.5758  -4.5466  -4.4844  -4.4537  -4.4482
    -4.4179  -4.4170  -4.2884  -4.2467  -4.2465  -4.1878  -4.1683  -4.1652
    -4.0642  -4.0631  -4.0280  -4.0265  -4.0263  -4.0003  -3.9791  -3.9784
    -3.8752  -3.8716  -3.8712  -3.8519  -3.8356  -3.8334  -3.8224  -3.8209
    -3.8103  -3.7794  -3.7784  -3.7778  -3.7767  -3.7468  -3.7461  -3.7286
    -3.7266  -3.7183  -3.6765  -3.6758  -3.6402  -3.6270  -3.6231  -3.6184
    -3.6183  -3.5453  -3.5440  -3.5117  -3.5098  -3.5058  -3.4400  -3.4382
    -3.4283  -3.4225  -3.3962  -3.3944  -3.3931  -3.3922  -3.2417  -3.2367
    -3.2154  -3.2144  -3.2091  -3.1938  -3.1909  -3.1698  -3.1666  -3.1196
    -3.1150  -3.1050  -3.0994  -3.0801  -3.0649  -3.0330  -3.0225  -3.0113
    -3.0059  -2.9989  -2.9653  -2.9646  -2.9562  -2.9550  -2.9407  -2.9289
    -2.9023  -2.9004  -2.8818  -2.8779  -2.8765  -2.8727  -2.8705  -2.7982
    -2.7965  -2.7935  -2.7654  -2.7639  -2.7057  -2.6990  -2.6758  -2.6741
    -2.6633  -2.6608  -2.6541  -2.6264  -2.6249  -2.6155  -2.5992  -2.5772
    -2.5738  -2.5689  -2.5527  -2.5518  -2.5451  -2.5396  -2.5376  -2.5332
    -2.5272  -2.4816  -2.4521  -2.4507  -2.4350  -2.4218  -2.4164  -2.4136
    -2.4083  -2.4056  -2.4035  -2.3765  -2.3747  -2.3741  -2.3652  -2.3641
    -2.3496  -2.3236  -2.3213  -2.3203  -2.3185  -2.3178  -2.2721  -2.2441
    -2.2423  -2.2399  -2.2350  -2.2245  -2.2148  -2.2128  -2.1953  -2.1950
    -2.1684  -2.1612  -2.1606  -2.1428  -2.1422  -2.1414  -2.1104  -2.1082
    -2.0724  -2.0638  -2.0614  -2.0594  -2.0567  -2.0516  -2.0508  -2.0471
    -2.0457  -2.0430  -2.0383  -2.0247  -2.0228  -1.9009  -1.8971  -1.8695
    -1.8604  -1.8562  -1.8507  -1.8498  -1.8388  -1.8345  -1.8314  -1.8301
    -1.8276  -1.8066  -1.8027  -1.7994  -1.7926  -1.7871  -1.7837  -1.7639
    -1.7624  -1.7359  -1.7335  -1.7063  -1.7037  -1.6926  -1.6839  -1.6671
    -1.6646  -1.6623  -1.6460  -1.6320  -1.6311  -1.6240  -1.6238  -1.6010
    -1.5982  -1.5827  -1.5804  -1.5497  -1.5467  -1.5391  -1.4952  -1.4886
    -1.4793  -1.4741  -1.4713  -1.4478  -1.4454  -1.4175  -1.4143  -1.4108
    -1.3800  -1.3703  -1.3687  -1.3526  -1.3504  -1.3288  -1.3262  -1.3242
    -1.2963  -1.2948  -1.2912  -1.2319  -1.2305  -1.2208  -1.2164  -1.2044
    -1.1998  -1.1884  -1.1853  -1.1686  -1.1555  -1.1336  -1.1297  -1.1192
    -1.1016  -1.0821  -1.0776  -1.0710  -1.0657  -1.0646  -1.0632  -1.0575
    -1.0431  -1.0259  -1.0171  -1.0080  -1.0012  -1.0002  -0.9988  -0.9814
    -0.9727  -0.9567  -0.9442  -0.9372  -0.8697  -0.8460  -0.8331  -0.8263
    -0.8249  -0.8219  -0.8145  -0.8122  -0.7935  -0.7793  -0.7745  -0.7686
    -0.7605  -0.7550  -0.7474  -0.7321  -0.7303  -0.7209  -0.7200  -0.6477
    -0.6465  -0.6178  -0.6105  -0.6074  -0.6038  -0.5999  -0.5993  -0.5939
    -0.5855  -0.5790  -0.5690  -0.5446  -0.5256  -0.5141  -0.5101  -0.5021
    -0.4969  -0.4889  -0.4867  -0.4855  -0.4830  -0.4760  -0.4672  -0.4632
    -0.4560  -0.4325  -0.4310  -0.4264  -0.4173  -0.4158  -0.3981  -0.3669
    -0.3643  -0.3571  -0.3511  -0.2894  -0.2876  -0.2539  -0.2525  -0.1969
    -0.1948  -0.1922  -0.1730  -0.1689   0.0602   0.0712   0.4072   0.4075
     0.4967   0.5102   0.6968   0.7173   0.7248   0.8536   0.8571   1.2873
     1.2884   1.3050   1.5694   1.5974   1.5981   1.8703   1.8884   1.9504
     1.9546   1.9768   1.9902   2.2081   2.2102   2.2982   2.2999   2.3783
     2.4338   2.4541   2.6020   2.7042   3.1306   3.1425   3.1437   3.1487
     3.1968   3.2004   3.4910   3.4923   3.7653   3.7828   3.8889   4.1869
     4.2194   4.2355   4.4428   4.4784   4.5282   4.5325   4.6241   4.7363
     4.7446   4.8563   4.8607   5.1588   5.2160   5.2366   5.3634   5.4307
     5.4570   5.6074   5.6222   5.6450   5.6477   5.7001   5.7112   5.7648
     5.8744   6.0729   6.2857   6.3139   6.3738   6.4442   6.4515   6.4606
     6.4712   6.5315   6.6469   6.6984   6.7113   6.8532   6.9249   6.9551
     6.9700   7.0300   7.0812

          k =-0.2500-0.4330 0.1111 (136853 PWs)   bands (ev):

   -18.8292  -6.8520  -6.3309  -5.9346  -5.9326  -5.2546  -4.9242  -4.9235
    -4.8850  -4.8814  -4.5244  -4.5233  -4.4257  -4.4248  -4.4112  -4.3881
    -4.3649  -4.2588  -4.2563  -4.2333  -4.1899  -4.1894  -4.1235  -4.1203
    -4.1154  -4.1132  -4.0924  -4.0870  -4.0859  -4.0180  -4.0132  -3.9850
    -3.9840  -3.9731  -3.9720  -3.9490  -3.9483  -3.9262  -3.9179  -3.9176
    -3.8927  -3.8397  -3.8388  -3.7916  -3.7898  -3.7358  -3.7340  -3.6817
    -3.6776  -3.6766  -3.6760  -3.6409  -3.6068  -3.6061  -3.5956  -3.5952
    -3.5935  -3.5705  -3.5631  -3.5548  -3.4966  -3.4956  -3.4896  -3.4681
    -3.4603  -3.3900  -3.3867  -3.3596  -3.3540  -3.3316  -3.3261  -3.3119
    -3.2981  -3.2446  -3.2380  -3.2204  -3.2182  -3.1709  -3.1642  -3.1625
    -3.1266  -3.1056  -3.0919  -3.0861  -3.0826  -3.0747  -3.0715  -3.0683
    -3.0624  -3.0569  -3.0232  -3.0029  -2.9732  -2.9713  -2.9589  -2.9568
    -2.9306  -2.9250  -2.9212  -2.8924  -2.8552  -2.8535  -2.8469  -2.8089
    -2.8007  -2.7895  -2.7885  -2.7618  -2.7587  -2.7296  -2.6943  -2.6912
    -2.6735  -2.6631  -2.6505  -2.6486  -2.6009  -2.5989  -2.5661  -2.5444
    -2.5419  -2.5215  -2.5177  -2.5086  -2.5062  -2.4975  -2.4771  -2.4754
    -2.4296  -2.4291  -2.4275  -2.4142  -2.4117  -2.4043  -2.3989  -2.3968
    -2.3947  -2.3925  -2.3866  -2.3809  -2.3753  -2.3675  -2.3423  -2.3384
    -2.3370  -2.3347  -2.3333  -2.3323  -2.3308  -2.3053  -2.3036  -2.2893
    -2.2869  -2.2689  -2.2686  -2.2610  -2.2591  -2.2574  -2.2563  -2.2401
    -2.2373  -2.2354  -2.2344  -2.2197  -2.1926  -2.1907  -2.1508  -2.1501
    -2.1291  -2.1269  -2.1009  -2.0967  -2.0736  -2.0702  -2.0553  -2.0499
    -2.0222  -2.0072  -2.0022  -1.9962  -1.9931  -1.9896  -1.9831  -1.9810
    -1.9561  -1.9502  -1.9445  -1.8857  -1.8813  -1.8784  -1.8751  -1.8735
    -1.8445  -1.8206  -1.8191  -1.7941  -1.7901  -1.7349  -1.7327  -1.7026
    -1.6875  -1.6823  -1.6249  -1.6235  -1.6141  -1.6102  -1.6018  -1.5988
    -1.5948  -1.5882  -1.5852  -1.5361  -1.5291  -1.5243  -1.5176  -1.5162
    -1.5019  -1.4970  -1.4648  -1.4633  -1.4496  -1.4465  -1.4449  -1.4381
    -1.4335  -1.4281  -1.4218  -1.4052  -1.4024  -1.3695  -1.3598  -1.3540
    -1.3504  -1.3330  -1.3161  -1.2818  -1.2736  -1.2489  -1.2452  -1.2426
    -1.2147  -1.1730  -1.1668  -1.1601  -1.1578  -1.1569  -1.1537  -1.1457
    -1.1275  -1.1254  -1.0960  -1.0830  -1.0644  -1.0542  -1.0518  -1.0466
    -1.0417  -1.0323  -1.0270  -1.0226  -1.0212  -1.0181  -1.0022  -0.9813
    -0.9794  -0.9780  -0.9649  -0.9496  -0.9455  -0.9278  -0.9203  -0.9134
    -0.8839  -0.8678  -0.8586  -0.8510  -0.8241  -0.8131  -0.8076  -0.8030
    -0.7984  -0.7964  -0.7936  -0.7897  -0.7807  -0.7702  -0.7590  -0.7559
    -0.7528  -0.7508  -0.7438  -0.7142  -0.7131  -0.7029  -0.6954  -0.6844
    -0.6782  -0.6717  -0.6664  -0.6127  -0.6113  -0.6028  -0.6015  -0.5995
    -0.5964  -0.5873  -0.5745  -0.5722  -0.5648  -0.5646  -0.5627  -0.5496
    -0.5245  -0.5226  -0.5197  -0.5132  -0.5112  -0.5075  -0.5038  -0.4920
    -0.4875  -0.4870  -0.4714  -0.4449  -0.4437  -0.4363  -0.4313  -0.4298
    -0.3580  -0.3526  -0.3515  -0.3496  -0.3423  -0.3363  -0.3051  -0.2940
    -0.2914  -0.2614  -0.2584  -0.2546  -0.1413  -0.1358  -0.0371   0.3775
     0.3784   0.3828   0.3833   0.4460   0.4509   0.8298   0.8325   0.8737
     0.8755   0.9892   1.0664   1.1740   1.1817   1.3988   1.4095   2.0267
     2.0333   2.1884   2.1955   2.3253   2.3323   2.4279   2.4284   2.5822
     2.8198   2.8334   2.9454   3.1659   3.1745   3.2479   3.2516   3.3495
     3.3671   3.5661   3.5835   3.6206   3.8225   3.8262   3.8834   3.8937
     4.1405   4.1496   4.1585   4.3907   4.4319   4.4377   4.4795   4.8080
     4.8198   4.8477   4.9791   5.1548   5.1568   5.2092   5.2412   5.5307
     5.8141   5.9200   5.9404   5.9469   5.9561   6.0103   6.0190   6.0940
     6.1229   6.1501   6.1568   6.1819   6.1866   6.2079   6.2239   6.2399
     6.2463   6.4382   6.5767   6.6921   6.7631   6.8047   6.8872   6.8927
     6.9027   7.0069   7.0297

          k =-0.2500 0.4330-0.1111 (136853 PWs)   bands (ev):

   -18.8292  -6.8520  -6.3309  -5.9345  -5.9328  -5.2546  -4.9247  -4.9230
    -4.8836  -4.8827  -4.5244  -4.5233  -4.4255  -4.4249  -4.4111  -4.3881
    -4.3649  -4.2595  -4.2559  -4.2333  -4.1899  -4.1895  -4.1235  -4.1204
    -4.1156  -4.1131  -4.0923  -4.0877  -4.0853  -4.0179  -4.0132  -3.9852
    -3.9835  -3.9729  -3.9720  -3.9490  -3.9483  -3.9261  -3.9180  -3.9176
    -3.8928  -3.8399  -3.8388  -3.7920  -3.7894  -3.7355  -3.7341  -3.6815
    -3.6776  -3.6766  -3.6758  -3.6411  -3.6074  -3.6057  -3.5957  -3.5953
    -3.5934  -3.5707  -3.5633  -3.5550  -3.4968  -3.4952  -3.4899  -3.4679
    -3.4599  -3.3909  -3.3865  -3.3600  -3.3538  -3.3314  -3.3256  -3.3118
    -3.2980  -3.2442  -3.2382  -3.2202  -3.2182  -3.1702  -3.1651  -3.1625
    -3.1265  -3.1049  -3.0923  -3.0868  -3.0833  -3.0757  -3.0718  -3.0676
    -3.0619  -3.0566  -3.0229  -3.0029  -2.9733  -2.9713  -2.9587  -2.9567
    -2.9307  -2.9255  -2.9209  -2.8921  -2.8551  -2.8536  -2.8472  -2.8087
    -2.8006  -2.7898  -2.7882  -2.7624  -2.7585  -2.7296  -2.6937  -2.6914
    -2.6734  -2.6632  -2.6504  -2.6487  -2.6014  -2.5986  -2.5661  -2.5443
    -2.5422  -2.5220  -2.5177  -2.5088  -2.5058  -2.4975  -2.4775  -2.4751
    -2.4294  -2.4289  -2.4274  -2.4146  -2.4114  -2.4044  -2.3988  -2.3964
    -2.3950  -2.3926  -2.3866  -2.3810  -2.3745  -2.3674  -2.3423  -2.3383
    -2.3369  -2.3347  -2.3335  -2.3322  -2.3307  -2.3058  -2.3037  -2.2895
    -2.2866  -2.2692  -2.2685  -2.2614  -2.2590  -2.2576  -2.2561  -2.2405
    -2.2373  -2.2351  -2.2343  -2.2197  -2.1925  -2.1912  -2.1517  -2.1493
    -2.1295  -2.1267  -2.1002  -2.0965  -2.0744  -2.0698  -2.0556  -2.0499
    -2.0221  -2.0075  -2.0018  -1.9960  -1.9930  -1.9897  -1.9836  -1.9810
    -1.9561  -1.9497  -1.9444  -1.8854  -1.8816  -1.8784  -1.8751  -1.8739
    -1.8438  -1.8210  -1.8185  -1.7945  -1.7900  -1.7353  -1.7321  -1.7031
    -1.6870  -1.6823  -1.6253  -1.6234  -1.6138  -1.6100  -1.6021  -1.5984
    -1.5950  -1.5884  -1.5852  -1.5378  -1.5280  -1.5235  -1.5178  -1.5161
    -1.5029  -1.4967  -1.4641  -1.4634  -1.4498  -1.4469  -1.4451  -1.4382
    -1.4337  -1.4277  -1.4215  -1.4057  -1.4018  -1.3695  -1.3599  -1.3551
    -1.3502  -1.3330  -1.3160  -1.2804  -1.2738  -1.2482  -1.2446  -1.2427
    -1.2147  -1.1731  -1.1660  -1.1613  -1.1583  -1.1567  -1.1536  -1.1457
    -1.1288  -1.1247  -1.0956  -1.0827  -1.0655  -1.0539  -1.0523  -1.0460
    -1.0417  -1.0332  -1.0264  -1.0229  -1.0216  -1.0181  -0.9995  -0.9826
    -0.9799  -0.9781  -0.9654  -0.9499  -0.9447  -0.9318  -0.9184  -0.9137
    -0.8831  -0.8671  -0.8586  -0.8496  -0.8234  -0.8137  -0.8081  -0.8031
    -0.7983  -0.7960  -0.7940  -0.7891  -0.7813  -0.7694  -0.7592  -0.7564
    -0.7531  -0.7513  -0.7429  -0.7142  -0.7127  -0.7025  -0.6963  -0.6838
    -0.6791  -0.6699  -0.6652  -0.6128  -0.6113  -0.6028  -0.6018  -0.5996
    -0.5965  -0.5874  -0.5747  -0.5720  -0.5648  -0.5642  -0.5624  -0.5502
    -0.5243  -0.5232  -0.5192  -0.5134  -0.5104  -0.5073  -0.5038  -0.4926
    -0.4874  -0.4868  -0.4719  -0.4451  -0.4439  -0.4363  -0.4315  -0.4298
    -0.3583  -0.3526  -0.3516  -0.3491  -0.3424  -0.3366  -0.3052  -0.2942
    -0.2911  -0.2620  -0.2600  -0.2524  -0.1432  -0.1354  -0.0377   0.3776
     0.3787   0.3826   0.3833   0.4438   0.4526   0.8310   0.8323   0.8730
     0.8756   0.9896   1.0663   1.1727   1.1831   1.3977   1.4103   2.0263
     2.0338   2.1869   2.1970   2.3228   2.3342   2.4276   2.4286   2.5822
     2.8200   2.8341   2.9455   3.1654   3.1752   3.2473   3.2523   3.3503
     3.3671   3.5654   3.5840   3.6210   3.8221   3.8266   3.8821   3.8945
     4.1397   4.1484   4.1606   4.3912   4.4303   4.4383   4.4795   4.8078
     4.8202   4.8475   4.9776   5.1541   5.1572   5.2065   5.2433   5.5305
     5.8166   5.9209   5.9378   5.9468   5.9561   6.0102   6.0190   6.0946
     6.1230   6.1495   6.1566   6.1824   6.1878   6.2074   6.2235   6.2389
     6.2488   6.4390   6.5740   6.6925   6.7635   6.8021   6.8870   6.8928
     6.9019   7.0077   7.0321

          k = 0.2500-0.4330-0.1111 (136853 PWs)   bands (ev):

   -18.8292  -6.8520  -6.3309  -5.9345  -5.9328  -5.2546  -4.9247  -4.9230
    -4.8836  -4.8827  -4.5244  -4.5233  -4.4255  -4.4249  -4.4111  -4.3881
    -4.3649  -4.2595  -4.2559  -4.2333  -4.1899  -4.1895  -4.1235  -4.1204
    -4.1156  -4.1131  -4.0923  -4.0877  -4.0853  -4.0179  -4.0132  -3.9852
    -3.9835  -3.9729  -3.9720  -3.9490  -3.9483  -3.9261  -3.9180  -3.9176
    -3.8928  -3.8399  -3.8388  -3.7920  -3.7894  -3.7355  -3.7341  -3.6816
    -3.6776  -3.6766  -3.6758  -3.6411  -3.6074  -3.6057  -3.5957  -3.5953
    -3.5934  -3.5707  -3.5633  -3.5550  -3.4968  -3.4952  -3.4899  -3.4679
    -3.4599  -3.3909  -3.3865  -3.3600  -3.3538  -3.3314  -3.3256  -3.3118
    -3.2980  -3.2442  -3.2382  -3.2202  -3.2182  -3.1702  -3.1651  -3.1625
    -3.1265  -3.1049  -3.0923  -3.0868  -3.0833  -3.0757  -3.0718  -3.0676
    -3.0619  -3.0566  -3.0229  -3.0029  -2.9733  -2.9713  -2.9587  -2.9567
    -2.9307  -2.9255  -2.9209  -2.8921  -2.8551  -2.8536  -2.8472  -2.8087
    -2.8006  -2.7898  -2.7882  -2.7624  -2.7585  -2.7296  -2.6937  -2.6914
    -2.6734  -2.6632  -2.6504  -2.6487  -2.6014  -2.5986  -2.5661  -2.5443
    -2.5422  -2.5220  -2.5177  -2.5088  -2.5058  -2.4975  -2.4775  -2.4751
    -2.4294  -2.4289  -2.4274  -2.4146  -2.4114  -2.4044  -2.3988  -2.3964
    -2.3950  -2.3926  -2.3866  -2.3810  -2.3745  -2.3674  -2.3423  -2.3383
    -2.3369  -2.3347  -2.3335  -2.3322  -2.3307  -2.3058  -2.3037  -2.2895
    -2.2866  -2.2692  -2.2685  -2.2614  -2.2591  -2.2576  -2.2561  -2.2405
    -2.2373  -2.2351  -2.2343  -2.2197  -2.1925  -2.1912  -2.1517  -2.1493
    -2.1295  -2.1267  -2.1002  -2.0965  -2.0744  -2.0698  -2.0556  -2.0499
    -2.0221  -2.0075  -2.0018  -1.9960  -1.9930  -1.9897  -1.9836  -1.9810
    -1.9561  -1.9497  -1.9444  -1.8854  -1.8816  -1.8784  -1.8751  -1.8739
    -1.8438  -1.8210  -1.8185  -1.7945  -1.7900  -1.7353  -1.7321  -1.7031
    -1.6870  -1.6823  -1.6253  -1.6234  -1.6138  -1.6100  -1.6021  -1.5984
    -1.5950  -1.5884  -1.5852  -1.5378  -1.5280  -1.5235  -1.5178  -1.5161
    -1.5029  -1.4967  -1.4641  -1.4634  -1.4498  -1.4469  -1.4451  -1.4382
    -1.4337  -1.4277  -1.4215  -1.4057  -1.4018  -1.3695  -1.3599  -1.3551
    -1.3502  -1.3330  -1.3160  -1.2804  -1.2738  -1.2482  -1.2446  -1.2427
    -1.2147  -1.1731  -1.1660  -1.1613  -1.1583  -1.1567  -1.1536  -1.1457
    -1.1288  -1.1247  -1.0956  -1.0827  -1.0655  -1.0539  -1.0523  -1.0460
    -1.0417  -1.0332  -1.0264  -1.0229  -1.0216  -1.0181  -0.9995  -0.9826
    -0.9799  -0.9781  -0.9654  -0.9499  -0.9447  -0.9318  -0.9184  -0.9137
    -0.8831  -0.8671  -0.8586  -0.8496  -0.8234  -0.8137  -0.8081  -0.8031
    -0.7983  -0.7960  -0.7940  -0.7891  -0.7813  -0.7694  -0.7592  -0.7564
    -0.7531  -0.7513  -0.7429  -0.7142  -0.7127  -0.7025  -0.6963  -0.6838
    -0.6791  -0.6699  -0.6652  -0.6128  -0.6113  -0.6028  -0.6018  -0.5996
    -0.5965  -0.5874  -0.5747  -0.5720  -0.5648  -0.5642  -0.5624  -0.5502
    -0.5243  -0.5232  -0.5192  -0.5134  -0.5104  -0.5073  -0.5038  -0.4926
    -0.4874  -0.4868  -0.4719  -0.4451  -0.4439  -0.4363  -0.4315  -0.4298
    -0.3583  -0.3526  -0.3516  -0.3491  -0.3424  -0.3366  -0.3052  -0.2942
    -0.2911  -0.2620  -0.2600  -0.2524  -0.1432  -0.1354  -0.0377   0.3776
     0.3787   0.3826   0.3833   0.4438   0.4526   0.8310   0.8323   0.8730
     0.8756   0.9896   1.0663   1.1727   1.1831   1.3977   1.4103   2.0263
     2.0338   2.1869   2.1970   2.3228   2.3342   2.4276   2.4286   2.5822
     2.8200   2.8341   2.9455   3.1654   3.1752   3.2473   3.2523   3.3503
     3.3671   3.5654   3.5840   3.6210   3.8221   3.8266   3.8821   3.8945
     4.1397   4.1484   4.1606   4.3912   4.4303   4.4383   4.4795   4.8078
     4.8202   4.8475   4.9776   5.1541   5.1572   5.2065   5.2433   5.5304
     5.8174   5.9210   5.9380   5.9468   5.9561   6.0102   6.0190   6.0950
     6.1228   6.1490   6.1542   6.1822   6.1876   6.2073   6.2234   6.2389
     6.2487   6.4381   6.5733   6.7090   6.7630   6.8027   6.8872   6.8947
     6.9022   7.0059   7.0169

          k = 0.5000 0.0000 0.1111 (136853 PWs)   bands (ev):

   -18.8292  -6.8521  -6.3307  -5.9359  -5.9314  -5.2544  -4.9243  -4.9238
    -4.8872  -4.8792  -4.5247  -4.5225  -4.4255  -4.4249  -4.4107  -4.3881
    -4.3649  -4.2599  -4.2562  -4.2338  -4.1898  -4.1894  -4.1231  -4.1202
    -4.1166  -4.1133  -4.0922  -4.0884  -4.0846  -4.0199  -4.0114  -3.9858
    -3.9830  -3.9727  -3.9720  -3.9490  -3.9483  -3.9261  -3.9182  -3.9174
    -3.8923  -3.8397  -3.8391  -3.7921  -3.7890  -3.7350  -3.7344  -3.6800
    -3.6781  -3.6766  -3.6761  -3.6416  -3.6077  -3.6057  -3.5958  -3.5949
    -3.5937  -3.5706  -3.5647  -3.5549  -3.4974  -3.4952  -3.4904  -3.4674
    -3.4596  -3.3910  -3.3866  -3.3600  -3.3529  -3.3284  -3.3259  -3.3117
    -3.2963  -3.2419  -3.2390  -3.2209  -3.2178  -3.1705  -3.1655  -3.1624
    -3.1223  -3.1006  -3.0948  -3.0906  -3.0821  -3.0780  -3.0741  -3.0670
    -3.0610  -3.0538  -3.0230  -3.0115  -2.9747  -2.9700  -2.9588  -2.9579
    -2.9315  -2.9241  -2.9224  -2.8924  -2.8553  -2.8540  -2.8410  -2.8087
    -2.8008  -2.7892  -2.7877  -2.7624  -2.7549  -2.7296  -2.6946  -2.6932
    -2.6734  -2.6633  -2.6512  -2.6490  -2.6010  -2.5986  -2.5662  -2.5447
    -2.5430  -2.5216  -2.5169  -2.5087  -2.5049  -2.4974  -2.4768  -2.4756
    -2.4326  -2.4292  -2.4273  -2.4136  -2.4119  -2.4044  -2.3994  -2.3978
    -2.3945  -2.3927  -2.3867  -2.3818  -2.3741  -2.3699  -2.3416  -2.3388
    -2.3373  -2.3356  -2.3338  -2.3327  -2.3300  -2.3051  -2.3040  -2.2886
    -2.2869  -2.2691  -2.2686  -2.2613  -2.2588  -2.2579  -2.2536  -2.2420
    -2.2379  -2.2345  -2.2327  -2.2210  -2.1933  -2.1913  -2.1511  -2.1501
    -2.1287  -2.1271  -2.1003  -2.0977  -2.0724  -2.0695  -2.0547  -2.0495
    -2.0221  -2.0036  -2.0018  -1.9959  -1.9926  -1.9873  -1.9827  -1.9782
    -1.9562  -1.9501  -1.9439  -1.8892  -1.8833  -1.8784  -1.8766  -1.8738
    -1.8452  -1.8213  -1.8186  -1.7941  -1.7924  -1.7357  -1.7321  -1.7051
    -1.6857  -1.6804  -1.6258  -1.6216  -1.6153  -1.6090  -1.6014  -1.5984
    -1.5952  -1.5894  -1.5845  -1.5332  -1.5300  -1.5240  -1.5200  -1.5157
    -1.5014  -1.4963  -1.4700  -1.4624  -1.4491  -1.4472  -1.4448  -1.4374
    -1.4359  -1.4288  -1.4212  -1.4043  -1.4028  -1.3657  -1.3647  -1.3557
    -1.3497  -1.3332  -1.3156  -1.2799  -1.2727  -1.2473  -1.2455  -1.2421
    -1.2149  -1.1694  -1.1654  -1.1604  -1.1579  -1.1530  -1.1519  -1.1443
    -1.1324  -1.1240  -1.0949  -1.0831  -1.0730  -1.0567  -1.0509  -1.0478
    -1.0418  -1.0373  -1.0284  -1.0237  -1.0209  -1.0179  -0.9905  -0.9813
    -0.9798  -0.9777  -0.9631  -0.9502  -0.9452  -0.9333  -0.9206  -0.9116
    -0.8993  -0.8674  -0.8603  -0.8373  -0.8236  -0.8146  -0.8056  -0.8029
    -0.7979  -0.7957  -0.7945  -0.7839  -0.7821  -0.7663  -0.7580  -0.7563
    -0.7539  -0.7516  -0.7396  -0.7147  -0.7130  -0.7036  -0.6994  -0.6876
    -0.6782  -0.6712  -0.6610  -0.6115  -0.6113  -0.6022  -0.6009  -0.5983
    -0.5969  -0.5936  -0.5760  -0.5708  -0.5656  -0.5646  -0.5637  -0.5501
    -0.5246  -0.5227  -0.5205  -0.5133  -0.5098  -0.5065  -0.4994  -0.4898
    -0.4873  -0.4848  -0.4821  -0.4463  -0.4421  -0.4367  -0.4310  -0.4264
    -0.3575  -0.3531  -0.3510  -0.3490  -0.3414  -0.3411  -0.3057  -0.2943
    -0.2918  -0.2645  -0.2606  -0.2496  -0.1398  -0.1352  -0.0357   0.3775
     0.3788   0.3825   0.3832   0.4410   0.4534   0.8297   0.8313   0.8735
     0.8755   0.9914   1.0666   1.1710   1.1875   1.3903   1.4162   2.0257
     2.0335   2.1860   2.1992   2.3177   2.3374   2.4274   2.4289   2.5818
     2.8195   2.8354   2.9450   3.1607   3.1803   3.2489   3.2517   3.3492
     3.3673   3.5535   3.5929   3.6230   3.8222   3.8266   3.8817   3.8968
     4.1352   4.1483   4.1637   4.3920   4.4287   4.4377   4.4812   4.8100
     4.8216   4.8401   4.9768   5.1548   5.1568   5.2010   5.2516   5.5354
     5.8066   5.9249   5.9439   5.9521   5.9585   6.0137   6.0194   6.0878
     6.1202   6.1485   6.1534   6.1827   6.1902   6.1973   6.2217   6.2366
     6.2553   6.4378   6.5804   6.6969   6.7660   6.8141   6.8795   6.8979
     6.8995   7.0068   7.0221

          k =-0.5000 0.0000 0.1111 (136853 PWs)   bands (ev):

   -18.8292  -6.8521  -6.3307  -5.9359  -5.9314  -5.2544  -4.9243  -4.9238
    -4.8872  -4.8792  -4.5247  -4.5225  -4.4255  -4.4249  -4.4107  -4.3881
    -4.3649  -4.2599  -4.2562  -4.2338  -4.1898  -4.1894  -4.1231  -4.1202
    -4.1166  -4.1133  -4.0922  -4.0884  -4.0846  -4.0199  -4.0114  -3.9858
    -3.9830  -3.9727  -3.9720  -3.9490  -3.9483  -3.9261  -3.9182  -3.9174
    -3.8923  -3.8397  -3.8391  -3.7921  -3.7890  -3.7350  -3.7344  -3.6800
    -3.6781  -3.6766  -3.6761  -3.6416  -3.6077  -3.6057  -3.5958  -3.5949
    -3.5937  -3.5706  -3.5647  -3.5549  -3.4974  -3.4952  -3.4904  -3.4674
    -3.4596  -3.3910  -3.3866  -3.3600  -3.3529  -3.3284  -3.3259  -3.3117
    -3.2963  -3.2419  -3.2390  -3.2209  -3.2178  -3.1705  -3.1655  -3.1624
    -3.1223  -3.1006  -3.0948  -3.0906  -3.0821  -3.0780  -3.0741  -3.0670
    -3.0610  -3.0538  -3.0230  -3.0115  -2.9747  -2.9700  -2.9588  -2.9579
    -2.9315  -2.9241  -2.9224  -2.8924  -2.8553  -2.8540  -2.8410  -2.8087
    -2.8008  -2.7892  -2.7877  -2.7624  -2.7549  -2.7296  -2.6946  -2.6932
    -2.6734  -2.6633  -2.6512  -2.6490  -2.6010  -2.5986  -2.5662  -2.5447
    -2.5430  -2.5216  -2.5169  -2.5087  -2.5049  -2.4974  -2.4768  -2.4756
    -2.4326  -2.4292  -2.4273  -2.4136  -2.4119  -2.4044  -2.3994  -2.3978
    -2.3945  -2.3927  -2.3867  -2.3818  -2.3741  -2.3699  -2.3416  -2.3388
    -2.3373  -2.3356  -2.3338  -2.3327  -2.3300  -2.3051  -2.3040  -2.2886
    -2.2869  -2.2691  -2.2686  -2.2613  -2.2588  -2.2579  -2.2536  -2.2420
    -2.2379  -2.2345  -2.2327  -2.2210  -2.1933  -2.1913  -2.1511  -2.1501
    -2.1287  -2.1271  -2.1003  -2.0977  -2.0724  -2.0695  -2.0547  -2.0495
    -2.0221  -2.0036  -2.0018  -1.9958  -1.9926  -1.9873  -1.9827  -1.9782
    -1.9562  -1.9501  -1.9439  -1.8892  -1.8833  -1.8784  -1.8766  -1.8738
    -1.8452  -1.8213  -1.8186  -1.7941  -1.7924  -1.7357  -1.7321  -1.7051
    -1.6857  -1.6804  -1.6258  -1.6216  -1.6153  -1.6090  -1.6014  -1.5984
    -1.5952  -1.5894  -1.5845  -1.5332  -1.5300  -1.5240  -1.5200  -1.5157
    -1.5014  -1.4963  -1.4700  -1.4624  -1.4491  -1.4472  -1.4448  -1.4374
    -1.4359  -1.4288  -1.4212  -1.4043  -1.4028  -1.3657  -1.3647  -1.3557
    -1.3497  -1.3332  -1.3156  -1.2799  -1.2727  -1.2473  -1.2455  -1.2421
    -1.2149  -1.1694  -1.1654  -1.1604  -1.1579  -1.1530  -1.1519  -1.1443
    -1.1324  -1.1240  -1.0949  -1.0831  -1.0730  -1.0567  -1.0509  -1.0478
    -1.0418  -1.0373  -1.0284  -1.0237  -1.0209  -1.0179  -0.9905  -0.9813
    -0.9798  -0.9777  -0.9631  -0.9502  -0.9452  -0.9333  -0.9206  -0.9116
    -0.8993  -0.8674  -0.8603  -0.8373  -0.8236  -0.8146  -0.8056  -0.8029
    -0.7979  -0.7957  -0.7945  -0.7839  -0.7821  -0.7663  -0.7580  -0.7563
    -0.7539  -0.7516  -0.7396  -0.7147  -0.7130  -0.7036  -0.6994  -0.6876
    -0.6782  -0.6712  -0.6610  -0.6115  -0.6113  -0.6022  -0.6009  -0.5983
    -0.5969  -0.5936  -0.5760  -0.5708  -0.5656  -0.5646  -0.5637  -0.5501
    -0.5246  -0.5227  -0.5205  -0.5133  -0.5098  -0.5065  -0.4994  -0.4898
    -0.4873  -0.4848  -0.4821  -0.4463  -0.4421  -0.4367  -0.4310  -0.4264
    -0.3575  -0.3531  -0.3510  -0.3490  -0.3414  -0.3411  -0.3057  -0.2943
    -0.2918  -0.2645  -0.2606  -0.2496  -0.1398  -0.1352  -0.0357   0.3775
     0.3788   0.3825   0.3832   0.4410   0.4534   0.8297   0.8313   0.8735
     0.8755   0.9914   1.0666   1.1710   1.1875   1.3903   1.4162   2.0257
     2.0335   2.1860   2.1992   2.3177   2.3374   2.4274   2.4289   2.5818
     2.8195   2.8354   2.9450   3.1607   3.1803   3.2489   3.2517   3.3492
     3.3673   3.5535   3.5929   3.6230   3.8222   3.8266   3.8817   3.8968
     4.1352   4.1483   4.1637   4.3920   4.4287   4.4377   4.4812   4.8100
     4.8216   4.8401   4.9768   5.1548   5.1568   5.2010   5.2516   5.5354
     5.8066   5.9249   5.9439   5.9521   5.9585   6.0137   6.0194   6.0877
     6.1203   6.1483   6.1535   6.1827   6.1902   6.1972   6.2217   6.2366
     6.2553   6.4378   6.5802   6.6971   6.7663   6.8147   6.8795   6.8977
     6.8999   7.0068   7.0217

          k =-0.2500 0.1443 0.1111 (136898 PWs)   bands (ev):

   -18.8292  -6.8546  -6.5375  -5.7514  -5.4574  -5.4027  -5.4006  -4.8646
    -4.8632  -4.7322  -4.7307  -4.5758  -4.5466  -4.4844  -4.4537  -4.4482
    -4.4179  -4.4170  -4.2884  -4.2467  -4.2465  -4.1878  -4.1683  -4.1652
    -4.0642  -4.0631  -4.0280  -4.0265  -4.0263  -4.0003  -3.9791  -3.9784
    -3.8752  -3.8716  -3.8712  -3.8519  -3.8356  -3.8334  -3.8224  -3.8209
    -3.8103  -3.7794  -3.7784  -3.7778  -3.7767  -3.7468  -3.7461  -3.7286
    -3.7266  -3.7183  -3.6765  -3.6758  -3.6402  -3.6270  -3.6231  -3.6184
    -3.6183  -3.5453  -3.5440  -3.5117  -3.5098  -3.5058  -3.4400  -3.4382
    -3.4283  -3.4225  -3.3962  -3.3944  -3.3931  -3.3922  -3.2417  -3.2367
    -3.2154  -3.2144  -3.2091  -3.1938  -3.1909  -3.1698  -3.1666  -3.1196
    -3.1150  -3.1050  -3.0994  -3.0801  -3.0649  -3.0330  -3.0225  -3.0113
    -3.0059  -2.9989  -2.9653  -2.9646  -2.9562  -2.9550  -2.9407  -2.9289
    -2.9023  -2.9004  -2.8818  -2.8779  -2.8765  -2.8727  -2.8705  -2.7982
    -2.7965  -2.7935  -2.7654  -2.7639  -2.7057  -2.6990  -2.6758  -2.6741
    -2.6633  -2.6608  -2.6541  -2.6264  -2.6249  -2.6155  -2.5992  -2.5772
    -2.5738  -2.5689  -2.5527  -2.5518  -2.5451  -2.5396  -2.5376  -2.5332
    -2.5272  -2.4816  -2.4521  -2.4506  -2.4350  -2.4218  -2.4164  -2.4136
    -2.4083  -2.4056  -2.4035  -2.3765  -2.3747  -2.3741  -2.3652  -2.3641
    -2.3496  -2.3236  -2.3213  -2.3203  -2.3185  -2.3178  -2.2721  -2.2441
    -2.2423  -2.2399  -2.2350  -2.2245  -2.2148  -2.2128  -2.1953  -2.1950
    -2.1684  -2.1612  -2.1606  -2.1428  -2.1422  -2.1414  -2.1104  -2.1082
    -2.0724  -2.0638  -2.0614  -2.0594  -2.0567  -2.0516  -2.0508  -2.0471
    -2.0458  -2.0430  -2.0383  -2.0247  -2.0228  -1.9009  -1.8971  -1.8695
    -1.8604  -1.8562  -1.8507  -1.8498  -1.8388  -1.8345  -1.8314  -1.8301
    -1.8276  -1.8066  -1.8027  -1.7994  -1.7926  -1.7871  -1.7837  -1.7639
    -1.7624  -1.7359  -1.7335  -1.7063  -1.7037  -1.6926  -1.6839  -1.6671
    -1.6646  -1.6623  -1.6460  -1.6320  -1.6311  -1.6240  -1.6238  -1.6010
    -1.5982  -1.5827  -1.5804  -1.5497  -1.5467  -1.5391  -1.4952  -1.4886
    -1.4793  -1.4741  -1.4713  -1.4478  -1.4454  -1.4175  -1.4143  -1.4108
    -1.3800  -1.3703  -1.3687  -1.3526  -1.3504  -1.3288  -1.3262  -1.3242
    -1.2963  -1.2948  -1.2912  -1.2319  -1.2305  -1.2208  -1.2164  -1.2044
    -1.1998  -1.1884  -1.1853  -1.1686  -1.1555  -1.1336  -1.1297  -1.1192
    -1.1017  -1.0821  -1.0776  -1.0710  -1.0657  -1.0646  -1.0632  -1.0575
    -1.0431  -1.0259  -1.0171  -1.0080  -1.0012  -1.0002  -0.9988  -0.9814
    -0.9727  -0.9567  -0.9442  -0.9372  -0.8697  -0.8460  -0.8331  -0.8263
    -0.8249  -0.8219  -0.8145  -0.8122  -0.7935  -0.7793  -0.7745  -0.7686
    -0.7605  -0.7550  -0.7474  -0.7321  -0.7303  -0.7209  -0.7200  -0.6477
    -0.6465  -0.6178  -0.6105  -0.6074  -0.6038  -0.5999  -0.5993  -0.5939
    -0.5854  -0.5790  -0.5690  -0.5446  -0.5256  -0.5141  -0.5101  -0.5021
    -0.4969  -0.4889  -0.4867  -0.4855  -0.4830  -0.4760  -0.4672  -0.4631
    -0.4560  -0.4325  -0.4310  -0.4264  -0.4173  -0.4158  -0.3981  -0.3669
    -0.3643  -0.3571  -0.3512  -0.2894  -0.2876  -0.2539  -0.2525  -0.1969
    -0.1948  -0.1922  -0.1730  -0.1688   0.0602   0.0712   0.4072   0.4075
     0.4967   0.5102   0.6968   0.7173   0.7248   0.8536   0.8571   1.2873
     1.2884   1.3049   1.5694   1.5974   1.5981   1.8703   1.8884   1.9504
     1.9546   1.9768   1.9902   2.2081   2.2102   2.2982   2.2999   2.3783
     2.4338   2.4541   2.6020   2.7042   3.1306   3.1425   3.1437   3.1487
     3.1968   3.2004   3.4910   3.4923   3.7653   3.7828   3.8889   4.1869
     4.2194   4.2355   4.4428   4.4784   4.5282   4.5325   4.6241   4.7363
     4.7446   4.8563   4.8607   5.1588   5.2160   5.2366   5.3635   5.4307
     5.4569   5.6074   5.6222   5.6450   5.6476   5.7001   5.7113   5.7645
     5.8760   6.0701   6.2850   6.3133   6.3734   6.4439   6.4514   6.4606
     6.4710   6.5387   6.6527   6.6986   6.7116   6.8503   6.9227   6.9544
     6.9702   7.0286   7.0769

          k =-0.2500-0.1443-0.1111 (136898 PWs)   bands (ev):

   -18.8292  -6.8546  -6.5375  -5.7513  -5.4573  -5.4028  -5.4006  -4.8646
    -4.8632  -4.7320  -4.7310  -4.5758  -4.5467  -4.4845  -4.4537  -4.4481
    -4.4177  -4.4171  -4.2883  -4.2468  -4.2464  -4.1876  -4.1683  -4.1653
    -4.0640  -4.0631  -4.0280  -4.0266  -4.0263  -4.0003  -3.9789  -3.9785
    -3.8753  -3.8717  -3.8712  -3.8518  -3.8357  -3.8335  -3.8224  -3.8209
    -3.8104  -3.7793  -3.7784  -3.7778  -3.7767  -3.7469  -3.7459  -3.7286
    -3.7266  -3.7184  -3.6767  -3.6754  -3.6404  -3.6268  -3.6230  -3.6185
    -3.6183  -3.5454  -3.5440  -3.5118  -3.5095  -3.5058  -3.4401  -3.4385
    -3.4281  -3.4225  -3.3964  -3.3944  -3.3933  -3.3920  -3.2422  -3.2369
    -3.2159  -3.2138  -3.2088  -3.1937  -3.1910  -3.1693  -3.1667  -3.1197
    -3.1151  -3.1055  -3.0994  -3.0798  -3.0643  -3.0329  -3.0220  -3.0118
    -3.0060  -2.9987  -2.9653  -2.9648  -2.9562  -2.9551  -2.9410  -2.9300
    -2.9021  -2.9000  -2.8816  -2.8777  -2.8763  -2.8728  -2.8703  -2.7983
    -2.7966  -2.7937  -2.7654  -2.7640  -2.7051  -2.6993  -2.6759  -2.6741
    -2.6628  -2.6606  -2.6542  -2.6264  -2.6247  -2.6156  -2.5993  -2.5775
    -2.5742  -2.5689  -2.5529  -2.5519  -2.5451  -2.5394  -2.5376  -2.5333
    -2.5272  -2.4815  -2.4521  -2.4507  -2.4349  -2.4219  -2.4163  -2.4136
    -2.4083  -2.4055  -2.4039  -2.3765  -2.3747  -2.3739  -2.3651  -2.3639
    -2.3494  -2.3236  -2.3210  -2.3205  -2.3186  -2.3181  -2.2722  -2.2444
    -2.2424  -2.2399  -2.2348  -2.2246  -2.2147  -2.2123  -2.1952  -2.1948
    -2.1684  -2.1611  -2.1605  -2.1429  -2.1420  -2.1415  -2.1105  -2.1082
    -2.0719  -2.0636  -2.0610  -2.0593  -2.0565  -2.0517  -2.0508  -2.0474
    -2.0464  -2.0429  -2.0384  -2.0248  -2.0233  -1.9001  -1.8972  -1.8699
    -1.8602  -1.8561  -1.8507  -1.8497  -1.8394  -1.8349  -1.8316  -1.8299
    -1.8272  -1.8065  -1.8021  -1.7993  -1.7925  -1.7870  -1.7833  -1.7640
    -1.7626  -1.7354  -1.7338  -1.7075  -1.7036  -1.6928  -1.6840  -1.6672
    -1.6647  -1.6620  -1.6460  -1.6322  -1.6311  -1.6241  -1.6238  -1.6011
    -1.5980  -1.5825  -1.5802  -1.5500  -1.5469  -1.5399  -1.4946  -1.4886
    -1.4794  -1.4741  -1.4715  -1.4481  -1.4451  -1.4171  -1.4143  -1.4106
    -1.3806  -1.3697  -1.3685  -1.3528  -1.3503  -1.3299  -1.3250  -1.3237
    -1.2958  -1.2947  -1.2913  -1.2317  -1.2310  -1.2202  -1.2163  -1.2053
    -1.1997  -1.1889  -1.1851  -1.1684  -1.1552  -1.1337  -1.1296  -1.1179
    -1.1026  -1.0822  -1.0771  -1.0712  -1.0662  -1.0648  -1.0633  -1.0577
    -1.0430  -1.0277  -1.0165  -1.0099  -1.0013  -0.9995  -0.9962  -0.9821
    -0.9733  -0.9562  -0.9435  -0.9369  -0.8703  -0.8460  -0.8330  -0.8264
    -0.8249  -0.8226  -0.8152  -0.8120  -0.7935  -0.7809  -0.7747  -0.7676
    -0.7603  -0.7550  -0.7466  -0.7325  -0.7279  -0.7219  -0.7207  -0.6476
    -0.6462  -0.6174  -0.6105  -0.6079  -0.6038  -0.6000  -0.5994  -0.5947
    -0.5858  -0.5781  -0.5688  -0.5445  -0.5257  -0.5137  -0.5105  -0.5023
    -0.4972  -0.4892  -0.4866  -0.4856  -0.4832  -0.4754  -0.4673  -0.4632
    -0.4564  -0.4324  -0.4312  -0.4255  -0.4173  -0.4153  -0.3982  -0.3669
    -0.3643  -0.3570  -0.3511  -0.2894  -0.2875  -0.2540  -0.2524  -0.1969
    -0.1946  -0.1921  -0.1738  -0.1688   0.0618   0.0703   0.4072   0.4076
     0.4979   0.5096   0.6956   0.7175   0.7254   0.8541   0.8570   1.2873
     1.2882   1.3058   1.5693   1.5973   1.5980   1.8713   1.8878   1.9502
     1.9539   1.9777   1.9895   2.2075   2.2099   2.2985   2.2999   2.3784
     2.4345   2.4532   2.6024   2.7041   3.1308   3.1426   3.1437   3.1484
     3.1965   3.2003   3.4910   3.4921   3.7659   3.7822   3.8883   4.1874
     4.2194   4.2346   4.4445   4.4780   4.5282   4.5325   4.6236   4.7364
     4.7452   4.8564   4.8613   5.1583   5.2176   5.2374   5.3640   5.4299
     5.4575   5.6084   5.6212   5.6446   5.6476   5.6999   5.7124   5.7620
     5.8765   6.0680   6.2850   6.3129   6.3760   6.4427   6.4514   6.4606
     6.4712   6.5379   6.6514   6.7018   6.7114   6.8484   6.9223   6.9581
     6.9683   7.0278   7.0781

          k = 0.2500 0.1443-0.1111 (136898 PWs)   bands (ev):

   -18.8292  -6.8546  -6.5375  -5.7513  -5.4573  -5.4028  -5.4006  -4.8646
    -4.8632  -4.7320  -4.7310  -4.5758  -4.5467  -4.4845  -4.4537  -4.4481
    -4.4177  -4.4171  -4.2883  -4.2468  -4.2464  -4.1876  -4.1683  -4.1653
    -4.0640  -4.0631  -4.0280  -4.0266  -4.0263  -4.0003  -3.9789  -3.9785
    -3.8753  -3.8717  -3.8712  -3.8518  -3.8357  -3.8334  -3.8224  -3.8209
    -3.8104  -3.7793  -3.7784  -3.7778  -3.7767  -3.7469  -3.7459  -3.7286
    -3.7266  -3.7184  -3.6767  -3.6754  -3.6404  -3.6268  -3.6230  -3.6185
    -3.6183  -3.5454  -3.5440  -3.5118  -3.5095  -3.5058  -3.4401  -3.4385
    -3.4281  -3.4225  -3.3964  -3.3944  -3.3933  -3.3920  -3.2422  -3.2369
    -3.2159  -3.2138  -3.2088  -3.1937  -3.1910  -3.1693  -3.1667  -3.1197
    -3.1151  -3.1055  -3.0994  -3.0798  -3.0643  -3.0329  -3.0220  -3.0118
    -3.0060  -2.9987  -2.9653  -2.9648  -2.9562  -2.9551  -2.9410  -2.9300
    -2.9022  -2.9000  -2.8816  -2.8777  -2.8763  -2.8728  -2.8703  -2.7983
    -2.7966  -2.7937  -2.7654  -2.7640  -2.7051  -2.6993  -2.6759  -2.6741
    -2.6628  -2.6606  -2.6542  -2.6264  -2.6247  -2.6156  -2.5993  -2.5775
    -2.5741  -2.5689  -2.5529  -2.5519  -2.5451  -2.5394  -2.5376  -2.5334
    -2.5272  -2.4815  -2.4521  -2.4507  -2.4349  -2.4219  -2.4163  -2.4136
    -2.4083  -2.4055  -2.4039  -2.3765  -2.3747  -2.3739  -2.3651  -2.3639
    -2.3494  -2.3236  -2.3210  -2.3205  -2.3186  -2.3181  -2.2722  -2.2444
    -2.2424  -2.2399  -2.2348  -2.2246  -2.2147  -2.2123  -2.1952  -2.1948
    -2.1684  -2.1611  -2.1605  -2.1429  -2.1420  -2.1415  -2.1105  -2.1082
    -2.0720  -2.0636  -2.0610  -2.0593  -2.0565  -2.0517  -2.0508  -2.0474
    -2.0463  -2.0429  -2.0384  -2.0248  -2.0233  -1.9001  -1.8972  -1.8699
    -1.8602  -1.8561  -1.8507  -1.8497  -1.8394  -1.8349  -1.8316  -1.8300
    -1.8272  -1.8065  -1.8021  -1.7993  -1.7925  -1.7870  -1.7833  -1.7640
    -1.7626  -1.7354  -1.7338  -1.7075  -1.7036  -1.6928  -1.6840  -1.6672
    -1.6647  -1.6620  -1.6460  -1.6322  -1.6311  -1.6241  -1.6238  -1.6011
    -1.5980  -1.5825  -1.5802  -1.5500  -1.5469  -1.5399  -1.4946  -1.4886
    -1.4794  -1.4741  -1.4715  -1.4481  -1.4451  -1.4171  -1.4143  -1.4106
    -1.3806  -1.3697  -1.3685  -1.3528  -1.3503  -1.3299  -1.3250  -1.3237
    -1.2958  -1.2947  -1.2913  -1.2317  -1.2310  -1.2202  -1.2163  -1.2053
    -1.1997  -1.1889  -1.1851  -1.1683  -1.1553  -1.1337  -1.1296  -1.1179
    -1.1026  -1.0822  -1.0771  -1.0712  -1.0662  -1.0648  -1.0633  -1.0577
    -1.0430  -1.0277  -1.0165  -1.0099  -1.0013  -0.9995  -0.9962  -0.9821
    -0.9733  -0.9562  -0.9435  -0.9369  -0.8703  -0.8460  -0.8330  -0.8264
    -0.8249  -0.8226  -0.8152  -0.8120  -0.7935  -0.7809  -0.7747  -0.7676
    -0.7603  -0.7550  -0.7466  -0.7325  -0.7279  -0.7219  -0.7207  -0.6476
    -0.6462  -0.6174  -0.6105  -0.6079  -0.6038  -0.6000  -0.5994  -0.5947
    -0.5858  -0.5781  -0.5688  -0.5445  -0.5257  -0.5137  -0.5105  -0.5023
    -0.4972  -0.4892  -0.4866  -0.4856  -0.4832  -0.4754  -0.4673  -0.4632
    -0.4564  -0.4324  -0.4312  -0.4255  -0.4173  -0.4153  -0.3982  -0.3669
    -0.3643  -0.3570  -0.3511  -0.2894  -0.2875  -0.2540  -0.2524  -0.1969
    -0.1946  -0.1921  -0.1738  -0.1688   0.0618   0.0703   0.4072   0.4076
     0.4979   0.5096   0.6956   0.7175   0.7254   0.8541   0.8570   1.2873
     1.2882   1.3058   1.5693   1.5973   1.5980   1.8713   1.8878   1.9502
     1.9539   1.9777   1.9895   2.2075   2.2099   2.2985   2.2999   2.3784
     2.4345   2.4532   2.6024   2.7041   3.1308   3.1426   3.1437   3.1484
     3.1965   3.2003   3.4910   3.4921   3.7659   3.7822   3.8883   4.1874
     4.2194   4.2346   4.4445   4.4780   4.5282   4.5325   4.6236   4.7364
     4.7452   4.8564   4.8613   5.1583   5.2176   5.2374   5.3639   5.4299
     5.4576   5.6084   5.6212   5.6446   5.6476   5.6999   5.7124   5.7624
     5.8749   6.0707   6.2854   6.3137   6.3761   6.4430   6.4516   6.4605
     6.4715   6.5319   6.6458   6.7016   6.7110   6.8510   6.9244   6.9582
     6.9683   7.0299   7.0834

          k = 0.0000-0.2887 0.1111 (136898 PWs)   bands (ev):

   -18.8292  -6.8545  -6.5376  -5.7516  -5.4574  -5.4018  -5.4012  -4.8641
    -4.8635  -4.7339  -4.7299  -4.5758  -4.5466  -4.4848  -4.4508  -4.4501
    -4.4175  -4.4171  -4.2884  -4.2467  -4.2464  -4.1882  -4.1672  -4.1660
    -4.0638  -4.0632  -4.0279  -4.0265  -4.0263  -4.0002  -3.9787  -3.9785
    -3.8753  -3.8721  -3.8713  -3.8515  -3.8355  -3.8335  -3.8220  -3.8214
    -3.8103  -3.7792  -3.7785  -3.7774  -3.7768  -3.7470  -3.7461  -3.7286
    -3.7267  -3.7180  -3.6775  -3.6746  -3.6408  -3.6257  -3.6243  -3.6183
    -3.6182  -3.5455  -3.5441  -3.5112  -3.5086  -3.5071  -3.4401  -3.4383
    -3.4274  -3.4225  -3.3967  -3.3942  -3.3939  -3.3921  -3.2496  -3.2367
    -3.2164  -3.2130  -3.2086  -3.1920  -3.1912  -3.1687  -3.1669  -3.1280
    -3.1150  -3.1074  -3.0984  -3.0794  -3.0473  -3.0349  -3.0273  -3.0112
    -3.0057  -2.9936  -2.9654  -2.9601  -2.9568  -2.9547  -2.9407  -2.9382
    -2.9016  -2.8977  -2.8818  -2.8789  -2.8763  -2.8762  -2.8706  -2.7972
    -2.7969  -2.7915  -2.7646  -2.7645  -2.7068  -2.7022  -2.6751  -2.6730
    -2.6615  -2.6612  -2.6540  -2.6264  -2.6259  -2.6155  -2.5983  -2.5789
    -2.5725  -2.5706  -2.5526  -2.5523  -2.5428  -2.5420  -2.5371  -2.5318
    -2.5272  -2.4815  -2.4516  -2.4512  -2.4343  -2.4216  -2.4168  -2.4135
    -2.4071  -2.4062  -2.4042  -2.3763  -2.3759  -2.3731  -2.3643  -2.3637
    -2.3493  -2.3221  -2.3217  -2.3203  -2.3189  -2.3174  -2.2724  -2.2431
    -2.2421  -2.2408  -2.2350  -2.2247  -2.2150  -2.2117  -2.1950  -2.1950
    -2.1669  -2.1609  -2.1606  -2.1444  -2.1425  -2.1419  -2.1100  -2.1080
    -2.0732  -2.0637  -2.0616  -2.0580  -2.0574  -2.0521  -2.0513  -2.0485
    -2.0472  -2.0410  -2.0403  -2.0242  -2.0233  -1.8997  -1.8986  -1.8635
    -1.8593  -1.8575  -1.8503  -1.8503  -1.8387  -1.8371  -1.8326  -1.8296
    -1.8257  -1.8066  -1.8030  -1.7995  -1.7924  -1.7859  -1.7844  -1.7655
    -1.7621  -1.7371  -1.7334  -1.7065  -1.7033  -1.6929  -1.6843  -1.6663
    -1.6651  -1.6623  -1.6462  -1.6320  -1.6313  -1.6240  -1.6237  -1.5994
    -1.5976  -1.5829  -1.5820  -1.5524  -1.5464  -1.5383  -1.4921  -1.4902
    -1.4760  -1.4749  -1.4696  -1.4482  -1.4450  -1.4211  -1.4135  -1.4131
    -1.3793  -1.3696  -1.3677  -1.3521  -1.3511  -1.3287  -1.3258  -1.3214
    -1.2983  -1.2914  -1.2909  -1.2374  -1.2276  -1.2199  -1.2168  -1.2058
    -1.2031  -1.1893  -1.1860  -1.1683  -1.1555  -1.1314  -1.1269  -1.1155
    -1.0919  -1.0845  -1.0797  -1.0694  -1.0669  -1.0640  -1.0631  -1.0555
    -1.0476  -1.0431  -1.0184  -1.0130  -1.0042  -0.9999  -0.9991  -0.9794
    -0.9621  -0.9578  -0.9392  -0.9363  -0.8650  -0.8459  -0.8299  -0.8279
    -0.8241  -0.8219  -0.8156  -0.8069  -0.7918  -0.7892  -0.7784  -0.7734
    -0.7615  -0.7563  -0.7493  -0.7305  -0.7288  -0.7223  -0.7153  -0.6486
    -0.6438  -0.6162  -0.6110  -0.6073  -0.6037  -0.6000  -0.5989  -0.5975
    -0.5897  -0.5715  -0.5677  -0.5445  -0.5312  -0.5128  -0.5095  -0.5023
    -0.4986  -0.4896  -0.4890  -0.4849  -0.4837  -0.4740  -0.4667  -0.4630
    -0.4570  -0.4327  -0.4323  -0.4240  -0.4181  -0.4113  -0.3973  -0.3667
    -0.3647  -0.3568  -0.3555  -0.2901  -0.2833  -0.2542  -0.2522  -0.1967
    -0.1943  -0.1915  -0.1768  -0.1689   0.0615   0.0731   0.4070   0.4077
     0.5012   0.5077   0.6910   0.7186   0.7259   0.8546   0.8555   1.2877
     1.2883   1.3044   1.5689   1.5978   1.5980   1.8754   1.8842   1.9511
     1.9549   1.9816   1.9851   2.2089   2.2100   2.2982   2.2997   2.3798
     2.4407   2.4455   2.6017   2.7042   3.1282   3.1431   3.1446   3.1486
     3.1985   3.1997   3.4900   3.4923   3.7705   3.7786   3.8884   4.1886
     4.2220   4.2324   4.4503   4.4694   4.5286   4.5358   4.6223   4.7334
     4.7491   4.8526   4.8601   5.1553   5.2169   5.2425   5.3783   5.4192
     5.4518   5.6152   5.6207   5.6401   5.6481   5.6954   5.7150   5.7646
     5.8747   6.0824   6.2828   6.3135   6.3623   6.4490   6.4518   6.4535
     6.4689   6.5286   6.6524   6.6986   6.7072   6.8649   6.9216   6.9587
     6.9659   7.0293   7.0766

          k = 0.0000 0.2887 0.1111 (136898 PWs)   bands (ev):

   -18.8292  -6.8545  -6.5376  -5.7516  -5.4574  -5.4018  -5.4012  -4.8641
    -4.8635  -4.7339  -4.7299  -4.5758  -4.5466  -4.4848  -4.4508  -4.4501
    -4.4175  -4.4171  -4.2884  -4.2467  -4.2464  -4.1882  -4.1672  -4.1660
    -4.0638  -4.0632  -4.0279  -4.0265  -4.0263  -4.0002  -3.9787  -3.9785
    -3.8753  -3.8721  -3.8713  -3.8515  -3.8355  -3.8335  -3.8220  -3.8214
    -3.8103  -3.7792  -3.7785  -3.7774  -3.7768  -3.7470  -3.7461  -3.7286
    -3.7267  -3.7180  -3.6775  -3.6746  -3.6408  -3.6257  -3.6243  -3.6183
    -3.6182  -3.5455  -3.5441  -3.5112  -3.5086  -3.5071  -3.4401  -3.4383
    -3.4274  -3.4225  -3.3967  -3.3942  -3.3939  -3.3921  -3.2496  -3.2367
    -3.2164  -3.2130  -3.2086  -3.1920  -3.1912  -3.1687  -3.1669  -3.1280
    -3.1150  -3.1074  -3.0984  -3.0794  -3.0473  -3.0349  -3.0273  -3.0112
    -3.0057  -2.9936  -2.9654  -2.9601  -2.9568  -2.9547  -2.9407  -2.9382
    -2.9016  -2.8977  -2.8818  -2.8789  -2.8763  -2.8762  -2.8706  -2.7972
    -2.7969  -2.7915  -2.7646  -2.7645  -2.7068  -2.7022  -2.6751  -2.6730
    -2.6615  -2.6612  -2.6540  -2.6264  -2.6259  -2.6155  -2.5983  -2.5789
    -2.5725  -2.5706  -2.5526  -2.5523  -2.5428  -2.5421  -2.5371  -2.5318
    -2.5272  -2.4815  -2.4516  -2.4512  -2.4343  -2.4216  -2.4168  -2.4135
    -2.4071  -2.4062  -2.4042  -2.3763  -2.3759  -2.3731  -2.3643  -2.3637
    -2.3493  -2.3221  -2.3217  -2.3203  -2.3189  -2.3174  -2.2724  -2.2431
    -2.2421  -2.2408  -2.2351  -2.2247  -2.2150  -2.2117  -2.1950  -2.1950
    -2.1669  -2.1609  -2.1606  -2.1444  -2.1425  -2.1419  -2.1100  -2.1080
    -2.0732  -2.0637  -2.0616  -2.0580  -2.0574  -2.0521  -2.0513  -2.0485
    -2.0472  -2.0410  -2.0403  -2.0242  -2.0233  -1.8997  -1.8986  -1.8635
    -1.8593  -1.8575  -1.8503  -1.8503  -1.8387  -1.8371  -1.8326  -1.8296
    -1.8257  -1.8066  -1.8030  -1.7995  -1.7924  -1.7859  -1.7844  -1.7655
    -1.7621  -1.7371  -1.7334  -1.7065  -1.7033  -1.6929  -1.6843  -1.6663
    -1.6651  -1.6623  -1.6462  -1.6319  -1.6313  -1.6240  -1.6237  -1.5994
    -1.5976  -1.5829  -1.5820  -1.5524  -1.5464  -1.5383  -1.4921  -1.4902
    -1.4760  -1.4749  -1.4696  -1.4482  -1.4450  -1.4211  -1.4135  -1.4131
    -1.3794  -1.3696  -1.3677  -1.3521  -1.3511  -1.3287  -1.3258  -1.3214
    -1.2983  -1.2914  -1.2909  -1.2374  -1.2276  -1.2199  -1.2168  -1.2058
    -1.2031  -1.1893  -1.1860  -1.1683  -1.1555  -1.1314  -1.1269  -1.1155
    -1.0919  -1.0845  -1.0797  -1.0694  -1.0669  -1.0640  -1.0631  -1.0555
    -1.0476  -1.0431  -1.0184  -1.0130  -1.0042  -0.9999  -0.9992  -0.9795
    -0.9621  -0.9578  -0.9392  -0.9363  -0.8650  -0.8459  -0.8299  -0.8279
    -0.8241  -0.8219  -0.8156  -0.8069  -0.7918  -0.7892  -0.7784  -0.7734
    -0.7615  -0.7563  -0.7493  -0.7305  -0.7288  -0.7222  -0.7153  -0.6486
    -0.6438  -0.6162  -0.6110  -0.6073  -0.6037  -0.6000  -0.5989  -0.5975
    -0.5897  -0.5715  -0.5677  -0.5445  -0.5312  -0.5128  -0.5095  -0.5023
    -0.4986  -0.4896  -0.4890  -0.4849  -0.4837  -0.4740  -0.4668  -0.4630
    -0.4570  -0.4327  -0.4323  -0.4240  -0.4181  -0.4113  -0.3973  -0.3667
    -0.3647  -0.3568  -0.3555  -0.2901  -0.2833  -0.2542  -0.2522  -0.1967
    -0.1943  -0.1915  -0.1768  -0.1690   0.0615   0.0731   0.4070   0.4077
     0.5012   0.5077   0.6910   0.7186   0.7259   0.8546   0.8555   1.2877
     1.2883   1.3044   1.5689   1.5978   1.5980   1.8754   1.8842   1.9511
     1.9549   1.9816   1.9851   2.2089   2.2100   2.2982   2.2997   2.3798
     2.4407   2.4455   2.6017   2.7042   3.1282   3.1431   3.1446   3.1486
     3.1985   3.1997   3.4900   3.4923   3.7705   3.7786   3.8884   4.1886
     4.2220   4.2324   4.4503   4.4694   4.5286   4.5358   4.6223   4.7334
     4.7491   4.8526   4.8601   5.1553   5.2169   5.2425   5.3786   5.4192
     5.4514   5.6152   5.6206   5.6401   5.6481   5.6953   5.7150   5.7641
     5.8782   6.0779   6.2800   6.3118   6.3619   6.4481   6.4518   6.4534
     6.4689   6.5409   6.6559   6.6977   6.7072   6.8568   6.9218   6.9582
     6.9657   7.0378   7.0843

     the Fermi energy is     1.4330 ev

!    total energy              =   -6604.42415103 Ry
     Harris-Foulkes estimate   =   -6604.42415103 Ry
     estimated scf accuracy    <          2.7E-09 Ry

     The total energy is the sum of the following terms:

     one-electron contribution =  -48786.38753846 Ry
     hartree contribution      =   24894.25009788 Ry
     xc contribution           =   -3205.01354258 Ry
     ewald contribution        =   20492.72400543 Ry
     smearing contrib. (-TS)   =       0.00282671 Ry

     convergence has been achieved in  25 iterations

     Writing output data file 8424472.save

     init_run     :    144.02s CPU    155.57s WALL (       1 calls)
     electrons    :   8816.91s CPU   9450.45s WALL (       1 calls)

     Called by init_run:
     wfcinit      :    110.92s CPU    121.68s WALL (       1 calls)
     potinit      :      9.97s CPU     10.40s WALL (       1 calls)

     Called by electrons:
     c_bands      :   7226.28s CPU   7742.50s WALL (      26 calls)
     sum_band     :   1154.72s CPU   1254.10s WALL (      26 calls)
     v_of_rho     :    121.99s CPU    134.29s WALL (      26 calls)
     newd         :    323.90s CPU    328.78s WALL (      26 calls)
     mix_rho      :      3.16s CPU      3.44s WALL (      26 calls)
     vdW_energy   :     10.17s CPU     11.75s WALL (      26 calls)
     vdW_ffts     :     61.31s CPU     67.32s WALL (      52 calls)
     vdW_v        :     15.14s CPU     16.08s WALL (      26 calls)

     Called by c_bands:
     init_us_2    :     27.67s CPU     28.29s WALL (     636 calls)
     cegterg      :   7144.74s CPU   7659.41s WALL (     312 calls)

     Called by *egterg:
     h_psi        :   3176.74s CPU   3645.69s WALL (    1603 calls)
     s_psi        :    470.51s CPU    473.38s WALL (    1603 calls)
     g_psi        :      6.48s CPU      6.52s WALL (    1279 calls)
     cdiaghg      :   2030.35s CPU   2035.12s WALL (    1579 calls)

     Called by h_psi:
     add_vuspsi   :    462.98s CPU    465.57s WALL (    1603 calls)

     General routines
     calbec       :    672.60s CPU    675.46s WALL (    1915 calls)
     fft          :    121.64s CPU    131.69s WALL (    1716 calls)
     ffts         :      1.64s CPU      1.87s WALL (      52 calls)
     fftw         :   2044.29s CPU   2457.32s WALL (  757364 calls)
     interpolate  :      4.87s CPU      5.59s WALL (      52 calls)
     davcio       :      0.00s CPU      0.50s WALL (      12 calls)

     Parallel routines
     fft_scatter  :   1309.01s CPU   1576.48s WALL (  759132 calls)

     PWSCF        :     2h29m CPU        2h40m WALL


   This run was terminated on:  16:16: 2  24Aug2015            

=------------------------------------------------------------------------------=
   JOB DONE.
=------------------------------------------------------------------------------=
