
     Program PWSCF v.5.1.2 starts on 24Aug2015 at 12:38:13 

     This program is part of the open-source Quantum ESPRESSO suite
     for quantum simulation of materials; please cite
         "P. Giannozzi et al., J. Phys.:Condens. Matter 21 395502 (2009);
          URL http://www.quantum-espresso.org", 
     in publications or presentations arising from this work. More details at
     http://www.quantum-espresso.org/quote

     Parallel version (MPI), running on    32 processors
     R & G space division:  proc/nbgrp/npool/nimage =      32
     Reading input from hollow.O1.Au535758.d.2.7.phi.45.psi.0.in
Warning: card &IONS ignored
Warning: card / ignored
Warning: card &CELL ignored
Warning: card / ignored

     Current dimensions of program PWSCF are:
     Max number of different atomic species (ntypx) = 10
     Max number of k-points (npk) =  40000
     Max angular momentum in pseudopotentials (lmaxx) =  3

     IMPORTANT: XC functional enforced from input :
     Exchange-correlation      = VDW-DF ( 1  4  4  0 1 0)
     Any further DFT definition will be discarded
     Please, verify this is what you really want


     Subspace diagonalization in iterative solution of the eigenvalue problem:
     a serial algorithm will be used


     Parallelization info
     --------------------
     sticks:   dense  smooth     PW     G-vecs:    dense   smooth      PW
     Min         445     223     58                96775    34191    4534
     Max         446     224     59                96790    34246    4540
     Sum       14269    7147   1867              3097177  1095093  145167


     Title: 
     hollow.O1.Au535758.d.2.7.phi.45.psi.0                                      


     bravais-lattice index     =            4
     lattice parameter (alat)  =      22.7436  a.u.
     unit-cell volume          =   22924.1508 (a.u.)^3
     number of atoms/cell      =           67
     number of atomic types    =            3
     number of electrons       =       712.00
     number of Kohn-Sham states=          427
     kinetic-energy cutoff     =      50.0000  Ry
     charge density cutoff     =     400.0000  Ry
     convergence threshold     =      1.0E-08
     mixing beta               =       0.7000
     number of iterations used =            8  plain     mixing
     Exchange-correlation      = VDW-DF ( 1  4  4  0 1 0)

     celldm(1)=  22.743643  celldm(2)=   0.000000  celldm(3)=   2.250000
     celldm(4)=   0.000000  celldm(5)=   0.000000  celldm(6)=   0.000000

     crystal axes: (cart. coord. in units of alat)
               a(1) = (   1.000000   0.000000   0.000000 )  
               a(2) = (  -0.500000   0.866025   0.000000 )  
               a(3) = (   0.000000   0.000000   2.250000 )  

     reciprocal axes: (cart. coord. in units 2 pi/alat)
               b(1) = (  1.000000  0.577350 -0.000000 )  
               b(2) = (  0.000000  1.154701  0.000000 )  
               b(3) = (  0.000000 -0.000000  0.444444 )  


     PseudoPot. # 1 for Au read from file:
     /home/scc/andrejb/qe/pseudo/Au.pbe-nd-van.UPF
     MD5 check sum: 458681b50f36d87ef23c61b04bba420a
     Pseudo is Ultrasoft + core correction, Zval = 11.0
     Generated by new atomic code, or converted to UPF format
     Using radial grid of  985 points,  3 beta functions with: 
                l(1) =   1
                l(2) =   2
                l(3) =   2
     Q(r) pseudized with  8 coefficients,  rinner =    1.100   1.100   1.100
                                                       1.100   1.100

     PseudoPot. # 2 for H  read from file:
     /home/scc/andrejb/qe/pseudo/H.pbe-van_ak.UPF
     MD5 check sum: 403db7282739603aa925980fa9b8608d
     Pseudo is Ultrasoft, Zval =  1.0
     Generated by new atomic code, or converted to UPF format
     Using radial grid of  615 points,  1 beta functions with: 
                l(1) =   0
     Q(r) pseudized with  8 coefficients,  rinner =    0.800

     PseudoPot. # 3 for O  read from file:
     /home/scc/andrejb/qe/pseudo/O.pbe-van_ak.UPF
     MD5 check sum: 4b8c549914a63cae506c6ff22b5af4fe
     Pseudo is Ultrasoft, Zval =  6.0
     Generated by new atomic code, or converted to UPF format
     Using radial grid of  737 points,  4 beta functions with: 
                l(1) =   0
                l(2) =   0
                l(3) =   1
                l(4) =   1
     Q(r) pseudized with  8 coefficients,  rinner =    0.800   0.800   0.800


     vdW kernel table read from file vdW_kernel_table
     MD5 check sum: 48e77a2e26edf626eeb0eaa751ad5cac

     atomic species   valence    mass     pseudopotential
        Au            11.00   196.96657     Au( 1.00)
        H              1.00     1.01000     H ( 1.00)
        O              6.00    16.00000     O ( 1.00)

     No symmetry found



   Cartesian axes

     site n.     atom                  positions (alat units)
         1           O   tau(   1) = (  -0.0208375   0.5411347   0.8373442  )
         2           H   tau(   2) = (  -0.0267671   0.4764478   0.8855978  )
         3           H   tau(   3) = (  -0.0151011   0.6038736   0.8881049  )
         4           Au  tau(   4) = (   0.3540481   0.6132292   0.0000000  )
         5           Au  tau(   5) = (   0.4790062   0.3967954   0.0000000  )
         6           Au  tau(   6) = (   0.6039644   0.1803616   0.0000000  )
         7           Au  tau(   7) = (   0.7289225  -0.0360723   0.0000000  )
         8           Au  tau(   8) = (   0.1041318   0.6132292   0.0000000  )
         9           Au  tau(   9) = (   0.2290899   0.3967954   0.0000000  )
        10           Au  tau(  10) = (   0.3540481   0.1803616   0.0000000  )
        11           Au  tau(  11) = (   0.4790062  -0.0360723   0.0000000  )
        12           Au  tau(  12) = (  -0.1457845   0.6132292   0.0000000  )
        13           Au  tau(  13) = (  -0.0208264   0.3967954   0.0000000  )
        14           Au  tau(  14) = (   0.1041318   0.1803616   0.0000000  )
        15           Au  tau(  15) = (   0.2290899  -0.0360723   0.0000000  )
        16           Au  tau(  16) = (  -0.3957008   0.6132292   0.0000000  )
        17           Au  tau(  17) = (  -0.2707426   0.3967954   0.0000000  )
        18           Au  tau(  18) = (  -0.1457845   0.1803616   0.0000000  )
        19           Au  tau(  19) = (  -0.0208264  -0.0360723   0.0000000  )
        20           Au  tau(  20) = (   0.4790062   0.6853738   0.2040557  )
        21           Au  tau(  21) = (   0.6039644   0.4689400   0.2040557  )
        22           Au  tau(  22) = (   0.7289225   0.2525061   0.2040557  )
        23           Au  tau(  23) = (   0.8538806   0.0360723   0.2040557  )
        24           Au  tau(  24) = (   0.2290899   0.6853738   0.2040557  )
        25           Au  tau(  25) = (   0.3540481   0.4689400   0.2040557  )
        26           Au  tau(  26) = (   0.4790062   0.2525061   0.2040557  )
        27           Au  tau(  27) = (   0.6039644   0.0360723   0.2040557  )
        28           Au  tau(  28) = (  -0.0208264   0.6853738   0.2040557  )
        29           Au  tau(  29) = (   0.1041318   0.4689400   0.2040557  )
        30           Au  tau(  30) = (   0.2290899   0.2525061   0.2040557  )
        31           Au  tau(  31) = (   0.3540481   0.0360723   0.2040557  )
        32           Au  tau(  32) = (  -0.2707426   0.6853738   0.2040557  )
        33           Au  tau(  33) = (  -0.1457845   0.4689400   0.2040557  )
        34           Au  tau(  34) = (  -0.0208264   0.2525061   0.2040557  )
        35           Au  tau(  35) = (   0.1041318   0.0360723   0.2040557  )
        36           Au  tau(  36) = (   0.3541162   0.7576593   0.4066483  )
        37           Au  tau(  37) = (   0.4791000   0.5411421   0.4066695  )
        38           Au  tau(  38) = (   0.6040570   0.3246862   0.4066617  )
        39           Au  tau(  39) = (   0.7290270   0.1081684   0.4066529  )
        40           Au  tau(  40) = (   0.1041162   0.7576236   0.4066247  )
        41           Au  tau(  41) = (   0.2291001   0.5411063   0.4066455  )
        42           Au  tau(  42) = (   0.3540567   0.3246505   0.4066380  )
        43           Au  tau(  43) = (   0.4790276   0.1081324   0.4066292  )
        44           Au  tau(  44) = (  -0.1458201   0.7576104   0.4066224  )
        45           Au  tau(  45) = (  -0.0208365   0.5410930   0.4066438  )
        46           Au  tau(  46) = (   0.1041202   0.3246372   0.4066359  )
        47           Au  tau(  47) = (   0.2290908   0.1081193   0.4066273  )
        48           Au  tau(  48) = (  -0.3958167   0.7575791   0.4065812  )
        49           Au  tau(  49) = (  -0.2708328   0.5410617   0.4066025  )
        50           Au  tau(  50) = (  -0.1458763   0.3246061   0.4065947  )
        51           Au  tau(  51) = (  -0.0209056   0.1080882   0.4065858  )
        52           Au  tau(  52) = (   0.3541085   0.6133344   0.6129762  )
        53           Au  tau(  53) = (   0.4790780   0.3968269   0.6129968  )
        54           Au  tau(  54) = (   0.6040356   0.1803811   0.6129859  )
        55           Au  tau(  55) = (   0.7290165  -0.0361221   0.6129385  )
        56           Au  tau(  56) = (   0.1041243   0.6133091   0.6130022  )
        57           Au  tau(  57) = (   0.2290941   0.3968013   0.6130241  )
        58           Au  tau(  58) = (   0.3540515   0.1803552   0.6130121  )
        59           Au  tau(  59) = (   0.4790323  -0.0361475   0.6129659  )
        60           Au  tau(  60) = (  -0.1458030   0.6133014   0.6129980  )
        61           Au  tau(  61) = (  -0.0208339   0.3967936   0.6130188  )
        62           Au  tau(  62) = (   0.1041239   0.1803477   0.6130083  )
        63           Au  tau(  63) = (   0.2291046  -0.0361554   0.6129607  )
        64           Au  tau(  64) = (  -0.3957908   0.6132739   0.6129471  )
        65           Au  tau(  65) = (  -0.2708208   0.3967658   0.6129688  )
        66           Au  tau(  66) = (  -0.1458636   0.1803200   0.6129569  )
        67           Au  tau(  67) = (  -0.0208823  -0.0361826   0.6129110  )

     number of k points=    12  Marzari-Vanderbilt smearing, width (Ry)=  0.0200
                       cart. coord. in units 2pi/alat
        k(    1) = (   0.2500000   0.4330127   0.1111111), wk =   0.1666667
        k(    2) = (   0.2500000  -0.1443376   0.1111111), wk =   0.1666667
        k(    3) = (  -0.2500000  -0.4330127   0.1111111), wk =   0.1666667
        k(    4) = (  -0.2500000   0.4330127  -0.1111111), wk =   0.1666667
        k(    5) = (   0.2500000  -0.4330127  -0.1111111), wk =   0.1666667
        k(    6) = (   0.5000000   0.0000000   0.1111111), wk =   0.1666667
        k(    7) = (  -0.5000000   0.0000000   0.1111111), wk =   0.1666667
        k(    8) = (  -0.2500000   0.1443376   0.1111111), wk =   0.1666667
        k(    9) = (  -0.2500000  -0.1443376  -0.1111111), wk =   0.1666667
        k(   10) = (   0.2500000   0.1443376  -0.1111111), wk =   0.1666667
        k(   11) = (   0.0000000  -0.2886751   0.1111111), wk =   0.1666667
        k(   12) = (   0.0000000   0.2886751   0.1111111), wk =   0.1666667

     Dense  grid:  3097177 G-vectors     FFT dimensions: ( 150, 150, 360)

     Smooth grid:  1095093 G-vectors     FFT dimensions: ( 108, 108, 240)

     Largest allocated arrays     est. size (Mb)     dimensions
        Kohn-Sham Wavefunctions        28.01 Mb     (    4299,  427)
        NL pseudopotentials            55.23 Mb     (    4299,  842)
        Each V/rho on FFT grid          4.12 Mb     (  270000)
        Each G-vector array             0.74 Mb     (   96788)
        G-vector shells                 0.16 Mb     (   21404)
     Largest temporary arrays     est. size (Mb)     dimensions
        Auxiliary wavefunctions       112.04 Mb     (    4299, 1708)
        Each subspace H/S matrix       44.51 Mb     (    1708, 1708)
        Each <psi_i|beta_j> matrix      5.49 Mb     (     842,  427)
        Arrays for rho mixing          32.96 Mb     (  270000,    8)

     Initial potential from superposition of free atoms
     Check: negative starting charge=   -1.730266

     starting charge  711.25682, renormalised to  712.00000

     negative rho (up, down):  1.732E+00 0.000E+00


     ************************************************************************
     *
     * You are using vdW-DF for exchange-correlation in this calculation.
     * Please cite the following three references that made this development
     * possible:
     *
     *   M. Dion, H. Rydberg, E. Schroder, D. C. Langreth, and
     *   B. I. Lundqvist, Phys. Rev. Lett. 92, 246401 (2004).
     *
     *   T. Thonhauser, V. R. Cooper, S. Li, A. Puzder, P. Hyldgaard, and
     *   D. C. Langreth, Phys. Rev. B 76, 125112 (2007).
     *
     *   G. Roman-Perez and J. M. Soler, Phys. Rev. Lett. 103, 096102 (2009).
     *
     *
     * If you are using vdW-DF2, please also cite:
     *
     *   K. Lee, E. D. Murray, L. Kong, B. I. Lundqvist, and
     *   D. C. Langreth, Phys. Rev. B 82, 081101(R) (2010).
     *
     *
     * If you are calculating the stress with vdW-DF, please also cite:
     *
     *   R. Sabatini, E. Kucukbenli, B. Kolb, T. Thonhauser, and
     *   S. de Gironcoli, J. Phys.: Condens. Matter 24, 424209 (2012).
     *
     ************************************************************************

     Carrying out vdW-DF run using the following parameters:

     Nqs =      20    Nr_points =    1024   r_max =   100.000
     q_mesh =
               0.00001000     0.04494208     0.09755937     0.15916263
               0.23128650     0.31572767     0.41458969     0.53033537
               0.66584808     0.82450364     1.01025438     1.22772762
               1.48234092     1.78043706     2.12944203     2.53805004
               3.01644009     3.57652955     4.23227104     5.00000000

     Gradients computed in reciprocal space

     ************************************************************************


     Starting wfc are  582 randomized atomic wfcs

     total cpu time spent up to now is      157.5 secs

     Self-consistent Calculation

     iteration #  1     ecut=    50.00 Ry     beta=0.70
     Davidson diagonalization with overlap
     ethr =  1.00E-02,  avg # of iterations =  3.0

     Threshold (ethr) on eigenvalues was too large:
     Diagonalizing with lowered threshold

     Davidson diagonalization with overlap
     ethr =  3.57E-04,  avg # of iterations =  5.0

     negative rho (up, down):  1.728E+00 0.000E+00

     total cpu time spent up to now is      772.9 secs

     total energy              =   -6602.75109857 Ry
     Harris-Foulkes estimate   =   -6605.05123466 Ry
     estimated scf accuracy    <       2.87669819 Ry

     iteration #  2     ecut=    50.00 Ry     beta=0.70
     Davidson diagonalization with overlap
     ethr =  4.04E-04,  avg # of iterations = 11.2

     negative rho (up, down):  1.725E+00 0.000E+00

     total cpu time spent up to now is     1753.8 secs

     total energy              =   -6595.99427480 Ry
     Harris-Foulkes estimate   =   -6610.34134323 Ry
     estimated scf accuracy    <      82.47954565 Ry

     iteration #  3     ecut=    50.00 Ry     beta=0.70
     Davidson diagonalization with overlap
     ethr =  4.04E-04,  avg # of iterations =  6.0

     negative rho (up, down):  1.734E+00 0.000E+00

     total cpu time spent up to now is     2389.5 secs

     total energy              =   -6603.02142899 Ry
     Harris-Foulkes estimate   =   -6605.02458456 Ry
     estimated scf accuracy    <       9.56236530 Ry

     iteration #  4     ecut=    50.00 Ry     beta=0.70
     Davidson diagonalization with overlap
     ethr =  4.04E-04,  avg # of iterations =  6.3

     negative rho (up, down):  1.737E+00 0.000E+00

     total cpu time spent up to now is     2777.5 secs

     total energy              =   -6603.21654943 Ry
     Harris-Foulkes estimate   =   -6605.42495698 Ry
     estimated scf accuracy    <      23.05268701 Ry

     iteration #  5     ecut=    50.00 Ry     beta=0.70
     Davidson diagonalization with overlap
     ethr =  4.04E-04,  avg # of iterations =  6.0

     negative rho (up, down):  1.746E+00 0.000E+00

     total cpu time spent up to now is     3156.3 secs

     total energy              =   -6604.33905440 Ry
     Harris-Foulkes estimate   =   -6604.60078150 Ry
     estimated scf accuracy    <       1.55427946 Ry

     iteration #  6     ecut=    50.00 Ry     beta=0.70
     Davidson diagonalization with overlap
     ethr =  2.18E-04,  avg # of iterations =  3.0

     negative rho (up, down):  1.750E+00 0.000E+00

     total cpu time spent up to now is     3452.9 secs

     total energy              =   -6604.41217846 Ry
     Harris-Foulkes estimate   =   -6604.47241831 Ry
     estimated scf accuracy    <       0.18869161 Ry

     iteration #  7     ecut=    50.00 Ry     beta=0.70
     Davidson diagonalization with overlap
     ethr =  2.65E-05,  avg # of iterations = 11.1

     negative rho (up, down):  1.753E+00 0.000E+00

     total cpu time spent up to now is     3910.8 secs

     total energy              =   -6604.42634434 Ry
     Harris-Foulkes estimate   =   -6604.45352180 Ry
     estimated scf accuracy    <       0.11210370 Ry

     iteration #  8     ecut=    50.00 Ry     beta=0.70
     Davidson diagonalization with overlap
     c_bands:  4 eigenvalues not converged
     c_bands:  1 eigenvalues not converged
     c_bands:  1 eigenvalues not converged
     ethr =  1.57E-05,  avg # of iterations = 10.1

     negative rho (up, down):  1.754E+00 0.000E+00

     total cpu time spent up to now is     4300.2 secs

     total energy              =   -6604.42892568 Ry
     Harris-Foulkes estimate   =   -6604.44356795 Ry
     estimated scf accuracy    <       0.05170958 Ry

     iteration #  9     ecut=    50.00 Ry     beta=0.70
     Davidson diagonalization with overlap
     ethr =  7.26E-06,  avg # of iterations = 10.8

     negative rho (up, down):  1.755E+00 0.000E+00

     total cpu time spent up to now is     4703.1 secs

     total energy              =   -6604.43074790 Ry
     Harris-Foulkes estimate   =   -6604.43675771 Ry
     estimated scf accuracy    <       0.01827578 Ry

     iteration # 10     ecut=    50.00 Ry     beta=0.70
     Davidson diagonalization with overlap
     ethr =  2.57E-06,  avg # of iterations =  8.3

     negative rho (up, down):  1.756E+00 0.000E+00

     total cpu time spent up to now is     5063.0 secs

     total energy              =   -6604.43182174 Ry
     Harris-Foulkes estimate   =   -6604.43374730 Ry
     estimated scf accuracy    <       0.00690651 Ry

     iteration # 11     ecut=    50.00 Ry     beta=0.70
     Davidson diagonalization with overlap
     ethr =  9.70E-07,  avg # of iterations =  6.8

     negative rho (up, down):  1.757E+00 0.000E+00

     total cpu time spent up to now is     5412.3 secs

     total energy              =   -6604.43214437 Ry
     Harris-Foulkes estimate   =   -6604.43292453 Ry
     estimated scf accuracy    <       0.00354913 Ry

     iteration # 12     ecut=    50.00 Ry     beta=0.70
     Davidson diagonalization with overlap
     ethr =  4.98E-07,  avg # of iterations =  3.6

     negative rho (up, down):  1.758E+00 0.000E+00

     total cpu time spent up to now is     5683.7 secs

     total energy              =   -6604.43211689 Ry
     Harris-Foulkes estimate   =   -6604.43251047 Ry
     estimated scf accuracy    <       0.00076090 Ry

     iteration # 13     ecut=    50.00 Ry     beta=0.70
     Davidson diagonalization with overlap
     ethr =  1.07E-07,  avg # of iterations = 11.5

     negative rho (up, down):  1.757E+00 0.000E+00

     total cpu time spent up to now is     6131.4 secs

     total energy              =   -6604.43220177 Ry
     Harris-Foulkes estimate   =   -6604.43233835 Ry
     estimated scf accuracy    <       0.00043534 Ry

     iteration # 14     ecut=    50.00 Ry     beta=0.70
     Davidson diagonalization with overlap
     ethr =  6.11E-08,  avg # of iterations =  2.0

     negative rho (up, down):  1.757E+00 0.000E+00

     total cpu time spent up to now is     6378.2 secs

     total energy              =   -6604.43225467 Ry
     Harris-Foulkes estimate   =   -6604.43230014 Ry
     estimated scf accuracy    <       0.00017064 Ry

     iteration # 15     ecut=    50.00 Ry     beta=0.70
     Davidson diagonalization with overlap
     ethr =  2.40E-08,  avg # of iterations =  2.0

     negative rho (up, down):  1.757E+00 0.000E+00

     total cpu time spent up to now is     6626.7 secs

     total energy              =   -6604.43226609 Ry
     Harris-Foulkes estimate   =   -6604.43229802 Ry
     estimated scf accuracy    <       0.00012292 Ry

     iteration # 16     ecut=    50.00 Ry     beta=0.70
     Davidson diagonalization with overlap
     ethr =  1.73E-08,  avg # of iterations =  2.0

     negative rho (up, down):  1.757E+00 0.000E+00

     total cpu time spent up to now is     6880.2 secs

     total energy              =   -6604.43227356 Ry
     Harris-Foulkes estimate   =   -6604.43229331 Ry
     estimated scf accuracy    <       0.00019769 Ry

     iteration # 17     ecut=    50.00 Ry     beta=0.70
     Davidson diagonalization with overlap
     ethr =  1.73E-08,  avg # of iterations =  1.0

     negative rho (up, down):  1.757E+00 0.000E+00

     total cpu time spent up to now is     7110.2 secs

     total energy              =   -6604.43228308 Ry
     Harris-Foulkes estimate   =   -6604.43228523 Ry
     estimated scf accuracy    <       0.00000845 Ry

     iteration # 18     ecut=    50.00 Ry     beta=0.70
     Davidson diagonalization with overlap
     ethr =  1.19E-09,  avg # of iterations =  2.0

     negative rho (up, down):  1.757E+00 0.000E+00

     total cpu time spent up to now is     7366.5 secs

     total energy              =   -6604.43228387 Ry
     Harris-Foulkes estimate   =   -6604.43228535 Ry
     estimated scf accuracy    <       0.00000688 Ry

     iteration # 19     ecut=    50.00 Ry     beta=0.70
     Davidson diagonalization with overlap
     ethr =  9.66E-10,  avg # of iterations =  2.0

     negative rho (up, down):  1.757E+00 0.000E+00

     total cpu time spent up to now is     7612.1 secs

     total energy              =   -6604.43228469 Ry
     Harris-Foulkes estimate   =   -6604.43228482 Ry
     estimated scf accuracy    <       0.00000066 Ry

     iteration # 20     ecut=    50.00 Ry     beta=0.70
     Davidson diagonalization with overlap
     ethr =  9.29E-11,  avg # of iterations =  2.0

     negative rho (up, down):  1.757E+00 0.000E+00

     total cpu time spent up to now is     7895.8 secs

     total energy              =   -6604.43228488 Ry
     Harris-Foulkes estimate   =   -6604.43228488 Ry
     estimated scf accuracy    <       0.00000021 Ry

     iteration # 21     ecut=    50.00 Ry     beta=0.70
     Davidson diagonalization with overlap
     ethr =  3.00E-11,  avg # of iterations =  2.0

     negative rho (up, down):  1.757E+00 0.000E+00

     total cpu time spent up to now is     8166.2 secs

     total energy              =   -6604.43228494 Ry
     Harris-Foulkes estimate   =   -6604.43228494 Ry
     estimated scf accuracy    <       0.00000018 Ry

     iteration # 22     ecut=    50.00 Ry     beta=0.70
     Davidson diagonalization with overlap
     ethr =  2.49E-11,  avg # of iterations =  2.0

     negative rho (up, down):  1.757E+00 0.000E+00

     total cpu time spent up to now is     8379.6 secs

     total energy              =   -6604.43228495 Ry
     Harris-Foulkes estimate   =   -6604.43228497 Ry
     estimated scf accuracy    <       0.00000002 Ry

     iteration # 23     ecut=    50.00 Ry     beta=0.70
     Davidson diagonalization with overlap
     ethr =  2.66E-12,  avg # of iterations =  3.0

     negative rho (up, down):  1.757E+00 0.000E+00

     total cpu time spent up to now is     8657.7 secs

     total energy              =   -6604.43228497 Ry
     Harris-Foulkes estimate   =   -6604.43228496 Ry
     estimated scf accuracy    <       0.00000002 Ry

     iteration # 24     ecut=    50.00 Ry     beta=0.70
     Davidson diagonalization with overlap
     ethr =  2.21E-12,  avg # of iterations =  2.0

     negative rho (up, down):  1.757E+00 0.000E+00

     total cpu time spent up to now is     8884.9 secs

     End of self-consistent calculation

          k = 0.2500 0.4330 0.1111 (136853 PWs)   bands (ev):

   -19.3435  -7.1463  -6.1936  -5.7947  -5.7938  -5.1195  -4.7833  -4.7822
    -4.7500  -4.7441  -4.3823  -4.3819  -4.2836  -4.2833  -4.2696  -4.2480
    -4.2351  -4.1163  -4.1154  -4.0916  -4.0486  -4.0482  -3.9883  -3.9791
    -3.9781  -3.9730  -3.9533  -3.9492  -3.9451  -3.9023  -3.8741  -3.8433
    -3.8425  -3.8306  -3.8303  -3.8084  -3.8071  -3.7848  -3.7779  -3.7763
    -3.7527  -3.7013  -3.6974  -3.6560  -3.6494  -3.6399  -3.5908  -3.5810
    -3.5356  -3.5350  -3.5350  -3.5214  -3.4991  -3.4615  -3.4576  -3.4540
    -3.4523  -3.4470  -3.4226  -3.4186  -3.4102  -3.3522  -3.3479  -3.3409
    -3.3241  -3.3180  -3.2461  -3.2392  -3.2134  -3.2092  -3.1845  -3.1820
    -3.1702  -3.1530  -3.0947  -3.0936  -3.0767  -3.0761  -3.0247  -3.0204
    -3.0160  -2.9810  -2.9502  -2.9495  -2.9411  -2.9387  -2.9281  -2.9258
    -2.9207  -2.9187  -2.9097  -2.8689  -2.8310  -2.8307  -2.8166  -2.8151
    -2.7902  -2.7812  -2.7792  -2.7594  -2.7140  -2.7118  -2.7042  -2.6652
    -2.6590  -2.6476  -2.6469  -2.6194  -2.6149  -2.5878  -2.5520  -2.5486
    -2.5291  -2.5213  -2.5083  -2.5049  -2.4577  -2.4550  -2.4234  -2.4016
    -2.4006  -2.3777  -2.3761  -2.3661  -2.3654  -2.3549  -2.3332  -2.3321
    -2.2876  -2.2870  -2.2863  -2.2695  -2.2692  -2.2631  -2.2549  -2.2531
    -2.2524  -2.2510  -2.2449  -2.2335  -2.2330  -2.2239  -2.1968  -2.1961
    -2.1952  -2.1943  -2.1926  -2.1909  -2.1850  -2.1616  -2.1596  -2.1461
    -2.1438  -2.1271  -2.1265  -2.1178  -2.1174  -2.1165  -2.1136  -2.0965
    -2.0957  -2.0950  -2.0863  -2.0759  -2.0506  -2.0500  -2.0092  -2.0088
    -1.9845  -1.9836  -1.9587  -1.9569  -1.9299  -1.9277  -1.9121  -1.9070
    -1.8798  -1.8608  -1.8563  -1.8559  -1.8512  -1.8478  -1.8435  -1.8406
    -1.8135  -1.8080  -1.7981  -1.7421  -1.7405  -1.7374  -1.7347  -1.7278
    -1.6981  -1.6778  -1.6775  -1.6542  -1.6502  -1.5907  -1.5899  -1.5642
    -1.5538  -1.5411  -1.4900  -1.4802  -1.4731  -1.4677  -1.4582  -1.4572
    -1.4543  -1.4477  -1.4434  -1.4350  -1.3869  -1.3826  -1.3764  -1.3751
    -1.3615  -1.3563  -1.3474  -1.3211  -1.3162  -1.3034  -1.3031  -1.2993
    -1.2954  -1.2880  -1.2817  -1.2742  -1.2614  -1.2588  -1.2202  -1.2154
    -1.2091  -1.2018  -1.1856  -1.1731  -1.1304  -1.1282  -1.1047  -1.1007
    -1.0960  -1.0699  -1.0198  -1.0184  -1.0175  -1.0141  -1.0097  -1.0077
    -0.9973  -0.9828  -0.9800  -0.9425  -0.9407  -0.9121  -0.9109  -0.9054
    -0.9041  -0.8984  -0.8821  -0.8813  -0.8802  -0.8781  -0.8755  -0.8411
    -0.8379  -0.8359  -0.8326  -0.8065  -0.8040  -0.8019  -0.7761  -0.7695
    -0.7679  -0.7234  -0.7182  -0.7131  -0.6818  -0.6731  -0.6626  -0.6622
    -0.6556  -0.6544  -0.6525  -0.6502  -0.6394  -0.6374  -0.6147  -0.6142
    -0.6104  -0.6090  -0.6076  -0.5716  -0.5712  -0.5607  -0.5570  -0.5433
    -0.5375  -0.5322  -0.5254  -0.4698  -0.4685  -0.4596  -0.4589  -0.4570
    -0.4557  -0.4502  -0.4329  -0.4316  -0.4240  -0.4232  -0.4209  -0.4182
    -0.3821  -0.3797  -0.3791  -0.3714  -0.3703  -0.3653  -0.3641  -0.3498
    -0.3478  -0.3440  -0.3403  -0.3023  -0.3015  -0.2937  -0.2898  -0.2890
    -0.2125  -0.2119  -0.2096  -0.2089  -0.1999  -0.1981  -0.1633  -0.1509
    -0.1502  -0.1236  -0.1182  -0.1105   0.0017   0.0072   0.1063   0.5211
     0.5214   0.5238   0.5252   0.5853   0.5926   0.9736   0.9752   1.0156
     1.0190   1.1271   1.2076   1.3126   1.3255   1.5319   1.5535   2.1715
     2.1737   2.3301   2.3386   2.4641   2.4718   2.5700   2.5707   2.7243
     2.9561   2.9639   3.0852   3.3048   3.3156   3.3923   3.3953   3.4937
     3.5095   3.6902   3.6954   3.7656   3.9663   3.9670   4.0280   4.0307
     4.2854   4.2900   4.2979   4.5352   4.5759   4.5817   4.6227   4.9575
     4.9587   4.9890   5.0496   5.1234   5.2964   5.2980   5.3417   5.3913
     5.7065   5.9300   6.0736   6.0828   6.0892   6.0955   6.1575   6.1588
     6.2137   6.2658   6.2910   6.3145   6.3161   6.3274   6.3346   6.3707
     6.3794   6.4133   6.5033   6.5890   6.7052   6.7610   6.9202   6.9894
     7.0209   7.0332   7.0381

          k = 0.2500-0.1443 0.1111 (136898 PWs)   bands (ev):

   -19.3435  -7.1463  -6.4036  -5.6115  -5.3232  -5.2614  -5.2608  -4.7229
    -4.7223  -4.5949  -4.5903  -4.4395  -4.4114  -4.3427  -4.3162  -4.3100
    -4.2758  -4.2754  -4.1473  -4.1058  -4.1054  -4.0467  -4.0290  -4.0246
    -3.9220  -3.9217  -3.8892  -3.8854  -3.8853  -3.8656  -3.8372  -3.8367
    -3.7792  -3.7299  -3.7298  -3.7137  -3.6983  -3.6921  -3.6910  -3.6802
    -3.6699  -3.6520  -3.6365  -3.6359  -3.6358  -3.6208  -3.6041  -3.5923
    -3.5855  -3.5850  -3.5673  -3.5292  -3.5250  -3.4954  -3.4834  -3.4771
    -3.4770  -3.4502  -3.4024  -3.4018  -3.3678  -3.3655  -3.3474  -3.2969
    -3.2966  -3.2817  -3.2808  -3.2512  -3.2503  -3.2498  -3.2472  -3.0962
    -3.0957  -3.0715  -3.0692  -3.0624  -3.0493  -3.0471  -3.0237  -3.0217
    -2.9734  -2.9716  -2.9571  -2.9557  -2.9361  -2.8888  -2.8881  -2.8682
    -2.8638  -2.8635  -2.8228  -2.8219  -2.8156  -2.8129  -2.7997  -2.7978
    -2.7599  -2.7597  -2.7382  -2.7362  -2.7346  -2.7336  -2.7288  -2.6548
    -2.6531  -2.6509  -2.6237  -2.6225  -2.5627  -2.5594  -2.5333  -2.5311
    -2.5195  -2.5190  -2.5126  -2.4841  -2.4823  -2.4737  -2.4563  -2.4323
    -2.4316  -2.4288  -2.4104  -2.4084  -2.3991  -2.3981  -2.3963  -2.3943
    -2.3861  -2.3400  -2.3086  -2.3077  -2.2924  -2.2789  -2.2724  -2.2718
    -2.2651  -2.2646  -2.2624  -2.2337  -2.2331  -2.2306  -2.2235  -2.2228
    -2.2061  -2.1790  -2.1780  -2.1778  -2.1771  -2.1752  -2.1305  -2.1005
    -2.0995  -2.0982  -2.0927  -2.0829  -2.0718  -2.0675  -2.0533  -2.0533
    -2.0215  -2.0190  -2.0185  -2.0002  -2.0000  -1.9962  -1.9669  -1.9628
    -1.9255  -1.9225  -1.9174  -1.9147  -1.9144  -1.9087  -1.9077  -1.9062
    -1.9050  -1.9002  -1.8970  -1.8826  -1.8760  -1.7565  -1.7536  -1.7273
    -1.7174  -1.7141  -1.7092  -1.7073  -1.6966  -1.6921  -1.6912  -1.6896
    -1.6848  -1.6636  -1.6604  -1.6577  -1.6490  -1.6444  -1.6402  -1.6217
    -1.6179  -1.5943  -1.5914  -1.5628  -1.5590  -1.5497  -1.5409  -1.5271
    -1.5235  -1.5202  -1.5025  -1.4897  -1.4886  -1.4824  -1.4805  -1.4717
    -1.4556  -1.4442  -1.4385  -1.4319  -1.4058  -1.3980  -1.3885  -1.3458
    -1.3438  -1.3333  -1.3272  -1.3101  -1.3057  -1.3021  -1.2710  -1.2700
    -1.2620  -1.2319  -1.2269  -1.2192  -1.2096  -1.2077  -1.1831  -1.1821
    -1.1729  -1.1513  -1.1492  -1.1453  -1.0865  -1.0854  -1.0744  -1.0707
    -1.0568  -1.0553  -1.0439  -1.0425  -1.0255  -1.0129  -0.9852  -0.9838
    -0.9719  -0.9435  -0.9360  -0.9312  -0.9230  -0.9229  -0.9200  -0.9173
    -0.9071  -0.9014  -0.8724  -0.8704  -0.8627  -0.8605  -0.8572  -0.8489
    -0.8353  -0.8185  -0.8086  -0.7964  -0.7859  -0.7021  -0.6890  -0.6836
    -0.6830  -0.6785  -0.6745  -0.6714  -0.6486  -0.6437  -0.6344  -0.6299
    -0.6180  -0.6161  -0.6091  -0.5897  -0.5871  -0.5821  -0.5782  -0.5054
    -0.5052  -0.4734  -0.4675  -0.4669  -0.4619  -0.4585  -0.4577  -0.4563
    -0.4458  -0.4438  -0.4243  -0.4033  -0.3881  -0.3704  -0.3688  -0.3592
    -0.3571  -0.3463  -0.3448  -0.3443  -0.3429  -0.3405  -0.3254  -0.3212
    -0.3194  -0.2903  -0.2888  -0.2876  -0.2759  -0.2754  -0.2564  -0.2250
    -0.2239  -0.2155  -0.2130  -0.1476  -0.1465  -0.1103  -0.1101  -0.0521
    -0.0514  -0.0507  -0.0342  -0.0232   0.1976   0.2135   0.5495   0.5497
     0.6356   0.6507   0.8316   0.8584   0.8710   0.9957   1.0020   1.4299
     1.4300   1.4484   1.7067   1.7393   1.7416   2.0090   2.0253   2.0947
     2.0968   2.1178   2.1351   2.3507   2.3543   2.4406   2.4416   2.5057
     2.5724   2.5941   2.7460   2.8441   3.2803   3.2818   3.2832   3.2933
     3.3386   3.3467   3.6330   3.6356   3.9086   3.9209   4.0044   4.3300
     4.3672   4.3758   4.5653   4.5725   4.6710   4.6731   4.7641   4.8817
     4.8820   4.9974   5.0019   5.0534   5.3031   5.3688   5.3724   5.5070
     5.5436   5.7568   5.7589   5.7743   5.7867   5.7907   5.8456   5.8479
     5.9042   6.0201   6.2028   6.2659   6.4502   6.4601   6.5899   6.5918
     6.6008   6.6057   6.6256   6.7453   6.8154   6.8437   6.8525   6.9857
     7.0260   7.0504   7.0772

          k =-0.2500-0.4330 0.1111 (136853 PWs)   bands (ev):

   -19.3435  -7.1463  -6.1936  -5.7947  -5.7938  -5.1195  -4.7833  -4.7822
    -4.7500  -4.7441  -4.3823  -4.3819  -4.2836  -4.2832  -4.2696  -4.2480
    -4.2351  -4.1163  -4.1154  -4.0916  -4.0486  -4.0482  -3.9883  -3.9791
    -3.9781  -3.9730  -3.9533  -3.9492  -3.9451  -3.9023  -3.8741  -3.8433
    -3.8425  -3.8306  -3.8303  -3.8084  -3.8071  -3.7848  -3.7779  -3.7763
    -3.7527  -3.7013  -3.6974  -3.6560  -3.6494  -3.6399  -3.5908  -3.5810
    -3.5356  -3.5350  -3.5350  -3.5214  -3.4991  -3.4615  -3.4576  -3.4540
    -3.4523  -3.4470  -3.4226  -3.4186  -3.4102  -3.3522  -3.3479  -3.3409
    -3.3241  -3.3180  -3.2461  -3.2392  -3.2134  -3.2092  -3.1845  -3.1820
    -3.1702  -3.1530  -3.0947  -3.0936  -3.0767  -3.0761  -3.0247  -3.0204
    -3.0160  -2.9810  -2.9502  -2.9495  -2.9411  -2.9387  -2.9281  -2.9258
    -2.9207  -2.9187  -2.9097  -2.8689  -2.8310  -2.8307  -2.8166  -2.8151
    -2.7902  -2.7812  -2.7792  -2.7594  -2.7140  -2.7118  -2.7042  -2.6652
    -2.6590  -2.6476  -2.6469  -2.6194  -2.6149  -2.5878  -2.5520  -2.5486
    -2.5291  -2.5213  -2.5083  -2.5049  -2.4577  -2.4550  -2.4234  -2.4016
    -2.4006  -2.3777  -2.3761  -2.3661  -2.3654  -2.3549  -2.3332  -2.3321
    -2.2876  -2.2870  -2.2863  -2.2695  -2.2692  -2.2631  -2.2549  -2.2531
    -2.2524  -2.2510  -2.2449  -2.2335  -2.2330  -2.2239  -2.1968  -2.1961
    -2.1952  -2.1943  -2.1926  -2.1909  -2.1850  -2.1616  -2.1596  -2.1461
    -2.1438  -2.1271  -2.1265  -2.1178  -2.1174  -2.1165  -2.1136  -2.0965
    -2.0957  -2.0950  -2.0863  -2.0759  -2.0506  -2.0500  -2.0092  -2.0088
    -1.9845  -1.9836  -1.9587  -1.9569  -1.9299  -1.9277  -1.9121  -1.9070
    -1.8798  -1.8608  -1.8563  -1.8559  -1.8512  -1.8478  -1.8435  -1.8406
    -1.8135  -1.8080  -1.7981  -1.7421  -1.7405  -1.7374  -1.7347  -1.7278
    -1.6981  -1.6778  -1.6775  -1.6542  -1.6502  -1.5907  -1.5899  -1.5642
    -1.5538  -1.5411  -1.4900  -1.4802  -1.4731  -1.4677  -1.4582  -1.4572
    -1.4543  -1.4477  -1.4434  -1.4350  -1.3869  -1.3826  -1.3764  -1.3751
    -1.3615  -1.3563  -1.3474  -1.3211  -1.3162  -1.3034  -1.3031  -1.2993
    -1.2954  -1.2880  -1.2817  -1.2742  -1.2614  -1.2588  -1.2202  -1.2154
    -1.2091  -1.2018  -1.1856  -1.1731  -1.1304  -1.1282  -1.1047  -1.1007
    -1.0960  -1.0699  -1.0198  -1.0184  -1.0175  -1.0141  -1.0097  -1.0077
    -0.9973  -0.9828  -0.9800  -0.9425  -0.9407  -0.9121  -0.9109  -0.9054
    -0.9041  -0.8984  -0.8821  -0.8814  -0.8802  -0.8781  -0.8755  -0.8411
    -0.8379  -0.8359  -0.8326  -0.8065  -0.8040  -0.8019  -0.7761  -0.7695
    -0.7679  -0.7234  -0.7182  -0.7131  -0.6818  -0.6731  -0.6626  -0.6622
    -0.6556  -0.6544  -0.6525  -0.6502  -0.6394  -0.6374  -0.6147  -0.6142
    -0.6104  -0.6090  -0.6076  -0.5716  -0.5712  -0.5607  -0.5570  -0.5433
    -0.5375  -0.5322  -0.5254  -0.4698  -0.4685  -0.4596  -0.4589  -0.4570
    -0.4557  -0.4502  -0.4329  -0.4316  -0.4240  -0.4232  -0.4209  -0.4182
    -0.3821  -0.3797  -0.3791  -0.3714  -0.3703  -0.3653  -0.3641  -0.3498
    -0.3478  -0.3440  -0.3403  -0.3023  -0.3015  -0.2937  -0.2898  -0.2890
    -0.2125  -0.2119  -0.2096  -0.2089  -0.1999  -0.1981  -0.1633  -0.1509
    -0.1502  -0.1236  -0.1182  -0.1105   0.0017   0.0072   0.1063   0.5211
     0.5214   0.5238   0.5252   0.5853   0.5926   0.9736   0.9752   1.0156
     1.0190   1.1271   1.2076   1.3126   1.3255   1.5319   1.5535   2.1715
     2.1737   2.3301   2.3386   2.4641   2.4718   2.5700   2.5707   2.7243
     2.9561   2.9639   3.0852   3.3048   3.3156   3.3923   3.3953   3.4937
     3.5095   3.6902   3.6954   3.7656   3.9663   3.9670   4.0280   4.0307
     4.2854   4.2900   4.2979   4.5352   4.5759   4.5817   4.6227   4.9575
     4.9587   4.9890   5.0496   5.1234   5.2964   5.2980   5.3417   5.3913
     5.7064   5.9300   6.0734   6.0830   6.0891   6.0959   6.1575   6.1589
     6.2137   6.2658   6.2910   6.3145   6.3162   6.3273   6.3344   6.3707
     6.3794   6.4133   6.5029   6.5877   6.7055   6.7615   6.9216   6.9904
     7.0208   7.0332   7.0380

          k =-0.2500 0.4330-0.1111 (136853 PWs)   bands (ev):

   -19.3435  -7.1463  -6.1936  -5.7959  -5.7926  -5.1195  -4.7837  -4.7819
    -4.7510  -4.7431  -4.3828  -4.3813  -4.2838  -4.2832  -4.2694  -4.2480
    -4.2351  -4.1165  -4.1154  -4.0917  -4.0487  -4.0482  -3.9879  -3.9790
    -3.9785  -3.9729  -3.9534  -3.9491  -3.9454  -3.9025  -3.8734  -3.8437
    -3.8418  -3.8309  -3.8300  -3.8084  -3.8070  -3.7848  -3.7781  -3.7762
    -3.7528  -3.7016  -3.6972  -3.6556  -3.6502  -3.6395  -3.5909  -3.5809
    -3.5356  -3.5350  -3.5349  -3.5217  -3.4992  -3.4616  -3.4576  -3.4539
    -3.4522  -3.4472  -3.4230  -3.4183  -3.4100  -3.3521  -3.3480  -3.3409
    -3.3239  -3.3178  -3.2465  -3.2390  -3.2135  -3.2089  -3.1843  -3.1819
    -3.1702  -3.1532  -3.0949  -3.0937  -3.0764  -3.0760  -3.0247  -3.0204
    -3.0160  -2.9809  -2.9505  -2.9492  -2.9405  -2.9390  -2.9280  -2.9256
    -2.9207  -2.9189  -2.9098  -2.8689  -2.8315  -2.8303  -2.8163  -2.8152
    -2.7902  -2.7809  -2.7795  -2.7594  -2.7136  -2.7121  -2.7044  -2.6650
    -2.6590  -2.6478  -2.6466  -2.6195  -2.6152  -2.5878  -2.5520  -2.5483
    -2.5292  -2.5213  -2.5084  -2.5050  -2.4574  -2.4552  -2.4233  -2.4018
    -2.4007  -2.3779  -2.3763  -2.3662  -2.3650  -2.3550  -2.3336  -2.3317
    -2.2877  -2.2865  -2.2862  -2.2700  -2.2688  -2.2632  -2.2548  -2.2529
    -2.2521  -2.2515  -2.2449  -2.2340  -2.2323  -2.2242  -2.1968  -2.1962
    -2.1950  -2.1944  -2.1925  -2.1908  -2.1848  -2.1618  -2.1596  -2.1461
    -2.1437  -2.1272  -2.1265  -2.1177  -2.1172  -2.1163  -2.1138  -2.0966
    -2.0959  -2.0950  -2.0864  -2.0759  -2.0508  -2.0502  -2.0098  -2.0083
    -1.9843  -1.9839  -1.9587  -1.9565  -1.9298  -1.9275  -1.9121  -1.9069
    -1.8795  -1.8607  -1.8563  -1.8556  -1.8509  -1.8473  -1.8434  -1.8406
    -1.8134  -1.8076  -1.7982  -1.7423  -1.7414  -1.7378  -1.7347  -1.7282
    -1.6983  -1.6785  -1.6767  -1.6549  -1.6503  -1.5910  -1.5894  -1.5658
    -1.5513  -1.5410  -1.4888  -1.4805  -1.4733  -1.4678  -1.4586  -1.4571
    -1.4548  -1.4481  -1.4439  -1.4346  -1.3876  -1.3823  -1.3763  -1.3754
    -1.3614  -1.3561  -1.3480  -1.3210  -1.3156  -1.3036  -1.3030  -1.2999
    -1.2952  -1.2879  -1.2816  -1.2733  -1.2614  -1.2588  -1.2204  -1.2153
    -1.2092  -1.2009  -1.1851  -1.1732  -1.1303  -1.1284  -1.1048  -1.1009
    -1.0961  -1.0701  -1.0200  -1.0186  -1.0173  -1.0141  -1.0101  -1.0083
    -0.9982  -0.9821  -0.9803  -0.9424  -0.9408  -0.9122  -0.9107  -0.9056
    -0.9039  -0.8984  -0.8822  -0.8812  -0.8798  -0.8778  -0.8752  -0.8415
    -0.8380  -0.8361  -0.8323  -0.8065  -0.8046  -0.8014  -0.7764  -0.7697
    -0.7676  -0.7235  -0.7183  -0.7120  -0.6817  -0.6728  -0.6625  -0.6623
    -0.6558  -0.6543  -0.6522  -0.6500  -0.6397  -0.6373  -0.6150  -0.6140
    -0.6106  -0.6090  -0.6077  -0.5715  -0.5710  -0.5612  -0.5568  -0.5432
    -0.5377  -0.5321  -0.5251  -0.4698  -0.4684  -0.4595  -0.4590  -0.4572
    -0.4557  -0.4507  -0.4330  -0.4315  -0.4240  -0.4231  -0.4210  -0.4179
    -0.3821  -0.3798  -0.3790  -0.3716  -0.3701  -0.3648  -0.3641  -0.3497
    -0.3479  -0.3438  -0.3412  -0.3026  -0.3011  -0.2939  -0.2900  -0.2887
    -0.2124  -0.2120  -0.2096  -0.2087  -0.2000  -0.1983  -0.1633  -0.1510
    -0.1501  -0.1238  -0.1183  -0.1102   0.0015   0.0074   0.1064   0.5210
     0.5215   0.5237   0.5252   0.5843   0.5929   0.9733   0.9753   1.0153
     1.0193   1.1273   1.2079   1.3128   1.3262   1.5314   1.5537   2.1706
     2.1740   2.3293   2.3399   2.4628   2.4726   2.5697   2.5710   2.7242
     2.9556   2.9649   3.0852   3.3047   3.3157   3.3924   3.3953   3.4937
     3.5096   3.6893   3.6960   3.7661   3.9666   3.9667   4.0275   4.0313
     4.2849   4.2895   4.2986   4.5358   4.5758   4.5812   4.6226   4.9574
     4.9593   4.9880   5.0526   5.1227   5.2967   5.2979   5.3379   5.3890
     5.7184   5.9181   6.0765   6.0833   6.0892   6.0984   6.1572   6.1593
     6.2141   6.2654   6.2912   6.3146   6.3162   6.3256   6.3360   6.3711
     6.3792   6.4140   6.4905   6.5948   6.7104   6.7485   6.9275   6.9874
     7.0215   7.0317   7.0380

          k = 0.2500-0.4330-0.1111 (136853 PWs)   bands (ev):

   -19.3435  -7.1463  -6.1936  -5.7959  -5.7926  -5.1195  -4.7837  -4.7819
    -4.7510  -4.7431  -4.3828  -4.3813  -4.2838  -4.2832  -4.2694  -4.2480
    -4.2351  -4.1165  -4.1154  -4.0917  -4.0487  -4.0482  -3.9879  -3.9790
    -3.9785  -3.9729  -3.9534  -3.9491  -3.9454  -3.9025  -3.8734  -3.8437
    -3.8418  -3.8309  -3.8300  -3.8084  -3.8070  -3.7848  -3.7781  -3.7762
    -3.7528  -3.7016  -3.6972  -3.6556  -3.6502  -3.6395  -3.5909  -3.5809
    -3.5356  -3.5350  -3.5349  -3.5217  -3.4992  -3.4616  -3.4576  -3.4539
    -3.4522  -3.4472  -3.4230  -3.4183  -3.4100  -3.3521  -3.3480  -3.3409
    -3.3239  -3.3178  -3.2465  -3.2390  -3.2135  -3.2089  -3.1843  -3.1819
    -3.1702  -3.1532  -3.0949  -3.0937  -3.0764  -3.0760  -3.0247  -3.0204
    -3.0160  -2.9809  -2.9505  -2.9492  -2.9405  -2.9390  -2.9280  -2.9256
    -2.9207  -2.9189  -2.9098  -2.8689  -2.8315  -2.8303  -2.8163  -2.8152
    -2.7902  -2.7809  -2.7795  -2.7594  -2.7136  -2.7121  -2.7044  -2.6650
    -2.6590  -2.6478  -2.6466  -2.6195  -2.6152  -2.5878  -2.5520  -2.5483
    -2.5292  -2.5213  -2.5084  -2.5050  -2.4574  -2.4552  -2.4233  -2.4018
    -2.4007  -2.3779  -2.3763  -2.3662  -2.3650  -2.3550  -2.3336  -2.3317
    -2.2878  -2.2865  -2.2862  -2.2700  -2.2688  -2.2632  -2.2548  -2.2529
    -2.2521  -2.2515  -2.2449  -2.2340  -2.2323  -2.2242  -2.1968  -2.1962
    -2.1950  -2.1944  -2.1925  -2.1908  -2.1848  -2.1618  -2.1596  -2.1461
    -2.1437  -2.1272  -2.1265  -2.1177  -2.1172  -2.1163  -2.1138  -2.0966
    -2.0959  -2.0950  -2.0864  -2.0759  -2.0508  -2.0502  -2.0098  -2.0083
    -1.9843  -1.9839  -1.9587  -1.9565  -1.9298  -1.9275  -1.9121  -1.9069
    -1.8795  -1.8607  -1.8563  -1.8556  -1.8509  -1.8473  -1.8434  -1.8406
    -1.8134  -1.8076  -1.7982  -1.7423  -1.7414  -1.7378  -1.7347  -1.7282
    -1.6983  -1.6785  -1.6767  -1.6549  -1.6503  -1.5910  -1.5894  -1.5658
    -1.5513  -1.5410  -1.4888  -1.4805  -1.4733  -1.4678  -1.4586  -1.4571
    -1.4548  -1.4481  -1.4439  -1.4346  -1.3876  -1.3823  -1.3763  -1.3754
    -1.3614  -1.3561  -1.3480  -1.3210  -1.3156  -1.3036  -1.3030  -1.2999
    -1.2952  -1.2879  -1.2816  -1.2733  -1.2614  -1.2588  -1.2204  -1.2153
    -1.2092  -1.2009  -1.1851  -1.1732  -1.1303  -1.1284  -1.1048  -1.1009
    -1.0961  -1.0701  -1.0200  -1.0186  -1.0173  -1.0141  -1.0101  -1.0083
    -0.9982  -0.9821  -0.9803  -0.9424  -0.9408  -0.9122  -0.9107  -0.9056
    -0.9039  -0.8984  -0.8822  -0.8812  -0.8798  -0.8778  -0.8752  -0.8415
    -0.8380  -0.8361  -0.8323  -0.8065  -0.8046  -0.8014  -0.7764  -0.7697
    -0.7676  -0.7235  -0.7183  -0.7120  -0.6817  -0.6728  -0.6625  -0.6623
    -0.6558  -0.6543  -0.6522  -0.6500  -0.6397  -0.6373  -0.6150  -0.6140
    -0.6106  -0.6090  -0.6077  -0.5715  -0.5710  -0.5612  -0.5568  -0.5432
    -0.5377  -0.5321  -0.5251  -0.4698  -0.4684  -0.4595  -0.4590  -0.4572
    -0.4557  -0.4507  -0.4330  -0.4315  -0.4240  -0.4231  -0.4210  -0.4179
    -0.3821  -0.3798  -0.3790  -0.3716  -0.3701  -0.3648  -0.3641  -0.3497
    -0.3479  -0.3438  -0.3412  -0.3026  -0.3011  -0.2939  -0.2900  -0.2887
    -0.2124  -0.2120  -0.2096  -0.2087  -0.2000  -0.1983  -0.1633  -0.1510
    -0.1501  -0.1238  -0.1183  -0.1102   0.0015   0.0074   0.1064   0.5210
     0.5215   0.5237   0.5252   0.5843   0.5929   0.9733   0.9753   1.0153
     1.0193   1.1273   1.2079   1.3128   1.3262   1.5314   1.5537   2.1706
     2.1740   2.3293   2.3399   2.4628   2.4726   2.5697   2.5710   2.7242
     2.9556   2.9649   3.0852   3.3047   3.3157   3.3924   3.3953   3.4937
     3.5096   3.6893   3.6960   3.7661   3.9666   3.9667   4.0275   4.0313
     4.2849   4.2895   4.2986   4.5358   4.5758   4.5812   4.6226   4.9574
     4.9593   4.9880   5.0526   5.1227   5.2967   5.2979   5.3379   5.3889
     5.7184   5.9180   6.0768   6.0832   6.0893   6.0979   6.1573   6.1592
     6.2141   6.2654   6.2912   6.3147   6.3160   6.3257   6.3362   6.3709
     6.3791   6.4140   6.4910   6.5959   6.7101   6.7480   6.9267   6.9864
     7.0215   7.0317   7.0382

          k = 0.5000 0.0000 0.1111 (136853 PWs)   bands (ev):

   -19.3435  -7.1463  -6.1936  -5.7958  -5.7927  -5.1196  -4.7842  -4.7814
    -4.7502  -4.7439  -4.3828  -4.3814  -4.2838  -4.2832  -4.2694  -4.2480
    -4.2351  -4.1161  -4.1158  -4.0916  -4.0486  -4.0483  -3.9884  -3.9789
    -3.9787  -3.9724  -3.9530  -3.9485  -3.9463  -3.9010  -3.8751  -3.8436
    -3.8419  -3.8308  -3.8301  -3.8084  -3.8070  -3.7848  -3.7780  -3.7762
    -3.7528  -3.7014  -3.6973  -3.6558  -3.6500  -3.6392  -3.5910  -3.5812
    -3.5355  -3.5351  -3.5350  -3.5220  -3.4993  -3.4617  -3.4579  -3.4539
    -3.4521  -3.4474  -3.4230  -3.4182  -3.4096  -3.3523  -3.3480  -3.3406
    -3.3241  -3.3178  -3.2460  -3.2391  -3.2133  -3.2088  -3.1847  -3.1818
    -3.1701  -3.1534  -3.0951  -3.0936  -3.0766  -3.0757  -3.0246  -3.0205
    -3.0160  -2.9809  -2.9507  -2.9489  -2.9406  -2.9387  -2.9282  -2.9261
    -2.9207  -2.9186  -2.9099  -2.8689  -2.8315  -2.8304  -2.8164  -2.8151
    -2.7902  -2.7813  -2.7790  -2.7594  -2.7138  -2.7120  -2.7042  -2.6651
    -2.6590  -2.6475  -2.6467  -2.6193  -2.6150  -2.5878  -2.5519  -2.5486
    -2.5292  -2.5214  -2.5085  -2.5051  -2.4580  -2.4546  -2.4232  -2.4021
    -2.4004  -2.3784  -2.3759  -2.3659  -2.3650  -2.3550  -2.3331  -2.3321
    -2.2881  -2.2866  -2.2862  -2.2699  -2.2688  -2.2632  -2.2547  -2.2535
    -2.2524  -2.2509  -2.2450  -2.2335  -2.2326  -2.2252  -2.1974  -2.1960
    -2.1949  -2.1946  -2.1926  -2.1913  -2.1843  -2.1620  -2.1596  -2.1459
    -2.1435  -2.1272  -2.1265  -2.1176  -2.1170  -2.1166  -2.1134  -2.0963
    -2.0960  -2.0957  -2.0856  -2.0762  -2.0512  -2.0501  -2.0099  -2.0082
    -1.9848  -1.9835  -1.9593  -1.9560  -1.9302  -1.9266  -1.9121  -1.9067
    -1.8798  -1.8603  -1.8563  -1.8530  -1.8496  -1.8476  -1.8420  -1.8392
    -1.8137  -1.8077  -1.7982  -1.7469  -1.7416  -1.7387  -1.7354  -1.7278
    -1.6990  -1.6786  -1.6767  -1.6569  -1.6508  -1.5908  -1.5892  -1.5687
    -1.5433  -1.5415  -1.4844  -1.4798  -1.4758  -1.4684  -1.4607  -1.4571
    -1.4555  -1.4481  -1.4449  -1.4340  -1.3911  -1.3818  -1.3769  -1.3746
    -1.3622  -1.3546  -1.3510  -1.3206  -1.3131  -1.3039  -1.3023  -1.3017
    -1.2953  -1.2880  -1.2814  -1.2683  -1.2615  -1.2588  -1.2219  -1.2157
    -1.2095  -1.1986  -1.1834  -1.1732  -1.1313  -1.1284  -1.1047  -1.1007
    -1.0962  -1.0704  -1.0203  -1.0182  -1.0167  -1.0147  -1.0120  -1.0085
    -1.0010  -0.9823  -0.9801  -0.9428  -0.9410  -0.9126  -0.9098  -0.9064
    -0.9030  -0.8983  -0.8824  -0.8812  -0.8781  -0.8776  -0.8742  -0.8433
    -0.8379  -0.8367  -0.8306  -0.8079  -0.8062  -0.8004  -0.7759  -0.7717
    -0.7666  -0.7235  -0.7189  -0.7084  -0.6809  -0.6724  -0.6631  -0.6617
    -0.6559  -0.6541  -0.6519  -0.6488  -0.6410  -0.6366  -0.6146  -0.6145
    -0.6104  -0.6087  -0.6082  -0.5717  -0.5709  -0.5639  -0.5553  -0.5417
    -0.5386  -0.5321  -0.5250  -0.4696  -0.4684  -0.4599  -0.4586  -0.4578
    -0.4554  -0.4527  -0.4334  -0.4309  -0.4241  -0.4227  -0.4224  -0.4170
    -0.3820  -0.3799  -0.3792  -0.3718  -0.3695  -0.3643  -0.3618  -0.3505
    -0.3475  -0.3444  -0.3433  -0.3025  -0.3009  -0.2940  -0.2901  -0.2877
    -0.2124  -0.2120  -0.2094  -0.2083  -0.2001  -0.1996  -0.1635  -0.1512
    -0.1502  -0.1265  -0.1184  -0.1075   0.0009   0.0084   0.1067   0.5210
     0.5217   0.5234   0.5254   0.5801   0.5950   0.9722   0.9756   1.0154
     1.0194   1.1289   1.2088   1.3109   1.3304   1.5274   1.5562   2.1681
     2.1752   2.3280   2.3424   2.4584   2.4749   2.5694   2.5712   2.7241
     2.9545   2.9667   3.0854   3.3027   3.3181   3.3916   3.3968   3.4939
     3.5097   3.6825   3.7011   3.7675   3.9664   3.9670   4.0259   4.0333
     4.2848   4.2876   4.3015   4.5359   4.5746   4.5816   4.6231   4.9565
     4.9607   4.9866   5.0632   5.1210   5.2962   5.2987   5.3243   5.3793
     5.7798   5.8581   6.0814   6.0855   6.0887   6.1120   6.1560   6.1609
     6.2169   6.2646   6.2926   6.3112   6.3195   6.3222   6.3409   6.3758
     6.3787   6.4210   6.4322   6.6111   6.6913   6.7648   6.9401   6.9765
     7.0214   7.0298   7.0389

          k =-0.5000 0.0000 0.1111 (136853 PWs)   bands (ev):

   -19.3435  -7.1463  -6.1936  -5.7958  -5.7927  -5.1196  -4.7842  -4.7814
    -4.7502  -4.7439  -4.3828  -4.3814  -4.2838  -4.2832  -4.2694  -4.2480
    -4.2351  -4.1161  -4.1158  -4.0916  -4.0486  -4.0483  -3.9884  -3.9789
    -3.9787  -3.9724  -3.9530  -3.9485  -3.9463  -3.9010  -3.8751  -3.8436
    -3.8419  -3.8308  -3.8301  -3.8084  -3.8070  -3.7848  -3.7780  -3.7762
    -3.7528  -3.7014  -3.6973  -3.6558  -3.6500  -3.6392  -3.5910  -3.5812
    -3.5355  -3.5351  -3.5350  -3.5220  -3.4993  -3.4617  -3.4579  -3.4539
    -3.4521  -3.4474  -3.4230  -3.4182  -3.4096  -3.3523  -3.3480  -3.3406
    -3.3241  -3.3178  -3.2460  -3.2391  -3.2133  -3.2088  -3.1847  -3.1818
    -3.1701  -3.1534  -3.0951  -3.0936  -3.0766  -3.0757  -3.0246  -3.0205
    -3.0160  -2.9809  -2.9507  -2.9489  -2.9406  -2.9387  -2.9282  -2.9261
    -2.9207  -2.9186  -2.9099  -2.8689  -2.8315  -2.8304  -2.8164  -2.8151
    -2.7902  -2.7813  -2.7790  -2.7594  -2.7138  -2.7120  -2.7042  -2.6651
    -2.6590  -2.6475  -2.6467  -2.6193  -2.6150  -2.5878  -2.5519  -2.5486
    -2.5292  -2.5214  -2.5085  -2.5051  -2.4580  -2.4546  -2.4232  -2.4021
    -2.4004  -2.3784  -2.3759  -2.3659  -2.3650  -2.3550  -2.3331  -2.3321
    -2.2881  -2.2866  -2.2862  -2.2699  -2.2688  -2.2632  -2.2547  -2.2535
    -2.2524  -2.2509  -2.2450  -2.2335  -2.2326  -2.2252  -2.1974  -2.1960
    -2.1949  -2.1946  -2.1926  -2.1913  -2.1843  -2.1620  -2.1596  -2.1459
    -2.1435  -2.1272  -2.1265  -2.1176  -2.1170  -2.1166  -2.1134  -2.0963
    -2.0960  -2.0957  -2.0856  -2.0762  -2.0512  -2.0501  -2.0099  -2.0082
    -1.9848  -1.9835  -1.9593  -1.9560  -1.9302  -1.9266  -1.9121  -1.9067
    -1.8798  -1.8603  -1.8563  -1.8530  -1.8496  -1.8476  -1.8420  -1.8392
    -1.8137  -1.8077  -1.7982  -1.7469  -1.7416  -1.7387  -1.7354  -1.7278
    -1.6990  -1.6786  -1.6767  -1.6569  -1.6508  -1.5908  -1.5892  -1.5687
    -1.5433  -1.5415  -1.4844  -1.4798  -1.4758  -1.4684  -1.4607  -1.4571
    -1.4555  -1.4481  -1.4449  -1.4340  -1.3911  -1.3818  -1.3769  -1.3746
    -1.3622  -1.3546  -1.3510  -1.3206  -1.3131  -1.3039  -1.3023  -1.3017
    -1.2953  -1.2880  -1.2814  -1.2683  -1.2615  -1.2588  -1.2219  -1.2157
    -1.2095  -1.1986  -1.1834  -1.1732  -1.1313  -1.1284  -1.1047  -1.1007
    -1.0962  -1.0704  -1.0203  -1.0182  -1.0167  -1.0147  -1.0120  -1.0085
    -1.0010  -0.9823  -0.9801  -0.9428  -0.9410  -0.9126  -0.9098  -0.9064
    -0.9030  -0.8983  -0.8824  -0.8812  -0.8781  -0.8776  -0.8742  -0.8433
    -0.8379  -0.8367  -0.8306  -0.8079  -0.8062  -0.8004  -0.7759  -0.7717
    -0.7666  -0.7235  -0.7189  -0.7084  -0.6809  -0.6724  -0.6631  -0.6617
    -0.6559  -0.6541  -0.6519  -0.6488  -0.6410  -0.6366  -0.6146  -0.6145
    -0.6104  -0.6087  -0.6082  -0.5717  -0.5709  -0.5639  -0.5553  -0.5417
    -0.5386  -0.5321  -0.5250  -0.4696  -0.4684  -0.4599  -0.4586  -0.4578
    -0.4554  -0.4527  -0.4334  -0.4309  -0.4241  -0.4227  -0.4224  -0.4170
    -0.3820  -0.3799  -0.3792  -0.3718  -0.3695  -0.3643  -0.3618  -0.3505
    -0.3475  -0.3444  -0.3433  -0.3025  -0.3009  -0.2940  -0.2901  -0.2877
    -0.2124  -0.2120  -0.2094  -0.2083  -0.2001  -0.1996  -0.1635  -0.1512
    -0.1502  -0.1265  -0.1184  -0.1075   0.0009   0.0084   0.1067   0.5210
     0.5217   0.5234   0.5254   0.5801   0.5950   0.9722   0.9756   1.0154
     1.0194   1.1289   1.2088   1.3109   1.3304   1.5274   1.5562   2.1681
     2.1752   2.3280   2.3424   2.4584   2.4749   2.5694   2.5712   2.7241
     2.9545   2.9667   3.0854   3.3027   3.3181   3.3916   3.3968   3.4939
     3.5097   3.6825   3.7011   3.7675   3.9664   3.9670   4.0259   4.0333
     4.2848   4.2876   4.3015   4.5359   4.5746   4.5816   4.6231   4.9565
     4.9607   4.9866   5.0632   5.1210   5.2962   5.2987   5.3243   5.3793
     5.7798   5.8581   6.0814   6.0854   6.0888   6.1119   6.1560   6.1609
     6.2170   6.2646   6.2926   6.3112   6.3195   6.3222   6.3410   6.3757
     6.3787   6.4203   6.4330   6.6109   6.6915   6.7647   6.9404   6.9763
     7.0215   7.0297   7.0389

          k =-0.2500 0.1443 0.1111 (136898 PWs)   bands (ev):

   -19.3435  -7.1463  -6.4036  -5.6115  -5.3232  -5.2614  -5.2608  -4.7229
    -4.7223  -4.5949  -4.5903  -4.4395  -4.4114  -4.3427  -4.3162  -4.3100
    -4.2758  -4.2754  -4.1473  -4.1058  -4.1054  -4.0467  -4.0290  -4.0246
    -3.9220  -3.9217  -3.8892  -3.8854  -3.8853  -3.8655  -3.8372  -3.8367
    -3.7792  -3.7299  -3.7298  -3.7137  -3.6983  -3.6921  -3.6910  -3.6802
    -3.6699  -3.6520  -3.6365  -3.6359  -3.6358  -3.6208  -3.6041  -3.5923
    -3.5854  -3.5850  -3.5673  -3.5292  -3.5250  -3.4954  -3.4834  -3.4771
    -3.4770  -3.4502  -3.4024  -3.4018  -3.3678  -3.3655  -3.3474  -3.2969
    -3.2966  -3.2817  -3.2808  -3.2512  -3.2503  -3.2498  -3.2472  -3.0962
    -3.0957  -3.0715  -3.0692  -3.0624  -3.0493  -3.0471  -3.0237  -3.0217
    -2.9734  -2.9716  -2.9572  -2.9557  -2.9361  -2.8888  -2.8881  -2.8682
    -2.8638  -2.8635  -2.8228  -2.8219  -2.8156  -2.8129  -2.7997  -2.7978
    -2.7599  -2.7597  -2.7382  -2.7362  -2.7346  -2.7336  -2.7288  -2.6548
    -2.6531  -2.6509  -2.6237  -2.6225  -2.5627  -2.5594  -2.5333  -2.5311
    -2.5195  -2.5190  -2.5125  -2.4841  -2.4823  -2.4737  -2.4563  -2.4323
    -2.4316  -2.4288  -2.4104  -2.4084  -2.3991  -2.3981  -2.3963  -2.3943
    -2.3861  -2.3400  -2.3086  -2.3077  -2.2924  -2.2789  -2.2724  -2.2718
    -2.2651  -2.2646  -2.2624  -2.2337  -2.2331  -2.2306  -2.2235  -2.2228
    -2.2061  -2.1790  -2.1780  -2.1778  -2.1771  -2.1752  -2.1305  -2.1005
    -2.0995  -2.0982  -2.0927  -2.0829  -2.0718  -2.0675  -2.0533  -2.0533
    -2.0215  -2.0190  -2.0185  -2.0002  -2.0000  -1.9962  -1.9669  -1.9628
    -1.9255  -1.9225  -1.9174  -1.9147  -1.9144  -1.9087  -1.9077  -1.9062
    -1.9050  -1.9002  -1.8970  -1.8826  -1.8760  -1.7565  -1.7536  -1.7273
    -1.7174  -1.7141  -1.7092  -1.7073  -1.6966  -1.6921  -1.6912  -1.6896
    -1.6848  -1.6635  -1.6604  -1.6577  -1.6490  -1.6444  -1.6402  -1.6217
    -1.6179  -1.5943  -1.5914  -1.5628  -1.5590  -1.5497  -1.5409  -1.5271
    -1.5235  -1.5202  -1.5025  -1.4897  -1.4886  -1.4824  -1.4805  -1.4717
    -1.4556  -1.4442  -1.4385  -1.4319  -1.4058  -1.3980  -1.3885  -1.3458
    -1.3438  -1.3333  -1.3272  -1.3101  -1.3057  -1.3021  -1.2710  -1.2700
    -1.2620  -1.2319  -1.2269  -1.2192  -1.2096  -1.2077  -1.1831  -1.1821
    -1.1729  -1.1513  -1.1492  -1.1453  -1.0865  -1.0854  -1.0744  -1.0707
    -1.0568  -1.0553  -1.0439  -1.0425  -1.0255  -1.0129  -0.9852  -0.9838
    -0.9719  -0.9435  -0.9360  -0.9312  -0.9230  -0.9228  -0.9200  -0.9173
    -0.9071  -0.9014  -0.8724  -0.8704  -0.8627  -0.8605  -0.8572  -0.8489
    -0.8353  -0.8185  -0.8086  -0.7964  -0.7859  -0.7021  -0.6890  -0.6836
    -0.6830  -0.6784  -0.6745  -0.6714  -0.6486  -0.6437  -0.6344  -0.6300
    -0.6180  -0.6161  -0.6091  -0.5897  -0.5871  -0.5821  -0.5782  -0.5054
    -0.5052  -0.4734  -0.4675  -0.4669  -0.4619  -0.4585  -0.4577  -0.4563
    -0.4458  -0.4438  -0.4243  -0.4033  -0.3881  -0.3704  -0.3688  -0.3592
    -0.3571  -0.3463  -0.3448  -0.3443  -0.3429  -0.3405  -0.3254  -0.3212
    -0.3194  -0.2903  -0.2888  -0.2876  -0.2759  -0.2754  -0.2564  -0.2250
    -0.2239  -0.2156  -0.2130  -0.1476  -0.1465  -0.1103  -0.1101  -0.0521
    -0.0514  -0.0507  -0.0342  -0.0232   0.1976   0.2135   0.5495   0.5497
     0.6356   0.6507   0.8317   0.8584   0.8710   0.9957   1.0020   1.4299
     1.4300   1.4484   1.7067   1.7393   1.7416   2.0090   2.0253   2.0947
     2.0968   2.1178   2.1351   2.3507   2.3543   2.4406   2.4416   2.5057
     2.5724   2.5941   2.7460   2.8441   3.2803   3.2818   3.2832   3.2933
     3.3386   3.3467   3.6330   3.6356   3.9086   3.9209   4.0044   4.3300
     4.3672   4.3758   4.5653   4.5725   4.6710   4.6731   4.7641   4.8817
     4.8820   4.9974   5.0019   5.0534   5.3031   5.3688   5.3724   5.5070
     5.5436   5.7568   5.7590   5.7742   5.7867   5.7906   5.8456   5.8480
     5.9044   6.0192   6.2036   6.2658   6.4549   6.4564   6.5897   6.5917
     6.6003   6.6064   6.6290   6.7437   6.8166   6.8437   6.8522   6.9824
     7.0213   7.0495   7.0759

          k =-0.2500-0.1443-0.1111 (136898 PWs)   bands (ev):

   -19.3435  -7.1463  -6.4036  -5.6115  -5.3232  -5.2614  -5.2608  -4.7228
    -4.7223  -4.5949  -4.5903  -4.4396  -4.4114  -4.3428  -4.3163  -4.3100
    -4.2759  -4.2753  -4.1472  -4.1057  -4.1056  -4.0465  -4.0291  -4.0247
    -3.9219  -3.9217  -3.8892  -3.8854  -3.8853  -3.8656  -3.8375  -3.8365
    -3.7788  -3.7300  -3.7297  -3.7135  -3.6987  -3.6922  -3.6912  -3.6803
    -3.6700  -3.6521  -3.6366  -3.6359  -3.6356  -3.6205  -3.6042  -3.5925
    -3.5854  -3.5848  -3.5672  -3.5293  -3.5251  -3.4955  -3.4833  -3.4771
    -3.4769  -3.4501  -3.4025  -3.4018  -3.3676  -3.3654  -3.3474  -3.2971
    -3.2968  -3.2816  -3.2807  -3.2510  -3.2505  -3.2502  -3.2471  -3.0963
    -3.0957  -3.0716  -3.0692  -3.0623  -3.0493  -3.0472  -3.0235  -3.0216
    -2.9735  -2.9716  -2.9571  -2.9557  -2.9360  -2.8886  -2.8882  -2.8682
    -2.8639  -2.8636  -2.8228  -2.8220  -2.8156  -2.8130  -2.7997  -2.7978
    -2.7597  -2.7595  -2.7383  -2.7361  -2.7346  -2.7335  -2.7288  -2.6548
    -2.6531  -2.6511  -2.6238  -2.6226  -2.5627  -2.5592  -2.5332  -2.5312
    -2.5193  -2.5189  -2.5126  -2.4839  -2.4824  -2.4738  -2.4561  -2.4324
    -2.4318  -2.4290  -2.4103  -2.4083  -2.3994  -2.3981  -2.3962  -2.3943
    -2.3861  -2.3399  -2.3086  -2.3078  -2.2923  -2.2791  -2.2724  -2.2718
    -2.2652  -2.2646  -2.2626  -2.2338  -2.2329  -2.2305  -2.2235  -2.2226
    -2.2059  -2.1792  -2.1782  -2.1776  -2.1769  -2.1755  -2.1306  -2.1006
    -2.0995  -2.0983  -2.0926  -2.0830  -2.0715  -2.0676  -2.0532  -2.0531
    -2.0214  -2.0189  -2.0184  -2.0003  -2.0001  -1.9964  -1.9669  -1.9627
    -1.9256  -1.9224  -1.9171  -1.9148  -1.9143  -1.9090  -1.9079  -1.9064
    -1.9053  -1.9002  -1.8965  -1.8827  -1.8762  -1.7568  -1.7531  -1.7266
    -1.7177  -1.7136  -1.7091  -1.7074  -1.6974  -1.6924  -1.6910  -1.6893
    -1.6848  -1.6636  -1.6611  -1.6575  -1.6484  -1.6443  -1.6398  -1.6223
    -1.6180  -1.5948  -1.5912  -1.5634  -1.5585  -1.5498  -1.5407  -1.5273
    -1.5231  -1.5201  -1.5025  -1.4901  -1.4886  -1.4827  -1.4806  -1.4708
    -1.4553  -1.4454  -1.4382  -1.4323  -1.4050  -1.3973  -1.3885  -1.3459
    -1.3434  -1.3333  -1.3273  -1.3125  -1.3059  -1.3023  -1.2709  -1.2699
    -1.2597  -1.2325  -1.2263  -1.2195  -1.2094  -1.2078  -1.1833  -1.1819
    -1.1734  -1.1514  -1.1492  -1.1457  -1.0868  -1.0853  -1.0742  -1.0710
    -1.0567  -1.0553  -1.0435  -1.0418  -1.0251  -1.0126  -0.9852  -0.9840
    -0.9722  -0.9434  -0.9358  -0.9313  -0.9232  -0.9229  -0.9204  -0.9173
    -0.9089  -0.9014  -0.8723  -0.8710  -0.8624  -0.8603  -0.8557  -0.8491
    -0.8351  -0.8180  -0.8091  -0.7960  -0.7868  -0.7019  -0.6890  -0.6836
    -0.6830  -0.6784  -0.6744  -0.6715  -0.6487  -0.6445  -0.6342  -0.6302
    -0.6177  -0.6162  -0.6093  -0.5893  -0.5871  -0.5822  -0.5782  -0.5054
    -0.5050  -0.4731  -0.4679  -0.4670  -0.4617  -0.4587  -0.4578  -0.4565
    -0.4452  -0.4437  -0.4245  -0.4032  -0.3888  -0.3702  -0.3689  -0.3592
    -0.3574  -0.3463  -0.3450  -0.3442  -0.3426  -0.3405  -0.3254  -0.3213
    -0.3194  -0.2903  -0.2887  -0.2873  -0.2760  -0.2751  -0.2564  -0.2250
    -0.2240  -0.2155  -0.2132  -0.1478  -0.1462  -0.1105  -0.1099  -0.0521
    -0.0515  -0.0505  -0.0349  -0.0232   0.1989   0.2131   0.5495   0.5497
     0.6366   0.6502   0.8309   0.8580   0.8714   0.9958   1.0018   1.4299
     1.4300   1.4486   1.7066   1.7393   1.7416   2.0101   2.0245   2.0948
     2.0966   2.1183   2.1344   2.3507   2.3540   2.4406   2.4415   2.5058
     2.5733   2.5929   2.7458   2.8441   3.2803   3.2819   3.2840   3.2930
     3.3390   3.3463   3.6333   3.6353   3.9091   3.9205   4.0047   4.3301
     4.3673   4.3751   4.5640   4.5713   4.6709   4.6738   4.7642   4.8809
     4.8827   4.9976   5.0020   5.0558   5.3028   5.3682   5.3736   5.5106
     5.5423   5.7567   5.7593   5.7715   5.7869   5.7909   5.8455   5.8486
     5.8977   6.0082   6.2309   6.2611   6.4547   6.4558   6.5895   6.5922
     6.6005   6.6057   6.6280   6.7335   6.8280   6.8453   6.8515   6.9807
     7.0161   7.0506   7.0774

          k = 0.2500 0.1443-0.1111 (136898 PWs)   bands (ev):

   -19.3435  -7.1463  -6.4036  -5.6115  -5.3232  -5.2614  -5.2608  -4.7228
    -4.7223  -4.5949  -4.5903  -4.4396  -4.4114  -4.3428  -4.3163  -4.3100
    -4.2759  -4.2753  -4.1472  -4.1057  -4.1056  -4.0465  -4.0291  -4.0247
    -3.9219  -3.9217  -3.8892  -3.8854  -3.8853  -3.8656  -3.8375  -3.8365
    -3.7788  -3.7300  -3.7297  -3.7135  -3.6987  -3.6922  -3.6912  -3.6803
    -3.6700  -3.6521  -3.6366  -3.6359  -3.6356  -3.6205  -3.6042  -3.5925
    -3.5854  -3.5848  -3.5672  -3.5293  -3.5251  -3.4955  -3.4833  -3.4771
    -3.4769  -3.4501  -3.4025  -3.4018  -3.3677  -3.3654  -3.3474  -3.2971
    -3.2968  -3.2816  -3.2807  -3.2510  -3.2505  -3.2502  -3.2471  -3.0963
    -3.0957  -3.0716  -3.0692  -3.0623  -3.0494  -3.0472  -3.0235  -3.0216
    -2.9735  -2.9716  -2.9571  -2.9556  -2.9360  -2.8886  -2.8882  -2.8682
    -2.8639  -2.8636  -2.8228  -2.8220  -2.8156  -2.8130  -2.7997  -2.7978
    -2.7597  -2.7595  -2.7383  -2.7361  -2.7346  -2.7335  -2.7288  -2.6548
    -2.6531  -2.6511  -2.6238  -2.6226  -2.5627  -2.5592  -2.5332  -2.5312
    -2.5193  -2.5189  -2.5126  -2.4839  -2.4823  -2.4738  -2.4561  -2.4324
    -2.4318  -2.4290  -2.4103  -2.4083  -2.3994  -2.3981  -2.3962  -2.3943
    -2.3861  -2.3399  -2.3086  -2.3078  -2.2923  -2.2791  -2.2724  -2.2718
    -2.2652  -2.2646  -2.2626  -2.2338  -2.2329  -2.2305  -2.2235  -2.2226
    -2.2059  -2.1792  -2.1782  -2.1776  -2.1769  -2.1755  -2.1306  -2.1006
    -2.0995  -2.0983  -2.0926  -2.0829  -2.0715  -2.0676  -2.0532  -2.0531
    -2.0214  -2.0189  -2.0184  -2.0003  -2.0001  -1.9964  -1.9669  -1.9627
    -1.9256  -1.9225  -1.9171  -1.9148  -1.9143  -1.9090  -1.9079  -1.9064
    -1.9053  -1.9002  -1.8965  -1.8827  -1.8762  -1.7568  -1.7531  -1.7266
    -1.7177  -1.7136  -1.7091  -1.7074  -1.6974  -1.6924  -1.6910  -1.6893
    -1.6848  -1.6636  -1.6611  -1.6575  -1.6484  -1.6443  -1.6398  -1.6223
    -1.6180  -1.5948  -1.5912  -1.5634  -1.5585  -1.5498  -1.5407  -1.5273
    -1.5231  -1.5201  -1.5025  -1.4901  -1.4886  -1.4827  -1.4806  -1.4708
    -1.4553  -1.4454  -1.4382  -1.4323  -1.4050  -1.3973  -1.3885  -1.3459
    -1.3434  -1.3333  -1.3273  -1.3125  -1.3059  -1.3023  -1.2709  -1.2699
    -1.2597  -1.2325  -1.2263  -1.2195  -1.2094  -1.2078  -1.1833  -1.1819
    -1.1734  -1.1514  -1.1492  -1.1457  -1.0868  -1.0853  -1.0742  -1.0710
    -1.0567  -1.0553  -1.0435  -1.0418  -1.0251  -1.0126  -0.9852  -0.9840
    -0.9722  -0.9434  -0.9358  -0.9313  -0.9232  -0.9229  -0.9204  -0.9173
    -0.9089  -0.9014  -0.8723  -0.8710  -0.8624  -0.8603  -0.8557  -0.8491
    -0.8351  -0.8179  -0.8091  -0.7960  -0.7868  -0.7019  -0.6889  -0.6836
    -0.6830  -0.6784  -0.6744  -0.6715  -0.6486  -0.6445  -0.6342  -0.6302
    -0.6177  -0.6162  -0.6093  -0.5893  -0.5871  -0.5822  -0.5782  -0.5054
    -0.5050  -0.4731  -0.4679  -0.4670  -0.4617  -0.4587  -0.4578  -0.4565
    -0.4452  -0.4437  -0.4245  -0.4032  -0.3888  -0.3702  -0.3689  -0.3592
    -0.3574  -0.3463  -0.3450  -0.3442  -0.3426  -0.3405  -0.3254  -0.3213
    -0.3194  -0.2903  -0.2887  -0.2873  -0.2760  -0.2751  -0.2564  -0.2250
    -0.2240  -0.2154  -0.2132  -0.1478  -0.1462  -0.1105  -0.1099  -0.0521
    -0.0515  -0.0505  -0.0349  -0.0232   0.1989   0.2131   0.5495   0.5497
     0.6366   0.6502   0.8309   0.8580   0.8714   0.9958   1.0018   1.4299
     1.4300   1.4486   1.7066   1.7392   1.7416   2.0101   2.0245   2.0948
     2.0966   2.1183   2.1344   2.3507   2.3540   2.4406   2.4415   2.5058
     2.5733   2.5929   2.7458   2.8441   3.2803   3.2819   3.2840   3.2930
     3.3390   3.3463   3.6333   3.6353   3.9091   3.9205   4.0047   4.3301
     4.3673   4.3751   4.5640   4.5713   4.6709   4.6738   4.7642   4.8809
     4.8827   4.9976   5.0020   5.0558   5.3028   5.3682   5.3736   5.5106
     5.5423   5.7567   5.7593   5.7715   5.7870   5.7909   5.8455   5.8485
     5.8976   6.0091   6.2299   6.2613   6.4491   6.4604   6.5894   6.5923
     6.6011   6.6045   6.6251   6.7352   6.8272   6.8455   6.8518   6.9842
     7.0205   7.0515   7.0794

          k = 0.0000-0.2887 0.1111 (136898 PWs)   bands (ev):

   -19.3435  -7.1463  -6.4036  -5.6115  -5.3232  -5.2615  -5.2608  -4.7229
    -4.7222  -4.5947  -4.5904  -4.4395  -4.4115  -4.3428  -4.3165  -4.3099
    -4.2759  -4.2753  -4.1472  -4.1057  -4.1056  -4.0465  -4.0291  -4.0247
    -3.9219  -3.9217  -3.8892  -3.8855  -3.8852  -3.8656  -3.8373  -3.8366
    -3.7791  -3.7300  -3.7298  -3.7138  -3.6984  -3.6921  -3.6909  -3.6801
    -3.6702  -3.6520  -3.6365  -3.6360  -3.6356  -3.6200  -3.6044  -3.5924
    -3.5854  -3.5850  -3.5665  -3.5298  -3.5250  -3.4953  -3.4831  -3.4771
    -3.4769  -3.4509  -3.4025  -3.4019  -3.3675  -3.3654  -3.3474  -3.2970
    -3.2968  -3.2816  -3.2807  -3.2511  -3.2505  -3.2500  -3.2473  -3.0961
    -3.0957  -3.0717  -3.0691  -3.0623  -3.0493  -3.0473  -3.0239  -3.0215
    -2.9734  -2.9717  -2.9570  -2.9556  -2.9359  -2.8892  -2.8878  -2.8681
    -2.8637  -2.8635  -2.8228  -2.8220  -2.8157  -2.8132  -2.7996  -2.7980
    -2.7596  -2.7594  -2.7387  -2.7360  -2.7346  -2.7335  -2.7288  -2.6548
    -2.6532  -2.6508  -2.6236  -2.6227  -2.5637  -2.5586  -2.5332  -2.5309
    -2.5191  -2.5189  -2.5126  -2.4842  -2.4821  -2.4738  -2.4560  -2.4327
    -2.4320  -2.4289  -2.4103  -2.4084  -2.3997  -2.3973  -2.3959  -2.3947
    -2.3861  -2.3400  -2.3086  -2.3078  -2.2922  -2.2790  -2.2727  -2.2716
    -2.2650  -2.2648  -2.2626  -2.2335  -2.2333  -2.2303  -2.2235  -2.2223
    -2.2059  -2.1789  -2.1784  -2.1776  -2.1767  -2.1752  -2.1307  -2.1006
    -2.0996  -2.0982  -2.0926  -2.0830  -2.0725  -2.0667  -2.0532  -2.0531
    -2.0213  -2.0189  -2.0183  -2.0005  -2.0002  -1.9963  -1.9667  -1.9632
    -1.9257  -1.9224  -1.9167  -1.9151  -1.9144  -1.9103  -1.9079  -1.9073
    -1.9053  -1.8999  -1.8962  -1.8828  -1.8758  -1.7574  -1.7516  -1.7218
    -1.7199  -1.7132  -1.7093  -1.7076  -1.6994  -1.6929  -1.6904  -1.6882
    -1.6852  -1.6642  -1.6630  -1.6569  -1.6460  -1.6454  -1.6392  -1.6239
    -1.6176  -1.5967  -1.5898  -1.5652  -1.5573  -1.5507  -1.5398  -1.5277
    -1.5225  -1.5205  -1.5027  -1.4909  -1.4884  -1.4829  -1.4803  -1.4669
    -1.4546  -1.4511  -1.4353  -1.4351  -1.4035  -1.3910  -1.3881  -1.3452
    -1.3431  -1.3327  -1.3272  -1.3221  -1.3058  -1.3029  -1.2708  -1.2705
    -1.2514  -1.2352  -1.2241  -1.2213  -1.2091  -1.2087  -1.1848  -1.1814
    -1.1745  -1.1513  -1.1491  -1.1473  -1.0865  -1.0848  -1.0729  -1.0720
    -1.0570  -1.0541  -1.0437  -1.0393  -1.0249  -1.0122  -0.9852  -0.9845
    -0.9734  -0.9440  -0.9347  -0.9324  -0.9230  -0.9228  -0.9208  -0.9162
    -0.9144  -0.9014  -0.8729  -0.8715  -0.8615  -0.8609  -0.8538  -0.8456
    -0.8339  -0.8135  -0.8116  -0.7932  -0.7922  -0.7021  -0.6888  -0.6834
    -0.6832  -0.6791  -0.6732  -0.6717  -0.6485  -0.6482  -0.6334  -0.6312
    -0.6168  -0.6165  -0.6091  -0.5883  -0.5865  -0.5833  -0.5780  -0.5058
    -0.5043  -0.4715  -0.4697  -0.4669  -0.4605  -0.4602  -0.4579  -0.4573
    -0.4449  -0.4412  -0.4250  -0.4032  -0.3907  -0.3695  -0.3692  -0.3588
    -0.3582  -0.3470  -0.3449  -0.3440  -0.3425  -0.3399  -0.3253  -0.3211
    -0.3194  -0.2902  -0.2895  -0.2861  -0.2764  -0.2739  -0.2563  -0.2248
    -0.2243  -0.2151  -0.2147  -0.1486  -0.1443  -0.1106  -0.1097  -0.0522
    -0.0518  -0.0496  -0.0364  -0.0232   0.2038   0.2103   0.5496   0.5496
     0.6409   0.6471   0.8280   0.8559   0.8733   0.9966   1.0013   1.4298
     1.4302   1.4483   1.7063   1.7394   1.7413   2.0153   2.0209   2.0955
     2.0960   2.1215   2.1307   2.3513   2.3538   2.4409   2.4412   2.5062
     2.5777   2.5881   2.7456   2.8437   3.2787   3.2822   3.2872   3.2909
     3.3398   3.3460   3.6332   3.6352   3.9126   3.9177   4.0060   4.3302
     4.3696   4.3721   4.5436   4.5808   4.6689   4.6778   4.7640   4.8744
     4.8873   4.9992   5.0002   5.0685   5.3019   5.3645   5.3794   5.5259
     5.5353   5.7525   5.7600   5.7608   5.7868   5.7905   5.8479   5.8508
     5.8765   5.9878   6.2405   6.3392   6.4442   6.4561   6.5866   6.5933
     6.5937   6.6040   6.6180   6.6850   6.8446   6.8487   6.9111   6.9668
     7.0010   7.0617   7.0677

          k = 0.0000 0.2887 0.1111 (136898 PWs)   bands (ev):

   -19.3435  -7.1463  -6.4036  -5.6115  -5.3232  -5.2615  -5.2608  -4.7229
    -4.7222  -4.5947  -4.5904  -4.4395  -4.4115  -4.3428  -4.3165  -4.3099
    -4.2759  -4.2753  -4.1472  -4.1057  -4.1056  -4.0465  -4.0291  -4.0247
    -3.9219  -3.9217  -3.8892  -3.8855  -3.8852  -3.8656  -3.8373  -3.8366
    -3.7791  -3.7300  -3.7298  -3.7138  -3.6983  -3.6921  -3.6909  -3.6801
    -3.6702  -3.6520  -3.6365  -3.6360  -3.6356  -3.6200  -3.6044  -3.5924
    -3.5854  -3.5850  -3.5665  -3.5298  -3.5250  -3.4953  -3.4831  -3.4771
    -3.4769  -3.4508  -3.4025  -3.4019  -3.3675  -3.3654  -3.3474  -3.2970
    -3.2968  -3.2816  -3.2807  -3.2511  -3.2505  -3.2500  -3.2473  -3.0961
    -3.0957  -3.0717  -3.0691  -3.0623  -3.0494  -3.0473  -3.0239  -3.0215
    -2.9734  -2.9717  -2.9570  -2.9556  -2.9359  -2.8892  -2.8878  -2.8681
    -2.8637  -2.8635  -2.8228  -2.8220  -2.8157  -2.8132  -2.7996  -2.7980
    -2.7596  -2.7594  -2.7387  -2.7360  -2.7346  -2.7335  -2.7288  -2.6548
    -2.6532  -2.6508  -2.6236  -2.6227  -2.5637  -2.5586  -2.5332  -2.5310
    -2.5191  -2.5189  -2.5126  -2.4842  -2.4821  -2.4738  -2.4560  -2.4327
    -2.4320  -2.4289  -2.4103  -2.4084  -2.3997  -2.3973  -2.3959  -2.3947
    -2.3861  -2.3400  -2.3086  -2.3078  -2.2922  -2.2790  -2.2727  -2.2716
    -2.2650  -2.2648  -2.2626  -2.2335  -2.2333  -2.2303  -2.2235  -2.2223
    -2.2059  -2.1789  -2.1784  -2.1776  -2.1767  -2.1752  -2.1307  -2.1006
    -2.0996  -2.0982  -2.0926  -2.0830  -2.0725  -2.0667  -2.0532  -2.0531
    -2.0213  -2.0188  -2.0183  -2.0005  -2.0002  -1.9963  -1.9667  -1.9632
    -1.9257  -1.9225  -1.9167  -1.9151  -1.9144  -1.9103  -1.9079  -1.9073
    -1.9053  -1.8999  -1.8962  -1.8828  -1.8758  -1.7574  -1.7516  -1.7218
    -1.7199  -1.7132  -1.7093  -1.7076  -1.6994  -1.6929  -1.6904  -1.6882
    -1.6853  -1.6642  -1.6630  -1.6569  -1.6460  -1.6454  -1.6392  -1.6239
    -1.6176  -1.5967  -1.5898  -1.5652  -1.5573  -1.5507  -1.5398  -1.5277
    -1.5225  -1.5205  -1.5027  -1.4909  -1.4884  -1.4829  -1.4803  -1.4669
    -1.4546  -1.4511  -1.4353  -1.4351  -1.4035  -1.3910  -1.3881  -1.3452
    -1.3431  -1.3327  -1.3272  -1.3221  -1.3058  -1.3029  -1.2708  -1.2705
    -1.2514  -1.2352  -1.2241  -1.2213  -1.2091  -1.2087  -1.1848  -1.1814
    -1.1745  -1.1513  -1.1491  -1.1473  -1.0865  -1.0848  -1.0729  -1.0720
    -1.0570  -1.0541  -1.0437  -1.0393  -1.0249  -1.0122  -0.9852  -0.9845
    -0.9734  -0.9440  -0.9347  -0.9324  -0.9230  -0.9228  -0.9208  -0.9162
    -0.9144  -0.9014  -0.8729  -0.8715  -0.8615  -0.8609  -0.8538  -0.8456
    -0.8339  -0.8135  -0.8116  -0.7932  -0.7922  -0.7021  -0.6887  -0.6834
    -0.6832  -0.6791  -0.6732  -0.6717  -0.6485  -0.6482  -0.6334  -0.6312
    -0.6168  -0.6165  -0.6091  -0.5883  -0.5865  -0.5833  -0.5780  -0.5058
    -0.5043  -0.4715  -0.4697  -0.4669  -0.4605  -0.4602  -0.4579  -0.4573
    -0.4449  -0.4412  -0.4250  -0.4032  -0.3907  -0.3695  -0.3692  -0.3588
    -0.3582  -0.3470  -0.3449  -0.3440  -0.3425  -0.3399  -0.3253  -0.3211
    -0.3194  -0.2902  -0.2896  -0.2861  -0.2764  -0.2739  -0.2563  -0.2248
    -0.2243  -0.2151  -0.2147  -0.1486  -0.1443  -0.1106  -0.1097  -0.0522
    -0.0518  -0.0496  -0.0364  -0.0232   0.2038   0.2103   0.5496   0.5496
     0.6409   0.6471   0.8280   0.8559   0.8733   0.9966   1.0013   1.4298
     1.4302   1.4483   1.7063   1.7394   1.7413   2.0153   2.0209   2.0955
     2.0960   2.1215   2.1307   2.3513   2.3538   2.4409   2.4412   2.5062
     2.5777   2.5881   2.7456   2.8437   3.2787   3.2822   3.2872   3.2909
     3.3398   3.3460   3.6332   3.6352   3.9126   3.9177   4.0060   4.3302
     4.3696   4.3721   4.5436   4.5808   4.6689   4.6778   4.7640   4.8744
     4.8873   4.9992   5.0002   5.0685   5.3019   5.3644   5.3794   5.5259
     5.5353   5.7523   5.7600   5.7611   5.7868   5.7905   5.8479   5.8508
     5.8766   5.9877   6.2405   6.3387   6.4403   6.4610   6.5849   6.5922
     6.5936   6.6040   6.6169   6.6841   6.8447   6.8488   6.9127   6.9688
     7.0071   7.0620   7.0692

     the Fermi energy is     1.5737 ev

!    total energy              =   -6604.43228498 Ry
     Harris-Foulkes estimate   =   -6604.43228497 Ry
     estimated scf accuracy    <          8.1E-09 Ry

     The total energy is the sum of the following terms:

     one-electron contribution =  -48744.50415408 Ry
     hartree contribution      =   24876.83854338 Ry
     xc contribution           =   -3204.98222988 Ry
     ewald contribution        =   20468.21270988 Ry
     smearing contrib. (-TS)   =       0.00284573 Ry

     convergence has been achieved in  24 iterations

     Writing output data file 2658862.save

     init_run     :    146.37s CPU    156.65s WALL (       1 calls)
     electrons    :   8239.18s CPU   8728.09s WALL (       1 calls)

     Called by init_run:
     wfcinit      :    112.16s CPU    121.57s WALL (       1 calls)
     potinit      :     11.92s CPU     12.31s WALL (       1 calls)

     Called by electrons:
     c_bands      :   7047.50s CPU   7439.80s WALL (      25 calls)
     sum_band     :    882.06s CPU    963.76s WALL (      25 calls)
     v_of_rho     :     95.65s CPU    104.70s WALL (      25 calls)
     newd         :    226.44s CPU    229.36s WALL (      25 calls)
     mix_rho      :      2.83s CPU      3.10s WALL (      25 calls)
     vdW_energy   :      6.41s CPU      7.23s WALL (      25 calls)
     vdW_ffts     :     50.94s CPU     55.38s WALL (      50 calls)
     vdW_v        :     12.50s CPU     13.21s WALL (      25 calls)

     Called by c_bands:
     init_us_2    :     15.76s CPU     16.23s WALL (     612 calls)
     cegterg      :   6935.14s CPU   7312.84s WALL (     300 calls)

     Called by *egterg:
     h_psi        :   2819.61s CPU   3158.65s WALL (    1807 calls)
     s_psi        :    429.36s CPU    432.01s WALL (    1807 calls)
     g_psi        :      6.05s CPU      6.04s WALL (    1495 calls)
     cdiaghg      :   2301.64s CPU   2307.31s WALL (    1783 calls)

     Called by h_psi:
     add_vuspsi   :    429.84s CPU    432.34s WALL (    1807 calls)

     General routines
     calbec       :    641.72s CPU    644.13s WALL (    2107 calls)
     fft          :    120.06s CPU    128.29s WALL (    1650 calls)
     ffts         :      1.34s CPU      1.63s WALL (      50 calls)
     fftw         :   2045.78s CPU   2401.79s WALL (  727680 calls)
     interpolate  :      3.66s CPU      4.35s WALL (      50 calls)
     davcio       :      0.01s CPU      0.20s WALL (      12 calls)

     Parallel routines
     fft_scatter  :   1426.68s CPU   1681.58s WALL (  729380 calls)

     PWSCF        :     2h19m CPU        2h28m WALL


   This run was terminated on:  15: 6:32  24Aug2015            

=------------------------------------------------------------------------------=
   JOB DONE.
=------------------------------------------------------------------------------=
