
     Program PWSCF v.5.1.2 starts on 24Aug2015 at 11:24:12 

     This program is part of the open-source Quantum ESPRESSO suite
     for quantum simulation of materials; please cite
         "P. Giannozzi et al., J. Phys.:Condens. Matter 21 395502 (2009);
          URL http://www.quantum-espresso.org", 
     in publications or presentations arising from this work. More details at
     http://www.quantum-espresso.org/quote

     Parallel version (MPI), running on    32 processors
     R & G space division:  proc/nbgrp/npool/nimage =      32
     Reading input from hollow.O1.Au535758.d.2.7.phi.0.psi.0.in
Warning: card &IONS ignored
Warning: card / ignored
Warning: card &CELL ignored
Warning: card / ignored

     Current dimensions of program PWSCF are:
     Max number of different atomic species (ntypx) = 10
     Max number of k-points (npk) =  40000
     Max angular momentum in pseudopotentials (lmaxx) =  3

     IMPORTANT: XC functional enforced from input :
     Exchange-correlation      = VDW-DF ( 1  4  4  0 1 0)
     Any further DFT definition will be discarded
     Please, verify this is what you really want


     Subspace diagonalization in iterative solution of the eigenvalue problem:
     a serial algorithm will be used


     Parallelization info
     --------------------
     sticks:   dense  smooth     PW     G-vecs:    dense   smooth      PW
     Min         445     223     58                96775    34191    4534
     Max         446     224     59                96790    34246    4540
     Sum       14269    7147   1867              3097177  1095093  145167


     Title: 
     hollow.O1.Au535758.d.2.7.phi.0.psi.0                                       


     bravais-lattice index     =            4
     lattice parameter (alat)  =      22.7436  a.u.
     unit-cell volume          =   22924.1508 (a.u.)^3
     number of atoms/cell      =           67
     number of atomic types    =            3
     number of electrons       =       712.00
     number of Kohn-Sham states=          427
     kinetic-energy cutoff     =      50.0000  Ry
     charge density cutoff     =     400.0000  Ry
     convergence threshold     =      1.0E-08
     mixing beta               =       0.7000
     number of iterations used =            8  plain     mixing
     Exchange-correlation      = VDW-DF ( 1  4  4  0 1 0)

     celldm(1)=  22.743643  celldm(2)=   0.000000  celldm(3)=   2.250000
     celldm(4)=   0.000000  celldm(5)=   0.000000  celldm(6)=   0.000000

     crystal axes: (cart. coord. in units of alat)
               a(1) = (   1.000000   0.000000   0.000000 )  
               a(2) = (  -0.500000   0.866025   0.000000 )  
               a(3) = (   0.000000   0.000000   2.250000 )  

     reciprocal axes: (cart. coord. in units 2 pi/alat)
               b(1) = (  1.000000  0.577350 -0.000000 )  
               b(2) = (  0.000000  1.154701  0.000000 )  
               b(3) = (  0.000000 -0.000000  0.444444 )  


     PseudoPot. # 1 for Au read from file:
     /home/scc/andrejb/qe/pseudo/Au.pbe-nd-van.UPF
     MD5 check sum: 458681b50f36d87ef23c61b04bba420a
     Pseudo is Ultrasoft + core correction, Zval = 11.0
     Generated by new atomic code, or converted to UPF format
     Using radial grid of  985 points,  3 beta functions with: 
                l(1) =   1
                l(2) =   2
                l(3) =   2
     Q(r) pseudized with  8 coefficients,  rinner =    1.100   1.100   1.100
                                                       1.100   1.100

     PseudoPot. # 2 for H  read from file:
     /home/scc/andrejb/qe/pseudo/H.pbe-van_ak.UPF
     MD5 check sum: 403db7282739603aa925980fa9b8608d
     Pseudo is Ultrasoft, Zval =  1.0
     Generated by new atomic code, or converted to UPF format
     Using radial grid of  615 points,  1 beta functions with: 
                l(1) =   0
     Q(r) pseudized with  8 coefficients,  rinner =    0.800

     PseudoPot. # 3 for O  read from file:
     /home/scc/andrejb/qe/pseudo/O.pbe-van_ak.UPF
     MD5 check sum: 4b8c549914a63cae506c6ff22b5af4fe
     Pseudo is Ultrasoft, Zval =  6.0
     Generated by new atomic code, or converted to UPF format
     Using radial grid of  737 points,  4 beta functions with: 
                l(1) =   0
                l(2) =   0
                l(3) =   1
                l(4) =   1
     Q(r) pseudized with  8 coefficients,  rinner =    0.800   0.800   0.800


     vdW kernel table read from file vdW_kernel_table
     MD5 check sum: 48e77a2e26edf626eeb0eaa751ad5cac

     atomic species   valence    mass     pseudopotential
        Au            11.00   196.96657     Au( 1.00)
        H              1.00     1.01000     H ( 1.00)
        O              6.00    16.00000     O ( 1.00)

     No symmetry found



   Cartesian axes

     site n.     atom                  positions (alat units)
         1           O   tau(   1) = (  -0.0208375   0.5411347   0.8373442  )
         2           H   tau(   2) = (  -0.0707709   0.4995870   0.8855978  )
         3           H   tau(   3) = (   0.0275819   0.5814415   0.8881049  )
         4           Au  tau(   4) = (   0.3540481   0.6132292   0.0000000  )
         5           Au  tau(   5) = (   0.4790062   0.3967954   0.0000000  )
         6           Au  tau(   6) = (   0.6039644   0.1803616   0.0000000  )
         7           Au  tau(   7) = (   0.7289225  -0.0360723   0.0000000  )
         8           Au  tau(   8) = (   0.1041318   0.6132292   0.0000000  )
         9           Au  tau(   9) = (   0.2290899   0.3967954   0.0000000  )
        10           Au  tau(  10) = (   0.3540481   0.1803616   0.0000000  )
        11           Au  tau(  11) = (   0.4790062  -0.0360723   0.0000000  )
        12           Au  tau(  12) = (  -0.1457845   0.6132292   0.0000000  )
        13           Au  tau(  13) = (  -0.0208264   0.3967954   0.0000000  )
        14           Au  tau(  14) = (   0.1041318   0.1803616   0.0000000  )
        15           Au  tau(  15) = (   0.2290899  -0.0360723   0.0000000  )
        16           Au  tau(  16) = (  -0.3957008   0.6132292   0.0000000  )
        17           Au  tau(  17) = (  -0.2707426   0.3967954   0.0000000  )
        18           Au  tau(  18) = (  -0.1457845   0.1803616   0.0000000  )
        19           Au  tau(  19) = (  -0.0208264  -0.0360723   0.0000000  )
        20           Au  tau(  20) = (   0.4790062   0.6853738   0.2040557  )
        21           Au  tau(  21) = (   0.6039644   0.4689400   0.2040557  )
        22           Au  tau(  22) = (   0.7289225   0.2525061   0.2040557  )
        23           Au  tau(  23) = (   0.8538806   0.0360723   0.2040557  )
        24           Au  tau(  24) = (   0.2290899   0.6853738   0.2040557  )
        25           Au  tau(  25) = (   0.3540481   0.4689400   0.2040557  )
        26           Au  tau(  26) = (   0.4790062   0.2525061   0.2040557  )
        27           Au  tau(  27) = (   0.6039644   0.0360723   0.2040557  )
        28           Au  tau(  28) = (  -0.0208264   0.6853738   0.2040557  )
        29           Au  tau(  29) = (   0.1041318   0.4689400   0.2040557  )
        30           Au  tau(  30) = (   0.2290899   0.2525061   0.2040557  )
        31           Au  tau(  31) = (   0.3540481   0.0360723   0.2040557  )
        32           Au  tau(  32) = (  -0.2707426   0.6853738   0.2040557  )
        33           Au  tau(  33) = (  -0.1457845   0.4689400   0.2040557  )
        34           Au  tau(  34) = (  -0.0208264   0.2525061   0.2040557  )
        35           Au  tau(  35) = (   0.1041318   0.0360723   0.2040557  )
        36           Au  tau(  36) = (   0.3541162   0.7576593   0.4066483  )
        37           Au  tau(  37) = (   0.4791000   0.5411421   0.4066695  )
        38           Au  tau(  38) = (   0.6040570   0.3246862   0.4066617  )
        39           Au  tau(  39) = (   0.7290270   0.1081684   0.4066529  )
        40           Au  tau(  40) = (   0.1041162   0.7576236   0.4066247  )
        41           Au  tau(  41) = (   0.2291001   0.5411063   0.4066455  )
        42           Au  tau(  42) = (   0.3540567   0.3246505   0.4066380  )
        43           Au  tau(  43) = (   0.4790276   0.1081324   0.4066292  )
        44           Au  tau(  44) = (  -0.1458201   0.7576104   0.4066224  )
        45           Au  tau(  45) = (  -0.0208365   0.5410930   0.4066438  )
        46           Au  tau(  46) = (   0.1041202   0.3246372   0.4066359  )
        47           Au  tau(  47) = (   0.2290908   0.1081193   0.4066273  )
        48           Au  tau(  48) = (  -0.3958167   0.7575791   0.4065812  )
        49           Au  tau(  49) = (  -0.2708328   0.5410617   0.4066025  )
        50           Au  tau(  50) = (  -0.1458763   0.3246061   0.4065947  )
        51           Au  tau(  51) = (  -0.0209056   0.1080882   0.4065858  )
        52           Au  tau(  52) = (   0.3541085   0.6133344   0.6129762  )
        53           Au  tau(  53) = (   0.4790780   0.3968269   0.6129968  )
        54           Au  tau(  54) = (   0.6040356   0.1803811   0.6129859  )
        55           Au  tau(  55) = (   0.7290165  -0.0361221   0.6129385  )
        56           Au  tau(  56) = (   0.1041243   0.6133091   0.6130022  )
        57           Au  tau(  57) = (   0.2290941   0.3968013   0.6130241  )
        58           Au  tau(  58) = (   0.3540515   0.1803552   0.6130121  )
        59           Au  tau(  59) = (   0.4790323  -0.0361475   0.6129659  )
        60           Au  tau(  60) = (  -0.1458030   0.6133014   0.6129980  )
        61           Au  tau(  61) = (  -0.0208339   0.3967936   0.6130188  )
        62           Au  tau(  62) = (   0.1041239   0.1803477   0.6130083  )
        63           Au  tau(  63) = (   0.2291046  -0.0361554   0.6129607  )
        64           Au  tau(  64) = (  -0.3957908   0.6132739   0.6129471  )
        65           Au  tau(  65) = (  -0.2708208   0.3967658   0.6129688  )
        66           Au  tau(  66) = (  -0.1458636   0.1803200   0.6129569  )
        67           Au  tau(  67) = (  -0.0208823  -0.0361826   0.6129110  )

     number of k points=    12  Marzari-Vanderbilt smearing, width (Ry)=  0.0200
                       cart. coord. in units 2pi/alat
        k(    1) = (   0.2500000   0.4330127   0.1111111), wk =   0.1666667
        k(    2) = (   0.2500000  -0.1443376   0.1111111), wk =   0.1666667
        k(    3) = (  -0.2500000  -0.4330127   0.1111111), wk =   0.1666667
        k(    4) = (  -0.2500000   0.4330127  -0.1111111), wk =   0.1666667
        k(    5) = (   0.2500000  -0.4330127  -0.1111111), wk =   0.1666667
        k(    6) = (   0.5000000   0.0000000   0.1111111), wk =   0.1666667
        k(    7) = (  -0.5000000   0.0000000   0.1111111), wk =   0.1666667
        k(    8) = (  -0.2500000   0.1443376   0.1111111), wk =   0.1666667
        k(    9) = (  -0.2500000  -0.1443376  -0.1111111), wk =   0.1666667
        k(   10) = (   0.2500000   0.1443376  -0.1111111), wk =   0.1666667
        k(   11) = (   0.0000000  -0.2886751   0.1111111), wk =   0.1666667
        k(   12) = (   0.0000000   0.2886751   0.1111111), wk =   0.1666667

     Dense  grid:  3097177 G-vectors     FFT dimensions: ( 150, 150, 360)

     Smooth grid:  1095093 G-vectors     FFT dimensions: ( 108, 108, 240)

     Largest allocated arrays     est. size (Mb)     dimensions
        Kohn-Sham Wavefunctions        28.01 Mb     (    4299,  427)
        NL pseudopotentials            55.23 Mb     (    4299,  842)
        Each V/rho on FFT grid          4.12 Mb     (  270000)
        Each G-vector array             0.74 Mb     (   96788)
        G-vector shells                 0.16 Mb     (   21404)
     Largest temporary arrays     est. size (Mb)     dimensions
        Auxiliary wavefunctions       112.04 Mb     (    4299, 1708)
        Each subspace H/S matrix       44.51 Mb     (    1708, 1708)
        Each <psi_i|beta_j> matrix      5.49 Mb     (     842,  427)
        Arrays for rho mixing          32.96 Mb     (  270000,    8)

     Initial potential from superposition of free atoms
     Check: negative starting charge=   -1.730263

     starting charge  711.25682, renormalised to  712.00000

     negative rho (up, down):  1.732E+00 0.000E+00


     ************************************************************************
     *
     * You are using vdW-DF for exchange-correlation in this calculation.
     * Please cite the following three references that made this development
     * possible:
     *
     *   M. Dion, H. Rydberg, E. Schroder, D. C. Langreth, and
     *   B. I. Lundqvist, Phys. Rev. Lett. 92, 246401 (2004).
     *
     *   T. Thonhauser, V. R. Cooper, S. Li, A. Puzder, P. Hyldgaard, and
     *   D. C. Langreth, Phys. Rev. B 76, 125112 (2007).
     *
     *   G. Roman-Perez and J. M. Soler, Phys. Rev. Lett. 103, 096102 (2009).
     *
     *
     * If you are using vdW-DF2, please also cite:
     *
     *   K. Lee, E. D. Murray, L. Kong, B. I. Lundqvist, and
     *   D. C. Langreth, Phys. Rev. B 82, 081101(R) (2010).
     *
     *
     * If you are calculating the stress with vdW-DF, please also cite:
     *
     *   R. Sabatini, E. Kucukbenli, B. Kolb, T. Thonhauser, and
     *   S. de Gironcoli, J. Phys.: Condens. Matter 24, 424209 (2012).
     *
     ************************************************************************

     Carrying out vdW-DF run using the following parameters:

     Nqs =      20    Nr_points =    1024   r_max =   100.000
     q_mesh =
               0.00001000     0.04494208     0.09755937     0.15916263
               0.23128650     0.31572767     0.41458969     0.53033537
               0.66584808     0.82450364     1.01025438     1.22772762
               1.48234092     1.78043706     2.12944203     2.53805004
               3.01644009     3.57652955     4.23227104     5.00000000

     Gradients computed in reciprocal space

     ************************************************************************


     Starting wfc are  582 randomized atomic wfcs

     total cpu time spent up to now is      207.4 secs

     Self-consistent Calculation

     iteration #  1     ecut=    50.00 Ry     beta=0.70
     Davidson diagonalization with overlap
     ethr =  1.00E-02,  avg # of iterations =  3.0

     Threshold (ethr) on eigenvalues was too large:
     Diagonalizing with lowered threshold

     Davidson diagonalization with overlap
     ethr =  3.57E-04,  avg # of iterations =  5.0

     negative rho (up, down):  1.728E+00 0.000E+00

     total cpu time spent up to now is      871.5 secs

     total energy              =   -6602.75105346 Ry
     Harris-Foulkes estimate   =   -6605.05128737 Ry
     estimated scf accuracy    <       2.87684791 Ry

     iteration #  2     ecut=    50.00 Ry     beta=0.70
     Davidson diagonalization with overlap
     ethr =  4.04E-04,  avg # of iterations = 11.3

     negative rho (up, down):  1.725E+00 0.000E+00

     total cpu time spent up to now is     1879.3 secs

     total energy              =   -6595.99281412 Ry
     Harris-Foulkes estimate   =   -6610.34194831 Ry
     estimated scf accuracy    <      82.49767162 Ry

     iteration #  3     ecut=    50.00 Ry     beta=0.70
     Davidson diagonalization with overlap
     ethr =  4.04E-04,  avg # of iterations =  6.0

     negative rho (up, down):  1.734E+00 0.000E+00

     total cpu time spent up to now is     2520.3 secs

     total energy              =   -6603.02123744 Ry
     Harris-Foulkes estimate   =   -6605.02466739 Ry
     estimated scf accuracy    <       9.56390612 Ry

     iteration #  4     ecut=    50.00 Ry     beta=0.70
     Davidson diagonalization with overlap
     ethr =  4.04E-04,  avg # of iterations =  6.3

     negative rho (up, down):  1.737E+00 0.000E+00

     total cpu time spent up to now is     2922.3 secs

     total energy              =   -6603.21601529 Ry
     Harris-Foulkes estimate   =   -6605.42542242 Ry
     estimated scf accuracy    <      23.06660460 Ry

     iteration #  5     ecut=    50.00 Ry     beta=0.70
     Davidson diagonalization with overlap
     ethr =  4.04E-04,  avg # of iterations =  6.1

     negative rho (up, down):  1.746E+00 0.000E+00

     total cpu time spent up to now is     3309.6 secs

     total energy              =   -6604.33910819 Ry
     Harris-Foulkes estimate   =   -6604.60075874 Ry
     estimated scf accuracy    <       1.55347902 Ry

     iteration #  6     ecut=    50.00 Ry     beta=0.70
     Davidson diagonalization with overlap
     ethr =  2.18E-04,  avg # of iterations =  2.9

     negative rho (up, down):  1.750E+00 0.000E+00

     total cpu time spent up to now is     3607.9 secs

     total energy              =   -6604.41218431 Ry
     Harris-Foulkes estimate   =   -6604.47244715 Ry
     estimated scf accuracy    <       0.18880247 Ry

     iteration #  7     ecut=    50.00 Ry     beta=0.70
     Davidson diagonalization with overlap
     ethr =  2.65E-05,  avg # of iterations = 11.0

     negative rho (up, down):  1.753E+00 0.000E+00

     total cpu time spent up to now is     4084.1 secs

     total energy              =   -6604.42635883 Ry
     Harris-Foulkes estimate   =   -6604.45353512 Ry
     estimated scf accuracy    <       0.11211124 Ry

     iteration #  8     ecut=    50.00 Ry     beta=0.70
     Davidson diagonalization with overlap
     c_bands:  1 eigenvalues not converged
     c_bands:  2 eigenvalues not converged
     ethr =  1.57E-05,  avg # of iterations =  8.6

     negative rho (up, down):  1.754E+00 0.000E+00

     total cpu time spent up to now is     4486.0 secs

     total energy              =   -6604.42893538 Ry
     Harris-Foulkes estimate   =   -6604.44357876 Ry
     estimated scf accuracy    <       0.05171404 Ry

     iteration #  9     ecut=    50.00 Ry     beta=0.70
     Davidson diagonalization with overlap
     ethr =  7.26E-06,  avg # of iterations = 11.7

     negative rho (up, down):  1.755E+00 0.000E+00

     total cpu time spent up to now is     4958.2 secs

     total energy              =   -6604.43075817 Ry
     Harris-Foulkes estimate   =   -6604.43676838 Ry
     estimated scf accuracy    <       0.01827644 Ry

     iteration # 10     ecut=    50.00 Ry     beta=0.70
     Davidson diagonalization with overlap
     ethr =  2.57E-06,  avg # of iterations =  7.7

     negative rho (up, down):  1.756E+00 0.000E+00

     total cpu time spent up to now is     5377.7 secs

     total energy              =   -6604.43183230 Ry
     Harris-Foulkes estimate   =   -6604.43375781 Ry
     estimated scf accuracy    <       0.00690498 Ry

     iteration # 11     ecut=    50.00 Ry     beta=0.70
     Davidson diagonalization with overlap
     ethr =  9.70E-07,  avg # of iterations =  7.3

     negative rho (up, down):  1.757E+00 0.000E+00

     total cpu time spent up to now is     5773.8 secs

     total energy              =   -6604.43215509 Ry
     Harris-Foulkes estimate   =   -6604.43293530 Ry
     estimated scf accuracy    <       0.00354913 Ry

     iteration # 12     ecut=    50.00 Ry     beta=0.70
     Davidson diagonalization with overlap
     ethr =  4.98E-07,  avg # of iterations =  3.6

     negative rho (up, down):  1.758E+00 0.000E+00

     total cpu time spent up to now is     6088.7 secs

     total energy              =   -6604.43212782 Ry
     Harris-Foulkes estimate   =   -6604.43252111 Ry
     estimated scf accuracy    <       0.00076014 Ry

     iteration # 13     ecut=    50.00 Ry     beta=0.70
     Davidson diagonalization with overlap
     ethr =  1.07E-07,  avg # of iterations = 11.1

     negative rho (up, down):  1.757E+00 0.000E+00

     total cpu time spent up to now is     6600.2 secs

     total energy              =   -6604.43221197 Ry
     Harris-Foulkes estimate   =   -6604.43234981 Ry
     estimated scf accuracy    <       0.00044013 Ry

     iteration # 14     ecut=    50.00 Ry     beta=0.70
     Davidson diagonalization with overlap
     ethr =  6.18E-08,  avg # of iterations =  2.0

     negative rho (up, down):  1.757E+00 0.000E+00

     total cpu time spent up to now is     6896.8 secs

     total energy              =   -6604.43226538 Ry
     Harris-Foulkes estimate   =   -6604.43231132 Ry
     estimated scf accuracy    <       0.00017275 Ry

     iteration # 15     ecut=    50.00 Ry     beta=0.70
     Davidson diagonalization with overlap
     ethr =  2.43E-08,  avg # of iterations =  2.0

     negative rho (up, down):  1.757E+00 0.000E+00

     total cpu time spent up to now is     7190.6 secs

     total energy              =   -6604.43227675 Ry
     Harris-Foulkes estimate   =   -6604.43230914 Ry
     estimated scf accuracy    <       0.00012498 Ry

     iteration # 16     ecut=    50.00 Ry     beta=0.70
     Davidson diagonalization with overlap
     ethr =  1.76E-08,  avg # of iterations =  2.0

     negative rho (up, down):  1.757E+00 0.000E+00

     total cpu time spent up to now is     7480.8 secs

     total energy              =   -6604.43228443 Ry
     Harris-Foulkes estimate   =   -6604.43230441 Ry
     estimated scf accuracy    <       0.00020084 Ry

     iteration # 17     ecut=    50.00 Ry     beta=0.70
     Davidson diagonalization with overlap
     ethr =  1.76E-08,  avg # of iterations =  1.0

     negative rho (up, down):  1.757E+00 0.000E+00

     total cpu time spent up to now is     7754.9 secs

     total energy              =   -6604.43229408 Ry
     Harris-Foulkes estimate   =   -6604.43229618 Ry
     estimated scf accuracy    <       0.00000810 Ry

     iteration # 18     ecut=    50.00 Ry     beta=0.70
     Davidson diagonalization with overlap
     ethr =  1.14E-09,  avg # of iterations =  2.0

     negative rho (up, down):  1.757E+00 0.000E+00

     total cpu time spent up to now is     8049.8 secs

     total energy              =   -6604.43229484 Ry
     Harris-Foulkes estimate   =   -6604.43229633 Ry
     estimated scf accuracy    <       0.00000693 Ry

     iteration # 19     ecut=    50.00 Ry     beta=0.70
     Davidson diagonalization with overlap
     ethr =  9.73E-10,  avg # of iterations =  2.0

     negative rho (up, down):  1.757E+00 0.000E+00

     total cpu time spent up to now is     8330.7 secs

     total energy              =   -6604.43229567 Ry
     Harris-Foulkes estimate   =   -6604.43229579 Ry
     estimated scf accuracy    <       0.00000065 Ry

     iteration # 20     ecut=    50.00 Ry     beta=0.70
     Davidson diagonalization with overlap
     ethr =  9.12E-11,  avg # of iterations =  2.0

     negative rho (up, down):  1.757E+00 0.000E+00

     total cpu time spent up to now is     8653.8 secs

     total energy              =   -6604.43229586 Ry
     Harris-Foulkes estimate   =   -6604.43229585 Ry
     estimated scf accuracy    <       0.00000022 Ry

     iteration # 21     ecut=    50.00 Ry     beta=0.70
     Davidson diagonalization with overlap
     ethr =  3.08E-11,  avg # of iterations =  2.0

     negative rho (up, down):  1.757E+00 0.000E+00

     total cpu time spent up to now is     8952.7 secs

     total energy              =   -6604.43229592 Ry
     Harris-Foulkes estimate   =   -6604.43229592 Ry
     estimated scf accuracy    <       0.00000018 Ry

     iteration # 22     ecut=    50.00 Ry     beta=0.70
     Davidson diagonalization with overlap
     ethr =  2.51E-11,  avg # of iterations =  2.0

     negative rho (up, down):  1.757E+00 0.000E+00

     total cpu time spent up to now is     9228.6 secs

     total energy              =   -6604.43229592 Ry
     Harris-Foulkes estimate   =   -6604.43229594 Ry
     estimated scf accuracy    <       0.00000002 Ry

     iteration # 23     ecut=    50.00 Ry     beta=0.70
     Davidson diagonalization with overlap
     ethr =  2.72E-12,  avg # of iterations =  3.0

     negative rho (up, down):  1.757E+00 0.000E+00

     total cpu time spent up to now is     9581.8 secs

     total energy              =   -6604.43229594 Ry
     Harris-Foulkes estimate   =   -6604.43229593 Ry
     estimated scf accuracy    <       0.00000002 Ry

     iteration # 24     ecut=    50.00 Ry     beta=0.70
     Davidson diagonalization with overlap
     ethr =  2.21E-12,  avg # of iterations =  2.0

     negative rho (up, down):  1.757E+00 0.000E+00

     total cpu time spent up to now is     9878.2 secs

     End of self-consistent calculation

          k = 0.2500 0.4330 0.1111 (136853 PWs)   bands (ev):

   -19.3439  -7.1466  -6.1936  -5.7947  -5.7937  -5.1194  -4.7832  -4.7822
    -4.7500  -4.7440  -4.3823  -4.3819  -4.2836  -4.2832  -4.2695  -4.2479
    -4.2350  -4.1162  -4.1154  -4.0916  -4.0486  -4.0481  -3.9882  -3.9791
    -3.9781  -3.9730  -3.9532  -3.9492  -3.9451  -3.9023  -3.8740  -3.8433
    -3.8425  -3.8306  -3.8303  -3.8084  -3.8071  -3.7847  -3.7779  -3.7762
    -3.7526  -3.7013  -3.6973  -3.6560  -3.6493  -3.6400  -3.5908  -3.5811
    -3.5355  -3.5350  -3.5349  -3.5214  -3.4990  -3.4614  -3.4576  -3.4540
    -3.4522  -3.4469  -3.4226  -3.4185  -3.4101  -3.3521  -3.3479  -3.3409
    -3.3240  -3.3180  -3.2461  -3.2392  -3.2133  -3.2092  -3.1845  -3.1819
    -3.1701  -3.1529  -3.0946  -3.0935  -3.0766  -3.0761  -3.0247  -3.0203
    -3.0159  -2.9809  -2.9501  -2.9495  -2.9410  -2.9387  -2.9280  -2.9258
    -2.9207  -2.9187  -2.9096  -2.8689  -2.8310  -2.8306  -2.8165  -2.8151
    -2.7901  -2.7811  -2.7791  -2.7593  -2.7139  -2.7118  -2.7042  -2.6651
    -2.6590  -2.6476  -2.6469  -2.6193  -2.6149  -2.5877  -2.5520  -2.5485
    -2.5291  -2.5212  -2.5082  -2.5049  -2.4576  -2.4550  -2.4233  -2.4016
    -2.4005  -2.3776  -2.3761  -2.3661  -2.3654  -2.3549  -2.3331  -2.3320
    -2.2875  -2.2869  -2.2863  -2.2695  -2.2692  -2.2631  -2.2549  -2.2530
    -2.2524  -2.2509  -2.2449  -2.2334  -2.2330  -2.2238  -2.1967  -2.1960
    -2.1952  -2.1942  -2.1926  -2.1908  -2.1849  -2.1615  -2.1596  -2.1460
    -2.1438  -2.1271  -2.1264  -2.1177  -2.1173  -2.1165  -2.1136  -2.0965
    -2.0957  -2.0949  -2.0863  -2.0758  -2.0506  -2.0499  -2.0092  -2.0087
    -1.9844  -1.9836  -1.9586  -1.9569  -1.9298  -1.9278  -1.9120  -1.9070
    -1.8797  -1.8607  -1.8564  -1.8560  -1.8512  -1.8478  -1.8437  -1.8406
    -1.8135  -1.8079  -1.7981  -1.7421  -1.7401  -1.7371  -1.7347  -1.7278
    -1.6980  -1.6777  -1.6775  -1.6539  -1.6501  -1.5908  -1.5899  -1.5634
    -1.5551  -1.5410  -1.4903  -1.4801  -1.4729  -1.4676  -1.4581  -1.4572
    -1.4541  -1.4476  -1.4432  -1.4352  -1.3867  -1.3827  -1.3764  -1.3751
    -1.3614  -1.3564  -1.3472  -1.3212  -1.3164  -1.3034  -1.3030  -1.2990
    -1.2954  -1.2879  -1.2817  -1.2746  -1.2614  -1.2587  -1.2200  -1.2153
    -1.2091  -1.2020  -1.1857  -1.1730  -1.1303  -1.1281  -1.1047  -1.1007
    -1.0960  -1.0698  -1.0197  -1.0184  -1.0174  -1.0141  -1.0097  -1.0076
    -0.9969  -0.9828  -0.9799  -0.9425  -0.9406  -0.9121  -0.9109  -0.9053
    -0.9042  -0.8984  -0.8820  -0.8815  -0.8802  -0.8780  -0.8755  -0.8409
    -0.8378  -0.8358  -0.8327  -0.8064  -0.8037  -0.8019  -0.7760  -0.7695
    -0.7678  -0.7234  -0.7181  -0.7134  -0.6817  -0.6732  -0.6626  -0.6622
    -0.6555  -0.6544  -0.6526  -0.6501  -0.6393  -0.6374  -0.6146  -0.6142
    -0.6104  -0.6090  -0.6076  -0.5716  -0.5712  -0.5604  -0.5570  -0.5434
    -0.5374  -0.5322  -0.5254  -0.4697  -0.4685  -0.4595  -0.4589  -0.4569
    -0.4557  -0.4499  -0.4329  -0.4314  -0.4239  -0.4232  -0.4208  -0.4182
    -0.3821  -0.3796  -0.3791  -0.3714  -0.3704  -0.3654  -0.3641  -0.3497
    -0.3477  -0.3440  -0.3401  -0.3022  -0.3015  -0.2936  -0.2897  -0.2890
    -0.2124  -0.2118  -0.2095  -0.2088  -0.1999  -0.1980  -0.1632  -0.1508
    -0.1502  -0.1234  -0.1181  -0.1106   0.0018   0.0071   0.1063   0.5211
     0.5214   0.5239   0.5252   0.5857   0.5925   0.9737   0.9752   1.0156
     1.0190   1.1270   1.2075   1.3128   1.3252   1.5322   1.5534   2.1717
     2.1736   2.3304   2.3384   2.4645   2.4717   2.5700   2.5708   2.7244
     2.9563   2.9638   3.0853   3.3050   3.3155   3.3924   3.3953   3.4936
     3.5095   3.6908   3.6950   3.7656   3.9664   3.9670   4.0279   4.0310
     4.2855   4.2902   4.2978   4.5353   4.5762   4.5817   4.6227   4.9577
     4.9583   4.9892   5.0486   5.1236   5.2965   5.2980   5.3431   5.3921
     5.7023   5.9342   6.0717   6.0830   6.0893   6.0950   6.1576   6.1588
     6.2137   6.2659   6.2909   6.3140   6.3166   6.3280   6.3339   6.3708
     6.3798   6.4132   6.5077   6.5861   6.7026   6.7674   6.9173   6.9916
     7.0208   7.0337   7.0381

          k = 0.2500-0.1443 0.1111 (136898 PWs)   bands (ev):

   -19.3439  -7.1466  -6.4035  -5.6115  -5.3232  -5.2614  -5.2608  -4.7228
    -4.7223  -4.5949  -4.5903  -4.4395  -4.4114  -4.3427  -4.3161  -4.3099
    -4.2757  -4.2754  -4.1472  -4.1058  -4.1053  -4.0467  -4.0290  -4.0246
    -3.9219  -3.9217  -3.8892  -3.8853  -3.8852  -3.8655  -3.8372  -3.8366
    -3.7792  -3.7298  -3.7297  -3.7137  -3.6983  -3.6920  -3.6909  -3.6802
    -3.6699  -3.6519  -3.6365  -3.6359  -3.6357  -3.6208  -3.6041  -3.5924
    -3.5854  -3.5849  -3.5672  -3.5292  -3.5250  -3.4954  -3.4833  -3.4770
    -3.4769  -3.4502  -3.4024  -3.4018  -3.3677  -3.3654  -3.3474  -3.2969
    -3.2966  -3.2817  -3.2807  -3.2512  -3.2501  -3.2499  -3.2471  -3.0962
    -3.0956  -3.0715  -3.0692  -3.0623  -3.0493  -3.0470  -3.0236  -3.0217
    -2.9734  -2.9715  -2.9571  -2.9556  -2.9360  -2.8887  -2.8881  -2.8681
    -2.8637  -2.8634  -2.8228  -2.8218  -2.8155  -2.8129  -2.7996  -2.7978
    -2.7598  -2.7596  -2.7382  -2.7362  -2.7346  -2.7335  -2.7288  -2.6548
    -2.6531  -2.6509  -2.6237  -2.6225  -2.5626  -2.5593  -2.5332  -2.5311
    -2.5194  -2.5190  -2.5125  -2.4840  -2.4822  -2.4736  -2.4562  -2.4322
    -2.4315  -2.4288  -2.4103  -2.4083  -2.3990  -2.3981  -2.3963  -2.3942
    -2.3860  -2.3400  -2.3085  -2.3076  -2.2924  -2.2789  -2.2723  -2.2717
    -2.2650  -2.2646  -2.2624  -2.2336  -2.2331  -2.2305  -2.2234  -2.2228
    -2.2060  -2.1790  -2.1780  -2.1778  -2.1771  -2.1752  -2.1304  -2.1004
    -2.0995  -2.0982  -2.0927  -2.0828  -2.0717  -2.0675  -2.0533  -2.0532
    -2.0214  -2.0189  -2.0184  -2.0002  -2.0000  -1.9962  -1.9668  -1.9628
    -1.9254  -1.9225  -1.9175  -1.9146  -1.9144  -1.9083  -1.9077  -1.9061
    -1.9051  -1.9001  -1.8972  -1.8825  -1.8759  -1.7564  -1.7537  -1.7275
    -1.7173  -1.7141  -1.7092  -1.7073  -1.6963  -1.6920  -1.6913  -1.6895
    -1.6847  -1.6635  -1.6600  -1.6578  -1.6491  -1.6441  -1.6404  -1.6216
    -1.6179  -1.5940  -1.5915  -1.5624  -1.5592  -1.5496  -1.5409  -1.5271
    -1.5235  -1.5201  -1.5024  -1.4896  -1.4886  -1.4823  -1.4805  -1.4720
    -1.4556  -1.4438  -1.4387  -1.4318  -1.4063  -1.3983  -1.3884  -1.3459
    -1.3438  -1.3333  -1.3271  -1.3094  -1.3056  -1.3019  -1.2710  -1.2699
    -1.2627  -1.2317  -1.2270  -1.2190  -1.2096  -1.2076  -1.1830  -1.1821
    -1.1727  -1.1512  -1.1491  -1.1452  -1.0864  -1.0854  -1.0745  -1.0705
    -1.0568  -1.0553  -1.0441  -1.0425  -1.0255  -1.0129  -0.9852  -0.9837
    -0.9718  -0.9434  -0.9361  -0.9310  -0.9230  -0.9228  -0.9199  -0.9173
    -0.9064  -0.9014  -0.8724  -0.8702  -0.8628  -0.8605  -0.8578  -0.8488
    -0.8353  -0.8187  -0.8084  -0.7965  -0.7856  -0.7021  -0.6889  -0.6836
    -0.6829  -0.6783  -0.6745  -0.6713  -0.6486  -0.6433  -0.6344  -0.6298
    -0.6180  -0.6160  -0.6091  -0.5898  -0.5870  -0.5820  -0.5781  -0.5054
    -0.5052  -0.4734  -0.4673  -0.4670  -0.4619  -0.4584  -0.4576  -0.4561
    -0.4459  -0.4438  -0.4243  -0.4033  -0.3879  -0.3704  -0.3687  -0.3592
    -0.3570  -0.3462  -0.3449  -0.3442  -0.3429  -0.3404  -0.3254  -0.3212
    -0.3194  -0.2903  -0.2887  -0.2876  -0.2758  -0.2755  -0.2563  -0.2249
    -0.2239  -0.2155  -0.2129  -0.1475  -0.1466  -0.1102  -0.1101  -0.0521
    -0.0514  -0.0507  -0.0340  -0.0231   0.1973   0.2138   0.5495   0.5497
     0.6354   0.6509   0.8319   0.8587   0.8709   0.9956   1.0021   1.4299
     1.4301   1.4484   1.7068   1.7393   1.7416   2.0086   2.0256   2.0947
     2.0969   2.1176   2.1353   2.3507   2.3544   2.4406   2.4417   2.5058
     2.5721   2.5945   2.7460   2.8443   3.2805   3.2816   3.2832   3.2935
     3.3385   3.3468   3.6331   3.6356   3.9085   3.9211   4.0043   4.3300
     4.3672   4.3760   4.5653   4.5735   4.6712   4.6729   4.7640   4.8816
     4.8821   4.9976   5.0020   5.0526   5.3032   5.3690   5.3720   5.5058
     5.5441   5.7570   5.7586   5.7753   5.7867   5.7906   5.8456   5.8478
     5.9068   6.0252   6.1920   6.2674   6.4508   6.4601   6.5903   6.5917
     6.6008   6.6061   6.6260   6.7480   6.8117   6.8433   6.8528   6.9871
     7.0280   7.0504   7.0755

          k =-0.2500-0.4330 0.1111 (136853 PWs)   bands (ev):

   -19.3439  -7.1466  -6.1936  -5.7947  -5.7937  -5.1194  -4.7832  -4.7822
    -4.7500  -4.7440  -4.3823  -4.3819  -4.2836  -4.2832  -4.2695  -4.2479
    -4.2350  -4.1162  -4.1154  -4.0916  -4.0486  -4.0481  -3.9882  -3.9791
    -3.9781  -3.9730  -3.9532  -3.9492  -3.9451  -3.9023  -3.8740  -3.8433
    -3.8425  -3.8306  -3.8303  -3.8084  -3.8071  -3.7847  -3.7779  -3.7762
    -3.7526  -3.7013  -3.6973  -3.6560  -3.6493  -3.6400  -3.5908  -3.5811
    -3.5355  -3.5350  -3.5349  -3.5214  -3.4990  -3.4614  -3.4576  -3.4540
    -3.4522  -3.4469  -3.4226  -3.4185  -3.4101  -3.3521  -3.3479  -3.3409
    -3.3240  -3.3180  -3.2461  -3.2392  -3.2133  -3.2092  -3.1845  -3.1819
    -3.1701  -3.1529  -3.0946  -3.0935  -3.0766  -3.0761  -3.0247  -3.0203
    -3.0159  -2.9809  -2.9501  -2.9495  -2.9410  -2.9387  -2.9280  -2.9258
    -2.9207  -2.9187  -2.9096  -2.8689  -2.8310  -2.8306  -2.8165  -2.8151
    -2.7901  -2.7811  -2.7791  -2.7593  -2.7139  -2.7118  -2.7042  -2.6651
    -2.6590  -2.6476  -2.6469  -2.6193  -2.6149  -2.5877  -2.5520  -2.5485
    -2.5291  -2.5212  -2.5082  -2.5049  -2.4576  -2.4550  -2.4233  -2.4016
    -2.4005  -2.3776  -2.3761  -2.3661  -2.3654  -2.3549  -2.3331  -2.3320
    -2.2875  -2.2869  -2.2863  -2.2695  -2.2692  -2.2631  -2.2549  -2.2530
    -2.2524  -2.2509  -2.2449  -2.2334  -2.2330  -2.2238  -2.1967  -2.1960
    -2.1952  -2.1942  -2.1926  -2.1908  -2.1849  -2.1615  -2.1596  -2.1460
    -2.1438  -2.1271  -2.1264  -2.1177  -2.1173  -2.1165  -2.1136  -2.0965
    -2.0957  -2.0949  -2.0863  -2.0758  -2.0506  -2.0499  -2.0092  -2.0087
    -1.9844  -1.9836  -1.9586  -1.9569  -1.9298  -1.9278  -1.9120  -1.9070
    -1.8797  -1.8607  -1.8564  -1.8560  -1.8512  -1.8478  -1.8437  -1.8406
    -1.8135  -1.8079  -1.7981  -1.7421  -1.7401  -1.7371  -1.7347  -1.7278
    -1.6980  -1.6777  -1.6775  -1.6539  -1.6501  -1.5908  -1.5899  -1.5634
    -1.5551  -1.5410  -1.4903  -1.4801  -1.4729  -1.4676  -1.4581  -1.4572
    -1.4541  -1.4476  -1.4432  -1.4352  -1.3867  -1.3827  -1.3764  -1.3751
    -1.3614  -1.3564  -1.3472  -1.3212  -1.3164  -1.3034  -1.3030  -1.2990
    -1.2954  -1.2879  -1.2817  -1.2746  -1.2614  -1.2587  -1.2200  -1.2153
    -1.2091  -1.2020  -1.1857  -1.1730  -1.1303  -1.1281  -1.1047  -1.1007
    -1.0960  -1.0698  -1.0197  -1.0184  -1.0174  -1.0141  -1.0097  -1.0076
    -0.9969  -0.9828  -0.9799  -0.9425  -0.9406  -0.9121  -0.9109  -0.9053
    -0.9042  -0.8984  -0.8821  -0.8815  -0.8802  -0.8780  -0.8755  -0.8409
    -0.8378  -0.8358  -0.8327  -0.8064  -0.8037  -0.8019  -0.7760  -0.7695
    -0.7678  -0.7234  -0.7181  -0.7134  -0.6817  -0.6732  -0.6626  -0.6622
    -0.6555  -0.6544  -0.6526  -0.6501  -0.6393  -0.6374  -0.6146  -0.6142
    -0.6104  -0.6090  -0.6076  -0.5716  -0.5712  -0.5604  -0.5570  -0.5434
    -0.5374  -0.5322  -0.5254  -0.4697  -0.4685  -0.4595  -0.4589  -0.4569
    -0.4557  -0.4499  -0.4329  -0.4314  -0.4239  -0.4232  -0.4208  -0.4182
    -0.3821  -0.3796  -0.3790  -0.3714  -0.3704  -0.3654  -0.3641  -0.3497
    -0.3477  -0.3440  -0.3401  -0.3022  -0.3015  -0.2936  -0.2897  -0.2890
    -0.2124  -0.2118  -0.2095  -0.2088  -0.1999  -0.1980  -0.1632  -0.1508
    -0.1502  -0.1234  -0.1181  -0.1106   0.0018   0.0071   0.1063   0.5211
     0.5214   0.5239   0.5252   0.5857   0.5925   0.9737   0.9752   1.0156
     1.0190   1.1270   1.2075   1.3128   1.3252   1.5322   1.5534   2.1717
     2.1736   2.3304   2.3384   2.4645   2.4717   2.5700   2.5708   2.7244
     2.9563   2.9638   3.0853   3.3050   3.3155   3.3924   3.3953   3.4936
     3.5095   3.6908   3.6950   3.7656   3.9664   3.9670   4.0279   4.0310
     4.2855   4.2902   4.2978   4.5353   4.5762   4.5817   4.6227   4.9577
     4.9583   4.9892   5.0486   5.1236   5.2965   5.2980   5.3431   5.3921
     5.7022   5.9343   6.0723   6.0829   6.0894   6.0948   6.1577   6.1587
     6.2136   6.2659   6.2908   6.3140   6.3165   6.3280   6.3339   6.3707
     6.3797   6.4130   6.5077   6.5847   6.7042   6.7671   6.9194   6.9909
     7.0208   7.0335   7.0382

          k =-0.2500 0.4330-0.1111 (136853 PWs)   bands (ev):

   -19.3439  -7.1466  -6.1936  -5.7958  -5.7926  -5.1195  -4.7837  -4.7817
    -4.7507  -4.7433  -4.3828  -4.3813  -4.2838  -4.2830  -4.2694  -4.2479
    -4.2351  -4.1164  -4.1153  -4.0916  -4.0487  -4.0481  -3.9880  -3.9790
    -3.9784  -3.9727  -3.9533  -3.9491  -3.9453  -3.9023  -3.8738  -3.8438
    -3.8416  -3.8309  -3.8299  -3.8084  -3.8070  -3.7847  -3.7780  -3.7762
    -3.7528  -3.7016  -3.6971  -3.6557  -3.6502  -3.6393  -3.5910  -3.5809
    -3.5357  -3.5350  -3.5348  -3.5220  -3.4992  -3.4617  -3.4576  -3.4538
    -3.4521  -3.4472  -3.4232  -3.4177  -3.4099  -3.3521  -3.3479  -3.3407
    -3.3240  -3.3177  -3.2464  -3.2388  -3.2137  -3.2083  -3.1843  -3.1820
    -3.1701  -3.1534  -3.0949  -3.0938  -3.0763  -3.0759  -3.0246  -3.0205
    -3.0159  -2.9809  -2.9508  -2.9488  -2.9404  -2.9388  -2.9280  -2.9258
    -2.9205  -2.9189  -2.9099  -2.8689  -2.8314  -2.8304  -2.8163  -2.8151
    -2.7902  -2.7808  -2.7794  -2.7593  -2.7136  -2.7121  -2.7042  -2.6650
    -2.6590  -2.6478  -2.6464  -2.6194  -2.6148  -2.5878  -2.5522  -2.5483
    -2.5291  -2.5213  -2.5085  -2.5049  -2.4574  -2.4551  -2.4232  -2.4021
    -2.4004  -2.3783  -2.3759  -2.3659  -2.3650  -2.3549  -2.3335  -2.3317
    -2.2880  -2.2866  -2.2862  -2.2700  -2.2687  -2.2632  -2.2547  -2.2529
    -2.2522  -2.2515  -2.2448  -2.2337  -2.2323  -2.2251  -2.1971  -2.1962
    -2.1950  -2.1945  -2.1926  -2.1910  -2.1844  -2.1618  -2.1595  -2.1461
    -2.1434  -2.1271  -2.1264  -2.1176  -2.1170  -2.1159  -2.1137  -2.0964
    -2.0959  -2.0955  -2.0859  -2.0762  -2.0512  -2.0499  -2.0098  -2.0083
    -1.9843  -1.9838  -1.9591  -1.9561  -1.9299  -1.9268  -1.9120  -1.9067
    -1.8795  -1.8606  -1.8564  -1.8533  -1.8495  -1.8472  -1.8417  -1.8394
    -1.8135  -1.8076  -1.7982  -1.7468  -1.7414  -1.7386  -1.7349  -1.7283
    -1.6989  -1.6785  -1.6767  -1.6571  -1.6505  -1.5904  -1.5895  -1.5688
    -1.5435  -1.5414  -1.4844  -1.4798  -1.4757  -1.4684  -1.4608  -1.4568
    -1.4556  -1.4482  -1.4447  -1.4342  -1.3909  -1.3817  -1.3766  -1.3747
    -1.3623  -1.3548  -1.3507  -1.3206  -1.3133  -1.3038  -1.3025  -1.3014
    -1.2953  -1.2878  -1.2818  -1.2683  -1.2614  -1.2587  -1.2217  -1.2156
    -1.2096  -1.1986  -1.1833  -1.1732  -1.1309  -1.1287  -1.1046  -1.1007
    -1.0961  -1.0703  -1.0202  -1.0182  -1.0166  -1.0145  -1.0117  -1.0088
    -1.0010  -0.9816  -0.9806  -0.9424  -0.9412  -0.9124  -0.9099  -0.9060
    -0.9033  -0.8983  -0.8824  -0.8811  -0.8782  -0.8774  -0.8743  -0.8434
    -0.8379  -0.8366  -0.8306  -0.8076  -0.8060  -0.8005  -0.7760  -0.7711
    -0.7669  -0.7235  -0.7188  -0.7084  -0.6808  -0.6723  -0.6626  -0.6621
    -0.6559  -0.6541  -0.6519  -0.6487  -0.6408  -0.6366  -0.6150  -0.6140
    -0.6105  -0.6086  -0.6080  -0.5715  -0.5709  -0.5637  -0.5553  -0.5418
    -0.5386  -0.5318  -0.5249  -0.4697  -0.4682  -0.4596  -0.4587  -0.4579
    -0.4553  -0.4526  -0.4334  -0.4308  -0.4241  -0.4226  -0.4222  -0.4171
    -0.3819  -0.3801  -0.3789  -0.3718  -0.3693  -0.3642  -0.3620  -0.3502
    -0.3475  -0.3445  -0.3432  -0.3028  -0.3005  -0.2939  -0.2902  -0.2876
    -0.2123  -0.2119  -0.2095  -0.2083  -0.2001  -0.1994  -0.1634  -0.1511
    -0.1502  -0.1260  -0.1184  -0.1078   0.0009   0.0084   0.1067   0.5210
     0.5217   0.5237   0.5253   0.5802   0.5950   0.9723   0.9757   1.0149
     1.0201   1.1288   1.2089   1.3112   1.3301   1.5279   1.5560   2.1678
     2.1756   2.3273   2.3431   2.4583   2.4752   2.5696   2.5711   2.7242
     2.9542   2.9670   3.0854   3.3030   3.3178   3.3919   3.3967   3.4940
     3.5098   3.6834   3.7004   3.7675   3.9666   3.9668   4.0256   4.0335
     4.2846   4.2878   4.3016   4.5360   4.5750   4.5813   4.6231   4.9567
     4.9606   4.9867   5.0631   5.1208   5.2963   5.2988   5.3241   5.3801
     5.7771   5.8608   6.0814   6.0852   6.0892   6.1116   6.1561   6.1608
     6.2168   6.2642   6.2926   6.3121   6.3197   6.3218   6.3406   6.3754
     6.3788   6.4205   6.4347   6.6107   6.6924   6.7637   6.9400   6.9772
     7.0217   7.0297   7.0390

          k = 0.2500-0.4330-0.1111 (136853 PWs)   bands (ev):

   -19.3439  -7.1466  -6.1936  -5.7958  -5.7926  -5.1195  -4.7837  -4.7817
    -4.7507  -4.7433  -4.3828  -4.3813  -4.2838  -4.2830  -4.2694  -4.2479
    -4.2351  -4.1164  -4.1153  -4.0916  -4.0487  -4.0481  -3.9880  -3.9790
    -3.9784  -3.9727  -3.9533  -3.9491  -3.9453  -3.9023  -3.8738  -3.8438
    -3.8416  -3.8309  -3.8299  -3.8084  -3.8070  -3.7847  -3.7780  -3.7762
    -3.7528  -3.7016  -3.6971  -3.6557  -3.6502  -3.6393  -3.5910  -3.5809
    -3.5357  -3.5350  -3.5348  -3.5220  -3.4992  -3.4617  -3.4576  -3.4538
    -3.4521  -3.4472  -3.4232  -3.4177  -3.4099  -3.3521  -3.3479  -3.3407
    -3.3240  -3.3177  -3.2464  -3.2388  -3.2137  -3.2083  -3.1843  -3.1820
    -3.1701  -3.1534  -3.0949  -3.0938  -3.0763  -3.0759  -3.0246  -3.0205
    -3.0159  -2.9809  -2.9508  -2.9488  -2.9404  -2.9388  -2.9280  -2.9258
    -2.9205  -2.9189  -2.9099  -2.8689  -2.8314  -2.8304  -2.8163  -2.8151
    -2.7902  -2.7808  -2.7794  -2.7593  -2.7136  -2.7121  -2.7042  -2.6650
    -2.6590  -2.6478  -2.6464  -2.6194  -2.6148  -2.5878  -2.5522  -2.5483
    -2.5291  -2.5213  -2.5085  -2.5049  -2.4574  -2.4551  -2.4232  -2.4021
    -2.4004  -2.3783  -2.3759  -2.3659  -2.3650  -2.3549  -2.3335  -2.3317
    -2.2880  -2.2866  -2.2862  -2.2700  -2.2687  -2.2632  -2.2547  -2.2529
    -2.2522  -2.2515  -2.2448  -2.2337  -2.2323  -2.2251  -2.1971  -2.1962
    -2.1950  -2.1945  -2.1926  -2.1910  -2.1844  -2.1618  -2.1595  -2.1461
    -2.1434  -2.1271  -2.1264  -2.1176  -2.1170  -2.1159  -2.1137  -2.0964
    -2.0959  -2.0955  -2.0859  -2.0762  -2.0512  -2.0499  -2.0098  -2.0083
    -1.9843  -1.9838  -1.9591  -1.9561  -1.9299  -1.9268  -1.9120  -1.9067
    -1.8795  -1.8606  -1.8564  -1.8533  -1.8495  -1.8472  -1.8417  -1.8394
    -1.8135  -1.8076  -1.7982  -1.7468  -1.7414  -1.7386  -1.7349  -1.7283
    -1.6989  -1.6785  -1.6767  -1.6570  -1.6505  -1.5904  -1.5895  -1.5688
    -1.5435  -1.5414  -1.4844  -1.4798  -1.4757  -1.4684  -1.4608  -1.4568
    -1.4556  -1.4482  -1.4447  -1.4342  -1.3909  -1.3817  -1.3766  -1.3747
    -1.3623  -1.3548  -1.3507  -1.3206  -1.3133  -1.3038  -1.3025  -1.3014
    -1.2953  -1.2878  -1.2818  -1.2683  -1.2614  -1.2587  -1.2217  -1.2156
    -1.2096  -1.1986  -1.1833  -1.1732  -1.1309  -1.1287  -1.1046  -1.1007
    -1.0961  -1.0703  -1.0202  -1.0182  -1.0166  -1.0145  -1.0117  -1.0088
    -1.0010  -0.9816  -0.9806  -0.9424  -0.9412  -0.9124  -0.9099  -0.9060
    -0.9033  -0.8983  -0.8824  -0.8811  -0.8782  -0.8774  -0.8743  -0.8434
    -0.8379  -0.8366  -0.8306  -0.8076  -0.8060  -0.8005  -0.7760  -0.7711
    -0.7669  -0.7235  -0.7188  -0.7084  -0.6808  -0.6723  -0.6626  -0.6621
    -0.6559  -0.6541  -0.6519  -0.6487  -0.6408  -0.6366  -0.6150  -0.6140
    -0.6105  -0.6086  -0.6080  -0.5715  -0.5709  -0.5637  -0.5553  -0.5418
    -0.5386  -0.5318  -0.5249  -0.4697  -0.4682  -0.4596  -0.4587  -0.4579
    -0.4553  -0.4526  -0.4334  -0.4308  -0.4241  -0.4226  -0.4222  -0.4171
    -0.3819  -0.3801  -0.3789  -0.3718  -0.3693  -0.3642  -0.3620  -0.3502
    -0.3475  -0.3445  -0.3432  -0.3028  -0.3005  -0.2939  -0.2902  -0.2876
    -0.2123  -0.2119  -0.2095  -0.2083  -0.2001  -0.1994  -0.1634  -0.1511
    -0.1502  -0.1260  -0.1184  -0.1078   0.0009   0.0084   0.1067   0.5210
     0.5217   0.5237   0.5253   0.5802   0.5950   0.9723   0.9757   1.0149
     1.0201   1.1288   1.2089   1.3112   1.3301   1.5279   1.5560   2.1678
     2.1756   2.3273   2.3431   2.4583   2.4752   2.5696   2.5711   2.7242
     2.9542   2.9670   3.0854   3.3030   3.3178   3.3919   3.3967   3.4940
     3.5098   3.6834   3.7004   3.7675   3.9666   3.9668   4.0256   4.0335
     4.2846   4.2878   4.3016   4.5360   4.5750   4.5813   4.6231   4.9567
     4.9606   4.9867   5.0631   5.1208   5.2963   5.2988   5.3241   5.3801
     5.7771   5.8607   6.0814   6.0852   6.0893   6.1115   6.1561   6.1609
     6.2168   6.2643   6.2926   6.3120   6.3198   6.3217   6.3407   6.3753
     6.3788   6.4198   6.4357   6.6109   6.6920   6.7638   6.9401   6.9770
     7.0217   7.0296   7.0390

          k = 0.5000 0.0000 0.1111 (136853 PWs)   bands (ev):

   -19.3439  -7.1466  -6.1936  -5.7958  -5.7927  -5.1195  -4.7841  -4.7814
    -4.7503  -4.7437  -4.3827  -4.3814  -4.2836  -4.2832  -4.2694  -4.2479
    -4.2351  -4.1161  -4.1157  -4.0916  -4.0486  -4.0482  -3.9883  -3.9789
    -3.9787  -3.9724  -3.9530  -3.9485  -3.9463  -3.9012  -3.8747  -3.8435
    -3.8419  -3.8307  -3.8301  -3.8084  -3.8070  -3.7847  -3.7780  -3.7761
    -3.7528  -3.7014  -3.6972  -3.6558  -3.6499  -3.6396  -3.5908  -3.5811
    -3.5353  -3.5350  -3.5349  -3.5216  -3.4992  -3.4615  -3.4578  -3.4539
    -3.4521  -3.4473  -3.4227  -3.4187  -3.4097  -3.3522  -3.3479  -3.3407
    -3.3239  -3.3177  -3.2460  -3.2392  -3.2130  -3.2093  -3.1846  -3.1816
    -3.1701  -3.1532  -3.0950  -3.0935  -3.0764  -3.0758  -3.0246  -3.0204
    -3.0160  -2.9808  -2.9505  -2.9491  -2.9406  -2.9389  -2.9280  -2.9258
    -2.9207  -2.9186  -2.9098  -2.8688  -2.8315  -2.8303  -2.8163  -2.8151
    -2.7902  -2.7812  -2.7790  -2.7593  -2.7138  -2.7120  -2.7044  -2.6651
    -2.6590  -2.6474  -2.6467  -2.6193  -2.6152  -2.5878  -2.5516  -2.5485
    -2.5292  -2.5213  -2.5083  -2.5051  -2.4579  -2.4547  -2.4232  -2.4018
    -2.4006  -2.3780  -2.3761  -2.3661  -2.3650  -2.3549  -2.3330  -2.3322
    -2.2877  -2.2864  -2.2863  -2.2699  -2.2687  -2.2632  -2.2547  -2.2534
    -2.2523  -2.2508  -2.2449  -2.2336  -2.2325  -2.2243  -2.1969  -2.1959
    -2.1948  -2.1944  -2.1925  -2.1911  -2.1847  -2.1618  -2.1597  -2.1459
    -2.1437  -2.1272  -2.1264  -2.1175  -2.1171  -2.1166  -2.1136  -2.0964
    -2.0959  -2.0952  -2.0860  -2.0759  -2.0508  -2.0502  -2.0098  -2.0081
    -1.9848  -1.9834  -1.9588  -1.9564  -1.9299  -1.9272  -1.9121  -1.9068
    -1.8797  -1.8604  -1.8561  -1.8551  -1.8506  -1.8477  -1.8431  -1.8407
    -1.8136  -1.8075  -1.7980  -1.7426  -1.7415  -1.7378  -1.7352  -1.7276
    -1.6983  -1.6785  -1.6766  -1.6551  -1.6503  -1.5908  -1.5894  -1.5662
    -1.5503  -1.5410  -1.4887  -1.4801  -1.4736  -1.4677  -1.4587  -1.4571
    -1.4549  -1.4481  -1.4440  -1.4344  -1.3879  -1.3823  -1.3764  -1.3751
    -1.3614  -1.3560  -1.3486  -1.3208  -1.3153  -1.3036  -1.3028  -1.3000
    -1.2952  -1.2881  -1.2813  -1.2729  -1.2614  -1.2588  -1.2205  -1.2154
    -1.2091  -1.2006  -1.1849  -1.1731  -1.1304  -1.1284  -1.1048  -1.1007
    -1.0961  -1.0701  -1.0201  -1.0185  -1.0172  -1.0142  -1.0102  -1.0080
    -0.9987  -0.9826  -0.9798  -0.9427  -0.9406  -0.9123  -0.9105  -0.9059
    -0.9035  -0.8982  -0.8822  -0.8812  -0.8795  -0.8777  -0.8753  -0.8415
    -0.8378  -0.8361  -0.8320  -0.8067  -0.8047  -0.8012  -0.7763  -0.7699
    -0.7675  -0.7234  -0.7183  -0.7115  -0.6815  -0.6728  -0.6629  -0.6618
    -0.6557  -0.6543  -0.6520  -0.6499  -0.6398  -0.6371  -0.6145  -0.6143
    -0.6105  -0.6090  -0.6077  -0.5716  -0.5709  -0.5616  -0.5565  -0.5428
    -0.5377  -0.5322  -0.5251  -0.4696  -0.4684  -0.4597  -0.4588  -0.4572
    -0.4556  -0.4508  -0.4329  -0.4313  -0.4240  -0.4230  -0.4212  -0.4178
    -0.3821  -0.3796  -0.3791  -0.3715  -0.3700  -0.3645  -0.3640  -0.3499
    -0.3477  -0.3442  -0.3411  -0.3022  -0.3013  -0.2938  -0.2898  -0.2886
    -0.2124  -0.2119  -0.2095  -0.2087  -0.1999  -0.1984  -0.1633  -0.1509
    -0.1501  -0.1243  -0.1183  -0.1096   0.0015   0.0076   0.1065   0.5211
     0.5216   0.5235   0.5254   0.5839   0.5932   0.9732   0.9755   1.0158
     1.0189   1.1276   1.2080   1.3124   1.3268   1.5307   1.5543   2.1707
     2.1739   2.3298   2.3395   2.4626   2.4727   2.5696   2.5711   2.7242
     2.9558   2.9649   3.0853   3.3044   3.3162   3.3922   3.3957   3.4937
     3.5096   3.6880   3.6971   3.7663   3.9665   3.9670   4.0281   4.0309
     4.2852   4.2894   4.2986   4.5358   4.5751   4.5818   4.6227   4.9572
     4.9597   4.9879   5.0540   5.1224   5.2968   5.2980   5.3368   5.3873
     5.7246   5.9119   6.0775   6.0839   6.0887   6.1000   6.1572   6.1596
     6.2146   6.2654   6.2915   6.3146   6.3168   6.3247   6.3367   6.3715
     6.3788   6.4148   6.4846   6.5989   6.7098   6.7454   6.9287   6.9865
     7.0213   7.0316   7.0382

          k =-0.5000 0.0000 0.1111 (136853 PWs)   bands (ev):

   -19.3439  -7.1466  -6.1936  -5.7958  -5.7927  -5.1195  -4.7841  -4.7814
    -4.7503  -4.7437  -4.3827  -4.3814  -4.2836  -4.2832  -4.2694  -4.2479
    -4.2351  -4.1161  -4.1157  -4.0916  -4.0486  -4.0482  -3.9883  -3.9789
    -3.9787  -3.9724  -3.9530  -3.9485  -3.9463  -3.9012  -3.8747  -3.8435
    -3.8419  -3.8307  -3.8301  -3.8084  -3.8070  -3.7847  -3.7780  -3.7761
    -3.7528  -3.7014  -3.6972  -3.6558  -3.6499  -3.6396  -3.5908  -3.5811
    -3.5353  -3.5350  -3.5349  -3.5216  -3.4992  -3.4615  -3.4578  -3.4539
    -3.4521  -3.4473  -3.4227  -3.4187  -3.4097  -3.3522  -3.3479  -3.3407
    -3.3239  -3.3177  -3.2460  -3.2392  -3.2130  -3.2093  -3.1846  -3.1816
    -3.1701  -3.1532  -3.0950  -3.0935  -3.0764  -3.0758  -3.0246  -3.0204
    -3.0160  -2.9808  -2.9505  -2.9491  -2.9406  -2.9389  -2.9280  -2.9258
    -2.9207  -2.9186  -2.9098  -2.8688  -2.8315  -2.8303  -2.8163  -2.8151
    -2.7902  -2.7812  -2.7790  -2.7593  -2.7138  -2.7120  -2.7044  -2.6651
    -2.6590  -2.6474  -2.6467  -2.6193  -2.6152  -2.5878  -2.5516  -2.5485
    -2.5292  -2.5213  -2.5083  -2.5051  -2.4579  -2.4547  -2.4232  -2.4018
    -2.4006  -2.3780  -2.3761  -2.3661  -2.3650  -2.3549  -2.3330  -2.3322
    -2.2877  -2.2864  -2.2862  -2.2699  -2.2687  -2.2632  -2.2547  -2.2534
    -2.2523  -2.2508  -2.2449  -2.2336  -2.2325  -2.2243  -2.1969  -2.1959
    -2.1948  -2.1944  -2.1925  -2.1911  -2.1847  -2.1618  -2.1597  -2.1459
    -2.1437  -2.1272  -2.1264  -2.1175  -2.1171  -2.1166  -2.1136  -2.0964
    -2.0959  -2.0952  -2.0860  -2.0759  -2.0508  -2.0502  -2.0098  -2.0081
    -1.9848  -1.9834  -1.9588  -1.9564  -1.9299  -1.9272  -1.9121  -1.9068
    -1.8797  -1.8604  -1.8561  -1.8551  -1.8506  -1.8477  -1.8431  -1.8407
    -1.8136  -1.8075  -1.7980  -1.7426  -1.7415  -1.7378  -1.7352  -1.7276
    -1.6983  -1.6785  -1.6766  -1.6551  -1.6503  -1.5908  -1.5894  -1.5662
    -1.5503  -1.5410  -1.4887  -1.4801  -1.4736  -1.4677  -1.4587  -1.4571
    -1.4549  -1.4481  -1.4440  -1.4344  -1.3879  -1.3823  -1.3764  -1.3751
    -1.3614  -1.3560  -1.3486  -1.3208  -1.3153  -1.3036  -1.3028  -1.3000
    -1.2952  -1.2881  -1.2813  -1.2729  -1.2614  -1.2588  -1.2205  -1.2154
    -1.2091  -1.2006  -1.1849  -1.1731  -1.1304  -1.1284  -1.1048  -1.1007
    -1.0961  -1.0701  -1.0201  -1.0185  -1.0172  -1.0141  -1.0102  -1.0080
    -0.9987  -0.9826  -0.9798  -0.9427  -0.9406  -0.9123  -0.9105  -0.9059
    -0.9035  -0.8982  -0.8822  -0.8812  -0.8795  -0.8777  -0.8753  -0.8415
    -0.8378  -0.8361  -0.8320  -0.8067  -0.8047  -0.8012  -0.7763  -0.7699
    -0.7675  -0.7234  -0.7183  -0.7115  -0.6815  -0.6728  -0.6629  -0.6618
    -0.6557  -0.6543  -0.6520  -0.6499  -0.6398  -0.6371  -0.6145  -0.6143
    -0.6105  -0.6090  -0.6077  -0.5716  -0.5709  -0.5616  -0.5565  -0.5428
    -0.5377  -0.5322  -0.5251  -0.4696  -0.4684  -0.4597  -0.4588  -0.4572
    -0.4556  -0.4508  -0.4329  -0.4313  -0.4240  -0.4230  -0.4212  -0.4178
    -0.3821  -0.3796  -0.3791  -0.3715  -0.3700  -0.3645  -0.3640  -0.3499
    -0.3477  -0.3442  -0.3411  -0.3022  -0.3013  -0.2938  -0.2898  -0.2886
    -0.2124  -0.2119  -0.2095  -0.2087  -0.1999  -0.1984  -0.1633  -0.1509
    -0.1501  -0.1243  -0.1183  -0.1096   0.0015   0.0076   0.1065   0.5211
     0.5216   0.5235   0.5254   0.5839   0.5932   0.9732   0.9755   1.0158
     1.0189   1.1276   1.2080   1.3124   1.3268   1.5307   1.5543   2.1707
     2.1739   2.3298   2.3395   2.4626   2.4727   2.5696   2.5711   2.7242
     2.9558   2.9649   3.0853   3.3044   3.3162   3.3922   3.3957   3.4937
     3.5096   3.6880   3.6971   3.7663   3.9665   3.9670   4.0281   4.0309
     4.2852   4.2894   4.2986   4.5358   4.5751   4.5818   4.6227   4.9572
     4.9597   4.9879   5.0540   5.1224   5.2968   5.2980   5.3368   5.3873
     5.7246   5.9119   6.0780   6.0838   6.0888   6.0998   6.1572   6.1596
     6.2146   6.2653   6.2914   6.3146   6.3166   6.3247   6.3368   6.3713
     6.3787   6.4145   6.4849   6.5975   6.7124   6.7442   6.9306   6.9854
     7.0213   7.0314   7.0383

          k =-0.2500 0.1443 0.1111 (136898 PWs)   bands (ev):

   -19.3439  -7.1466  -6.4035  -5.6115  -5.3232  -5.2614  -5.2608  -4.7228
    -4.7223  -4.5949  -4.5903  -4.4395  -4.4114  -4.3427  -4.3161  -4.3099
    -4.2757  -4.2754  -4.1472  -4.1058  -4.1053  -4.0467  -4.0290  -4.0246
    -3.9219  -3.9217  -3.8892  -3.8853  -3.8852  -3.8655  -3.8372  -3.8366
    -3.7793  -3.7298  -3.7297  -3.7137  -3.6983  -3.6920  -3.6909  -3.6802
    -3.6699  -3.6519  -3.6365  -3.6359  -3.6357  -3.6208  -3.6041  -3.5924
    -3.5854  -3.5849  -3.5672  -3.5292  -3.5250  -3.4954  -3.4833  -3.4770
    -3.4769  -3.4502  -3.4024  -3.4018  -3.3677  -3.3654  -3.3474  -3.2969
    -3.2966  -3.2817  -3.2807  -3.2512  -3.2501  -3.2499  -3.2471  -3.0962
    -3.0956  -3.0715  -3.0692  -3.0623  -3.0493  -3.0470  -3.0236  -3.0217
    -2.9734  -2.9715  -2.9571  -2.9556  -2.9360  -2.8887  -2.8881  -2.8681
    -2.8637  -2.8634  -2.8228  -2.8218  -2.8155  -2.8129  -2.7996  -2.7978
    -2.7598  -2.7596  -2.7382  -2.7362  -2.7346  -2.7335  -2.7288  -2.6548
    -2.6531  -2.6509  -2.6237  -2.6225  -2.5626  -2.5593  -2.5332  -2.5311
    -2.5194  -2.5190  -2.5125  -2.4840  -2.4822  -2.4736  -2.4562  -2.4322
    -2.4315  -2.4288  -2.4103  -2.4083  -2.3990  -2.3981  -2.3963  -2.3942
    -2.3860  -2.3400  -2.3085  -2.3076  -2.2924  -2.2789  -2.2723  -2.2717
    -2.2650  -2.2646  -2.2624  -2.2336  -2.2331  -2.2305  -2.2234  -2.2228
    -2.2061  -2.1790  -2.1780  -2.1778  -2.1771  -2.1752  -2.1304  -2.1004
    -2.0995  -2.0982  -2.0927  -2.0828  -2.0717  -2.0675  -2.0533  -2.0532
    -2.0214  -2.0190  -2.0184  -2.0002  -2.0000  -1.9962  -1.9668  -1.9628
    -1.9254  -1.9225  -1.9175  -1.9146  -1.9144  -1.9083  -1.9077  -1.9061
    -1.9051  -1.9001  -1.8972  -1.8825  -1.8759  -1.7564  -1.7537  -1.7275
    -1.7173  -1.7141  -1.7092  -1.7073  -1.6963  -1.6920  -1.6913  -1.6895
    -1.6847  -1.6635  -1.6600  -1.6578  -1.6491  -1.6441  -1.6404  -1.6216
    -1.6179  -1.5940  -1.5915  -1.5624  -1.5592  -1.5496  -1.5409  -1.5271
    -1.5235  -1.5201  -1.5024  -1.4896  -1.4886  -1.4824  -1.4805  -1.4720
    -1.4556  -1.4438  -1.4387  -1.4318  -1.4063  -1.3983  -1.3884  -1.3459
    -1.3438  -1.3333  -1.3271  -1.3094  -1.3056  -1.3019  -1.2710  -1.2699
    -1.2627  -1.2317  -1.2270  -1.2190  -1.2096  -1.2076  -1.1830  -1.1821
    -1.1727  -1.1512  -1.1491  -1.1452  -1.0864  -1.0854  -1.0745  -1.0705
    -1.0568  -1.0553  -1.0441  -1.0425  -1.0255  -1.0129  -0.9852  -0.9837
    -0.9718  -0.9434  -0.9361  -0.9310  -0.9230  -0.9228  -0.9199  -0.9173
    -0.9064  -0.9014  -0.8724  -0.8702  -0.8627  -0.8605  -0.8578  -0.8488
    -0.8353  -0.8187  -0.8084  -0.7965  -0.7856  -0.7021  -0.6890  -0.6836
    -0.6829  -0.6783  -0.6745  -0.6713  -0.6486  -0.6433  -0.6344  -0.6298
    -0.6180  -0.6160  -0.6091  -0.5898  -0.5870  -0.5820  -0.5782  -0.5054
    -0.5052  -0.4734  -0.4673  -0.4670  -0.4619  -0.4584  -0.4576  -0.4561
    -0.4459  -0.4438  -0.4243  -0.4033  -0.3879  -0.3704  -0.3688  -0.3592
    -0.3570  -0.3462  -0.3449  -0.3442  -0.3429  -0.3404  -0.3254  -0.3212
    -0.3194  -0.2903  -0.2887  -0.2876  -0.2758  -0.2755  -0.2563  -0.2249
    -0.2239  -0.2155  -0.2129  -0.1475  -0.1466  -0.1102  -0.1101  -0.0521
    -0.0514  -0.0507  -0.0340  -0.0231   0.1973   0.2138   0.5495   0.5497
     0.6354   0.6509   0.8319   0.8587   0.8709   0.9956   1.0021   1.4299
     1.4301   1.4484   1.7068   1.7393   1.7416   2.0086   2.0256   2.0947
     2.0969   2.1176   2.1353   2.3507   2.3544   2.4406   2.4417   2.5058
     2.5721   2.5945   2.7460   2.8443   3.2805   3.2816   3.2832   3.2935
     3.3385   3.3468   3.6331   3.6356   3.9085   3.9211   4.0043   4.3300
     4.3672   4.3760   4.5653   4.5735   4.6712   4.6729   4.7640   4.8816
     4.8821   4.9976   5.0020   5.0526   5.3032   5.3690   5.3720   5.5058
     5.5440   5.7570   5.7586   5.7752   5.7867   5.7906   5.8456   5.8478
     5.9069   6.0251   6.1918   6.2677   6.4546   6.4569   6.5899   6.5916
     6.6005   6.6065   6.6293   6.7479   6.8126   6.8433   6.8525   6.9835
     7.0231   7.0494   7.0745

          k =-0.2500-0.1443-0.1111 (136898 PWs)   bands (ev):

   -19.3439  -7.1466  -6.4035  -5.6114  -5.3232  -5.2615  -5.2607  -4.7228
    -4.7222  -4.5948  -4.5901  -4.4396  -4.4114  -4.3427  -4.3165  -4.3099
    -4.2759  -4.2752  -4.1471  -4.1057  -4.1055  -4.0464  -4.0291  -4.0246
    -3.9219  -3.9216  -3.8892  -3.8854  -3.8852  -3.8656  -3.8375  -3.8364
    -3.7789  -3.7301  -3.7295  -3.7134  -3.6985  -3.6921  -3.6912  -3.6801
    -3.6700  -3.6520  -3.6365  -3.6358  -3.6356  -3.6203  -3.6043  -3.5925
    -3.5853  -3.5848  -3.5669  -3.5295  -3.5250  -3.4954  -3.4831  -3.4771
    -3.4769  -3.4505  -3.4025  -3.4018  -3.3675  -3.3654  -3.3474  -3.2970
    -3.2967  -3.2815  -3.2806  -3.2511  -3.2505  -3.2500  -3.2471  -3.0960
    -3.0956  -3.0717  -3.0690  -3.0623  -3.0493  -3.0473  -3.0236  -3.0215
    -2.9734  -2.9715  -2.9570  -2.9556  -2.9359  -2.8888  -2.8882  -2.8681
    -2.8637  -2.8635  -2.8228  -2.8220  -2.8156  -2.8131  -2.7996  -2.7979
    -2.7596  -2.7594  -2.7386  -2.7359  -2.7345  -2.7335  -2.7288  -2.6547
    -2.6530  -2.6509  -2.6236  -2.6227  -2.5634  -2.5588  -2.5331  -2.5310
    -2.5190  -2.5188  -2.5126  -2.4840  -2.4823  -2.4737  -2.4560  -2.4328
    -2.4319  -2.4288  -2.4102  -2.4083  -2.3997  -2.3975  -2.3958  -2.3944
    -2.3860  -2.3399  -2.3085  -2.3078  -2.2921  -2.2789  -2.2726  -2.2716
    -2.2650  -2.2647  -2.2626  -2.2336  -2.2330  -2.2305  -2.2232  -2.2224
    -2.2059  -2.1790  -2.1782  -2.1774  -2.1767  -2.1753  -2.1306  -2.1005
    -2.0995  -2.0982  -2.0925  -2.0829  -2.0720  -2.0671  -2.0531  -2.0530
    -2.0212  -2.0188  -2.0183  -2.0004  -2.0002  -1.9964  -1.9667  -1.9629
    -1.9256  -1.9224  -1.9166  -1.9151  -1.9144  -1.9101  -1.9081  -1.9069
    -1.9055  -1.8998  -1.8957  -1.8828  -1.8761  -1.7573  -1.7516  -1.7221
    -1.7197  -1.7131  -1.7092  -1.7075  -1.6995  -1.6929  -1.6902  -1.6883
    -1.6852  -1.6641  -1.6629  -1.6567  -1.6463  -1.6454  -1.6391  -1.6238
    -1.6175  -1.5965  -1.5900  -1.5651  -1.5573  -1.5507  -1.5398  -1.5277
    -1.5224  -1.5204  -1.5027  -1.4908  -1.4884  -1.4829  -1.4803  -1.4672
    -1.4546  -1.4508  -1.4360  -1.4345  -1.4035  -1.3911  -1.3882  -1.3453
    -1.3430  -1.3327  -1.3271  -1.3218  -1.3058  -1.3029  -1.2707  -1.2704
    -1.2517  -1.2350  -1.2240  -1.2213  -1.2090  -1.2086  -1.1847  -1.1814
    -1.1744  -1.1513  -1.1491  -1.1473  -1.0865  -1.0847  -1.0730  -1.0720
    -1.0565  -1.0546  -1.0436  -1.0392  -1.0248  -1.0121  -0.9852  -0.9844
    -0.9732  -0.9438  -0.9347  -0.9323  -0.9230  -0.9228  -0.9207  -0.9163
    -0.9142  -0.9013  -0.8726  -0.8716  -0.8616  -0.8605  -0.8537  -0.8459
    -0.8339  -0.8137  -0.8113  -0.7936  -0.7917  -0.7019  -0.6887  -0.6834
    -0.6832  -0.6790  -0.6732  -0.6716  -0.6487  -0.6480  -0.6334  -0.6311
    -0.6167  -0.6165  -0.6091  -0.5883  -0.5865  -0.5831  -0.5780  -0.5057
    -0.5043  -0.4716  -0.4696  -0.4668  -0.4606  -0.4600  -0.4578  -0.4572
    -0.4449  -0.4412  -0.4249  -0.4032  -0.3906  -0.3695  -0.3691  -0.3588
    -0.3582  -0.3469  -0.3449  -0.3439  -0.3424  -0.3399  -0.3252  -0.3210
    -0.3194  -0.2902  -0.2894  -0.2861  -0.2762  -0.2740  -0.2563  -0.2248
    -0.2243  -0.2151  -0.2145  -0.1485  -0.1444  -0.1105  -0.1096  -0.0521
    -0.0517  -0.0497  -0.0364  -0.0231   0.2037   0.2106   0.5496   0.5496
     0.6408   0.6474   0.8281   0.8562   0.8732   0.9966   1.0014   1.4298
     1.4302   1.4484   1.7063   1.7393   1.7414   2.0151   2.0211   2.0956
     2.0961   2.1214   2.1310   2.3513   2.3538   2.4409   2.4412   2.5062
     2.5775   2.5884   2.7457   2.8437   3.2789   3.2821   3.2873   3.2911
     3.3403   3.3454   3.6335   3.6350   3.9124   3.9180   4.0060   4.3303
     4.3695   4.3722   4.5444   4.5804   4.6695   4.6772   4.7640   4.8749
     4.8870   4.9992   5.0004   5.0681   5.3019   5.3652   5.3788   5.5252
     5.5357   5.7532   5.7600   5.7609   5.7870   5.7905   5.8477   5.8507
     5.8773   5.9878   6.2405   6.3355   6.4464   6.4564   6.5864   6.5936
     6.5944   6.6039   6.6189   6.6848   6.8445   6.8489   6.9072   6.9690
     7.0010   7.0608   7.0682

          k = 0.2500 0.1443-0.1111 (136898 PWs)   bands (ev):

   -19.3439  -7.1466  -6.4035  -5.6114  -5.3232  -5.2615  -5.2607  -4.7228
    -4.7222  -4.5948  -4.5901  -4.4396  -4.4114  -4.3427  -4.3165  -4.3099
    -4.2759  -4.2752  -4.1471  -4.1057  -4.1055  -4.0464  -4.0291  -4.0246
    -3.9219  -3.9216  -3.8892  -3.8854  -3.8852  -3.8656  -3.8375  -3.8364
    -3.7789  -3.7301  -3.7295  -3.7134  -3.6985  -3.6921  -3.6912  -3.6801
    -3.6700  -3.6520  -3.6365  -3.6358  -3.6355  -3.6203  -3.6043  -3.5925
    -3.5853  -3.5848  -3.5669  -3.5295  -3.5250  -3.4954  -3.4831  -3.4771
    -3.4769  -3.4505  -3.4025  -3.4018  -3.3675  -3.3654  -3.3474  -3.2970
    -3.2967  -3.2815  -3.2806  -3.2511  -3.2505  -3.2500  -3.2471  -3.0960
    -3.0956  -3.0717  -3.0690  -3.0623  -3.0493  -3.0473  -3.0236  -3.0215
    -2.9734  -2.9715  -2.9570  -2.9556  -2.9359  -2.8888  -2.8882  -2.8681
    -2.8637  -2.8635  -2.8228  -2.8220  -2.8156  -2.8131  -2.7996  -2.7979
    -2.7596  -2.7594  -2.7386  -2.7359  -2.7345  -2.7335  -2.7288  -2.6547
    -2.6530  -2.6509  -2.6236  -2.6227  -2.5634  -2.5588  -2.5331  -2.5310
    -2.5190  -2.5188  -2.5126  -2.4839  -2.4823  -2.4737  -2.4560  -2.4327
    -2.4319  -2.4288  -2.4102  -2.4083  -2.3997  -2.3975  -2.3958  -2.3944
    -2.3860  -2.3399  -2.3085  -2.3078  -2.2921  -2.2789  -2.2726  -2.2716
    -2.2650  -2.2647  -2.2626  -2.2336  -2.2330  -2.2305  -2.2232  -2.2224
    -2.2059  -2.1790  -2.1782  -2.1774  -2.1767  -2.1753  -2.1306  -2.1005
    -2.0995  -2.0982  -2.0925  -2.0829  -2.0720  -2.0671  -2.0531  -2.0530
    -2.0212  -2.0188  -2.0183  -2.0004  -2.0002  -1.9964  -1.9667  -1.9629
    -1.9256  -1.9224  -1.9166  -1.9151  -1.9143  -1.9101  -1.9081  -1.9069
    -1.9055  -1.8998  -1.8957  -1.8828  -1.8761  -1.7573  -1.7516  -1.7221
    -1.7197  -1.7131  -1.7092  -1.7075  -1.6995  -1.6929  -1.6903  -1.6883
    -1.6852  -1.6641  -1.6629  -1.6567  -1.6463  -1.6454  -1.6391  -1.6238
    -1.6175  -1.5965  -1.5900  -1.5651  -1.5573  -1.5507  -1.5398  -1.5277
    -1.5224  -1.5204  -1.5027  -1.4908  -1.4884  -1.4829  -1.4803  -1.4672
    -1.4546  -1.4508  -1.4360  -1.4345  -1.4035  -1.3911  -1.3882  -1.3453
    -1.3430  -1.3327  -1.3271  -1.3218  -1.3058  -1.3029  -1.2707  -1.2704
    -1.2517  -1.2350  -1.2240  -1.2213  -1.2090  -1.2086  -1.1847  -1.1814
    -1.1744  -1.1513  -1.1491  -1.1473  -1.0865  -1.0847  -1.0730  -1.0720
    -1.0565  -1.0546  -1.0436  -1.0392  -1.0248  -1.0121  -0.9852  -0.9844
    -0.9732  -0.9438  -0.9347  -0.9323  -0.9230  -0.9228  -0.9207  -0.9163
    -0.9142  -0.9013  -0.8726  -0.8716  -0.8616  -0.8605  -0.8537  -0.8459
    -0.8339  -0.8137  -0.8113  -0.7936  -0.7917  -0.7019  -0.6887  -0.6834
    -0.6832  -0.6790  -0.6732  -0.6716  -0.6487  -0.6480  -0.6334  -0.6311
    -0.6167  -0.6165  -0.6091  -0.5883  -0.5865  -0.5831  -0.5780  -0.5057
    -0.5043  -0.4716  -0.4696  -0.4669  -0.4606  -0.4600  -0.4578  -0.4572
    -0.4449  -0.4412  -0.4249  -0.4032  -0.3906  -0.3695  -0.3691  -0.3588
    -0.3582  -0.3469  -0.3449  -0.3439  -0.3424  -0.3399  -0.3252  -0.3210
    -0.3194  -0.2902  -0.2894  -0.2861  -0.2762  -0.2740  -0.2563  -0.2248
    -0.2243  -0.2151  -0.2145  -0.1485  -0.1444  -0.1105  -0.1097  -0.0521
    -0.0517  -0.0497  -0.0364  -0.0231   0.2037   0.2106   0.5496   0.5496
     0.6408   0.6474   0.8281   0.8562   0.8732   0.9966   1.0014   1.4298
     1.4302   1.4484   1.7063   1.7393   1.7414   2.0151   2.0211   2.0956
     2.0960   2.1214   2.1310   2.3513   2.3538   2.4409   2.4412   2.5062
     2.5775   2.5883   2.7457   2.8437   3.2789   3.2821   3.2873   3.2911
     3.3403   3.3454   3.6335   3.6350   3.9125   3.9180   4.0060   4.3303
     4.3695   4.3722   4.5444   4.5804   4.6695   4.6772   4.7640   4.8749
     4.8870   4.9992   5.0004   5.0681   5.3019   5.3652   5.3788   5.5252
     5.5357   5.7527   5.7600   5.7612   5.7870   5.7905   5.8477   5.8507
     5.8775   5.9885   6.2406   6.3349   6.4399   6.4607   6.5852   6.5927
     6.5942   6.6039   6.6176   6.6872   6.8446   6.8489   6.9088   6.9709
     7.0068   7.0613   7.0706

          k = 0.0000-0.2887 0.1111 (136898 PWs)   bands (ev):

   -19.3439  -7.1466  -6.4035  -5.6115  -5.3232  -5.2614  -5.2607  -4.7228
    -4.7222  -4.5947  -4.5904  -4.4395  -4.4114  -4.3428  -4.3162  -4.3099
    -4.2757  -4.2753  -4.1471  -4.1058  -4.1054  -4.0465  -4.0291  -4.0246
    -3.9219  -3.9216  -3.8892  -3.8854  -3.8852  -3.8655  -3.8372  -3.8366
    -3.7791  -3.7299  -3.7298  -3.7138  -3.6985  -3.6921  -3.6908  -3.6802
    -3.6700  -3.6521  -3.6365  -3.6359  -3.6356  -3.6202  -3.6042  -3.5923
    -3.5853  -3.5850  -3.5668  -3.5295  -3.5249  -3.4954  -3.4832  -3.4770
    -3.4769  -3.4505  -3.4025  -3.4018  -3.3675  -3.3654  -3.3474  -3.2970
    -3.2967  -3.2816  -3.2806  -3.2510  -3.2503  -3.2501  -3.2472  -3.0962
    -3.0957  -3.0715  -3.0692  -3.0623  -3.0493  -3.0471  -3.0237  -3.0215
    -2.9734  -2.9716  -2.9571  -2.9555  -2.9359  -2.8890  -2.8878  -2.8681
    -2.8638  -2.8635  -2.8228  -2.8219  -2.8156  -2.8130  -2.7997  -2.7978
    -2.7596  -2.7594  -2.7383  -2.7361  -2.7345  -2.7334  -2.7288  -2.6548
    -2.6532  -2.6508  -2.6237  -2.6226  -2.5630  -2.5589  -2.5331  -2.5310
    -2.5192  -2.5188  -2.5126  -2.4840  -2.4821  -2.4737  -2.4560  -2.4324
    -2.4317  -2.4289  -2.4103  -2.4083  -2.3994  -2.3977  -2.3961  -2.3945
    -2.3860  -2.3399  -2.3086  -2.3077  -2.2922  -2.2790  -2.2724  -2.2717
    -2.2651  -2.2646  -2.2625  -2.2336  -2.2331  -2.2303  -2.2236  -2.2224
    -2.2059  -2.1790  -2.1784  -2.1776  -2.1768  -2.1753  -2.1306  -2.1005
    -2.0995  -2.0982  -2.0926  -2.0829  -2.0720  -2.0670  -2.0531  -2.0531
    -2.0213  -2.0189  -2.0183  -2.0002  -2.0001  -1.9962  -1.9668  -1.9630
    -1.9255  -1.9224  -1.9171  -1.9147  -1.9142  -1.9090  -1.9077  -1.9069
    -1.9050  -1.9001  -1.8967  -1.8827  -1.8758  -1.7568  -1.7528  -1.7261
    -1.7178  -1.7135  -1.7092  -1.7075  -1.6977  -1.6923  -1.6910  -1.6890
    -1.6848  -1.6635  -1.6614  -1.6575  -1.6481  -1.6442  -1.6397  -1.6225
    -1.6179  -1.5953  -1.5905  -1.5637  -1.5582  -1.5498  -1.5405  -1.5274
    -1.5230  -1.5201  -1.5025  -1.4902  -1.4885  -1.4827  -1.4804  -1.4703
    -1.4552  -1.4463  -1.4374  -1.4328  -1.4045  -1.3969  -1.3885  -1.3453
    -1.3438  -1.3332  -1.3274  -1.3135  -1.3058  -1.3023  -1.2708  -1.2700
    -1.2587  -1.2328  -1.2260  -1.2195  -1.2093  -1.2078  -1.1834  -1.1818
    -1.1735  -1.1514  -1.1491  -1.1458  -1.0867  -1.0852  -1.0739  -1.0710
    -1.0567  -1.0550  -1.0436  -1.0416  -1.0250  -1.0126  -0.9852  -0.9839
    -0.9723  -0.9435  -0.9356  -0.9314  -0.9231  -0.9228  -0.9204  -0.9171
    -0.9094  -0.9013  -0.8724  -0.8711  -0.8622  -0.8606  -0.8548  -0.8489
    -0.8350  -0.8175  -0.8092  -0.7958  -0.7872  -0.7019  -0.6889  -0.6835
    -0.6830  -0.6784  -0.6742  -0.6715  -0.6486  -0.6448  -0.6340  -0.6303
    -0.6175  -0.6162  -0.6092  -0.5892  -0.5870  -0.5823  -0.5782  -0.5055
    -0.5048  -0.4728  -0.4680  -0.4669  -0.4616  -0.4588  -0.4577  -0.4568
    -0.4451  -0.4432  -0.4245  -0.4032  -0.3889  -0.3701  -0.3689  -0.3591
    -0.3575  -0.3463  -0.3448  -0.3442  -0.3425  -0.3404  -0.3253  -0.3212
    -0.3193  -0.2902  -0.2888  -0.2872  -0.2760  -0.2749  -0.2563  -0.2249
    -0.2239  -0.2154  -0.2133  -0.1479  -0.1458  -0.1104  -0.1098  -0.0522
    -0.0515  -0.0503  -0.0350  -0.0231   0.1995   0.2128   0.5495   0.5497
     0.6371   0.6499   0.8307   0.8576   0.8718   0.9960   1.0018   1.4300
     1.4301   1.4485   1.7067   1.7394   1.7416   2.0108   2.0242   2.0950
     2.0966   2.1187   2.1339   2.3509   2.3541   2.4407   2.4415   2.5059
     2.5739   2.5925   2.7458   2.8441   3.2802   3.2819   3.2843   3.2927
     3.3387   3.3469   3.6330   3.6356   3.9094   3.9202   4.0050   4.3302
     4.3675   4.3749   4.5625   4.5717   4.6703   4.6747   4.7643   4.8802
     4.8835   4.9977   5.0018   5.0570   5.3028   5.3674   5.3746   5.5124
     5.5416   5.7571   5.7596   5.7700   5.7869   5.7911   5.8454   5.8489
     5.8943   6.0048   6.2413   6.2606   6.4541   6.4561   6.5898   6.5920
     6.6006   6.6051   6.6271   6.7294   6.8335   6.8465   6.8513   6.9805
     7.0131   7.0516   7.0772

          k = 0.0000 0.2887 0.1111 (136898 PWs)   bands (ev):

   -19.3439  -7.1466  -6.4035  -5.6115  -5.3232  -5.2614  -5.2607  -4.7228
    -4.7222  -4.5947  -4.5904  -4.4395  -4.4114  -4.3428  -4.3162  -4.3099
    -4.2757  -4.2753  -4.1471  -4.1058  -4.1054  -4.0465  -4.0291  -4.0246
    -3.9219  -3.9216  -3.8892  -3.8854  -3.8852  -3.8655  -3.8372  -3.8366
    -3.7791  -3.7299  -3.7298  -3.7138  -3.6985  -3.6921  -3.6908  -3.6802
    -3.6700  -3.6521  -3.6365  -3.6359  -3.6356  -3.6202  -3.6042  -3.5923
    -3.5854  -3.5850  -3.5668  -3.5295  -3.5249  -3.4954  -3.4832  -3.4770
    -3.4769  -3.4505  -3.4025  -3.4018  -3.3675  -3.3654  -3.3474  -3.2970
    -3.2967  -3.2816  -3.2806  -3.2510  -3.2503  -3.2501  -3.2472  -3.0962
    -3.0957  -3.0715  -3.0692  -3.0623  -3.0493  -3.0471  -3.0237  -3.0215
    -2.9734  -2.9716  -2.9571  -2.9555  -2.9359  -2.8890  -2.8878  -2.8681
    -2.8638  -2.8635  -2.8228  -2.8219  -2.8156  -2.8130  -2.7997  -2.7978
    -2.7596  -2.7594  -2.7383  -2.7361  -2.7345  -2.7334  -2.7288  -2.6548
    -2.6532  -2.6508  -2.6237  -2.6226  -2.5630  -2.5589  -2.5331  -2.5310
    -2.5192  -2.5188  -2.5126  -2.4840  -2.4821  -2.4737  -2.4560  -2.4324
    -2.4317  -2.4289  -2.4103  -2.4083  -2.3994  -2.3977  -2.3961  -2.3945
    -2.3860  -2.3399  -2.3086  -2.3077  -2.2922  -2.2790  -2.2724  -2.2717
    -2.2651  -2.2646  -2.2625  -2.2336  -2.2331  -2.2303  -2.2236  -2.2224
    -2.2059  -2.1790  -2.1784  -2.1776  -2.1768  -2.1753  -2.1306  -2.1005
    -2.0995  -2.0982  -2.0926  -2.0829  -2.0720  -2.0670  -2.0531  -2.0531
    -2.0213  -2.0189  -2.0183  -2.0002  -2.0001  -1.9962  -1.9668  -1.9630
    -1.9255  -1.9224  -1.9171  -1.9147  -1.9142  -1.9090  -1.9077  -1.9069
    -1.9050  -1.9001  -1.8967  -1.8827  -1.8758  -1.7569  -1.7528  -1.7261
    -1.7178  -1.7135  -1.7092  -1.7075  -1.6977  -1.6923  -1.6910  -1.6890
    -1.6848  -1.6635  -1.6614  -1.6575  -1.6481  -1.6442  -1.6397  -1.6225
    -1.6179  -1.5953  -1.5905  -1.5637  -1.5582  -1.5498  -1.5405  -1.5274
    -1.5230  -1.5201  -1.5025  -1.4902  -1.4885  -1.4827  -1.4804  -1.4703
    -1.4552  -1.4463  -1.4374  -1.4328  -1.4045  -1.3969  -1.3885  -1.3453
    -1.3438  -1.3332  -1.3274  -1.3135  -1.3058  -1.3023  -1.2708  -1.2700
    -1.2587  -1.2328  -1.2260  -1.2195  -1.2093  -1.2078  -1.1834  -1.1818
    -1.1735  -1.1514  -1.1491  -1.1458  -1.0867  -1.0852  -1.0739  -1.0710
    -1.0567  -1.0550  -1.0436  -1.0416  -1.0250  -1.0126  -0.9852  -0.9839
    -0.9723  -0.9435  -0.9356  -0.9314  -0.9231  -0.9228  -0.9204  -0.9171
    -0.9094  -0.9013  -0.8724  -0.8711  -0.8622  -0.8606  -0.8548  -0.8489
    -0.8350  -0.8175  -0.8092  -0.7958  -0.7872  -0.7019  -0.6889  -0.6835
    -0.6830  -0.6784  -0.6742  -0.6715  -0.6486  -0.6449  -0.6340  -0.6303
    -0.6175  -0.6162  -0.6092  -0.5892  -0.5870  -0.5823  -0.5781  -0.5055
    -0.5048  -0.4728  -0.4680  -0.4670  -0.4616  -0.4588  -0.4577  -0.4568
    -0.4451  -0.4432  -0.4245  -0.4032  -0.3889  -0.3701  -0.3689  -0.3591
    -0.3575  -0.3463  -0.3448  -0.3442  -0.3425  -0.3404  -0.3253  -0.3212
    -0.3194  -0.2902  -0.2888  -0.2872  -0.2760  -0.2749  -0.2563  -0.2249
    -0.2239  -0.2154  -0.2133  -0.1479  -0.1458  -0.1104  -0.1098  -0.0522
    -0.0515  -0.0503  -0.0350  -0.0231   0.1995   0.2128   0.5495   0.5497
     0.6371   0.6499   0.8307   0.8576   0.8718   0.9960   1.0018   1.4300
     1.4301   1.4485   1.7066   1.7394   1.7416   2.0108   2.0242   2.0950
     2.0966   2.1187   2.1339   2.3509   2.3541   2.4407   2.4415   2.5059
     2.5739   2.5925   2.7458   2.8441   3.2802   3.2819   3.2843   3.2927
     3.3387   3.3469   3.6330   3.6356   3.9094   3.9202   4.0050   4.3302
     4.3675   4.3749   4.5625   4.5717   4.6703   4.6747   4.7643   4.8802
     4.8835   4.9977   5.0018   5.0570   5.3028   5.3674   5.3746   5.5124
     5.5416   5.7571   5.7595   5.7702   5.7869   5.7911   5.8454   5.8488
     5.8944   6.0048   6.2417   6.2602   6.4488   6.4611   6.5897   6.5919
     6.6013   6.6038   6.6248   6.7286   6.8331   6.8468   6.8516   6.9844
     7.0176   7.0526   7.0796

     the Fermi energy is     1.5738 ev

!    total energy              =   -6604.43229595 Ry
     Harris-Foulkes estimate   =   -6604.43229594 Ry
     estimated scf accuracy    <          8.3E-09 Ry

     The total energy is the sum of the following terms:

     one-electron contribution =  -48744.50528142 Ry
     hartree contribution      =   24876.84021351 Ry
     xc contribution           =   -3204.98221219 Ry
     ewald contribution        =   20468.21213844 Ry
     smearing contrib. (-TS)   =       0.00284571 Ry

     convergence has been achieved in  24 iterations

     Writing output data file 6299855.save

     init_run     :    189.92s CPU    200.17s WALL (       1 calls)
     electrons    :   9178.13s CPU   9671.08s WALL (       1 calls)

     Called by init_run:
     wfcinit      :    120.98s CPU    130.25s WALL (       1 calls)
     potinit      :      9.83s CPU     10.23s WALL (       1 calls)

     Called by electrons:
     c_bands      :   7515.82s CPU   7909.99s WALL (      25 calls)
     sum_band     :   1205.30s CPU   1289.24s WALL (      25 calls)
     v_of_rho     :    127.46s CPU    137.99s WALL (      25 calls)
     newd         :    340.03s CPU    343.44s WALL (      25 calls)
     mix_rho      :      3.42s CPU      3.74s WALL (      25 calls)
     vdW_energy   :      7.62s CPU      8.32s WALL (      25 calls)
     vdW_ffts     :     71.84s CPU     77.30s WALL (      50 calls)
     vdW_v        :     15.67s CPU     16.49s WALL (      25 calls)

     Called by c_bands:
     init_us_2    :     18.74s CPU     19.11s WALL (     612 calls)
     cegterg      :   7429.18s CPU   7821.89s WALL (     300 calls)

     Called by *egterg:
     h_psi        :   3332.89s CPU   3687.11s WALL (    1792 calls)
     s_psi        :    427.70s CPU    430.34s WALL (    1792 calls)
     g_psi        :      5.90s CPU      5.96s WALL (    1480 calls)
     cdiaghg      :   2266.32s CPU   2273.23s WALL (    1768 calls)

     Called by h_psi:
     add_vuspsi   :    428.73s CPU    431.27s WALL (    1792 calls)

     General routines
     calbec       :    646.17s CPU    649.10s WALL (    2092 calls)
     fft          :    300.17s CPU    310.26s WALL (    1650 calls)
     ffts         :      1.82s CPU      2.05s WALL (      50 calls)
     fftw         :   2679.72s CPU   3057.55s WALL (  727936 calls)
     interpolate  :      5.07s CPU      5.63s WALL (      50 calls)
     davcio       :      0.01s CPU      0.24s WALL (      12 calls)

     Parallel routines
     fft_scatter  :   2186.95s CPU   2501.77s WALL (  729636 calls)

     PWSCF        :     2h36m CPU        2h45m WALL


   This run was terminated on:  14: 9:12  24Aug2015            

=------------------------------------------------------------------------------=
   JOB DONE.
=------------------------------------------------------------------------------=
