Setting SGE environment for SCC

     Program PWSCF v.5.1.2 starts on 24Aug2015 at 10:33:22 

     This program is part of the open-source Quantum ESPRESSO suite
     for quantum simulation of materials; please cite
         "P. Giannozzi et al., J. Phys.:Condens. Matter 21 395502 (2009);
          URL http://www.quantum-espresso.org", 
     in publications or presentations arising from this work. More details at
     http://www.quantum-espresso.org/quote

     Parallel version (MPI), running on    32 processors
     R & G space division:  proc/nbgrp/npool/nimage =      32
     Reading input from hollow.H2.Au535758.d.2.4.phi.45.psi.90.in
Warning: card &IONS ignored
Warning: card / ignored
Warning: card &CELL ignored
Warning: card / ignored

     Current dimensions of program PWSCF are:
     Max number of different atomic species (ntypx) = 10
     Max number of k-points (npk) =  40000
     Max angular momentum in pseudopotentials (lmaxx) =  3

     IMPORTANT: XC functional enforced from input :
     Exchange-correlation      = VDW-DF ( 1  4  4  0 1 0)
     Any further DFT definition will be discarded
     Please, verify this is what you really want


     Subspace diagonalization in iterative solution of the eigenvalue problem:
     a serial algorithm will be used


     Parallelization info
     --------------------
     sticks:   dense  smooth     PW     G-vecs:    dense   smooth      PW
     Min         445     223     58                96775    34191    4534
     Max         446     224     59                96790    34246    4540
     Sum       14269    7147   1867              3097177  1095093  145167


     Title: 
     hollow.H2.Au535758.d.2.4.phi.45.psi.90                                     


     bravais-lattice index     =            4
     lattice parameter (alat)  =      22.7436  a.u.
     unit-cell volume          =   22924.1508 (a.u.)^3
     number of atoms/cell      =           67
     number of atomic types    =            3
     number of electrons       =       712.00
     number of Kohn-Sham states=          427
     kinetic-energy cutoff     =      50.0000  Ry
     charge density cutoff     =     400.0000  Ry
     convergence threshold     =      1.0E-08
     mixing beta               =       0.7000
     number of iterations used =            8  plain     mixing
     Exchange-correlation      = VDW-DF ( 1  4  4  0 1 0)

     celldm(1)=  22.743643  celldm(2)=   0.000000  celldm(3)=   2.250000
     celldm(4)=   0.000000  celldm(5)=   0.000000  celldm(6)=   0.000000

     crystal axes: (cart. coord. in units of alat)
               a(1) = (   1.000000   0.000000   0.000000 )  
               a(2) = (  -0.500000   0.866025   0.000000 )  
               a(3) = (   0.000000   0.000000   2.250000 )  

     reciprocal axes: (cart. coord. in units 2 pi/alat)
               b(1) = (  1.000000  0.577350 -0.000000 )  
               b(2) = (  0.000000  1.154701  0.000000 )  
               b(3) = (  0.000000 -0.000000  0.444444 )  


     PseudoPot. # 1 for Au read from file:
     /home/scc/andrejb/qe/pseudo/Au.pbe-nd-van.UPF
     MD5 check sum: 458681b50f36d87ef23c61b04bba420a
     Pseudo is Ultrasoft + core correction, Zval = 11.0
     Generated by new atomic code, or converted to UPF format
     Using radial grid of  985 points,  3 beta functions with: 
                l(1) =   1
                l(2) =   2
                l(3) =   2
     Q(r) pseudized with  8 coefficients,  rinner =    1.100   1.100   1.100
                                                       1.100   1.100

     PseudoPot. # 2 for H  read from file:
     /home/scc/andrejb/qe/pseudo/H.pbe-van_ak.UPF
     MD5 check sum: 403db7282739603aa925980fa9b8608d
     Pseudo is Ultrasoft, Zval =  1.0
     Generated by new atomic code, or converted to UPF format
     Using radial grid of  615 points,  1 beta functions with: 
                l(1) =   0
     Q(r) pseudized with  8 coefficients,  rinner =    0.800

     PseudoPot. # 3 for O  read from file:
     /home/scc/andrejb/qe/pseudo/O.pbe-van_ak.UPF
     MD5 check sum: 4b8c549914a63cae506c6ff22b5af4fe
     Pseudo is Ultrasoft, Zval =  6.0
     Generated by new atomic code, or converted to UPF format
     Using radial grid of  737 points,  4 beta functions with: 
                l(1) =   0
                l(2) =   0
                l(3) =   1
                l(4) =   1
     Q(r) pseudized with  8 coefficients,  rinner =    0.800   0.800   0.800


     vdW kernel table read from file vdW_kernel_table
     MD5 check sum: 48e77a2e26edf626eeb0eaa751ad5cac

     atomic species   valence    mass     pseudopotential
        Au            11.00   196.96657     Au( 1.00)
        H              1.00     1.01000     H ( 1.00)
        O              6.00    16.00000     O ( 1.00)

     No symmetry found



   Cartesian axes

     site n.     atom                  positions (alat units)
         1           O   tau(   1) = (  -0.0186562   0.4638597   0.8363297  )
         2           H   tau(   2) = (  -0.0208375   0.5411347   0.8124178  )
         3           H   tau(   3) = (  -0.0249177   0.4212311   0.7678510  )
         4           Au  tau(   4) = (   0.3540481   0.6132292   0.0000000  )
         5           Au  tau(   5) = (   0.4790062   0.3967954   0.0000000  )
         6           Au  tau(   6) = (   0.6039644   0.1803616   0.0000000  )
         7           Au  tau(   7) = (   0.7289225  -0.0360723   0.0000000  )
         8           Au  tau(   8) = (   0.1041318   0.6132292   0.0000000  )
         9           Au  tau(   9) = (   0.2290899   0.3967954   0.0000000  )
        10           Au  tau(  10) = (   0.3540481   0.1803616   0.0000000  )
        11           Au  tau(  11) = (   0.4790062  -0.0360723   0.0000000  )
        12           Au  tau(  12) = (  -0.1457845   0.6132292   0.0000000  )
        13           Au  tau(  13) = (  -0.0208264   0.3967954   0.0000000  )
        14           Au  tau(  14) = (   0.1041318   0.1803616   0.0000000  )
        15           Au  tau(  15) = (   0.2290899  -0.0360723   0.0000000  )
        16           Au  tau(  16) = (  -0.3957008   0.6132292   0.0000000  )
        17           Au  tau(  17) = (  -0.2707426   0.3967954   0.0000000  )
        18           Au  tau(  18) = (  -0.1457845   0.1803616   0.0000000  )
        19           Au  tau(  19) = (  -0.0208264  -0.0360723   0.0000000  )
        20           Au  tau(  20) = (   0.4790062   0.6853738   0.2040557  )
        21           Au  tau(  21) = (   0.6039644   0.4689400   0.2040557  )
        22           Au  tau(  22) = (   0.7289225   0.2525061   0.2040557  )
        23           Au  tau(  23) = (   0.8538806   0.0360723   0.2040557  )
        24           Au  tau(  24) = (   0.2290899   0.6853738   0.2040557  )
        25           Au  tau(  25) = (   0.3540481   0.4689400   0.2040557  )
        26           Au  tau(  26) = (   0.4790062   0.2525061   0.2040557  )
        27           Au  tau(  27) = (   0.6039644   0.0360723   0.2040557  )
        28           Au  tau(  28) = (  -0.0208264   0.6853738   0.2040557  )
        29           Au  tau(  29) = (   0.1041318   0.4689400   0.2040557  )
        30           Au  tau(  30) = (   0.2290899   0.2525061   0.2040557  )
        31           Au  tau(  31) = (   0.3540481   0.0360723   0.2040557  )
        32           Au  tau(  32) = (  -0.2707426   0.6853738   0.2040557  )
        33           Au  tau(  33) = (  -0.1457845   0.4689400   0.2040557  )
        34           Au  tau(  34) = (  -0.0208264   0.2525061   0.2040557  )
        35           Au  tau(  35) = (   0.1041318   0.0360723   0.2040557  )
        36           Au  tau(  36) = (   0.3541162   0.7576593   0.4066483  )
        37           Au  tau(  37) = (   0.4791000   0.5411421   0.4066695  )
        38           Au  tau(  38) = (   0.6040570   0.3246862   0.4066617  )
        39           Au  tau(  39) = (   0.7290270   0.1081684   0.4066529  )
        40           Au  tau(  40) = (   0.1041162   0.7576236   0.4066247  )
        41           Au  tau(  41) = (   0.2291001   0.5411063   0.4066455  )
        42           Au  tau(  42) = (   0.3540567   0.3246505   0.4066380  )
        43           Au  tau(  43) = (   0.4790276   0.1081324   0.4066292  )
        44           Au  tau(  44) = (  -0.1458201   0.7576104   0.4066224  )
        45           Au  tau(  45) = (  -0.0208365   0.5410930   0.4066438  )
        46           Au  tau(  46) = (   0.1041202   0.3246372   0.4066359  )
        47           Au  tau(  47) = (   0.2290908   0.1081193   0.4066273  )
        48           Au  tau(  48) = (  -0.3958167   0.7575791   0.4065812  )
        49           Au  tau(  49) = (  -0.2708328   0.5410617   0.4066025  )
        50           Au  tau(  50) = (  -0.1458763   0.3246061   0.4065947  )
        51           Au  tau(  51) = (  -0.0209056   0.1080882   0.4065858  )
        52           Au  tau(  52) = (   0.3541085   0.6133344   0.6129762  )
        53           Au  tau(  53) = (   0.4790780   0.3968269   0.6129968  )
        54           Au  tau(  54) = (   0.6040356   0.1803811   0.6129859  )
        55           Au  tau(  55) = (   0.7290165  -0.0361221   0.6129385  )
        56           Au  tau(  56) = (   0.1041243   0.6133091   0.6130022  )
        57           Au  tau(  57) = (   0.2290941   0.3968013   0.6130241  )
        58           Au  tau(  58) = (   0.3540515   0.1803552   0.6130121  )
        59           Au  tau(  59) = (   0.4790323  -0.0361475   0.6129659  )
        60           Au  tau(  60) = (  -0.1458030   0.6133014   0.6129980  )
        61           Au  tau(  61) = (  -0.0208339   0.3967936   0.6130188  )
        62           Au  tau(  62) = (   0.1041239   0.1803477   0.6130083  )
        63           Au  tau(  63) = (   0.2291046  -0.0361554   0.6129607  )
        64           Au  tau(  64) = (  -0.3957908   0.6132739   0.6129471  )
        65           Au  tau(  65) = (  -0.2708208   0.3967658   0.6129688  )
        66           Au  tau(  66) = (  -0.1458636   0.1803200   0.6129569  )
        67           Au  tau(  67) = (  -0.0208823  -0.0361826   0.6129110  )

     number of k points=    12  Marzari-Vanderbilt smearing, width (Ry)=  0.0200
                       cart. coord. in units 2pi/alat
        k(    1) = (   0.2500000   0.4330127   0.1111111), wk =   0.1666667
        k(    2) = (   0.2500000  -0.1443376   0.1111111), wk =   0.1666667
        k(    3) = (  -0.2500000  -0.4330127   0.1111111), wk =   0.1666667
        k(    4) = (  -0.2500000   0.4330127  -0.1111111), wk =   0.1666667
        k(    5) = (   0.2500000  -0.4330127  -0.1111111), wk =   0.1666667
        k(    6) = (   0.5000000   0.0000000   0.1111111), wk =   0.1666667
        k(    7) = (  -0.5000000   0.0000000   0.1111111), wk =   0.1666667
        k(    8) = (  -0.2500000   0.1443376   0.1111111), wk =   0.1666667
        k(    9) = (  -0.2500000  -0.1443376  -0.1111111), wk =   0.1666667
        k(   10) = (   0.2500000   0.1443376  -0.1111111), wk =   0.1666667
        k(   11) = (   0.0000000  -0.2886751   0.1111111), wk =   0.1666667
        k(   12) = (   0.0000000   0.2886751   0.1111111), wk =   0.1666667

     Dense  grid:  3097177 G-vectors     FFT dimensions: ( 150, 150, 360)

     Smooth grid:  1095093 G-vectors     FFT dimensions: ( 108, 108, 240)

     Largest allocated arrays     est. size (Mb)     dimensions
        Kohn-Sham Wavefunctions        28.01 Mb     (    4299,  427)
        NL pseudopotentials            55.23 Mb     (    4299,  842)
        Each V/rho on FFT grid          4.12 Mb     (  270000)
        Each G-vector array             0.74 Mb     (   96788)
        G-vector shells                 0.16 Mb     (   21404)
     Largest temporary arrays     est. size (Mb)     dimensions
        Auxiliary wavefunctions       112.04 Mb     (    4299, 1708)
        Each subspace H/S matrix       44.51 Mb     (    1708, 1708)
        Each <psi_i|beta_j> matrix      5.49 Mb     (     842,  427)
        Arrays for rho mixing          32.96 Mb     (  270000,    8)

     Initial potential from superposition of free atoms
     Check: negative starting charge=   -1.730322

     starting charge  711.25682, renormalised to  712.00000

     negative rho (up, down):  1.732E+00 0.000E+00


     ************************************************************************
     *
     * You are using vdW-DF for exchange-correlation in this calculation.
     * Please cite the following three references that made this development
     * possible:
     *
     *   M. Dion, H. Rydberg, E. Schroder, D. C. Langreth, and
     *   B. I. Lundqvist, Phys. Rev. Lett. 92, 246401 (2004).
     *
     *   T. Thonhauser, V. R. Cooper, S. Li, A. Puzder, P. Hyldgaard, and
     *   D. C. Langreth, Phys. Rev. B 76, 125112 (2007).
     *
     *   G. Roman-Perez and J. M. Soler, Phys. Rev. Lett. 103, 096102 (2009).
     *
     *
     * If you are using vdW-DF2, please also cite:
     *
     *   K. Lee, E. D. Murray, L. Kong, B. I. Lundqvist, and
     *   D. C. Langreth, Phys. Rev. B 82, 081101(R) (2010).
     *
     *
     * If you are calculating the stress with vdW-DF, please also cite:
     *
     *   R. Sabatini, E. Kucukbenli, B. Kolb, T. Thonhauser, and
     *   S. de Gironcoli, J. Phys.: Condens. Matter 24, 424209 (2012).
     *
     ************************************************************************

     Carrying out vdW-DF run using the following parameters:

     Nqs =      20    Nr_points =    1024   r_max =   100.000
     q_mesh =
               0.00001000     0.04494208     0.09755937     0.15916263
               0.23128650     0.31572767     0.41458969     0.53033537
               0.66584808     0.82450364     1.01025438     1.22772762
               1.48234092     1.78043706     2.12944203     2.53805004
               3.01644009     3.57652955     4.23227104     5.00000000

     Gradients computed in reciprocal space

     ************************************************************************


     Starting wfc are  582 randomized atomic wfcs

     total cpu time spent up to now is      165.9 secs

     Self-consistent Calculation

     iteration #  1     ecut=    50.00 Ry     beta=0.70
     Davidson diagonalization with overlap
     ethr =  1.00E-02,  avg # of iterations =  3.0

     Threshold (ethr) on eigenvalues was too large:
     Diagonalizing with lowered threshold

     Davidson diagonalization with overlap
     ethr =  3.30E-04,  avg # of iterations =  3.8

     negative rho (up, down):  1.727E+00 0.000E+00

     total cpu time spent up to now is      771.6 secs

     total energy              =   -6602.83406767 Ry
     Harris-Foulkes estimate   =   -6604.97984788 Ry
     estimated scf accuracy    <       2.69500832 Ry

     iteration #  2     ecut=    50.00 Ry     beta=0.70
     Davidson diagonalization with overlap
     ethr =  3.79E-04,  avg # of iterations = 11.7

     negative rho (up, down):  1.727E+00 0.000E+00

     total cpu time spent up to now is     1584.6 secs

     total energy              =   -6597.50087292 Ry
     Harris-Foulkes estimate   =   -6609.65981435 Ry
     estimated scf accuracy    <      65.36377133 Ry

     iteration #  3     ecut=    50.00 Ry     beta=0.70
     Davidson diagonalization with overlap
     ethr =  3.79E-04,  avg # of iterations =  6.3

     negative rho (up, down):  1.737E+00 0.000E+00

     total cpu time spent up to now is     2151.2 secs

     total energy              =   -6603.15706605 Ry
     Harris-Foulkes estimate   =   -6605.00238629 Ry
     estimated scf accuracy    <       8.36306389 Ry

     iteration #  4     ecut=    50.00 Ry     beta=0.70
     Davidson diagonalization with overlap
     ethr =  3.79E-04,  avg # of iterations =  5.4

     negative rho (up, down):  1.739E+00 0.000E+00

     total cpu time spent up to now is     2499.6 secs

     total energy              =   -6603.86408436 Ry
     Harris-Foulkes estimate   =   -6604.80645007 Ry
     estimated scf accuracy    <       6.19630044 Ry

     iteration #  5     ecut=    50.00 Ry     beta=0.70
     Davidson diagonalization with overlap
     ethr =  3.79E-04,  avg # of iterations =  6.3

     negative rho (up, down):  1.747E+00 0.000E+00

     total cpu time spent up to now is     2856.3 secs

     total energy              =   -6604.12684585 Ry
     Harris-Foulkes estimate   =   -6604.73651634 Ry
     estimated scf accuracy    <       5.66006743 Ry

     iteration #  6     ecut=    50.00 Ry     beta=0.70
     Davidson diagonalization with overlap
     ethr =  3.79E-04,  avg # of iterations =  3.2

     negative rho (up, down):  1.752E+00 0.000E+00

     total cpu time spent up to now is     3138.8 secs

     total energy              =   -6604.38731936 Ry
     Harris-Foulkes estimate   =   -6604.44189239 Ry
     estimated scf accuracy    <       0.19375979 Ry

     iteration #  7     ecut=    50.00 Ry     beta=0.70
     Davidson diagonalization with overlap
     ethr =  2.72E-05,  avg # of iterations =  8.4

     negative rho (up, down):  1.754E+00 0.000E+00

     total cpu time spent up to now is     3550.4 secs

     total energy              =   -6604.39768126 Ry
     Harris-Foulkes estimate   =   -6604.42753609 Ry
     estimated scf accuracy    <       0.14211358 Ry

     iteration #  8     ecut=    50.00 Ry     beta=0.70
     Davidson diagonalization with overlap
     ethr =  2.00E-05,  avg # of iterations =  3.3

     negative rho (up, down):  1.755E+00 0.000E+00

     total cpu time spent up to now is     3856.3 secs

     total energy              =   -6604.40092726 Ry
     Harris-Foulkes estimate   =   -6604.41495436 Ry
     estimated scf accuracy    <       0.06010033 Ry

     iteration #  9     ecut=    50.00 Ry     beta=0.70
     Davidson diagonalization with overlap
     ethr =  8.44E-06,  avg # of iterations =  4.8

     negative rho (up, down):  1.756E+00 0.000E+00

     total cpu time spent up to now is     4189.0 secs

     total energy              =   -6604.40061476 Ry
     Harris-Foulkes estimate   =   -6604.40723181 Ry
     estimated scf accuracy    <       0.02603100 Ry

     iteration # 10     ecut=    50.00 Ry     beta=0.70
     Davidson diagonalization with overlap
     ethr =  3.66E-06,  avg # of iterations =  5.4

     negative rho (up, down):  1.757E+00 0.000E+00

     total cpu time spent up to now is     4521.7 secs

     total energy              =   -6604.40028060 Ry
     Harris-Foulkes estimate   =   -6604.40305835 Ry
     estimated scf accuracy    <       0.00995732 Ry

     iteration # 11     ecut=    50.00 Ry     beta=0.70
     Davidson diagonalization with overlap
     ethr =  1.40E-06,  avg # of iterations =  5.3

     negative rho (up, down):  1.757E+00 0.000E+00

     total cpu time spent up to now is     4860.0 secs

     total energy              =   -6604.40009486 Ry
     Harris-Foulkes estimate   =   -6604.40148167 Ry
     estimated scf accuracy    <       0.00495717 Ry

     iteration # 12     ecut=    50.00 Ry     beta=0.70
     Davidson diagonalization with overlap
     ethr =  6.96E-07,  avg # of iterations =  4.9

     negative rho (up, down):  1.757E+00 0.000E+00

     total cpu time spent up to now is     5187.1 secs

     total energy              =   -6604.40015563 Ry
     Harris-Foulkes estimate   =   -6604.40061485 Ry
     estimated scf accuracy    <       0.00087818 Ry

     iteration # 13     ecut=    50.00 Ry     beta=0.70
     Davidson diagonalization with overlap
     ethr =  1.23E-07,  avg # of iterations =  4.8

     negative rho (up, down):  1.757E+00 0.000E+00

     total cpu time spent up to now is     5526.9 secs

     total energy              =   -6604.40031996 Ry
     Harris-Foulkes estimate   =   -6604.40042149 Ry
     estimated scf accuracy    <       0.00029070 Ry

     iteration # 14     ecut=    50.00 Ry     beta=0.70
     Davidson diagonalization with overlap
     ethr =  4.08E-08,  avg # of iterations =  2.0

     negative rho (up, down):  1.757E+00 0.000E+00

     total cpu time spent up to now is     5813.1 secs

     total energy              =   -6604.40035619 Ry
     Harris-Foulkes estimate   =   -6604.40039504 Ry
     estimated scf accuracy    <       0.00013809 Ry

     iteration # 15     ecut=    50.00 Ry     beta=0.70
     Davidson diagonalization with overlap
     ethr =  1.94E-08,  avg # of iterations =  2.0

     negative rho (up, down):  1.757E+00 0.000E+00

     total cpu time spent up to now is     6098.3 secs

     total energy              =   -6604.40035417 Ry
     Harris-Foulkes estimate   =   -6604.40039938 Ry
     estimated scf accuracy    <       0.00024424 Ry

     iteration # 16     ecut=    50.00 Ry     beta=0.70
     Davidson diagonalization with overlap
     ethr =  1.94E-08,  avg # of iterations =  2.0

     negative rho (up, down):  1.757E+00 0.000E+00

     total cpu time spent up to now is     6373.9 secs

     total energy              =   -6604.40035864 Ry
     Harris-Foulkes estimate   =   -6604.40039893 Ry
     estimated scf accuracy    <       0.00040950 Ry

     iteration # 17     ecut=    50.00 Ry     beta=0.70
     Davidson diagonalization with overlap
     ethr =  1.94E-08,  avg # of iterations =  1.0

     negative rho (up, down):  1.757E+00 0.000E+00

     total cpu time spent up to now is     6635.4 secs

     total energy              =   -6604.40037838 Ry
     Harris-Foulkes estimate   =   -6604.40038081 Ry
     estimated scf accuracy    <       0.00000822 Ry

     iteration # 18     ecut=    50.00 Ry     beta=0.70
     Davidson diagonalization with overlap
     ethr =  1.15E-09,  avg # of iterations =  3.0

     negative rho (up, down):  1.757E+00 0.000E+00

     total cpu time spent up to now is     6987.7 secs

     total energy              =   -6604.40037766 Ry
     Harris-Foulkes estimate   =   -6604.40038289 Ry
     estimated scf accuracy    <       0.00002344 Ry

     iteration # 19     ecut=    50.00 Ry     beta=0.70
     Davidson diagonalization with overlap
     ethr =  1.15E-09,  avg # of iterations =  2.0

     negative rho (up, down):  1.757E+00 0.000E+00

     total cpu time spent up to now is     7324.7 secs

     total energy              =   -6604.40038012 Ry
     Harris-Foulkes estimate   =   -6604.40038052 Ry
     estimated scf accuracy    <       0.00000141 Ry

     iteration # 20     ecut=    50.00 Ry     beta=0.70
     Davidson diagonalization with overlap
     ethr =  1.97E-10,  avg # of iterations =  2.0

     negative rho (up, down):  1.757E+00 0.000E+00

     total cpu time spent up to now is     7602.5 secs

     total energy              =   -6604.40038033 Ry
     Harris-Foulkes estimate   =   -6604.40038041 Ry
     estimated scf accuracy    <       0.00000032 Ry

     iteration # 21     ecut=    50.00 Ry     beta=0.70
     Davidson diagonalization with overlap
     ethr =  4.55E-11,  avg # of iterations =  2.0

     negative rho (up, down):  1.757E+00 0.000E+00

     total cpu time spent up to now is     7904.2 secs

     total energy              =   -6604.40038040 Ry
     Harris-Foulkes estimate   =   -6604.40038041 Ry
     estimated scf accuracy    <       0.00000008 Ry

     iteration # 22     ecut=    50.00 Ry     beta=0.70
     Davidson diagonalization with overlap
     ethr =  1.07E-11,  avg # of iterations =  2.0

     negative rho (up, down):  1.757E+00 0.000E+00

     total cpu time spent up to now is     8201.8 secs

     total energy              =   -6604.40038041 Ry
     Harris-Foulkes estimate   =   -6604.40038042 Ry
     estimated scf accuracy    <       0.00000005 Ry

     iteration # 23     ecut=    50.00 Ry     beta=0.70
     Davidson diagonalization with overlap
     ethr =  6.39E-12,  avg # of iterations =  3.0

     negative rho (up, down):  1.757E+00 0.000E+00

     total cpu time spent up to now is     8505.0 secs

     total energy              =   -6604.40038041 Ry
     Harris-Foulkes estimate   =   -6604.40038042 Ry
     estimated scf accuracy    <       0.00000001 Ry

     iteration # 24     ecut=    50.00 Ry     beta=0.70
     Davidson diagonalization with overlap
     ethr =  1.78E-12,  avg # of iterations =  3.0

     negative rho (up, down):  1.757E+00 0.000E+00

     total cpu time spent up to now is     8829.8 secs

     total energy              =   -6604.40038042 Ry
     Harris-Foulkes estimate   =   -6604.40038042 Ry
     estimated scf accuracy    <       0.00000002 Ry

     iteration # 25     ecut=    50.00 Ry     beta=0.70
     Davidson diagonalization with overlap
     ethr =  1.78E-12,  avg # of iterations =  2.0

     negative rho (up, down):  1.757E+00 0.000E+00

     total cpu time spent up to now is     9119.8 secs

     End of self-consistent calculation

          k = 0.2500 0.4330 0.1111 (136853 PWs)   bands (ev):

   -18.7537  -6.8652  -6.4469  -6.0505  -6.0477  -5.3760  -5.0403  -5.0378
    -5.0093  -4.9972  -4.6393  -4.6371  -4.5400  -4.5392  -4.5255  -4.5011
    -4.4932  -4.3744  -4.3702  -4.3476  -4.3054  -4.3037  -4.2441  -4.2352
    -4.2333  -4.2287  -4.2082  -4.2051  -4.1990  -4.1476  -4.1282  -4.1013
    -4.0978  -4.0880  -4.0863  -4.0649  -4.0631  -4.0412  -4.0336  -4.0320
    -4.0079  -3.9550  -3.9542  -3.9080  -3.9038  -3.8549  -3.8488  -3.8009
    -3.7941  -3.7915  -3.7900  -3.7557  -3.7289  -3.7219  -3.7147  -3.7108
    -3.7076  -3.6941  -3.6779  -3.6692  -3.6186  -3.6120  -3.6071  -3.5838
    -3.5761  -3.5242  -3.5020  -3.4801  -3.4700  -3.4569  -3.4420  -3.4269
    -3.4220  -3.3870  -3.3545  -3.3443  -3.3342  -3.3221  -3.2879  -3.2800
    -3.2531  -3.2349  -3.2121  -3.2044  -3.1990  -3.1948  -3.1902  -3.1783
    -3.1766  -3.1714  -3.1504  -3.1215  -3.0881  -3.0854  -3.0760  -3.0660
    -3.0453  -3.0420  -3.0327  -3.0095  -2.9698  -2.9647  -2.9603  -2.9240
    -2.9130  -2.9041  -2.9016  -2.8795  -2.8686  -2.8429  -2.8127  -2.8004
    -2.7892  -2.7779  -2.7662  -2.7588  -2.7175  -2.7130  -2.6810  -2.6612
    -2.6551  -2.6399  -2.6322  -2.6258  -2.6181  -2.6123  -2.5953  -2.5929
    -2.5467  -2.5447  -2.5414  -2.5311  -2.5276  -2.5203  -2.5178  -2.5143
    -2.5088  -2.5050  -2.5021  -2.5005  -2.4916  -2.4830  -2.4633  -2.4575
    -2.4514  -2.4490  -2.4487  -2.4450  -2.4347  -2.4226  -2.4186  -2.4074
    -2.4025  -2.3839  -2.3821  -2.3787  -2.3750  -2.3718  -2.3706  -2.3589
    -2.3500  -2.3484  -2.3413  -2.3267  -2.3086  -2.3024  -2.2646  -2.2639
    -2.2462  -2.2411  -2.2174  -2.2097  -2.1930  -2.1848  -2.1734  -2.1641
    -2.1376  -2.1302  -2.1190  -2.1096  -2.1082  -2.1032  -2.0986  -2.0951
    -2.0686  -2.0656  -2.0549  -2.0049  -1.9956  -1.9928  -1.9906  -1.9794
    -1.9607  -1.9364  -1.9333  -1.9100  -1.9043  -1.8524  -1.8484  -1.8171
    -1.8037  -1.7960  -1.7460  -1.7397  -1.7341  -1.7257  -1.7181  -1.7134
    -1.7091  -1.7044  -1.6994  -1.6584  -1.6465  -1.6332  -1.6319  -1.6268
    -1.6196  -1.6108  -1.5820  -1.5794  -1.5683  -1.5617  -1.5609  -1.5525
    -1.5475  -1.5450  -1.5350  -1.5207  -1.5166  -1.4910  -1.4746  -1.4663
    -1.4630  -1.4498  -1.4294  -1.3997  -1.3892  -1.3647  -1.3607  -1.3577
    -1.3324  -1.2924  -1.2794  -1.2754  -1.2713  -1.2694  -1.2663  -1.2602
    -1.2443  -1.2404  -1.2118  -1.1963  -1.1792  -1.1714  -1.1667  -1.1609
    -1.1572  -1.1480  -1.1405  -1.1375  -1.1350  -1.1311  -1.1003  -1.0960
    -1.0942  -1.0912  -1.0725  -1.0651  -1.0583  -1.0336  -1.0299  -1.0240
    -0.9829  -0.9767  -0.9712  -0.9423  -0.9332  -0.9253  -0.9216  -0.9165
    -0.9135  -0.9112  -0.9081  -0.8990  -0.8931  -0.8752  -0.8723  -0.8692
    -0.8669  -0.8644  -0.8380  -0.8294  -0.8287  -0.8139  -0.8004  -0.7960
    -0.7917  -0.7830  -0.7479  -0.7293  -0.7252  -0.7187  -0.7158  -0.7113
    -0.7100  -0.6943  -0.6900  -0.6866  -0.6803  -0.6789  -0.6759  -0.6483
    -0.6397  -0.6365  -0.6308  -0.6282  -0.6249  -0.6215  -0.6154  -0.6029
    -0.6022  -0.6004  -0.5700  -0.5606  -0.5562  -0.5512  -0.5454  -0.5387
    -0.4756  -0.4670  -0.4659  -0.4645  -0.4575  -0.4508  -0.4206  -0.4103
    -0.4070  -0.3763  -0.3714  -0.3580  -0.2529  -0.2486  -0.1504   0.2613
     0.2624   0.2689   0.2696   0.3350   0.3400   0.7152   0.7183   0.7594
     0.7610   0.8822   0.9525   1.0624   1.0661   1.2892   1.2964   1.9152
     1.9177   2.0766   2.0791   2.2136   2.2153   2.3133   2.3137   2.4673
     2.7054   2.7266   2.8298   3.0500   3.0600   3.1338   3.1354   3.2353
     3.2523   3.4610   3.4719   3.5058   3.7068   3.7125   3.7688   3.7774
     4.0229   4.0362   4.0407   4.2755   4.3163   4.3213   4.3642   4.6900
     4.7052   4.7306   4.8619   5.0411   5.0422   5.1145   5.1319   5.6084
     5.8011   5.8244   5.8369   5.8676   5.8947   5.9013   5.9116   6.0036
     6.0178   6.0349   6.0676   6.0712   6.0989   6.1104   6.1218   6.1279
     6.2433   6.5743   6.6142   6.7228   6.7556   6.7713   6.7790   6.7904
     6.8013   6.8951   6.9703

          k = 0.2500-0.1443 0.1111 (136898 PWs)   bands (ev):

   -18.7537  -6.8674  -6.6542  -5.8669  -5.5797  -5.5175  -5.5154  -4.9794
    -4.9777  -4.8524  -4.8460  -4.6949  -4.6692  -4.5988  -4.5729  -4.5647
    -4.5318  -4.5313  -4.4033  -4.3625  -4.3608  -4.3045  -4.2846  -4.2804
    -4.1791  -4.1778  -4.1446  -4.1413  -4.1411  -4.1176  -4.0935  -4.0929
    -4.0012  -3.9872  -3.9859  -3.9683  -3.9513  -3.9483  -3.9392  -3.9364
    -3.9266  -3.8975  -3.8940  -3.8931  -3.8913  -3.8654  -3.8607  -3.8443
    -3.8413  -3.8360  -3.7974  -3.7910  -3.7641  -3.7468  -3.7401  -3.7331
    -3.7325  -3.6610  -3.6590  -3.6371  -3.6278  -3.6217  -3.5604  -3.5529
    -3.5490  -3.5373  -3.5162  -3.5108  -3.5090  -3.5079  -3.4151  -3.3538
    -3.3510  -3.3333  -3.3300  -3.3094  -3.3060  -3.2907  -3.2815  -3.2613
    -3.2305  -3.2256  -3.2140  -3.2091  -3.1873  -3.1499  -3.1465  -3.1253
    -3.1206  -3.1137  -3.0816  -3.0798  -3.0710  -3.0672  -3.0558  -3.0418
    -3.0186  -3.0164  -2.9976  -2.9935  -2.9914  -2.9882  -2.9718  -2.9149
    -2.9127  -2.9024  -2.8794  -2.8744  -2.8232  -2.8103  -2.7935  -2.7864
    -2.7785  -2.7757  -2.7669  -2.7427  -2.7365  -2.7298  -2.7161  -2.6962
    -2.6904  -2.6845  -2.6691  -2.6666  -2.6621  -2.6566  -2.6526  -2.6440
    -2.6411  -2.5962  -2.5699  -2.5661  -2.5463  -2.5369  -2.5329  -2.5275
    -2.5227  -2.5209  -2.5179  -2.4942  -2.4907  -2.4829  -2.4797  -2.4782
    -2.4657  -2.4406  -2.4384  -2.4353  -2.4332  -2.4300  -2.3869  -2.3620
    -2.3584  -2.3547  -2.3493  -2.3390  -2.3300  -2.3260  -2.3105  -2.3099
    -2.2861  -2.2770  -2.2759  -2.2615  -2.2580  -2.2535  -2.2287  -2.2222
    -2.1916  -2.1807  -2.1781  -2.1770  -2.1728  -2.1692  -2.1661  -2.1629
    -2.1604  -2.1576  -2.1511  -2.1410  -2.1357  -2.0200  -2.0145  -1.9974
    -1.9768  -1.9739  -1.9656  -1.9648  -1.9565  -1.9504  -1.9464  -1.9449
    -1.9362  -1.9242  -1.9180  -1.9175  -1.9066  -1.8995  -1.8907  -1.8811
    -1.8688  -1.8517  -1.8471  -1.8233  -1.8193  -1.8103  -1.8001  -1.7828
    -1.7796  -1.7771  -1.7624  -1.7482  -1.7462  -1.7397  -1.7377  -1.7170
    -1.7150  -1.7005  -1.6953  -1.6675  -1.6593  -1.6497  -1.6147  -1.6046
    -1.5937  -1.5895  -1.5808  -1.5628  -1.5587  -1.5343  -1.5293  -1.5242
    -1.4964  -1.4866  -1.4830  -1.4669  -1.4658  -1.4464  -1.4418  -1.4308
    -1.4148  -1.4101  -1.4052  -1.3501  -1.3447  -1.3364  -1.3319  -1.3222
    -1.3160  -1.3022  -1.3019  -1.2844  -1.2701  -1.2489  -1.2422  -1.2303
    -1.2044  -1.1954  -1.1911  -1.1834  -1.1807  -1.1783  -1.1766  -1.1745
    -1.1576  -1.1389  -1.1325  -1.1207  -1.1148  -1.1133  -1.1056  -1.0963
    -1.0750  -1.0658  -1.0522  -1.0506  -0.9623  -0.9521  -0.9455  -0.9417
    -0.9364  -0.9339  -0.9273  -0.9157  -0.9098  -0.8947  -0.8901  -0.8781
    -0.8761  -0.8724  -0.8513  -0.8455  -0.8416  -0.8356  -0.7691  -0.7611
    -0.7458  -0.7318  -0.7243  -0.7195  -0.7166  -0.7145  -0.7127  -0.7043
    -0.7004  -0.6855  -0.6685  -0.6587  -0.6315  -0.6285  -0.6200  -0.6161
    -0.6126  -0.6054  -0.6023  -0.5996  -0.5976  -0.5829  -0.5792  -0.5775
    -0.5609  -0.5481  -0.5467  -0.5422  -0.5320  -0.5288  -0.5126  -0.4814
    -0.4800  -0.4717  -0.4654  -0.4055  -0.4022  -0.3704  -0.3677  -0.3138
    -0.3108  -0.3068  -0.2867  -0.2800  -0.0509  -0.0401   0.2922   0.2925
     0.3858   0.3981   0.5851   0.6104   0.6119   0.7383   0.7434   1.1719
     1.1743   1.1909   1.4577   1.4823   1.4846   1.7624   1.7708   1.8350
     1.8399   1.8655   1.8726   2.0936   2.0957   2.1839   2.1849   2.2741
     2.3252   2.3313   2.4879   2.5893   3.0162   3.0268   3.0285   3.0315
     3.0823   3.0865   3.3758   3.3777   3.6580   3.6617   3.7805   4.0734
     4.1082   4.1156   4.3485   4.3629   4.4091   4.4181   4.5073   4.6181
     4.6294   4.7409   4.7438   5.0427   5.1016   5.1184   5.2967   5.3150
     5.4812   5.4968   5.5046   5.5299   5.5328   5.5859   5.5939   5.6599
     6.0116   6.0680   6.1938   6.2893   6.3239   6.3347   6.3430   6.3467
     6.3522   6.5854   6.5910   6.6294   6.7612   6.8219   6.8425   6.8832
     6.9183   7.1094   7.1489

          k =-0.2500-0.4330 0.1111 (136853 PWs)   bands (ev):

   -18.7537  -6.8652  -6.4469  -6.0505  -6.0477  -5.3760  -5.0403  -5.0378
    -5.0093  -4.9972  -4.6393  -4.6371  -4.5400  -4.5392  -4.5255  -4.5011
    -4.4932  -4.3744  -4.3702  -4.3476  -4.3054  -4.3037  -4.2441  -4.2352
    -4.2333  -4.2287  -4.2082  -4.2051  -4.1990  -4.1476  -4.1282  -4.1013
    -4.0978  -4.0880  -4.0863  -4.0649  -4.0631  -4.0412  -4.0336  -4.0320
    -4.0079  -3.9550  -3.9542  -3.9080  -3.9038  -3.8549  -3.8488  -3.8009
    -3.7941  -3.7915  -3.7900  -3.7557  -3.7289  -3.7219  -3.7147  -3.7108
    -3.7076  -3.6941  -3.6779  -3.6692  -3.6186  -3.6120  -3.6071  -3.5838
    -3.5761  -3.5242  -3.5020  -3.4801  -3.4700  -3.4569  -3.4420  -3.4269
    -3.4220  -3.3870  -3.3545  -3.3443  -3.3342  -3.3221  -3.2879  -3.2800
    -3.2531  -3.2349  -3.2121  -3.2044  -3.1990  -3.1948  -3.1902  -3.1783
    -3.1766  -3.1714  -3.1504  -3.1215  -3.0881  -3.0854  -3.0760  -3.0660
    -3.0453  -3.0420  -3.0327  -3.0095  -2.9698  -2.9647  -2.9603  -2.9240
    -2.9130  -2.9041  -2.9016  -2.8795  -2.8686  -2.8429  -2.8127  -2.8004
    -2.7892  -2.7779  -2.7662  -2.7588  -2.7175  -2.7130  -2.6810  -2.6612
    -2.6551  -2.6399  -2.6322  -2.6258  -2.6181  -2.6123  -2.5953  -2.5929
    -2.5467  -2.5447  -2.5414  -2.5311  -2.5276  -2.5203  -2.5178  -2.5143
    -2.5088  -2.5050  -2.5021  -2.5005  -2.4916  -2.4830  -2.4633  -2.4575
    -2.4514  -2.4490  -2.4487  -2.4450  -2.4347  -2.4226  -2.4186  -2.4074
    -2.4025  -2.3839  -2.3821  -2.3787  -2.3750  -2.3718  -2.3706  -2.3589
    -2.3500  -2.3484  -2.3413  -2.3267  -2.3086  -2.3024  -2.2646  -2.2639
    -2.2462  -2.2411  -2.2174  -2.2097  -2.1930  -2.1848  -2.1734  -2.1641
    -2.1376  -2.1302  -2.1190  -2.1096  -2.1082  -2.1032  -2.0986  -2.0951
    -2.0686  -2.0656  -2.0549  -2.0049  -1.9956  -1.9928  -1.9906  -1.9794
    -1.9607  -1.9364  -1.9333  -1.9100  -1.9043  -1.8524  -1.8484  -1.8171
    -1.8037  -1.7960  -1.7460  -1.7397  -1.7341  -1.7257  -1.7181  -1.7134
    -1.7091  -1.7044  -1.6994  -1.6584  -1.6465  -1.6332  -1.6319  -1.6268
    -1.6196  -1.6108  -1.5820  -1.5794  -1.5683  -1.5617  -1.5609  -1.5525
    -1.5475  -1.5450  -1.5350  -1.5207  -1.5166  -1.4910  -1.4746  -1.4663
    -1.4630  -1.4498  -1.4294  -1.3997  -1.3892  -1.3647  -1.3607  -1.3577
    -1.3324  -1.2924  -1.2794  -1.2754  -1.2713  -1.2694  -1.2663  -1.2602
    -1.2443  -1.2404  -1.2118  -1.1963  -1.1792  -1.1714  -1.1667  -1.1609
    -1.1572  -1.1480  -1.1405  -1.1375  -1.1350  -1.1311  -1.1003  -1.0960
    -1.0942  -1.0912  -1.0725  -1.0651  -1.0583  -1.0336  -1.0299  -1.0240
    -0.9829  -0.9767  -0.9712  -0.9423  -0.9332  -0.9253  -0.9216  -0.9165
    -0.9135  -0.9112  -0.9081  -0.8990  -0.8931  -0.8752  -0.8723  -0.8692
    -0.8669  -0.8644  -0.8380  -0.8294  -0.8287  -0.8139  -0.8004  -0.7960
    -0.7917  -0.7830  -0.7479  -0.7293  -0.7252  -0.7187  -0.7158  -0.7113
    -0.7100  -0.6943  -0.6900  -0.6866  -0.6803  -0.6789  -0.6759  -0.6483
    -0.6397  -0.6365  -0.6308  -0.6282  -0.6249  -0.6215  -0.6154  -0.6029
    -0.6022  -0.6004  -0.5700  -0.5606  -0.5562  -0.5512  -0.5454  -0.5387
    -0.4756  -0.4670  -0.4659  -0.4645  -0.4575  -0.4508  -0.4206  -0.4103
    -0.4070  -0.3763  -0.3714  -0.3580  -0.2529  -0.2486  -0.1504   0.2613
     0.2624   0.2689   0.2696   0.3350   0.3400   0.7152   0.7183   0.7594
     0.7610   0.8822   0.9525   1.0624   1.0661   1.2892   1.2964   1.9152
     1.9177   2.0766   2.0791   2.2136   2.2153   2.3133   2.3137   2.4673
     2.7054   2.7266   2.8298   3.0500   3.0600   3.1338   3.1354   3.2353
     3.2523   3.4610   3.4719   3.5058   3.7068   3.7125   3.7688   3.7774
     4.0229   4.0362   4.0407   4.2755   4.3163   4.3213   4.3642   4.6900
     4.7052   4.7306   4.8619   5.0411   5.0422   5.1146   5.1319   5.6083
     5.8011   5.8244   5.8369   5.8676   5.8947   5.9013   5.9117   6.0036
     6.0179   6.0349   6.0676   6.0712   6.0989   6.1104   6.1218   6.1279
     6.2431   6.5739   6.6142   6.7228   6.7562   6.7708   6.7785   6.7876
     6.8044   6.8952   6.9720

          k =-0.2500 0.4330-0.1111 (136853 PWs)   bands (ev):

   -18.7537  -6.8652  -6.4470  -6.0517  -6.0466  -5.3760  -5.0410  -5.0373
    -5.0101  -4.9963  -4.6391  -4.6371  -4.5397  -4.5394  -4.5254  -4.5011
    -4.4932  -4.3753  -4.3698  -4.3476  -4.3052  -4.3040  -4.2439  -4.2350
    -4.2338  -4.2284  -4.2081  -4.2048  -4.1996  -4.1478  -4.1276  -4.1009
    -4.0978  -4.0876  -4.0865  -4.0652  -4.0630  -4.0412  -4.0337  -4.0322
    -4.0079  -3.9553  -3.9540  -3.9076  -3.9039  -3.8545  -3.8488  -3.8007
    -3.7941  -3.7915  -3.7899  -3.7559  -3.7288  -3.7220  -3.7156  -3.7106
    -3.7074  -3.6947  -3.6783  -3.6694  -3.6189  -3.6118  -3.6075  -3.5836
    -3.5755  -3.5247  -3.5020  -3.4806  -3.4699  -3.4558  -3.4420  -3.4267
    -3.4210  -3.3852  -3.3549  -3.3448  -3.3346  -3.3223  -3.2887  -3.2801
    -3.2531  -3.2345  -3.2132  -3.2053  -3.1993  -3.1950  -3.1906  -3.1775
    -3.1761  -3.1711  -3.1494  -3.1215  -3.0880  -3.0855  -3.0755  -3.0654
    -3.0452  -3.0424  -3.0328  -3.0087  -2.9693  -2.9650  -2.9614  -2.9237
    -2.9129  -2.9036  -2.9020  -2.8810  -2.8689  -2.8429  -2.8122  -2.8001
    -2.7894  -2.7779  -2.7659  -2.7585  -2.7178  -2.7124  -2.6811  -2.6609
    -2.6551  -2.6408  -2.6324  -2.6261  -2.6179  -2.6124  -2.5956  -2.5929
    -2.5470  -2.5445  -2.5411  -2.5314  -2.5274  -2.5201  -2.5178  -2.5141
    -2.5094  -2.5051  -2.5021  -2.5002  -2.4908  -2.4825  -2.4635  -2.4578
    -2.4512  -2.4489  -2.4486  -2.4450  -2.4350  -2.4235  -2.4191  -2.4077
    -2.4022  -2.3838  -2.3825  -2.3788  -2.3748  -2.3716  -2.3703  -2.3587
    -2.3498  -2.3486  -2.3416  -2.3271  -2.3086  -2.3029  -2.2651  -2.2635
    -2.2461  -2.2413  -2.2169  -2.2089  -2.1940  -2.1844  -2.1740  -2.1642
    -2.1373  -2.1300  -2.1181  -2.1091  -2.1084  -2.1021  -2.0988  -2.0950
    -2.0686  -2.0654  -2.0548  -2.0048  -1.9956  -1.9929  -1.9909  -1.9806
    -1.9593  -1.9367  -1.9328  -1.9105  -1.9044  -1.8528  -1.8478  -1.8181
    -1.8027  -1.7959  -1.7457  -1.7401  -1.7339  -1.7254  -1.7183  -1.7134
    -1.7094  -1.7048  -1.6994  -1.6604  -1.6465  -1.6330  -1.6323  -1.6266
    -1.6212  -1.6111  -1.5818  -1.5786  -1.5676  -1.5619  -1.5610  -1.5525
    -1.5474  -1.5443  -1.5351  -1.5210  -1.5161  -1.4914  -1.4746  -1.4664
    -1.4646  -1.4500  -1.4293  -1.3986  -1.3890  -1.3644  -1.3605  -1.3576
    -1.3326  -1.2927  -1.2792  -1.2754  -1.2710  -1.2697  -1.2655  -1.2597
    -1.2446  -1.2397  -1.2117  -1.1962  -1.1804  -1.1711  -1.1668  -1.1607
    -1.1571  -1.1485  -1.1403  -1.1374  -1.1347  -1.1310  -1.1004  -1.0954
    -1.0943  -1.0908  -1.0733  -1.0641  -1.0579  -1.0341  -1.0310  -1.0235
    -0.9839  -0.9788  -0.9720  -0.9429  -0.9338  -0.9249  -0.9206  -0.9166
    -0.9138  -0.9120  -0.9079  -0.8977  -0.8930  -0.8754  -0.8720  -0.8697
    -0.8667  -0.8646  -0.8381  -0.8293  -0.8285  -0.8132  -0.8026  -0.7951
    -0.7912  -0.7829  -0.7422  -0.7295  -0.7252  -0.7183  -0.7155  -0.7112
    -0.7100  -0.6974  -0.6895  -0.6859  -0.6802  -0.6789  -0.6758  -0.6477
    -0.6395  -0.6373  -0.6325  -0.6275  -0.6239  -0.6212  -0.6127  -0.6027
    -0.6011  -0.5985  -0.5763  -0.5602  -0.5562  -0.5519  -0.5457  -0.5355
    -0.4756  -0.4671  -0.4660  -0.4645  -0.4573  -0.4527  -0.4209  -0.4103
    -0.4069  -0.3763  -0.3714  -0.3573  -0.2551  -0.2480  -0.1510   0.2614
     0.2626   0.2687   0.2697   0.3342   0.3403   0.7158   0.7180   0.7592
     0.7609   0.8822   0.9526   1.0619   1.0669   1.2903   1.2952   1.9144
     1.9183   2.0758   2.0801   2.2130   2.2157   2.3131   2.3139   2.4672
     2.7057   2.7266   2.8300   3.0502   3.0600   3.1340   3.1353   3.2354
     3.2523   3.4624   3.4705   3.5067   3.7064   3.7129   3.7685   3.7773
     4.0216   4.0366   4.0410   4.2761   4.3158   4.3208   4.3645   4.6897
     4.7056   4.7295   4.8619   5.0409   5.0423   5.1157   5.1307   5.6078
     5.8013   5.8249   5.8378   5.8697   5.8948   5.9013   5.9098   6.0045
     6.0168   6.0343   6.0671   6.0711   6.1018   6.1074   6.1224   6.1279
     6.2436   6.5752   6.6126   6.7244   6.7544   6.7730   6.7769   6.7878
     6.8035   6.8949   6.9717

          k = 0.2500-0.4330-0.1111 (136853 PWs)   bands (ev):

   -18.7537  -6.8652  -6.4470  -6.0517  -6.0466  -5.3760  -5.0410  -5.0373
    -5.0101  -4.9963  -4.6391  -4.6371  -4.5397  -4.5394  -4.5254  -4.5011
    -4.4932  -4.3753  -4.3698  -4.3476  -4.3052  -4.3040  -4.2439  -4.2350
    -4.2338  -4.2284  -4.2081  -4.2048  -4.1996  -4.1478  -4.1276  -4.1009
    -4.0978  -4.0876  -4.0865  -4.0652  -4.0630  -4.0412  -4.0337  -4.0322
    -4.0079  -3.9553  -3.9539  -3.9076  -3.9039  -3.8545  -3.8488  -3.8007
    -3.7941  -3.7915  -3.7899  -3.7559  -3.7288  -3.7220  -3.7156  -3.7106
    -3.7074  -3.6947  -3.6783  -3.6694  -3.6189  -3.6118  -3.6075  -3.5836
    -3.5755  -3.5247  -3.5020  -3.4806  -3.4699  -3.4558  -3.4420  -3.4267
    -3.4210  -3.3852  -3.3549  -3.3448  -3.3346  -3.3223  -3.2887  -3.2801
    -3.2530  -3.2346  -3.2132  -3.2053  -3.1993  -3.1950  -3.1906  -3.1775
    -3.1761  -3.1711  -3.1494  -3.1215  -3.0880  -3.0855  -3.0755  -3.0654
    -3.0452  -3.0424  -3.0328  -3.0087  -2.9693  -2.9650  -2.9614  -2.9237
    -2.9129  -2.9036  -2.9020  -2.8810  -2.8689  -2.8429  -2.8122  -2.8001
    -2.7894  -2.7779  -2.7659  -2.7585  -2.7178  -2.7124  -2.6811  -2.6609
    -2.6551  -2.6408  -2.6324  -2.6261  -2.6179  -2.6124  -2.5956  -2.5929
    -2.5470  -2.5445  -2.5411  -2.5314  -2.5274  -2.5201  -2.5178  -2.5141
    -2.5094  -2.5051  -2.5021  -2.5002  -2.4908  -2.4825  -2.4635  -2.4578
    -2.4512  -2.4489  -2.4486  -2.4450  -2.4350  -2.4235  -2.4191  -2.4077
    -2.4022  -2.3838  -2.3825  -2.3788  -2.3748  -2.3716  -2.3703  -2.3587
    -2.3498  -2.3486  -2.3416  -2.3271  -2.3086  -2.3029  -2.2651  -2.2635
    -2.2461  -2.2413  -2.2169  -2.2089  -2.1940  -2.1844  -2.1740  -2.1642
    -2.1373  -2.1300  -2.1181  -2.1091  -2.1084  -2.1021  -2.0988  -2.0950
    -2.0686  -2.0654  -2.0548  -2.0048  -1.9956  -1.9929  -1.9909  -1.9806
    -1.9593  -1.9367  -1.9328  -1.9105  -1.9044  -1.8528  -1.8478  -1.8181
    -1.8027  -1.7959  -1.7457  -1.7401  -1.7339  -1.7254  -1.7183  -1.7134
    -1.7094  -1.7048  -1.6994  -1.6604  -1.6465  -1.6330  -1.6323  -1.6266
    -1.6212  -1.6111  -1.5818  -1.5786  -1.5676  -1.5619  -1.5610  -1.5525
    -1.5474  -1.5443  -1.5351  -1.5210  -1.5161  -1.4914  -1.4746  -1.4664
    -1.4646  -1.4500  -1.4293  -1.3986  -1.3890  -1.3644  -1.3605  -1.3576
    -1.3326  -1.2927  -1.2792  -1.2755  -1.2710  -1.2697  -1.2655  -1.2597
    -1.2446  -1.2397  -1.2117  -1.1962  -1.1804  -1.1711  -1.1668  -1.1607
    -1.1571  -1.1485  -1.1403  -1.1374  -1.1347  -1.1310  -1.1004  -1.0954
    -1.0943  -1.0908  -1.0733  -1.0641  -1.0579  -1.0341  -1.0310  -1.0235
    -0.9839  -0.9788  -0.9720  -0.9429  -0.9338  -0.9249  -0.9206  -0.9166
    -0.9138  -0.9120  -0.9079  -0.8977  -0.8930  -0.8754  -0.8720  -0.8697
    -0.8667  -0.8646  -0.8381  -0.8293  -0.8285  -0.8132  -0.8026  -0.7951
    -0.7912  -0.7829  -0.7422  -0.7295  -0.7252  -0.7183  -0.7155  -0.7112
    -0.7100  -0.6974  -0.6895  -0.6859  -0.6802  -0.6789  -0.6758  -0.6477
    -0.6395  -0.6373  -0.6325  -0.6275  -0.6239  -0.6212  -0.6127  -0.6027
    -0.6011  -0.5985  -0.5763  -0.5602  -0.5562  -0.5519  -0.5457  -0.5355
    -0.4756  -0.4671  -0.4660  -0.4645  -0.4573  -0.4527  -0.4209  -0.4103
    -0.4069  -0.3763  -0.3714  -0.3573  -0.2551  -0.2480  -0.1510   0.2614
     0.2626   0.2687   0.2697   0.3342   0.3403   0.7158   0.7180   0.7592
     0.7609   0.8822   0.9526   1.0619   1.0669   1.2903   1.2952   1.9144
     1.9183   2.0758   2.0801   2.2130   2.2157   2.3131   2.3139   2.4672
     2.7057   2.7266   2.8300   3.0502   3.0600   3.1340   3.1353   3.2354
     3.2523   3.4624   3.4705   3.5067   3.7064   3.7129   3.7685   3.7773
     4.0216   4.0366   4.0410   4.2761   4.3158   4.3208   4.3645   4.6897
     4.7056   4.7295   4.8619   5.0409   5.0423   5.1157   5.1307   5.6079
     5.8013   5.8249   5.8378   5.8697   5.8948   5.9013   5.9098   6.0045
     6.0167   6.0343   6.0671   6.0711   6.1018   6.1074   6.1224   6.1279
     6.2438   6.5757   6.6125   6.7243   6.7539   6.7732   6.7775   6.7904
     6.8005   6.8949   6.9702

          k = 0.5000 0.0000 0.1111 (136853 PWs)   bands (ev):

   -18.7537  -6.8651  -6.4473  -6.0515  -6.0466  -5.3764  -5.0403  -5.0371
    -5.0098  -4.9966  -4.6395  -4.6372  -4.5400  -4.5395  -4.5255  -4.5011
    -4.4934  -4.3747  -4.3699  -4.3476  -4.3051  -4.3041  -4.2429  -4.2351
    -4.2323  -4.2278  -4.2079  -4.2046  -4.2002  -4.1464  -4.1289  -4.1017
    -4.0965  -4.0875  -4.0866  -4.0662  -4.0632  -4.0405  -4.0343  -4.0327
    -4.0094  -3.9564  -3.9538  -3.9081  -3.9028  -3.8561  -3.8514  -3.8049
    -3.7937  -3.7909  -3.7906  -3.7566  -3.7261  -3.7238  -3.7107  -3.7093
    -3.7090  -3.6844  -3.6790  -3.6716  -3.6170  -3.6122  -3.6050  -3.5861
    -3.5744  -3.5251  -3.5022  -3.4817  -3.4708  -3.4516  -3.4448  -3.4260
    -3.4235  -3.3810  -3.3551  -3.3470  -3.3353  -3.3294  -3.2852  -3.2843
    -3.2500  -3.2357  -3.2136  -3.2068  -3.1978  -3.1949  -3.1925  -3.1782
    -3.1773  -3.1695  -3.1457  -3.1232  -3.0888  -3.0836  -3.0766  -3.0687
    -3.0461  -3.0412  -3.0383  -3.0088  -2.9695  -2.9677  -2.9501  -2.9240
    -2.9131  -2.9033  -2.9011  -2.8746  -2.8605  -2.8419  -2.8122  -2.8079
    -2.7883  -2.7781  -2.7676  -2.7652  -2.7166  -2.7090  -2.6801  -2.6613
    -2.6600  -2.6373  -2.6295  -2.6254  -2.6212  -2.6135  -2.5937  -2.5909
    -2.5514  -2.5454  -2.5425  -2.5308  -2.5274  -2.5209  -2.5195  -2.5159
    -2.5103  -2.5061  -2.5048  -2.5014  -2.4892  -2.4854  -2.4631  -2.4574
    -2.4525  -2.4487  -2.4479  -2.4457  -2.4395  -2.4208  -2.4178  -2.4048
    -2.4020  -2.3839  -2.3818  -2.3770  -2.3732  -2.3719  -2.3674  -2.3611
    -2.3504  -2.3495  -2.3406  -2.3276  -2.3088  -2.3036  -2.2656  -2.2640
    -2.2463  -2.2419  -2.2179  -2.2146  -2.1874  -2.1820  -2.1687  -2.1630
    -2.1382  -2.1239  -2.1162  -2.1109  -2.1065  -2.0992  -2.0957  -2.0886
    -2.0671  -2.0666  -2.0530  -2.0116  -2.0019  -1.9935  -1.9906  -1.9808
    -1.9650  -1.9361  -1.9331  -1.9116  -1.9053  -1.8531  -1.8477  -1.8212
    -1.7995  -1.7940  -1.7491  -1.7356  -1.7306  -1.7251  -1.7173  -1.7149
    -1.7099  -1.7049  -1.7000  -1.6547  -1.6523  -1.6374  -1.6336  -1.6320
    -1.6137  -1.6132  -1.5912  -1.5766  -1.5650  -1.5610  -1.5579  -1.5522
    -1.5506  -1.5412  -1.5359  -1.5186  -1.5177  -1.4847  -1.4743  -1.4703
    -1.4665  -1.4520  -1.4297  -1.4005  -1.3859  -1.3684  -1.3612  -1.3562
    -1.3319  -1.2904  -1.2792  -1.2744  -1.2707  -1.2693  -1.2645  -1.2583
    -1.2457  -1.2373  -1.2103  -1.1986  -1.1789  -1.1732  -1.1660  -1.1630
    -1.1580  -1.1489  -1.1415  -1.1377  -1.1333  -1.1310  -1.1020  -1.0949
    -1.0930  -1.0910  -1.0701  -1.0620  -1.0596  -1.0376  -1.0305  -1.0204
    -0.9879  -0.9815  -0.9747  -0.9408  -0.9367  -0.9241  -0.9207  -0.9146
    -0.9120  -0.9106  -0.9074  -0.8971  -0.8942  -0.8745  -0.8735  -0.8688
    -0.8664  -0.8649  -0.8298  -0.8288  -0.8256  -0.8185  -0.8063  -0.7933
    -0.7895  -0.7823  -0.7341  -0.7292  -0.7212  -0.7186  -0.7174  -0.7123
    -0.7088  -0.7032  -0.6904  -0.6870  -0.6812  -0.6791  -0.6778  -0.6510
    -0.6397  -0.6379  -0.6356  -0.6269  -0.6254  -0.6216  -0.6070  -0.6058
    -0.6027  -0.5990  -0.5776  -0.5622  -0.5558  -0.5520  -0.5456  -0.5340
    -0.4746  -0.4662  -0.4656  -0.4643  -0.4569  -0.4550  -0.4211  -0.4092
    -0.4070  -0.3765  -0.3758  -0.3564  -0.2529  -0.2457  -0.1482   0.2610
     0.2631   0.2690   0.2698   0.3282   0.3406   0.7133   0.7181   0.7582
     0.7631   0.8839   0.9556   1.0633   1.0701   1.2856   1.2988   1.9085
     1.9209   2.0727   2.0841   2.2076   2.2188   2.3121   2.3148   2.4670
     2.7041   2.7286   2.8311   3.0545   3.0573   3.1298   3.1389   3.2355
     3.2527   3.4586   3.4740   3.5053   3.7072   3.7126   3.7641   3.7797
     4.0255   4.0349   4.0419   4.2761   4.3124   4.3239   4.3638   4.6920
     4.7043   4.7301   4.8587   5.0409   5.0425   5.1125   5.1369   5.6097
     5.8062   5.8227   5.8374   5.8584   5.8967   5.9012   5.9142   6.0016
     6.0074   6.0371   6.0690   6.0749   6.0964   6.1087   6.1253   6.1281
     6.2401   6.5693   6.6203   6.7267   6.7572   6.7721   6.7821   6.7853
     6.8141   6.8975   6.9797

          k =-0.5000 0.0000 0.1111 (136853 PWs)   bands (ev):

   -18.7537  -6.8651  -6.4473  -6.0515  -6.0466  -5.3764  -5.0403  -5.0371
    -5.0098  -4.9966  -4.6395  -4.6372  -4.5400  -4.5395  -4.5255  -4.5011
    -4.4934  -4.3747  -4.3699  -4.3476  -4.3051  -4.3041  -4.2429  -4.2351
    -4.2323  -4.2278  -4.2079  -4.2046  -4.2002  -4.1464  -4.1289  -4.1017
    -4.0965  -4.0875  -4.0866  -4.0662  -4.0632  -4.0405  -4.0343  -4.0327
    -4.0094  -3.9564  -3.9538  -3.9081  -3.9028  -3.8561  -3.8514  -3.8049
    -3.7937  -3.7909  -3.7906  -3.7566  -3.7261  -3.7238  -3.7107  -3.7093
    -3.7090  -3.6844  -3.6790  -3.6716  -3.6170  -3.6122  -3.6050  -3.5861
    -3.5744  -3.5251  -3.5022  -3.4817  -3.4708  -3.4516  -3.4448  -3.4260
    -3.4235  -3.3810  -3.3551  -3.3470  -3.3353  -3.3294  -3.2852  -3.2843
    -3.2500  -3.2357  -3.2136  -3.2068  -3.1978  -3.1949  -3.1925  -3.1782
    -3.1773  -3.1695  -3.1457  -3.1232  -3.0888  -3.0836  -3.0766  -3.0687
    -3.0461  -3.0412  -3.0383  -3.0088  -2.9695  -2.9677  -2.9501  -2.9240
    -2.9131  -2.9033  -2.9011  -2.8746  -2.8605  -2.8419  -2.8122  -2.8079
    -2.7883  -2.7781  -2.7676  -2.7652  -2.7166  -2.7090  -2.6801  -2.6613
    -2.6600  -2.6373  -2.6295  -2.6254  -2.6212  -2.6135  -2.5937  -2.5909
    -2.5514  -2.5454  -2.5425  -2.5308  -2.5274  -2.5209  -2.5195  -2.5159
    -2.5103  -2.5061  -2.5048  -2.5014  -2.4892  -2.4854  -2.4631  -2.4574
    -2.4525  -2.4487  -2.4479  -2.4457  -2.4395  -2.4208  -2.4178  -2.4048
    -2.4020  -2.3839  -2.3818  -2.3770  -2.3732  -2.3719  -2.3674  -2.3611
    -2.3504  -2.3495  -2.3406  -2.3276  -2.3088  -2.3036  -2.2656  -2.2640
    -2.2463  -2.2419  -2.2179  -2.2146  -2.1874  -2.1820  -2.1687  -2.1630
    -2.1382  -2.1239  -2.1162  -2.1109  -2.1065  -2.0992  -2.0957  -2.0886
    -2.0671  -2.0666  -2.0530  -2.0116  -2.0019  -1.9935  -1.9906  -1.9808
    -1.9650  -1.9361  -1.9331  -1.9116  -1.9053  -1.8531  -1.8477  -1.8212
    -1.7995  -1.7940  -1.7491  -1.7356  -1.7306  -1.7251  -1.7173  -1.7149
    -1.7099  -1.7049  -1.7000  -1.6547  -1.6523  -1.6374  -1.6336  -1.6320
    -1.6137  -1.6132  -1.5912  -1.5766  -1.5650  -1.5610  -1.5579  -1.5522
    -1.5506  -1.5412  -1.5359  -1.5186  -1.5177  -1.4847  -1.4743  -1.4703
    -1.4665  -1.4520  -1.4297  -1.4005  -1.3859  -1.3684  -1.3612  -1.3562
    -1.3319  -1.2904  -1.2792  -1.2744  -1.2707  -1.2693  -1.2645  -1.2583
    -1.2457  -1.2373  -1.2103  -1.1986  -1.1789  -1.1732  -1.1660  -1.1630
    -1.1580  -1.1489  -1.1415  -1.1377  -1.1333  -1.1310  -1.1020  -1.0949
    -1.0930  -1.0910  -1.0701  -1.0620  -1.0596  -1.0376  -1.0305  -1.0204
    -0.9879  -0.9815  -0.9747  -0.9408  -0.9367  -0.9241  -0.9207  -0.9146
    -0.9120  -0.9106  -0.9074  -0.8971  -0.8942  -0.8745  -0.8735  -0.8688
    -0.8664  -0.8649  -0.8298  -0.8288  -0.8256  -0.8185  -0.8063  -0.7933
    -0.7895  -0.7823  -0.7341  -0.7292  -0.7212  -0.7186  -0.7174  -0.7123
    -0.7088  -0.7032  -0.6904  -0.6870  -0.6812  -0.6791  -0.6778  -0.6510
    -0.6397  -0.6379  -0.6356  -0.6269  -0.6254  -0.6216  -0.6070  -0.6058
    -0.6027  -0.5990  -0.5776  -0.5622  -0.5558  -0.5520  -0.5456  -0.5340
    -0.4746  -0.4662  -0.4656  -0.4643  -0.4569  -0.4550  -0.4211  -0.4092
    -0.4070  -0.3765  -0.3758  -0.3564  -0.2529  -0.2457  -0.1482   0.2610
     0.2631   0.2690   0.2698   0.3282   0.3406   0.7133   0.7181   0.7582
     0.7631   0.8839   0.9556   1.0633   1.0701   1.2856   1.2988   1.9085
     1.9209   2.0727   2.0841   2.2076   2.2188   2.3121   2.3148   2.4670
     2.7041   2.7286   2.8311   3.0545   3.0573   3.1298   3.1389   3.2355
     3.2527   3.4586   3.4740   3.5053   3.7072   3.7126   3.7641   3.7797
     4.0255   4.0349   4.0419   4.2761   4.3124   4.3239   4.3638   4.6920
     4.7043   4.7301   4.8587   5.0409   5.0425   5.1125   5.1369   5.6097
     5.8062   5.8227   5.8374   5.8584   5.8967   5.9012   5.9142   6.0016
     6.0074   6.0371   6.0690   6.0749   6.0964   6.1087   6.1253   6.1281
     6.2401   6.5693   6.6203   6.7266   6.7571   6.7720   6.7817   6.7862
     6.8138   6.8975   6.9797

          k =-0.2500 0.1443 0.1111 (136898 PWs)   bands (ev):

   -18.7537  -6.8674  -6.6542  -5.8669  -5.5797  -5.5175  -5.5154  -4.9794
    -4.9777  -4.8524  -4.8460  -4.6949  -4.6692  -4.5988  -4.5729  -4.5647
    -4.5318  -4.5313  -4.4033  -4.3625  -4.3608  -4.3045  -4.2846  -4.2805
    -4.1791  -4.1778  -4.1446  -4.1413  -4.1411  -4.1176  -4.0935  -4.0929
    -4.0012  -3.9872  -3.9858  -3.9683  -3.9513  -3.9483  -3.9392  -3.9364
    -3.9266  -3.8975  -3.8940  -3.8931  -3.8913  -3.8654  -3.8607  -3.8443
    -3.8413  -3.8360  -3.7974  -3.7910  -3.7641  -3.7468  -3.7401  -3.7331
    -3.7325  -3.6610  -3.6590  -3.6371  -3.6278  -3.6217  -3.5604  -3.5529
    -3.5490  -3.5373  -3.5162  -3.5108  -3.5090  -3.5079  -3.4151  -3.3538
    -3.3510  -3.3333  -3.3300  -3.3094  -3.3060  -3.2907  -3.2815  -3.2613
    -3.2305  -3.2256  -3.2140  -3.2091  -3.1873  -3.1499  -3.1465  -3.1253
    -3.1206  -3.1137  -3.0816  -3.0798  -3.0710  -3.0672  -3.0558  -3.0418
    -3.0186  -3.0164  -2.9976  -2.9935  -2.9914  -2.9882  -2.9718  -2.9148
    -2.9127  -2.9024  -2.8794  -2.8744  -2.8232  -2.8103  -2.7935  -2.7864
    -2.7785  -2.7757  -2.7669  -2.7427  -2.7365  -2.7298  -2.7161  -2.6962
    -2.6904  -2.6845  -2.6691  -2.6666  -2.6621  -2.6566  -2.6526  -2.6440
    -2.6411  -2.5962  -2.5699  -2.5661  -2.5463  -2.5369  -2.5329  -2.5275
    -2.5227  -2.5209  -2.5179  -2.4942  -2.4907  -2.4829  -2.4797  -2.4782
    -2.4657  -2.4406  -2.4384  -2.4353  -2.4332  -2.4300  -2.3869  -2.3620
    -2.3584  -2.3547  -2.3493  -2.3390  -2.3300  -2.3260  -2.3105  -2.3099
    -2.2861  -2.2771  -2.2759  -2.2615  -2.2580  -2.2535  -2.2287  -2.2222
    -2.1916  -2.1807  -2.1781  -2.1770  -2.1728  -2.1692  -2.1661  -2.1629
    -2.1604  -2.1576  -2.1511  -2.1410  -2.1357  -2.0200  -2.0145  -1.9974
    -1.9768  -1.9739  -1.9656  -1.9648  -1.9565  -1.9504  -1.9464  -1.9449
    -1.9362  -1.9242  -1.9180  -1.9175  -1.9066  -1.8995  -1.8907  -1.8811
    -1.8688  -1.8517  -1.8471  -1.8233  -1.8193  -1.8103  -1.8001  -1.7828
    -1.7796  -1.7771  -1.7624  -1.7482  -1.7462  -1.7397  -1.7377  -1.7170
    -1.7150  -1.7005  -1.6953  -1.6675  -1.6593  -1.6497  -1.6147  -1.6046
    -1.5937  -1.5895  -1.5808  -1.5628  -1.5587  -1.5343  -1.5293  -1.5242
    -1.4964  -1.4866  -1.4830  -1.4669  -1.4658  -1.4464  -1.4418  -1.4308
    -1.4148  -1.4101  -1.4052  -1.3501  -1.3447  -1.3364  -1.3319  -1.3222
    -1.3160  -1.3022  -1.3019  -1.2844  -1.2701  -1.2489  -1.2422  -1.2303
    -1.2044  -1.1954  -1.1911  -1.1834  -1.1807  -1.1783  -1.1766  -1.1745
    -1.1576  -1.1389  -1.1325  -1.1207  -1.1148  -1.1133  -1.1056  -1.0963
    -1.0750  -1.0658  -1.0522  -1.0506  -0.9623  -0.9521  -0.9455  -0.9417
    -0.9364  -0.9339  -0.9272  -0.9157  -0.9098  -0.8947  -0.8901  -0.8781
    -0.8761  -0.8724  -0.8513  -0.8455  -0.8416  -0.8356  -0.7691  -0.7611
    -0.7458  -0.7318  -0.7243  -0.7195  -0.7166  -0.7145  -0.7127  -0.7043
    -0.7004  -0.6855  -0.6685  -0.6587  -0.6315  -0.6285  -0.6200  -0.6161
    -0.6126  -0.6054  -0.6023  -0.5996  -0.5976  -0.5829  -0.5792  -0.5775
    -0.5609  -0.5481  -0.5467  -0.5422  -0.5320  -0.5288  -0.5126  -0.4814
    -0.4800  -0.4717  -0.4654  -0.4055  -0.4022  -0.3704  -0.3677  -0.3138
    -0.3108  -0.3068  -0.2867  -0.2800  -0.0509  -0.0401   0.2922   0.2925
     0.3858   0.3981   0.5851   0.6104   0.6119   0.7383   0.7434   1.1719
     1.1743   1.1909   1.4578   1.4823   1.4846   1.7624   1.7708   1.8350
     1.8399   1.8655   1.8726   2.0936   2.0957   2.1839   2.1849   2.2741
     2.3252   2.3313   2.4879   2.5893   3.0162   3.0268   3.0285   3.0315
     3.0823   3.0865   3.3758   3.3777   3.6580   3.6617   3.7805   4.0734
     4.1082   4.1156   4.3485   4.3629   4.4091   4.4181   4.5073   4.6181
     4.6294   4.7409   4.7438   5.0427   5.1016   5.1184   5.2967   5.3150
     5.4812   5.4968   5.5047   5.5299   5.5328   5.5859   5.5939   5.6598
     6.0113   6.0679   6.1938   6.2895   6.3240   6.3348   6.3430   6.3468
     6.3522   6.5854   6.5909   6.6303   6.7643   6.8221   6.8421   6.8833
     6.9180   7.1053   7.1451

          k =-0.2500-0.1443-0.1111 (136898 PWs)   bands (ev):

   -18.7537  -6.8674  -6.6542  -5.8669  -5.5798  -5.5174  -5.5155  -4.9792
    -4.9777  -4.8525  -4.8460  -4.6950  -4.6692  -4.5990  -4.5729  -4.5648
    -4.5315  -4.5314  -4.4032  -4.3624  -4.3611  -4.3045  -4.2845  -4.2805
    -4.1789  -4.1778  -4.1446  -4.1414  -4.1411  -4.1176  -4.0936  -4.0929
    -4.0014  -3.9873  -3.9860  -3.9682  -3.9515  -3.9483  -3.9393  -3.9365
    -3.9268  -3.8973  -3.8939  -3.8929  -3.8912  -3.8652  -3.8607  -3.8444
    -3.8413  -3.8361  -3.7972  -3.7906  -3.7645  -3.7470  -3.7401  -3.7332
    -3.7324  -3.6611  -3.6591  -3.6368  -3.6277  -3.6216  -3.5596  -3.5531
    -3.5493  -3.5372  -3.5162  -3.5107  -3.5097  -3.5079  -3.4165  -3.3534
    -3.3510  -3.3327  -3.3298  -3.3096  -3.3060  -3.2907  -3.2812  -3.2610
    -3.2306  -3.2255  -3.2140  -3.2089  -3.1881  -3.1494  -3.1454  -3.1260
    -3.1208  -3.1139  -3.0818  -3.0796  -3.0710  -3.0671  -3.0562  -3.0437
    -3.0184  -3.0161  -2.9972  -2.9934  -2.9913  -2.9879  -2.9708  -2.9152
    -2.9127  -2.9033  -2.8794  -2.8745  -2.8221  -2.8099  -2.7937  -2.7869
    -2.7780  -2.7752  -2.7668  -2.7423  -2.7364  -2.7298  -2.7164  -2.6965
    -2.6904  -2.6850  -2.6693  -2.6667  -2.6623  -2.6570  -2.6525  -2.6442
    -2.6411  -2.5960  -2.5700  -2.5659  -2.5469  -2.5371  -2.5329  -2.5275
    -2.5229  -2.5209  -2.5183  -2.4942  -2.4905  -2.4828  -2.4797  -2.4773
    -2.4657  -2.4407  -2.4380  -2.4356  -2.4333  -2.4304  -2.3869  -2.3621
    -2.3586  -2.3549  -2.3492  -2.3390  -2.3296  -2.3247  -2.3103  -2.3097
    -2.2860  -2.2773  -2.2760  -2.2614  -2.2582  -2.2530  -2.2296  -2.2224
    -2.1915  -2.1802  -2.1779  -2.1771  -2.1724  -2.1698  -2.1659  -2.1633
    -2.1608  -2.1576  -2.1511  -2.1412  -2.1355  -2.0195  -2.0141  -1.9978
    -1.9767  -1.9736  -1.9654  -1.9646  -1.9569  -1.9504  -1.9466  -1.9452
    -1.9365  -1.9238  -1.9181  -1.9173  -1.9064  -1.8990  -1.8905  -1.8812
    -1.8686  -1.8514  -1.8466  -1.8242  -1.8210  -1.8103  -1.8002  -1.7828
    -1.7794  -1.7768  -1.7624  -1.7484  -1.7458  -1.7397  -1.7377  -1.7172
    -1.7149  -1.7005  -1.6944  -1.6678  -1.6597  -1.6507  -1.6141  -1.6045
    -1.5934  -1.5895  -1.5804  -1.5631  -1.5585  -1.5345  -1.5296  -1.5241
    -1.4968  -1.4862  -1.4823  -1.4671  -1.4657  -1.4469  -1.4420  -1.4307
    -1.4144  -1.4098  -1.4054  -1.3495  -1.3459  -1.3365  -1.3316  -1.3231
    -1.3157  -1.3023  -1.3020  -1.2840  -1.2699  -1.2484  -1.2422  -1.2303
    -1.2043  -1.1959  -1.1907  -1.1834  -1.1805  -1.1784  -1.1757  -1.1746
    -1.1575  -1.1406  -1.1321  -1.1217  -1.1147  -1.1132  -1.1061  -1.0965
    -1.0753  -1.0654  -1.0515  -1.0494  -0.9634  -0.9521  -0.9447  -0.9417
    -0.9363  -0.9338  -0.9261  -0.9155  -0.9096  -0.8949  -0.8893  -0.8789
    -0.8767  -0.8726  -0.8518  -0.8463  -0.8419  -0.8357  -0.7708  -0.7611
    -0.7441  -0.7312  -0.7243  -0.7209  -0.7166  -0.7143  -0.7123  -0.7054
    -0.6995  -0.6874  -0.6626  -0.6586  -0.6349  -0.6278  -0.6224  -0.6163
    -0.6132  -0.6065  -0.6021  -0.5993  -0.5978  -0.5828  -0.5794  -0.5779
    -0.5624  -0.5478  -0.5457  -0.5415  -0.5319  -0.5252  -0.5126  -0.4815
    -0.4806  -0.4716  -0.4669  -0.4038  -0.4023  -0.3703  -0.3677  -0.3136
    -0.3108  -0.3068  -0.2867  -0.2806  -0.0506  -0.0398   0.2922   0.2925
     0.3861   0.3981   0.5850   0.6085   0.6137   0.7384   0.7435   1.1720
     1.1741   1.1912   1.4577   1.4823   1.4843   1.7622   1.7714   1.8350
     1.8398   1.8658   1.8722   2.0938   2.0950   2.1839   2.1848   2.2740
     2.3253   2.3312   2.4879   2.5892   3.0163   3.0277   3.0282   3.0309
     3.0827   3.0861   3.3758   3.3774   3.6583   3.6612   3.7803   4.0738
     4.1084   4.1151   4.3477   4.3641   4.4106   4.4175   4.5069   4.6185
     4.6293   4.7405   4.7441   5.0423   5.1024   5.1186   5.2957   5.3158
     5.4815   5.4986   5.5042   5.5292   5.5327   5.5847   5.5946   5.6595
     6.0119   6.0663   6.1937   6.2892   6.3250   6.3354   6.3414   6.3473
     6.3524   6.5853   6.5915   6.6304   6.7638   6.8223   6.8430   6.8822
     6.9188   7.1057   7.1463

          k = 0.2500 0.1443-0.1111 (136898 PWs)   bands (ev):

   -18.7537  -6.8674  -6.6542  -5.8669  -5.5798  -5.5174  -5.5155  -4.9792
    -4.9777  -4.8525  -4.8460  -4.6950  -4.6692  -4.5990  -4.5729  -4.5648
    -4.5315  -4.5314  -4.4032  -4.3624  -4.3611  -4.3045  -4.2845  -4.2805
    -4.1789  -4.1778  -4.1446  -4.1414  -4.1411  -4.1176  -4.0936  -4.0929
    -4.0014  -3.9873  -3.9860  -3.9682  -3.9515  -3.9483  -3.9393  -3.9365
    -3.9268  -3.8973  -3.8939  -3.8929  -3.8912  -3.8652  -3.8607  -3.8444
    -3.8413  -3.8361  -3.7972  -3.7906  -3.7645  -3.7470  -3.7401  -3.7332
    -3.7324  -3.6611  -3.6591  -3.6368  -3.6277  -3.6216  -3.5596  -3.5531
    -3.5493  -3.5372  -3.5162  -3.5107  -3.5097  -3.5079  -3.4165  -3.3534
    -3.3510  -3.3327  -3.3298  -3.3096  -3.3060  -3.2907  -3.2812  -3.2610
    -3.2306  -3.2255  -3.2140  -3.2089  -3.1881  -3.1494  -3.1454  -3.1260
    -3.1208  -3.1139  -3.0818  -3.0796  -3.0710  -3.0671  -3.0562  -3.0437
    -3.0184  -3.0161  -2.9972  -2.9934  -2.9913  -2.9879  -2.9708  -2.9152
    -2.9127  -2.9033  -2.8794  -2.8745  -2.8221  -2.8099  -2.7937  -2.7869
    -2.7780  -2.7752  -2.7668  -2.7423  -2.7364  -2.7298  -2.7164  -2.6965
    -2.6904  -2.6850  -2.6693  -2.6667  -2.6623  -2.6570  -2.6525  -2.6442
    -2.6411  -2.5960  -2.5700  -2.5659  -2.5469  -2.5371  -2.5329  -2.5275
    -2.5229  -2.5209  -2.5183  -2.4942  -2.4905  -2.4828  -2.4797  -2.4773
    -2.4657  -2.4407  -2.4380  -2.4356  -2.4333  -2.4304  -2.3869  -2.3621
    -2.3586  -2.3549  -2.3492  -2.3389  -2.3296  -2.3247  -2.3103  -2.3097
    -2.2860  -2.2773  -2.2759  -2.2614  -2.2582  -2.2530  -2.2296  -2.2224
    -2.1915  -2.1802  -2.1779  -2.1771  -2.1724  -2.1698  -2.1659  -2.1633
    -2.1608  -2.1576  -2.1511  -2.1412  -2.1355  -2.0195  -2.0141  -1.9978
    -1.9767  -1.9736  -1.9654  -1.9646  -1.9569  -1.9504  -1.9466  -1.9452
    -1.9365  -1.9238  -1.9181  -1.9173  -1.9064  -1.8990  -1.8905  -1.8812
    -1.8686  -1.8514  -1.8466  -1.8242  -1.8210  -1.8103  -1.8002  -1.7828
    -1.7794  -1.7768  -1.7624  -1.7484  -1.7458  -1.7397  -1.7377  -1.7172
    -1.7149  -1.7005  -1.6944  -1.6678  -1.6597  -1.6507  -1.6141  -1.6045
    -1.5934  -1.5895  -1.5804  -1.5631  -1.5585  -1.5345  -1.5296  -1.5241
    -1.4968  -1.4862  -1.4823  -1.4671  -1.4657  -1.4469  -1.4420  -1.4307
    -1.4144  -1.4098  -1.4054  -1.3495  -1.3459  -1.3365  -1.3316  -1.3231
    -1.3157  -1.3023  -1.3020  -1.2840  -1.2699  -1.2484  -1.2422  -1.2303
    -1.2043  -1.1959  -1.1908  -1.1834  -1.1805  -1.1784  -1.1757  -1.1746
    -1.1575  -1.1406  -1.1321  -1.1217  -1.1147  -1.1132  -1.1061  -1.0965
    -1.0753  -1.0654  -1.0515  -1.0494  -0.9634  -0.9521  -0.9447  -0.9417
    -0.9363  -0.9338  -0.9261  -0.9155  -0.9096  -0.8949  -0.8893  -0.8789
    -0.8767  -0.8726  -0.8518  -0.8463  -0.8419  -0.8357  -0.7708  -0.7610
    -0.7441  -0.7312  -0.7243  -0.7209  -0.7166  -0.7143  -0.7123  -0.7054
    -0.6996  -0.6874  -0.6626  -0.6586  -0.6349  -0.6278  -0.6224  -0.6163
    -0.6132  -0.6065  -0.6021  -0.5993  -0.5978  -0.5828  -0.5794  -0.5779
    -0.5624  -0.5478  -0.5457  -0.5415  -0.5319  -0.5252  -0.5126  -0.4815
    -0.4806  -0.4716  -0.4669  -0.4038  -0.4023  -0.3703  -0.3677  -0.3136
    -0.3108  -0.3068  -0.2867  -0.2806  -0.0506  -0.0398   0.2922   0.2925
     0.3861   0.3981   0.5850   0.6085   0.6137   0.7384   0.7435   1.1720
     1.1741   1.1912   1.4577   1.4823   1.4843   1.7622   1.7714   1.8350
     1.8397   1.8658   1.8722   2.0938   2.0950   2.1839   2.1848   2.2740
     2.3253   2.3312   2.4879   2.5892   3.0163   3.0277   3.0282   3.0309
     3.0827   3.0861   3.3758   3.3774   3.6583   3.6612   3.7803   4.0738
     4.1084   4.1151   4.3477   4.3641   4.4106   4.4175   4.5069   4.6185
     4.6293   4.7405   4.7441   5.0423   5.1024   5.1186   5.2956   5.3158
     5.4814   5.4986   5.5042   5.5292   5.5327   5.5847   5.5946   5.6595
     6.0121   6.0664   6.1937   6.2891   6.3248   6.3353   6.3413   6.3472
     6.3524   6.5852   6.5918   6.6295   6.7606   6.8220   6.8435   6.8821
     6.9191   7.1097   7.1509

          k = 0.0000-0.2887 0.1111 (136898 PWs)   bands (ev):

   -18.7537  -6.8676  -6.6540  -5.8664  -5.5796  -5.5175  -5.5161  -4.9793
    -4.9779  -4.8510  -4.8457  -4.6949  -4.6694  -4.5986  -4.5748  -4.5654
    -4.5317  -4.5315  -4.4034  -4.3619  -4.3612  -4.3025  -4.2861  -4.2808
    -4.1785  -4.1778  -4.1446  -4.1414  -4.1412  -4.1171  -4.0938  -4.0930
    -4.0004  -3.9870  -3.9867  -3.9677  -3.9517  -3.9484  -3.9407  -3.9358
    -3.9259  -3.8970  -3.8937  -3.8927  -3.8911  -3.8637  -3.8624  -3.8441
    -3.8413  -3.8348  -3.7968  -3.7950  -3.7594  -3.7486  -3.7388  -3.7334
    -3.7328  -3.6637  -3.6589  -3.6407  -3.6267  -3.6219  -3.5580  -3.5529
    -3.5466  -3.5369  -3.5153  -3.5106  -3.5094  -3.5080  -3.4344  -3.3509
    -3.3446  -3.3361  -3.3261  -3.3111  -3.3059  -3.2914  -3.2826  -3.2590
    -3.2301  -3.2233  -3.2136  -3.1975  -3.1865  -3.1534  -3.1407  -3.1295
    -3.1205  -3.1156  -3.0815  -3.0752  -3.0712  -3.0647  -3.0553  -3.0520
    -3.0180  -3.0168  -2.9993  -2.9944  -2.9913  -2.9879  -2.9726  -2.9137
    -2.9133  -2.9013  -2.8790  -2.8709  -2.8262  -2.8197  -2.7906  -2.7837
    -2.7771  -2.7754  -2.7655  -2.7423  -2.7411  -2.7296  -2.7103  -2.6980
    -2.6914  -2.6767  -2.6678  -2.6671  -2.6604  -2.6577  -2.6516  -2.6499
    -2.6411  -2.5962  -2.5692  -2.5682  -2.5515  -2.5376  -2.5337  -2.5279
    -2.5212  -2.5209  -2.5190  -2.4935  -2.4931  -2.4846  -2.4793  -2.4756
    -2.4653  -2.4383  -2.4376  -2.4344  -2.4337  -2.4261  -2.3874  -2.3607
    -2.3566  -2.3560  -2.3494  -2.3408  -2.3352  -2.3219  -2.3104  -2.3098
    -2.2850  -2.2770  -2.2763  -2.2637  -2.2579  -2.2547  -2.2280  -2.2245
    -2.1926  -2.1802  -2.1783  -2.1761  -2.1755  -2.1679  -2.1668  -2.1632
    -2.1627  -2.1565  -2.1535  -2.1399  -2.1324  -2.0236  -2.0166  -1.9786
    -1.9776  -1.9755  -1.9658  -1.9643  -1.9575  -1.9549  -1.9467  -1.9430
    -1.9380  -1.9250  -1.9190  -1.9187  -1.9051  -1.8997  -1.8892  -1.8825
    -1.8722  -1.8541  -1.8495  -1.8232  -1.8180  -1.8106  -1.7980  -1.7810
    -1.7784  -1.7774  -1.7626  -1.7496  -1.7453  -1.7394  -1.7375  -1.7163
    -1.7133  -1.6988  -1.6966  -1.6689  -1.6623  -1.6483  -1.6080  -1.6072
    -1.5904  -1.5898  -1.5782  -1.5628  -1.5592  -1.5365  -1.5289  -1.5282
    -1.4903  -1.4883  -1.4824  -1.4660  -1.4655  -1.4472  -1.4442  -1.4330
    -1.4173  -1.4082  -1.4053  -1.3534  -1.3479  -1.3378  -1.3311  -1.3209
    -1.3184  -1.3020  -1.3011  -1.2839  -1.2702  -1.2432  -1.2426  -1.2313
    -1.2010  -1.1971  -1.1891  -1.1825  -1.1804  -1.1776  -1.1769  -1.1702
    -1.1576  -1.1402  -1.1386  -1.1269  -1.1163  -1.1133  -1.1059  -1.0958
    -1.0755  -1.0632  -1.0513  -1.0499  -0.9627  -0.9542  -0.9448  -0.9420
    -0.9381  -0.9324  -0.9256  -0.9123  -0.9022  -0.8928  -0.8898  -0.8799
    -0.8764  -0.8726  -0.8532  -0.8460  -0.8418  -0.8366  -0.7690  -0.7644
    -0.7453  -0.7311  -0.7274  -0.7192  -0.7173  -0.7156  -0.7129  -0.7092
    -0.6993  -0.6811  -0.6589  -0.6563  -0.6441  -0.6302  -0.6217  -0.6170
    -0.6137  -0.6057  -0.6029  -0.5987  -0.5976  -0.5837  -0.5786  -0.5780
    -0.5611  -0.5476  -0.5456  -0.5389  -0.5329  -0.5239  -0.5108  -0.4814
    -0.4794  -0.4712  -0.4687  -0.4059  -0.3999  -0.3704  -0.3675  -0.3130
    -0.3113  -0.3067  -0.2871  -0.2864  -0.0428  -0.0384   0.2919   0.2929
     0.3913   0.3938   0.5805   0.6037   0.6164   0.7401   0.7415   1.1718
     1.1743   1.1906   1.4570   1.4827   1.4839   1.7671   1.7696   1.8360
     1.8403   1.8657   1.8700   2.0932   2.0963   2.1832   2.1854   2.2740
     2.3253   2.3307   2.4872   2.5883   3.0202   3.0264   3.0284   3.0310
     3.0830   3.0860   3.3765   3.3775   3.6543   3.6644   3.7803   4.0727
     4.1036   4.1174   4.3446   4.3663   4.4091   4.4182   4.5064   4.6199
     4.6294   4.7411   4.7456   5.0410   5.1048   5.1194   5.2963   5.3162
     5.4789   5.4926   5.5055   5.5302   5.5330   5.5903   5.5919   5.6627
     6.0122   6.0746   6.1868   6.2785   6.3240   6.3300   6.3416   6.3471
     6.3544   6.5877   6.5956   6.6300   6.7693   6.8232   6.8410   6.8921
     6.9080   7.1081   7.1409

          k = 0.0000 0.2887 0.1111 (136898 PWs)   bands (ev):

   -18.7537  -6.8676  -6.6540  -5.8664  -5.5796  -5.5175  -5.5161  -4.9793
    -4.9779  -4.8510  -4.8457  -4.6950  -4.6694  -4.5986  -4.5748  -4.5654
    -4.5317  -4.5315  -4.4034  -4.3619  -4.3612  -4.3025  -4.2861  -4.2808
    -4.1785  -4.1778  -4.1446  -4.1414  -4.1412  -4.1171  -4.0938  -4.0930
    -4.0004  -3.9870  -3.9867  -3.9677  -3.9517  -3.9484  -3.9407  -3.9358
    -3.9259  -3.8970  -3.8937  -3.8927  -3.8911  -3.8637  -3.8624  -3.8441
    -3.8413  -3.8348  -3.7968  -3.7950  -3.7594  -3.7486  -3.7388  -3.7334
    -3.7328  -3.6637  -3.6589  -3.6407  -3.6267  -3.6219  -3.5580  -3.5529
    -3.5466  -3.5369  -3.5153  -3.5106  -3.5094  -3.5080  -3.4344  -3.3509
    -3.3446  -3.3361  -3.3261  -3.3111  -3.3059  -3.2914  -3.2826  -3.2590
    -3.2301  -3.2233  -3.2136  -3.1974  -3.1865  -3.1534  -3.1407  -3.1295
    -3.1205  -3.1156  -3.0815  -3.0752  -3.0712  -3.0647  -3.0553  -3.0520
    -3.0180  -3.0168  -2.9993  -2.9944  -2.9913  -2.9879  -2.9726  -2.9137
    -2.9133  -2.9013  -2.8790  -2.8709  -2.8262  -2.8197  -2.7906  -2.7837
    -2.7771  -2.7754  -2.7655  -2.7423  -2.7411  -2.7296  -2.7103  -2.6980
    -2.6914  -2.6767  -2.6678  -2.6671  -2.6604  -2.6577  -2.6516  -2.6499
    -2.6411  -2.5962  -2.5692  -2.5682  -2.5515  -2.5376  -2.5337  -2.5279
    -2.5212  -2.5209  -2.5190  -2.4935  -2.4931  -2.4846  -2.4793  -2.4756
    -2.4653  -2.4383  -2.4376  -2.4345  -2.4337  -2.4261  -2.3874  -2.3607
    -2.3566  -2.3560  -2.3494  -2.3408  -2.3352  -2.3220  -2.3104  -2.3098
    -2.2850  -2.2770  -2.2763  -2.2637  -2.2579  -2.2547  -2.2280  -2.2245
    -2.1926  -2.1802  -2.1783  -2.1761  -2.1755  -2.1679  -2.1668  -2.1632
    -2.1627  -2.1565  -2.1535  -2.1399  -2.1324  -2.0236  -2.0166  -1.9786
    -1.9776  -1.9755  -1.9658  -1.9643  -1.9575  -1.9549  -1.9467  -1.9430
    -1.9380  -1.9250  -1.9190  -1.9187  -1.9051  -1.8997  -1.8892  -1.8825
    -1.8722  -1.8541  -1.8495  -1.8232  -1.8180  -1.8106  -1.7980  -1.7810
    -1.7784  -1.7774  -1.7626  -1.7496  -1.7453  -1.7394  -1.7375  -1.7163
    -1.7133  -1.6988  -1.6966  -1.6689  -1.6623  -1.6483  -1.6080  -1.6072
    -1.5904  -1.5898  -1.5782  -1.5628  -1.5592  -1.5365  -1.5290  -1.5282
    -1.4903  -1.4883  -1.4824  -1.4660  -1.4655  -1.4472  -1.4442  -1.4330
    -1.4173  -1.4082  -1.4054  -1.3534  -1.3479  -1.3378  -1.3311  -1.3209
    -1.3184  -1.3020  -1.3011  -1.2839  -1.2702  -1.2432  -1.2426  -1.2313
    -1.2010  -1.1971  -1.1891  -1.1825  -1.1804  -1.1776  -1.1769  -1.1702
    -1.1576  -1.1402  -1.1386  -1.1269  -1.1163  -1.1133  -1.1059  -1.0958
    -1.0755  -1.0632  -1.0513  -1.0499  -0.9627  -0.9542  -0.9448  -0.9420
    -0.9381  -0.9324  -0.9256  -0.9123  -0.9022  -0.8928  -0.8898  -0.8799
    -0.8764  -0.8726  -0.8532  -0.8460  -0.8418  -0.8366  -0.7690  -0.7644
    -0.7453  -0.7311  -0.7274  -0.7192  -0.7173  -0.7156  -0.7129  -0.7092
    -0.6993  -0.6811  -0.6589  -0.6563  -0.6441  -0.6302  -0.6217  -0.6170
    -0.6137  -0.6057  -0.6029  -0.5987  -0.5975  -0.5837  -0.5787  -0.5781
    -0.5611  -0.5476  -0.5456  -0.5389  -0.5329  -0.5239  -0.5108  -0.4814
    -0.4794  -0.4712  -0.4687  -0.4059  -0.3999  -0.3704  -0.3675  -0.3130
    -0.3113  -0.3067  -0.2871  -0.2864  -0.0428  -0.0384   0.2919   0.2929
     0.3913   0.3938   0.5805   0.6037   0.6164   0.7401   0.7415   1.1718
     1.1743   1.1906   1.4570   1.4827   1.4839   1.7671   1.7696   1.8360
     1.8403   1.8657   1.8700   2.0932   2.0963   2.1832   2.1854   2.2740
     2.3253   2.3307   2.4872   2.5883   3.0202   3.0264   3.0284   3.0310
     3.0830   3.0860   3.3765   3.3775   3.6543   3.6644   3.7803   4.0727
     4.1036   4.1174   4.3446   4.3663   4.4091   4.4182   4.5064   4.6199
     4.6294   4.7411   4.7456   5.0410   5.1048   5.1194   5.2963   5.3162
     5.4789   5.4926   5.5055   5.5302   5.5330   5.5903   5.5919   5.6627
     6.0123   6.0748   6.1869   6.2784   6.3238   6.3301   6.3415   6.3472
     6.3544   6.5872   6.5956   6.6303   6.7669   6.8217   6.8410   6.8921
     6.9085   7.1127   7.1456

     the Fermi energy is     1.3198 ev

!    total energy              =   -6604.40038043 Ry
     Harris-Foulkes estimate   =   -6604.40038042 Ry
     estimated scf accuracy    <          1.8E-09 Ry

     The total energy is the sum of the following terms:

     one-electron contribution =  -48826.82998523 Ry
     hartree contribution      =   24911.51384706 Ry
     xc contribution           =   -3205.05207652 Ry
     ewald contribution        =   20515.96494279 Ry
     smearing contrib. (-TS)   =       0.00289148 Ry

     convergence has been achieved in  25 iterations

     Writing output data file 3462459.save

     init_run     :    150.28s CPU    162.06s WALL (       1 calls)
     electrons    :   8322.36s CPU   8954.44s WALL (       1 calls)

     Called by init_run:
     wfcinit      :    115.28s CPU    126.12s WALL (       1 calls)
     potinit      :      9.54s CPU      9.98s WALL (       1 calls)

     Called by electrons:
     c_bands      :   6525.88s CPU   7040.45s WALL (      26 calls)
     sum_band     :   1286.66s CPU   1389.02s WALL (      26 calls)
     v_of_rho     :    126.59s CPU    136.41s WALL (      26 calls)
     newd         :    393.95s CPU    399.01s WALL (      26 calls)
     mix_rho      :      3.89s CPU      4.20s WALL (      26 calls)
     vdW_energy   :     10.62s CPU     12.12s WALL (      26 calls)
     vdW_ffts     :     65.16s CPU     69.85s WALL (      52 calls)
     vdW_v        :     14.40s CPU     15.12s WALL (      26 calls)

     Called by c_bands:
     init_us_2    :     30.30s CPU     30.72s WALL (     636 calls)
     cegterg      :   6430.22s CPU   6943.10s WALL (     312 calls)

     Called by *egterg:
     h_psi        :   3464.36s CPU   3930.06s WALL (    1555 calls)
     s_psi        :    333.40s CPU    335.89s WALL (    1555 calls)
     g_psi        :      6.76s CPU      6.76s WALL (    1231 calls)
     cdiaghg      :   1477.66s CPU   1481.48s WALL (    1531 calls)

     Called by h_psi:
     add_vuspsi   :    338.58s CPU    341.12s WALL (    1555 calls)

     General routines
     calbec       :    520.71s CPU    525.15s WALL (    1867 calls)
     fft          :    183.91s CPU    191.50s WALL (    1716 calls)
     ffts         :      2.23s CPU      2.36s WALL (      52 calls)
     fftw         :   2725.95s CPU   3169.25s WALL (  751712 calls)
     interpolate  :      5.72s CPU      6.15s WALL (      52 calls)
     davcio       :      0.00s CPU      0.53s WALL (      12 calls)

     Parallel routines
     fft_scatter  :   2084.68s CPU   2426.81s WALL (  753480 calls)

     PWSCF        :     2h21m CPU        2h32m WALL


   This run was terminated on:  13: 5:35  24Aug2015            

=------------------------------------------------------------------------------=
   JOB DONE.
=------------------------------------------------------------------------------=
