Setting SGE environment for SCC

     Program PWSCF v.5.1.2 starts on  5Jul2015 at 18:43:26 

     This program is part of the open-source Quantum ESPRESSO suite
     for quantum simulation of materials; please cite
         "P. Giannozzi et al., J. Phys.:Condens. Matter 21 395502 (2009);
          URL http://www.quantum-espresso.org", 
     in publications or presentations arising from this work. More details at
     http://www.quantum-espresso.org/quote

     Parallel version (MPI), running on    32 processors
     R & G space division:  proc/nbgrp/npool/nimage =      32
     Reading input from hollow.H2.Au535758.d.2.4.phi.0.psi.90.in
Warning: card &IONS ignored
Warning: card / ignored
Warning: card &CELL ignored
Warning: card / ignored

     Current dimensions of program PWSCF are:
     Max number of different atomic species (ntypx) = 10
     Max number of k-points (npk) =  40000
     Max angular momentum in pseudopotentials (lmaxx) =  3

     IMPORTANT: XC functional enforced from input :
     Exchange-correlation      = VDW-DF ( 1  4  4  0 1 0)
     Any further DFT definition will be discarded
     Please, verify this is what you really want


     Subspace diagonalization in iterative solution of the eigenvalue problem:
     a serial algorithm will be used


     Parallelization info
     --------------------
     sticks:   dense  smooth     PW     G-vecs:    dense   smooth      PW
     Min         445     223     58                96775    34191    4534
     Max         446     224     59                96790    34246    4540
     Sum       14269    7147   1867              3097177  1095093  145167


     Title: 
     hollow.H2.Au535758.d.2.4.phi.0.psi.90                                      


     bravais-lattice index     =            4
     lattice parameter (alat)  =      22.7436  a.u.
     unit-cell volume          =   22924.1508 (a.u.)^3
     number of atoms/cell      =           67
     number of atomic types    =            3
     number of electrons       =       712.00
     number of Kohn-Sham states=          427
     kinetic-energy cutoff     =      50.0000  Ry
     charge density cutoff     =     400.0000  Ry
     convergence threshold     =      1.0E-08
     mixing beta               =       0.7000
     number of iterations used =            8  plain     mixing
     Exchange-correlation      = VDW-DF ( 1  4  4  0 1 0)

     celldm(1)=  22.743643  celldm(2)=   0.000000  celldm(3)=   2.250000
     celldm(4)=   0.000000  celldm(5)=   0.000000  celldm(6)=   0.000000

     crystal axes: (cart. coord. in units of alat)
               a(1) = (   1.000000   0.000000   0.000000 )  
               a(2) = (  -0.500000   0.866025   0.000000 )  
               a(3) = (   0.000000   0.000000   2.250000 )  

     reciprocal axes: (cart. coord. in units 2 pi/alat)
               b(1) = (  1.000000  0.577350 -0.000000 )  
               b(2) = (  0.000000  1.154701  0.000000 )  
               b(3) = (  0.000000 -0.000000  0.444444 )  


     PseudoPot. # 1 for Au read from file:
     /home/scc/andrejb/qe/pseudo/Au.pbe-nd-van.UPF
     MD5 check sum: 458681b50f36d87ef23c61b04bba420a
     Pseudo is Ultrasoft + core correction, Zval = 11.0
     Generated by new atomic code, or converted to UPF format
     Using radial grid of  985 points,  3 beta functions with: 
                l(1) =   1
                l(2) =   2
                l(3) =   2
     Q(r) pseudized with  8 coefficients,  rinner =    1.100   1.100   1.100
                                                       1.100   1.100

     PseudoPot. # 2 for H  read from file:
     /home/scc/andrejb/qe/pseudo/H.pbe-van_ak.UPF
     MD5 check sum: 403db7282739603aa925980fa9b8608d
     Pseudo is Ultrasoft, Zval =  1.0
     Generated by new atomic code, or converted to UPF format
     Using radial grid of  615 points,  1 beta functions with: 
                l(1) =   0
     Q(r) pseudized with  8 coefficients,  rinner =    0.800

     PseudoPot. # 3 for O  read from file:
     /home/scc/andrejb/qe/pseudo/O.pbe-van_ak.UPF
     MD5 check sum: 4b8c549914a63cae506c6ff22b5af4fe
     Pseudo is Ultrasoft, Zval =  6.0
     Generated by new atomic code, or converted to UPF format
     Using radial grid of  737 points,  4 beta functions with: 
                l(1) =   0
                l(2) =   0
                l(3) =   1
                l(4) =   1
     Q(r) pseudized with  8 coefficients,  rinner =    0.800   0.800   0.800


     vdW kernel table read from file vdW_kernel_table
     MD5 check sum: 48e77a2e26edf626eeb0eaa751ad5cac

     atomic species   valence    mass     pseudopotential
        Au            11.00   196.96657     Au( 1.00)
        H              1.00     1.01000     H ( 1.00)
        O              6.00    16.00000     O ( 1.00)

     No symmetry found



   Cartesian axes

     site n.     atom                  positions (alat units)
         1           O   tau(   1) = (  -0.0023868   0.4638597   1.0022686  )
         2           H   tau(   2) = (  -0.0208375   0.5411347   0.9869027  )
         3           H   tau(   3) = (  -0.0552361   0.4212311   0.9582744  )
         4           Au  tau(   4) = (   0.3540481   0.6132292   0.0000000  )
         5           Au  tau(   5) = (   0.4790062   0.3967954   0.0000000  )
         6           Au  tau(   6) = (   0.6039644   0.1803616   0.0000000  )
         7           Au  tau(   7) = (   0.7289225  -0.0360723   0.0000000  )
         8           Au  tau(   8) = (   0.1041318   0.6132292   0.0000000  )
         9           Au  tau(   9) = (   0.2290899   0.3967954   0.0000000  )
        10           Au  tau(  10) = (   0.3540481   0.1803616   0.0000000  )
        11           Au  tau(  11) = (   0.4790062  -0.0360723   0.0000000  )
        12           Au  tau(  12) = (  -0.1457845   0.6132292   0.0000000  )
        13           Au  tau(  13) = (  -0.0208264   0.3967954   0.0000000  )
        14           Au  tau(  14) = (   0.1041318   0.1803616   0.0000000  )
        15           Au  tau(  15) = (   0.2290899  -0.0360723   0.0000000  )
        16           Au  tau(  16) = (  -0.3957008   0.6132292   0.0000000  )
        17           Au  tau(  17) = (  -0.2707426   0.3967954   0.0000000  )
        18           Au  tau(  18) = (  -0.1457845   0.1803616   0.0000000  )
        19           Au  tau(  19) = (  -0.0208264  -0.0360723   0.0000000  )
        20           Au  tau(  20) = (   0.4790062   0.6853738   0.2040557  )
        21           Au  tau(  21) = (   0.6039644   0.4689400   0.2040557  )
        22           Au  tau(  22) = (   0.7289225   0.2525061   0.2040557  )
        23           Au  tau(  23) = (   0.8538806   0.0360723   0.2040557  )
        24           Au  tau(  24) = (   0.2290899   0.6853738   0.2040557  )
        25           Au  tau(  25) = (   0.3540481   0.4689400   0.2040557  )
        26           Au  tau(  26) = (   0.4790062   0.2525061   0.2040557  )
        27           Au  tau(  27) = (   0.6039644   0.0360723   0.2040557  )
        28           Au  tau(  28) = (  -0.0208264   0.6853738   0.2040557  )
        29           Au  tau(  29) = (   0.1041318   0.4689400   0.2040557  )
        30           Au  tau(  30) = (   0.2290899   0.2525061   0.2040557  )
        31           Au  tau(  31) = (   0.3540481   0.0360723   0.2040557  )
        32           Au  tau(  32) = (  -0.2707426   0.6853738   0.2040557  )
        33           Au  tau(  33) = (  -0.1457845   0.4689400   0.2040557  )
        34           Au  tau(  34) = (  -0.0208264   0.2525061   0.2040557  )
        35           Au  tau(  35) = (   0.1041318   0.0360723   0.2040557  )
        36           Au  tau(  36) = (   0.3541162   0.7576593   0.4066483  )
        37           Au  tau(  37) = (   0.4791000   0.5411421   0.4066695  )
        38           Au  tau(  38) = (   0.6040570   0.3246862   0.4066617  )
        39           Au  tau(  39) = (   0.7290270   0.1081684   0.4066529  )
        40           Au  tau(  40) = (   0.1041162   0.7576236   0.4066247  )
        41           Au  tau(  41) = (   0.2291001   0.5411063   0.4066455  )
        42           Au  tau(  42) = (   0.3540567   0.3246505   0.4066380  )
        43           Au  tau(  43) = (   0.4790276   0.1081324   0.4066292  )
        44           Au  tau(  44) = (  -0.1458201   0.7576104   0.4066224  )
        45           Au  tau(  45) = (  -0.0208365   0.5410930   0.4066438  )
        46           Au  tau(  46) = (   0.1041202   0.3246372   0.4066359  )
        47           Au  tau(  47) = (   0.2290908   0.1081193   0.4066273  )
        48           Au  tau(  48) = (  -0.3958167   0.7575791   0.4065812  )
        49           Au  tau(  49) = (  -0.2708328   0.5410617   0.4066025  )
        50           Au  tau(  50) = (  -0.1458763   0.3246061   0.4065947  )
        51           Au  tau(  51) = (  -0.0209056   0.1080882   0.4065858  )
        52           Au  tau(  52) = (   0.3541085   0.6133344   0.6129762  )
        53           Au  tau(  53) = (   0.4790780   0.3968269   0.6129968  )
        54           Au  tau(  54) = (   0.6040356   0.1803811   0.6129859  )
        55           Au  tau(  55) = (   0.7290165  -0.0361221   0.6129385  )
        56           Au  tau(  56) = (   0.1041243   0.6133091   0.6130022  )
        57           Au  tau(  57) = (   0.2290941   0.3968013   0.6130241  )
        58           Au  tau(  58) = (   0.3540515   0.1803552   0.6130121  )
        59           Au  tau(  59) = (   0.4790323  -0.0361475   0.6129659  )
        60           Au  tau(  60) = (  -0.1458030   0.6133014   0.6129980  )
        61           Au  tau(  61) = (  -0.0208339   0.3967936   0.6130188  )
        62           Au  tau(  62) = (   0.1041239   0.1803477   0.6130083  )
        63           Au  tau(  63) = (   0.2291046  -0.0361554   0.6129607  )
        64           Au  tau(  64) = (  -0.3957908   0.6132739   0.6129471  )
        65           Au  tau(  65) = (  -0.2708208   0.3967658   0.6129688  )
        66           Au  tau(  66) = (  -0.1458636   0.1803200   0.6129569  )
        67           Au  tau(  67) = (  -0.0208823  -0.0361826   0.6129110  )

     number of k points=    12  Marzari-Vanderbilt smearing, width (Ry)=  0.0200
                       cart. coord. in units 2pi/alat
        k(    1) = (   0.2500000   0.4330127   0.1111111), wk =   0.1666667
        k(    2) = (   0.2500000  -0.1443376   0.1111111), wk =   0.1666667
        k(    3) = (  -0.2500000  -0.4330127   0.1111111), wk =   0.1666667
        k(    4) = (  -0.2500000   0.4330127  -0.1111111), wk =   0.1666667
        k(    5) = (   0.2500000  -0.4330127  -0.1111111), wk =   0.1666667
        k(    6) = (   0.5000000   0.0000000   0.1111111), wk =   0.1666667
        k(    7) = (  -0.5000000   0.0000000   0.1111111), wk =   0.1666667
        k(    8) = (  -0.2500000   0.1443376   0.1111111), wk =   0.1666667
        k(    9) = (  -0.2500000  -0.1443376  -0.1111111), wk =   0.1666667
        k(   10) = (   0.2500000   0.1443376  -0.1111111), wk =   0.1666667
        k(   11) = (   0.0000000  -0.2886751   0.1111111), wk =   0.1666667
        k(   12) = (   0.0000000   0.2886751   0.1111111), wk =   0.1666667

     Dense  grid:  3097177 G-vectors     FFT dimensions: ( 150, 150, 360)

     Smooth grid:  1095093 G-vectors     FFT dimensions: ( 108, 108, 240)

     Largest allocated arrays     est. size (Mb)     dimensions
        Kohn-Sham Wavefunctions        28.01 Mb     (    4299,  427)
        NL pseudopotentials            55.23 Mb     (    4299,  842)
        Each V/rho on FFT grid          4.12 Mb     (  270000)
        Each G-vector array             0.74 Mb     (   96788)
        G-vector shells                 0.16 Mb     (   21404)
     Largest temporary arrays     est. size (Mb)     dimensions
        Auxiliary wavefunctions       112.04 Mb     (    4299, 1708)
        Each subspace H/S matrix       44.51 Mb     (    1708, 1708)
        Each <psi_i|beta_j> matrix      5.49 Mb     (     842,  427)
        Arrays for rho mixing          32.96 Mb     (  270000,    8)

     Initial potential from superposition of free atoms
     Check: negative starting charge=   -1.730072

     starting charge  711.25682, renormalised to  712.00000

     negative rho (up, down):  1.732E+00 0.000E+00


     ************************************************************************
     *
     * You are using vdW-DF for exchange-correlation in this calculation.
     * Please cite the following three references that made this development
     * possible:
     *
     *   M. Dion, H. Rydberg, E. Schroder, D. C. Langreth, and
     *   B. I. Lundqvist, Phys. Rev. Lett. 92, 246401 (2004).
     *
     *   T. Thonhauser, V. R. Cooper, S. Li, A. Puzder, P. Hyldgaard, and
     *   D. C. Langreth, Phys. Rev. B 76, 125112 (2007).
     *
     *   G. Roman-Perez and J. M. Soler, Phys. Rev. Lett. 103, 096102 (2009).
     *
     *
     * If you are using vdW-DF2, please also cite:
     *
     *   K. Lee, E. D. Murray, L. Kong, B. I. Lundqvist, and
     *   D. C. Langreth, Phys. Rev. B 82, 081101(R) (2010).
     *
     *
     * If you are calculating the stress with vdW-DF, please also cite:
     *
     *   R. Sabatini, E. Kucukbenli, B. Kolb, T. Thonhauser, and
     *   S. de Gironcoli, J. Phys.: Condens. Matter 24, 424209 (2012).
     *
     ************************************************************************

     Carrying out vdW-DF run using the following parameters:

     Nqs =      20    Nr_points =    1024   r_max =   100.000
     q_mesh =
               0.00001000     0.04494208     0.09755937     0.15916263
               0.23128650     0.31572767     0.41458969     0.53033537
               0.66584808     0.82450364     1.01025438     1.22772762
               1.48234092     1.78043706     2.12944203     2.53805004
               3.01644009     3.57652955     4.23227104     5.00000000

     Gradients computed in reciprocal space

     ************************************************************************


     Starting wfc are  582 randomized atomic wfcs

     total cpu time spent up to now is      163.6 secs

     Self-consistent Calculation

     iteration #  1     ecut=    50.00 Ry     beta=0.70
     Davidson diagonalization with overlap
     ethr =  1.00E-02,  avg # of iterations =  3.0

     Threshold (ethr) on eigenvalues was too large:
     Diagonalizing with lowered threshold

     Davidson diagonalization with overlap
     ethr =  3.54E-04,  avg # of iterations =  5.3

     negative rho (up, down):  1.728E+00 0.000E+00

     total cpu time spent up to now is      768.9 secs

     total energy              =   -6602.76470672 Ry
     Harris-Foulkes estimate   =   -6605.04743539 Ry
     estimated scf accuracy    <       2.85563260 Ry

     iteration #  2     ecut=    50.00 Ry     beta=0.70
     Davidson diagonalization with overlap
     ethr =  4.01E-04,  avg # of iterations = 11.6

     negative rho (up, down):  1.726E+00 0.000E+00

     total cpu time spent up to now is     1693.6 secs

     total energy              =   -6596.58292833 Ry
     Harris-Foulkes estimate   =   -6610.21167060 Ry
     estimated scf accuracy    <      76.17244408 Ry

     iteration #  3     ecut=    50.00 Ry     beta=0.70
     Davidson diagonalization with overlap
     ethr =  4.01E-04,  avg # of iterations =  6.0

     negative rho (up, down):  1.737E+00 0.000E+00

     total cpu time spent up to now is     2288.6 secs

     total energy              =   -6603.01921544 Ry
     Harris-Foulkes estimate   =   -6605.08198800 Ry
     estimated scf accuracy    <       9.94466854 Ry

     iteration #  4     ecut=    50.00 Ry     beta=0.70
     Davidson diagonalization with overlap
     ethr =  4.01E-04,  avg # of iterations =  7.0

     negative rho (up, down):  1.738E+00 0.000E+00

     total cpu time spent up to now is     2669.2 secs

     total energy              =   -6603.37458908 Ry
     Harris-Foulkes estimate   =   -6605.25343567 Ry
     estimated scf accuracy    <      18.08274419 Ry

     iteration #  5     ecut=    50.00 Ry     beta=0.70
     Davidson diagonalization with overlap
     ethr =  4.01E-04,  avg # of iterations =  5.8

     negative rho (up, down):  1.748E+00 0.000E+00

     total cpu time spent up to now is     3006.6 secs

     total energy              =   -6604.33587788 Ry
     Harris-Foulkes estimate   =   -6604.61882558 Ry
     estimated scf accuracy    <       2.01791287 Ry

     iteration #  6     ecut=    50.00 Ry     beta=0.70
     Davidson diagonalization with overlap
     ethr =  2.83E-04,  avg # of iterations =  2.8

     negative rho (up, down):  1.753E+00 0.000E+00

     total cpu time spent up to now is     3262.7 secs

     total energy              =   -6604.43178873 Ry
     Harris-Foulkes estimate   =   -6604.46251911 Ry
     estimated scf accuracy    <       0.09182118 Ry

     iteration #  7     ecut=    50.00 Ry     beta=0.70
     Davidson diagonalization with overlap
     ethr =  1.29E-05,  avg # of iterations = 12.3

     negative rho (up, down):  1.755E+00 0.000E+00

     total cpu time spent up to now is     3798.7 secs

     total energy              =   -6604.43232765 Ry
     Harris-Foulkes estimate   =   -6604.45204095 Ry
     estimated scf accuracy    <       0.07627264 Ry

     iteration #  8     ecut=    50.00 Ry     beta=0.70
     Davidson diagonalization with overlap
     ethr =  1.07E-05,  avg # of iterations =  5.2

     negative rho (up, down):  1.756E+00 0.000E+00

     total cpu time spent up to now is     4110.0 secs

     total energy              =   -6604.43175939 Ry
     Harris-Foulkes estimate   =   -6604.44450732 Ry
     estimated scf accuracy    <       0.04680429 Ry

     iteration #  9     ecut=    50.00 Ry     beta=0.70
     Davidson diagonalization with overlap
     ethr =  6.57E-06,  avg # of iterations =  5.9

     negative rho (up, down):  1.756E+00 0.000E+00

     total cpu time spent up to now is     4442.2 secs

     total energy              =   -6604.43176324 Ry
     Harris-Foulkes estimate   =   -6604.43727751 Ry
     estimated scf accuracy    <       0.02035058 Ry

     iteration # 10     ecut=    50.00 Ry     beta=0.70
     Davidson diagonalization with overlap
     ethr =  2.86E-06,  avg # of iterations =  5.6

     negative rho (up, down):  1.757E+00 0.000E+00

     total cpu time spent up to now is     4786.6 secs

     total energy              =   -6604.43080369 Ry
     Harris-Foulkes estimate   =   -6604.43399566 Ry
     estimated scf accuracy    <       0.01138074 Ry

     iteration # 11     ecut=    50.00 Ry     beta=0.70
     Davidson diagonalization with overlap
     ethr =  1.60E-06,  avg # of iterations =  6.6

     negative rho (up, down):  1.758E+00 0.000E+00

     total cpu time spent up to now is     5135.0 secs

     total energy              =   -6604.43069900 Ry
     Harris-Foulkes estimate   =   -6604.43183373 Ry
     estimated scf accuracy    <       0.00543071 Ry

     iteration # 12     ecut=    50.00 Ry     beta=0.70
     Davidson diagonalization with overlap
     ethr =  7.63E-07,  avg # of iterations =  1.8

     negative rho (up, down):  1.758E+00 0.000E+00

     total cpu time spent up to now is     5387.3 secs

     total energy              =   -6604.42979720 Ry
     Harris-Foulkes estimate   =   -6604.43111038 Ry
     estimated scf accuracy    <       0.00207161 Ry

     iteration # 13     ecut=    50.00 Ry     beta=0.70
     Davidson diagonalization with overlap
     c_bands:  2 eigenvalues not converged
     c_bands:  1 eigenvalues not converged
     c_bands:  2 eigenvalues not converged
     c_bands:  2 eigenvalues not converged
     c_bands:  1 eigenvalues not converged
     c_bands:  2 eigenvalues not converged
     ethr =  2.91E-07,  avg # of iterations = 14.5

     negative rho (up, down):  1.758E+00 0.000E+00

     total cpu time spent up to now is     5880.6 secs

     total energy              =   -6604.43011119 Ry
     Harris-Foulkes estimate   =   -6604.43020451 Ry
     estimated scf accuracy    <       0.00019239 Ry

     iteration # 14     ecut=    50.00 Ry     beta=0.70
     Davidson diagonalization with overlap
     ethr =  2.70E-08,  avg # of iterations =  6.7

     negative rho (up, down):  1.758E+00 0.000E+00

     total cpu time spent up to now is     6294.3 secs

     total energy              =   -6604.43012842 Ry
     Harris-Foulkes estimate   =   -6604.43020174 Ry
     estimated scf accuracy    <       0.00027029 Ry

     iteration # 15     ecut=    50.00 Ry     beta=0.70
     Davidson diagonalization with overlap
     ethr =  2.70E-08,  avg # of iterations =  2.0

     negative rho (up, down):  1.758E+00 0.000E+00

     total cpu time spent up to now is     6555.0 secs

     total energy              =   -6604.43014887 Ry
     Harris-Foulkes estimate   =   -6604.43018818 Ry
     estimated scf accuracy    <       0.00025107 Ry

     iteration # 16     ecut=    50.00 Ry     beta=0.70
     Davidson diagonalization with overlap
     ethr =  2.70E-08,  avg # of iterations =  1.6

     negative rho (up, down):  1.758E+00 0.000E+00

     total cpu time spent up to now is     6812.2 secs

     total energy              =   -6604.43016622 Ry
     Harris-Foulkes estimate   =   -6604.43017601 Ry
     estimated scf accuracy    <       0.00004921 Ry

     iteration # 17     ecut=    50.00 Ry     beta=0.70
     Davidson diagonalization with overlap
     ethr =  6.91E-09,  avg # of iterations =  2.0

     negative rho (up, down):  1.758E+00 0.000E+00

     total cpu time spent up to now is     7068.1 secs

     total energy              =   -6604.43016871 Ry
     Harris-Foulkes estimate   =   -6604.43017430 Ry
     estimated scf accuracy    <       0.00002890 Ry

     iteration # 18     ecut=    50.00 Ry     beta=0.70
     Davidson diagonalization with overlap
     ethr =  4.06E-09,  avg # of iterations =  1.8

     negative rho (up, down):  1.758E+00 0.000E+00

     total cpu time spent up to now is     7320.7 secs

     total energy              =   -6604.43017111 Ry
     Harris-Foulkes estimate   =   -6604.43017306 Ry
     estimated scf accuracy    <       0.00001307 Ry

     iteration # 19     ecut=    50.00 Ry     beta=0.70
     Davidson diagonalization with overlap
     ethr =  1.84E-09,  avg # of iterations =  1.4

     negative rho (up, down):  1.758E+00 0.000E+00

     total cpu time spent up to now is     7562.9 secs

     total energy              =   -6604.43017195 Ry
     Harris-Foulkes estimate   =   -6604.43017259 Ry
     estimated scf accuracy    <       0.00000279 Ry

     iteration # 20     ecut=    50.00 Ry     beta=0.70
     Davidson diagonalization with overlap
     ethr =  3.92E-10,  avg # of iterations =  2.0

     negative rho (up, down):  1.758E+00 0.000E+00

     total cpu time spent up to now is     7791.3 secs

     total energy              =   -6604.43017236 Ry
     Harris-Foulkes estimate   =   -6604.43017247 Ry
     estimated scf accuracy    <       0.00000083 Ry

     iteration # 21     ecut=    50.00 Ry     beta=0.70
     Davidson diagonalization with overlap
     ethr =  1.17E-10,  avg # of iterations =  2.0

     negative rho (up, down):  1.758E+00 0.000E+00

     total cpu time spent up to now is     8004.2 secs

     total energy              =   -6604.43017249 Ry
     Harris-Foulkes estimate   =   -6604.43017252 Ry
     estimated scf accuracy    <       0.00000031 Ry

     iteration # 22     ecut=    50.00 Ry     beta=0.70
     Davidson diagonalization with overlap
     ethr =  4.33E-11,  avg # of iterations =  2.0

     negative rho (up, down):  1.758E+00 0.000E+00

     total cpu time spent up to now is     8216.8 secs

     End of self-consistent calculation

          k = 0.2500 0.4330 0.1111 (136853 PWs)   bands (ev):

   -18.6409  -6.4565  -6.4091  -6.0099  -6.0096  -5.3314  -4.9983  -4.9982
    -4.9591  -4.9580  -4.5981  -4.5979  -4.4994  -4.4993  -4.4853  -4.4630
    -4.4373  -4.3319  -4.3315  -4.3076  -4.2642  -4.2641  -4.1952  -4.1949
    -4.1879  -4.1878  -4.1670  -4.1608  -4.1605  -4.0886  -4.0870  -4.0587
    -4.0586  -4.0465  -4.0463  -4.0232  -4.0231  -4.0007  -3.9921  -3.9920
    -3.9652  -3.9131  -3.9130  -3.8652  -3.8652  -3.8053  -3.8052  -3.7512
    -3.7512  -3.7503  -3.7501  -3.7152  -3.6755  -3.6754  -3.6696  -3.6683
    -3.6681  -3.6376  -3.6365  -3.6285  -3.5667  -3.5664  -3.5570  -3.5411
    -3.5341  -3.4611  -3.4610  -3.4279  -3.4268  -3.3998  -3.3994  -3.3866
    -3.3698  -3.3093  -3.3090  -3.2919  -3.2919  -3.2397  -3.2346  -3.2346
    -3.1966  -3.1653  -3.1643  -3.1565  -3.1565  -3.1428  -3.1426  -3.1350
    -3.1347  -3.1252  -3.0844  -3.0467  -3.0464  -3.0319  -3.0315  -3.0057
    -2.9959  -2.9959  -2.9747  -2.9300  -2.9298  -2.9203  -2.8809  -2.8748
    -2.8633  -2.8631  -2.8339  -2.8331  -2.8046  -2.7666  -2.7665  -2.7442
    -2.7372  -2.7232  -2.7227  -2.6729  -2.6722  -2.6658  -2.6394  -2.6168
    -2.6167  -2.5925  -2.5920  -2.5812  -2.5809  -2.5703  -2.5471  -2.5469
    -2.5029  -2.5026  -2.5013  -2.4843  -2.4840  -2.4793  -2.4697  -2.4674
    -2.4665  -2.4662  -2.4613  -2.4479  -2.4476  -2.4386  -2.4116  -2.4114
    -2.4100  -2.4093  -2.4086  -2.4061  -2.4054  -2.3774  -2.3743  -2.3605
    -2.3604  -2.3427  -2.3426  -2.3325  -2.3323  -2.3309  -2.3302  -2.3110
    -2.3100  -2.3093  -2.3079  -2.2916  -2.2650  -2.2649  -2.2253  -2.2250
    -2.1992  -2.1990  -2.1719  -2.1717  -2.1439  -2.1437  -2.1258  -2.1221
    -2.0950  -2.0730  -2.0725  -2.0671  -2.0670  -2.0626  -2.0557  -2.0549
    -2.0294  -2.0231  -2.0130  -1.9554  -1.9524  -1.9513  -1.9489  -1.9486
    -1.9114  -1.8930  -1.8928  -1.8648  -1.8647  -1.8044  -1.8039  -1.7753
    -1.7568  -1.7568  -1.6955  -1.6954  -1.6839  -1.6831  -1.6726  -1.6719
    -1.6692  -1.6594  -1.6586  -1.6035  -1.6031  -1.5909  -1.5908  -1.5905
    -1.5713  -1.5699  -1.5353  -1.5349  -1.5178  -1.5177  -1.5174  -1.5112
    -1.5060  -1.4965  -1.4953  -1.4772  -1.4771  -1.4359  -1.4349  -1.4231
    -1.4220  -1.4026  -1.3890  -1.3458  -1.3449  -1.3195  -1.3146  -1.3143
    -1.2853  -1.2338  -1.2334  -1.2323  -1.2318  -1.2265  -1.2257  -1.2155
    -1.1972  -1.1966  -1.1573  -1.1564  -1.1260  -1.1258  -1.1210  -1.1209
    -1.1125  -1.0965  -1.0961  -1.0956  -1.0923  -1.0921  -1.0560  -1.0535
    -1.0529  -1.0524  -1.0211  -1.0208  -1.0175  -0.9940  -0.9857  -0.9848
    -0.9388  -0.9319  -0.9306  -0.8963  -0.8884  -0.8769  -0.8768  -0.8692
    -0.8686  -0.8679  -0.8670  -0.8556  -0.8555  -0.8296  -0.8295  -0.8264
    -0.8241  -0.8240  -0.7870  -0.7867  -0.7769  -0.7760  -0.7606  -0.7532
    -0.7523  -0.7409  -0.6850  -0.6834  -0.6746  -0.6738  -0.6737  -0.6724
    -0.6677  -0.6512  -0.6474  -0.6460  -0.6388  -0.6379  -0.6366  -0.6350
    -0.5973  -0.5946  -0.5942  -0.5864  -0.5857  -0.5807  -0.5790  -0.5679
    -0.5631  -0.5594  -0.5593  -0.5169  -0.5169  -0.5084  -0.5051  -0.5046
    -0.4275  -0.4267  -0.4246  -0.4244  -0.4152  -0.4151  -0.3786  -0.3657
    -0.3657  -0.3380  -0.3354  -0.3334  -0.2126  -0.2108  -0.1096   0.3057
     0.3060   0.3088   0.3089   0.3696   0.3703   0.7587   0.7594   0.8019
     0.8021   0.9097   0.9901   1.0998   1.1036   1.3199   1.3264   1.9560
     1.9565   2.1182   2.1191   2.2495   2.2508   2.3544   2.3545   2.5086
     2.7460   2.7512   2.8688   3.0924   3.0971   3.1786   3.1789   3.2787
     3.2937   3.4796   3.4988   3.5503   3.7507   3.7513   3.8133   3.8148
     4.0709   4.0781   4.0794   4.3215   4.3638   4.3641   4.4088   4.7445
     4.7466   4.7749   4.9096   5.0794   5.0820   5.0852   5.1486   5.2889
     5.6757   5.8695   5.8747   5.8784   5.8838   5.9444   5.9456   6.0200
     6.0332   6.0559   6.0802   6.1073   6.1087   6.1226   6.1375   6.1681
     6.1689   6.3450   6.5547   6.6511   6.7134   6.7474   6.8151   6.8186
     6.8258   6.9368   7.0101

          k = 0.2500-0.1443 0.1111 (136898 PWs)   bands (ev):

   -18.6409  -6.6191  -6.4565  -5.8270  -5.5354  -5.4767  -5.4766  -4.9382
    -4.9382  -4.8062  -4.8059  -4.6505  -4.6200  -4.5586  -4.5245  -4.5244
    -4.4916  -4.4916  -4.3631  -4.3213  -4.3212  -4.2611  -4.2399  -4.2398
    -4.1377  -4.1377  -4.1016  -4.1013  -4.1013  -4.0741  -4.0528  -4.0527
    -3.9470  -3.9456  -3.9455  -3.9246  -3.9078  -3.9078  -3.8954  -3.8953
    -3.8817  -3.8520  -3.8519  -3.8518  -3.8517  -3.8185  -3.8185  -3.8013
    -3.8012  -3.7864  -3.7429  -3.7428  -3.7129  -3.6974  -3.6972  -3.6931
    -3.6930  -3.6183  -3.6183  -3.5827  -3.5803  -3.5803  -3.5129  -3.5129
    -3.4973  -3.4972  -3.4661  -3.4659  -3.4651  -3.4649  -3.3116  -3.3115
    -3.2857  -3.2857  -3.2806  -3.2646  -3.2646  -3.2385  -3.2384  -3.1887
    -3.1887  -3.1724  -3.1723  -3.1520  -3.1032  -3.1031  -3.0836  -3.0786
    -3.0785  -3.0376  -3.0376  -3.0313  -3.0312  -3.0144  -3.0143  -2.9749
    -2.9749  -2.9530  -2.9530  -2.9499  -2.9499  -2.9468  -2.8693  -2.8693
    -2.8680  -2.8392  -2.8391  -2.7769  -2.7769  -2.7489  -2.7474  -2.7344
    -2.7343  -2.7290  -2.6993  -2.6993  -2.6898  -2.6722  -2.6664  -2.6461
    -2.6460  -2.6457  -2.6251  -2.6251  -2.6137  -2.6136  -2.6102  -2.6100
    -2.6023  -2.5564  -2.5235  -2.5234  -2.5081  -2.4939  -2.4873  -2.4872
    -2.4799  -2.4798  -2.4784  -2.4483  -2.4482  -2.4481  -2.4383  -2.4382
    -2.4208  -2.3932  -2.3929  -2.3924  -2.3918  -2.3915  -2.3465  -2.3148
    -2.3145  -2.3144  -2.3072  -2.2990  -2.2856  -2.2854  -2.2690  -2.2690
    -2.2353  -2.2337  -2.2336  -2.2147  -2.2132  -2.2131  -2.1803  -2.1801
    -2.1394  -2.1387  -2.1313  -2.1293  -2.1292  -2.1226  -2.1224  -2.1202
    -2.1200  -2.1128  -2.1125  -2.0960  -2.0959  -1.9685  -1.9683  -1.9361
    -1.9298  -1.9296  -1.9247  -1.9247  -1.9066  -1.9064  -1.9034  -1.9032
    -1.9018  -1.8791  -1.8706  -1.8703  -1.8671  -1.8585  -1.8584  -1.8355
    -1.8354  -1.8068  -1.8067  -1.7743  -1.7742  -1.7642  -1.7560  -1.7383
    -1.7382  -1.7353  -1.7168  -1.7046  -1.7045  -1.6969  -1.6969  -1.6701
    -1.6700  -1.6526  -1.6525  -1.6208  -1.6207  -1.6103  -1.5598  -1.5596
    -1.5471  -1.5469  -1.5461  -1.5215  -1.5190  -1.4852  -1.4845  -1.4843
    -1.4509  -1.4405  -1.4403  -1.4248  -1.4248  -1.3980  -1.3965  -1.3964
    -1.3668  -1.3640  -1.3639  -1.3011  -1.3010  -1.2876  -1.2874  -1.2712
    -1.2712  -1.2586  -1.2585  -1.2406  -1.2279  -1.1999  -1.1999  -1.1885
    -1.1609  -1.1501  -1.1499  -1.1384  -1.1384  -1.1360  -1.1305  -1.1303
    -1.1175  -1.0861  -1.0861  -1.0751  -1.0746  -1.0737  -1.0733  -1.0494
    -1.0309  -1.0306  -1.0097  -1.0094  -0.9170  -0.9031  -0.8976  -0.8975
    -0.8941  -0.8883  -0.8882  -0.8679  -0.8625  -0.8472  -0.8470  -0.8326
    -0.8325  -0.8230  -0.8029  -0.8026  -0.8010  -0.7927  -0.7209  -0.7208
    -0.6876  -0.6864  -0.6824  -0.6755  -0.6748  -0.6741  -0.6740  -0.6618
    -0.6605  -0.6543  -0.6355  -0.6198  -0.6047  -0.5849  -0.5846  -0.5734
    -0.5733  -0.5606  -0.5604  -0.5595  -0.5580  -0.5578  -0.5403  -0.5359
    -0.5359  -0.5053  -0.5037  -0.5036  -0.4916  -0.4915  -0.4722  -0.4400
    -0.4400  -0.4307  -0.4306  -0.3626  -0.3623  -0.3246  -0.3246  -0.2665
    -0.2654  -0.2653  -0.2549  -0.2371  -0.0137  -0.0126   0.3340   0.3340
     0.4253   0.4261   0.6188   0.6326   0.6517   0.7827   0.7829   1.2142
     1.2143   1.2328   1.4902   1.5243   1.5243   1.8010   1.8025   1.8808
     1.8809   1.9081   1.9088   2.1374   2.1374   2.2254   2.2255   2.2976
     2.3641   2.3654   2.5293   2.6266   3.0680   3.0684   3.0713   3.0716
     3.1265   3.1266   3.4185   3.4186   3.7002   3.7012   3.8018   4.1142
     4.1575   4.1581   4.3719   4.3785   4.4581   4.4589   4.5495   4.6674
     4.6681   4.7848   4.7850   5.0894   5.1415   5.1586   5.1619   5.3224
     5.3471   5.5463   5.5468   5.5723   5.5727   5.6361   5.6369   5.6723
     5.7373   6.0170   6.1936   6.2347   6.2446   6.3789   6.3795   6.3923
     6.3928   6.5197   6.6195   6.6330   6.6354   6.7525   6.8095   6.8598
     6.8693   6.9837   7.0011

          k =-0.2500-0.4330 0.1111 (136853 PWs)   bands (ev):

   -18.6409  -6.4565  -6.4091  -6.0099  -6.0096  -5.3314  -4.9983  -4.9982
    -4.9591  -4.9580  -4.5981  -4.5979  -4.4994  -4.4993  -4.4853  -4.4630
    -4.4373  -4.3319  -4.3315  -4.3076  -4.2642  -4.2641  -4.1952  -4.1949
    -4.1879  -4.1878  -4.1670  -4.1608  -4.1605  -4.0886  -4.0870  -4.0587
    -4.0586  -4.0465  -4.0463  -4.0232  -4.0231  -4.0007  -3.9921  -3.9920
    -3.9652  -3.9131  -3.9130  -3.8652  -3.8652  -3.8053  -3.8052  -3.7512
    -3.7512  -3.7503  -3.7501  -3.7152  -3.6755  -3.6754  -3.6696  -3.6683
    -3.6681  -3.6376  -3.6365  -3.6285  -3.5667  -3.5664  -3.5570  -3.5411
    -3.5341  -3.4611  -3.4610  -3.4279  -3.4268  -3.3998  -3.3994  -3.3866
    -3.3698  -3.3093  -3.3090  -3.2919  -3.2919  -3.2397  -3.2346  -3.2346
    -3.1966  -3.1653  -3.1643  -3.1565  -3.1565  -3.1428  -3.1426  -3.1350
    -3.1347  -3.1252  -3.0844  -3.0467  -3.0464  -3.0319  -3.0315  -3.0057
    -2.9959  -2.9959  -2.9747  -2.9300  -2.9298  -2.9203  -2.8809  -2.8748
    -2.8633  -2.8631  -2.8339  -2.8331  -2.8046  -2.7666  -2.7665  -2.7442
    -2.7372  -2.7232  -2.7227  -2.6729  -2.6722  -2.6658  -2.6394  -2.6168
    -2.6167  -2.5925  -2.5920  -2.5812  -2.5809  -2.5703  -2.5471  -2.5469
    -2.5029  -2.5026  -2.5013  -2.4843  -2.4840  -2.4793  -2.4697  -2.4674
    -2.4665  -2.4662  -2.4613  -2.4479  -2.4476  -2.4386  -2.4116  -2.4114
    -2.4100  -2.4093  -2.4086  -2.4061  -2.4054  -2.3774  -2.3743  -2.3605
    -2.3603  -2.3427  -2.3426  -2.3325  -2.3323  -2.3309  -2.3302  -2.3110
    -2.3100  -2.3093  -2.3079  -2.2916  -2.2650  -2.2649  -2.2253  -2.2250
    -2.1992  -2.1990  -2.1719  -2.1717  -2.1439  -2.1437  -2.1258  -2.1221
    -2.0950  -2.0730  -2.0725  -2.0671  -2.0671  -2.0626  -2.0557  -2.0549
    -2.0294  -2.0231  -2.0130  -1.9554  -1.9524  -1.9513  -1.9489  -1.9486
    -1.9114  -1.8930  -1.8928  -1.8648  -1.8647  -1.8044  -1.8039  -1.7753
    -1.7568  -1.7568  -1.6955  -1.6954  -1.6839  -1.6831  -1.6726  -1.6719
    -1.6692  -1.6594  -1.6586  -1.6035  -1.6031  -1.5909  -1.5908  -1.5905
    -1.5713  -1.5699  -1.5353  -1.5349  -1.5178  -1.5177  -1.5174  -1.5112
    -1.5060  -1.4965  -1.4953  -1.4772  -1.4771  -1.4359  -1.4349  -1.4231
    -1.4220  -1.4026  -1.3890  -1.3458  -1.3449  -1.3195  -1.3146  -1.3143
    -1.2853  -1.2338  -1.2334  -1.2323  -1.2318  -1.2265  -1.2257  -1.2155
    -1.1972  -1.1966  -1.1573  -1.1564  -1.1260  -1.1258  -1.1210  -1.1209
    -1.1125  -1.0965  -1.0961  -1.0956  -1.0923  -1.0921  -1.0560  -1.0535
    -1.0529  -1.0524  -1.0211  -1.0208  -1.0175  -0.9940  -0.9857  -0.9848
    -0.9388  -0.9319  -0.9306  -0.8963  -0.8884  -0.8769  -0.8768  -0.8692
    -0.8686  -0.8680  -0.8670  -0.8556  -0.8555  -0.8296  -0.8295  -0.8264
    -0.8241  -0.8240  -0.7870  -0.7867  -0.7769  -0.7760  -0.7606  -0.7532
    -0.7523  -0.7409  -0.6850  -0.6834  -0.6746  -0.6738  -0.6737  -0.6724
    -0.6677  -0.6512  -0.6474  -0.6460  -0.6388  -0.6379  -0.6366  -0.6350
    -0.5973  -0.5946  -0.5942  -0.5864  -0.5857  -0.5807  -0.5790  -0.5679
    -0.5631  -0.5594  -0.5593  -0.5169  -0.5169  -0.5084  -0.5051  -0.5046
    -0.4275  -0.4267  -0.4246  -0.4244  -0.4152  -0.4151  -0.3786  -0.3657
    -0.3657  -0.3380  -0.3354  -0.3334  -0.2126  -0.2108  -0.1096   0.3057
     0.3060   0.3088   0.3089   0.3696   0.3703   0.7587   0.7594   0.8019
     0.8021   0.9097   0.9901   1.0998   1.1036   1.3199   1.3264   1.9560
     1.9565   2.1182   2.1191   2.2495   2.2508   2.3544   2.3545   2.5086
     2.7460   2.7512   2.8688   3.0924   3.0971   3.1786   3.1789   3.2787
     3.2937   3.4796   3.4988   3.5503   3.7507   3.7513   3.8133   3.8148
     4.0709   4.0781   4.0794   4.3215   4.3638   4.3641   4.4088   4.7445
     4.7466   4.7749   4.9096   5.0794   5.0820   5.0852   5.1486   5.2889
     5.6752   5.8695   5.8747   5.8784   5.8837   5.9444   5.9456   6.0210
     6.0333   6.0559   6.0802   6.1073   6.1087   6.1225   6.1374   6.1681
     6.1689   6.3469   6.5551   6.6446   6.7108   6.7478   6.8150   6.8186
     6.8258   6.9368   7.0221

          k =-0.2500 0.4330-0.1111 (136853 PWs)   bands (ev):

   -18.6409  -6.4565  -6.4091  -6.0111  -6.0084  -5.3314  -4.9989  -4.9977
    -4.9597  -4.9574  -4.5986  -4.5973  -4.4995  -4.4992  -4.4851  -4.4630
    -4.4373  -4.3323  -4.3313  -4.3076  -4.2643  -4.2640  -4.1952  -4.1950
    -4.1882  -4.1875  -4.1669  -4.1620  -4.1593  -4.0886  -4.0869  -4.0593
    -4.0576  -4.0467  -4.0461  -4.0232  -4.0231  -4.0007  -3.9923  -3.9919
    -3.9654  -3.9134  -3.9128  -3.8662  -3.8642  -3.8052  -3.8052  -3.7513
    -3.7511  -3.7505  -3.7499  -3.7154  -3.6756  -3.6754  -3.6696  -3.6684
    -3.6682  -3.6376  -3.6365  -3.6284  -3.5668  -3.5663  -3.5569  -3.5409
    -3.5338  -3.4618  -3.4607  -3.4278  -3.4268  -3.3999  -3.3991  -3.3865
    -3.3699  -3.3094  -3.3093  -3.2921  -3.2913  -3.2396  -3.2348  -3.2345
    -3.1965  -3.1653  -3.1643  -3.1571  -3.1558  -3.1428  -3.1426  -3.1349
    -3.1346  -3.1253  -3.0844  -3.0473  -3.0460  -3.0319  -3.0313  -3.0058
    -2.9964  -2.9954  -2.9747  -2.9307  -2.9291  -2.9206  -2.8807  -2.8748
    -2.8639  -2.8624  -2.8340  -2.8334  -2.8047  -2.7665  -2.7662  -2.7442
    -2.7373  -2.7233  -2.7227  -2.6729  -2.6721  -2.6657  -2.6394  -2.6170
    -2.6168  -2.5926  -2.5922  -2.5814  -2.5806  -2.5704  -2.5475  -2.5466
    -2.5027  -2.5023  -2.5013  -2.4849  -2.4834  -2.4794  -2.4696  -2.4675
    -2.4667  -2.4661  -2.4612  -2.4485  -2.4468  -2.4386  -2.4117  -2.4111
    -2.4098  -2.4091  -2.4088  -2.4057  -2.4055  -2.3777  -2.3744  -2.3606
    -2.3602  -2.3431  -2.3423  -2.3324  -2.3322  -2.3311  -2.3304  -2.3114
    -2.3099  -2.3087  -2.3083  -2.2916  -2.2655  -2.2648  -2.2262  -2.2242
    -2.1999  -2.1985  -2.1717  -2.1714  -2.1441  -2.1434  -2.1258  -2.1220
    -2.0949  -2.0728  -2.0725  -2.0675  -2.0667  -2.0628  -2.0558  -2.0550
    -2.0293  -2.0227  -2.0131  -1.9554  -1.9523  -1.9516  -1.9491  -1.9487
    -1.9114  -1.8937  -1.8920  -1.8649  -1.8646  -1.8046  -1.8035  -1.7756
    -1.7569  -1.7565  -1.6959  -1.6950  -1.6837  -1.6831  -1.6728  -1.6717
    -1.6694  -1.6594  -1.6587  -1.6034  -1.6031  -1.5912  -1.5909  -1.5905
    -1.5712  -1.5699  -1.5352  -1.5350  -1.5180  -1.5177  -1.5173  -1.5109
    -1.5061  -1.4967  -1.4951  -1.4776  -1.4766  -1.4356  -1.4350  -1.4229
    -1.4219  -1.4024  -1.3890  -1.3462  -1.3446  -1.3197  -1.3147  -1.3143
    -1.2854  -1.2340  -1.2334  -1.2324  -1.2319  -1.2267  -1.2259  -1.2155
    -1.1974  -1.1963  -1.1571  -1.1564  -1.1261  -1.1258  -1.1213  -1.1206
    -1.1125  -1.0965  -1.0964  -1.0954  -1.0922  -1.0919  -1.0559  -1.0539
    -1.0530  -1.0522  -1.0212  -1.0206  -1.0173  -0.9944  -0.9858  -0.9844
    -0.9389  -0.9315  -0.9308  -0.8964  -0.8882  -0.8771  -0.8766  -0.8691
    -0.8685  -0.8679  -0.8671  -0.8558  -0.8554  -0.8298  -0.8292  -0.8266
    -0.8243  -0.8239  -0.7869  -0.7866  -0.7769  -0.7759  -0.7608  -0.7533
    -0.7524  -0.7407  -0.6849  -0.6833  -0.6743  -0.6739  -0.6735  -0.6726
    -0.6674  -0.6521  -0.6474  -0.6456  -0.6390  -0.6379  -0.6366  -0.6346
    -0.5973  -0.5948  -0.5940  -0.5866  -0.5855  -0.5807  -0.5790  -0.5676
    -0.5633  -0.5598  -0.5592  -0.5172  -0.5167  -0.5086  -0.5052  -0.5046
    -0.4273  -0.4269  -0.4247  -0.4243  -0.4153  -0.4151  -0.3785  -0.3659
    -0.3655  -0.3378  -0.3357  -0.3334  -0.2123  -0.2111  -0.1096   0.3056
     0.3061   0.3086   0.3091   0.3693   0.3704   0.7588   0.7594   0.8017
     0.8022   0.9097   0.9902   1.1001   1.1035   1.3209   1.3255   1.9561
     1.9562   2.1181   2.1194   2.2492   2.2512   2.3541   2.3548   2.5085
     2.7462   2.7512   2.8688   3.0932   3.0963   3.1782   3.1794   3.2786
     3.2938   3.4820   3.4965   3.5505   3.7505   3.7515   3.8135   3.8146
     4.0705   4.0780   4.0797   4.3221   4.3634   4.3642   4.4086   4.7444
     4.7467   4.7742   4.9097   5.0803   5.0820   5.0942   5.1448   5.2729
     5.7010   5.8566   5.8696   5.8759   5.8791   5.9450   5.9454   6.0301
     6.0413   6.0559   6.0801   6.1071   6.1089   6.1252   6.1367   6.1682
     6.1689   6.3639   6.5077   6.6591   6.7083   6.7461   6.8148   6.8187
     6.8258   6.9369   7.0253

          k = 0.2500-0.4330-0.1111 (136853 PWs)   bands (ev):

   -18.6409  -6.4565  -6.4091  -6.0111  -6.0084  -5.3314  -4.9989  -4.9977
    -4.9597  -4.9574  -4.5986  -4.5973  -4.4995  -4.4992  -4.4851  -4.4630
    -4.4373  -4.3323  -4.3313  -4.3076  -4.2643  -4.2640  -4.1952  -4.1950
    -4.1882  -4.1875  -4.1669  -4.1620  -4.1593  -4.0886  -4.0869  -4.0593
    -4.0576  -4.0467  -4.0461  -4.0232  -4.0231  -4.0007  -3.9923  -3.9919
    -3.9654  -3.9134  -3.9128  -3.8662  -3.8642  -3.8052  -3.8052  -3.7513
    -3.7511  -3.7505  -3.7499  -3.7154  -3.6756  -3.6754  -3.6696  -3.6684
    -3.6682  -3.6376  -3.6365  -3.6284  -3.5668  -3.5663  -3.5569  -3.5409
    -3.5338  -3.4618  -3.4607  -3.4278  -3.4268  -3.3999  -3.3991  -3.3865
    -3.3699  -3.3094  -3.3093  -3.2921  -3.2913  -3.2396  -3.2348  -3.2345
    -3.1965  -3.1653  -3.1643  -3.1571  -3.1558  -3.1428  -3.1426  -3.1349
    -3.1346  -3.1253  -3.0844  -3.0473  -3.0460  -3.0319  -3.0313  -3.0058
    -2.9964  -2.9954  -2.9747  -2.9307  -2.9291  -2.9206  -2.8807  -2.8748
    -2.8639  -2.8624  -2.8340  -2.8334  -2.8047  -2.7665  -2.7662  -2.7442
    -2.7373  -2.7233  -2.7227  -2.6729  -2.6721  -2.6657  -2.6394  -2.6170
    -2.6168  -2.5926  -2.5922  -2.5814  -2.5806  -2.5704  -2.5475  -2.5466
    -2.5027  -2.5023  -2.5013  -2.4849  -2.4834  -2.4794  -2.4696  -2.4675
    -2.4667  -2.4661  -2.4612  -2.4485  -2.4468  -2.4386  -2.4117  -2.4111
    -2.4098  -2.4091  -2.4088  -2.4057  -2.4055  -2.3777  -2.3744  -2.3606
    -2.3602  -2.3431  -2.3423  -2.3324  -2.3322  -2.3311  -2.3304  -2.3114
    -2.3099  -2.3087  -2.3083  -2.2916  -2.2655  -2.2648  -2.2262  -2.2242
    -2.1999  -2.1985  -2.1717  -2.1714  -2.1441  -2.1434  -2.1258  -2.1220
    -2.0949  -2.0728  -2.0725  -2.0675  -2.0667  -2.0628  -2.0558  -2.0550
    -2.0293  -2.0227  -2.0131  -1.9554  -1.9523  -1.9516  -1.9491  -1.9487
    -1.9114  -1.8937  -1.8920  -1.8649  -1.8646  -1.8046  -1.8035  -1.7756
    -1.7569  -1.7565  -1.6959  -1.6950  -1.6837  -1.6831  -1.6728  -1.6717
    -1.6694  -1.6594  -1.6587  -1.6034  -1.6031  -1.5912  -1.5909  -1.5905
    -1.5712  -1.5699  -1.5352  -1.5350  -1.5180  -1.5177  -1.5173  -1.5109
    -1.5061  -1.4967  -1.4951  -1.4776  -1.4766  -1.4356  -1.4350  -1.4229
    -1.4219  -1.4024  -1.3890  -1.3462  -1.3446  -1.3197  -1.3147  -1.3143
    -1.2854  -1.2340  -1.2334  -1.2324  -1.2319  -1.2267  -1.2259  -1.2155
    -1.1974  -1.1963  -1.1571  -1.1564  -1.1261  -1.1258  -1.1213  -1.1206
    -1.1125  -1.0965  -1.0964  -1.0954  -1.0922  -1.0919  -1.0559  -1.0539
    -1.0530  -1.0522  -1.0212  -1.0206  -1.0173  -0.9944  -0.9858  -0.9844
    -0.9389  -0.9315  -0.9308  -0.8964  -0.8882  -0.8771  -0.8766  -0.8691
    -0.8685  -0.8679  -0.8671  -0.8558  -0.8554  -0.8298  -0.8292  -0.8266
    -0.8243  -0.8239  -0.7869  -0.7866  -0.7769  -0.7759  -0.7608  -0.7533
    -0.7524  -0.7407  -0.6849  -0.6833  -0.6743  -0.6739  -0.6735  -0.6726
    -0.6674  -0.6521  -0.6474  -0.6456  -0.6390  -0.6379  -0.6366  -0.6346
    -0.5973  -0.5948  -0.5940  -0.5866  -0.5855  -0.5807  -0.5790  -0.5676
    -0.5633  -0.5598  -0.5592  -0.5172  -0.5167  -0.5086  -0.5052  -0.5046
    -0.4273  -0.4269  -0.4247  -0.4243  -0.4153  -0.4151  -0.3785  -0.3659
    -0.3655  -0.3378  -0.3357  -0.3334  -0.2123  -0.2111  -0.1096   0.3056
     0.3061   0.3086   0.3091   0.3693   0.3704   0.7588   0.7594   0.8017
     0.8022   0.9097   0.9902   1.1001   1.1035   1.3209   1.3255   1.9561
     1.9562   2.1181   2.1194   2.2492   2.2512   2.3541   2.3548   2.5085
     2.7462   2.7512   2.8688   3.0932   3.0963   3.1782   3.1794   3.2786
     3.2938   3.4820   3.4965   3.5505   3.7505   3.7515   3.8135   3.8146
     4.0705   4.0780   4.0797   4.3221   4.3634   4.3642   4.4086   4.7444
     4.7467   4.7742   4.9097   5.0803   5.0820   5.0942   5.1448   5.2729
     5.7011   5.8563   5.8696   5.8759   5.8791   5.9450   5.9454   6.0300
     6.0418   6.0559   6.0802   6.1071   6.1089   6.1252   6.1365   6.1682
     6.1689   6.3623   6.5101   6.6656   6.7001   6.7462   6.8146   6.8186
     6.8258   6.9367   7.0252

          k = 0.5000 0.0000 0.1111 (136853 PWs)   bands (ev):

   -18.6409  -6.4565  -6.4091  -6.0112  -6.0082  -5.3314  -4.9991  -4.9975
    -4.9600  -4.9571  -4.5986  -4.5973  -4.4995  -4.4992  -4.4851  -4.4630
    -4.4374  -4.3324  -4.3313  -4.3076  -4.2642  -4.2641  -4.1952  -4.1949
    -4.1884  -4.1873  -4.1669  -4.1621  -4.1592  -4.0888  -4.0867  -4.0594
    -4.0575  -4.0465  -4.0462  -4.0232  -4.0231  -4.0007  -3.9923  -3.9920
    -3.9654  -3.9133  -3.9129  -3.8662  -3.8642  -3.8053  -3.8051  -3.7513
    -3.7512  -3.7503  -3.7498  -3.7154  -3.6756  -3.6754  -3.6695  -3.6686
    -3.6680  -3.6375  -3.6366  -3.6285  -3.5667  -3.5664  -3.5569  -3.5409
    -3.5338  -3.4616  -3.4609  -3.4278  -3.4268  -3.4000  -3.3990  -3.3865
    -3.3699  -3.3095  -3.3091  -3.2921  -3.2914  -3.2396  -3.2347  -3.2346
    -3.1964  -3.1651  -3.1645  -3.1571  -3.1559  -3.1428  -3.1426  -3.1349
    -3.1347  -3.1254  -3.0844  -3.0473  -3.0459  -3.0318  -3.0315  -3.0058
    -2.9960  -2.9958  -2.9747  -2.9307  -2.9291  -2.9206  -2.8807  -2.8748
    -2.8638  -2.8624  -2.8340  -2.8333  -2.8047  -2.7665  -2.7661  -2.7442
    -2.7373  -2.7232  -2.7228  -2.6728  -2.6721  -2.6658  -2.6394  -2.6171
    -2.6167  -2.5924  -2.5923  -2.5814  -2.5806  -2.5704  -2.5474  -2.5467
    -2.5029  -2.5021  -2.5013  -2.4849  -2.4834  -2.4793  -2.4696  -2.4675
    -2.4667  -2.4661  -2.4613  -2.4484  -2.4469  -2.4385  -2.4115  -2.4113
    -2.4098  -2.4092  -2.4089  -2.4058  -2.4054  -2.3777  -2.3744  -2.3605
    -2.3603  -2.3430  -2.3424  -2.3324  -2.3323  -2.3311  -2.3303  -2.3113
    -2.3100  -2.3086  -2.3084  -2.2916  -2.2654  -2.2649  -2.2262  -2.2242
    -2.1999  -2.1985  -2.1718  -2.1714  -2.1440  -2.1435  -2.1258  -2.1220
    -2.0949  -2.0728  -2.0725  -2.0675  -2.0669  -2.0627  -2.0556  -2.0552
    -2.0294  -2.0227  -2.0130  -1.9554  -1.9522  -1.9518  -1.9492  -1.9485
    -1.9114  -1.8937  -1.8921  -1.8650  -1.8646  -1.8047  -1.8035  -1.7756
    -1.7570  -1.7565  -1.6958  -1.6951  -1.6837  -1.6832  -1.6725  -1.6720
    -1.6693  -1.6592  -1.6589  -1.6036  -1.6029  -1.5912  -1.5908  -1.5906
    -1.5708  -1.5703  -1.5353  -1.5350  -1.5180  -1.5177  -1.5173  -1.5109
    -1.5061  -1.4964  -1.4954  -1.4774  -1.4767  -1.4354  -1.4352  -1.4226
    -1.4223  -1.4024  -1.3890  -1.3460  -1.3448  -1.3197  -1.3146  -1.3143
    -1.2854  -1.2338  -1.2335  -1.2324  -1.2318  -1.2266  -1.2260  -1.2155
    -1.1972  -1.1965  -1.1570  -1.1566  -1.1260  -1.1259  -1.1213  -1.1206
    -1.1124  -1.0966  -1.0961  -1.0954  -1.0923  -1.0919  -1.0555  -1.0543
    -1.0527  -1.0524  -1.0210  -1.0207  -1.0174  -0.9944  -0.9854  -0.9848
    -0.9388  -0.9314  -0.9310  -0.8964  -0.8882  -0.8771  -0.8766  -0.8690
    -0.8686  -0.8676  -0.8674  -0.8557  -0.8555  -0.8298  -0.8291  -0.8266
    -0.8243  -0.8239  -0.7869  -0.7866  -0.7768  -0.7761  -0.7608  -0.7531
    -0.7525  -0.7408  -0.6848  -0.6835  -0.6742  -0.6739  -0.6732  -0.6728
    -0.6675  -0.6518  -0.6477  -0.6454  -0.6388  -0.6379  -0.6366  -0.6349
    -0.5973  -0.5946  -0.5941  -0.5863  -0.5858  -0.5807  -0.5790  -0.5676
    -0.5632  -0.5596  -0.5593  -0.5171  -0.5168  -0.5086  -0.5050  -0.5048
    -0.4273  -0.4269  -0.4246  -0.4244  -0.4153  -0.4150  -0.3785  -0.3658
    -0.3656  -0.3369  -0.3366  -0.3335  -0.2119  -0.2115  -0.1096   0.3057
     0.3060   0.3085   0.3092   0.3696   0.3700   0.7588   0.7594   0.8015
     0.8024   0.9096   0.9902   1.1011   1.1025   1.3225   1.3238   1.9553
     1.9569   2.1183   2.1192   2.2499   2.2504   2.3537   2.3552   2.5085
     2.7463   2.7509   2.8689   3.0939   3.0958   3.1777   3.1799   3.2786
     3.2938   3.4856   3.4930   3.5505   3.7504   3.7516   3.8130   3.8149
     4.0707   4.0785   4.0791   4.3220   4.3630   4.3647   4.4086   4.7447
     4.7463   4.7744   4.9097   5.0810   5.0818   5.1081   5.1386   5.2556
     5.7228   5.8378   5.8696   5.8762   5.8784   5.9449   5.9455   6.0277
     6.0537   6.0569   6.0804   6.1069   6.1081   6.1289   6.1355   6.1678
     6.1690   6.3837   6.4710   6.6711   6.7044   6.7440   6.8157   6.8182
     6.8257   6.9370   7.0258

          k =-0.5000 0.0000 0.1111 (136853 PWs)   bands (ev):

   -18.6409  -6.4565  -6.4091  -6.0112  -6.0082  -5.3314  -4.9991  -4.9975
    -4.9600  -4.9571  -4.5986  -4.5973  -4.4995  -4.4992  -4.4851  -4.4630
    -4.4374  -4.3324  -4.3313  -4.3076  -4.2642  -4.2641  -4.1952  -4.1949
    -4.1884  -4.1873  -4.1669  -4.1621  -4.1592  -4.0888  -4.0867  -4.0594
    -4.0575  -4.0465  -4.0462  -4.0232  -4.0231  -4.0007  -3.9923  -3.9920
    -3.9654  -3.9133  -3.9129  -3.8662  -3.8642  -3.8053  -3.8051  -3.7513
    -3.7512  -3.7503  -3.7498  -3.7154  -3.6756  -3.6754  -3.6695  -3.6686
    -3.6680  -3.6375  -3.6366  -3.6285  -3.5667  -3.5664  -3.5569  -3.5409
    -3.5338  -3.4616  -3.4609  -3.4278  -3.4268  -3.4000  -3.3990  -3.3865
    -3.3699  -3.3095  -3.3091  -3.2921  -3.2914  -3.2396  -3.2347  -3.2346
    -3.1964  -3.1651  -3.1645  -3.1571  -3.1559  -3.1428  -3.1426  -3.1349
    -3.1347  -3.1254  -3.0844  -3.0473  -3.0459  -3.0318  -3.0315  -3.0058
    -2.9960  -2.9958  -2.9747  -2.9307  -2.9291  -2.9206  -2.8807  -2.8748
    -2.8638  -2.8624  -2.8340  -2.8333  -2.8047  -2.7665  -2.7661  -2.7442
    -2.7373  -2.7232  -2.7228  -2.6728  -2.6721  -2.6658  -2.6394  -2.6171
    -2.6167  -2.5924  -2.5923  -2.5814  -2.5806  -2.5704  -2.5474  -2.5467
    -2.5029  -2.5021  -2.5013  -2.4849  -2.4834  -2.4793  -2.4696  -2.4675
    -2.4667  -2.4661  -2.4613  -2.4484  -2.4469  -2.4385  -2.4115  -2.4113
    -2.4098  -2.4092  -2.4089  -2.4058  -2.4054  -2.3777  -2.3744  -2.3605
    -2.3603  -2.3430  -2.3424  -2.3324  -2.3323  -2.3311  -2.3303  -2.3113
    -2.3100  -2.3086  -2.3084  -2.2916  -2.2654  -2.2649  -2.2262  -2.2242
    -2.1999  -2.1985  -2.1718  -2.1714  -2.1440  -2.1435  -2.1258  -2.1220
    -2.0949  -2.0728  -2.0725  -2.0675  -2.0669  -2.0627  -2.0556  -2.0552
    -2.0294  -2.0227  -2.0130  -1.9554  -1.9522  -1.9518  -1.9492  -1.9485
    -1.9114  -1.8937  -1.8921  -1.8650  -1.8646  -1.8047  -1.8035  -1.7756
    -1.7570  -1.7565  -1.6958  -1.6951  -1.6837  -1.6832  -1.6725  -1.6720
    -1.6693  -1.6592  -1.6589  -1.6036  -1.6029  -1.5912  -1.5908  -1.5906
    -1.5708  -1.5703  -1.5353  -1.5350  -1.5180  -1.5177  -1.5173  -1.5109
    -1.5061  -1.4964  -1.4954  -1.4774  -1.4767  -1.4354  -1.4352  -1.4226
    -1.4223  -1.4024  -1.3890  -1.3460  -1.3448  -1.3197  -1.3146  -1.3143
    -1.2854  -1.2338  -1.2335  -1.2324  -1.2318  -1.2266  -1.2260  -1.2155
    -1.1972  -1.1965  -1.1570  -1.1566  -1.1260  -1.1259  -1.1213  -1.1206
    -1.1124  -1.0966  -1.0961  -1.0954  -1.0923  -1.0919  -1.0555  -1.0543
    -1.0527  -1.0524  -1.0210  -1.0207  -1.0174  -0.9944  -0.9854  -0.9848
    -0.9388  -0.9314  -0.9310  -0.8964  -0.8882  -0.8771  -0.8766  -0.8690
    -0.8686  -0.8676  -0.8674  -0.8557  -0.8555  -0.8298  -0.8291  -0.8266
    -0.8243  -0.8239  -0.7869  -0.7866  -0.7768  -0.7761  -0.7608  -0.7531
    -0.7525  -0.7408  -0.6848  -0.6835  -0.6742  -0.6739  -0.6732  -0.6728
    -0.6675  -0.6518  -0.6477  -0.6454  -0.6388  -0.6379  -0.6366  -0.6349
    -0.5973  -0.5946  -0.5941  -0.5863  -0.5858  -0.5807  -0.5790  -0.5676
    -0.5632  -0.5596  -0.5593  -0.5171  -0.5168  -0.5086  -0.5050  -0.5048
    -0.4273  -0.4269  -0.4246  -0.4244  -0.4153  -0.4150  -0.3785  -0.3658
    -0.3656  -0.3369  -0.3366  -0.3335  -0.2119  -0.2115  -0.1096   0.3057
     0.3060   0.3085   0.3092   0.3696   0.3700   0.7588   0.7594   0.8015
     0.8024   0.9096   0.9902   1.1011   1.1025   1.3225   1.3238   1.9553
     1.9569   2.1183   2.1192   2.2499   2.2504   2.3537   2.3552   2.5085
     2.7463   2.7509   2.8689   3.0939   3.0958   3.1777   3.1799   3.2786
     3.2938   3.4856   3.4930   3.5505   3.7504   3.7516   3.8130   3.8149
     4.0707   4.0785   4.0791   4.3220   4.3630   4.3647   4.4086   4.7447
     4.7463   4.7744   4.9097   5.0810   5.0818   5.1081   5.1386   5.2556
     5.7222   5.8379   5.8696   5.8762   5.8784   5.9449   5.9455   6.0275
     6.0542   6.0581   6.0804   6.1069   6.1081   6.1288   6.1351   6.1678
     6.1690   6.3853   6.4708   6.6688   6.6995   6.7435   6.8157   6.8182
     6.8257   6.9369   7.0299

          k =-0.2500 0.1443 0.1111 (136898 PWs)   bands (ev):

   -18.6409  -6.6191  -6.4565  -5.8270  -5.5354  -5.4767  -5.4766  -4.9382
    -4.9382  -4.8062  -4.8059  -4.6505  -4.6200  -4.5586  -4.5245  -4.5244
    -4.4916  -4.4916  -4.3631  -4.3213  -4.3212  -4.2611  -4.2399  -4.2398
    -4.1377  -4.1377  -4.1016  -4.1013  -4.1013  -4.0741  -4.0528  -4.0527
    -3.9470  -3.9456  -3.9455  -3.9247  -3.9078  -3.9078  -3.8954  -3.8953
    -3.8817  -3.8520  -3.8519  -3.8518  -3.8517  -3.8186  -3.8185  -3.8013
    -3.8012  -3.7864  -3.7429  -3.7428  -3.7129  -3.6974  -3.6972  -3.6931
    -3.6930  -3.6183  -3.6183  -3.5827  -3.5803  -3.5802  -3.5129  -3.5129
    -3.4973  -3.4972  -3.4661  -3.4659  -3.4651  -3.4649  -3.3116  -3.3115
    -3.2857  -3.2857  -3.2806  -3.2646  -3.2646  -3.2385  -3.2384  -3.1887
    -3.1887  -3.1724  -3.1723  -3.1521  -3.1032  -3.1031  -3.0836  -3.0786
    -3.0785  -3.0376  -3.0376  -3.0313  -3.0312  -3.0144  -3.0143  -2.9749
    -2.9749  -2.9530  -2.9530  -2.9499  -2.9499  -2.9468  -2.8693  -2.8693
    -2.8680  -2.8392  -2.8391  -2.7769  -2.7769  -2.7489  -2.7474  -2.7344
    -2.7343  -2.7290  -2.6993  -2.6993  -2.6898  -2.6722  -2.6664  -2.6461
    -2.6460  -2.6457  -2.6251  -2.6250  -2.6137  -2.6136  -2.6102  -2.6100
    -2.6023  -2.5564  -2.5235  -2.5234  -2.5081  -2.4939  -2.4873  -2.4872
    -2.4799  -2.4798  -2.4784  -2.4483  -2.4482  -2.4481  -2.4383  -2.4382
    -2.4208  -2.3932  -2.3929  -2.3924  -2.3918  -2.3915  -2.3465  -2.3148
    -2.3145  -2.3144  -2.3072  -2.2990  -2.2856  -2.2854  -2.2690  -2.2690
    -2.2353  -2.2337  -2.2336  -2.2147  -2.2132  -2.2131  -2.1802  -2.1801
    -2.1394  -2.1387  -2.1313  -2.1293  -2.1292  -2.1226  -2.1224  -2.1202
    -2.1200  -2.1128  -2.1125  -2.0960  -2.0959  -1.9685  -1.9683  -1.9361
    -1.9298  -1.9296  -1.9247  -1.9247  -1.9066  -1.9064  -1.9034  -1.9032
    -1.9018  -1.8791  -1.8706  -1.8703  -1.8671  -1.8585  -1.8584  -1.8355
    -1.8354  -1.8068  -1.8067  -1.7743  -1.7742  -1.7643  -1.7560  -1.7383
    -1.7382  -1.7353  -1.7168  -1.7046  -1.7045  -1.6969  -1.6969  -1.6701
    -1.6700  -1.6526  -1.6525  -1.6208  -1.6207  -1.6103  -1.5598  -1.5596
    -1.5471  -1.5469  -1.5461  -1.5215  -1.5190  -1.4852  -1.4845  -1.4843
    -1.4509  -1.4405  -1.4403  -1.4248  -1.4248  -1.3980  -1.3965  -1.3964
    -1.3668  -1.3640  -1.3639  -1.3011  -1.3010  -1.2876  -1.2874  -1.2712
    -1.2712  -1.2586  -1.2585  -1.2406  -1.2279  -1.1999  -1.1999  -1.1885
    -1.1609  -1.1501  -1.1499  -1.1384  -1.1384  -1.1360  -1.1305  -1.1303
    -1.1175  -1.0861  -1.0861  -1.0751  -1.0746  -1.0737  -1.0733  -1.0494
    -1.0309  -1.0306  -1.0097  -1.0094  -0.9170  -0.9031  -0.8976  -0.8975
    -0.8940  -0.8883  -0.8882  -0.8679  -0.8625  -0.8472  -0.8470  -0.8326
    -0.8325  -0.8230  -0.8029  -0.8026  -0.8010  -0.7927  -0.7209  -0.7208
    -0.6875  -0.6864  -0.6824  -0.6755  -0.6748  -0.6741  -0.6740  -0.6618
    -0.6605  -0.6543  -0.6355  -0.6198  -0.6047  -0.5849  -0.5846  -0.5734
    -0.5733  -0.5606  -0.5604  -0.5595  -0.5580  -0.5578  -0.5403  -0.5359
    -0.5359  -0.5053  -0.5037  -0.5036  -0.4916  -0.4915  -0.4722  -0.4400
    -0.4400  -0.4307  -0.4306  -0.3626  -0.3623  -0.3246  -0.3246  -0.2665
    -0.2654  -0.2653  -0.2549  -0.2371  -0.0137  -0.0126   0.3340   0.3340
     0.4253   0.4261   0.6188   0.6326   0.6517   0.7827   0.7829   1.2142
     1.2143   1.2328   1.4902   1.5243   1.5243   1.8010   1.8025   1.8808
     1.8809   1.9081   1.9088   2.1374   2.1374   2.2254   2.2255   2.2977
     2.3641   2.3654   2.5293   2.6266   3.0680   3.0684   3.0713   3.0716
     3.1265   3.1266   3.4185   3.4186   3.7002   3.7012   3.8018   4.1142
     4.1575   4.1581   4.3719   4.3785   4.4581   4.4589   4.5495   4.6674
     4.6681   4.7848   4.7850   5.0894   5.1415   5.1586   5.1619   5.3224
     5.3471   5.5463   5.5468   5.5723   5.5727   5.6361   5.6369   5.6724
     5.7366   6.0175   6.1942   6.2363   6.2445   6.3789   6.3795   6.3922
     6.3927   6.5146   6.6249   6.6328   6.6349   6.7479   6.8141   6.8598
     6.8699   6.9772   7.0002

          k =-0.2500-0.1443-0.1111 (136898 PWs)   bands (ev):

   -18.6409  -6.6191  -6.4565  -5.8270  -5.5353  -5.4766  -5.4766  -4.9382
    -4.9381  -4.8066  -4.8056  -4.6505  -4.6200  -4.5588  -4.5245  -4.5244
    -4.4917  -4.4914  -4.3630  -4.3214  -4.3211  -4.2610  -4.2400  -4.2398
    -4.1377  -4.1376  -4.1016  -4.1014  -4.1013  -4.0740  -4.0530  -4.0525
    -3.9470  -3.9457  -3.9454  -3.9245  -3.9080  -3.9077  -3.8954  -3.8954
    -3.8816  -3.8520  -3.8519  -3.8517  -3.8516  -3.8187  -3.8184  -3.8012
    -3.8012  -3.7863  -3.7431  -3.7426  -3.7130  -3.6974  -3.6972  -3.6931
    -3.6930  -3.6185  -3.6183  -3.5826  -3.5803  -3.5801  -3.5131  -3.5130
    -3.4972  -3.4971  -3.4659  -3.4656  -3.4654  -3.4653  -3.3116  -3.3115
    -3.2858  -3.2856  -3.2805  -3.2647  -3.2646  -3.2385  -3.2382  -3.1888
    -3.1887  -3.1724  -3.1723  -3.1520  -3.1033  -3.1029  -3.0837  -3.0787
    -3.0786  -3.0377  -3.0376  -3.0314  -3.0312  -3.0145  -3.0143  -2.9747
    -2.9747  -2.9530  -2.9529  -2.9499  -2.9498  -2.9467  -2.8694  -2.8693
    -2.8682  -2.8392  -2.8391  -2.7770  -2.7767  -2.7488  -2.7475  -2.7342
    -2.7341  -2.7291  -2.6995  -2.6990  -2.6899  -2.6721  -2.6663  -2.6462
    -2.6461  -2.6460  -2.6250  -2.6250  -2.6141  -2.6138  -2.6100  -2.6099
    -2.6024  -2.5563  -2.5236  -2.5235  -2.5080  -2.4940  -2.4872  -2.4872
    -2.4800  -2.4798  -2.4785  -2.4484  -2.4483  -2.4479  -2.4383  -2.4381
    -2.4206  -2.3935  -2.3930  -2.3923  -2.3917  -2.3915  -2.3466  -2.3150
    -2.3146  -2.3144  -2.3071  -2.2990  -2.2857  -2.2851  -2.2689  -2.2688
    -2.2353  -2.2336  -2.2335  -2.2148  -2.2132  -2.2131  -2.1802  -2.1801
    -2.1396  -2.1385  -2.1311  -2.1292  -2.1291  -2.1226  -2.1225  -2.1206
    -2.1199  -2.1127  -2.1124  -2.0961  -2.0960  -1.9685  -1.9683  -1.9360
    -1.9297  -1.9295  -1.9246  -1.9246  -1.9072  -1.9069  -1.9033  -1.9032
    -1.9012  -1.8791  -1.8705  -1.8703  -1.8672  -1.8585  -1.8580  -1.8357
    -1.8356  -1.8071  -1.8066  -1.7743  -1.7741  -1.7641  -1.7559  -1.7382
    -1.7381  -1.7350  -1.7168  -1.7047  -1.7047  -1.6971  -1.6970  -1.6699
    -1.6698  -1.6529  -1.6523  -1.6210  -1.6208  -1.6104  -1.5601  -1.5594
    -1.5470  -1.5468  -1.5465  -1.5218  -1.5188  -1.4851  -1.4844  -1.4841
    -1.4510  -1.4404  -1.4402  -1.4248  -1.4246  -1.3980  -1.3966  -1.3964
    -1.3669  -1.3639  -1.3638  -1.3013  -1.3012  -1.2876  -1.2874  -1.2714
    -1.2711  -1.2584  -1.2583  -1.2401  -1.2276  -1.2001  -1.1998  -1.1886
    -1.1606  -1.1501  -1.1499  -1.1385  -1.1385  -1.1363  -1.1307  -1.1305
    -1.1175  -1.0862  -1.0859  -1.0750  -1.0747  -1.0737  -1.0732  -1.0494
    -1.0312  -1.0308  -1.0096  -1.0093  -0.9168  -0.9031  -0.8976  -0.8975
    -0.8938  -0.8886  -0.8882  -0.8677  -0.8625  -0.8473  -0.8469  -0.8326
    -0.8325  -0.8232  -0.8028  -0.8025  -0.8011  -0.7928  -0.7209  -0.7207
    -0.6875  -0.6863  -0.6825  -0.6754  -0.6750  -0.6742  -0.6739  -0.6625
    -0.6603  -0.6540  -0.6353  -0.6197  -0.6052  -0.5849  -0.5846  -0.5735
    -0.5734  -0.5605  -0.5603  -0.5595  -0.5580  -0.5578  -0.5403  -0.5361
    -0.5359  -0.5052  -0.5035  -0.5035  -0.4916  -0.4915  -0.4723  -0.4400
    -0.4399  -0.4307  -0.4306  -0.3625  -0.3625  -0.3249  -0.3243  -0.2665
    -0.2655  -0.2652  -0.2552  -0.2371  -0.0134  -0.0126   0.3340   0.3340
     0.4254   0.4262   0.6188   0.6324   0.6517   0.7827   0.7829   1.2141
     1.2143   1.2330   1.4903   1.5242   1.5244   1.8012   1.8023   1.8808
     1.8809   1.9081   1.9088   2.1371   2.1375   2.2254   2.2255   2.2976
     2.3643   2.3652   2.5292   2.6266   3.0682   3.0684   3.0712   3.0716
     3.1263   3.1268   3.4183   3.4188   3.7002   3.7012   3.8019   4.1143
     4.1573   4.1579   4.3691   4.3804   4.4583   4.4589   4.5494   4.6673
     4.6681   4.7850   4.7854   5.0892   5.1446   5.1587   5.1603   5.3266
     5.3494   5.5461   5.5466   5.5722   5.5727   5.6356   5.6374   5.6748
     5.7263   5.9848   6.2215   6.2438   6.2486   6.3790   6.3796   6.3922
     6.3929   6.5196   6.6204   6.6323   6.6348   6.7326   6.8287   6.8597
     6.8723   6.9723   7.0122

          k = 0.2500 0.1443-0.1111 (136898 PWs)   bands (ev):

   -18.6409  -6.6191  -6.4565  -5.8270  -5.5353  -5.4766  -5.4766  -4.9382
    -4.9381  -4.8066  -4.8056  -4.6505  -4.6200  -4.5588  -4.5245  -4.5244
    -4.4917  -4.4914  -4.3630  -4.3214  -4.3211  -4.2610  -4.2400  -4.2398
    -4.1377  -4.1376  -4.1016  -4.1014  -4.1013  -4.0740  -4.0530  -4.0525
    -3.9470  -3.9457  -3.9454  -3.9245  -3.9080  -3.9077  -3.8954  -3.8954
    -3.8816  -3.8520  -3.8519  -3.8517  -3.8516  -3.8187  -3.8184  -3.8012
    -3.8012  -3.7863  -3.7431  -3.7426  -3.7130  -3.6974  -3.6972  -3.6931
    -3.6930  -3.6185  -3.6183  -3.5826  -3.5803  -3.5801  -3.5131  -3.5130
    -3.4972  -3.4971  -3.4659  -3.4656  -3.4654  -3.4653  -3.3116  -3.3115
    -3.2858  -3.2856  -3.2805  -3.2647  -3.2646  -3.2385  -3.2382  -3.1888
    -3.1887  -3.1724  -3.1723  -3.1520  -3.1033  -3.1029  -3.0837  -3.0787
    -3.0786  -3.0377  -3.0376  -3.0314  -3.0312  -3.0145  -3.0143  -2.9747
    -2.9747  -2.9530  -2.9529  -2.9499  -2.9498  -2.9467  -2.8694  -2.8693
    -2.8682  -2.8392  -2.8391  -2.7770  -2.7766  -2.7488  -2.7475  -2.7342
    -2.7341  -2.7291  -2.6995  -2.6990  -2.6899  -2.6721  -2.6663  -2.6462
    -2.6461  -2.6460  -2.6250  -2.6250  -2.6141  -2.6138  -2.6100  -2.6099
    -2.6024  -2.5563  -2.5236  -2.5235  -2.5080  -2.4940  -2.4872  -2.4872
    -2.4800  -2.4798  -2.4785  -2.4484  -2.4483  -2.4479  -2.4383  -2.4381
    -2.4206  -2.3935  -2.3930  -2.3923  -2.3917  -2.3915  -2.3466  -2.3150
    -2.3146  -2.3144  -2.3071  -2.2990  -2.2857  -2.2851  -2.2689  -2.2688
    -2.2353  -2.2336  -2.2335  -2.2148  -2.2132  -2.2131  -2.1802  -2.1801
    -2.1396  -2.1385  -2.1311  -2.1292  -2.1291  -2.1226  -2.1225  -2.1206
    -2.1199  -2.1127  -2.1124  -2.0961  -2.0960  -1.9685  -1.9683  -1.9360
    -1.9297  -1.9295  -1.9246  -1.9246  -1.9072  -1.9069  -1.9033  -1.9032
    -1.9012  -1.8791  -1.8705  -1.8703  -1.8672  -1.8585  -1.8580  -1.8357
    -1.8356  -1.8071  -1.8066  -1.7743  -1.7742  -1.7641  -1.7559  -1.7382
    -1.7381  -1.7350  -1.7168  -1.7047  -1.7047  -1.6971  -1.6970  -1.6699
    -1.6698  -1.6529  -1.6522  -1.6210  -1.6208  -1.6104  -1.5601  -1.5594
    -1.5470  -1.5468  -1.5465  -1.5218  -1.5188  -1.4851  -1.4844  -1.4841
    -1.4510  -1.4404  -1.4402  -1.4248  -1.4246  -1.3980  -1.3966  -1.3964
    -1.3669  -1.3639  -1.3638  -1.3013  -1.3012  -1.2876  -1.2874  -1.2714
    -1.2711  -1.2584  -1.2583  -1.2401  -1.2276  -1.2001  -1.1998  -1.1886
    -1.1606  -1.1501  -1.1499  -1.1385  -1.1385  -1.1363  -1.1307  -1.1305
    -1.1175  -1.0862  -1.0859  -1.0751  -1.0747  -1.0737  -1.0732  -1.0494
    -1.0312  -1.0308  -1.0096  -1.0093  -0.9168  -0.9031  -0.8976  -0.8975
    -0.8938  -0.8886  -0.8882  -0.8677  -0.8625  -0.8473  -0.8469  -0.8326
    -0.8325  -0.8232  -0.8028  -0.8025  -0.8011  -0.7928  -0.7209  -0.7207
    -0.6875  -0.6863  -0.6825  -0.6754  -0.6750  -0.6742  -0.6739  -0.6625
    -0.6603  -0.6540  -0.6353  -0.6197  -0.6052  -0.5849  -0.5846  -0.5735
    -0.5734  -0.5605  -0.5603  -0.5595  -0.5580  -0.5578  -0.5403  -0.5361
    -0.5359  -0.5052  -0.5035  -0.5035  -0.4916  -0.4915  -0.4723  -0.4400
    -0.4399  -0.4307  -0.4306  -0.3626  -0.3625  -0.3249  -0.3243  -0.2665
    -0.2655  -0.2652  -0.2552  -0.2371  -0.0134  -0.0127   0.3340   0.3340
     0.4254   0.4262   0.6188   0.6324   0.6518   0.7827   0.7829   1.2141
     1.2143   1.2330   1.4902   1.5242   1.5244   1.8012   1.8023   1.8808
     1.8809   1.9081   1.9088   2.1371   2.1375   2.2254   2.2255   2.2976
     2.3643   2.3652   2.5292   2.6266   3.0682   3.0684   3.0712   3.0716
     3.1263   3.1268   3.4183   3.4188   3.7002   3.7012   3.8019   4.1143
     4.1573   4.1579   4.3691   4.3804   4.4583   4.4589   4.5494   4.6673
     4.6681   4.7850   4.7854   5.0892   5.1447   5.1587   5.1603   5.3266
     5.3495   5.5460   5.5466   5.5722   5.5727   5.6356   5.6374   5.6749
     5.7251   5.9870   6.2227   6.2439   6.2486   6.3790   6.3796   6.3922
     6.3929   6.5204   6.6018   6.6329   6.6346   6.7444   6.8292   6.8596
     6.8731   6.9723   7.0160

          k = 0.0000-0.2887 0.1111 (136898 PWs)   bands (ev):

   -18.6409  -6.6191  -6.4565  -5.8270  -5.5353  -5.4767  -5.4766  -4.9382
    -4.9381  -4.8066  -4.8056  -4.6505  -4.6200  -4.5588  -4.5246  -4.5243
    -4.4916  -4.4915  -4.3630  -4.3213  -4.3212  -4.2610  -4.2400  -4.2398
    -4.1377  -4.1376  -4.1016  -4.1014  -4.1013  -4.0740  -4.0528  -4.0527
    -3.9470  -3.9457  -3.9455  -3.9246  -3.9080  -3.9078  -3.8955  -3.8953
    -3.8817  -3.8521  -3.8519  -3.8517  -3.8514  -3.8186  -3.8184  -3.8012
    -3.8012  -3.7863  -3.7430  -3.7428  -3.7130  -3.6975  -3.6971  -3.6931
    -3.6930  -3.6185  -3.6183  -3.5826  -3.5803  -3.5801  -3.5131  -3.5129
    -3.4973  -3.4971  -3.4660  -3.4657  -3.4654  -3.4651  -3.3117  -3.3115
    -3.2858  -3.2856  -3.2805  -3.2647  -3.2646  -3.2386  -3.2381  -3.1888
    -3.1887  -3.1725  -3.1723  -3.1519  -3.1033  -3.1029  -3.0837  -3.0787
    -3.0786  -3.0377  -3.0376  -3.0314  -3.0312  -3.0146  -3.0143  -2.9747
    -2.9747  -2.9531  -2.9528  -2.9499  -2.9497  -2.9467  -2.8694  -2.8692
    -2.8682  -2.8392  -2.8390  -2.7772  -2.7766  -2.7488  -2.7474  -2.7342
    -2.7341  -2.7291  -2.6993  -2.6991  -2.6899  -2.6721  -2.6664  -2.6463
    -2.6460  -2.6459  -2.6250  -2.6250  -2.6140  -2.6138  -2.6102  -2.6098
    -2.6024  -2.5563  -2.5236  -2.5235  -2.5080  -2.4940  -2.4873  -2.4871
    -2.4800  -2.4798  -2.4785  -2.4484  -2.4482  -2.4479  -2.4385  -2.4379
    -2.4206  -2.3935  -2.3931  -2.3924  -2.3917  -2.3915  -2.3466  -2.3150
    -2.3146  -2.3144  -2.3071  -2.2990  -2.2857  -2.2852  -2.2689  -2.2688
    -2.2353  -2.2337  -2.2335  -2.2148  -2.2132  -2.2130  -2.1803  -2.1800
    -2.1394  -2.1387  -2.1311  -2.1293  -2.1290  -2.1226  -2.1224  -2.1204
    -2.1200  -2.1129  -2.1123  -2.0962  -2.0959  -1.9687  -1.9682  -1.9361
    -1.9299  -1.9294  -1.9247  -1.9246  -1.9072  -1.9068  -1.9034  -1.9031
    -1.9012  -1.8791  -1.8707  -1.8702  -1.8672  -1.8585  -1.8580  -1.8357
    -1.8356  -1.8071  -1.8066  -1.7744  -1.7741  -1.7641  -1.7559  -1.7383
    -1.7381  -1.7350  -1.7168  -1.7047  -1.7046  -1.6971  -1.6970  -1.6700
    -1.6698  -1.6529  -1.6523  -1.6211  -1.6207  -1.6103  -1.5600  -1.5595
    -1.5471  -1.5467  -1.5465  -1.5218  -1.5188  -1.4852  -1.4845  -1.4841
    -1.4510  -1.4405  -1.4402  -1.4248  -1.4246  -1.3980  -1.3966  -1.3963
    -1.3669  -1.3639  -1.3638  -1.3014  -1.3011  -1.2878  -1.2873  -1.2716
    -1.2709  -1.2584  -1.2583  -1.2402  -1.2277  -1.2001  -1.1997  -1.1886
    -1.1607  -1.1501  -1.1498  -1.1385  -1.1385  -1.1363  -1.1308  -1.1304
    -1.1175  -1.0862  -1.0859  -1.0754  -1.0747  -1.0734  -1.0732  -1.0494
    -1.0313  -1.0305  -1.0098  -1.0092  -0.9168  -0.9032  -0.8976  -0.8975
    -0.8938  -0.8886  -0.8883  -0.8677  -0.8625  -0.8474  -0.8468  -0.8326
    -0.8325  -0.8231  -0.8029  -0.8025  -0.8010  -0.7928  -0.7209  -0.7207
    -0.6875  -0.6862  -0.6825  -0.6755  -0.6748  -0.6741  -0.6740  -0.6627
    -0.6606  -0.6537  -0.6354  -0.6196  -0.6051  -0.5850  -0.5846  -0.5735
    -0.5733  -0.5606  -0.5603  -0.5594  -0.5581  -0.5578  -0.5403  -0.5361
    -0.5359  -0.5052  -0.5036  -0.5034  -0.4917  -0.4914  -0.4723  -0.4400
    -0.4399  -0.4307  -0.4306  -0.3626  -0.3625  -0.3248  -0.3243  -0.2665
    -0.2655  -0.2652  -0.2552  -0.2371  -0.0138  -0.0122   0.3340   0.3341
     0.4249   0.4266   0.6192   0.6321   0.6517   0.7826   0.7830   1.2142
     1.2143   1.2330   1.4902   1.5243   1.5244   1.8003   1.8033   1.8808
     1.8809   1.9076   1.9092   2.1371   2.1375   2.2253   2.2255   2.2974
     2.3637   2.3660   2.5292   2.6265   3.0683   3.0685   3.0710   3.0718
     3.1263   3.1268   3.4185   3.4186   3.6994   3.7019   3.8021   4.1143
     4.1569   4.1583   4.3637   4.3848   4.4582   4.4590   4.5494   4.6672
     4.6681   4.7850   4.7855   5.0894   5.1435   5.1588   5.1635   5.3330
     5.3475   5.5457   5.5468   5.5725   5.5727   5.6360   5.6371   5.6775
     5.7152   5.9721   6.2163   6.2432   6.2787   6.3790   6.3794   6.3917
     6.3934   6.5280   6.5986   6.6326   6.6350   6.7198   6.8526   6.8567
     6.8719   6.9573   7.0344

          k = 0.0000 0.2887 0.1111 (136898 PWs)   bands (ev):

   -18.6409  -6.6191  -6.4565  -5.8270  -5.5353  -5.4767  -5.4766  -4.9382
    -4.9381  -4.8066  -4.8056  -4.6505  -4.6200  -4.5588  -4.5246  -4.5243
    -4.4916  -4.4915  -4.3630  -4.3213  -4.3212  -4.2610  -4.2400  -4.2398
    -4.1377  -4.1376  -4.1016  -4.1014  -4.1013  -4.0741  -4.0528  -4.0527
    -3.9470  -3.9457  -3.9455  -3.9246  -3.9080  -3.9077  -3.8954  -3.8953
    -3.8817  -3.8521  -3.8519  -3.8517  -3.8514  -3.8186  -3.8184  -3.8012
    -3.8012  -3.7863  -3.7430  -3.7428  -3.7130  -3.6975  -3.6971  -3.6931
    -3.6930  -3.6185  -3.6183  -3.5826  -3.5803  -3.5801  -3.5131  -3.5129
    -3.4973  -3.4971  -3.4660  -3.4657  -3.4654  -3.4651  -3.3117  -3.3115
    -3.2858  -3.2856  -3.2805  -3.2647  -3.2646  -3.2386  -3.2381  -3.1888
    -3.1887  -3.1725  -3.1723  -3.1519  -3.1033  -3.1029  -3.0837  -3.0787
    -3.0786  -3.0377  -3.0376  -3.0314  -3.0312  -3.0146  -3.0143  -2.9747
    -2.9747  -2.9531  -2.9528  -2.9499  -2.9497  -2.9467  -2.8695  -2.8692
    -2.8682  -2.8393  -2.8390  -2.7772  -2.7766  -2.7488  -2.7475  -2.7342
    -2.7341  -2.7291  -2.6993  -2.6991  -2.6899  -2.6721  -2.6664  -2.6463
    -2.6460  -2.6459  -2.6250  -2.6250  -2.6140  -2.6138  -2.6102  -2.6098
    -2.6024  -2.5563  -2.5236  -2.5235  -2.5080  -2.4940  -2.4873  -2.4871
    -2.4800  -2.4798  -2.4785  -2.4484  -2.4482  -2.4479  -2.4385  -2.4379
    -2.4206  -2.3935  -2.3931  -2.3924  -2.3917  -2.3915  -2.3466  -2.3150
    -2.3146  -2.3144  -2.3071  -2.2990  -2.2857  -2.2852  -2.2689  -2.2688
    -2.2353  -2.2337  -2.2335  -2.2148  -2.2132  -2.2130  -2.1803  -2.1800
    -2.1394  -2.1387  -2.1311  -2.1293  -2.1290  -2.1226  -2.1224  -2.1204
    -2.1200  -2.1129  -2.1123  -2.0962  -2.0959  -1.9687  -1.9682  -1.9361
    -1.9299  -1.9294  -1.9247  -1.9246  -1.9072  -1.9068  -1.9034  -1.9031
    -1.9012  -1.8791  -1.8707  -1.8702  -1.8672  -1.8585  -1.8580  -1.8357
    -1.8356  -1.8071  -1.8066  -1.7744  -1.7741  -1.7641  -1.7559  -1.7383
    -1.7381  -1.7350  -1.7168  -1.7047  -1.7046  -1.6971  -1.6970  -1.6700
    -1.6698  -1.6529  -1.6523  -1.6211  -1.6207  -1.6103  -1.5600  -1.5595
    -1.5471  -1.5467  -1.5465  -1.5218  -1.5188  -1.4852  -1.4845  -1.4841
    -1.4510  -1.4405  -1.4402  -1.4248  -1.4246  -1.3979  -1.3966  -1.3963
    -1.3669  -1.3639  -1.3638  -1.3014  -1.3011  -1.2878  -1.2873  -1.2716
    -1.2709  -1.2584  -1.2583  -1.2402  -1.2277  -1.2001  -1.1997  -1.1886
    -1.1607  -1.1501  -1.1498  -1.1385  -1.1385  -1.1363  -1.1308  -1.1304
    -1.1175  -1.0862  -1.0859  -1.0754  -1.0747  -1.0734  -1.0732  -1.0494
    -1.0313  -1.0305  -1.0098  -1.0092  -0.9168  -0.9032  -0.8976  -0.8975
    -0.8938  -0.8886  -0.8883  -0.8677  -0.8625  -0.8474  -0.8468  -0.8326
    -0.8325  -0.8231  -0.8029  -0.8025  -0.8011  -0.7928  -0.7209  -0.7207
    -0.6875  -0.6862  -0.6825  -0.6755  -0.6748  -0.6741  -0.6740  -0.6627
    -0.6606  -0.6537  -0.6354  -0.6196  -0.6051  -0.5850  -0.5846  -0.5735
    -0.5733  -0.5606  -0.5603  -0.5594  -0.5581  -0.5578  -0.5403  -0.5361
    -0.5359  -0.5052  -0.5036  -0.5034  -0.4917  -0.4914  -0.4723  -0.4400
    -0.4399  -0.4307  -0.4306  -0.3626  -0.3625  -0.3248  -0.3243  -0.2665
    -0.2655  -0.2652  -0.2552  -0.2371  -0.0138  -0.0122   0.3340   0.3341
     0.4249   0.4266   0.6192   0.6321   0.6517   0.7826   0.7830   1.2142
     1.2143   1.2330   1.4902   1.5243   1.5244   1.8003   1.8033   1.8808
     1.8809   1.9076   1.9092   2.1371   2.1375   2.2253   2.2255   2.2974
     2.3637   2.3660   2.5292   2.6265   3.0683   3.0685   3.0710   3.0718
     3.1263   3.1268   3.4185   3.4186   3.6994   3.7019   3.8021   4.1143
     4.1569   4.1583   4.3637   4.3848   4.4582   4.4590   4.5494   4.6672
     4.6681   4.7850   4.7855   5.0894   5.1435   5.1588   5.1635   5.3330
     5.3475   5.5457   5.5468   5.5725   5.5727   5.6360   5.6371   5.6775
     5.7158   5.9712   6.2148   6.2433   6.2795   6.3791   6.3794   6.3917
     6.3934   6.5239   6.6105   6.6325   6.6350   6.7099   6.8539   6.8566
     6.8723   6.9622   7.0349

     the Fermi energy is     1.3566 ev

!    total energy              =   -6604.43017254 Ry
     Harris-Foulkes estimate   =   -6604.43017253 Ry
     estimated scf accuracy    <          8.9E-09 Ry

     The total energy is the sum of the following terms:

     one-electron contribution =  -48261.72894876 Ry
     hartree contribution      =   24630.08268060 Ry
     xc contribution           =   -3204.94980081 Ry
     ewald contribution        =   20232.16299878 Ry
     smearing contrib. (-TS)   =       0.00289766 Ry

     convergence has been achieved in  22 iterations

     Writing output data file 2820010.save

     init_run     :    151.61s CPU    162.72s WALL (       1 calls)
     electrons    :   7536.79s CPU   8053.54s WALL (       1 calls)

     Called by init_run:
     wfcinit      :    119.57s CPU    129.58s WALL (       1 calls)
     potinit      :      9.03s CPU      9.63s WALL (       1 calls)

     Called by electrons:
     c_bands      :   6483.08s CPU   6898.55s WALL (      23 calls)
     sum_band     :    792.16s CPU    878.16s WALL (      23 calls)
     v_of_rho     :     76.62s CPU     88.27s WALL (      23 calls)
     newd         :    197.70s CPU    201.31s WALL (      23 calls)
     mix_rho      :      1.88s CPU      2.22s WALL (      23 calls)
     vdW_energy   :      6.98s CPU      7.74s WALL (      23 calls)
     vdW_ffts     :     38.52s CPU     45.25s WALL (      46 calls)
     vdW_v        :      9.13s CPU      9.99s WALL (      23 calls)

     Called by c_bands:
     init_us_2    :     14.72s CPU     15.23s WALL (     564 calls)
     cegterg      :   6381.34s CPU   6794.11s WALL (     276 calls)

     Called by *egterg:
     h_psi        :   2576.84s CPU   2953.46s WALL (    1667 calls)
     s_psi        :    413.05s CPU    415.45s WALL (    1667 calls)
     g_psi        :      5.60s CPU      5.61s WALL (    1379 calls)
     cdiaghg      :   2186.02s CPU   2191.87s WALL (    1643 calls)

     Called by h_psi:
     add_vuspsi   :    413.03s CPU    415.60s WALL (    1667 calls)

     General routines
     calbec       :    576.99s CPU    579.41s WALL (    1943 calls)
     fft          :     65.71s CPU     76.58s WALL (    1518 calls)
     ffts         :      0.94s CPU      1.19s WALL (      46 calls)
     fftw         :   1677.29s CPU   2037.02s WALL (  666728 calls)
     interpolate  :      2.90s CPU      3.56s WALL (      46 calls)
     davcio       :      0.00s CPU      0.27s WALL (      12 calls)

     Parallel routines
     fft_scatter  :   1026.97s CPU   1261.28s WALL (  668292 calls)

     PWSCF        :     2h 8m CPU        2h17m WALL


   This run was terminated on:  21: 0:36   5Jul2015            

=------------------------------------------------------------------------------=
   JOB DONE.
=------------------------------------------------------------------------------=
