Setting SGE environment for SCC

     Program PWSCF v.5.1.2 starts on  2Jul2015 at 23:33:12 

     This program is part of the open-source Quantum ESPRESSO suite
     for quantum simulation of materials; please cite
         "P. Giannozzi et al., J. Phys.:Condens. Matter 21 395502 (2009);
          URL http://www.quantum-espresso.org", 
     in publications or presentations arising from this work. More details at
     http://www.quantum-espresso.org/quote

     Parallel version (MPI), running on    32 processors
     R & G space division:  proc/nbgrp/npool/nimage =      32
     Reading input from hollow.O1.Au535758.d.2.5.phi.0.psi.0.in
Warning: card &IONS ignored
Warning: card / ignored
Warning: card &CELL ignored
Warning: card / ignored

     Current dimensions of program PWSCF are:
     Max number of different atomic species (ntypx) = 10
     Max number of k-points (npk) =  40000
     Max angular momentum in pseudopotentials (lmaxx) =  3

     IMPORTANT: XC functional enforced from input :
     Exchange-correlation      = VDW-DF ( 1  4  4  0 1 0)
     Any further DFT definition will be discarded
     Please, verify this is what you really want


     Subspace diagonalization in iterative solution of the eigenvalue problem:
     a serial algorithm will be used


     Parallelization info
     --------------------
     sticks:   dense  smooth     PW     G-vecs:    dense   smooth      PW
     Min         445     223     58                96775    34191    4534
     Max         446     224     59                96790    34246    4540
     Sum       14269    7147   1867              3097177  1095093  145167


     Title: 
     hollow.O1.Au535758.d.2.5.phi.0.psi.0                                       


     bravais-lattice index     =            4
     lattice parameter (alat)  =      22.7436  a.u.
     unit-cell volume          =   22924.1508 (a.u.)^3
     number of atoms/cell      =           67
     number of atomic types    =            3
     number of electrons       =       712.00
     number of Kohn-Sham states=          427
     kinetic-energy cutoff     =      50.0000  Ry
     charge density cutoff     =     400.0000  Ry
     convergence threshold     =      1.0E-08
     mixing beta               =       0.7000
     number of iterations used =            8  plain     mixing
     Exchange-correlation      = VDW-DF ( 1  4  4  0 1 0)

     celldm(1)=  22.743643  celldm(2)=   0.000000  celldm(3)=   2.250000
     celldm(4)=   0.000000  celldm(5)=   0.000000  celldm(6)=   0.000000

     crystal axes: (cart. coord. in units of alat)
               a(1) = (   1.000000   0.000000   0.000000 )  
               a(2) = (  -0.500000   0.866025   0.000000 )  
               a(3) = (   0.000000   0.000000   2.250000 )  

     reciprocal axes: (cart. coord. in units 2 pi/alat)
               b(1) = (  1.000000  0.577350 -0.000000 )  
               b(2) = (  0.000000  1.154701  0.000000 )  
               b(3) = (  0.000000 -0.000000  0.444444 )  


     PseudoPot. # 1 for Au read from file:
     /home/scc/andrejb/qe/pseudo/Au.pbe-nd-van.UPF
     MD5 check sum: 458681b50f36d87ef23c61b04bba420a
     Pseudo is Ultrasoft + core correction, Zval = 11.0
     Generated by new atomic code, or converted to UPF format
     Using radial grid of  985 points,  3 beta functions with: 
                l(1) =   1
                l(2) =   2
                l(3) =   2
     Q(r) pseudized with  8 coefficients,  rinner =    1.100   1.100   1.100
                                                       1.100   1.100

     PseudoPot. # 2 for H  read from file:
     /home/scc/andrejb/qe/pseudo/H.pbe-van_ak.UPF
     MD5 check sum: 403db7282739603aa925980fa9b8608d
     Pseudo is Ultrasoft, Zval =  1.0
     Generated by new atomic code, or converted to UPF format
     Using radial grid of  615 points,  1 beta functions with: 
                l(1) =   0
     Q(r) pseudized with  8 coefficients,  rinner =    0.800

     PseudoPot. # 3 for O  read from file:
     /home/scc/andrejb/qe/pseudo/O.pbe-van_ak.UPF
     MD5 check sum: 4b8c549914a63cae506c6ff22b5af4fe
     Pseudo is Ultrasoft, Zval =  6.0
     Generated by new atomic code, or converted to UPF format
     Using radial grid of  737 points,  4 beta functions with: 
                l(1) =   0
                l(2) =   0
                l(3) =   1
                l(4) =   1
     Q(r) pseudized with  8 coefficients,  rinner =    0.800   0.800   0.800


     vdW kernel table read from file vdW_kernel_table
     MD5 check sum: 48e77a2e26edf626eeb0eaa751ad5cac

     atomic species   valence    mass     pseudopotential
        Au            11.00   196.96657     Au( 1.00)
        H              1.00     1.01000     H ( 1.00)
        O              6.00    16.00000     O ( 1.00)

     No symmetry found



   Cartesian axes

     site n.     atom                  positions (alat units)
         1           O   tau(   1) = (  -0.0208375   0.5411347   0.8207265  )
         2           H   tau(   2) = (  -0.0707709   0.4995870   0.8689801  )
         3           H   tau(   3) = (   0.0275819   0.5814415   0.8714872  )
         4           Au  tau(   4) = (   0.3540481   0.6132292   0.0000000  )
         5           Au  tau(   5) = (   0.4790062   0.3967954   0.0000000  )
         6           Au  tau(   6) = (   0.6039644   0.1803616   0.0000000  )
         7           Au  tau(   7) = (   0.7289225  -0.0360723   0.0000000  )
         8           Au  tau(   8) = (   0.1041318   0.6132292   0.0000000  )
         9           Au  tau(   9) = (   0.2290899   0.3967954   0.0000000  )
        10           Au  tau(  10) = (   0.3540481   0.1803616   0.0000000  )
        11           Au  tau(  11) = (   0.4790062  -0.0360723   0.0000000  )
        12           Au  tau(  12) = (  -0.1457845   0.6132292   0.0000000  )
        13           Au  tau(  13) = (  -0.0208264   0.3967954   0.0000000  )
        14           Au  tau(  14) = (   0.1041318   0.1803616   0.0000000  )
        15           Au  tau(  15) = (   0.2290899  -0.0360723   0.0000000  )
        16           Au  tau(  16) = (  -0.3957008   0.6132292   0.0000000  )
        17           Au  tau(  17) = (  -0.2707426   0.3967954   0.0000000  )
        18           Au  tau(  18) = (  -0.1457845   0.1803616   0.0000000  )
        19           Au  tau(  19) = (  -0.0208264  -0.0360723   0.0000000  )
        20           Au  tau(  20) = (   0.4790062   0.6853738   0.2040557  )
        21           Au  tau(  21) = (   0.6039644   0.4689400   0.2040557  )
        22           Au  tau(  22) = (   0.7289225   0.2525061   0.2040557  )
        23           Au  tau(  23) = (   0.8538806   0.0360723   0.2040557  )
        24           Au  tau(  24) = (   0.2290899   0.6853738   0.2040557  )
        25           Au  tau(  25) = (   0.3540481   0.4689400   0.2040557  )
        26           Au  tau(  26) = (   0.4790062   0.2525061   0.2040557  )
        27           Au  tau(  27) = (   0.6039644   0.0360723   0.2040557  )
        28           Au  tau(  28) = (  -0.0208264   0.6853738   0.2040557  )
        29           Au  tau(  29) = (   0.1041318   0.4689400   0.2040557  )
        30           Au  tau(  30) = (   0.2290899   0.2525061   0.2040557  )
        31           Au  tau(  31) = (   0.3540481   0.0360723   0.2040557  )
        32           Au  tau(  32) = (  -0.2707426   0.6853738   0.2040557  )
        33           Au  tau(  33) = (  -0.1457845   0.4689400   0.2040557  )
        34           Au  tau(  34) = (  -0.0208264   0.2525061   0.2040557  )
        35           Au  tau(  35) = (   0.1041318   0.0360723   0.2040557  )
        36           Au  tau(  36) = (   0.3541162   0.7576593   0.4066483  )
        37           Au  tau(  37) = (   0.4791000   0.5411421   0.4066695  )
        38           Au  tau(  38) = (   0.6040570   0.3246862   0.4066617  )
        39           Au  tau(  39) = (   0.7290270   0.1081684   0.4066529  )
        40           Au  tau(  40) = (   0.1041162   0.7576236   0.4066247  )
        41           Au  tau(  41) = (   0.2291001   0.5411063   0.4066455  )
        42           Au  tau(  42) = (   0.3540567   0.3246505   0.4066380  )
        43           Au  tau(  43) = (   0.4790276   0.1081324   0.4066292  )
        44           Au  tau(  44) = (  -0.1458201   0.7576104   0.4066224  )
        45           Au  tau(  45) = (  -0.0208365   0.5410930   0.4066438  )
        46           Au  tau(  46) = (   0.1041202   0.3246372   0.4066359  )
        47           Au  tau(  47) = (   0.2290908   0.1081193   0.4066273  )
        48           Au  tau(  48) = (  -0.3958167   0.7575791   0.4065812  )
        49           Au  tau(  49) = (  -0.2708328   0.5410617   0.4066025  )
        50           Au  tau(  50) = (  -0.1458763   0.3246061   0.4065947  )
        51           Au  tau(  51) = (  -0.0209056   0.1080882   0.4065858  )
        52           Au  tau(  52) = (   0.3541085   0.6133344   0.6129762  )
        53           Au  tau(  53) = (   0.4790780   0.3968269   0.6129968  )
        54           Au  tau(  54) = (   0.6040356   0.1803811   0.6129859  )
        55           Au  tau(  55) = (   0.7290165  -0.0361221   0.6129385  )
        56           Au  tau(  56) = (   0.1041243   0.6133091   0.6130022  )
        57           Au  tau(  57) = (   0.2290941   0.3968013   0.6130241  )
        58           Au  tau(  58) = (   0.3540515   0.1803552   0.6130121  )
        59           Au  tau(  59) = (   0.4790323  -0.0361475   0.6129659  )
        60           Au  tau(  60) = (  -0.1458030   0.6133014   0.6129980  )
        61           Au  tau(  61) = (  -0.0208339   0.3967936   0.6130188  )
        62           Au  tau(  62) = (   0.1041239   0.1803477   0.6130083  )
        63           Au  tau(  63) = (   0.2291046  -0.0361554   0.6129607  )
        64           Au  tau(  64) = (  -0.3957908   0.6132739   0.6129471  )
        65           Au  tau(  65) = (  -0.2708208   0.3967658   0.6129688  )
        66           Au  tau(  66) = (  -0.1458636   0.1803200   0.6129569  )
        67           Au  tau(  67) = (  -0.0208823  -0.0361826   0.6129110  )

     number of k points=    12  Marzari-Vanderbilt smearing, width (Ry)=  0.0200
                       cart. coord. in units 2pi/alat
        k(    1) = (   0.2500000   0.4330127   0.1111111), wk =   0.1666667
        k(    2) = (   0.2500000  -0.1443376   0.1111111), wk =   0.1666667
        k(    3) = (  -0.2500000  -0.4330127   0.1111111), wk =   0.1666667
        k(    4) = (  -0.2500000   0.4330127  -0.1111111), wk =   0.1666667
        k(    5) = (   0.2500000  -0.4330127  -0.1111111), wk =   0.1666667
        k(    6) = (   0.5000000   0.0000000   0.1111111), wk =   0.1666667
        k(    7) = (  -0.5000000   0.0000000   0.1111111), wk =   0.1666667
        k(    8) = (  -0.2500000   0.1443376   0.1111111), wk =   0.1666667
        k(    9) = (  -0.2500000  -0.1443376  -0.1111111), wk =   0.1666667
        k(   10) = (   0.2500000   0.1443376  -0.1111111), wk =   0.1666667
        k(   11) = (   0.0000000  -0.2886751   0.1111111), wk =   0.1666667
        k(   12) = (   0.0000000   0.2886751   0.1111111), wk =   0.1666667

     Dense  grid:  3097177 G-vectors     FFT dimensions: ( 150, 150, 360)

     Smooth grid:  1095093 G-vectors     FFT dimensions: ( 108, 108, 240)

     Largest allocated arrays     est. size (Mb)     dimensions
        Kohn-Sham Wavefunctions        28.01 Mb     (    4299,  427)
        NL pseudopotentials            55.23 Mb     (    4299,  842)
        Each V/rho on FFT grid          4.12 Mb     (  270000)
        Each G-vector array             0.74 Mb     (   96788)
        G-vector shells                 0.16 Mb     (   21404)
     Largest temporary arrays     est. size (Mb)     dimensions
        Auxiliary wavefunctions       112.04 Mb     (    4299, 1708)
        Each subspace H/S matrix       44.51 Mb     (    1708, 1708)
        Each <psi_i|beta_j> matrix      5.49 Mb     (     842,  427)
        Arrays for rho mixing          32.96 Mb     (  270000,    8)

     Initial potential from superposition of free atoms
     Check: negative starting charge=   -1.730296

     starting charge  711.25682, renormalised to  712.00000

     negative rho (up, down):  1.732E+00 0.000E+00


     ************************************************************************
     *
     * You are using vdW-DF for exchange-correlation in this calculation.
     * Please cite the following three references that made this development
     * possible:
     *
     *   M. Dion, H. Rydberg, E. Schroder, D. C. Langreth, and
     *   B. I. Lundqvist, Phys. Rev. Lett. 92, 246401 (2004).
     *
     *   T. Thonhauser, V. R. Cooper, S. Li, A. Puzder, P. Hyldgaard, and
     *   D. C. Langreth, Phys. Rev. B 76, 125112 (2007).
     *
     *   G. Roman-Perez and J. M. Soler, Phys. Rev. Lett. 103, 096102 (2009).
     *
     *
     * If you are using vdW-DF2, please also cite:
     *
     *   K. Lee, E. D. Murray, L. Kong, B. I. Lundqvist, and
     *   D. C. Langreth, Phys. Rev. B 82, 081101(R) (2010).
     *
     *
     * If you are calculating the stress with vdW-DF, please also cite:
     *
     *   R. Sabatini, E. Kucukbenli, B. Kolb, T. Thonhauser, and
     *   S. de Gironcoli, J. Phys.: Condens. Matter 24, 424209 (2012).
     *
     ************************************************************************

     Carrying out vdW-DF run using the following parameters:

     Nqs =      20    Nr_points =    1024   r_max =   100.000
     q_mesh =
               0.00001000     0.04494208     0.09755937     0.15916263
               0.23128650     0.31572767     0.41458969     0.53033537
               0.66584808     0.82450364     1.01025438     1.22772762
               1.48234092     1.78043706     2.12944203     2.53805004
               3.01644009     3.57652955     4.23227104     5.00000000

     Gradients computed in reciprocal space

     ************************************************************************


     Starting wfc are  582 randomized atomic wfcs

     total cpu time spent up to now is      150.5 secs

     Self-consistent Calculation

     iteration #  1     ecut=    50.00 Ry     beta=0.70
     Davidson diagonalization with overlap
     ethr =  1.00E-02,  avg # of iterations =  3.0

     Threshold (ethr) on eigenvalues was too large:
     Diagonalizing with lowered threshold

     Davidson diagonalization with overlap
     ethr =  3.58E-04,  avg # of iterations =  4.8

     negative rho (up, down):  1.728E+00 0.000E+00

     total cpu time spent up to now is      733.8 secs

     total energy              =   -6602.73948804 Ry
     Harris-Foulkes estimate   =   -6605.04641829 Ry
     estimated scf accuracy    <       2.88472605 Ry

     iteration #  2     ecut=    50.00 Ry     beta=0.70
     Davidson diagonalization with overlap
     ethr =  4.05E-04,  avg # of iterations = 10.9

     negative rho (up, down):  1.725E+00 0.000E+00

     total cpu time spent up to now is     1714.8 secs

     total energy              =   -6595.82457024 Ry
     Harris-Foulkes estimate   =   -6610.40044420 Ry
     estimated scf accuracy    <      84.57615488 Ry

     iteration #  3     ecut=    50.00 Ry     beta=0.70
     Davidson diagonalization with overlap
     ethr =  4.05E-04,  avg # of iterations =  6.0

     negative rho (up, down):  1.733E+00 0.000E+00

     total cpu time spent up to now is     2315.3 secs

     total energy              =   -6603.01659061 Ry
     Harris-Foulkes estimate   =   -6605.03824709 Ry
     estimated scf accuracy    <       9.65921281 Ry

     iteration #  4     ecut=    50.00 Ry     beta=0.70
     Davidson diagonalization with overlap
     ethr =  4.05E-04,  avg # of iterations =  7.1

     negative rho (up, down):  1.737E+00 0.000E+00

     total cpu time spent up to now is     2699.1 secs

     total energy              =   -6602.98360210 Ry
     Harris-Foulkes estimate   =   -6605.62150105 Ry
     estimated scf accuracy    <      29.72061989 Ry

     iteration #  5     ecut=    50.00 Ry     beta=0.70
     Davidson diagonalization with overlap
     ethr =  4.05E-04,  avg # of iterations =  6.8

     negative rho (up, down):  1.746E+00 0.000E+00

     total cpu time spent up to now is     3063.2 secs

     total energy              =   -6604.35476412 Ry
     Harris-Foulkes estimate   =   -6604.56585123 Ry
     estimated scf accuracy    <       1.04064512 Ry

     iteration #  6     ecut=    50.00 Ry     beta=0.70
     Davidson diagonalization with overlap
     ethr =  1.46E-04,  avg # of iterations =  3.6

     negative rho (up, down):  1.750E+00 0.000E+00

     total cpu time spent up to now is     3348.6 secs

     total energy              =   -6604.40521415 Ry
     Harris-Foulkes estimate   =   -6604.46547389 Ry
     estimated scf accuracy    <       0.19271635 Ry

     iteration #  7     ecut=    50.00 Ry     beta=0.70
     Davidson diagonalization with overlap
     ethr =  2.71E-05,  avg # of iterations =  8.4

     negative rho (up, down):  1.753E+00 0.000E+00

     total cpu time spent up to now is     3733.8 secs

     total energy              =   -6604.42065710 Ry
     Harris-Foulkes estimate   =   -6604.44499591 Ry
     estimated scf accuracy    <       0.09689768 Ry

     iteration #  8     ecut=    50.00 Ry     beta=0.70
     Davidson diagonalization with overlap
     ethr =  1.36E-05,  avg # of iterations =  8.3

     negative rho (up, down):  1.754E+00 0.000E+00

     total cpu time spent up to now is     4105.9 secs

     total energy              =   -6604.42238765 Ry
     Harris-Foulkes estimate   =   -6604.43693564 Ry
     estimated scf accuracy    <       0.04989877 Ry

     iteration #  9     ecut=    50.00 Ry     beta=0.70
     Davidson diagonalization with overlap
     c_bands:  1 eigenvalues not converged
     ethr =  7.01E-06,  avg # of iterations = 14.2

     negative rho (up, down):  1.755E+00 0.000E+00

     total cpu time spent up to now is     4592.6 secs

     total energy              =   -6604.42539745 Ry
     Harris-Foulkes estimate   =   -6604.43034699 Ry
     estimated scf accuracy    <       0.01384673 Ry

     iteration # 10     ecut=    50.00 Ry     beta=0.70
     Davidson diagonalization with overlap
     ethr =  1.94E-06,  avg # of iterations =  7.5

     negative rho (up, down):  1.756E+00 0.000E+00

     total cpu time spent up to now is     4979.1 secs

     total energy              =   -6604.42684443 Ry
     Harris-Foulkes estimate   =   -6604.42840022 Ry
     estimated scf accuracy    <       0.00544360 Ry

     iteration # 11     ecut=    50.00 Ry     beta=0.70
     Davidson diagonalization with overlap
     ethr =  7.65E-07,  avg # of iterations =  6.2

     negative rho (up, down):  1.757E+00 0.000E+00

     total cpu time spent up to now is     5312.5 secs

     total energy              =   -6604.42735015 Ry
     Harris-Foulkes estimate   =   -6604.42785570 Ry
     estimated scf accuracy    <       0.00219546 Ry

     iteration # 12     ecut=    50.00 Ry     beta=0.70
     Davidson diagonalization with overlap
     ethr =  3.08E-07,  avg # of iterations =  4.1

     negative rho (up, down):  1.757E+00 0.000E+00

     total cpu time spent up to now is     5593.0 secs

     total energy              =   -6604.42748617 Ry
     Harris-Foulkes estimate   =   -6604.42763663 Ry
     estimated scf accuracy    <       0.00036607 Ry

     iteration # 13     ecut=    50.00 Ry     beta=0.70
     Davidson diagonalization with overlap
     ethr =  5.14E-08,  avg # of iterations =  7.1

     negative rho (up, down):  1.757E+00 0.000E+00

     total cpu time spent up to now is     5980.1 secs

     total energy              =   -6604.42750621 Ry
     Harris-Foulkes estimate   =   -6604.42759144 Ry
     estimated scf accuracy    <       0.00029407 Ry

     iteration # 14     ecut=    50.00 Ry     beta=0.70
     Davidson diagonalization with overlap
     ethr =  4.13E-08,  avg # of iterations =  2.0

     negative rho (up, down):  1.757E+00 0.000E+00

     total cpu time spent up to now is     6233.5 secs

     total energy              =   -6604.42753488 Ry
     Harris-Foulkes estimate   =   -6604.42757043 Ry
     estimated scf accuracy    <       0.00020796 Ry

     iteration # 15     ecut=    50.00 Ry     beta=0.70
     Davidson diagonalization with overlap
     ethr =  2.92E-08,  avg # of iterations =  1.2

     negative rho (up, down):  1.757E+00 0.000E+00

     total cpu time spent up to now is     6466.6 secs

     total energy              =   -6604.42755229 Ry
     Harris-Foulkes estimate   =   -6604.42755902 Ry
     estimated scf accuracy    <       0.00002809 Ry

     iteration # 16     ecut=    50.00 Ry     beta=0.70
     Davidson diagonalization with overlap
     ethr =  3.94E-09,  avg # of iterations =  3.0

     negative rho (up, down):  1.757E+00 0.000E+00

     total cpu time spent up to now is     6749.4 secs

     total energy              =   -6604.42755295 Ry
     Harris-Foulkes estimate   =   -6604.42755963 Ry
     estimated scf accuracy    <       0.00004393 Ry

     iteration # 17     ecut=    50.00 Ry     beta=0.70
     Davidson diagonalization with overlap
     ethr =  3.94E-09,  avg # of iterations =  1.3

     negative rho (up, down):  1.757E+00 0.000E+00

     total cpu time spent up to now is     6986.5 secs

     total energy              =   -6604.42755594 Ry
     Harris-Foulkes estimate   =   -6604.42755661 Ry
     estimated scf accuracy    <       0.00000235 Ry

     iteration # 18     ecut=    50.00 Ry     beta=0.70
     Davidson diagonalization with overlap
     ethr =  3.31E-10,  avg # of iterations =  2.8

     negative rho (up, down):  1.757E+00 0.000E+00

     total cpu time spent up to now is     7268.4 secs

     total energy              =   -6604.42755619 Ry
     Harris-Foulkes estimate   =   -6604.42755661 Ry
     estimated scf accuracy    <       0.00000184 Ry

     iteration # 19     ecut=    50.00 Ry     beta=0.70
     Davidson diagonalization with overlap
     ethr =  2.59E-10,  avg # of iterations =  3.0

     negative rho (up, down):  1.757E+00 0.000E+00

     total cpu time spent up to now is     7531.7 secs

     total energy              =   -6604.42755641 Ry
     Harris-Foulkes estimate   =   -6604.42755642 Ry
     estimated scf accuracy    <       0.00000009 Ry

     iteration # 20     ecut=    50.00 Ry     beta=0.70
     Davidson diagonalization with overlap
     ethr =  1.24E-11,  avg # of iterations =  3.0

     negative rho (up, down):  1.757E+00 0.000E+00

     total cpu time spent up to now is     7882.3 secs

     total energy              =   -6604.42755645 Ry
     Harris-Foulkes estimate   =   -6604.42755645 Ry
     estimated scf accuracy    <       0.00000010 Ry

     iteration # 21     ecut=    50.00 Ry     beta=0.70
     Davidson diagonalization with overlap
     ethr =  1.24E-11,  avg # of iterations =  2.0

     negative rho (up, down):  1.757E+00 0.000E+00

     total cpu time spent up to now is     8139.2 secs

     total energy              =   -6604.42755646 Ry
     Harris-Foulkes estimate   =   -6604.42755646 Ry
     estimated scf accuracy    <       0.00000002 Ry

     iteration # 22     ecut=    50.00 Ry     beta=0.70
     Davidson diagonalization with overlap
     ethr =  2.78E-12,  avg # of iterations =  2.0

     negative rho (up, down):  1.757E+00 0.000E+00

     total cpu time spent up to now is     8393.4 secs

     End of self-consistent calculation

          k = 0.2500 0.4330 0.1111 (136853 PWs)   bands (ev):

   -19.5452  -7.3455  -6.1852  -5.7868  -5.7848  -5.1149  -4.7764  -4.7734
    -4.7510  -4.7355  -4.3741  -4.3730  -4.2778  -4.2744  -4.2683  -4.2575
    -4.2384  -4.1090  -4.1067  -4.0832  -4.0781  -4.0393  -4.0347  -3.9703
    -3.9697  -3.9648  -3.9532  -3.9413  -3.9362  -3.9218  -3.8659  -3.8352
    -3.8336  -3.8218  -3.8215  -3.8061  -3.7982  -3.7859  -3.7750  -3.7674
    -3.7599  -3.7341  -3.6886  -3.6853  -3.6405  -3.6390  -3.5826  -3.5778
    -3.5273  -3.5261  -3.5260  -3.5190  -3.4903  -3.4538  -3.4504  -3.4453
    -3.4434  -3.4398  -3.4142  -3.4111  -3.4025  -3.3442  -3.3404  -3.3335
    -3.3156  -3.3092  -3.2379  -3.2311  -3.2052  -3.2014  -3.1761  -3.1729
    -3.1612  -3.1442  -3.0865  -3.0853  -3.0682  -3.0675  -3.0168  -3.0124
    -3.0071  -2.9721  -2.9424  -2.9412  -2.9326  -2.9298  -2.9199  -2.9171
    -2.9131  -2.9105  -2.9013  -2.8604  -2.8225  -2.8219  -2.8082  -2.8061
    -2.7813  -2.7730  -2.7703  -2.7514  -2.7051  -2.7028  -2.6955  -2.6565
    -2.6504  -2.6390  -2.6382  -2.6113  -2.6058  -2.5787  -2.5439  -2.5391
    -2.5209  -2.5124  -2.4999  -2.4955  -2.4495  -2.4458  -2.4144  -2.3932
    -2.3919  -2.3695  -2.3679  -2.3582  -2.3567  -2.3465  -2.3257  -2.3238
    -2.2792  -2.2783  -2.2778  -2.2615  -2.2609  -2.2541  -2.2471  -2.2447
    -2.2442  -2.2425  -2.2360  -2.2255  -2.2248  -2.2179  -2.1884  -2.1877
    -2.1868  -2.1861  -2.1847  -2.1822  -2.1751  -2.1530  -2.1511  -2.1385
    -2.1352  -2.1185  -2.1177  -2.1121  -2.1090  -2.1081  -2.1049  -2.0889
    -2.0879  -2.0866  -2.0752  -2.0669  -2.0440  -2.0416  -2.0003  -2.0000
    -1.9766  -1.9753  -1.9592  -1.9486  -1.9226  -1.9206  -1.9060  -1.8992
    -1.8774  -1.8703  -1.8521  -1.8476  -1.8441  -1.8379  -1.8361  -1.8322
    -1.8055  -1.7995  -1.7903  -1.7446  -1.7333  -1.7292  -1.7266  -1.7168
    -1.7006  -1.6696  -1.6690  -1.6645  -1.6419  -1.6182  -1.5820  -1.5799
    -1.5514  -1.5327  -1.5162  -1.4718  -1.4691  -1.4594  -1.4566  -1.4491
    -1.4478  -1.4438  -1.4353  -1.4330  -1.3800  -1.3757  -1.3686  -1.3665
    -1.3584  -1.3492  -1.3420  -1.3135  -1.3074  -1.2953  -1.2951  -1.2912
    -1.2869  -1.2788  -1.2729  -1.2675  -1.2527  -1.2511  -1.2136  -1.2073
    -1.2011  -1.1909  -1.1775  -1.1645  -1.1218  -1.1204  -1.0966  -1.0929
    -1.0856  -1.0614  -1.0121  -1.0105  -1.0093  -1.0052  -1.0006  -0.9991
    -0.9881  -0.9747  -0.9702  -0.9343  -0.9323  -0.9043  -0.9028  -0.8969
    -0.8952  -0.8906  -0.8741  -0.8733  -0.8718  -0.8702  -0.8663  -0.8328
    -0.8294  -0.8268  -0.8230  -0.7985  -0.7953  -0.7936  -0.7672  -0.7606
    -0.7585  -0.7149  -0.7102  -0.7038  -0.6738  -0.6650  -0.6545  -0.6540
    -0.6481  -0.6466  -0.6445  -0.6414  -0.6302  -0.6273  -0.6067  -0.6059
    -0.6017  -0.6005  -0.5985  -0.5630  -0.5627  -0.5523  -0.5479  -0.5347
    -0.5284  -0.5199  -0.5166  -0.4611  -0.4605  -0.4514  -0.4509  -0.4485
    -0.4460  -0.4406  -0.4247  -0.4226  -0.4157  -0.4147  -0.4119  -0.4080
    -0.3737  -0.3713  -0.3705  -0.3629  -0.3619  -0.3569  -0.3559  -0.3397
    -0.3387  -0.3350  -0.3294  -0.2940  -0.2929  -0.2855  -0.2812  -0.2804
    -0.2046  -0.2030  -0.2011  -0.2002  -0.1915  -0.1885  -0.1547  -0.1427
    -0.1416  -0.1147  -0.1095  -0.0987   0.0101   0.0174   0.1154   0.5297
     0.5298   0.5323   0.5343   0.5949   0.6039   0.9822   0.9839   1.0235
     1.0284   1.1359   1.2173   1.3209   1.3368   1.5403   1.5652   2.1808
     2.1832   2.3379   2.3490   2.4734   2.4820   2.5787   2.5799   2.7331
     2.9612   2.9726   3.0942   3.3130   3.3248   3.4003   3.4047   3.5023
     3.5184   3.6952   3.6980   3.7739   3.9751   3.9757   4.0362   4.0400
     4.2936   4.2978   4.3076   4.5431   4.5835   4.5918   4.6305   4.9646
     4.9660   4.9968   5.0362   5.1320   5.3047   5.3067   5.3481   5.4060
     5.6930   5.9300   6.0755   6.0903   6.0978   6.1034   6.1650   6.1666
     6.2164   6.2727   6.2976   6.3206   6.3229   6.3342   6.3414   6.3785
     6.3869   6.4320   6.5087   6.5811   6.6976   6.7586   6.9166   6.9933
     7.0273   7.0418   7.0458

          k = 0.2500-0.1443 0.1111 (136898 PWs)   bands (ev):

   -19.5452  -7.3455  -6.3951  -5.6032  -5.3181  -5.2534  -5.2519  -4.7150
    -4.7134  -4.5943  -4.5815  -4.4448  -4.4114  -4.3340  -4.3201  -4.3015
    -4.2670  -4.2665  -4.1402  -4.1048  -4.0964  -4.0621  -4.0325  -4.0160
    -3.9723  -3.9128  -3.9126  -3.8765  -3.8764  -3.8729  -3.8404  -3.8278
    -3.8275  -3.7213  -3.7210  -3.7127  -3.6973  -3.6833  -3.6830  -3.6716
    -3.6647  -3.6540  -3.6279  -3.6271  -3.6269  -3.6212  -3.5957  -3.5896
    -3.5766  -3.5765  -3.5626  -3.5218  -3.5184  -3.4876  -3.4752  -3.4682
    -3.4680  -3.4514  -3.3936  -3.3932  -3.3597  -3.3570  -3.3425  -3.2880
    -3.2878  -3.2730  -3.2724  -3.2429  -3.2418  -3.2416  -3.2387  -3.0875
    -3.0872  -3.0635  -3.0612  -3.0536  -3.0407  -3.0384  -3.0153  -3.0128
    -2.9648  -2.9628  -2.9486  -2.9470  -2.9274  -2.8807  -2.8800  -2.8599
    -2.8556  -2.8553  -2.8145  -2.8135  -2.8067  -2.8037  -2.7913  -2.7893
    -2.7517  -2.7512  -2.7299  -2.7274  -2.7261  -2.7249  -2.7195  -2.6466
    -2.6448  -2.6419  -2.6151  -2.6139  -2.5546  -2.5504  -2.5247  -2.5222
    -2.5112  -2.5109  -2.5035  -2.4756  -2.4730  -2.4648  -2.4477  -2.4256
    -2.4234  -2.4199  -2.4020  -2.3997  -2.3924  -2.3903  -2.3883  -2.3849
    -2.3770  -2.3310  -2.3002  -2.2991  -2.2840  -2.2707  -2.2641  -2.2632
    -2.2570  -2.2564  -2.2535  -2.2258  -2.2247  -2.2215  -2.2158  -2.2143
    -2.1980  -2.1715  -2.1701  -2.1700  -2.1686  -2.1670  -2.1216  -2.0929
    -2.0910  -2.0896  -2.0845  -2.0739  -2.0638  -2.0581  -2.0448  -2.0446
    -2.0153  -2.0108  -2.0104  -1.9925  -1.9917  -1.9876  -1.9592  -1.9538
    -1.9189  -1.9165  -1.9134  -1.9068  -1.9062  -1.9024  -1.9002  -1.8993
    -1.8969  -1.8930  -1.8906  -1.8748  -1.8663  -1.7896  -1.7483  -1.7361
    -1.7099  -1.7071  -1.7006  -1.6992  -1.6978  -1.6841  -1.6837  -1.6816
    -1.6757  -1.6618  -1.6549  -1.6513  -1.6463  -1.6361  -1.6313  -1.6162
    -1.6107  -1.5998  -1.5838  -1.5670  -1.5531  -1.5435  -1.5401  -1.5289
    -1.5154  -1.5118  -1.5052  -1.4944  -1.4808  -1.4793  -1.4739  -1.4708
    -1.4475  -1.4428  -1.4319  -1.4248  -1.3989  -1.3919  -1.3785  -1.3384
    -1.3355  -1.3253  -1.3170  -1.3070  -1.2970  -1.2938  -1.2630  -1.2618
    -1.2561  -1.2243  -1.2194  -1.2096  -1.2011  -1.1989  -1.1753  -1.1745
    -1.1608  -1.1425  -1.1412  -1.1366  -1.0781  -1.0771  -1.0667  -1.0618
    -1.0489  -1.0466  -1.0360  -1.0342  -1.0172  -1.0047  -0.9771  -0.9750
    -0.9632  -0.9353  -0.9280  -0.9218  -0.9146  -0.9142  -0.9111  -0.9095
    -0.8961  -0.8925  -0.8649  -0.8617  -0.8548  -0.8525  -0.8496  -0.8374
    -0.8275  -0.8112  -0.7989  -0.7885  -0.7739  -0.6942  -0.6808  -0.6756
    -0.6748  -0.6702  -0.6668  -0.6620  -0.6410  -0.6313  -0.6267  -0.6210
    -0.6100  -0.6072  -0.6014  -0.5821  -0.5796  -0.5707  -0.5701  -0.4968
    -0.4965  -0.4656  -0.4586  -0.4580  -0.4539  -0.4498  -0.4488  -0.4463
    -0.4377  -0.4347  -0.4119  -0.3943  -0.3786  -0.3621  -0.3601  -0.3510
    -0.3483  -0.3382  -0.3366  -0.3355  -0.3345  -0.3305  -0.3171  -0.3129
    -0.3103  -0.2820  -0.2805  -0.2786  -0.2671  -0.2665  -0.2476  -0.2165
    -0.2151  -0.2070  -0.2031  -0.1390  -0.1380  -0.1020  -0.1019  -0.0438
    -0.0435  -0.0428  -0.0231  -0.0161   0.2051   0.2261   0.5580   0.5584
     0.6428   0.6625   0.8398   0.8684   0.8835   1.0033   1.0127   1.4385
     1.4390   1.4574   1.7152   1.7477   1.7514   2.0157   2.0347   2.1025
     2.1058   2.1247   2.1487   2.3584   2.3640   2.4492   2.4505   2.5118
     2.5792   2.6060   2.7557   2.8536   3.2879   3.2894   3.2907   3.3047
     3.3459   3.3589   3.6413   3.6451   3.9154   3.9310   4.0075   4.3386
     4.3740   4.3852   4.5672   4.5722   4.6789   4.6810   4.7722   4.8898
     4.8903   5.0054   5.0111   5.0536   5.3112   5.3759   5.3802   5.5078
     5.5509   5.7627   5.7659   5.7828   5.7948   5.8003   5.8515   5.8544
     5.9179   6.0197   6.1714   6.2665   6.4539   6.4661   6.5973   6.5989
     6.6076   6.6153   6.6375   6.7446   6.8066   6.8504   6.8621   6.9897
     7.0290   7.0544   7.0771

          k =-0.2500-0.4330 0.1111 (136853 PWs)   bands (ev):

   -19.5452  -7.3455  -6.1852  -5.7868  -5.7848  -5.1149  -4.7764  -4.7734
    -4.7510  -4.7355  -4.3741  -4.3730  -4.2778  -4.2744  -4.2683  -4.2575
    -4.2384  -4.1090  -4.1067  -4.0832  -4.0781  -4.0393  -4.0347  -3.9703
    -3.9697  -3.9648  -3.9532  -3.9413  -3.9362  -3.9218  -3.8659  -3.8352
    -3.8336  -3.8218  -3.8215  -3.8061  -3.7982  -3.7859  -3.7750  -3.7674
    -3.7599  -3.7341  -3.6886  -3.6853  -3.6405  -3.6390  -3.5826  -3.5778
    -3.5273  -3.5261  -3.5260  -3.5190  -3.4903  -3.4538  -3.4504  -3.4453
    -3.4434  -3.4398  -3.4142  -3.4111  -3.4025  -3.3442  -3.3404  -3.3335
    -3.3156  -3.3092  -3.2379  -3.2311  -3.2052  -3.2014  -3.1761  -3.1729
    -3.1612  -3.1442  -3.0865  -3.0853  -3.0682  -3.0675  -3.0168  -3.0124
    -3.0071  -2.9721  -2.9424  -2.9412  -2.9326  -2.9298  -2.9199  -2.9171
    -2.9131  -2.9105  -2.9013  -2.8604  -2.8225  -2.8219  -2.8082  -2.8061
    -2.7813  -2.7730  -2.7703  -2.7514  -2.7051  -2.7028  -2.6955  -2.6565
    -2.6504  -2.6390  -2.6382  -2.6113  -2.6058  -2.5787  -2.5439  -2.5391
    -2.5209  -2.5124  -2.4999  -2.4955  -2.4495  -2.4458  -2.4144  -2.3932
    -2.3919  -2.3695  -2.3679  -2.3582  -2.3567  -2.3465  -2.3257  -2.3238
    -2.2792  -2.2783  -2.2778  -2.2615  -2.2609  -2.2541  -2.2471  -2.2447
    -2.2442  -2.2425  -2.2360  -2.2255  -2.2248  -2.2179  -2.1884  -2.1877
    -2.1868  -2.1861  -2.1847  -2.1822  -2.1751  -2.1530  -2.1511  -2.1385
    -2.1352  -2.1185  -2.1177  -2.1121  -2.1090  -2.1081  -2.1049  -2.0889
    -2.0879  -2.0866  -2.0752  -2.0669  -2.0440  -2.0416  -2.0003  -2.0000
    -1.9766  -1.9753  -1.9592  -1.9486  -1.9226  -1.9206  -1.9060  -1.8992
    -1.8774  -1.8703  -1.8521  -1.8476  -1.8441  -1.8379  -1.8361  -1.8322
    -1.8055  -1.7995  -1.7903  -1.7446  -1.7333  -1.7292  -1.7266  -1.7168
    -1.7006  -1.6696  -1.6690  -1.6645  -1.6419  -1.6182  -1.5820  -1.5799
    -1.5514  -1.5327  -1.5162  -1.4718  -1.4691  -1.4594  -1.4566  -1.4491
    -1.4478  -1.4438  -1.4353  -1.4330  -1.3800  -1.3757  -1.3686  -1.3665
    -1.3584  -1.3492  -1.3420  -1.3135  -1.3074  -1.2953  -1.2951  -1.2912
    -1.2869  -1.2788  -1.2729  -1.2675  -1.2527  -1.2511  -1.2136  -1.2073
    -1.2011  -1.1909  -1.1775  -1.1645  -1.1218  -1.1204  -1.0966  -1.0929
    -1.0856  -1.0614  -1.0121  -1.0105  -1.0093  -1.0052  -1.0006  -0.9991
    -0.9881  -0.9747  -0.9702  -0.9343  -0.9323  -0.9043  -0.9028  -0.8969
    -0.8952  -0.8906  -0.8741  -0.8733  -0.8718  -0.8702  -0.8663  -0.8328
    -0.8294  -0.8268  -0.8230  -0.7985  -0.7953  -0.7936  -0.7672  -0.7606
    -0.7585  -0.7149  -0.7102  -0.7038  -0.6738  -0.6650  -0.6545  -0.6540
    -0.6481  -0.6466  -0.6445  -0.6414  -0.6302  -0.6273  -0.6067  -0.6059
    -0.6017  -0.6005  -0.5985  -0.5630  -0.5627  -0.5523  -0.5479  -0.5347
    -0.5284  -0.5199  -0.5166  -0.4611  -0.4605  -0.4514  -0.4509  -0.4485
    -0.4460  -0.4406  -0.4247  -0.4226  -0.4157  -0.4147  -0.4119  -0.4080
    -0.3737  -0.3713  -0.3705  -0.3629  -0.3619  -0.3569  -0.3559  -0.3397
    -0.3387  -0.3350  -0.3294  -0.2940  -0.2929  -0.2855  -0.2812  -0.2804
    -0.2046  -0.2030  -0.2011  -0.2002  -0.1915  -0.1885  -0.1547  -0.1427
    -0.1416  -0.1147  -0.1095  -0.0987   0.0101   0.0174   0.1154   0.5297
     0.5298   0.5323   0.5343   0.5949   0.6039   0.9822   0.9839   1.0235
     1.0284   1.1359   1.2173   1.3209   1.3368   1.5403   1.5652   2.1808
     2.1832   2.3379   2.3490   2.4734   2.4820   2.5787   2.5799   2.7331
     2.9612   2.9726   3.0942   3.3130   3.3248   3.4003   3.4047   3.5023
     3.5184   3.6952   3.6980   3.7739   3.9751   3.9757   4.0362   4.0400
     4.2936   4.2978   4.3076   4.5431   4.5835   4.5918   4.6305   4.9646
     4.9660   4.9968   5.0362   5.1320   5.3047   5.3067   5.3481   5.4060
     5.6929   5.9300   6.0761   6.0902   6.0979   6.1032   6.1651   6.1665
     6.2162   6.2727   6.2975   6.3206   6.3228   6.3343   6.3413   6.3785
     6.3868   6.4318   6.5089   6.5796   6.6996   6.7581   6.9187   6.9926
     7.0273   7.0416   7.0460

          k =-0.2500 0.4330-0.1111 (136853 PWs)   bands (ev):

   -19.5452  -7.3455  -6.1852  -5.7879  -5.7837  -5.1150  -4.7770  -4.7728
    -4.7517  -4.7347  -4.3743  -4.3729  -4.2776  -4.2744  -4.2687  -4.2573
    -4.2384  -4.1091  -4.1066  -4.0829  -4.0785  -4.0397  -4.0345  -3.9703
    -3.9700  -3.9642  -3.9534  -3.9412  -3.9369  -3.9210  -3.8656  -3.8356
    -3.8331  -3.8222  -3.8212  -3.8056  -3.7981  -3.7859  -3.7750  -3.7674
    -3.7600  -3.7349  -3.6885  -3.6855  -3.6414  -3.6382  -3.5832  -3.5775
    -3.5278  -3.5261  -3.5259  -3.5196  -3.4904  -3.4542  -3.4503  -3.4451
    -3.4432  -3.4401  -3.4149  -3.4097  -3.4023  -3.3443  -3.3403  -3.3331
    -3.3157  -3.3089  -3.2379  -3.2308  -3.2054  -3.2004  -3.1760  -3.1733
    -3.1611  -3.1449  -3.0870  -3.0856  -3.0678  -3.0673  -3.0166  -3.0126
    -3.0071  -2.9722  -2.9423  -2.9413  -2.9317  -2.9299  -2.9200  -2.9173
    -2.9128  -2.9107  -2.9017  -2.8605  -2.8230  -2.8216  -2.8080  -2.8061
    -2.7814  -2.7727  -2.7705  -2.7514  -2.7047  -2.7032  -2.6952  -2.6564
    -2.6504  -2.6392  -2.6377  -2.6111  -2.6054  -2.5788  -2.5446  -2.5390
    -2.5209  -2.5125  -2.5002  -2.4957  -2.4492  -2.4459  -2.4143  -2.3942
    -2.3914  -2.3710  -2.3672  -2.3578  -2.3562  -2.3465  -2.3258  -2.3236
    -2.2809  -2.2782  -2.2776  -2.2619  -2.2605  -2.2542  -2.2466  -2.2447
    -2.2444  -2.2430  -2.2359  -2.2257  -2.2242  -2.2205  -2.1901  -2.1882
    -2.1865  -2.1862  -2.1846  -2.1824  -2.1744  -2.1534  -2.1512  -2.1385
    -2.1344  -2.1184  -2.1178  -2.1100  -2.1087  -2.1075  -2.1050  -2.0894
    -2.0878  -2.0873  -2.0753  -2.0678  -2.0450  -2.0416  -2.0010  -1.9994
    -1.9763  -1.9758  -1.9577  -1.9475  -1.9221  -1.9183  -1.9053  -1.8983
    -1.8713  -1.8563  -1.8511  -1.8481  -1.8442  -1.8385  -1.8341  -1.8313
    -1.8057  -1.8015  -1.7905  -1.7782  -1.7331  -1.7303  -1.7269  -1.7175
    -1.6998  -1.6707  -1.6686  -1.6652  -1.6424  -1.6037  -1.5818  -1.5807
    -1.5414  -1.5333  -1.5244  -1.4720  -1.4710  -1.4602  -1.4583  -1.4491
    -1.4478  -1.4434  -1.4363  -1.4316  -1.3834  -1.3737  -1.3683  -1.3660
    -1.3593  -1.3487  -1.3422  -1.3126  -1.3056  -1.2957  -1.2943  -1.2928
    -1.2867  -1.2794  -1.2725  -1.2634  -1.2528  -1.2511  -1.2141  -1.2082
    -1.2016  -1.1880  -1.1748  -1.1648  -1.1230  -1.1201  -1.0966  -1.0930
    -1.0861  -1.0621  -1.0125  -1.0103  -1.0087  -1.0057  -1.0035  -0.9993
    -0.9929  -0.9734  -0.9712  -0.9341  -0.9330  -0.9047  -0.9016  -0.8975
    -0.8939  -0.8904  -0.8742  -0.8730  -0.8700  -0.8690  -0.8650  -0.8352
    -0.8295  -0.8283  -0.8209  -0.8000  -0.7980  -0.7920  -0.7669  -0.7627
    -0.7572  -0.7148  -0.7110  -0.6981  -0.6725  -0.6638  -0.6545  -0.6539
    -0.6484  -0.6461  -0.6436  -0.6390  -0.6324  -0.6264  -0.6070  -0.6058
    -0.6018  -0.5999  -0.5991  -0.5630  -0.5625  -0.5562  -0.5458  -0.5323
    -0.5300  -0.5202  -0.5162  -0.4610  -0.4602  -0.4516  -0.4504  -0.4496
    -0.4457  -0.4442  -0.4252  -0.4221  -0.4159  -0.4143  -0.4133  -0.4069
    -0.3734  -0.3719  -0.3706  -0.3633  -0.3606  -0.3562  -0.3516  -0.3412
    -0.3381  -0.3359  -0.3336  -0.2947  -0.2916  -0.2858  -0.2817  -0.2783
    -0.2042  -0.2033  -0.2011  -0.1996  -0.1917  -0.1908  -0.1551  -0.1430
    -0.1419  -0.1180  -0.1100  -0.0949   0.0092   0.0186   0.1158   0.5296
     0.5302   0.5321   0.5344   0.5876   0.6072   0.9802   0.9845   1.0227
     1.0298   1.1384   1.2192   1.3190   1.3432   1.5352   1.5677   2.1753
     2.1860   2.3341   2.3554   2.4654   2.4863   2.5783   2.5802   2.7329
     2.9590   2.9762   3.0944   3.3107   3.3271   3.3994   3.4068   3.5030
     3.5188   3.6894   3.7014   3.7767   3.9754   3.9755   4.0333   4.0433
     4.2925   4.2953   4.3122   4.5441   4.5817   4.5911   4.6314   4.9644
     4.9680   4.9941   5.0534   5.1276   5.3045   5.3077   5.3258   5.3929
     5.7740   5.8508   6.0883   6.0921   6.0957   6.1192   6.1635   6.1691
     6.2171   6.2706   6.3003   6.3164   6.3268   6.3299   6.3484   6.3823
     6.3853   6.4240   6.4495   6.6117   6.6796   6.7568   6.9403   6.9801
     7.0281   7.0372   7.0468

          k = 0.2500-0.4330-0.1111 (136853 PWs)   bands (ev):

   -19.5452  -7.3455  -6.1852  -5.7879  -5.7837  -5.1150  -4.7770  -4.7728
    -4.7517  -4.7347  -4.3743  -4.3729  -4.2776  -4.2744  -4.2687  -4.2573
    -4.2384  -4.1091  -4.1066  -4.0829  -4.0785  -4.0397  -4.0345  -3.9703
    -3.9700  -3.9642  -3.9534  -3.9412  -3.9369  -3.9210  -3.8656  -3.8356
    -3.8331  -3.8222  -3.8212  -3.8056  -3.7981  -3.7859  -3.7750  -3.7674
    -3.7600  -3.7349  -3.6885  -3.6855  -3.6414  -3.6382  -3.5832  -3.5775
    -3.5278  -3.5261  -3.5259  -3.5196  -3.4904  -3.4542  -3.4503  -3.4451
    -3.4432  -3.4401  -3.4149  -3.4097  -3.4023  -3.3443  -3.3403  -3.3331
    -3.3157  -3.3089  -3.2379  -3.2308  -3.2054  -3.2004  -3.1760  -3.1733
    -3.1611  -3.1449  -3.0870  -3.0856  -3.0678  -3.0673  -3.0166  -3.0126
    -3.0071  -2.9722  -2.9423  -2.9413  -2.9317  -2.9299  -2.9200  -2.9173
    -2.9128  -2.9107  -2.9017  -2.8605  -2.8230  -2.8216  -2.8080  -2.8061
    -2.7814  -2.7727  -2.7705  -2.7514  -2.7047  -2.7032  -2.6952  -2.6564
    -2.6504  -2.6392  -2.6377  -2.6111  -2.6054  -2.5788  -2.5446  -2.5390
    -2.5209  -2.5125  -2.5002  -2.4957  -2.4492  -2.4459  -2.4143  -2.3942
    -2.3914  -2.3710  -2.3672  -2.3578  -2.3562  -2.3465  -2.3258  -2.3236
    -2.2809  -2.2782  -2.2776  -2.2619  -2.2605  -2.2542  -2.2466  -2.2447
    -2.2444  -2.2430  -2.2359  -2.2257  -2.2242  -2.2205  -2.1901  -2.1882
    -2.1865  -2.1862  -2.1846  -2.1824  -2.1744  -2.1534  -2.1512  -2.1385
    -2.1344  -2.1184  -2.1178  -2.1100  -2.1087  -2.1075  -2.1050  -2.0894
    -2.0878  -2.0873  -2.0753  -2.0678  -2.0450  -2.0416  -2.0010  -1.9994
    -1.9763  -1.9758  -1.9577  -1.9475  -1.9221  -1.9183  -1.9053  -1.8983
    -1.8713  -1.8563  -1.8511  -1.8481  -1.8442  -1.8385  -1.8341  -1.8313
    -1.8057  -1.8015  -1.7905  -1.7782  -1.7331  -1.7303  -1.7269  -1.7175
    -1.6998  -1.6707  -1.6686  -1.6652  -1.6424  -1.6037  -1.5818  -1.5807
    -1.5414  -1.5333  -1.5244  -1.4720  -1.4710  -1.4602  -1.4583  -1.4491
    -1.4478  -1.4434  -1.4363  -1.4316  -1.3834  -1.3737  -1.3683  -1.3660
    -1.3593  -1.3487  -1.3422  -1.3126  -1.3056  -1.2957  -1.2943  -1.2928
    -1.2867  -1.2794  -1.2725  -1.2634  -1.2528  -1.2511  -1.2141  -1.2082
    -1.2016  -1.1880  -1.1748  -1.1648  -1.1230  -1.1201  -1.0966  -1.0930
    -1.0861  -1.0621  -1.0125  -1.0103  -1.0087  -1.0057  -1.0035  -0.9993
    -0.9929  -0.9734  -0.9712  -0.9341  -0.9330  -0.9047  -0.9016  -0.8975
    -0.8939  -0.8904  -0.8742  -0.8730  -0.8700  -0.8690  -0.8650  -0.8352
    -0.8295  -0.8283  -0.8209  -0.8000  -0.7980  -0.7920  -0.7669  -0.7627
    -0.7572  -0.7148  -0.7110  -0.6981  -0.6725  -0.6638  -0.6545  -0.6539
    -0.6484  -0.6461  -0.6436  -0.6390  -0.6324  -0.6264  -0.6070  -0.6058
    -0.6018  -0.5999  -0.5991  -0.5630  -0.5625  -0.5562  -0.5458  -0.5323
    -0.5300  -0.5202  -0.5162  -0.4610  -0.4602  -0.4516  -0.4504  -0.4496
    -0.4457  -0.4442  -0.4252  -0.4221  -0.4159  -0.4143  -0.4133  -0.4069
    -0.3734  -0.3719  -0.3706  -0.3633  -0.3606  -0.3562  -0.3516  -0.3412
    -0.3381  -0.3359  -0.3336  -0.2947  -0.2916  -0.2858  -0.2817  -0.2783
    -0.2042  -0.2033  -0.2011  -0.1996  -0.1917  -0.1908  -0.1551  -0.1430
    -0.1419  -0.1180  -0.1100  -0.0949   0.0092   0.0186   0.1158   0.5296
     0.5302   0.5321   0.5344   0.5876   0.6072   0.9802   0.9845   1.0227
     1.0298   1.1384   1.2192   1.3190   1.3432   1.5352   1.5677   2.1753
     2.1860   2.3341   2.3554   2.4654   2.4863   2.5783   2.5802   2.7329
     2.9590   2.9762   3.0944   3.3107   3.3271   3.3994   3.4068   3.5030
     3.5188   3.6894   3.7014   3.7767   3.9754   3.9755   4.0333   4.0433
     4.2925   4.2953   4.3122   4.5441   4.5817   4.5911   4.6314   4.9644
     4.9680   4.9941   5.0534   5.1276   5.3045   5.3077   5.3258   5.3929
     5.7741   5.8507   6.0883   6.0921   6.0958   6.1191   6.1635   6.1691
     6.2171   6.2706   6.3002   6.3164   6.3269   6.3298   6.3485   6.3822
     6.3853   6.4236   6.4501   6.6116   6.6793   6.7569   6.9405   6.9799
     7.0280   7.0371   7.0468

          k = 0.5000 0.0000 0.1111 (136853 PWs)   bands (ev):

   -19.5452  -7.3455  -6.1852  -5.7877  -5.7840  -5.1149  -4.7772  -4.7725
    -4.7512  -4.7354  -4.3739  -4.3731  -4.2773  -4.2745  -4.2690  -4.2572
    -4.2384  -4.1087  -4.1072  -4.0832  -4.0782  -4.0395  -4.0346  -3.9702
    -3.9700  -3.9642  -3.9532  -3.9411  -3.9376  -3.9203  -3.8666  -3.8350
    -3.8336  -3.8219  -3.8214  -3.8058  -3.7982  -3.7858  -3.7750  -3.7673
    -3.7599  -3.7345  -3.6885  -3.6856  -3.6412  -3.6384  -3.5828  -3.5778
    -3.5272  -3.5261  -3.5261  -3.5192  -3.4905  -3.4540  -3.4505  -3.4452
    -3.4432  -3.4401  -3.4143  -3.4110  -3.4022  -3.3443  -3.3403  -3.3333
    -3.3155  -3.3089  -3.2377  -3.2312  -3.2048  -3.2015  -3.1762  -3.1727
    -3.1611  -3.1446  -3.0869  -3.0853  -3.0680  -3.0672  -3.0167  -3.0125
    -3.0071  -2.9720  -2.9422  -2.9414  -2.9320  -2.9300  -2.9200  -2.9173
    -2.9130  -2.9104  -2.9015  -2.8604  -2.8230  -2.8216  -2.8080  -2.8061
    -2.7814  -2.7731  -2.7702  -2.7514  -2.7049  -2.7031  -2.6956  -2.6564
    -2.6504  -2.6388  -2.6381  -2.6112  -2.6060  -2.5788  -2.5438  -2.5391
    -2.5210  -2.5125  -2.5000  -2.4958  -2.4497  -2.4455  -2.4143  -2.3937
    -2.3918  -2.3702  -2.3677  -2.3581  -2.3563  -2.3465  -2.3253  -2.3241
    -2.2796  -2.2781  -2.2777  -2.2619  -2.2605  -2.2541  -2.2467  -2.2452
    -2.2443  -2.2423  -2.2360  -2.2257  -2.2244  -2.2189  -2.1891  -2.1878
    -2.1864  -2.1861  -2.1845  -2.1825  -2.1748  -2.1533  -2.1513  -2.1383
    -2.1349  -2.1185  -2.1178  -2.1111  -2.1088  -2.1083  -2.1051  -2.0892
    -2.0878  -2.0870  -2.0751  -2.0672  -2.0443  -2.0420  -2.0011  -1.9993
    -1.9770  -1.9751  -1.9584  -1.9481  -1.9222  -1.9198  -1.9058  -1.8988
    -1.8737  -1.8683  -1.8518  -1.8476  -1.8439  -1.8380  -1.8360  -1.8324
    -1.8057  -1.7993  -1.7902  -1.7554  -1.7334  -1.7298  -1.7272  -1.7168
    -1.7003  -1.6702  -1.6687  -1.6649  -1.6421  -1.6123  -1.5820  -1.5800
    -1.5491  -1.5327  -1.5183  -1.4721  -1.4696  -1.4595  -1.4575  -1.4491
    -1.4478  -1.4437  -1.4359  -1.4322  -1.3812  -1.3748  -1.3685  -1.3666
    -1.3586  -1.3489  -1.3422  -1.3130  -1.3069  -1.2956  -1.2948  -1.2919
    -1.2867  -1.2792  -1.2724  -1.2664  -1.2527  -1.2511  -1.2137  -1.2077
    -1.2012  -1.1896  -1.1766  -1.1646  -1.1225  -1.1200  -1.0967  -1.0930
    -1.0858  -1.0616  -1.0124  -1.0107  -1.0091  -1.0053  -1.0014  -0.9991
    -0.9902  -0.9745  -0.9702  -0.9345  -0.9323  -0.9045  -0.9023  -0.8974
    -0.8944  -0.8904  -0.8740  -0.8732  -0.8710  -0.8699  -0.8661  -0.8334
    -0.8294  -0.8274  -0.8223  -0.7988  -0.7965  -0.7928  -0.7674  -0.7612
    -0.7580  -0.7148  -0.7105  -0.7016  -0.6735  -0.6644  -0.6547  -0.6537
    -0.6483  -0.6464  -0.6437  -0.6411  -0.6309  -0.6271  -0.6064  -0.6062
    -0.6018  -0.6004  -0.5987  -0.5631  -0.5624  -0.5537  -0.5473  -0.5339
    -0.5287  -0.5200  -0.5165  -0.4609  -0.4604  -0.4516  -0.4507  -0.4488
    -0.4460  -0.4419  -0.4247  -0.4226  -0.4157  -0.4146  -0.4122  -0.4076
    -0.3736  -0.3714  -0.3706  -0.3630  -0.3614  -0.3563  -0.3553  -0.3400
    -0.3387  -0.3353  -0.3308  -0.2941  -0.2926  -0.2857  -0.2813  -0.2798
    -0.2045  -0.2031  -0.2011  -0.2001  -0.1916  -0.1891  -0.1548  -0.1428
    -0.1416  -0.1158  -0.1098  -0.0973   0.0098   0.0178   0.1156   0.5297
     0.5301   0.5319   0.5345   0.5925   0.6049   0.9815   0.9842   1.0236
     1.0284   1.1368   1.2180   1.3204   1.3389   1.5386   1.5660   2.1792
     2.1838   2.3370   2.3507   2.4709   2.4833   2.5784   2.5801   2.7330
     2.9607   2.9738   3.0944   3.3123   3.3255   3.3999   3.4053   3.5025
     3.5186   3.6940   3.6984   3.7750   3.9752   3.9757   4.0365   4.0399
     4.2933   4.2969   4.3086   4.5436   4.5820   4.5918   4.6307   4.9647
     4.9675   4.9955   5.0424   5.1303   5.3051   5.3067   5.3405   5.4009
     5.7168   5.9063   6.0819   6.0908   6.0969   6.1086   6.1646   6.1676
     6.2169   6.2720   6.2984   6.3204   6.3235   6.3310   6.3443   6.3790
     6.3854   6.4323   6.4865   6.5969   6.7001   6.7374   6.9295   6.9883
     7.0278   7.0394   7.0458

          k =-0.5000 0.0000 0.1111 (136853 PWs)   bands (ev):

   -19.5452  -7.3455  -6.1852  -5.7877  -5.7840  -5.1149  -4.7772  -4.7725
    -4.7512  -4.7354  -4.3739  -4.3731  -4.2773  -4.2745  -4.2690  -4.2572
    -4.2384  -4.1087  -4.1072  -4.0832  -4.0782  -4.0395  -4.0346  -3.9702
    -3.9700  -3.9642  -3.9532  -3.9411  -3.9376  -3.9203  -3.8666  -3.8350
    -3.8336  -3.8219  -3.8214  -3.8058  -3.7982  -3.7858  -3.7750  -3.7673
    -3.7599  -3.7345  -3.6885  -3.6856  -3.6412  -3.6384  -3.5828  -3.5778
    -3.5272  -3.5261  -3.5261  -3.5192  -3.4905  -3.4540  -3.4505  -3.4452
    -3.4432  -3.4401  -3.4143  -3.4110  -3.4022  -3.3443  -3.3403  -3.3333
    -3.3155  -3.3089  -3.2377  -3.2312  -3.2048  -3.2015  -3.1762  -3.1727
    -3.1611  -3.1446  -3.0869  -3.0853  -3.0680  -3.0672  -3.0167  -3.0125
    -3.0071  -2.9720  -2.9422  -2.9414  -2.9320  -2.9300  -2.9200  -2.9173
    -2.9130  -2.9104  -2.9015  -2.8604  -2.8230  -2.8216  -2.8080  -2.8061
    -2.7814  -2.7731  -2.7702  -2.7514  -2.7049  -2.7031  -2.6956  -2.6564
    -2.6504  -2.6388  -2.6381  -2.6112  -2.6060  -2.5788  -2.5438  -2.5391
    -2.5210  -2.5125  -2.5000  -2.4958  -2.4497  -2.4455  -2.4143  -2.3937
    -2.3918  -2.3702  -2.3677  -2.3581  -2.3563  -2.3465  -2.3253  -2.3241
    -2.2796  -2.2781  -2.2777  -2.2619  -2.2605  -2.2541  -2.2467  -2.2452
    -2.2443  -2.2423  -2.2360  -2.2257  -2.2244  -2.2189  -2.1891  -2.1878
    -2.1864  -2.1861  -2.1845  -2.1825  -2.1748  -2.1533  -2.1513  -2.1383
    -2.1349  -2.1185  -2.1178  -2.1111  -2.1088  -2.1083  -2.1051  -2.0892
    -2.0878  -2.0870  -2.0751  -2.0672  -2.0443  -2.0420  -2.0011  -1.9993
    -1.9770  -1.9751  -1.9584  -1.9481  -1.9222  -1.9198  -1.9058  -1.8988
    -1.8737  -1.8683  -1.8518  -1.8476  -1.8439  -1.8380  -1.8360  -1.8324
    -1.8057  -1.7993  -1.7902  -1.7554  -1.7334  -1.7298  -1.7272  -1.7168
    -1.7003  -1.6702  -1.6687  -1.6649  -1.6421  -1.6123  -1.5820  -1.5800
    -1.5491  -1.5327  -1.5183  -1.4720  -1.4696  -1.4595  -1.4575  -1.4491
    -1.4478  -1.4437  -1.4359  -1.4322  -1.3812  -1.3748  -1.3685  -1.3666
    -1.3586  -1.3489  -1.3422  -1.3130  -1.3069  -1.2956  -1.2948  -1.2919
    -1.2867  -1.2792  -1.2724  -1.2664  -1.2527  -1.2511  -1.2137  -1.2077
    -1.2012  -1.1896  -1.1766  -1.1646  -1.1225  -1.1200  -1.0967  -1.0930
    -1.0858  -1.0616  -1.0124  -1.0107  -1.0091  -1.0053  -1.0014  -0.9991
    -0.9902  -0.9745  -0.9702  -0.9345  -0.9323  -0.9045  -0.9023  -0.8974
    -0.8944  -0.8904  -0.8740  -0.8732  -0.8710  -0.8699  -0.8661  -0.8334
    -0.8294  -0.8274  -0.8223  -0.7988  -0.7965  -0.7928  -0.7674  -0.7612
    -0.7581  -0.7148  -0.7105  -0.7016  -0.6735  -0.6644  -0.6547  -0.6537
    -0.6483  -0.6464  -0.6437  -0.6411  -0.6309  -0.6271  -0.6064  -0.6062
    -0.6018  -0.6004  -0.5987  -0.5631  -0.5624  -0.5537  -0.5473  -0.5339
    -0.5287  -0.5200  -0.5165  -0.4609  -0.4604  -0.4516  -0.4507  -0.4488
    -0.4460  -0.4419  -0.4247  -0.4226  -0.4157  -0.4146  -0.4122  -0.4076
    -0.3736  -0.3714  -0.3706  -0.3630  -0.3614  -0.3563  -0.3553  -0.3400
    -0.3387  -0.3353  -0.3308  -0.2941  -0.2926  -0.2857  -0.2813  -0.2798
    -0.2045  -0.2031  -0.2011  -0.2001  -0.1916  -0.1891  -0.1548  -0.1428
    -0.1416  -0.1158  -0.1098  -0.0973   0.0098   0.0178   0.1156   0.5297
     0.5301   0.5319   0.5345   0.5925   0.6049   0.9815   0.9842   1.0236
     1.0284   1.1368   1.2180   1.3204   1.3389   1.5386   1.5660   2.1792
     2.1838   2.3370   2.3507   2.4709   2.4833   2.5784   2.5801   2.7330
     2.9607   2.9738   3.0944   3.3123   3.3255   3.3999   3.4053   3.5025
     3.5186   3.6940   3.6984   3.7750   3.9752   3.9757   4.0365   4.0399
     4.2933   4.2969   4.3086   4.5436   4.5820   4.5918   4.6307   4.9647
     4.9675   4.9954   5.0424   5.1303   5.3051   5.3067   5.3405   5.4009
     5.7168   5.9063   6.0825   6.0907   6.0970   6.1083   6.1647   6.1675
     6.2169   6.2719   6.2983   6.3203   6.3234   6.3311   6.3444   6.3788
     6.3853   6.4319   6.4871   6.5949   6.7032   6.7359   6.9314   6.9873
     7.0279   7.0392   7.0461

          k =-0.2500 0.1443 0.1111 (136898 PWs)   bands (ev):

   -19.5452  -7.3455  -6.3951  -5.6032  -5.3181  -5.2534  -5.2519  -4.7150
    -4.7134  -4.5943  -4.5815  -4.4448  -4.4114  -4.3340  -4.3201  -4.3015
    -4.2670  -4.2665  -4.1402  -4.1048  -4.0964  -4.0621  -4.0325  -4.0160
    -3.9723  -3.9128  -3.9126  -3.8765  -3.8764  -3.8729  -3.8404  -3.8278
    -3.8275  -3.7213  -3.7210  -3.7127  -3.6973  -3.6833  -3.6830  -3.6716
    -3.6647  -3.6540  -3.6279  -3.6271  -3.6269  -3.6212  -3.5957  -3.5896
    -3.5766  -3.5764  -3.5626  -3.5218  -3.5184  -3.4876  -3.4752  -3.4682
    -3.4680  -3.4514  -3.3936  -3.3932  -3.3597  -3.3570  -3.3425  -3.2880
    -3.2878  -3.2730  -3.2724  -3.2429  -3.2418  -3.2416  -3.2387  -3.0875
    -3.0872  -3.0635  -3.0612  -3.0536  -3.0407  -3.0384  -3.0153  -3.0128
    -2.9648  -2.9628  -2.9486  -2.9470  -2.9274  -2.8807  -2.8800  -2.8599
    -2.8556  -2.8553  -2.8145  -2.8135  -2.8067  -2.8037  -2.7913  -2.7893
    -2.7517  -2.7512  -2.7299  -2.7274  -2.7261  -2.7249  -2.7195  -2.6466
    -2.6448  -2.6419  -2.6151  -2.6139  -2.5546  -2.5504  -2.5247  -2.5222
    -2.5112  -2.5109  -2.5035  -2.4756  -2.4730  -2.4648  -2.4476  -2.4256
    -2.4234  -2.4199  -2.4020  -2.3997  -2.3924  -2.3903  -2.3883  -2.3849
    -2.3770  -2.3310  -2.3002  -2.2990  -2.2840  -2.2707  -2.2641  -2.2632
    -2.2570  -2.2564  -2.2535  -2.2258  -2.2247  -2.2215  -2.2158  -2.2143
    -2.1980  -2.1715  -2.1701  -2.1700  -2.1686  -2.1670  -2.1216  -2.0929
    -2.0910  -2.0896  -2.0845  -2.0739  -2.0638  -2.0581  -2.0448  -2.0446
    -2.0153  -2.0108  -2.0104  -1.9925  -1.9917  -1.9876  -1.9592  -1.9538
    -1.9189  -1.9165  -1.9134  -1.9068  -1.9062  -1.9024  -1.9002  -1.8993
    -1.8969  -1.8930  -1.8906  -1.8748  -1.8663  -1.7896  -1.7483  -1.7361
    -1.7099  -1.7071  -1.7006  -1.6992  -1.6978  -1.6841  -1.6837  -1.6816
    -1.6757  -1.6618  -1.6549  -1.6513  -1.6463  -1.6360  -1.6313  -1.6162
    -1.6107  -1.5998  -1.5838  -1.5670  -1.5531  -1.5435  -1.5401  -1.5289
    -1.5154  -1.5118  -1.5052  -1.4944  -1.4808  -1.4793  -1.4739  -1.4708
    -1.4475  -1.4428  -1.4319  -1.4248  -1.3989  -1.3919  -1.3785  -1.3384
    -1.3355  -1.3253  -1.3170  -1.3070  -1.2970  -1.2938  -1.2630  -1.2618
    -1.2561  -1.2243  -1.2194  -1.2096  -1.2011  -1.1989  -1.1753  -1.1745
    -1.1608  -1.1425  -1.1412  -1.1366  -1.0781  -1.0771  -1.0667  -1.0618
    -1.0489  -1.0466  -1.0360  -1.0342  -1.0172  -1.0047  -0.9771  -0.9750
    -0.9632  -0.9353  -0.9280  -0.9218  -0.9146  -0.9142  -0.9111  -0.9095
    -0.8961  -0.8925  -0.8649  -0.8617  -0.8548  -0.8525  -0.8496  -0.8374
    -0.8275  -0.8112  -0.7989  -0.7885  -0.7739  -0.6942  -0.6809  -0.6756
    -0.6748  -0.6702  -0.6668  -0.6620  -0.6410  -0.6313  -0.6267  -0.6210
    -0.6100  -0.6072  -0.6014  -0.5821  -0.5796  -0.5707  -0.5701  -0.4968
    -0.4965  -0.4656  -0.4586  -0.4580  -0.4539  -0.4498  -0.4488  -0.4463
    -0.4377  -0.4347  -0.4119  -0.3943  -0.3786  -0.3621  -0.3601  -0.3510
    -0.3483  -0.3382  -0.3366  -0.3355  -0.3345  -0.3305  -0.3171  -0.3129
    -0.3103  -0.2820  -0.2805  -0.2786  -0.2671  -0.2665  -0.2476  -0.2165
    -0.2151  -0.2070  -0.2031  -0.1390  -0.1380  -0.1020  -0.1019  -0.0438
    -0.0435  -0.0428  -0.0231  -0.0161   0.2051   0.2261   0.5580   0.5584
     0.6428   0.6625   0.8398   0.8684   0.8835   1.0033   1.0127   1.4385
     1.4390   1.4574   1.7152   1.7477   1.7515   2.0157   2.0347   2.1025
     2.1058   2.1247   2.1487   2.3584   2.3640   2.4492   2.4505   2.5118
     2.5792   2.6060   2.7557   2.8536   3.2879   3.2894   3.2907   3.3047
     3.3459   3.3589   3.6413   3.6451   3.9154   3.9310   4.0075   4.3386
     4.3740   4.3852   4.5672   4.5722   4.6789   4.6810   4.7722   4.8898
     4.8903   5.0054   5.0111   5.0536   5.3112   5.3759   5.3802   5.5079
     5.5509   5.7628   5.7660   5.7827   5.7948   5.8002   5.8515   5.8545
     5.9180   6.0197   6.1712   6.2666   6.4570   6.4635   6.5968   6.5986
     6.6073   6.6156   6.6411   6.7448   6.8077   6.8503   6.8619   6.9861
     7.0240   7.0533   7.0759

          k =-0.2500-0.1443-0.1111 (136898 PWs)   bands (ev):

   -19.5452  -7.3455  -6.3951  -5.6031  -5.3181  -5.2536  -5.2519  -4.7150
    -4.7134  -4.5940  -4.5813  -4.4451  -4.4113  -4.3339  -4.3204  -4.3018
    -4.2672  -4.2664  -4.1402  -4.1043  -4.0969  -4.0619  -4.0323  -4.0162
    -3.9724  -3.9128  -3.9126  -3.8766  -3.8763  -3.8730  -3.8401  -3.8278
    -3.8276  -3.7214  -3.7209  -3.7124  -3.6974  -3.6835  -3.6831  -3.6716
    -3.6649  -3.6536  -3.6279  -3.6271  -3.6267  -3.6210  -3.5962  -3.5896
    -3.5766  -3.5764  -3.5619  -3.5227  -3.5183  -3.4873  -3.4752  -3.4682
    -3.4680  -3.4518  -3.3938  -3.3931  -3.3594  -3.3572  -3.3423  -3.2882
    -3.2879  -3.2730  -3.2722  -3.2430  -3.2422  -3.2415  -3.2386  -3.0873
    -3.0868  -3.0639  -3.0609  -3.0535  -3.0408  -3.0387  -3.0155  -3.0126
    -2.9648  -2.9626  -2.9485  -2.9467  -2.9272  -2.8812  -2.8802  -2.8598
    -2.8554  -2.8552  -2.8145  -2.8136  -2.8069  -2.8041  -2.7917  -2.7893
    -2.7512  -2.7510  -2.7306  -2.7271  -2.7261  -2.7248  -2.7194  -2.6467
    -2.6445  -2.6417  -2.6151  -2.6140  -2.5564  -2.5493  -2.5245  -2.5220
    -2.5107  -2.5105  -2.5036  -2.4758  -2.4730  -2.4649  -2.4473  -2.4270
    -2.4240  -2.4197  -2.4021  -2.3995  -2.3927  -2.3892  -2.3878  -2.3852
    -2.3770  -2.3310  -2.3002  -2.2992  -2.2836  -2.2707  -2.2647  -2.2629
    -2.2572  -2.2564  -2.2538  -2.2254  -2.2250  -2.2211  -2.2148  -2.2141
    -2.1977  -2.1707  -2.1701  -2.1693  -2.1688  -2.1668  -2.1219  -2.0925
    -2.0919  -2.0897  -2.0842  -2.0740  -2.0644  -2.0574  -2.0445  -2.0443
    -2.0139  -2.0107  -2.0100  -1.9946  -1.9919  -1.9872  -1.9600  -1.9536
    -1.9259  -1.9163  -1.9133  -1.9086  -1.9063  -1.9049  -1.9001  -1.8997
    -1.8972  -1.8922  -1.8869  -1.8759  -1.8651  -1.7806  -1.7435  -1.7396
    -1.7134  -1.7048  -1.7039  -1.6999  -1.6983  -1.6852  -1.6826  -1.6800
    -1.6762  -1.6669  -1.6548  -1.6493  -1.6424  -1.6372  -1.6283  -1.6229
    -1.6072  -1.6008  -1.5808  -1.5728  -1.5482  -1.5471  -1.5349  -1.5303
    -1.5137  -1.5127  -1.5057  -1.4938  -1.4804  -1.4796  -1.4737  -1.4711
    -1.4463  -1.4457  -1.4308  -1.4254  -1.3955  -1.3913  -1.3787  -1.3371
    -1.3357  -1.3248  -1.3184  -1.3160  -1.2970  -1.2941  -1.2628  -1.2622
    -1.2469  -1.2268  -1.2174  -1.2116  -1.2004  -1.2001  -1.1771  -1.1740
    -1.1617  -1.1425  -1.1408  -1.1389  -1.0781  -1.0762  -1.0652  -1.0639
    -1.0483  -1.0463  -1.0354  -1.0304  -1.0162  -1.0036  -0.9769  -0.9762
    -0.9649  -0.9353  -0.9266  -0.9231  -0.9147  -0.9142  -0.9120  -0.9085
    -0.9055  -0.8925  -0.8650  -0.8639  -0.8536  -0.8526  -0.8441  -0.8364
    -0.8249  -0.8052  -0.8018  -0.7846  -0.7820  -0.6942  -0.6803  -0.6753
    -0.6751  -0.6712  -0.6651  -0.6621  -0.6406  -0.6378  -0.6256  -0.6224
    -0.6083  -0.6080  -0.6010  -0.5808  -0.5781  -0.5720  -0.5701  -0.4972
    -0.4955  -0.4632  -0.4609  -0.4582  -0.4526  -0.4516  -0.4490  -0.4480
    -0.4359  -0.4314  -0.4128  -0.3941  -0.3823  -0.3610  -0.3605  -0.3507
    -0.3496  -0.3389  -0.3368  -0.3355  -0.3338  -0.3299  -0.3169  -0.3127
    -0.3100  -0.2819  -0.2811  -0.2770  -0.2676  -0.2644  -0.2474  -0.2163
    -0.2155  -0.2066  -0.2057  -0.1402  -0.1348  -0.1024  -0.1014  -0.0442
    -0.0434  -0.0416  -0.0262  -0.0161   0.2134   0.2218   0.5582   0.5583
     0.6499   0.6580   0.8352   0.8647   0.8860   1.0046   1.0120   1.4385
     1.4390   1.4573   1.7146   1.7478   1.7510   2.0237   2.0294   2.1039
     2.1044   2.1297   2.1430   2.3594   2.3630   2.4495   2.4499   2.5121
     2.5861   2.5984   2.7555   2.8531   3.2856   3.2899   3.2964   3.3014
     3.3485   3.3565   3.6418   3.6442   3.9204   3.9272   4.0095   4.3392
     4.3771   4.3803   4.5367   4.5860   4.6768   4.6869   4.7723   4.8803
     4.8971   5.0074   5.0086   5.0699   5.3093   5.3714   5.3889   5.5307
     5.5419   5.7538   5.7681   5.7688   5.7953   5.7990   5.8545   5.8573
     5.8825   5.9882   6.2391   6.3261   6.4474   6.4623   6.5905   6.6001
     6.6017   6.6115   6.6279   6.6796   6.8516   6.8574   6.9021   6.9697
     7.0049   7.0662   7.0757

          k = 0.2500 0.1443-0.1111 (136898 PWs)   bands (ev):

   -19.5452  -7.3455  -6.3951  -5.6031  -5.3181  -5.2536  -5.2519  -4.7150
    -4.7134  -4.5940  -4.5813  -4.4451  -4.4113  -4.3339  -4.3204  -4.3018
    -4.2672  -4.2664  -4.1402  -4.1043  -4.0969  -4.0619  -4.0323  -4.0162
    -3.9724  -3.9128  -3.9126  -3.8766  -3.8763  -3.8730  -3.8402  -3.8278
    -3.8275  -3.7214  -3.7209  -3.7124  -3.6974  -3.6835  -3.6831  -3.6716
    -3.6649  -3.6536  -3.6279  -3.6271  -3.6267  -3.6210  -3.5962  -3.5896
    -3.5766  -3.5764  -3.5619  -3.5227  -3.5183  -3.4873  -3.4752  -3.4682
    -3.4680  -3.4518  -3.3938  -3.3931  -3.3594  -3.3572  -3.3423  -3.2882
    -3.2879  -3.2730  -3.2722  -3.2430  -3.2422  -3.2415  -3.2386  -3.0873
    -3.0868  -3.0639  -3.0609  -3.0535  -3.0408  -3.0387  -3.0155  -3.0126
    -2.9648  -2.9626  -2.9485  -2.9467  -2.9272  -2.8812  -2.8802  -2.8598
    -2.8554  -2.8552  -2.8145  -2.8136  -2.8069  -2.8041  -2.7917  -2.7893
    -2.7512  -2.7510  -2.7306  -2.7271  -2.7261  -2.7248  -2.7194  -2.6467
    -2.6445  -2.6417  -2.6151  -2.6140  -2.5564  -2.5493  -2.5245  -2.5220
    -2.5107  -2.5105  -2.5036  -2.4758  -2.4730  -2.4649  -2.4473  -2.4270
    -2.4239  -2.4197  -2.4021  -2.3995  -2.3927  -2.3892  -2.3878  -2.3852
    -2.3770  -2.3310  -2.3002  -2.2992  -2.2835  -2.2707  -2.2647  -2.2629
    -2.2572  -2.2564  -2.2538  -2.2254  -2.2250  -2.2211  -2.2148  -2.2141
    -2.1977  -2.1707  -2.1701  -2.1693  -2.1688  -2.1668  -2.1219  -2.0925
    -2.0919  -2.0897  -2.0842  -2.0740  -2.0644  -2.0574  -2.0445  -2.0443
    -2.0139  -2.0107  -2.0100  -1.9946  -1.9919  -1.9872  -1.9600  -1.9536
    -1.9259  -1.9163  -1.9133  -1.9086  -1.9063  -1.9049  -1.9001  -1.8997
    -1.8972  -1.8922  -1.8869  -1.8759  -1.8651  -1.7806  -1.7435  -1.7396
    -1.7134  -1.7048  -1.7039  -1.6999  -1.6983  -1.6852  -1.6826  -1.6800
    -1.6762  -1.6669  -1.6548  -1.6493  -1.6424  -1.6372  -1.6283  -1.6229
    -1.6072  -1.6008  -1.5808  -1.5728  -1.5482  -1.5471  -1.5349  -1.5303
    -1.5137  -1.5127  -1.5057  -1.4938  -1.4804  -1.4796  -1.4737  -1.4711
    -1.4463  -1.4457  -1.4308  -1.4254  -1.3955  -1.3913  -1.3787  -1.3371
    -1.3357  -1.3248  -1.3184  -1.3160  -1.2970  -1.2941  -1.2628  -1.2622
    -1.2469  -1.2268  -1.2173  -1.2116  -1.2004  -1.2001  -1.1771  -1.1740
    -1.1617  -1.1426  -1.1408  -1.1389  -1.0781  -1.0762  -1.0652  -1.0639
    -1.0483  -1.0463  -1.0354  -1.0304  -1.0162  -1.0036  -0.9769  -0.9762
    -0.9649  -0.9353  -0.9266  -0.9231  -0.9147  -0.9142  -0.9120  -0.9085
    -0.9055  -0.8925  -0.8650  -0.8639  -0.8536  -0.8526  -0.8441  -0.8364
    -0.8249  -0.8052  -0.8018  -0.7846  -0.7820  -0.6942  -0.6803  -0.6753
    -0.6751  -0.6712  -0.6651  -0.6621  -0.6406  -0.6378  -0.6256  -0.6224
    -0.6083  -0.6080  -0.6010  -0.5808  -0.5781  -0.5720  -0.5701  -0.4972
    -0.4955  -0.4632  -0.4609  -0.4582  -0.4526  -0.4516  -0.4490  -0.4480
    -0.4359  -0.4314  -0.4128  -0.3941  -0.3823  -0.3610  -0.3605  -0.3507
    -0.3496  -0.3389  -0.3368  -0.3355  -0.3338  -0.3299  -0.3169  -0.3127
    -0.3100  -0.2819  -0.2812  -0.2770  -0.2676  -0.2644  -0.2474  -0.2163
    -0.2155  -0.2066  -0.2057  -0.1402  -0.1348  -0.1024  -0.1014  -0.0442
    -0.0434  -0.0416  -0.0262  -0.0161   0.2134   0.2218   0.5582   0.5583
     0.6499   0.6580   0.8352   0.8647   0.8860   1.0046   1.0120   1.4385
     1.4390   1.4573   1.7146   1.7478   1.7510   2.0237   2.0294   2.1039
     2.1044   2.1297   2.1430   2.3594   2.3630   2.4495   2.4499   2.5121
     2.5861   2.5984   2.7555   2.8531   3.2856   3.2899   3.2964   3.3014
     3.3485   3.3565   3.6418   3.6442   3.9204   3.9272   4.0095   4.3392
     4.3771   4.3803   4.5367   4.5860   4.6768   4.6869   4.7723   4.8803
     4.8971   5.0074   5.0086   5.0699   5.3093   5.3714   5.3889   5.5307
     5.5419   5.7535   5.7681   5.7689   5.7953   5.7990   5.8546   5.8573
     5.8827   5.9889   6.2392   6.3255   6.4409   6.4666   6.5897   6.5987
     6.6017   6.6115   6.6267   6.6817   6.8516   6.8575   6.9035   6.9710
     7.0106   7.0666   7.0786

          k = 0.0000-0.2887 0.1111 (136898 PWs)   bands (ev):

   -19.5452  -7.3455  -6.3951  -5.6031  -5.3181  -5.2535  -5.2519  -4.7150
    -4.7134  -4.5941  -4.5817  -4.4448  -4.4115  -4.3341  -4.3201  -4.3016
    -4.2670  -4.2664  -4.1401  -4.1047  -4.0966  -4.0621  -4.0323  -4.0161
    -3.9724  -3.9128  -3.9126  -3.8766  -3.8763  -3.8730  -3.8403  -3.8278
    -3.8275  -3.7213  -3.7211  -3.7127  -3.6972  -3.6834  -3.6829  -3.6716
    -3.6648  -3.6539  -3.6279  -3.6271  -3.6268  -3.6208  -3.5959  -3.5896
    -3.5766  -3.5764  -3.5621  -3.5224  -3.5183  -3.4875  -3.4752  -3.4682
    -3.4680  -3.4517  -3.3937  -3.3932  -3.3595  -3.3570  -3.3424  -3.2882
    -3.2879  -3.2730  -3.2722  -3.2427  -3.2420  -3.2418  -3.2387  -3.0875
    -3.0871  -3.0636  -3.0612  -3.0535  -3.0408  -3.0385  -3.0155  -3.0126
    -2.9649  -2.9628  -2.9486  -2.9468  -2.9273  -2.8812  -2.8797  -2.8599
    -2.8557  -2.8553  -2.8145  -2.8135  -2.8068  -2.8039  -2.7916  -2.7893
    -2.7514  -2.7510  -2.7301  -2.7273  -2.7261  -2.7247  -2.7194  -2.6467
    -2.6448  -2.6418  -2.6151  -2.6139  -2.5554  -2.5498  -2.5246  -2.5221
    -2.5110  -2.5106  -2.5036  -2.4757  -2.4728  -2.4649  -2.4474  -2.4261
    -2.4237  -2.4199  -2.4020  -2.3996  -2.3923  -2.3900  -2.3882  -2.3854
    -2.3770  -2.3310  -2.3003  -2.2992  -2.2837  -2.2708  -2.2644  -2.2631
    -2.2572  -2.2562  -2.2537  -2.2258  -2.2248  -2.2212  -2.2158  -2.2139
    -2.1978  -2.1713  -2.1702  -2.1697  -2.1687  -2.1670  -2.1218  -2.0930
    -2.0913  -2.0897  -2.0844  -2.0740  -2.0642  -2.0575  -2.0446  -2.0444
    -2.0148  -2.0109  -2.0102  -1.9930  -1.9918  -1.9873  -1.9595  -1.9539
    -1.9212  -1.9165  -1.9134  -1.9076  -1.9060  -1.9046  -1.9001  -1.8994
    -1.8966  -1.8929  -1.8887  -1.8752  -1.8656  -1.7865  -1.7474  -1.7369
    -1.7110  -1.7062  -1.7014  -1.6998  -1.6982  -1.6845  -1.6836  -1.6810
    -1.6758  -1.6639  -1.6549  -1.6506  -1.6447  -1.6361  -1.6302  -1.6188
    -1.6091  -1.6001  -1.5828  -1.5694  -1.5513  -1.5446  -1.5385  -1.5291
    -1.5148  -1.5119  -1.5052  -1.4942  -1.4807  -1.4795  -1.4739  -1.4708
    -1.4472  -1.4436  -1.4315  -1.4251  -1.3975  -1.3924  -1.3786  -1.3378
    -1.3357  -1.3252  -1.3175  -1.3104  -1.2971  -1.2938  -1.2629  -1.2617
    -1.2529  -1.2252  -1.2187  -1.2101  -1.2008  -1.1991  -1.1757  -1.1743
    -1.1612  -1.1426  -1.1411  -1.1372  -1.0784  -1.0768  -1.0662  -1.0626
    -1.0485  -1.0466  -1.0355  -1.0331  -1.0166  -1.0043  -0.9771  -0.9753
    -0.9637  -0.9352  -0.9276  -0.9222  -0.9148  -0.9142  -0.9117  -0.9092
    -0.8997  -0.8925  -0.8648  -0.8630  -0.8542  -0.8526  -0.8460  -0.8380
    -0.8268  -0.8097  -0.7998  -0.7877  -0.7760  -0.6941  -0.6807  -0.6755
    -0.6749  -0.6704  -0.6663  -0.6621  -0.6410  -0.6334  -0.6263  -0.6216
    -0.6092  -0.6075  -0.6014  -0.5814  -0.5793  -0.5712  -0.5701  -0.4969
    -0.4962  -0.4649  -0.4591  -0.4583  -0.4535  -0.4503  -0.4489  -0.4472
    -0.4364  -0.4340  -0.4123  -0.3941  -0.3800  -0.3618  -0.3602  -0.3510
    -0.3488  -0.3382  -0.3366  -0.3356  -0.3340  -0.3305  -0.3170  -0.3130
    -0.3101  -0.2819  -0.2804  -0.2782  -0.2673  -0.2657  -0.2476  -0.2165
    -0.2152  -0.2069  -0.2038  -0.1395  -0.1369  -0.1023  -0.1017  -0.0440
    -0.0435  -0.0423  -0.0243  -0.0161   0.2079   0.2248   0.5581   0.5584
     0.6450   0.6612   0.8384   0.8669   0.8845   1.0038   1.0124   1.4387
     1.4388   1.4575   1.7150   1.7478   1.7513   2.0184   2.0331   2.1029
     2.1053   2.1261   2.1469   2.3586   2.3636   2.4493   2.4503   2.5118
     2.5815   2.6035   2.7556   2.8535   3.2874   3.2897   3.2923   3.3037
     3.3463   3.3588   3.6412   3.6450   3.9165   3.9299   4.0083   4.3390
     4.3744   4.3839   4.5582   4.5757   4.6779   4.6834   4.7725   4.8875
     4.8923   5.0054   5.0106   5.0583   5.3106   5.3741   5.3835   5.5153
     5.5484   5.7629   5.7672   5.7763   5.7952   5.8004   5.8507   5.8557
     5.9022   6.0015   6.2253   6.2591   6.4567   6.4627   6.5967   6.5991
     6.6076   6.6136   6.6386   6.7236   6.8295   6.8529   6.8604   6.9829
     7.0142   7.0558   7.0852

          k = 0.0000 0.2887 0.1111 (136898 PWs)   bands (ev):

   -19.5452  -7.3455  -6.3951  -5.6031  -5.3181  -5.2535  -5.2519  -4.7150
    -4.7134  -4.5941  -4.5817  -4.4448  -4.4115  -4.3341  -4.3201  -4.3016
    -4.2670  -4.2664  -4.1401  -4.1047  -4.0966  -4.0621  -4.0323  -4.0161
    -3.9724  -3.9128  -3.9126  -3.8766  -3.8763  -3.8730  -3.8403  -3.8278
    -3.8275  -3.7213  -3.7211  -3.7127  -3.6972  -3.6834  -3.6829  -3.6716
    -3.6648  -3.6539  -3.6279  -3.6271  -3.6268  -3.6207  -3.5959  -3.5896
    -3.5766  -3.5764  -3.5621  -3.5224  -3.5183  -3.4875  -3.4752  -3.4682
    -3.4680  -3.4517  -3.3937  -3.3932  -3.3595  -3.3570  -3.3424  -3.2882
    -3.2879  -3.2730  -3.2722  -3.2427  -3.2420  -3.2418  -3.2387  -3.0875
    -3.0871  -3.0636  -3.0612  -3.0535  -3.0408  -3.0385  -3.0155  -3.0126
    -2.9649  -2.9628  -2.9486  -2.9468  -2.9273  -2.8812  -2.8797  -2.8599
    -2.8557  -2.8553  -2.8145  -2.8135  -2.8068  -2.8039  -2.7916  -2.7893
    -2.7514  -2.7510  -2.7301  -2.7273  -2.7261  -2.7247  -2.7194  -2.6467
    -2.6448  -2.6418  -2.6151  -2.6139  -2.5554  -2.5498  -2.5246  -2.5221
    -2.5110  -2.5106  -2.5036  -2.4757  -2.4728  -2.4649  -2.4474  -2.4261
    -2.4237  -2.4199  -2.4020  -2.3996  -2.3923  -2.3900  -2.3882  -2.3854
    -2.3770  -2.3310  -2.3003  -2.2992  -2.2837  -2.2708  -2.2644  -2.2631
    -2.2572  -2.2562  -2.2537  -2.2258  -2.2248  -2.2212  -2.2158  -2.2139
    -2.1978  -2.1713  -2.1702  -2.1697  -2.1687  -2.1670  -2.1218  -2.0930
    -2.0913  -2.0897  -2.0844  -2.0740  -2.0642  -2.0575  -2.0446  -2.0444
    -2.0148  -2.0108  -2.0102  -1.9930  -1.9918  -1.9873  -1.9595  -1.9539
    -1.9212  -1.9165  -1.9134  -1.9076  -1.9060  -1.9046  -1.9001  -1.8994
    -1.8966  -1.8929  -1.8887  -1.8752  -1.8656  -1.7865  -1.7474  -1.7369
    -1.7110  -1.7062  -1.7014  -1.6998  -1.6982  -1.6845  -1.6836  -1.6810
    -1.6758  -1.6639  -1.6549  -1.6506  -1.6447  -1.6361  -1.6302  -1.6188
    -1.6091  -1.6001  -1.5828  -1.5694  -1.5513  -1.5446  -1.5385  -1.5291
    -1.5148  -1.5119  -1.5052  -1.4942  -1.4807  -1.4795  -1.4739  -1.4708
    -1.4472  -1.4436  -1.4315  -1.4251  -1.3975  -1.3924  -1.3786  -1.3378
    -1.3357  -1.3252  -1.3175  -1.3104  -1.2971  -1.2938  -1.2629  -1.2617
    -1.2529  -1.2252  -1.2187  -1.2101  -1.2008  -1.1991  -1.1757  -1.1744
    -1.1612  -1.1427  -1.1411  -1.1372  -1.0784  -1.0768  -1.0662  -1.0626
    -1.0485  -1.0466  -1.0355  -1.0331  -1.0166  -1.0043  -0.9771  -0.9753
    -0.9637  -0.9352  -0.9276  -0.9222  -0.9148  -0.9142  -0.9117  -0.9092
    -0.8997  -0.8925  -0.8648  -0.8630  -0.8542  -0.8526  -0.8460  -0.8380
    -0.8268  -0.8097  -0.7998  -0.7877  -0.7760  -0.6941  -0.6807  -0.6755
    -0.6749  -0.6704  -0.6663  -0.6621  -0.6410  -0.6334  -0.6263  -0.6216
    -0.6092  -0.6075  -0.6014  -0.5814  -0.5794  -0.5711  -0.5701  -0.4969
    -0.4962  -0.4649  -0.4591  -0.4583  -0.4535  -0.4503  -0.4489  -0.4472
    -0.4364  -0.4340  -0.4123  -0.3941  -0.3800  -0.3617  -0.3602  -0.3510
    -0.3488  -0.3382  -0.3366  -0.3356  -0.3340  -0.3305  -0.3170  -0.3130
    -0.3101  -0.2819  -0.2804  -0.2782  -0.2673  -0.2657  -0.2476  -0.2165
    -0.2152  -0.2069  -0.2038  -0.1396  -0.1369  -0.1023  -0.1017  -0.0440
    -0.0435  -0.0423  -0.0243  -0.0161   0.2079   0.2248   0.5581   0.5584
     0.6450   0.6612   0.8384   0.8669   0.8845   1.0038   1.0124   1.4387
     1.4388   1.4575   1.7150   1.7478   1.7513   2.0184   2.0331   2.1029
     2.1053   2.1261   2.1469   2.3586   2.3636   2.4493   2.4503   2.5118
     2.5815   2.6035   2.7556   2.8535   3.2874   3.2897   3.2923   3.3037
     3.3463   3.3588   3.6412   3.6450   3.9165   3.9299   4.0083   4.3390
     4.3744   4.3839   4.5582   4.5757   4.6779   4.6834   4.7725   4.8875
     4.8923   5.0054   5.0106   5.0583   5.3106   5.3741   5.3835   5.5153
     5.5484   5.7629   5.7671   5.7765   5.7952   5.8004   5.8507   5.8556
     5.9023   6.0015   6.2257   6.2589   6.4522   6.4667   6.5966   6.5991
     6.6081   6.6123   6.6362   6.7227   6.8291   6.8532   6.8606   6.9867
     7.0185   7.0564   7.0853

     the Fermi energy is     1.5831 ev

!    total energy              =   -6604.42755647 Ry
     Harris-Foulkes estimate   =   -6604.42755646 Ry
     estimated scf accuracy    <          2.5E-09 Ry

     The total energy is the sum of the following terms:

     one-electron contribution =  -48807.23456890 Ry
     hartree contribution      =   24908.36231271 Ry
     xc contribution           =   -3204.99607657 Ry
     ewald contribution        =   20499.43797927 Ry
     smearing contrib. (-TS)   =       0.00279702 Ry

     convergence has been achieved in  22 iterations

     Writing output data file 5616280.save

     init_run     :    137.63s CPU    148.03s WALL (       1 calls)
     electrons    :   7747.96s CPU   8243.43s WALL (       1 calls)

     Called by init_run:
     wfcinit      :    105.70s CPU    115.37s WALL (       1 calls)
     potinit      :      9.06s CPU      9.48s WALL (       1 calls)

     Called by electrons:
     c_bands      :   6601.80s CPU   6999.07s WALL (      23 calls)
     sum_band     :    823.94s CPU    910.25s WALL (      23 calls)
     v_of_rho     :     70.26s CPU     78.53s WALL (      23 calls)
     newd         :    262.43s CPU    265.66s WALL (      23 calls)
     mix_rho      :      1.90s CPU      2.18s WALL (      23 calls)
     vdW_energy   :      6.46s CPU      6.88s WALL (      23 calls)
     vdW_ffts     :     33.00s CPU     37.38s WALL (      46 calls)
     vdW_v        :     10.35s CPU     11.03s WALL (      23 calls)

     Called by c_bands:
     init_us_2    :     11.25s CPU     11.66s WALL (     564 calls)
     cegterg      :   6532.00s CPU   6927.86s WALL (     276 calls)

     Called by *egterg:
     h_psi        :   2576.16s CPU   2940.94s WALL (    1706 calls)
     s_psi        :    392.80s CPU    395.14s WALL (    1706 calls)
     g_psi        :      5.68s CPU      5.67s WALL (    1418 calls)
     cdiaghg      :   2303.18s CPU   2310.32s WALL (    1682 calls)

     Called by h_psi:
     add_vuspsi   :    395.34s CPU    397.66s WALL (    1706 calls)

     General routines
     calbec       :    562.72s CPU    565.05s WALL (    1982 calls)
     fft          :    136.30s CPU    144.49s WALL (    1518 calls)
     ffts         :      0.84s CPU      1.05s WALL (      46 calls)
     fftw         :   1977.50s CPU   2380.51s WALL (  675944 calls)
     interpolate  :      2.35s CPU      2.93s WALL (      46 calls)
     davcio       :      0.01s CPU      0.17s WALL (      12 calls)

     Parallel routines
     fft_scatter  :   1382.21s CPU   1681.68s WALL (  677508 calls)

     PWSCF        :     2h11m CPU        2h20m WALL


   This run was terminated on:   1:53:21   3Jul2015            

=------------------------------------------------------------------------------=
   JOB DONE.
=------------------------------------------------------------------------------=
