
     Program PWSCF v.5.1.2 starts on 24Aug2015 at 11:36:57 

     This program is part of the open-source Quantum ESPRESSO suite
     for quantum simulation of materials; please cite
         "P. Giannozzi et al., J. Phys.:Condens. Matter 21 395502 (2009);
          URL http://www.quantum-espresso.org", 
     in publications or presentations arising from this work. More details at
     http://www.quantum-espresso.org/quote

     Parallel version (MPI), running on    32 processors
     R & G space division:  proc/nbgrp/npool/nimage =      32
     Reading input from hollow.O1.Au535758.d.2.7.phi.0.psi.90.in
Warning: card &IONS ignored
Warning: card / ignored
Warning: card &CELL ignored
Warning: card / ignored

     Current dimensions of program PWSCF are:
     Max number of different atomic species (ntypx) = 10
     Max number of k-points (npk) =  40000
     Max angular momentum in pseudopotentials (lmaxx) =  3

     IMPORTANT: XC functional enforced from input :
     Exchange-correlation      = VDW-DF ( 1  4  4  0 1 0)
     Any further DFT definition will be discarded
     Please, verify this is what you really want


     Subspace diagonalization in iterative solution of the eigenvalue problem:
     a serial algorithm will be used


     Parallelization info
     --------------------
     sticks:   dense  smooth     PW     G-vecs:    dense   smooth      PW
     Min         445     223     58                96775    34191    4534
     Max         446     224     59                96790    34246    4540
     Sum       14269    7147   1867              3097177  1095093  145167


     Title: 
     hollow.O1.Au535758.d.2.7.phi.0.psi.90                                      


     bravais-lattice index     =            4
     lattice parameter (alat)  =      22.7436  a.u.
     unit-cell volume          =   22924.1508 (a.u.)^3
     number of atoms/cell      =           67
     number of atomic types    =            3
     number of electrons       =       712.00
     number of Kohn-Sham states=          427
     kinetic-energy cutoff     =      50.0000  Ry
     charge density cutoff     =     400.0000  Ry
     convergence threshold     =      1.0E-08
     mixing beta               =       0.7000
     number of iterations used =            8  plain     mixing
     Exchange-correlation      = VDW-DF ( 1  4  4  0 1 0)

     celldm(1)=  22.743643  celldm(2)=   0.000000  celldm(3)=   2.250000
     celldm(4)=   0.000000  celldm(5)=   0.000000  celldm(6)=   0.000000

     crystal axes: (cart. coord. in units of alat)
               a(1) = (   1.000000   0.000000   0.000000 )  
               a(2) = (  -0.500000   0.866025   0.000000 )  
               a(3) = (   0.000000   0.000000   2.250000 )  

     reciprocal axes: (cart. coord. in units 2 pi/alat)
               b(1) = (  1.000000  0.577350 -0.000000 )  
               b(2) = (  0.000000  1.154701  0.000000 )  
               b(3) = (  0.000000 -0.000000  0.444444 )  


     PseudoPot. # 1 for Au read from file:
     /home/scc/andrejb/qe/pseudo/Au.pbe-nd-van.UPF
     MD5 check sum: 458681b50f36d87ef23c61b04bba420a
     Pseudo is Ultrasoft + core correction, Zval = 11.0
     Generated by new atomic code, or converted to UPF format
     Using radial grid of  985 points,  3 beta functions with: 
                l(1) =   1
                l(2) =   2
                l(3) =   2
     Q(r) pseudized with  8 coefficients,  rinner =    1.100   1.100   1.100
                                                       1.100   1.100

     PseudoPot. # 2 for H  read from file:
     /home/scc/andrejb/qe/pseudo/H.pbe-van_ak.UPF
     MD5 check sum: 403db7282739603aa925980fa9b8608d
     Pseudo is Ultrasoft, Zval =  1.0
     Generated by new atomic code, or converted to UPF format
     Using radial grid of  615 points,  1 beta functions with: 
                l(1) =   0
     Q(r) pseudized with  8 coefficients,  rinner =    0.800

     PseudoPot. # 3 for O  read from file:
     /home/scc/andrejb/qe/pseudo/O.pbe-van_ak.UPF
     MD5 check sum: 4b8c549914a63cae506c6ff22b5af4fe
     Pseudo is Ultrasoft, Zval =  6.0
     Generated by new atomic code, or converted to UPF format
     Using radial grid of  737 points,  4 beta functions with: 
                l(1) =   0
                l(2) =   0
                l(3) =   1
                l(4) =   1
     Q(r) pseudized with  8 coefficients,  rinner =    0.800   0.800   0.800


     vdW kernel table read from file vdW_kernel_table
     MD5 check sum: 48e77a2e26edf626eeb0eaa751ad5cac

     atomic species   valence    mass     pseudopotential
        Au            11.00   196.96657     Au( 1.00)
        H              1.00     1.01000     H ( 1.00)
        O              6.00    16.00000     O ( 1.00)

     No symmetry found



   Cartesian axes

     site n.     atom                  positions (alat units)
         1           O   tau(   1) = (  -0.0208375   0.5411347   0.8373442  )
         2           H   tau(   2) = (  -0.0707709   0.4928811   0.7957966  )
         3           H   tau(   3) = (   0.0275819   0.4903739   0.8776511  )
         4           Au  tau(   4) = (   0.3540481   0.6132292   0.0000000  )
         5           Au  tau(   5) = (   0.4790062   0.3967954   0.0000000  )
         6           Au  tau(   6) = (   0.6039644   0.1803616   0.0000000  )
         7           Au  tau(   7) = (   0.7289225  -0.0360723   0.0000000  )
         8           Au  tau(   8) = (   0.1041318   0.6132292   0.0000000  )
         9           Au  tau(   9) = (   0.2290899   0.3967954   0.0000000  )
        10           Au  tau(  10) = (   0.3540481   0.1803616   0.0000000  )
        11           Au  tau(  11) = (   0.4790062  -0.0360723   0.0000000  )
        12           Au  tau(  12) = (  -0.1457845   0.6132292   0.0000000  )
        13           Au  tau(  13) = (  -0.0208264   0.3967954   0.0000000  )
        14           Au  tau(  14) = (   0.1041318   0.1803616   0.0000000  )
        15           Au  tau(  15) = (   0.2290899  -0.0360723   0.0000000  )
        16           Au  tau(  16) = (  -0.3957008   0.6132292   0.0000000  )
        17           Au  tau(  17) = (  -0.2707426   0.3967954   0.0000000  )
        18           Au  tau(  18) = (  -0.1457845   0.1803616   0.0000000  )
        19           Au  tau(  19) = (  -0.0208264  -0.0360723   0.0000000  )
        20           Au  tau(  20) = (   0.4790062   0.6853738   0.2040557  )
        21           Au  tau(  21) = (   0.6039644   0.4689400   0.2040557  )
        22           Au  tau(  22) = (   0.7289225   0.2525061   0.2040557  )
        23           Au  tau(  23) = (   0.8538806   0.0360723   0.2040557  )
        24           Au  tau(  24) = (   0.2290899   0.6853738   0.2040557  )
        25           Au  tau(  25) = (   0.3540481   0.4689400   0.2040557  )
        26           Au  tau(  26) = (   0.4790062   0.2525061   0.2040557  )
        27           Au  tau(  27) = (   0.6039644   0.0360723   0.2040557  )
        28           Au  tau(  28) = (  -0.0208264   0.6853738   0.2040557  )
        29           Au  tau(  29) = (   0.1041318   0.4689400   0.2040557  )
        30           Au  tau(  30) = (   0.2290899   0.2525061   0.2040557  )
        31           Au  tau(  31) = (   0.3540481   0.0360723   0.2040557  )
        32           Au  tau(  32) = (  -0.2707426   0.6853738   0.2040557  )
        33           Au  tau(  33) = (  -0.1457845   0.4689400   0.2040557  )
        34           Au  tau(  34) = (  -0.0208264   0.2525061   0.2040557  )
        35           Au  tau(  35) = (   0.1041318   0.0360723   0.2040557  )
        36           Au  tau(  36) = (   0.3541162   0.7576593   0.4066483  )
        37           Au  tau(  37) = (   0.4791000   0.5411421   0.4066695  )
        38           Au  tau(  38) = (   0.6040570   0.3246862   0.4066617  )
        39           Au  tau(  39) = (   0.7290270   0.1081684   0.4066529  )
        40           Au  tau(  40) = (   0.1041162   0.7576236   0.4066247  )
        41           Au  tau(  41) = (   0.2291001   0.5411063   0.4066455  )
        42           Au  tau(  42) = (   0.3540567   0.3246505   0.4066380  )
        43           Au  tau(  43) = (   0.4790276   0.1081324   0.4066292  )
        44           Au  tau(  44) = (  -0.1458201   0.7576104   0.4066224  )
        45           Au  tau(  45) = (  -0.0208365   0.5410930   0.4066438  )
        46           Au  tau(  46) = (   0.1041202   0.3246372   0.4066359  )
        47           Au  tau(  47) = (   0.2290908   0.1081193   0.4066273  )
        48           Au  tau(  48) = (  -0.3958167   0.7575791   0.4065812  )
        49           Au  tau(  49) = (  -0.2708328   0.5410617   0.4066025  )
        50           Au  tau(  50) = (  -0.1458763   0.3246061   0.4065947  )
        51           Au  tau(  51) = (  -0.0209056   0.1080882   0.4065858  )
        52           Au  tau(  52) = (   0.3541085   0.6133344   0.6129762  )
        53           Au  tau(  53) = (   0.4790780   0.3968269   0.6129968  )
        54           Au  tau(  54) = (   0.6040356   0.1803811   0.6129859  )
        55           Au  tau(  55) = (   0.7290165  -0.0361221   0.6129385  )
        56           Au  tau(  56) = (   0.1041243   0.6133091   0.6130022  )
        57           Au  tau(  57) = (   0.2290941   0.3968013   0.6130241  )
        58           Au  tau(  58) = (   0.3540515   0.1803552   0.6130121  )
        59           Au  tau(  59) = (   0.4790323  -0.0361475   0.6129659  )
        60           Au  tau(  60) = (  -0.1458030   0.6133014   0.6129980  )
        61           Au  tau(  61) = (  -0.0208339   0.3967936   0.6130188  )
        62           Au  tau(  62) = (   0.1041239   0.1803477   0.6130083  )
        63           Au  tau(  63) = (   0.2291046  -0.0361554   0.6129607  )
        64           Au  tau(  64) = (  -0.3957908   0.6132739   0.6129471  )
        65           Au  tau(  65) = (  -0.2708208   0.3967658   0.6129688  )
        66           Au  tau(  66) = (  -0.1458636   0.1803200   0.6129569  )
        67           Au  tau(  67) = (  -0.0208823  -0.0361826   0.6129110  )

     number of k points=    12  Marzari-Vanderbilt smearing, width (Ry)=  0.0200
                       cart. coord. in units 2pi/alat
        k(    1) = (   0.2500000   0.4330127   0.1111111), wk =   0.1666667
        k(    2) = (   0.2500000  -0.1443376   0.1111111), wk =   0.1666667
        k(    3) = (  -0.2500000  -0.4330127   0.1111111), wk =   0.1666667
        k(    4) = (  -0.2500000   0.4330127  -0.1111111), wk =   0.1666667
        k(    5) = (   0.2500000  -0.4330127  -0.1111111), wk =   0.1666667
        k(    6) = (   0.5000000   0.0000000   0.1111111), wk =   0.1666667
        k(    7) = (  -0.5000000   0.0000000   0.1111111), wk =   0.1666667
        k(    8) = (  -0.2500000   0.1443376   0.1111111), wk =   0.1666667
        k(    9) = (  -0.2500000  -0.1443376  -0.1111111), wk =   0.1666667
        k(   10) = (   0.2500000   0.1443376  -0.1111111), wk =   0.1666667
        k(   11) = (   0.0000000  -0.2886751   0.1111111), wk =   0.1666667
        k(   12) = (   0.0000000   0.2886751   0.1111111), wk =   0.1666667

     Dense  grid:  3097177 G-vectors     FFT dimensions: ( 150, 150, 360)

     Smooth grid:  1095093 G-vectors     FFT dimensions: ( 108, 108, 240)

     Largest allocated arrays     est. size (Mb)     dimensions
        Kohn-Sham Wavefunctions        28.01 Mb     (    4299,  427)
        NL pseudopotentials            55.23 Mb     (    4299,  842)
        Each V/rho on FFT grid          4.12 Mb     (  270000)
        Each G-vector array             0.74 Mb     (   96788)
        G-vector shells                 0.16 Mb     (   21404)
     Largest temporary arrays     est. size (Mb)     dimensions
        Auxiliary wavefunctions       112.04 Mb     (    4299, 1708)
        Each subspace H/S matrix       44.51 Mb     (    1708, 1708)
        Each <psi_i|beta_j> matrix      5.49 Mb     (     842,  427)
        Arrays for rho mixing          32.96 Mb     (  270000,    8)

     Initial potential from superposition of free atoms
     Check: negative starting charge=   -1.730336

     starting charge  711.25682, renormalised to  712.00000

     negative rho (up, down):  1.732E+00 0.000E+00


     ************************************************************************
     *
     * You are using vdW-DF for exchange-correlation in this calculation.
     * Please cite the following three references that made this development
     * possible:
     *
     *   M. Dion, H. Rydberg, E. Schroder, D. C. Langreth, and
     *   B. I. Lundqvist, Phys. Rev. Lett. 92, 246401 (2004).
     *
     *   T. Thonhauser, V. R. Cooper, S. Li, A. Puzder, P. Hyldgaard, and
     *   D. C. Langreth, Phys. Rev. B 76, 125112 (2007).
     *
     *   G. Roman-Perez and J. M. Soler, Phys. Rev. Lett. 103, 096102 (2009).
     *
     *
     * If you are using vdW-DF2, please also cite:
     *
     *   K. Lee, E. D. Murray, L. Kong, B. I. Lundqvist, and
     *   D. C. Langreth, Phys. Rev. B 82, 081101(R) (2010).
     *
     *
     * If you are calculating the stress with vdW-DF, please also cite:
     *
     *   R. Sabatini, E. Kucukbenli, B. Kolb, T. Thonhauser, and
     *   S. de Gironcoli, J. Phys.: Condens. Matter 24, 424209 (2012).
     *
     ************************************************************************

     Carrying out vdW-DF run using the following parameters:

     Nqs =      20    Nr_points =    1024   r_max =   100.000
     q_mesh =
               0.00001000     0.04494208     0.09755937     0.15916263
               0.23128650     0.31572767     0.41458969     0.53033537
               0.66584808     0.82450364     1.01025438     1.22772762
               1.48234092     1.78043706     2.12944203     2.53805004
               3.01644009     3.57652955     4.23227104     5.00000000

     Gradients computed in reciprocal space

     ************************************************************************


     Starting wfc are  582 randomized atomic wfcs

     total cpu time spent up to now is      151.4 secs

     Self-consistent Calculation

     iteration #  1     ecut=    50.00 Ry     beta=0.70
     Davidson diagonalization with overlap
     ethr =  1.00E-02,  avg # of iterations =  3.0

     Threshold (ethr) on eigenvalues was too large:
     Diagonalizing with lowered threshold

     Davidson diagonalization with overlap
     ethr =  3.45E-04,  avg # of iterations =  3.7

     negative rho (up, down):  1.727E+00 0.000E+00

     total cpu time spent up to now is      732.9 secs

     total energy              =   -6602.79120992 Ry
     Harris-Foulkes estimate   =   -6605.02444230 Ry
     estimated scf accuracy    <       2.79960287 Ry

     iteration #  2     ecut=    50.00 Ry     beta=0.70
     Davidson diagonalization with overlap
     ethr =  3.93E-04,  avg # of iterations = 11.1

     negative rho (up, down):  1.726E+00 0.000E+00

     total cpu time spent up to now is     1656.1 secs

     total energy              =   -6596.79929815 Ry
     Harris-Foulkes estimate   =   -6610.10461236 Ry
     estimated scf accuracy    <      74.01480042 Ry

     iteration #  3     ecut=    50.00 Ry     beta=0.70
     Davidson diagonalization with overlap
     ethr =  3.93E-04,  avg # of iterations =  6.5

     negative rho (up, down):  1.737E+00 0.000E+00

     total cpu time spent up to now is     2265.6 secs

     total energy              =   -6603.23977428 Ry
     Harris-Foulkes estimate   =   -6604.99047643 Ry
     estimated scf accuracy    <       7.69213885 Ry

     iteration #  4     ecut=    50.00 Ry     beta=0.70
     Davidson diagonalization with overlap
     ethr =  3.93E-04,  avg # of iterations =  6.3

     negative rho (up, down):  1.739E+00 0.000E+00

     total cpu time spent up to now is     2635.9 secs

     total energy              =   -6603.45560352 Ry
     Harris-Foulkes estimate   =   -6605.23991926 Ry
     estimated scf accuracy    <      17.75464840 Ry

     iteration #  5     ecut=    50.00 Ry     beta=0.70
     Davidson diagonalization with overlap
     ethr =  3.93E-04,  avg # of iterations =  6.8

     negative rho (up, down):  1.748E+00 0.000E+00

     total cpu time spent up to now is     2999.9 secs

     total energy              =   -6604.33818750 Ry
     Harris-Foulkes estimate   =   -6604.58676946 Ry
     estimated scf accuracy    <       1.52161743 Ry

     iteration #  6     ecut=    50.00 Ry     beta=0.70
     Davidson diagonalization with overlap
     ethr =  2.14E-04,  avg # of iterations =  3.2

     negative rho (up, down):  1.752E+00 0.000E+00

     total cpu time spent up to now is     3279.6 secs

     total energy              =   -6604.41246982 Ry
     Harris-Foulkes estimate   =   -6604.45964674 Ry
     estimated scf accuracy    <       0.14418817 Ry

     iteration #  7     ecut=    50.00 Ry     beta=0.70
     Davidson diagonalization with overlap
     ethr =  2.03E-05,  avg # of iterations = 12.8

     negative rho (up, down):  1.754E+00 0.000E+00

     total cpu time spent up to now is     3755.8 secs

     total energy              =   -6604.42219293 Ry
     Harris-Foulkes estimate   =   -6604.44737772 Ry
     estimated scf accuracy    <       0.10376840 Ry

     iteration #  8     ecut=    50.00 Ry     beta=0.70
     Davidson diagonalization with overlap
     ethr =  1.46E-05,  avg # of iterations =  3.4

     negative rho (up, down):  1.755E+00 0.000E+00

     total cpu time spent up to now is     4049.1 secs

     total energy              =   -6604.42497717 Ry
     Harris-Foulkes estimate   =   -6604.43779602 Ry
     estimated scf accuracy    <       0.04577945 Ry

     iteration #  9     ecut=    50.00 Ry     beta=0.70
     Davidson diagonalization with overlap
     ethr =  6.43E-06,  avg # of iterations =  6.3

     negative rho (up, down):  1.756E+00 0.000E+00

     total cpu time spent up to now is     4396.2 secs

     total energy              =   -6604.42655401 Ry
     Harris-Foulkes estimate   =   -6604.43161154 Ry
     estimated scf accuracy    <       0.01543300 Ry

     iteration # 10     ecut=    50.00 Ry     beta=0.70
     Davidson diagonalization with overlap
     ethr =  2.17E-06,  avg # of iterations =  6.7

     negative rho (up, down):  1.757E+00 0.000E+00

     total cpu time spent up to now is     4751.5 secs

     total energy              =   -6604.42732695 Ry
     Harris-Foulkes estimate   =   -6604.42910891 Ry
     estimated scf accuracy    <       0.00581495 Ry

     iteration # 11     ecut=    50.00 Ry     beta=0.70
     Davidson diagonalization with overlap
     ethr =  8.17E-07,  avg # of iterations =  3.0

     negative rho (up, down):  1.757E+00 0.000E+00

     total cpu time spent up to now is     5033.7 secs

     total energy              =   -6604.42768173 Ry
     Harris-Foulkes estimate   =   -6604.42837710 Ry
     estimated scf accuracy    <       0.00259271 Ry

     iteration # 12     ecut=    50.00 Ry     beta=0.70
     Davidson diagonalization with overlap
     ethr =  3.64E-07,  avg # of iterations =  2.0

     negative rho (up, down):  1.757E+00 0.000E+00

     total cpu time spent up to now is     5295.8 secs

     total energy              =   -6604.42781976 Ry
     Harris-Foulkes estimate   =   -6604.42803152 Ry
     estimated scf accuracy    <       0.00044656 Ry

     iteration # 13     ecut=    50.00 Ry     beta=0.70
     Davidson diagonalization with overlap
     ethr =  6.27E-08,  avg # of iterations =  4.0

     negative rho (up, down):  1.757E+00 0.000E+00

     total cpu time spent up to now is     5638.1 secs

     total energy              =   -6604.42783308 Ry
     Harris-Foulkes estimate   =   -6604.42800616 Ry
     estimated scf accuracy    <       0.00070440 Ry

     iteration # 14     ecut=    50.00 Ry     beta=0.70
     Davidson diagonalization with overlap
     ethr =  6.27E-08,  avg # of iterations =  2.0

     negative rho (up, down):  1.757E+00 0.000E+00

     total cpu time spent up to now is     5895.8 secs

     total energy              =   -6604.42791322 Ry
     Harris-Foulkes estimate   =   -6604.42793475 Ry
     estimated scf accuracy    <       0.00009013 Ry

     iteration # 15     ecut=    50.00 Ry     beta=0.70
     Davidson diagonalization with overlap
     ethr =  1.27E-08,  avg # of iterations =  2.0

     negative rho (up, down):  1.757E+00 0.000E+00

     total cpu time spent up to now is     6166.7 secs

     total energy              =   -6604.42792272 Ry
     Harris-Foulkes estimate   =   -6604.42793128 Ry
     estimated scf accuracy    <       0.00005889 Ry

     iteration # 16     ecut=    50.00 Ry     beta=0.70
     Davidson diagonalization with overlap
     ethr =  8.27E-09,  avg # of iterations =  2.0

     negative rho (up, down):  1.757E+00 0.000E+00

     total cpu time spent up to now is     6434.7 secs

     total energy              =   -6604.42792618 Ry
     Harris-Foulkes estimate   =   -6604.42792851 Ry
     estimated scf accuracy    <       0.00001194 Ry

     iteration # 17     ecut=    50.00 Ry     beta=0.70
     Davidson diagonalization with overlap
     ethr =  1.68E-09,  avg # of iterations =  2.0

     negative rho (up, down):  1.757E+00 0.000E+00

     total cpu time spent up to now is     6702.0 secs

     total energy              =   -6604.42792705 Ry
     Harris-Foulkes estimate   =   -6604.42792833 Ry
     estimated scf accuracy    <       0.00000606 Ry

     iteration # 18     ecut=    50.00 Ry     beta=0.70
     Davidson diagonalization with overlap
     ethr =  8.52E-10,  avg # of iterations =  2.0

     negative rho (up, down):  1.757E+00 0.000E+00

     total cpu time spent up to now is     6964.7 secs

     total energy              =   -6604.42792746 Ry
     Harris-Foulkes estimate   =   -6604.42792808 Ry
     estimated scf accuracy    <       0.00000257 Ry

     iteration # 19     ecut=    50.00 Ry     beta=0.70
     Davidson diagonalization with overlap
     ethr =  3.61E-10,  avg # of iterations =  2.0

     negative rho (up, down):  1.757E+00 0.000E+00

     total cpu time spent up to now is     7224.7 secs

     total energy              =   -6604.42792778 Ry
     Harris-Foulkes estimate   =   -6604.42792785 Ry
     estimated scf accuracy    <       0.00000029 Ry

     iteration # 20     ecut=    50.00 Ry     beta=0.70
     Davidson diagonalization with overlap
     ethr =  4.13E-11,  avg # of iterations =  3.0

     negative rho (up, down):  1.757E+00 0.000E+00

     total cpu time spent up to now is     7521.0 secs

     total energy              =   -6604.42792784 Ry
     Harris-Foulkes estimate   =   -6604.42792785 Ry
     estimated scf accuracy    <       0.00000007 Ry

     iteration # 21     ecut=    50.00 Ry     beta=0.70
     Davidson diagonalization with overlap
     ethr =  9.60E-12,  avg # of iterations =  2.0

     negative rho (up, down):  1.757E+00 0.000E+00

     total cpu time spent up to now is     7816.0 secs

     total energy              =   -6604.42792784 Ry
     Harris-Foulkes estimate   =   -6604.42792787 Ry
     estimated scf accuracy    <       0.00000015 Ry

     iteration # 22     ecut=    50.00 Ry     beta=0.70
     Davidson diagonalization with overlap
     ethr =  9.60E-12,  avg # of iterations =  2.1

     negative rho (up, down):  1.757E+00 0.000E+00

     total cpu time spent up to now is     8088.7 secs

     End of self-consistent calculation

          k = 0.2500 0.4330 0.1111 (136853 PWs)   bands (ev):

   -19.0830  -6.9658  -6.3233  -5.9249  -5.9240  -5.2476  -4.9137  -4.9134
    -4.8765  -4.8739  -4.5136  -4.5130  -4.4150  -4.4143  -4.4006  -4.3778
    -4.3580  -4.2475  -4.2463  -4.2227  -4.1792  -4.1791  -4.1117  -4.1102
    -4.1050  -4.1040  -4.0820  -4.0773  -4.0756  -4.0100  -4.0044  -3.9744
    -3.9735  -3.9623  -3.9616  -3.9383  -3.9381  -3.9157  -3.9073  -3.9072
    -3.8821  -3.8290  -3.8284  -3.7809  -3.7796  -3.7256  -3.7229  -3.6715
    -3.6671  -3.6661  -3.6659  -3.6304  -3.5979  -3.5944  -3.5853  -3.5838
    -3.5833  -3.5573  -3.5534  -3.5445  -3.4873  -3.4849  -3.4774  -3.4580
    -3.4497  -3.3794  -3.3773  -3.3471  -3.3444  -3.3243  -3.3162  -3.3015
    -3.2915  -3.2519  -3.2265  -3.2096  -3.2081  -3.1877  -3.1560  -3.1525
    -3.1491  -3.1105  -3.0819  -3.0813  -3.0725  -3.0715  -3.0607  -3.0600
    -3.0524  -3.0505  -3.0393  -3.0000  -2.9628  -2.9616  -2.9494  -2.9482
    -2.9208  -2.9135  -2.9127  -2.8890  -2.8454  -2.8446  -2.8364  -2.7985
    -2.7905  -2.7788  -2.7786  -2.7511  -2.7502  -2.7196  -2.6856  -2.6822
    -2.6626  -2.6527  -2.6414  -2.6391  -2.5902  -2.5892  -2.5562  -2.5343
    -2.5324  -2.5100  -2.5078  -2.4977  -2.4970  -2.4869  -2.4659  -2.4652
    -2.4190  -2.4185  -2.4175  -2.4023  -2.4013  -2.3938  -2.3882  -2.3868
    -2.3844  -2.3825  -2.3762  -2.3707  -2.3649  -2.3609  -2.3332  -2.3284
    -2.3270  -2.3263  -2.3248  -2.3226  -2.3212  -2.2956  -2.2927  -2.2784
    -2.2776  -2.2590  -2.2583  -2.2505  -2.2485  -2.2476  -2.2468  -2.2326
    -2.2286  -2.2262  -2.2252  -2.2098  -2.1820  -2.1808  -2.1404  -2.1400
    -2.1178  -2.1172  -2.0922  -2.0874  -2.0619  -2.0613  -2.0449  -2.0396
    -2.0135  -1.9995  -1.9935  -1.9864  -1.9846  -1.9794  -1.9718  -1.9713
    -1.9481  -1.9412  -1.9346  -1.8828  -1.8718  -1.8689  -1.8666  -1.8645
    -1.8375  -1.8096  -1.8088  -1.7828  -1.7802  -1.7236  -1.7224  -1.6921
    -1.6792  -1.6731  -1.6228  -1.6124  -1.6077  -1.6000  -1.5950  -1.5890
    -1.5850  -1.5832  -1.5754  -1.5531  -1.5221  -1.5142  -1.5081  -1.5061
    -1.4943  -1.4883  -1.4676  -1.4533  -1.4382  -1.4367  -1.4346  -1.4301
    -1.4269  -1.4180  -1.4128  -1.3943  -1.3929  -1.3764  -1.3548  -1.3442
    -1.3408  -1.3211  -1.3055  -1.2871  -1.2641  -1.2522  -1.2354  -1.2332
    -1.2035  -1.1929  -1.1539  -1.1493  -1.1487  -1.1458  -1.1428  -1.1351
    -1.1220  -1.1151  -1.0946  -1.0742  -1.0679  -1.0448  -1.0427  -1.0375
    -1.0332  -1.0295  -1.0144  -1.0129  -1.0120  -1.0097  -1.0049  -0.9714
    -0.9693  -0.9688  -0.9531  -0.9385  -0.9364  -0.9286  -0.9061  -0.9019
    -0.8840  -0.8545  -0.8491  -0.8359  -0.8141  -0.8018  -0.7949  -0.7931
    -0.7873  -0.7866  -0.7838  -0.7815  -0.7722  -0.7605  -0.7474  -0.7448
    -0.7413  -0.7405  -0.7378  -0.7032  -0.7030  -0.6944  -0.6830  -0.6737
    -0.6687  -0.6575  -0.6509  -0.6013  -0.6006  -0.5921  -0.5909  -0.5889
    -0.5858  -0.5780  -0.5645  -0.5631  -0.5557  -0.5547  -0.5529  -0.5433
    -0.5139  -0.5111  -0.5110  -0.5030  -0.5023  -0.4971  -0.4947  -0.4819
    -0.4770  -0.4757  -0.4594  -0.4342  -0.4323  -0.4260  -0.4212  -0.4192
    -0.3458  -0.3423  -0.3410  -0.3403  -0.3316  -0.3293  -0.2949  -0.2828
    -0.2827  -0.2536  -0.2502  -0.2288  -0.1285  -0.1204  -0.0233   0.3886
     0.3892   0.3929   0.3947   0.4523   0.4672   0.8396   0.8433   0.8831
     0.8884   1.0002   1.0778   1.1845   1.1934   1.4054   1.4231   2.0374
     2.0429   2.1986   2.2067   2.3322   2.3436   2.4384   2.4394   2.5927
     2.8298   2.8347   2.9548   3.1772   3.1818   3.2592   3.2626   3.3596
     3.3780   3.5695   3.5796   3.6329   3.8345   3.8358   3.8967   3.9001
     4.1530   4.1600   4.1659   4.4028   4.4431   4.4497   4.4904   4.8210
     4.8284   4.8544   4.9902   5.1646   5.1663   5.2084   5.2270   5.4576
     5.7890   5.9192   5.9503   5.9538   5.9610   6.0223   6.0274   6.0959
     6.1309   6.1527   6.1615   6.1868   6.1928   6.2105   6.2273   6.2476
     6.2590   6.4436   6.5701   6.7048   6.7517   6.7747   6.8970   6.9005
     6.9067   7.0155   7.0249

          k = 0.2500-0.1443 0.1111 (136898 PWs)   bands (ev):

   -19.0830  -6.9662  -6.5325  -5.7419  -5.4512  -5.3921  -5.3914  -4.8539
    -4.8531  -4.7228  -4.7213  -4.5668  -4.5386  -4.4737  -4.4428  -4.4405
    -4.4072  -4.4066  -4.2780  -4.2362  -4.2362  -4.1772  -4.1573  -4.1555
    -4.0534  -4.0527  -4.0171  -4.0163  -4.0161  -3.9903  -3.9684  -3.9678
    -3.8659  -3.8609  -3.8607  -3.8412  -3.8243  -3.8231  -3.8121  -3.8113
    -3.7995  -3.7691  -3.7680  -3.7672  -3.7664  -3.7365  -3.7355  -3.7174
    -3.7163  -3.7067  -3.6684  -3.6628  -3.6299  -3.6172  -3.6151  -3.6080
    -3.6079  -3.5346  -3.5336  -3.5009  -3.5002  -3.4968  -3.4289  -3.4279
    -3.4174  -3.4124  -3.3862  -3.3836  -3.3826  -3.3816  -3.2439  -3.2265
    -3.2208  -3.2039  -3.1990  -3.1971  -3.1807  -3.1751  -3.1556  -3.1482
    -3.1048  -3.1035  -3.0892  -3.0868  -3.0679  -3.0215  -3.0183  -3.0014
    -2.9959  -2.9940  -2.9548  -2.9539  -2.9466  -2.9453  -2.9315  -2.9269
    -2.8919  -2.8911  -2.8712  -2.8692  -2.8663  -2.8647  -2.8618  -2.7874
    -2.7861  -2.7840  -2.7554  -2.7540  -2.6968  -2.6920  -2.6648  -2.6640
    -2.6524  -2.6507  -2.6440  -2.6168  -2.6152  -2.6049  -2.5886  -2.5647
    -2.5643  -2.5603  -2.5428  -2.5415  -2.5324  -2.5310  -2.5283  -2.5250
    -2.5168  -2.4711  -2.4416  -2.4404  -2.4253  -2.4113  -2.4056  -2.4038
    -2.3974  -2.3952  -2.3933  -2.3670  -2.3657  -2.3641  -2.3546  -2.3541
    -2.3387  -2.3120  -2.3105  -2.3099  -2.3090  -2.3077  -2.2615  -2.2338
    -2.2317  -2.2299  -2.2245  -2.2140  -2.2086  -2.2035  -2.1849  -2.1846
    -2.1558  -2.1513  -2.1500  -2.1381  -2.1320  -2.1315  -2.1023  -2.0982
    -2.0604  -2.0534  -2.0516  -2.0488  -2.0469  -2.0445  -2.0408  -2.0378
    -2.0357  -2.0340  -2.0299  -2.0160  -2.0136  -1.9049  -1.8878  -1.8646
    -1.8530  -1.8476  -1.8413  -1.8401  -1.8304  -1.8258  -1.8237  -1.8202
    -1.8181  -1.8029  -1.7951  -1.7901  -1.7876  -1.7759  -1.7753  -1.7557
    -1.7525  -1.7274  -1.7240  -1.6972  -1.6936  -1.6813  -1.6748  -1.6559
    -1.6541  -1.6518  -1.6351  -1.6259  -1.6209  -1.6162  -1.6138  -1.5924
    -1.5880  -1.5800  -1.5718  -1.5501  -1.5378  -1.5305  -1.4868  -1.4799
    -1.4710  -1.4643  -1.4618  -1.4371  -1.4357  -1.4121  -1.4033  -1.4009
    -1.3868  -1.3635  -1.3587  -1.3418  -1.3402  -1.3305  -1.3164  -1.3143
    -1.2851  -1.2829  -1.2809  -1.2306  -1.2183  -1.2155  -1.2062  -1.1918
    -1.1897  -1.1789  -1.1761  -1.1645  -1.1572  -1.1447  -1.1178  -1.1159
    -1.1020  -1.0713  -1.0677  -1.0581  -1.0548  -1.0542  -1.0518  -1.0480
    -1.0326  -1.0296  -1.0058  -1.0042  -0.9934  -0.9907  -0.9892  -0.9694
    -0.9663  -0.9489  -0.9337  -0.9270  -0.8948  -0.8317  -0.8215  -0.8159
    -0.8153  -0.8100  -0.8058  -0.7974  -0.7821  -0.7713  -0.7659  -0.7561
    -0.7505  -0.7439  -0.7408  -0.7219  -0.7195  -0.7106  -0.6943  -0.6371
    -0.6366  -0.6049  -0.5995  -0.5968  -0.5938  -0.5900  -0.5892  -0.5840
    -0.5770  -0.5729  -0.5432  -0.5342  -0.5172  -0.5028  -0.4981  -0.4909
    -0.4871  -0.4787  -0.4768  -0.4751  -0.4741  -0.4698  -0.4569  -0.4526
    -0.4493  -0.4221  -0.4203  -0.4196  -0.4071  -0.4066  -0.3876  -0.3562
    -0.3552  -0.3468  -0.3450  -0.2786  -0.2785  -0.2424  -0.2422  -0.1846
    -0.1843  -0.1826  -0.1588  -0.1577   0.0685   0.0883   0.4178   0.4182
     0.5053   0.5228   0.7040   0.7297   0.7403   0.8631   0.8705   1.2982
     1.2992   1.3151   1.5775   1.6078   1.6107   1.8784   1.8974   1.9624
     1.9655   1.9860   2.0026   2.2179   2.2233   2.3087   2.3104   2.3820
     2.4426   2.4637   2.6122   2.7134   3.1453   3.1497   3.1528   3.1614
     3.2059   3.2146   3.5014   3.5037   3.7763   3.7915   3.8889   4.1980
     4.2333   4.2445   4.4339   4.4788   4.5400   4.5414   4.6334   4.7482
     4.7516   4.8666   4.8695   5.1698   5.2257   5.2389   5.3186   5.4243
     5.4441   5.6213   5.6326   5.6558   5.6575   5.7140   5.7193   5.7680
     5.8598   6.0552   6.2646   6.3226   6.3478   6.4559   6.4625   6.4718
     6.4774   6.5413   6.6592   6.6986   6.7213   6.8360   6.9115   6.9277
     6.9725   7.0421   7.0728

          k =-0.2500-0.4330 0.1111 (136853 PWs)   bands (ev):

   -19.0830  -6.9658  -6.3233  -5.9249  -5.9240  -5.2476  -4.9137  -4.9134
    -4.8765  -4.8739  -4.5136  -4.5130  -4.4150  -4.4143  -4.4006  -4.3778
    -4.3580  -4.2475  -4.2463  -4.2227  -4.1792  -4.1791  -4.1117  -4.1102
    -4.1050  -4.1040  -4.0820  -4.0773  -4.0756  -4.0100  -4.0044  -3.9744
    -3.9735  -3.9623  -3.9616  -3.9383  -3.9381  -3.9157  -3.9073  -3.9072
    -3.8821  -3.8290  -3.8284  -3.7809  -3.7796  -3.7256  -3.7229  -3.6715
    -3.6671  -3.6661  -3.6659  -3.6304  -3.5979  -3.5944  -3.5853  -3.5838
    -3.5833  -3.5573  -3.5534  -3.5445  -3.4873  -3.4849  -3.4774  -3.4580
    -3.4497  -3.3794  -3.3773  -3.3471  -3.3444  -3.3243  -3.3162  -3.3015
    -3.2915  -3.2519  -3.2265  -3.2096  -3.2081  -3.1877  -3.1560  -3.1525
    -3.1491  -3.1105  -3.0819  -3.0813  -3.0725  -3.0715  -3.0607  -3.0600
    -3.0524  -3.0505  -3.0393  -3.0000  -2.9628  -2.9616  -2.9494  -2.9482
    -2.9208  -2.9135  -2.9127  -2.8890  -2.8454  -2.8446  -2.8364  -2.7985
    -2.7905  -2.7788  -2.7786  -2.7511  -2.7502  -2.7196  -2.6856  -2.6822
    -2.6626  -2.6527  -2.6414  -2.6391  -2.5902  -2.5892  -2.5562  -2.5343
    -2.5324  -2.5100  -2.5078  -2.4977  -2.4970  -2.4869  -2.4659  -2.4652
    -2.4190  -2.4185  -2.4175  -2.4023  -2.4013  -2.3938  -2.3882  -2.3868
    -2.3844  -2.3825  -2.3762  -2.3707  -2.3649  -2.3609  -2.3332  -2.3284
    -2.3270  -2.3263  -2.3248  -2.3226  -2.3212  -2.2956  -2.2927  -2.2784
    -2.2776  -2.2590  -2.2583  -2.2505  -2.2485  -2.2476  -2.2468  -2.2326
    -2.2286  -2.2262  -2.2252  -2.2098  -2.1820  -2.1808  -2.1404  -2.1400
    -2.1178  -2.1172  -2.0922  -2.0874  -2.0619  -2.0613  -2.0449  -2.0396
    -2.0135  -1.9995  -1.9935  -1.9864  -1.9846  -1.9794  -1.9718  -1.9713
    -1.9481  -1.9412  -1.9346  -1.8828  -1.8718  -1.8689  -1.8666  -1.8645
    -1.8375  -1.8096  -1.8088  -1.7828  -1.7802  -1.7236  -1.7224  -1.6921
    -1.6792  -1.6731  -1.6228  -1.6124  -1.6077  -1.6000  -1.5950  -1.5890
    -1.5850  -1.5832  -1.5754  -1.5531  -1.5221  -1.5142  -1.5081  -1.5061
    -1.4943  -1.4883  -1.4676  -1.4533  -1.4382  -1.4367  -1.4346  -1.4301
    -1.4269  -1.4180  -1.4128  -1.3943  -1.3929  -1.3764  -1.3548  -1.3442
    -1.3408  -1.3211  -1.3055  -1.2871  -1.2641  -1.2522  -1.2354  -1.2332
    -1.2035  -1.1929  -1.1539  -1.1493  -1.1487  -1.1458  -1.1428  -1.1351
    -1.1220  -1.1151  -1.0946  -1.0742  -1.0679  -1.0448  -1.0427  -1.0375
    -1.0332  -1.0295  -1.0144  -1.0129  -1.0120  -1.0097  -1.0049  -0.9714
    -0.9693  -0.9688  -0.9531  -0.9385  -0.9364  -0.9286  -0.9061  -0.9019
    -0.8840  -0.8545  -0.8491  -0.8359  -0.8141  -0.8018  -0.7949  -0.7931
    -0.7873  -0.7866  -0.7838  -0.7815  -0.7722  -0.7605  -0.7474  -0.7448
    -0.7413  -0.7405  -0.7378  -0.7032  -0.7030  -0.6944  -0.6830  -0.6737
    -0.6687  -0.6575  -0.6509  -0.6013  -0.6006  -0.5921  -0.5909  -0.5889
    -0.5858  -0.5780  -0.5645  -0.5631  -0.5557  -0.5547  -0.5529  -0.5433
    -0.5139  -0.5111  -0.5110  -0.5030  -0.5023  -0.4971  -0.4947  -0.4819
    -0.4770  -0.4757  -0.4594  -0.4342  -0.4323  -0.4260  -0.4212  -0.4192
    -0.3458  -0.3423  -0.3410  -0.3403  -0.3316  -0.3293  -0.2949  -0.2828
    -0.2827  -0.2536  -0.2502  -0.2288  -0.1285  -0.1204  -0.0233   0.3886
     0.3892   0.3929   0.3947   0.4523   0.4672   0.8396   0.8433   0.8831
     0.8884   1.0002   1.0778   1.1845   1.1934   1.4054   1.4231   2.0374
     2.0429   2.1986   2.2067   2.3322   2.3436   2.4384   2.4394   2.5927
     2.8298   2.8347   2.9548   3.1772   3.1818   3.2592   3.2626   3.3596
     3.3780   3.5695   3.5796   3.6329   3.8345   3.8358   3.8967   3.9001
     4.1530   4.1600   4.1659   4.4028   4.4431   4.4497   4.4904   4.8210
     4.8284   4.8544   4.9902   5.1646   5.1663   5.2084   5.2270   5.4577
     5.7886   5.9192   5.9503   5.9536   5.9610   6.0223   6.0274   6.0954
     6.1312   6.1555   6.1614   6.1868   6.1929   6.2104   6.2266   6.2476
     6.2589   6.4433   6.5711   6.6988   6.7506   6.7744   6.8968   6.9002
     6.9061   7.0152   7.0368

          k =-0.2500 0.4330-0.1111 (136853 PWs)   bands (ev):

   -19.0830  -6.9657  -6.3233  -5.9260  -5.9229  -5.2477  -4.9146  -4.9124
    -4.8771  -4.8733  -4.5139  -4.5126  -4.4150  -4.4142  -4.4005  -4.3778
    -4.3577  -4.2486  -4.2455  -4.2228  -4.1796  -4.1787  -4.1118  -4.1101
    -4.1052  -4.1038  -4.0820  -4.0778  -4.0753  -4.0103  -4.0041  -3.9748
    -3.9725  -3.9622  -3.9614  -3.9384  -3.9382  -3.9156  -3.9077  -3.9071
    -3.8822  -3.8295  -3.8282  -3.7815  -3.7788  -3.7251  -3.7233  -3.6707
    -3.6676  -3.6660  -3.6657  -3.6307  -3.5981  -3.5942  -3.5850  -3.5847
    -3.5829  -3.5581  -3.5531  -3.5448  -3.4874  -3.4845  -3.4784  -3.4575
    -3.4492  -3.3817  -3.3773  -3.3489  -3.3441  -3.3211  -3.3154  -3.3014
    -3.2897  -3.2495  -3.2271  -3.2107  -3.2080  -3.1906  -3.1556  -3.1532
    -3.1488  -3.1107  -3.0827  -3.0812  -3.0735  -3.0695  -3.0620  -3.0604
    -3.0519  -3.0486  -3.0400  -3.0000  -2.9631  -2.9614  -2.9494  -2.9475
    -2.9209  -2.9146  -2.9117  -2.8889  -2.8460  -2.8439  -2.8369  -2.7982
    -2.7904  -2.7797  -2.7776  -2.7530  -2.7491  -2.7196  -2.6842  -2.6830
    -2.6625  -2.6527  -2.6410  -2.6391  -2.5913  -2.5886  -2.5563  -2.5336
    -2.5327  -2.5118  -2.5076  -2.4980  -2.4960  -2.4868  -2.4665  -2.4648
    -2.4189  -2.4181  -2.4176  -2.4032  -2.4005  -2.3939  -2.3878  -2.3861
    -2.3850  -2.3825  -2.3761  -2.3701  -2.3642  -2.3600  -2.3334  -2.3281
    -2.3273  -2.3265  -2.3247  -2.3228  -2.3210  -2.2972  -2.2929  -2.2791
    -2.2775  -2.2593  -2.2581  -2.2520  -2.2485  -2.2481  -2.2463  -2.2324
    -2.2289  -2.2251  -2.2250  -2.2100  -2.1821  -2.1813  -2.1414  -2.1389
    -2.1190  -2.1162  -2.0885  -2.0882  -2.0659  -2.0610  -2.0465  -2.0397
    -2.0133  -2.0011  -1.9931  -1.9861  -1.9840  -1.9798  -1.9736  -1.9715
    -1.9480  -1.9398  -1.9344  -1.8790  -1.8730  -1.8685  -1.8661  -1.8652
    -1.8344  -1.8101  -1.8082  -1.7833  -1.7806  -1.7240  -1.7216  -1.6940
    -1.6773  -1.6736  -1.6257  -1.6128  -1.6052  -1.6001  -1.5935  -1.5886
    -1.5861  -1.5837  -1.5752  -1.5544  -1.5210  -1.5117  -1.5075  -1.5065
    -1.4989  -1.4883  -1.4666  -1.4529  -1.4406  -1.4369  -1.4356  -1.4291
    -1.4265  -1.4165  -1.4115  -1.3949  -1.3927  -1.3775  -1.3563  -1.3470
    -1.3400  -1.3218  -1.3051  -1.2773  -1.2644  -1.2487  -1.2353  -1.2329
    -1.2037  -1.1984  -1.1529  -1.1502  -1.1490  -1.1444  -1.1429  -1.1343
    -1.1279  -1.1138  -1.0899  -1.0764  -1.0708  -1.0449  -1.0429  -1.0378
    -1.0335  -1.0295  -1.0142  -1.0133  -1.0116  -1.0100  -1.0015  -0.9729
    -0.9700  -0.9679  -0.9537  -0.9388  -0.9367  -0.9333  -0.9064  -0.9013
    -0.8811  -0.8548  -0.8489  -0.8338  -0.8135  -0.8023  -0.7951  -0.7937
    -0.7880  -0.7859  -0.7847  -0.7792  -0.7730  -0.7592  -0.7478  -0.7460
    -0.7424  -0.7419  -0.7346  -0.7035  -0.7021  -0.6941  -0.6843  -0.6741
    -0.6693  -0.6573  -0.6407  -0.6015  -0.6001  -0.5922  -0.5902  -0.5897
    -0.5862  -0.5792  -0.5656  -0.5609  -0.5560  -0.5537  -0.5527  -0.5458
    -0.5137  -0.5129  -0.5086  -0.5035  -0.5010  -0.4962  -0.4954  -0.4806
    -0.4767  -0.4759  -0.4617  -0.4339  -0.4331  -0.4261  -0.4215  -0.4196
    -0.3468  -0.3421  -0.3411  -0.3389  -0.3318  -0.3303  -0.2952  -0.2838
    -0.2820  -0.2548  -0.2502  -0.2267  -0.1313  -0.1233  -0.0256   0.3886
     0.3899   0.3927   0.3947   0.4511   0.4673   0.8401   0.8448   0.8831
     0.8878   1.0014   1.0774   1.1809   1.1968   1.4020   1.4254   2.0365
     2.0449   2.1953   2.2103   2.3286   2.3453   2.4381   2.4396   2.5929
     2.8255   2.8415   2.9547   3.1728   3.1862   3.2589   3.2636   3.3621
     3.3781   3.5610   3.5871   3.6338   3.8333   3.8369   3.8926   3.9031
     4.1512   4.1559   4.1727   4.4032   4.4399   4.4506   4.4908   4.8213
     4.8291   4.8538   4.9865   5.1638   5.1673   5.1932   5.2365   5.4607
     5.8030   5.9143   5.9423   5.9543   5.9632   6.0209   6.0284   6.1031
     6.1343   6.1467   6.1619   6.1910   6.1991   6.2029   6.2259   6.2463
     6.2653   6.4459   6.5544   6.7025   6.7495   6.7660   6.8865   6.9025
     6.9070   7.0144   7.0505

          k = 0.2500-0.4330-0.1111 (136853 PWs)   bands (ev):

   -19.0830  -6.9657  -6.3233  -5.9260  -5.9229  -5.2477  -4.9146  -4.9124
    -4.8771  -4.8733  -4.5139  -4.5126  -4.4150  -4.4142  -4.4005  -4.3778
    -4.3577  -4.2486  -4.2455  -4.2228  -4.1796  -4.1787  -4.1118  -4.1101
    -4.1052  -4.1038  -4.0820  -4.0778  -4.0753  -4.0103  -4.0041  -3.9748
    -3.9725  -3.9622  -3.9614  -3.9384  -3.9382  -3.9156  -3.9077  -3.9071
    -3.8822  -3.8295  -3.8282  -3.7815  -3.7788  -3.7251  -3.7233  -3.6707
    -3.6676  -3.6660  -3.6657  -3.6307  -3.5981  -3.5942  -3.5850  -3.5847
    -3.5829  -3.5581  -3.5531  -3.5448  -3.4874  -3.4845  -3.4784  -3.4575
    -3.4492  -3.3817  -3.3773  -3.3489  -3.3441  -3.3211  -3.3154  -3.3014
    -3.2897  -3.2495  -3.2271  -3.2107  -3.2080  -3.1906  -3.1556  -3.1532
    -3.1488  -3.1107  -3.0827  -3.0812  -3.0735  -3.0695  -3.0620  -3.0604
    -3.0519  -3.0486  -3.0400  -3.0000  -2.9631  -2.9614  -2.9494  -2.9475
    -2.9209  -2.9146  -2.9117  -2.8889  -2.8460  -2.8439  -2.8369  -2.7982
    -2.7904  -2.7797  -2.7776  -2.7530  -2.7491  -2.7196  -2.6842  -2.6830
    -2.6625  -2.6527  -2.6410  -2.6391  -2.5913  -2.5886  -2.5563  -2.5336
    -2.5327  -2.5118  -2.5076  -2.4980  -2.4960  -2.4868  -2.4665  -2.4648
    -2.4189  -2.4181  -2.4176  -2.4032  -2.4005  -2.3939  -2.3878  -2.3861
    -2.3850  -2.3825  -2.3761  -2.3701  -2.3642  -2.3600  -2.3334  -2.3281
    -2.3273  -2.3265  -2.3247  -2.3228  -2.3210  -2.2972  -2.2929  -2.2791
    -2.2775  -2.2593  -2.2581  -2.2520  -2.2485  -2.2481  -2.2463  -2.2324
    -2.2289  -2.2251  -2.2250  -2.2100  -2.1821  -2.1813  -2.1414  -2.1389
    -2.1190  -2.1162  -2.0885  -2.0882  -2.0659  -2.0610  -2.0465  -2.0397
    -2.0133  -2.0011  -1.9931  -1.9861  -1.9840  -1.9798  -1.9736  -1.9715
    -1.9480  -1.9398  -1.9344  -1.8790  -1.8730  -1.8685  -1.8661  -1.8652
    -1.8344  -1.8101  -1.8082  -1.7833  -1.7806  -1.7240  -1.7216  -1.6940
    -1.6773  -1.6735  -1.6257  -1.6128  -1.6052  -1.6001  -1.5935  -1.5886
    -1.5861  -1.5837  -1.5752  -1.5544  -1.5210  -1.5117  -1.5075  -1.5065
    -1.4989  -1.4883  -1.4666  -1.4529  -1.4406  -1.4369  -1.4356  -1.4291
    -1.4265  -1.4165  -1.4115  -1.3949  -1.3927  -1.3775  -1.3563  -1.3470
    -1.3400  -1.3218  -1.3051  -1.2773  -1.2644  -1.2487  -1.2353  -1.2329
    -1.2037  -1.1984  -1.1529  -1.1502  -1.1490  -1.1444  -1.1429  -1.1343
    -1.1279  -1.1138  -1.0899  -1.0764  -1.0709  -1.0449  -1.0429  -1.0378
    -1.0335  -1.0295  -1.0142  -1.0133  -1.0116  -1.0100  -1.0015  -0.9729
    -0.9700  -0.9679  -0.9537  -0.9388  -0.9367  -0.9333  -0.9064  -0.9013
    -0.8811  -0.8548  -0.8489  -0.8338  -0.8135  -0.8023  -0.7951  -0.7937
    -0.7880  -0.7859  -0.7847  -0.7792  -0.7730  -0.7592  -0.7478  -0.7460
    -0.7424  -0.7419  -0.7346  -0.7035  -0.7021  -0.6941  -0.6843  -0.6741
    -0.6693  -0.6573  -0.6407  -0.6015  -0.6001  -0.5922  -0.5902  -0.5897
    -0.5862  -0.5792  -0.5656  -0.5609  -0.5560  -0.5537  -0.5527  -0.5458
    -0.5137  -0.5129  -0.5086  -0.5035  -0.5010  -0.4962  -0.4954  -0.4806
    -0.4767  -0.4759  -0.4617  -0.4339  -0.4331  -0.4261  -0.4215  -0.4196
    -0.3468  -0.3421  -0.3411  -0.3389  -0.3318  -0.3303  -0.2952  -0.2838
    -0.2820  -0.2548  -0.2502  -0.2267  -0.1313  -0.1233  -0.0256   0.3886
     0.3899   0.3927   0.3947   0.4511   0.4673   0.8401   0.8448   0.8831
     0.8878   1.0014   1.0774   1.1809   1.1968   1.4020   1.4254   2.0365
     2.0449   2.1953   2.2103   2.3286   2.3453   2.4381   2.4396   2.5929
     2.8255   2.8415   2.9547   3.1728   3.1862   3.2589   3.2636   3.3621
     3.3781   3.5610   3.5871   3.6338   3.8333   3.8369   3.8926   3.9031
     4.1512   4.1559   4.1727   4.4032   4.4399   4.4506   4.4908   4.8213
     4.8291   4.8538   4.9865   5.1638   5.1673   5.1933   5.2365   5.4607
     5.8031   5.9143   5.9423   5.9543   5.9632   6.0210   6.0284   6.1035
     6.1342   6.1462   6.1613   6.1909   6.1984   6.2025   6.2262   6.2464
     6.2655   6.4462   6.5538   6.7100   6.7523   6.7645   6.8873   6.9035
     6.9071   7.0165   7.0318

          k = 0.5000 0.0000 0.1111 (136853 PWs)   bands (ev):

   -19.0830  -6.9658  -6.3232  -5.9265  -5.9225  -5.2475  -4.9140  -4.9134
    -4.8786  -4.8719  -4.5140  -4.5122  -4.4148  -4.4143  -4.4002  -4.3778
    -4.3577  -4.2487  -4.2461  -4.2232  -4.1793  -4.1789  -4.1117  -4.1097
    -4.1063  -4.1042  -4.0819  -4.0780  -4.0750  -4.0113  -4.0032  -3.9749
    -3.9727  -3.9620  -3.9614  -3.9385  -3.9380  -3.9156  -3.9076  -3.9072
    -3.8817  -3.8290  -3.8285  -3.7814  -3.7789  -3.7237  -3.7233  -3.6691
    -3.6672  -3.6661  -3.6658  -3.6308  -3.5966  -3.5944  -3.5857  -3.5844
    -3.5833  -3.5616  -3.5539  -3.5448  -3.4868  -3.4848  -3.4814  -3.4567
    -3.4492  -3.3839  -3.3776  -3.3524  -3.3428  -3.3175  -3.3155  -3.3013
    -3.2858  -3.2429  -3.2274  -3.2148  -3.2080  -3.1909  -3.1566  -3.1521
    -3.1496  -3.1116  -3.0845  -3.0798  -3.0728  -3.0695  -3.0621  -3.0605
    -3.0511  -3.0479  -3.0413  -3.0007  -2.9639  -2.9608  -2.9490  -2.9477
    -2.9210  -2.9138  -2.9118  -2.8887  -2.8463  -2.8437  -2.8362  -2.7984
    -2.7905  -2.7793  -2.7779  -2.7534  -2.7479  -2.7196  -2.6851  -2.6826
    -2.6627  -2.6528  -2.6413  -2.6389  -2.5904  -2.5892  -2.5560  -2.5338
    -2.5327  -2.5115  -2.5083  -2.4983  -2.4951  -2.4868  -2.4665  -2.4646
    -2.4201  -2.4183  -2.4171  -2.4025  -2.4011  -2.3939  -2.3879  -2.3871
    -2.3841  -2.3826  -2.3762  -2.3695  -2.3644  -2.3616  -2.3338  -2.3284
    -2.3270  -2.3266  -2.3247  -2.3234  -2.3208  -2.2969  -2.2928  -2.2801
    -2.2766  -2.2594  -2.2584  -2.2516  -2.2486  -2.2480  -2.2456  -2.2318
    -2.2299  -2.2251  -2.2245  -2.2106  -2.1823  -2.1814  -2.1408  -2.1395
    -2.1178  -2.1171  -2.0898  -2.0877  -2.0648  -2.0609  -2.0467  -2.0394
    -2.0128  -2.0033  -1.9927  -1.9856  -1.9834  -1.9777  -1.9727  -1.9698
    -1.9478  -1.9403  -1.9340  -1.8802  -1.8723  -1.8693  -1.8680  -1.8654
    -1.8351  -1.8105  -1.8080  -1.7828  -1.7818  -1.7244  -1.7215  -1.6946
    -1.6783  -1.6710  -1.6242  -1.6135  -1.6068  -1.5990  -1.5934  -1.5896
    -1.5847  -1.5833  -1.5752  -1.5525  -1.5216  -1.5124  -1.5101  -1.5069
    -1.4980  -1.4873  -1.4663  -1.4545  -1.4426  -1.4357  -1.4346  -1.4290
    -1.4266  -1.4175  -1.4126  -1.3947  -1.3926  -1.3777  -1.3540  -1.3454
    -1.3398  -1.3215  -1.3051  -1.2799  -1.2663  -1.2502  -1.2353  -1.2340
    -1.2032  -1.1947  -1.1544  -1.1500  -1.1483  -1.1449  -1.1425  -1.1332
    -1.1258  -1.1164  -1.0913  -1.0764  -1.0702  -1.0457  -1.0423  -1.0372
    -1.0329  -1.0302  -1.0165  -1.0131  -1.0123  -1.0083  -1.0008  -0.9721
    -0.9692  -0.9682  -0.9548  -0.9397  -0.9355  -0.9265  -0.9064  -0.9014
    -0.8876  -0.8564  -0.8494  -0.8335  -0.8136  -0.8027  -0.7952  -0.7933
    -0.7874  -0.7864  -0.7839  -0.7786  -0.7720  -0.7591  -0.7470  -0.7459
    -0.7423  -0.7404  -0.7359  -0.7034  -0.7026  -0.6938  -0.6846  -0.6729
    -0.6689  -0.6575  -0.6446  -0.6010  -0.6001  -0.5920  -0.5913  -0.5891
    -0.5848  -0.5814  -0.5658  -0.5613  -0.5558  -0.5547  -0.5533  -0.5439
    -0.5135  -0.5119  -0.5104  -0.5034  -0.5011  -0.4969  -0.4949  -0.4806
    -0.4769  -0.4755  -0.4627  -0.4351  -0.4318  -0.4261  -0.4206  -0.4192
    -0.3462  -0.3421  -0.3406  -0.3399  -0.3315  -0.3308  -0.2952  -0.2833
    -0.2823  -0.2537  -0.2501  -0.2290  -0.1300  -0.1207  -0.0239   0.3888
     0.3899   0.3924   0.3946   0.4517   0.4667   0.8414   0.8430   0.8825
     0.8877   1.0014   1.0778   1.1816   1.1966   1.4007   1.4268   2.0372
     2.0439   2.1965   2.2087   2.3279   2.3466   2.4380   2.4398   2.5927
     2.8304   2.8366   2.9547   3.1723   3.1866   3.2591   3.2634   3.3607
     3.3780   3.5535   3.5926   3.6340   3.8334   3.8369   3.8928   3.9053
     4.1513   4.1573   4.1696   4.4034   4.4404   4.4502   4.4908   4.8209
     4.8291   4.8531   4.9876   5.1626   5.1677   5.1786   5.2497   5.4761
     5.7752   5.9353   5.9468   5.9533   5.9645   6.0223   6.0274   6.1026
     6.1231   6.1428   6.1625   6.1859   6.1952   6.2058   6.2278   6.2505
     6.2620   6.4383   6.5779   6.6924   6.7441   6.7961   6.8889   6.9051
     6.9073   7.0177   7.0273

          k =-0.5000 0.0000 0.1111 (136853 PWs)   bands (ev):

   -19.0830  -6.9658  -6.3232  -5.9265  -5.9225  -5.2475  -4.9140  -4.9134
    -4.8786  -4.8719  -4.5140  -4.5122  -4.4148  -4.4143  -4.4002  -4.3778
    -4.3577  -4.2487  -4.2461  -4.2232  -4.1793  -4.1789  -4.1117  -4.1097
    -4.1063  -4.1042  -4.0819  -4.0780  -4.0750  -4.0113  -4.0032  -3.9749
    -3.9727  -3.9620  -3.9614  -3.9385  -3.9380  -3.9156  -3.9076  -3.9072
    -3.8817  -3.8290  -3.8285  -3.7814  -3.7789  -3.7237  -3.7233  -3.6691
    -3.6672  -3.6661  -3.6658  -3.6308  -3.5966  -3.5944  -3.5857  -3.5844
    -3.5833  -3.5616  -3.5539  -3.5448  -3.4868  -3.4848  -3.4814  -3.4567
    -3.4492  -3.3839  -3.3776  -3.3524  -3.3428  -3.3175  -3.3155  -3.3013
    -3.2858  -3.2429  -3.2274  -3.2148  -3.2080  -3.1909  -3.1566  -3.1521
    -3.1496  -3.1116  -3.0845  -3.0798  -3.0728  -3.0695  -3.0621  -3.0605
    -3.0511  -3.0479  -3.0413  -3.0007  -2.9639  -2.9608  -2.9490  -2.9477
    -2.9210  -2.9138  -2.9118  -2.8887  -2.8463  -2.8437  -2.8362  -2.7984
    -2.7905  -2.7793  -2.7779  -2.7534  -2.7479  -2.7196  -2.6851  -2.6826
    -2.6627  -2.6528  -2.6413  -2.6389  -2.5904  -2.5892  -2.5560  -2.5338
    -2.5327  -2.5115  -2.5083  -2.4983  -2.4951  -2.4868  -2.4665  -2.4646
    -2.4201  -2.4183  -2.4171  -2.4025  -2.4011  -2.3939  -2.3879  -2.3871
    -2.3841  -2.3826  -2.3762  -2.3695  -2.3644  -2.3616  -2.3338  -2.3284
    -2.3270  -2.3266  -2.3247  -2.3234  -2.3208  -2.2969  -2.2928  -2.2801
    -2.2766  -2.2594  -2.2584  -2.2516  -2.2486  -2.2480  -2.2456  -2.2318
    -2.2299  -2.2251  -2.2245  -2.2106  -2.1823  -2.1814  -2.1408  -2.1395
    -2.1178  -2.1171  -2.0898  -2.0877  -2.0648  -2.0609  -2.0467  -2.0394
    -2.0128  -2.0033  -1.9927  -1.9856  -1.9834  -1.9777  -1.9727  -1.9698
    -1.9478  -1.9403  -1.9340  -1.8802  -1.8723  -1.8693  -1.8680  -1.8654
    -1.8351  -1.8105  -1.8080  -1.7828  -1.7818  -1.7244  -1.7215  -1.6946
    -1.6783  -1.6710  -1.6242  -1.6135  -1.6068  -1.5990  -1.5934  -1.5896
    -1.5847  -1.5833  -1.5752  -1.5525  -1.5216  -1.5124  -1.5101  -1.5069
    -1.4980  -1.4873  -1.4663  -1.4545  -1.4426  -1.4357  -1.4346  -1.4290
    -1.4266  -1.4175  -1.4126  -1.3947  -1.3926  -1.3777  -1.3540  -1.3454
    -1.3398  -1.3215  -1.3051  -1.2799  -1.2663  -1.2502  -1.2353  -1.2340
    -1.2032  -1.1947  -1.1544  -1.1500  -1.1483  -1.1449  -1.1425  -1.1332
    -1.1258  -1.1164  -1.0913  -1.0764  -1.0702  -1.0457  -1.0423  -1.0372
    -1.0329  -1.0302  -1.0165  -1.0131  -1.0123  -1.0083  -1.0008  -0.9721
    -0.9692  -0.9682  -0.9548  -0.9397  -0.9355  -0.9265  -0.9064  -0.9014
    -0.8876  -0.8564  -0.8494  -0.8335  -0.8136  -0.8027  -0.7952  -0.7933
    -0.7874  -0.7864  -0.7839  -0.7786  -0.7720  -0.7591  -0.7470  -0.7459
    -0.7423  -0.7404  -0.7359  -0.7034  -0.7026  -0.6938  -0.6846  -0.6729
    -0.6689  -0.6575  -0.6446  -0.6010  -0.6001  -0.5920  -0.5913  -0.5891
    -0.5848  -0.5814  -0.5658  -0.5613  -0.5558  -0.5547  -0.5533  -0.5439
    -0.5135  -0.5119  -0.5104  -0.5034  -0.5011  -0.4969  -0.4949  -0.4806
    -0.4769  -0.4755  -0.4627  -0.4351  -0.4318  -0.4261  -0.4206  -0.4192
    -0.3462  -0.3421  -0.3406  -0.3399  -0.3315  -0.3308  -0.2952  -0.2833
    -0.2823  -0.2537  -0.2501  -0.2290  -0.1300  -0.1207  -0.0239   0.3888
     0.3899   0.3924   0.3946   0.4517   0.4667   0.8414   0.8430   0.8825
     0.8877   1.0014   1.0778   1.1816   1.1966   1.4007   1.4268   2.0372
     2.0439   2.1965   2.2087   2.3279   2.3466   2.4380   2.4398   2.5927
     2.8304   2.8366   2.9547   3.1723   3.1866   3.2591   3.2634   3.3607
     3.3780   3.5535   3.5926   3.6340   3.8334   3.8369   3.8928   3.9053
     4.1513   4.1573   4.1696   4.4034   4.4404   4.4502   4.4908   4.8209
     4.8291   4.8531   4.9876   5.1626   5.1677   5.1786   5.2497   5.4762
     5.7749   5.9353   5.9468   5.9532   5.9645   6.0222   6.0274   6.1025
     6.1247   6.1419   6.1625   6.1858   6.1952   6.2053   6.2278   6.2505
     6.2619   6.4390   6.5777   6.6907   6.7450   6.7991   6.8890   6.9049
     6.9082   7.0174   7.0278

          k =-0.2500 0.1443 0.1111 (136898 PWs)   bands (ev):

   -19.0830  -6.9662  -6.5325  -5.7419  -5.4512  -5.3921  -5.3914  -4.8539
    -4.8531  -4.7228  -4.7213  -4.5668  -4.5386  -4.4737  -4.4428  -4.4405
    -4.4072  -4.4066  -4.2780  -4.2362  -4.2362  -4.1772  -4.1573  -4.1555
    -4.0534  -4.0527  -4.0171  -4.0163  -4.0161  -3.9903  -3.9684  -3.9678
    -3.8659  -3.8609  -3.8607  -3.8412  -3.8243  -3.8231  -3.8121  -3.8113
    -3.7995  -3.7691  -3.7680  -3.7672  -3.7664  -3.7365  -3.7355  -3.7174
    -3.7163  -3.7067  -3.6684  -3.6628  -3.6299  -3.6172  -3.6151  -3.6080
    -3.6079  -3.5346  -3.5336  -3.5009  -3.5002  -3.4968  -3.4289  -3.4279
    -3.4174  -3.4124  -3.3863  -3.3836  -3.3826  -3.3816  -3.2439  -3.2265
    -3.2208  -3.2039  -3.1990  -3.1971  -3.1807  -3.1751  -3.1556  -3.1482
    -3.1048  -3.1035  -3.0892  -3.0868  -3.0679  -3.0215  -3.0183  -3.0014
    -2.9959  -2.9940  -2.9548  -2.9539  -2.9466  -2.9453  -2.9315  -2.9269
    -2.8919  -2.8911  -2.8712  -2.8692  -2.8663  -2.8647  -2.8618  -2.7874
    -2.7861  -2.7840  -2.7554  -2.7540  -2.6968  -2.6920  -2.6648  -2.6640
    -2.6524  -2.6507  -2.6440  -2.6168  -2.6152  -2.6049  -2.5885  -2.5647
    -2.5643  -2.5603  -2.5428  -2.5415  -2.5324  -2.5310  -2.5282  -2.5250
    -2.5168  -2.4711  -2.4416  -2.4404  -2.4253  -2.4113  -2.4056  -2.4038
    -2.3974  -2.3952  -2.3933  -2.3669  -2.3657  -2.3641  -2.3546  -2.3541
    -2.3387  -2.3120  -2.3105  -2.3099  -2.3090  -2.3077  -2.2615  -2.2338
    -2.2318  -2.2299  -2.2245  -2.2140  -2.2086  -2.2035  -2.1849  -2.1846
    -2.1558  -2.1513  -2.1500  -2.1381  -2.1320  -2.1315  -2.1023  -2.0982
    -2.0604  -2.0534  -2.0516  -2.0488  -2.0469  -2.0445  -2.0408  -2.0378
    -2.0357  -2.0340  -2.0299  -2.0160  -2.0135  -1.9049  -1.8878  -1.8646
    -1.8530  -1.8476  -1.8413  -1.8401  -1.8304  -1.8258  -1.8237  -1.8202
    -1.8181  -1.8029  -1.7951  -1.7901  -1.7876  -1.7759  -1.7753  -1.7557
    -1.7525  -1.7274  -1.7240  -1.6972  -1.6936  -1.6814  -1.6748  -1.6559
    -1.6541  -1.6518  -1.6352  -1.6259  -1.6209  -1.6162  -1.6138  -1.5924
    -1.5880  -1.5800  -1.5718  -1.5501  -1.5378  -1.5305  -1.4868  -1.4799
    -1.4710  -1.4643  -1.4618  -1.4371  -1.4357  -1.4121  -1.4033  -1.4009
    -1.3868  -1.3635  -1.3587  -1.3418  -1.3402  -1.3305  -1.3164  -1.3143
    -1.2851  -1.2828  -1.2809  -1.2306  -1.2183  -1.2155  -1.2062  -1.1918
    -1.1897  -1.1789  -1.1761  -1.1645  -1.1572  -1.1447  -1.1178  -1.1159
    -1.1020  -1.0713  -1.0677  -1.0581  -1.0548  -1.0542  -1.0518  -1.0480
    -1.0326  -1.0296  -1.0058  -1.0042  -0.9934  -0.9907  -0.9892  -0.9694
    -0.9663  -0.9489  -0.9337  -0.9270  -0.8948  -0.8317  -0.8215  -0.8159
    -0.8153  -0.8100  -0.8058  -0.7974  -0.7821  -0.7713  -0.7659  -0.7561
    -0.7505  -0.7439  -0.7408  -0.7219  -0.7195  -0.7106  -0.6943  -0.6371
    -0.6366  -0.6049  -0.5995  -0.5968  -0.5938  -0.5900  -0.5892  -0.5840
    -0.5770  -0.5729  -0.5432  -0.5342  -0.5172  -0.5028  -0.4981  -0.4909
    -0.4871  -0.4787  -0.4768  -0.4752  -0.4741  -0.4698  -0.4569  -0.4526
    -0.4493  -0.4221  -0.4203  -0.4196  -0.4071  -0.4066  -0.3876  -0.3562
    -0.3552  -0.3468  -0.3450  -0.2786  -0.2785  -0.2424  -0.2422  -0.1846
    -0.1843  -0.1826  -0.1588  -0.1576   0.0685   0.0883   0.4178   0.4182
     0.5053   0.5228   0.7040   0.7297   0.7403   0.8631   0.8705   1.2982
     1.2992   1.3151   1.5776   1.6078   1.6107   1.8784   1.8974   1.9624
     1.9655   1.9860   2.0026   2.2179   2.2233   2.3087   2.3104   2.3820
     2.4426   2.4637   2.6122   2.7134   3.1453   3.1497   3.1528   3.1614
     3.2059   3.2146   3.5014   3.5037   3.7763   3.7915   3.8889   4.1980
     4.2333   4.2445   4.4339   4.4788   4.5400   4.5414   4.6334   4.7482
     4.7516   4.8666   4.8695   5.1698   5.2257   5.2389   5.3186   5.4244
     5.4439   5.6213   5.6326   5.6558   5.6575   5.7140   5.7193   5.7678
     5.8600   6.0545   6.2645   6.3228   6.3468   6.4553   6.4623   6.4718
     6.4774   6.5474   6.6630   6.6987   6.7214   6.8349   6.9104   6.9267
     6.9739   7.0397   7.0697

          k =-0.2500-0.1443-0.1111 (136898 PWs)   bands (ev):

   -19.0830  -6.9663  -6.5324  -5.7418  -5.4511  -5.3923  -5.3913  -4.8539
    -4.8531  -4.7230  -4.7210  -4.5669  -4.5387  -4.4739  -4.4430  -4.4404
    -4.4071  -4.4065  -4.2780  -4.2367  -4.2356  -4.1769  -4.1573  -4.1558
    -4.0531  -4.0527  -4.0170  -4.0165  -4.0160  -3.9904  -3.9685  -3.9677
    -3.8665  -3.8615  -3.8603  -3.8411  -3.8245  -3.8232  -3.8119  -3.8112
    -3.7995  -3.7687  -3.7680  -3.7671  -3.7666  -3.7365  -3.7355  -3.7174
    -3.7163  -3.7071  -3.6674  -3.6629  -3.6302  -3.6166  -3.6147  -3.6081
    -3.6078  -3.5346  -3.5337  -3.5020  -3.4992  -3.4968  -3.4292  -3.4283
    -3.4170  -3.4124  -3.3868  -3.3834  -3.3827  -3.3813  -3.2493  -3.2270
    -3.2145  -3.2033  -3.2016  -3.1946  -3.1808  -3.1762  -3.1561  -3.1483
    -3.1050  -3.1035  -3.0890  -3.0859  -3.0677  -3.0223  -3.0180  -3.0013
    -2.9956  -2.9937  -2.9548  -2.9543  -2.9468  -2.9455  -2.9316  -2.9281
    -2.8916  -2.8909  -2.8714  -2.8684  -2.8661  -2.8653  -2.8617  -2.7880
    -2.7862  -2.7839  -2.7552  -2.7542  -2.6952  -2.6924  -2.6653  -2.6641
    -2.6513  -2.6506  -2.6441  -2.6168  -2.6147  -2.6050  -2.5890  -2.5672
    -2.5649  -2.5599  -2.5428  -2.5416  -2.5327  -2.5290  -2.5277  -2.5260
    -2.5168  -2.4711  -2.4411  -2.4405  -2.4248  -2.4112  -2.4051  -2.4042
    -2.3970  -2.3958  -2.3937  -2.3668  -2.3652  -2.3635  -2.3545  -2.3537
    -2.3386  -2.3127  -2.3110  -2.3100  -2.3086  -2.3082  -2.2618  -2.2339
    -2.2316  -2.2301  -2.2243  -2.2141  -2.2078  -2.2027  -2.1847  -2.1843
    -2.1561  -2.1513  -2.1501  -2.1370  -2.1325  -2.1313  -2.1032  -2.0983
    -2.0599  -2.0532  -2.0515  -2.0479  -2.0464  -2.0447  -2.0409  -2.0384
    -2.0367  -2.0338  -2.0300  -2.0170  -2.0142  -1.9010  -1.8875  -1.8668
    -1.8513  -1.8474  -1.8420  -1.8402  -1.8318  -1.8263  -1.8229  -1.8199
    -1.8177  -1.8002  -1.7952  -1.7898  -1.7883  -1.7768  -1.7745  -1.7548
    -1.7529  -1.7261  -1.7235  -1.7045  -1.6928  -1.6820  -1.6762  -1.6570
    -1.6551  -1.6516  -1.6350  -1.6249  -1.6212  -1.6161  -1.6139  -1.5938
    -1.5873  -1.5790  -1.5719  -1.5509  -1.5378  -1.5327  -1.4848  -1.4792
    -1.4719  -1.4649  -1.4627  -1.4374  -1.4348  -1.4084  -1.4034  -1.4014
    -1.3879  -1.3623  -1.3578  -1.3432  -1.3405  -1.3288  -1.3150  -1.3144
    -1.2837  -1.2818  -1.2809  -1.2286  -1.2186  -1.2161  -1.2056  -1.1996
    -1.1896  -1.1832  -1.1752  -1.1620  -1.1570  -1.1443  -1.1181  -1.1141
    -1.1033  -1.0719  -1.0672  -1.0585  -1.0551  -1.0544  -1.0514  -1.0483
    -1.0325  -1.0303  -1.0056  -1.0038  -0.9920  -0.9905  -0.9876  -0.9710
    -0.9674  -0.9478  -0.9309  -0.9263  -0.8979  -0.8310  -0.8216  -0.8157
    -0.8153  -0.8097  -0.8076  -0.7983  -0.7822  -0.7726  -0.7654  -0.7565
    -0.7502  -0.7436  -0.7403  -0.7224  -0.7185  -0.7104  -0.6948  -0.6368
    -0.6360  -0.6039  -0.5987  -0.5983  -0.5933  -0.5908  -0.5892  -0.5872
    -0.5782  -0.5704  -0.5419  -0.5341  -0.5171  -0.5015  -0.5006  -0.4911
    -0.4890  -0.4782  -0.4768  -0.4763  -0.4741  -0.4678  -0.4571  -0.4527
    -0.4499  -0.4219  -0.4207  -0.4167  -0.4068  -0.4059  -0.3877  -0.3563
    -0.3553  -0.3467  -0.3448  -0.2788  -0.2779  -0.2429  -0.2418  -0.1850
    -0.1833  -0.1824  -0.1603  -0.1577   0.0702   0.0883   0.4179   0.4183
     0.5081   0.5215   0.7009   0.7282   0.7438   0.8646   0.8705   1.2982
     1.2985   1.3175   1.5780   1.6078   1.6096   1.8825   1.8944   1.9619
     1.9635   1.9892   1.9999   2.2190   2.2201   2.3094   2.3100   2.3820
     2.4454   2.4600   2.6145   2.7131   3.1451   3.1486   3.1537   3.1613
     3.2089   3.2100   3.5015   3.5032   3.7793   3.7885   3.8869   4.1990
     4.2354   4.2407   4.4432   4.4731   4.5392   4.5412   4.6324   4.7489
     4.7528   4.8666   4.8707   5.1679   5.2322   5.2390   5.3186   5.4234
     5.4460   5.6268   5.6293   5.6544   5.6576   5.7098   5.7253   5.7567
     5.8626   6.0438   6.2699   6.3216   6.3578   6.4536   6.4624   6.4693
     6.4787   6.5449   6.6524   6.7131   6.7180   6.8205   6.9161   6.9388
     6.9676   7.0359   7.0786

          k = 0.2500 0.1443-0.1111 (136898 PWs)   bands (ev):

   -19.0830  -6.9663  -6.5324  -5.7418  -5.4511  -5.3923  -5.3913  -4.8539
    -4.8531  -4.7230  -4.7210  -4.5669  -4.5387  -4.4739  -4.4430  -4.4404
    -4.4071  -4.4065  -4.2780  -4.2367  -4.2356  -4.1769  -4.1573  -4.1558
    -4.0531  -4.0527  -4.0170  -4.0165  -4.0161  -3.9904  -3.9685  -3.9677
    -3.8665  -3.8615  -3.8603  -3.8411  -3.8245  -3.8232  -3.8119  -3.8112
    -3.7995  -3.7687  -3.7680  -3.7671  -3.7666  -3.7365  -3.7355  -3.7174
    -3.7163  -3.7071  -3.6674  -3.6629  -3.6302  -3.6166  -3.6146  -3.6081
    -3.6078  -3.5346  -3.5336  -3.5020  -3.4992  -3.4968  -3.4292  -3.4283
    -3.4170  -3.4124  -3.3868  -3.3834  -3.3827  -3.3813  -3.2493  -3.2270
    -3.2145  -3.2033  -3.2016  -3.1946  -3.1808  -3.1762  -3.1561  -3.1483
    -3.1050  -3.1035  -3.0890  -3.0859  -3.0677  -3.0223  -3.0180  -3.0013
    -2.9956  -2.9937  -2.9548  -2.9543  -2.9468  -2.9455  -2.9316  -2.9281
    -2.8916  -2.8909  -2.8714  -2.8684  -2.8661  -2.8653  -2.8617  -2.7880
    -2.7862  -2.7839  -2.7552  -2.7542  -2.6952  -2.6924  -2.6653  -2.6641
    -2.6513  -2.6506  -2.6441  -2.6168  -2.6147  -2.6050  -2.5891  -2.5672
    -2.5649  -2.5599  -2.5428  -2.5416  -2.5327  -2.5290  -2.5277  -2.5260
    -2.5168  -2.4711  -2.4411  -2.4406  -2.4248  -2.4112  -2.4051  -2.4042
    -2.3970  -2.3958  -2.3937  -2.3668  -2.3652  -2.3635  -2.3545  -2.3537
    -2.3386  -2.3127  -2.3110  -2.3100  -2.3086  -2.3083  -2.2618  -2.2339
    -2.2316  -2.2301  -2.2244  -2.2141  -2.2078  -2.2027  -2.1848  -2.1843
    -2.1561  -2.1513  -2.1501  -2.1370  -2.1325  -2.1313  -2.1032  -2.0983
    -2.0599  -2.0533  -2.0515  -2.0479  -2.0464  -2.0447  -2.0409  -2.0384
    -2.0367  -2.0338  -2.0300  -2.0170  -2.0142  -1.9010  -1.8875  -1.8668
    -1.8513  -1.8474  -1.8420  -1.8402  -1.8318  -1.8263  -1.8229  -1.8199
    -1.8177  -1.8002  -1.7953  -1.7898  -1.7883  -1.7768  -1.7745  -1.7548
    -1.7529  -1.7261  -1.7235  -1.7045  -1.6928  -1.6820  -1.6762  -1.6570
    -1.6551  -1.6516  -1.6350  -1.6249  -1.6212  -1.6161  -1.6139  -1.5938
    -1.5873  -1.5790  -1.5719  -1.5509  -1.5378  -1.5327  -1.4848  -1.4792
    -1.4719  -1.4649  -1.4627  -1.4374  -1.4348  -1.4084  -1.4034  -1.4014
    -1.3879  -1.3623  -1.3578  -1.3432  -1.3405  -1.3288  -1.3150  -1.3144
    -1.2837  -1.2818  -1.2809  -1.2286  -1.2186  -1.2161  -1.2056  -1.1996
    -1.1896  -1.1832  -1.1752  -1.1620  -1.1570  -1.1443  -1.1181  -1.1141
    -1.1033  -1.0719  -1.0672  -1.0585  -1.0551  -1.0544  -1.0514  -1.0482
    -1.0325  -1.0303  -1.0056  -1.0038  -0.9920  -0.9905  -0.9876  -0.9710
    -0.9674  -0.9478  -0.9309  -0.9263  -0.8979  -0.8310  -0.8216  -0.8157
    -0.8153  -0.8097  -0.8076  -0.7983  -0.7822  -0.7726  -0.7654  -0.7565
    -0.7502  -0.7436  -0.7403  -0.7224  -0.7185  -0.7104  -0.6948  -0.6368
    -0.6360  -0.6039  -0.5987  -0.5983  -0.5933  -0.5908  -0.5892  -0.5872
    -0.5782  -0.5704  -0.5419  -0.5341  -0.5171  -0.5015  -0.5006  -0.4911
    -0.4890  -0.4782  -0.4768  -0.4763  -0.4741  -0.4678  -0.4571  -0.4527
    -0.4499  -0.4219  -0.4207  -0.4167  -0.4068  -0.4059  -0.3877  -0.3563
    -0.3553  -0.3467  -0.3448  -0.2788  -0.2779  -0.2429  -0.2418  -0.1850
    -0.1833  -0.1824  -0.1603  -0.1577   0.0702   0.0883   0.4179   0.4183
     0.5081   0.5215   0.7009   0.7282   0.7438   0.8646   0.8705   1.2982
     1.2985   1.3175   1.5780   1.6078   1.6096   1.8825   1.8944   1.9619
     1.9635   1.9892   1.9999   2.2190   2.2201   2.3094   2.3100   2.3820
     2.4454   2.4600   2.6145   2.7131   3.1451   3.1486   3.1537   3.1613
     3.2089   3.2100   3.5015   3.5032   3.7793   3.7885   3.8869   4.1990
     4.2354   4.2407   4.4432   4.4731   4.5392   4.5412   4.6324   4.7489
     4.7528   4.8666   4.8707   5.1679   5.2322   5.2390   5.3185   5.4233
     5.4462   5.6268   5.6293   5.6544   5.6576   5.7098   5.7253   5.7571
     5.8609   6.0458   6.2707   6.3218   6.3574   6.4536   6.4625   6.4689
     6.4790   6.5405   6.6515   6.7128   6.7173   6.8217   6.9163   6.9385
     6.9685   7.0394   7.0832

          k = 0.0000-0.2887 0.1111 (136898 PWs)   bands (ev):

   -19.0830  -6.9662  -6.5325  -5.7420  -5.4512  -5.3918  -5.3915  -4.8536
    -4.8531  -4.7239  -4.7209  -4.5669  -4.5387  -4.4742  -4.4417  -4.4407
    -4.4069  -4.4064  -4.2780  -4.2363  -4.2361  -4.1774  -4.1569  -4.1557
    -4.0531  -4.0527  -4.0171  -4.0164  -4.0160  -3.9905  -3.9682  -3.9678
    -3.8668  -3.8612  -3.8608  -3.8415  -3.8243  -3.8231  -3.8118  -3.8112
    -3.8002  -3.7686  -3.7679  -3.7670  -3.7664  -3.7362  -3.7354  -3.7175
    -3.7163  -3.7085  -3.6652  -3.6629  -3.6315  -3.6163  -3.6146  -3.6079
    -3.6078  -3.5344  -3.5336  -3.5023  -3.4983  -3.4967  -3.4294  -3.4280
    -3.4169  -3.4124  -3.3859  -3.3832  -3.3828  -3.3819  -3.2557  -3.2268
    -3.2115  -3.2036  -3.1990  -3.1895  -3.1808  -3.1791  -3.1559  -3.1531
    -3.1047  -3.1036  -3.0883  -3.0851  -3.0670  -3.0223  -3.0192  -3.0011
    -2.9953  -2.9926  -2.9549  -2.9543  -2.9464  -2.9462  -2.9313  -2.9299
    -2.8911  -2.8905  -2.8708  -2.8692  -2.8663  -2.8659  -2.8615  -2.7878
    -2.7867  -2.7835  -2.7549  -2.7545  -2.6955  -2.6928  -2.6650  -2.6640
    -2.6511  -2.6505  -2.6441  -2.6163  -2.6155  -2.6050  -2.5887  -2.5665
    -2.5642  -2.5621  -2.5429  -2.5419  -2.5326  -2.5308  -2.5276  -2.5234
    -2.5168  -2.4710  -2.4411  -2.4404  -2.4244  -2.4112  -2.4055  -2.4041
    -2.3972  -2.3956  -2.3936  -2.3660  -2.3654  -2.3644  -2.3541  -2.3537
    -2.3387  -2.3126  -2.3112  -2.3103  -2.3083  -2.3077  -2.2618  -2.2335
    -2.2317  -2.2305  -2.2244  -2.2141  -2.2065  -2.2041  -2.1845  -2.1844
    -2.1555  -2.1514  -2.1504  -2.1357  -2.1327  -2.1315  -2.1030  -2.0982
    -2.0603  -2.0533  -2.0521  -2.0472  -2.0465  -2.0445  -2.0414  -2.0385
    -2.0368  -2.0328  -2.0313  -2.0176  -2.0137  -1.8991  -1.8883  -1.8684
    -1.8504  -1.8484  -1.8410  -1.8400  -1.8306  -1.8257  -1.8240  -1.8215
    -1.8168  -1.7995  -1.7954  -1.7911  -1.7877  -1.7768  -1.7741  -1.7554
    -1.7533  -1.7267  -1.7249  -1.7001  -1.6945  -1.6819  -1.6754  -1.6571
    -1.6546  -1.6516  -1.6352  -1.6252  -1.6212  -1.6159  -1.6138  -1.5930
    -1.5881  -1.5791  -1.5716  -1.5503  -1.5390  -1.5316  -1.4860  -1.4791
    -1.4715  -1.4640  -1.4609  -1.4375  -1.4349  -1.4105  -1.4033  -1.4016
    -1.3884  -1.3612  -1.3592  -1.3415  -1.3407  -1.3274  -1.3158  -1.3146
    -1.2846  -1.2814  -1.2808  -1.2324  -1.2190  -1.2156  -1.2066  -1.1974
    -1.1895  -1.1818  -1.1763  -1.1611  -1.1557  -1.1442  -1.1163  -1.1144
    -1.1036  -1.0718  -1.0676  -1.0583  -1.0546  -1.0543  -1.0502  -1.0478
    -1.0337  -1.0325  -1.0063  -1.0041  -0.9943  -0.9913  -0.9901  -0.9690
    -0.9605  -0.9497  -0.9302  -0.9270  -0.8993  -0.8306  -0.8214  -0.8162
    -0.8155  -0.8115  -0.8053  -0.7971  -0.7823  -0.7717  -0.7657  -0.7571
    -0.7508  -0.7444  -0.7407  -0.7222  -0.7194  -0.7104  -0.6940  -0.6372
    -0.6357  -0.6044  -0.6001  -0.5982  -0.5926  -0.5908  -0.5895  -0.5850
    -0.5774  -0.5713  -0.5398  -0.5341  -0.5204  -0.5026  -0.4984  -0.4908
    -0.4892  -0.4792  -0.4774  -0.4748  -0.4742  -0.4678  -0.4567  -0.4528
    -0.4495  -0.4220  -0.4210  -0.4171  -0.4074  -0.4054  -0.3875  -0.3560
    -0.3556  -0.3467  -0.3456  -0.2794  -0.2771  -0.2428  -0.2418  -0.1851
    -0.1834  -0.1825  -0.1603  -0.1577   0.0688   0.0896   0.4179   0.4182
     0.5064   0.5227   0.7011   0.7301   0.7419   0.8633   0.8705   1.2984
     1.2987   1.3163   1.5776   1.6077   1.6104   1.8812   1.8948   1.9617
     1.9650   1.9877   2.0013   2.2170   2.2231   2.3091   2.3102   2.3832
     2.4445   2.4601   2.6131   2.7138   3.1445   3.1500   3.1531   3.1608
     3.2050   3.2156   3.5014   3.5034   3.7791   3.7890   3.8872   4.1989
     4.2347   4.2420   4.4503   4.4657   4.5391   4.5421   4.6334   4.7470
     4.7543   4.8670   4.8691   5.1684   5.2310   5.2401   5.3292   5.4018
     5.4452   5.6250   5.6306   5.6552   5.6572   5.7155   5.7192   5.7567
     5.8725   6.0672   6.2728   6.3109   6.3326   6.4527   6.4633   6.4732
     6.4755   6.5399   6.6627   6.7052   6.7195   6.8432   6.8853   6.9469
     6.9682   7.0411   7.0667

          k = 0.0000 0.2887 0.1111 (136898 PWs)   bands (ev):

   -19.0830  -6.9662  -6.5325  -5.7420  -5.4512  -5.3918  -5.3915  -4.8536
    -4.8531  -4.7239  -4.7209  -4.5669  -4.5387  -4.4742  -4.4417  -4.4407
    -4.4069  -4.4064  -4.2780  -4.2363  -4.2361  -4.1774  -4.1569  -4.1557
    -4.0531  -4.0527  -4.0171  -4.0164  -4.0160  -3.9905  -3.9682  -3.9678
    -3.8668  -3.8612  -3.8608  -3.8415  -3.8243  -3.8231  -3.8118  -3.8112
    -3.8002  -3.7686  -3.7679  -3.7670  -3.7664  -3.7362  -3.7354  -3.7175
    -3.7163  -3.7085  -3.6652  -3.6629  -3.6315  -3.6163  -3.6146  -3.6079
    -3.6078  -3.5344  -3.5336  -3.5023  -3.4983  -3.4967  -3.4294  -3.4280
    -3.4169  -3.4124  -3.3859  -3.3832  -3.3828  -3.3819  -3.2557  -3.2268
    -3.2115  -3.2036  -3.1991  -3.1895  -3.1808  -3.1791  -3.1559  -3.1531
    -3.1047  -3.1037  -3.0883  -3.0851  -3.0670  -3.0223  -3.0192  -3.0011
    -2.9953  -2.9926  -2.9549  -2.9543  -2.9464  -2.9462  -2.9313  -2.9299
    -2.8911  -2.8905  -2.8708  -2.8692  -2.8663  -2.8659  -2.8615  -2.7878
    -2.7867  -2.7835  -2.7550  -2.7545  -2.6955  -2.6928  -2.6650  -2.6640
    -2.6511  -2.6505  -2.6441  -2.6163  -2.6155  -2.6050  -2.5887  -2.5665
    -2.5642  -2.5621  -2.5429  -2.5419  -2.5326  -2.5308  -2.5276  -2.5234
    -2.5168  -2.4710  -2.4412  -2.4404  -2.4244  -2.4111  -2.4055  -2.4041
    -2.3972  -2.3956  -2.3936  -2.3660  -2.3654  -2.3644  -2.3541  -2.3537
    -2.3387  -2.3126  -2.3112  -2.3103  -2.3083  -2.3077  -2.2618  -2.2335
    -2.2317  -2.2305  -2.2244  -2.2141  -2.2065  -2.2041  -2.1846  -2.1844
    -2.1555  -2.1514  -2.1504  -2.1357  -2.1327  -2.1315  -2.1030  -2.0982
    -2.0603  -2.0533  -2.0521  -2.0472  -2.0465  -2.0445  -2.0414  -2.0385
    -2.0367  -2.0328  -2.0313  -2.0176  -2.0137  -1.8991  -1.8883  -1.8684
    -1.8504  -1.8484  -1.8410  -1.8400  -1.8306  -1.8257  -1.8240  -1.8215
    -1.8168  -1.7995  -1.7954  -1.7911  -1.7877  -1.7768  -1.7741  -1.7554
    -1.7533  -1.7267  -1.7249  -1.7001  -1.6945  -1.6819  -1.6755  -1.6571
    -1.6546  -1.6516  -1.6351  -1.6252  -1.6212  -1.6159  -1.6138  -1.5930
    -1.5881  -1.5791  -1.5716  -1.5503  -1.5390  -1.5316  -1.4860  -1.4791
    -1.4715  -1.4640  -1.4609  -1.4375  -1.4349  -1.4105  -1.4033  -1.4016
    -1.3884  -1.3612  -1.3592  -1.3415  -1.3407  -1.3274  -1.3158  -1.3146
    -1.2846  -1.2814  -1.2808  -1.2324  -1.2190  -1.2156  -1.2066  -1.1974
    -1.1895  -1.1818  -1.1763  -1.1611  -1.1557  -1.1442  -1.1163  -1.1144
    -1.1036  -1.0718  -1.0676  -1.0583  -1.0546  -1.0543  -1.0502  -1.0478
    -1.0337  -1.0325  -1.0063  -1.0041  -0.9943  -0.9913  -0.9901  -0.9690
    -0.9605  -0.9497  -0.9302  -0.9270  -0.8993  -0.8306  -0.8214  -0.8162
    -0.8155  -0.8115  -0.8053  -0.7971  -0.7823  -0.7717  -0.7657  -0.7571
    -0.7508  -0.7444  -0.7407  -0.7222  -0.7194  -0.7104  -0.6940  -0.6372
    -0.6357  -0.6044  -0.6001  -0.5982  -0.5926  -0.5908  -0.5895  -0.5850
    -0.5774  -0.5713  -0.5398  -0.5341  -0.5203  -0.5025  -0.4984  -0.4908
    -0.4892  -0.4792  -0.4774  -0.4748  -0.4742  -0.4678  -0.4567  -0.4528
    -0.4496  -0.4220  -0.4210  -0.4171  -0.4074  -0.4054  -0.3875  -0.3560
    -0.3556  -0.3467  -0.3456  -0.2795  -0.2771  -0.2428  -0.2418  -0.1851
    -0.1834  -0.1825  -0.1603  -0.1577   0.0688   0.0896   0.4179   0.4182
     0.5064   0.5227   0.7011   0.7301   0.7419   0.8633   0.8705   1.2984
     1.2987   1.3163   1.5776   1.6077   1.6104   1.8812   1.8948   1.9617
     1.9650   1.9877   2.0013   2.2170   2.2231   2.3091   2.3102   2.3832
     2.4445   2.4601   2.6131   2.7138   3.1445   3.1500   3.1531   3.1608
     3.2050   3.2156   3.5014   3.5034   3.7791   3.7890   3.8872   4.1989
     4.2347   4.2420   4.4504   4.4657   4.5391   4.5421   4.6334   4.7470
     4.7543   4.8670   4.8691   5.1684   5.2310   5.2401   5.3293   5.4018
     5.4451   5.6250   5.6306   5.6552   5.6572   5.7155   5.7192   5.7561
     5.8747   6.0649   6.2712   6.3109   6.3318   6.4523   6.4631   6.4731
     6.4753   6.5479   6.6606   6.7055   6.7193   6.8384   6.8853   6.9467
     6.9684   7.0457   7.0759

     the Fermi energy is     1.4434 ev

!    total energy              =   -6604.42792786 Ry
     Harris-Foulkes estimate   =   -6604.42792786 Ry
     estimated scf accuracy    <          8.2E-09 Ry

     The total energy is the sum of the following terms:

     one-electron contribution =  -48784.62877597 Ry
     hartree contribution      =   24893.56411700 Ry
     xc contribution           =   -3204.99734204 Ry
     ewald contribution        =   20491.63119896 Ry
     smearing contrib. (-TS)   =       0.00287419 Ry

     convergence has been achieved in  22 iterations

     Writing output data file 5333623.save

     init_run     :    137.45s CPU    150.73s WALL (       1 calls)
     electrons    :   7349.72s CPU   7937.60s WALL (       1 calls)

     Called by init_run:
     wfcinit      :    107.49s CPU    119.22s WALL (       1 calls)
     potinit      :      9.56s CPU     10.18s WALL (       1 calls)

     Called by electrons:
     c_bands      :   6100.18s CPU   6573.66s WALL (      23 calls)
     sum_band     :    898.22s CPU    997.36s WALL (      23 calls)
     v_of_rho     :     99.49s CPU    109.75s WALL (      23 calls)
     newd         :    260.99s CPU    265.85s WALL (      23 calls)
     mix_rho      :      2.74s CPU      3.02s WALL (      23 calls)
     vdW_energy   :      8.71s CPU      9.89s WALL (      23 calls)
     vdW_ffts     :     50.54s CPU     55.73s WALL (      46 calls)
     vdW_v        :     12.87s CPU     13.64s WALL (      23 calls)

     Called by c_bands:
     init_us_2    :     18.23s CPU     18.60s WALL (     564 calls)
     cegterg      :   6035.39s CPU   6507.64s WALL (     276 calls)

     Called by *egterg:
     h_psi        :   2602.84s CPU   3021.44s WALL (    1463 calls)
     s_psi        :    394.68s CPU    397.26s WALL (    1463 calls)
     g_psi        :      5.48s CPU      5.50s WALL (    1175 calls)
     cdiaghg      :   1844.58s CPU   1849.83s WALL (    1439 calls)

     Called by h_psi:
     add_vuspsi   :    396.54s CPU    399.72s WALL (    1463 calls)

     General routines
     calbec       :    567.80s CPU    570.48s WALL (    1739 calls)
     fft          :    119.25s CPU    128.22s WALL (    1518 calls)
     ffts         :      1.53s CPU      1.82s WALL (      46 calls)
     fftw         :   1728.15s CPU   2130.76s WALL (  668346 calls)
     interpolate  :      4.09s CPU      4.84s WALL (      46 calls)
     davcio       :      0.00s CPU      0.47s WALL (      12 calls)

     Parallel routines
     fft_scatter  :   1124.69s CPU   1389.05s WALL (  669910 calls)

     PWSCF        :     2h 4m CPU        2h15m WALL


   This run was terminated on:  13:52: 3  24Aug2015            

=------------------------------------------------------------------------------=
   JOB DONE.
=------------------------------------------------------------------------------=
