Setting SGE environment for SCC

     Program PWSCF v.5.1.2 starts on  6Jul2015 at  4:37:30 

     This program is part of the open-source Quantum ESPRESSO suite
     for quantum simulation of materials; please cite
         "P. Giannozzi et al., J. Phys.:Condens. Matter 21 395502 (2009);
          URL http://www.quantum-espresso.org", 
     in publications or presentations arising from this work. More details at
     http://www.quantum-espresso.org/quote

     Parallel version (MPI), running on    32 processors
     R & G space division:  proc/nbgrp/npool/nimage =      32
     Reading input from hollow.H2.Au535758.d.2.4.phi.45.psi.90.in
Warning: card &IONS ignored
Warning: card / ignored
Warning: card &CELL ignored
Warning: card / ignored

     Current dimensions of program PWSCF are:
     Max number of different atomic species (ntypx) = 10
     Max number of k-points (npk) =  40000
     Max angular momentum in pseudopotentials (lmaxx) =  3

     IMPORTANT: XC functional enforced from input :
     Exchange-correlation      = VDW-DF ( 1  4  4  0 1 0)
     Any further DFT definition will be discarded
     Please, verify this is what you really want


     Subspace diagonalization in iterative solution of the eigenvalue problem:
     a serial algorithm will be used


     Parallelization info
     --------------------
     sticks:   dense  smooth     PW     G-vecs:    dense   smooth      PW
     Min         445     223     58                96775    34191    4534
     Max         446     224     59                96790    34246    4540
     Sum       14269    7147   1867              3097177  1095093  145167


     Title: 
     hollow.H2.Au535758.d.2.4.phi.45.psi.90                                     


     bravais-lattice index     =            4
     lattice parameter (alat)  =      22.7436  a.u.
     unit-cell volume          =   22924.1508 (a.u.)^3
     number of atoms/cell      =           67
     number of atomic types    =            3
     number of electrons       =       712.00
     number of Kohn-Sham states=          427
     kinetic-energy cutoff     =      50.0000  Ry
     charge density cutoff     =     400.0000  Ry
     convergence threshold     =      1.0E-08
     mixing beta               =       0.7000
     number of iterations used =            8  plain     mixing
     Exchange-correlation      = VDW-DF ( 1  4  4  0 1 0)

     celldm(1)=  22.743643  celldm(2)=   0.000000  celldm(3)=   2.250000
     celldm(4)=   0.000000  celldm(5)=   0.000000  celldm(6)=   0.000000

     crystal axes: (cart. coord. in units of alat)
               a(1) = (   1.000000   0.000000   0.000000 )  
               a(2) = (  -0.500000   0.866025   0.000000 )  
               a(3) = (   0.000000   0.000000   2.250000 )  

     reciprocal axes: (cart. coord. in units 2 pi/alat)
               b(1) = (  1.000000  0.577350 -0.000000 )  
               b(2) = (  0.000000  1.154701  0.000000 )  
               b(3) = (  0.000000 -0.000000  0.444444 )  


     PseudoPot. # 1 for Au read from file:
     /home/scc/andrejb/qe/pseudo/Au.pbe-nd-van.UPF
     MD5 check sum: 458681b50f36d87ef23c61b04bba420a
     Pseudo is Ultrasoft + core correction, Zval = 11.0
     Generated by new atomic code, or converted to UPF format
     Using radial grid of  985 points,  3 beta functions with: 
                l(1) =   1
                l(2) =   2
                l(3) =   2
     Q(r) pseudized with  8 coefficients,  rinner =    1.100   1.100   1.100
                                                       1.100   1.100

     PseudoPot. # 2 for H  read from file:
     /home/scc/andrejb/qe/pseudo/H.pbe-van_ak.UPF
     MD5 check sum: 403db7282739603aa925980fa9b8608d
     Pseudo is Ultrasoft, Zval =  1.0
     Generated by new atomic code, or converted to UPF format
     Using radial grid of  615 points,  1 beta functions with: 
                l(1) =   0
     Q(r) pseudized with  8 coefficients,  rinner =    0.800

     PseudoPot. # 3 for O  read from file:
     /home/scc/andrejb/qe/pseudo/O.pbe-van_ak.UPF
     MD5 check sum: 4b8c549914a63cae506c6ff22b5af4fe
     Pseudo is Ultrasoft, Zval =  6.0
     Generated by new atomic code, or converted to UPF format
     Using radial grid of  737 points,  4 beta functions with: 
                l(1) =   0
                l(2) =   0
                l(3) =   1
                l(4) =   1
     Q(r) pseudized with  8 coefficients,  rinner =    0.800   0.800   0.800


     vdW kernel table read from file vdW_kernel_table
     MD5 check sum: 48e77a2e26edf626eeb0eaa751ad5cac

     atomic species   valence    mass     pseudopotential
        Au            11.00   196.96657     Au( 1.00)
        H              1.00     1.01000     H ( 1.00)
        O              6.00    16.00000     O ( 1.00)

     No symmetry found



   Cartesian axes

     site n.     atom                  positions (alat units)
         1           O   tau(   1) = (  -0.0186562   0.4638597   1.0108146  )
         2           H   tau(   2) = (  -0.0208375   0.5411347   0.9869027  )
         3           H   tau(   3) = (  -0.0249177   0.4212311   0.9423360  )
         4           Au  tau(   4) = (   0.3540481   0.6132292   0.0000000  )
         5           Au  tau(   5) = (   0.4790062   0.3967954   0.0000000  )
         6           Au  tau(   6) = (   0.6039644   0.1803616   0.0000000  )
         7           Au  tau(   7) = (   0.7289225  -0.0360723   0.0000000  )
         8           Au  tau(   8) = (   0.1041318   0.6132292   0.0000000  )
         9           Au  tau(   9) = (   0.2290899   0.3967954   0.0000000  )
        10           Au  tau(  10) = (   0.3540481   0.1803616   0.0000000  )
        11           Au  tau(  11) = (   0.4790062  -0.0360723   0.0000000  )
        12           Au  tau(  12) = (  -0.1457845   0.6132292   0.0000000  )
        13           Au  tau(  13) = (  -0.0208264   0.3967954   0.0000000  )
        14           Au  tau(  14) = (   0.1041318   0.1803616   0.0000000  )
        15           Au  tau(  15) = (   0.2290899  -0.0360723   0.0000000  )
        16           Au  tau(  16) = (  -0.3957008   0.6132292   0.0000000  )
        17           Au  tau(  17) = (  -0.2707426   0.3967954   0.0000000  )
        18           Au  tau(  18) = (  -0.1457845   0.1803616   0.0000000  )
        19           Au  tau(  19) = (  -0.0208264  -0.0360723   0.0000000  )
        20           Au  tau(  20) = (   0.4790062   0.6853738   0.2040557  )
        21           Au  tau(  21) = (   0.6039644   0.4689400   0.2040557  )
        22           Au  tau(  22) = (   0.7289225   0.2525061   0.2040557  )
        23           Au  tau(  23) = (   0.8538806   0.0360723   0.2040557  )
        24           Au  tau(  24) = (   0.2290899   0.6853738   0.2040557  )
        25           Au  tau(  25) = (   0.3540481   0.4689400   0.2040557  )
        26           Au  tau(  26) = (   0.4790062   0.2525061   0.2040557  )
        27           Au  tau(  27) = (   0.6039644   0.0360723   0.2040557  )
        28           Au  tau(  28) = (  -0.0208264   0.6853738   0.2040557  )
        29           Au  tau(  29) = (   0.1041318   0.4689400   0.2040557  )
        30           Au  tau(  30) = (   0.2290899   0.2525061   0.2040557  )
        31           Au  tau(  31) = (   0.3540481   0.0360723   0.2040557  )
        32           Au  tau(  32) = (  -0.2707426   0.6853738   0.2040557  )
        33           Au  tau(  33) = (  -0.1457845   0.4689400   0.2040557  )
        34           Au  tau(  34) = (  -0.0208264   0.2525061   0.2040557  )
        35           Au  tau(  35) = (   0.1041318   0.0360723   0.2040557  )
        36           Au  tau(  36) = (   0.3541162   0.7576593   0.4066483  )
        37           Au  tau(  37) = (   0.4791000   0.5411421   0.4066695  )
        38           Au  tau(  38) = (   0.6040570   0.3246862   0.4066617  )
        39           Au  tau(  39) = (   0.7290270   0.1081684   0.4066529  )
        40           Au  tau(  40) = (   0.1041162   0.7576236   0.4066247  )
        41           Au  tau(  41) = (   0.2291001   0.5411063   0.4066455  )
        42           Au  tau(  42) = (   0.3540567   0.3246505   0.4066380  )
        43           Au  tau(  43) = (   0.4790276   0.1081324   0.4066292  )
        44           Au  tau(  44) = (  -0.1458201   0.7576104   0.4066224  )
        45           Au  tau(  45) = (  -0.0208365   0.5410930   0.4066438  )
        46           Au  tau(  46) = (   0.1041202   0.3246372   0.4066359  )
        47           Au  tau(  47) = (   0.2290908   0.1081193   0.4066273  )
        48           Au  tau(  48) = (  -0.3958167   0.7575791   0.4065812  )
        49           Au  tau(  49) = (  -0.2708328   0.5410617   0.4066025  )
        50           Au  tau(  50) = (  -0.1458763   0.3246061   0.4065947  )
        51           Au  tau(  51) = (  -0.0209056   0.1080882   0.4065858  )
        52           Au  tau(  52) = (   0.3541085   0.6133344   0.6129762  )
        53           Au  tau(  53) = (   0.4790780   0.3968269   0.6129968  )
        54           Au  tau(  54) = (   0.6040356   0.1803811   0.6129859  )
        55           Au  tau(  55) = (   0.7290165  -0.0361221   0.6129385  )
        56           Au  tau(  56) = (   0.1041243   0.6133091   0.6130022  )
        57           Au  tau(  57) = (   0.2290941   0.3968013   0.6130241  )
        58           Au  tau(  58) = (   0.3540515   0.1803552   0.6130121  )
        59           Au  tau(  59) = (   0.4790323  -0.0361475   0.6129659  )
        60           Au  tau(  60) = (  -0.1458030   0.6133014   0.6129980  )
        61           Au  tau(  61) = (  -0.0208339   0.3967936   0.6130188  )
        62           Au  tau(  62) = (   0.1041239   0.1803477   0.6130083  )
        63           Au  tau(  63) = (   0.2291046  -0.0361554   0.6129607  )
        64           Au  tau(  64) = (  -0.3957908   0.6132739   0.6129471  )
        65           Au  tau(  65) = (  -0.2708208   0.3967658   0.6129688  )
        66           Au  tau(  66) = (  -0.1458636   0.1803200   0.6129569  )
        67           Au  tau(  67) = (  -0.0208823  -0.0361826   0.6129110  )

     number of k points=    12  Marzari-Vanderbilt smearing, width (Ry)=  0.0200
                       cart. coord. in units 2pi/alat
        k(    1) = (   0.2500000   0.4330127   0.1111111), wk =   0.1666667
        k(    2) = (   0.2500000  -0.1443376   0.1111111), wk =   0.1666667
        k(    3) = (  -0.2500000  -0.4330127   0.1111111), wk =   0.1666667
        k(    4) = (  -0.2500000   0.4330127  -0.1111111), wk =   0.1666667
        k(    5) = (   0.2500000  -0.4330127  -0.1111111), wk =   0.1666667
        k(    6) = (   0.5000000   0.0000000   0.1111111), wk =   0.1666667
        k(    7) = (  -0.5000000   0.0000000   0.1111111), wk =   0.1666667
        k(    8) = (  -0.2500000   0.1443376   0.1111111), wk =   0.1666667
        k(    9) = (  -0.2500000  -0.1443376  -0.1111111), wk =   0.1666667
        k(   10) = (   0.2500000   0.1443376  -0.1111111), wk =   0.1666667
        k(   11) = (   0.0000000  -0.2886751   0.1111111), wk =   0.1666667
        k(   12) = (   0.0000000   0.2886751   0.1111111), wk =   0.1666667

     Dense  grid:  3097177 G-vectors     FFT dimensions: ( 150, 150, 360)

     Smooth grid:  1095093 G-vectors     FFT dimensions: ( 108, 108, 240)

     Largest allocated arrays     est. size (Mb)     dimensions
        Kohn-Sham Wavefunctions        28.01 Mb     (    4299,  427)
        NL pseudopotentials            55.23 Mb     (    4299,  842)
        Each V/rho on FFT grid          4.12 Mb     (  270000)
        Each G-vector array             0.74 Mb     (   96788)
        G-vector shells                 0.16 Mb     (   21404)
     Largest temporary arrays     est. size (Mb)     dimensions
        Auxiliary wavefunctions       112.04 Mb     (    4299, 1708)
        Each subspace H/S matrix       44.51 Mb     (    1708, 1708)
        Each <psi_i|beta_j> matrix      5.49 Mb     (     842,  427)
        Arrays for rho mixing          32.96 Mb     (  270000,    8)

     Initial potential from superposition of free atoms
     Check: negative starting charge=   -1.730108

     starting charge  711.25682, renormalised to  712.00000

     negative rho (up, down):  1.732E+00 0.000E+00


     ************************************************************************
     *
     * You are using vdW-DF for exchange-correlation in this calculation.
     * Please cite the following three references that made this development
     * possible:
     *
     *   M. Dion, H. Rydberg, E. Schroder, D. C. Langreth, and
     *   B. I. Lundqvist, Phys. Rev. Lett. 92, 246401 (2004).
     *
     *   T. Thonhauser, V. R. Cooper, S. Li, A. Puzder, P. Hyldgaard, and
     *   D. C. Langreth, Phys. Rev. B 76, 125112 (2007).
     *
     *   G. Roman-Perez and J. M. Soler, Phys. Rev. Lett. 103, 096102 (2009).
     *
     *
     * If you are using vdW-DF2, please also cite:
     *
     *   K. Lee, E. D. Murray, L. Kong, B. I. Lundqvist, and
     *   D. C. Langreth, Phys. Rev. B 82, 081101(R) (2010).
     *
     *
     * If you are calculating the stress with vdW-DF, please also cite:
     *
     *   R. Sabatini, E. Kucukbenli, B. Kolb, T. Thonhauser, and
     *   S. de Gironcoli, J. Phys.: Condens. Matter 24, 424209 (2012).
     *
     ************************************************************************

     Carrying out vdW-DF run using the following parameters:

     Nqs =      20    Nr_points =    1024   r_max =   100.000
     q_mesh =
               0.00001000     0.04494208     0.09755937     0.15916263
               0.23128650     0.31572767     0.41458969     0.53033537
               0.66584808     0.82450364     1.01025438     1.22772762
               1.48234092     1.78043706     2.12944203     2.53805004
               3.01644009     3.57652955     4.23227104     5.00000000

     Gradients computed in reciprocal space

     ************************************************************************


     Starting wfc are  582 randomized atomic wfcs

     total cpu time spent up to now is      167.7 secs

     Self-consistent Calculation

     iteration #  1     ecut=    50.00 Ry     beta=0.70
     Davidson diagonalization with overlap
     ethr =  1.00E-02,  avg # of iterations =  3.0

     Threshold (ethr) on eigenvalues was too large:
     Diagonalizing with lowered threshold

     Davidson diagonalization with overlap
     ethr =  3.54E-04,  avg # of iterations =  5.4

     negative rho (up, down):  1.728E+00 0.000E+00

     total cpu time spent up to now is      829.8 secs

     total energy              =   -6602.76475120 Ry
     Harris-Foulkes estimate   =   -6605.04628185 Ry
     estimated scf accuracy    <       2.85453239 Ry

     iteration #  2     ecut=    50.00 Ry     beta=0.70
     Davidson diagonalization with overlap
     ethr =  4.01E-04,  avg # of iterations = 11.2

     negative rho (up, down):  1.727E+00 0.000E+00

     total cpu time spent up to now is     1826.4 secs

     total energy              =   -6596.60927584 Ry
     Harris-Foulkes estimate   =   -6610.21321976 Ry
     estimated scf accuracy    <      76.00469744 Ry

     iteration #  3     ecut=    50.00 Ry     beta=0.70
     Davidson diagonalization with overlap
     ethr =  4.01E-04,  avg # of iterations =  6.0

     negative rho (up, down):  1.737E+00 0.000E+00

     total cpu time spent up to now is     2495.3 secs

     total energy              =   -6602.97857712 Ry
     Harris-Foulkes estimate   =   -6605.10674535 Ry
     estimated scf accuracy    <      10.44676192 Ry

     iteration #  4     ecut=    50.00 Ry     beta=0.70
     Davidson diagonalization with overlap
     ethr =  4.01E-04,  avg # of iterations =  6.8

     negative rho (up, down):  1.738E+00 0.000E+00

     total cpu time spent up to now is     2910.7 secs

     total energy              =   -6603.28410965 Ry
     Harris-Foulkes estimate   =   -6605.32417147 Ry
     estimated scf accuracy    <      20.30806757 Ry

     iteration #  5     ecut=    50.00 Ry     beta=0.70
     Davidson diagonalization with overlap
     ethr =  4.01E-04,  avg # of iterations =  6.3

     negative rho (up, down):  1.748E+00 0.000E+00

     total cpu time spent up to now is     3324.1 secs

     total energy              =   -6604.34669675 Ry
     Harris-Foulkes estimate   =   -6604.60991077 Ry
     estimated scf accuracy    <       1.79529136 Ry

     iteration #  6     ecut=    50.00 Ry     beta=0.70
     Davidson diagonalization with overlap
     ethr =  2.52E-04,  avg # of iterations =  3.0

     negative rho (up, down):  1.754E+00 0.000E+00

     total cpu time spent up to now is     3630.0 secs

     total energy              =   -6604.43297398 Ry
     Harris-Foulkes estimate   =   -6604.46240536 Ry
     estimated scf accuracy    <       0.08898135 Ry

     iteration #  7     ecut=    50.00 Ry     beta=0.70
     Davidson diagonalization with overlap
     ethr =  1.25E-05,  avg # of iterations = 11.5

     negative rho (up, down):  1.755E+00 0.000E+00

     total cpu time spent up to now is     4198.8 secs

     total energy              =   -6604.43342662 Ry
     Harris-Foulkes estimate   =   -6604.45095257 Ry
     estimated scf accuracy    <       0.06529461 Ry

     iteration #  8     ecut=    50.00 Ry     beta=0.70
     Davidson diagonalization with overlap
     ethr =  9.17E-06,  avg # of iterations =  4.2

     negative rho (up, down):  1.756E+00 0.000E+00

     total cpu time spent up to now is     4535.4 secs

     total energy              =   -6604.43158498 Ry
     Harris-Foulkes estimate   =   -6604.44415173 Ry
     estimated scf accuracy    <       0.04641821 Ry

     iteration #  9     ecut=    50.00 Ry     beta=0.70
     Davidson diagonalization with overlap
     c_bands:  1 eigenvalues not converged
     ethr =  6.52E-06,  avg # of iterations =  6.7

     negative rho (up, down):  1.756E+00 0.000E+00

     total cpu time spent up to now is     4911.9 secs

     total energy              =   -6604.43171419 Ry
     Harris-Foulkes estimate   =   -6604.43709171 Ry
     estimated scf accuracy    <       0.02037849 Ry

     iteration # 10     ecut=    50.00 Ry     beta=0.70
     Davidson diagonalization with overlap
     c_bands:  1 eigenvalues not converged
     ethr =  2.86E-06,  avg # of iterations =  7.7

     negative rho (up, down):  1.757E+00 0.000E+00

     total cpu time spent up to now is     5309.1 secs

     total energy              =   -6604.43060759 Ry
     Harris-Foulkes estimate   =   -6604.43388041 Ry
     estimated scf accuracy    <       0.01163926 Ry

     iteration # 11     ecut=    50.00 Ry     beta=0.70
     Davidson diagonalization with overlap
     ethr =  1.63E-06,  avg # of iterations =  6.7

     negative rho (up, down):  1.758E+00 0.000E+00

     total cpu time spent up to now is     5685.9 secs

     total energy              =   -6604.43057915 Ry
     Harris-Foulkes estimate   =   -6604.43158498 Ry
     estimated scf accuracy    <       0.00511587 Ry

     iteration # 12     ecut=    50.00 Ry     beta=0.70
     Davidson diagonalization with overlap
     ethr =  7.19E-07,  avg # of iterations =  1.7

     negative rho (up, down):  1.758E+00 0.000E+00

     total cpu time spent up to now is     5962.0 secs

     total energy              =   -6604.42965530 Ry
     Harris-Foulkes estimate   =   -6604.43096685 Ry
     estimated scf accuracy    <       0.00210506 Ry

     iteration # 13     ecut=    50.00 Ry     beta=0.70
     Davidson diagonalization with overlap
     c_bands:  1 eigenvalues not converged
     c_bands:  1 eigenvalues not converged
     c_bands:  1 eigenvalues not converged
     c_bands:  1 eigenvalues not converged
     ethr =  2.96E-07,  avg # of iterations = 13.8

     negative rho (up, down):  1.758E+00 0.000E+00

     total cpu time spent up to now is     6486.8 secs

     total energy              =   -6604.42997093 Ry
     Harris-Foulkes estimate   =   -6604.43005252 Ry
     estimated scf accuracy    <       0.00016586 Ry

     iteration # 14     ecut=    50.00 Ry     beta=0.70
     Davidson diagonalization with overlap
     ethr =  2.33E-08,  avg # of iterations =  3.5

     negative rho (up, down):  1.758E+00 0.000E+00

     total cpu time spent up to now is     6875.3 secs

     total energy              =   -6604.42998396 Ry
     Harris-Foulkes estimate   =   -6604.43005042 Ry
     estimated scf accuracy    <       0.00024834 Ry

     iteration # 15     ecut=    50.00 Ry     beta=0.70
     Davidson diagonalization with overlap
     ethr =  2.33E-08,  avg # of iterations =  2.0

     negative rho (up, down):  1.758E+00 0.000E+00

     total cpu time spent up to now is     7174.0 secs

     total energy              =   -6604.43000236 Ry
     Harris-Foulkes estimate   =   -6604.43003856 Ry
     estimated scf accuracy    <       0.00029169 Ry

     iteration # 16     ecut=    50.00 Ry     beta=0.70
     Davidson diagonalization with overlap
     ethr =  2.33E-08,  avg # of iterations =  1.0

     negative rho (up, down):  1.758E+00 0.000E+00

     total cpu time spent up to now is     7438.0 secs

     total energy              =   -6604.43001987 Ry
     Harris-Foulkes estimate   =   -6604.43002715 Ry
     estimated scf accuracy    <       0.00003530 Ry

     iteration # 17     ecut=    50.00 Ry     beta=0.70
     Davidson diagonalization with overlap
     ethr =  4.96E-09,  avg # of iterations =  2.0

     negative rho (up, down):  1.758E+00 0.000E+00

     total cpu time spent up to now is     7718.7 secs

     total energy              =   -6604.43002245 Ry
     Harris-Foulkes estimate   =   -6604.43002475 Ry
     estimated scf accuracy    <       0.00000931 Ry

     iteration # 18     ecut=    50.00 Ry     beta=0.70
     Davidson diagonalization with overlap
     ethr =  1.31E-09,  avg # of iterations =  2.0

     negative rho (up, down):  1.758E+00 0.000E+00

     total cpu time spent up to now is     7997.4 secs

     total energy              =   -6604.43002360 Ry
     Harris-Foulkes estimate   =   -6604.43002423 Ry
     estimated scf accuracy    <       0.00000234 Ry

     iteration # 19     ecut=    50.00 Ry     beta=0.70
     Davidson diagonalization with overlap
     ethr =  3.28E-10,  avg # of iterations =  2.0

     negative rho (up, down):  1.758E+00 0.000E+00

     total cpu time spent up to now is     8281.0 secs

     total energy              =   -6604.43002395 Ry
     Harris-Foulkes estimate   =   -6604.43002416 Ry
     estimated scf accuracy    <       0.00000102 Ry

     iteration # 20     ecut=    50.00 Ry     beta=0.70
     Davidson diagonalization with overlap
     ethr =  1.43E-10,  avg # of iterations =  2.0

     negative rho (up, down):  1.758E+00 0.000E+00

     total cpu time spent up to now is     8559.8 secs

     total energy              =   -6604.43002411 Ry
     Harris-Foulkes estimate   =   -6604.43002420 Ry
     estimated scf accuracy    <       0.00000064 Ry

     iteration # 21     ecut=    50.00 Ry     beta=0.70
     Davidson diagonalization with overlap
     ethr =  8.99E-11,  avg # of iterations =  2.0

     negative rho (up, down):  1.758E+00 0.000E+00

     total cpu time spent up to now is     8839.9 secs

     total energy              =   -6604.43002417 Ry
     Harris-Foulkes estimate   =   -6604.43002422 Ry
     estimated scf accuracy    <       0.00000035 Ry

     iteration # 22     ecut=    50.00 Ry     beta=0.70
     Davidson diagonalization with overlap
     ethr =  4.94E-11,  avg # of iterations =  1.5

     negative rho (up, down):  1.758E+00 0.000E+00

     total cpu time spent up to now is     9108.8 secs

     total energy              =   -6604.43002420 Ry
     Harris-Foulkes estimate   =   -6604.43002420 Ry
     estimated scf accuracy    <       0.00000001 Ry

     iteration # 23     ecut=    50.00 Ry     beta=0.70
     Davidson diagonalization with overlap
     ethr =  1.42E-12,  avg # of iterations =  4.0

     negative rho (up, down):  1.758E+00 0.000E+00

     total cpu time spent up to now is     9548.0 secs

     total energy              =   -6604.43002421 Ry
     Harris-Foulkes estimate   =   -6604.43002421 Ry
     estimated scf accuracy    <       0.00000002 Ry

     iteration # 24     ecut=    50.00 Ry     beta=0.70
     Davidson diagonalization with overlap
     ethr =  1.42E-12,  avg # of iterations =  3.0

     negative rho (up, down):  1.758E+00 0.000E+00

     total cpu time spent up to now is     9876.1 secs

     End of self-consistent calculation

          k = 0.2500 0.4330 0.1111 (136853 PWs)   bands (ev):

   -18.5847  -6.4492  -6.4014  -6.0500  -6.0497  -5.3715  -5.0384  -5.0383
    -4.9992  -4.9981  -4.6382  -4.6380  -4.5395  -4.5394  -4.5254  -4.5028
    -4.4777  -4.3719  -4.3716  -4.3476  -4.3042  -4.3042  -4.2353  -4.2350
    -4.2280  -4.2278  -4.2071  -4.2008  -4.2005  -4.1287  -4.1272  -4.0987
    -4.0987  -4.0866  -4.0864  -4.0633  -4.0632  -4.0408  -4.0322  -4.0321
    -4.0053  -3.9531  -3.9531  -3.9053  -3.9053  -3.8453  -3.8452  -3.7913
    -3.7913  -3.7904  -3.7902  -3.7553  -3.7156  -3.7155  -3.7097  -3.7084
    -3.7082  -3.6776  -3.6766  -3.6684  -3.6067  -3.6065  -3.5972  -3.5812
    -3.5742  -3.5013  -3.5011  -3.4680  -3.4669  -3.4399  -3.4395  -3.4267
    -3.4099  -3.3493  -3.3491  -3.3320  -3.3319  -3.2797  -3.2747  -3.2746
    -3.2365  -3.2053  -3.2044  -3.1966  -3.1966  -3.1828  -3.1826  -3.1750
    -3.1747  -3.1654  -3.1245  -3.0868  -3.0864  -3.0720  -3.0716  -3.0457
    -3.0361  -3.0359  -3.0149  -2.9701  -2.9699  -2.9604  -2.9209  -2.9149
    -2.9034  -2.9032  -2.8739  -2.8732  -2.8447  -2.8066  -2.8065  -2.7843
    -2.7773  -2.7633  -2.7627  -2.7124  -2.7122  -2.6795  -2.6569  -2.6568
    -2.6326  -2.6321  -2.6216  -2.6212  -2.6123  -2.6100  -2.5870  -2.5868
    -2.5429  -2.5427  -2.5413  -2.5243  -2.5240  -2.5194  -2.5098  -2.5072
    -2.5066  -2.5060  -2.5014  -2.4881  -2.4876  -2.4789  -2.4517  -2.4514
    -2.4500  -2.4492  -2.4487  -2.4462  -2.4455  -2.4175  -2.4143  -2.4006
    -2.4004  -2.3828  -2.3827  -2.3726  -2.3724  -2.3710  -2.3703  -2.3510
    -2.3501  -2.3493  -2.3480  -2.3317  -2.3050  -2.3050  -2.2653  -2.2651
    -2.2393  -2.2391  -2.2119  -2.2118  -2.1839  -2.1838  -2.1656  -2.1621
    -2.1350  -2.1131  -2.1127  -2.1074  -2.1069  -2.1028  -2.0956  -2.0950
    -2.0692  -2.0632  -2.0532  -1.9951  -1.9924  -1.9914  -1.9888  -1.9886
    -1.9516  -1.9330  -1.9328  -1.9050  -1.9047  -1.8444  -1.8440  -1.8153
    -1.7970  -1.7967  -1.7356  -1.7354  -1.7239  -1.7231  -1.7126  -1.7120
    -1.7093  -1.6995  -1.6986  -1.6435  -1.6431  -1.6311  -1.6307  -1.6305
    -1.6113  -1.6099  -1.5753  -1.5749  -1.5579  -1.5576  -1.5575  -1.5512
    -1.5460  -1.5365  -1.5353  -1.5173  -1.5171  -1.4757  -1.4750  -1.4631
    -1.4621  -1.4427  -1.4289  -1.3858  -1.3849  -1.3595  -1.3547  -1.3543
    -1.3254  -1.2738  -1.2734  -1.2723  -1.2719  -1.2666  -1.2658  -1.2555
    -1.2373  -1.2367  -1.1973  -1.1964  -1.1662  -1.1658  -1.1611  -1.1609
    -1.1525  -1.1366  -1.1362  -1.1356  -1.1324  -1.1322  -1.0957  -1.0934
    -1.0929  -1.0925  -1.0611  -1.0607  -1.0576  -1.0338  -1.0257  -1.0248
    -0.9789  -0.9719  -0.9706  -0.9363  -0.9282  -0.9169  -0.9167  -0.9091
    -0.9086  -0.9080  -0.9070  -0.8957  -0.8954  -0.8696  -0.8695  -0.8665
    -0.8642  -0.8639  -0.8270  -0.8268  -0.8163  -0.8160  -0.8005  -0.7931
    -0.7923  -0.7810  -0.7249  -0.7235  -0.7140  -0.7138  -0.7130  -0.7124
    -0.7074  -0.6880  -0.6871  -0.6789  -0.6788  -0.6768  -0.6766  -0.6373
    -0.6349  -0.6344  -0.6266  -0.6258  -0.6209  -0.6191  -0.6099  -0.6035
    -0.5998  -0.5994  -0.5892  -0.5571  -0.5568  -0.5485  -0.5452  -0.5447
    -0.4675  -0.4668  -0.4647  -0.4645  -0.4553  -0.4551  -0.4187  -0.4059
    -0.4057  -0.3785  -0.3758  -0.3735  -0.2526  -0.2509  -0.1497   0.2656
     0.2659   0.2688   0.2688   0.3292   0.3304   0.7187   0.7193   0.7618
     0.7621   0.8694   0.9501   1.0598   1.0635   1.2798   1.2862   1.9156
     1.9167   2.0780   2.0792   2.2090   2.2111   2.3143   2.3144   2.4685
     2.7060   2.7111   2.8287   3.0523   3.0571   3.1385   3.1389   3.2387
     3.2537   3.4399   3.4590   3.5102   3.7106   3.7112   3.7726   3.7752
     4.0308   4.0377   4.0397   4.2814   4.3234   4.3243   4.3687   4.7042
     4.7066   4.7348   4.8691   5.0413   5.0420   5.0643   5.1081   5.3153
     5.6787   5.8293   5.8338   5.8392   5.8527   5.9045   5.9056   5.9912
     6.0139   6.0305   6.0413   6.0677   6.0689   6.0929   6.0996   6.1279
     6.1290   6.3689   6.5444   6.6465   6.6824   6.7725   6.7749   6.7797
     6.7857   6.8968   6.9840

          k = 0.2500-0.1443 0.1111 (136898 PWs)   bands (ev):

   -18.5847  -6.6592  -6.4014  -5.8671  -5.5754  -5.5168  -5.5167  -4.9784
    -4.9783  -4.8463  -4.8459  -4.6904  -4.6603  -4.5987  -4.5646  -4.5644
    -4.5317  -4.5317  -4.4032  -4.3614  -4.3613  -4.3013  -4.2800  -4.2799
    -4.1778  -4.1778  -4.1417  -4.1414  -4.1414  -4.1141  -4.0928  -4.0928
    -3.9871  -3.9856  -3.9856  -3.9647  -3.9479  -3.9478  -3.9354  -3.9354
    -3.9217  -3.8920  -3.8920  -3.8919  -3.8918  -3.8585  -3.8584  -3.8414
    -3.8413  -3.8266  -3.7831  -3.7829  -3.7529  -3.7375  -3.7373  -3.7332
    -3.7331  -3.6584  -3.6584  -3.6228  -3.6205  -3.6203  -3.5530  -3.5529
    -3.5375  -3.5373  -3.5062  -3.5060  -3.5051  -3.5049  -3.3516  -3.3515
    -3.3258  -3.3257  -3.3206  -3.3047  -3.3046  -3.2785  -3.2785  -3.2288
    -3.2287  -3.2125  -3.2124  -3.1921  -3.1433  -3.1432  -3.1237  -3.1187
    -3.1186  -3.0777  -3.0776  -3.0713  -3.0713  -3.0545  -3.0543  -3.0150
    -3.0149  -2.9932  -2.9930  -2.9901  -2.9899  -2.9869  -2.9094  -2.9093
    -2.9081  -2.8793  -2.8791  -2.8171  -2.8168  -2.7890  -2.7875  -2.7745
    -2.7744  -2.7691  -2.7394  -2.7393  -2.7299  -2.7120  -2.6863  -2.6862
    -2.6860  -2.6653  -2.6652  -2.6540  -2.6537  -2.6503  -2.6501  -2.6424
    -2.6119  -2.5965  -2.5635  -2.5635  -2.5481  -2.5339  -2.5273  -2.5271
    -2.5200  -2.5199  -2.5184  -2.4884  -2.4882  -2.4881  -2.4784  -2.4783
    -2.4608  -2.4331  -2.4329  -2.4326  -2.4319  -2.4316  -2.3866  -2.3548
    -2.3546  -2.3545  -2.3471  -2.3390  -2.3257  -2.3254  -2.3091  -2.3091
    -2.2755  -2.2737  -2.2736  -2.2546  -2.2531  -2.2531  -2.2203  -2.2201
    -2.1796  -2.1788  -2.1714  -2.1694  -2.1693  -2.1626  -2.1625  -2.1602
    -2.1599  -2.1528  -2.1526  -2.1361  -2.1359  -2.0085  -2.0084  -1.9761
    -1.9697  -1.9695  -1.9648  -1.9648  -1.9467  -1.9464  -1.9433  -1.9432
    -1.9418  -1.9192  -1.9105  -1.9105  -1.9070  -1.8987  -1.8983  -1.8755
    -1.8754  -1.8468  -1.8468  -1.8143  -1.8142  -1.8043  -1.7960  -1.7784
    -1.7782  -1.7753  -1.7569  -1.7446  -1.7446  -1.7370  -1.7370  -1.7102
    -1.7101  -1.6926  -1.6925  -1.6608  -1.6607  -1.6503  -1.5999  -1.5997
    -1.5872  -1.5869  -1.5862  -1.5616  -1.5591  -1.5252  -1.5247  -1.5243
    -1.4908  -1.4804  -1.4803  -1.4649  -1.4648  -1.4381  -1.4365  -1.4364
    -1.4069  -1.4040  -1.4039  -1.3412  -1.3411  -1.3277  -1.3274  -1.3114
    -1.3111  -1.2986  -1.2985  -1.2806  -1.2679  -1.2401  -1.2398  -1.2286
    -1.2006  -1.1901  -1.1899  -1.1785  -1.1785  -1.1760  -1.1705  -1.1704
    -1.1576  -1.1263  -1.1260  -1.1152  -1.1144  -1.1135  -1.1133  -1.0894
    -1.0709  -1.0704  -1.0498  -1.0494  -0.9568  -0.9430  -0.9376  -0.9375
    -0.9341  -0.9285  -0.9282  -0.9077  -0.9026  -0.8872  -0.8869  -0.8727
    -0.8726  -0.8631  -0.8428  -0.8426  -0.8409  -0.8328  -0.7610  -0.7608
    -0.7267  -0.7262  -0.7225  -0.7152  -0.7147  -0.7141  -0.7140  -0.7008
    -0.7003  -0.6852  -0.6598  -0.6453  -0.6250  -0.6249  -0.6136  -0.6134
    -0.6009  -0.6005  -0.5996  -0.5983  -0.5979  -0.5894  -0.5804  -0.5760
    -0.5758  -0.5453  -0.5439  -0.5435  -0.5317  -0.5316  -0.5123  -0.4801
    -0.4800  -0.4708  -0.4707  -0.4027  -0.4024  -0.3646  -0.3645  -0.3063
    -0.3057  -0.3053  -0.2953  -0.2774  -0.0538  -0.0529   0.2940   0.2940
     0.3851   0.3861   0.5788   0.5923   0.6117   0.7427   0.7429   1.1741
     1.1742   1.1927   1.4501   1.4842   1.4842   1.7608   1.7625   1.8407
     1.8409   1.8680   1.8688   2.0973   2.0974   2.1853   2.1854   2.2574
     2.3240   2.3254   2.4893   2.5865   3.0275   3.0286   3.0313   3.0316
     3.0864   3.0866   3.3784   3.3785   3.6596   3.6614   3.7622   4.0742
     4.1171   4.1182   4.3308   4.3403   4.4179   4.4189   4.5093   4.6268
     4.6284   4.7445   4.7450   5.0492   5.1156   5.1199   5.1713   5.2866
     5.3216   5.5061   5.5069   5.5322   5.5326   5.5954   5.5969   5.6389
     5.7399   5.9948   6.1965   6.2070   6.2206   6.3391   6.3393   6.3515
     6.3530   6.5393   6.5932   6.5942   6.6368   6.7549   6.7951   6.8255
     6.8273   6.9839   7.0215

          k =-0.2500-0.4330 0.1111 (136853 PWs)   bands (ev):

   -18.5847  -6.4492  -6.4014  -6.0500  -6.0497  -5.3715  -5.0384  -5.0383
    -4.9992  -4.9981  -4.6382  -4.6380  -4.5395  -4.5394  -4.5254  -4.5028
    -4.4777  -4.3719  -4.3716  -4.3476  -4.3042  -4.3042  -4.2353  -4.2350
    -4.2280  -4.2278  -4.2071  -4.2008  -4.2005  -4.1287  -4.1272  -4.0987
    -4.0987  -4.0866  -4.0864  -4.0633  -4.0632  -4.0408  -4.0322  -4.0321
    -4.0053  -3.9531  -3.9531  -3.9053  -3.9053  -3.8453  -3.8452  -3.7913
    -3.7913  -3.7904  -3.7902  -3.7553  -3.7156  -3.7155  -3.7097  -3.7084
    -3.7082  -3.6776  -3.6766  -3.6684  -3.6067  -3.6065  -3.5972  -3.5812
    -3.5742  -3.5013  -3.5011  -3.4680  -3.4669  -3.4399  -3.4395  -3.4267
    -3.4099  -3.3493  -3.3491  -3.3320  -3.3319  -3.2797  -3.2747  -3.2746
    -3.2365  -3.2053  -3.2044  -3.1966  -3.1966  -3.1828  -3.1826  -3.1750
    -3.1747  -3.1654  -3.1245  -3.0868  -3.0864  -3.0720  -3.0716  -3.0457
    -3.0361  -3.0359  -3.0149  -2.9701  -2.9699  -2.9604  -2.9209  -2.9149
    -2.9034  -2.9032  -2.8739  -2.8732  -2.8447  -2.8066  -2.8065  -2.7843
    -2.7773  -2.7633  -2.7627  -2.7124  -2.7122  -2.6795  -2.6569  -2.6568
    -2.6326  -2.6321  -2.6216  -2.6212  -2.6123  -2.6100  -2.5870  -2.5868
    -2.5429  -2.5427  -2.5413  -2.5243  -2.5240  -2.5194  -2.5098  -2.5072
    -2.5066  -2.5060  -2.5014  -2.4881  -2.4876  -2.4789  -2.4517  -2.4514
    -2.4500  -2.4492  -2.4487  -2.4462  -2.4455  -2.4175  -2.4143  -2.4006
    -2.4004  -2.3828  -2.3827  -2.3726  -2.3724  -2.3710  -2.3703  -2.3510
    -2.3501  -2.3493  -2.3480  -2.3317  -2.3050  -2.3050  -2.2653  -2.2651
    -2.2393  -2.2391  -2.2119  -2.2118  -2.1839  -2.1838  -2.1656  -2.1621
    -2.1350  -2.1131  -2.1127  -2.1074  -2.1069  -2.1028  -2.0956  -2.0950
    -2.0692  -2.0632  -2.0532  -1.9951  -1.9924  -1.9914  -1.9888  -1.9886
    -1.9516  -1.9330  -1.9328  -1.9050  -1.9047  -1.8444  -1.8440  -1.8153
    -1.7970  -1.7967  -1.7356  -1.7354  -1.7239  -1.7231  -1.7126  -1.7120
    -1.7093  -1.6995  -1.6986  -1.6435  -1.6431  -1.6311  -1.6307  -1.6305
    -1.6113  -1.6099  -1.5753  -1.5749  -1.5579  -1.5576  -1.5575  -1.5512
    -1.5460  -1.5365  -1.5353  -1.5173  -1.5171  -1.4757  -1.4750  -1.4631
    -1.4621  -1.4427  -1.4289  -1.3858  -1.3849  -1.3595  -1.3547  -1.3543
    -1.3254  -1.2738  -1.2734  -1.2723  -1.2719  -1.2666  -1.2658  -1.2555
    -1.2373  -1.2367  -1.1973  -1.1964  -1.1662  -1.1658  -1.1611  -1.1609
    -1.1525  -1.1366  -1.1362  -1.1356  -1.1323  -1.1322  -1.0957  -1.0934
    -1.0929  -1.0925  -1.0611  -1.0607  -1.0576  -1.0338  -1.0257  -1.0248
    -0.9789  -0.9719  -0.9706  -0.9363  -0.9282  -0.9169  -0.9167  -0.9091
    -0.9086  -0.9080  -0.9070  -0.8957  -0.8954  -0.8696  -0.8695  -0.8665
    -0.8642  -0.8639  -0.8270  -0.8268  -0.8163  -0.8160  -0.8005  -0.7931
    -0.7923  -0.7810  -0.7249  -0.7235  -0.7140  -0.7138  -0.7130  -0.7124
    -0.7074  -0.6880  -0.6871  -0.6789  -0.6788  -0.6768  -0.6766  -0.6373
    -0.6349  -0.6344  -0.6266  -0.6258  -0.6209  -0.6191  -0.6099  -0.6035
    -0.5998  -0.5994  -0.5892  -0.5571  -0.5568  -0.5485  -0.5452  -0.5447
    -0.4675  -0.4668  -0.4647  -0.4645  -0.4553  -0.4551  -0.4187  -0.4059
    -0.4057  -0.3785  -0.3758  -0.3735  -0.2526  -0.2509  -0.1497   0.2656
     0.2659   0.2688   0.2688   0.3292   0.3304   0.7187   0.7193   0.7618
     0.7621   0.8694   0.9501   1.0598   1.0635   1.2798   1.2862   1.9156
     1.9167   2.0780   2.0792   2.2090   2.2111   2.3143   2.3144   2.4685
     2.7060   2.7111   2.8287   3.0523   3.0571   3.1385   3.1389   3.2387
     3.2537   3.4399   3.4590   3.5102   3.7106   3.7112   3.7726   3.7752
     4.0308   4.0377   4.0397   4.2814   4.3234   4.3243   4.3687   4.7042
     4.7066   4.7348   4.8691   5.0413   5.0420   5.0643   5.1081   5.3153
     5.6783   5.8293   5.8338   5.8392   5.8527   5.9045   5.9056   5.9912
     6.0140   6.0310   6.0413   6.0677   6.0689   6.0928   6.0996   6.1279
     6.1290   6.3709   6.5442   6.6423   6.6825   6.7684   6.7757   6.7794
     6.7858   6.8968   6.9861

          k =-0.2500 0.4330-0.1111 (136853 PWs)   bands (ev):

   -18.5847  -6.4492  -6.4014  -6.0513  -6.0484  -5.3715  -5.0390  -5.0378
    -5.0002  -4.9971  -4.6386  -4.6374  -4.5396  -4.5393  -4.5252  -4.5029
    -4.4776  -4.3725  -4.3713  -4.3477  -4.3044  -4.3041  -4.2353  -4.2350
    -4.2283  -4.2275  -4.2070  -4.2020  -4.1994  -4.1294  -4.1264  -4.0994
    -4.0977  -4.0867  -4.0862  -4.0633  -4.0632  -4.0408  -4.0324  -4.0320
    -4.0055  -3.9535  -3.9529  -3.9062  -3.9043  -3.8453  -3.8452  -3.7914
    -3.7912  -3.7906  -3.7899  -3.7555  -3.7157  -3.7155  -3.7096  -3.7084
    -3.7082  -3.6774  -3.6768  -3.6684  -3.6069  -3.6064  -3.5971  -3.5810
    -3.5739  -3.5018  -3.5009  -3.4678  -3.4669  -3.4400  -3.4390  -3.4266
    -3.4100  -3.3495  -3.3492  -3.3322  -3.3313  -3.2797  -3.2748  -3.2746
    -3.2364  -3.2050  -3.2048  -3.1972  -3.1959  -3.1829  -3.1827  -3.1750
    -3.1745  -3.1655  -3.1245  -3.0875  -3.0859  -3.0720  -3.0715  -3.0458
    -3.0366  -3.0354  -3.0149  -2.9709  -2.9692  -2.9607  -2.9207  -2.9148
    -2.9039  -2.9025  -2.8742  -2.8733  -2.8448  -2.8065  -2.8062  -2.7843
    -2.7774  -2.7634  -2.7627  -2.7127  -2.7119  -2.6794  -2.6571  -2.6569
    -2.6327  -2.6322  -2.6216  -2.6210  -2.6123  -2.6100  -2.5875  -2.5864
    -2.5428  -2.5423  -2.5413  -2.5249  -2.5235  -2.5194  -2.5097  -2.5073
    -2.5066  -2.5060  -2.5013  -2.4886  -2.4868  -2.4789  -2.4519  -2.4511
    -2.4498  -2.4493  -2.4488  -2.4460  -2.4454  -2.4177  -2.4144  -2.4007
    -2.4003  -2.3831  -2.3824  -2.3725  -2.3722  -2.3713  -2.3702  -2.3516
    -2.3498  -2.3491  -2.3480  -2.3316  -2.3055  -2.3048  -2.2662  -2.2643
    -2.2399  -2.2386  -2.2118  -2.2115  -2.1842  -2.1834  -2.1657  -2.1619
    -2.1348  -2.1129  -2.1127  -2.1076  -2.1067  -2.1029  -2.0959  -2.0949
    -2.0691  -2.0627  -2.0533  -1.9952  -1.9924  -1.9917  -1.9891  -1.9886
    -1.9516  -1.9338  -1.9319  -1.9051  -1.9046  -1.8449  -1.8434  -1.8157
    -1.7970  -1.7966  -1.7360  -1.7350  -1.7240  -1.7230  -1.7128  -1.7118
    -1.7094  -1.6998  -1.6985  -1.6433  -1.6431  -1.6315  -1.6310  -1.6304
    -1.6112  -1.6098  -1.5752  -1.5750  -1.5581  -1.5578  -1.5572  -1.5510
    -1.5461  -1.5367  -1.5351  -1.5177  -1.5166  -1.4756  -1.4749  -1.4630
    -1.4620  -1.4426  -1.4289  -1.3864  -1.3845  -1.3597  -1.3546  -1.3545
    -1.3255  -1.2740  -1.2734  -1.2725  -1.2718  -1.2669  -1.2658  -1.2556
    -1.2376  -1.2362  -1.1974  -1.1962  -1.1662  -1.1658  -1.1614  -1.1606
    -1.1524  -1.1367  -1.1363  -1.1354  -1.1321  -1.1320  -1.0958  -1.0936
    -1.0930  -1.0923  -1.0613  -1.0606  -1.0572  -1.0341  -1.0259  -1.0243
    -0.9790  -0.9717  -0.9706  -0.9364  -0.9280  -0.9171  -0.9165  -0.9090
    -0.9084  -0.9079  -0.9072  -0.8959  -0.8953  -0.8699  -0.8693  -0.8666
    -0.8644  -0.8639  -0.8269  -0.8267  -0.8164  -0.8158  -0.8006  -0.7932
    -0.7923  -0.7808  -0.7249  -0.7234  -0.7142  -0.7137  -0.7130  -0.7124
    -0.7074  -0.6880  -0.6873  -0.6790  -0.6787  -0.6767  -0.6765  -0.6374
    -0.6350  -0.6343  -0.6268  -0.6256  -0.6210  -0.6191  -0.6097  -0.6035
    -0.6000  -0.5992  -0.5893  -0.5572  -0.5568  -0.5486  -0.5452  -0.5447
    -0.4674  -0.4669  -0.4647  -0.4644  -0.4554  -0.4551  -0.4186  -0.4060
    -0.4055  -0.3789  -0.3755  -0.3735  -0.2526  -0.2510  -0.1497   0.2656
     0.2660   0.2685   0.2690   0.3289   0.3306   0.7188   0.7193   0.7617
     0.7621   0.8694   0.9501   1.0594   1.0640   1.2797   1.2864   1.9157
     1.9165   2.0782   2.0792   2.2089   2.2113   2.3140   2.3147   2.4684
     2.7062   2.7111   2.8287   3.0521   3.0572   3.1382   3.1393   3.2386
     3.2537   3.4398   3.4591   3.5105   3.7102   3.7116   3.7731   3.7748
     4.0304   4.0376   4.0399   4.2820   4.3235   4.3240   4.3684   4.7037
     4.7071   4.7342   4.8693   5.0412   5.0421   5.0652   5.1078   5.3135
     5.6816   5.8293   5.8335   5.8396   5.8497   5.9045   5.9055   5.9918
     6.0139   6.0317   6.0416   6.0671   6.0696   6.0928   6.1003   6.1280
     6.1292   6.3732   6.5378   6.6443   6.6821   6.7683   6.7758   6.7798
     6.7855   6.8970   6.9866

          k = 0.2500-0.4330-0.1111 (136853 PWs)   bands (ev):

   -18.5847  -6.4492  -6.4014  -6.0513  -6.0484  -5.3715  -5.0390  -5.0378
    -5.0002  -4.9971  -4.6386  -4.6374  -4.5396  -4.5393  -4.5252  -4.5029
    -4.4776  -4.3725  -4.3713  -4.3477  -4.3044  -4.3041  -4.2353  -4.2350
    -4.2283  -4.2275  -4.2070  -4.2020  -4.1994  -4.1294  -4.1264  -4.0994
    -4.0977  -4.0867  -4.0862  -4.0633  -4.0632  -4.0408  -4.0324  -4.0320
    -4.0055  -3.9535  -3.9529  -3.9062  -3.9043  -3.8453  -3.8452  -3.7914
    -3.7912  -3.7906  -3.7899  -3.7555  -3.7157  -3.7155  -3.7096  -3.7084
    -3.7082  -3.6774  -3.6768  -3.6684  -3.6069  -3.6064  -3.5971  -3.5810
    -3.5739  -3.5018  -3.5009  -3.4678  -3.4669  -3.4400  -3.4390  -3.4266
    -3.4100  -3.3495  -3.3492  -3.3322  -3.3313  -3.2797  -3.2748  -3.2746
    -3.2364  -3.2050  -3.2048  -3.1972  -3.1959  -3.1829  -3.1827  -3.1750
    -3.1745  -3.1655  -3.1245  -3.0875  -3.0859  -3.0720  -3.0715  -3.0458
    -3.0366  -3.0354  -3.0149  -2.9709  -2.9692  -2.9607  -2.9207  -2.9148
    -2.9039  -2.9025  -2.8742  -2.8733  -2.8448  -2.8065  -2.8062  -2.7843
    -2.7774  -2.7634  -2.7627  -2.7127  -2.7119  -2.6794  -2.6571  -2.6569
    -2.6327  -2.6322  -2.6216  -2.6210  -2.6123  -2.6100  -2.5875  -2.5864
    -2.5428  -2.5423  -2.5413  -2.5249  -2.5235  -2.5194  -2.5097  -2.5073
    -2.5066  -2.5060  -2.5013  -2.4886  -2.4868  -2.4789  -2.4519  -2.4511
    -2.4498  -2.4493  -2.4488  -2.4460  -2.4454  -2.4177  -2.4144  -2.4007
    -2.4003  -2.3831  -2.3824  -2.3725  -2.3722  -2.3713  -2.3702  -2.3516
    -2.3498  -2.3491  -2.3480  -2.3316  -2.3055  -2.3048  -2.2662  -2.2643
    -2.2399  -2.2386  -2.2118  -2.2115  -2.1842  -2.1834  -2.1657  -2.1619
    -2.1348  -2.1129  -2.1127  -2.1076  -2.1067  -2.1029  -2.0959  -2.0949
    -2.0691  -2.0627  -2.0533  -1.9952  -1.9924  -1.9917  -1.9891  -1.9886
    -1.9516  -1.9338  -1.9319  -1.9051  -1.9046  -1.8449  -1.8434  -1.8157
    -1.7970  -1.7966  -1.7360  -1.7350  -1.7240  -1.7230  -1.7128  -1.7118
    -1.7094  -1.6998  -1.6985  -1.6433  -1.6431  -1.6315  -1.6310  -1.6304
    -1.6112  -1.6098  -1.5752  -1.5750  -1.5581  -1.5578  -1.5572  -1.5510
    -1.5461  -1.5367  -1.5351  -1.5177  -1.5166  -1.4756  -1.4749  -1.4630
    -1.4620  -1.4426  -1.4289  -1.3864  -1.3845  -1.3597  -1.3546  -1.3545
    -1.3255  -1.2740  -1.2734  -1.2725  -1.2718  -1.2669  -1.2658  -1.2556
    -1.2376  -1.2362  -1.1974  -1.1962  -1.1662  -1.1658  -1.1614  -1.1606
    -1.1524  -1.1367  -1.1363  -1.1354  -1.1321  -1.1320  -1.0958  -1.0936
    -1.0930  -1.0923  -1.0613  -1.0606  -1.0572  -1.0341  -1.0259  -1.0243
    -0.9790  -0.9717  -0.9706  -0.9364  -0.9280  -0.9171  -0.9165  -0.9090
    -0.9084  -0.9079  -0.9072  -0.8959  -0.8953  -0.8699  -0.8693  -0.8666
    -0.8644  -0.8639  -0.8269  -0.8267  -0.8164  -0.8158  -0.8006  -0.7932
    -0.7923  -0.7808  -0.7249  -0.7234  -0.7142  -0.7137  -0.7130  -0.7124
    -0.7074  -0.6880  -0.6873  -0.6790  -0.6787  -0.6767  -0.6765  -0.6374
    -0.6350  -0.6343  -0.6268  -0.6256  -0.6210  -0.6191  -0.6097  -0.6035
    -0.6000  -0.5992  -0.5893  -0.5572  -0.5568  -0.5486  -0.5452  -0.5447
    -0.4674  -0.4669  -0.4647  -0.4644  -0.4554  -0.4551  -0.4186  -0.4060
    -0.4055  -0.3789  -0.3755  -0.3735  -0.2526  -0.2510  -0.1497   0.2656
     0.2660   0.2685   0.2690   0.3289   0.3306   0.7188   0.7193   0.7617
     0.7621   0.8694   0.9501   1.0594   1.0640   1.2797   1.2864   1.9157
     1.9165   2.0782   2.0792   2.2089   2.2113   2.3140   2.3147   2.4684
     2.7062   2.7111   2.8287   3.0521   3.0572   3.1382   3.1393   3.2386
     3.2537   3.4398   3.4591   3.5105   3.7102   3.7116   3.7731   3.7748
     4.0304   4.0376   4.0399   4.2820   4.3235   4.3240   4.3684   4.7037
     4.7071   4.7342   4.8693   5.0412   5.0421   5.0652   5.1078   5.3135
     5.6819   5.8293   5.8335   5.8396   5.8497   5.9045   5.9055   5.9918
     6.0138   6.0313   6.0415   6.0671   6.0696   6.0929   6.1003   6.1280
     6.1292   6.3713   6.5384   6.6482   6.6814   6.7720   6.7749   6.7801
     6.7855   6.8970   6.9842

          k = 0.5000 0.0000 0.1111 (136853 PWs)   bands (ev):

   -18.5847  -6.4492  -6.4014  -6.0514  -6.0483  -5.3715  -5.0392  -5.0376
    -5.0003  -4.9970  -4.6387  -4.6374  -4.5395  -4.5393  -4.5252  -4.5028
    -4.4777  -4.3725  -4.3713  -4.3477  -4.3043  -4.3042  -4.2354  -4.2349
    -4.2284  -4.2274  -4.2070  -4.2021  -4.1993  -4.1291  -4.1267  -4.0995
    -4.0976  -4.0866  -4.0863  -4.0633  -4.0632  -4.0408  -4.0323  -4.0321
    -4.0055  -3.9534  -3.9530  -3.9063  -3.9043  -3.8453  -3.8451  -3.7914
    -3.7913  -3.7905  -3.7899  -3.7555  -3.7157  -3.7155  -3.7096  -3.7087
    -3.7081  -3.6774  -3.6768  -3.6685  -3.6068  -3.6065  -3.5970  -3.5810
    -3.5739  -3.5017  -3.5010  -3.4679  -3.4668  -3.4401  -3.4390  -3.4266
    -3.4100  -3.3496  -3.3491  -3.3321  -3.3314  -3.2797  -3.2748  -3.2746
    -3.2364  -3.2050  -3.2047  -3.1972  -3.1960  -3.1829  -3.1827  -3.1749
    -3.1746  -3.1655  -3.1245  -3.0875  -3.0859  -3.0719  -3.0716  -3.0458
    -3.0361  -3.0359  -3.0149  -2.9709  -2.9692  -2.9607  -2.9208  -2.9149
    -2.9039  -2.9025  -2.8742  -2.8733  -2.8448  -2.8066  -2.8061  -2.7843
    -2.7774  -2.7634  -2.7628  -2.7126  -2.7120  -2.6794  -2.6572  -2.6568
    -2.6328  -2.6323  -2.6217  -2.6206  -2.6125  -2.6100  -2.5873  -2.5866
    -2.5429  -2.5422  -2.5413  -2.5250  -2.5234  -2.5194  -2.5097  -2.5073
    -2.5066  -2.5060  -2.5014  -2.4886  -2.4869  -2.4789  -2.4517  -2.4513
    -2.4498  -2.4493  -2.4488  -2.4459  -2.4455  -2.4177  -2.4144  -2.4006
    -2.4004  -2.3831  -2.3825  -2.3725  -2.3724  -2.3711  -2.3703  -2.3515
    -2.3499  -2.3488  -2.3483  -2.3316  -2.3054  -2.3050  -2.2662  -2.2643
    -2.2400  -2.2386  -2.2118  -2.2115  -2.1840  -2.1836  -2.1657  -2.1619
    -2.1349  -2.1130  -2.1126  -2.1076  -2.1069  -2.1028  -2.0956  -2.0951
    -2.0692  -2.0628  -2.0532  -1.9952  -1.9921  -1.9919  -1.9892  -1.9885
    -1.9516  -1.9337  -1.9321  -1.9051  -1.9046  -1.8448  -1.8435  -1.8156
    -1.7970  -1.7965  -1.7359  -1.7351  -1.7239  -1.7231  -1.7127  -1.7119
    -1.7094  -1.6995  -1.6988  -1.6436  -1.6429  -1.6312  -1.6309  -1.6306
    -1.6110  -1.6100  -1.5752  -1.5750  -1.5580  -1.5578  -1.5573  -1.5509
    -1.5461  -1.5366  -1.5352  -1.5174  -1.5168  -1.4754  -1.4751  -1.4628
    -1.4622  -1.4426  -1.4289  -1.3862  -1.3847  -1.3597  -1.3546  -1.3544
    -1.3255  -1.2738  -1.2736  -1.2725  -1.2718  -1.2668  -1.2659  -1.2556
    -1.2373  -1.2364  -1.1972  -1.1964  -1.1661  -1.1659  -1.1613  -1.1607
    -1.1524  -1.1368  -1.1361  -1.1355  -1.1324  -1.1318  -1.0955  -1.0938
    -1.0927  -1.0925  -1.0610  -1.0607  -1.0574  -1.0341  -1.0256  -1.0247
    -0.9789  -0.9715  -0.9708  -0.9364  -0.9280  -0.9171  -0.9165  -0.9089
    -0.9086  -0.9078  -0.9073  -0.8957  -0.8955  -0.8699  -0.8692  -0.8667
    -0.8643  -0.8640  -0.8269  -0.8267  -0.8162  -0.8161  -0.8006  -0.7932
    -0.7924  -0.7808  -0.7248  -0.7234  -0.7141  -0.7139  -0.7130  -0.7124
    -0.7074  -0.6880  -0.6872  -0.6789  -0.6788  -0.6768  -0.6765  -0.6374
    -0.6350  -0.6342  -0.6266  -0.6258  -0.6211  -0.6191  -0.6101  -0.6034
    -0.5997  -0.5994  -0.5892  -0.5571  -0.5569  -0.5486  -0.5451  -0.5448
    -0.4674  -0.4669  -0.4646  -0.4645  -0.4554  -0.4551  -0.4186  -0.4059
    -0.4056  -0.3782  -0.3762  -0.3735  -0.2523  -0.2513  -0.1496   0.2657
     0.2659   0.2685   0.2691   0.3294   0.3300   0.7188   0.7193   0.7614
     0.7624   0.8694   0.9502   1.0602   1.0633   1.2809   1.2852   1.9153
     1.9168   2.0784   2.0789   2.2097   2.2104   2.3136   2.3151   2.4684
     2.7062   2.7109   2.8288   3.0527   3.0567   3.1376   3.1398   3.2386
     3.2537   3.4431   3.4560   3.5104   3.7102   3.7116   3.7727   3.7750
     4.0306   4.0384   4.0389   4.2819   4.3230   4.3245   4.3685   4.7041
     4.7067   4.7343   4.8695   5.0413   5.0420   5.0811   5.1005   5.2906
     5.7116   5.8204   5.8299   5.8366   5.8395   5.9049   5.9055   5.9935
     6.0147   6.0382   6.0479   6.0670   6.0679   6.0922   6.1049   6.1279
     6.1289   6.4040   6.4825   6.6549   6.6819   6.7700   6.7752   6.7793
     6.7856   6.8970   6.9899

          k =-0.5000 0.0000 0.1111 (136853 PWs)   bands (ev):

   -18.5847  -6.4492  -6.4014  -6.0514  -6.0483  -5.3715  -5.0392  -5.0376
    -5.0003  -4.9970  -4.6387  -4.6374  -4.5395  -4.5393  -4.5252  -4.5028
    -4.4777  -4.3725  -4.3713  -4.3477  -4.3043  -4.3042  -4.2354  -4.2349
    -4.2284  -4.2274  -4.2070  -4.2021  -4.1993  -4.1291  -4.1267  -4.0995
    -4.0976  -4.0866  -4.0863  -4.0633  -4.0632  -4.0408  -4.0323  -4.0321
    -4.0055  -3.9534  -3.9530  -3.9063  -3.9043  -3.8453  -3.8451  -3.7914
    -3.7913  -3.7905  -3.7899  -3.7555  -3.7157  -3.7155  -3.7096  -3.7087
    -3.7081  -3.6774  -3.6768  -3.6685  -3.6068  -3.6065  -3.5970  -3.5810
    -3.5739  -3.5017  -3.5010  -3.4679  -3.4668  -3.4401  -3.4390  -3.4266
    -3.4100  -3.3496  -3.3491  -3.3321  -3.3314  -3.2797  -3.2748  -3.2746
    -3.2364  -3.2050  -3.2047  -3.1972  -3.1960  -3.1829  -3.1827  -3.1749
    -3.1746  -3.1655  -3.1245  -3.0875  -3.0859  -3.0719  -3.0716  -3.0458
    -3.0361  -3.0359  -3.0149  -2.9709  -2.9692  -2.9607  -2.9208  -2.9149
    -2.9039  -2.9025  -2.8742  -2.8733  -2.8448  -2.8066  -2.8061  -2.7843
    -2.7774  -2.7634  -2.7628  -2.7126  -2.7120  -2.6794  -2.6572  -2.6568
    -2.6328  -2.6323  -2.6217  -2.6206  -2.6125  -2.6100  -2.5873  -2.5866
    -2.5429  -2.5422  -2.5413  -2.5250  -2.5234  -2.5194  -2.5097  -2.5073
    -2.5066  -2.5060  -2.5014  -2.4886  -2.4869  -2.4789  -2.4517  -2.4513
    -2.4498  -2.4493  -2.4488  -2.4459  -2.4455  -2.4177  -2.4144  -2.4006
    -2.4004  -2.3831  -2.3825  -2.3725  -2.3724  -2.3711  -2.3703  -2.3515
    -2.3499  -2.3488  -2.3483  -2.3316  -2.3054  -2.3050  -2.2662  -2.2643
    -2.2400  -2.2386  -2.2118  -2.2115  -2.1840  -2.1836  -2.1657  -2.1619
    -2.1349  -2.1130  -2.1126  -2.1076  -2.1069  -2.1028  -2.0956  -2.0951
    -2.0692  -2.0628  -2.0532  -1.9952  -1.9921  -1.9919  -1.9892  -1.9885
    -1.9516  -1.9337  -1.9321  -1.9051  -1.9046  -1.8448  -1.8435  -1.8156
    -1.7970  -1.7965  -1.7359  -1.7351  -1.7239  -1.7231  -1.7127  -1.7119
    -1.7094  -1.6995  -1.6988  -1.6436  -1.6429  -1.6312  -1.6309  -1.6306
    -1.6110  -1.6100  -1.5752  -1.5750  -1.5580  -1.5578  -1.5573  -1.5509
    -1.5461  -1.5366  -1.5352  -1.5174  -1.5168  -1.4754  -1.4751  -1.4628
    -1.4622  -1.4426  -1.4289  -1.3862  -1.3847  -1.3597  -1.3546  -1.3544
    -1.3255  -1.2738  -1.2736  -1.2725  -1.2718  -1.2667  -1.2659  -1.2556
    -1.2373  -1.2364  -1.1972  -1.1964  -1.1661  -1.1659  -1.1613  -1.1607
    -1.1524  -1.1368  -1.1361  -1.1355  -1.1324  -1.1318  -1.0955  -1.0938
    -1.0927  -1.0925  -1.0610  -1.0607  -1.0574  -1.0341  -1.0256  -1.0247
    -0.9789  -0.9715  -0.9708  -0.9364  -0.9280  -0.9171  -0.9165  -0.9089
    -0.9086  -0.9078  -0.9073  -0.8957  -0.8955  -0.8699  -0.8692  -0.8667
    -0.8643  -0.8640  -0.8269  -0.8267  -0.8162  -0.8161  -0.8006  -0.7932
    -0.7924  -0.7808  -0.7248  -0.7234  -0.7141  -0.7139  -0.7130  -0.7124
    -0.7074  -0.6880  -0.6872  -0.6789  -0.6788  -0.6768  -0.6765  -0.6374
    -0.6350  -0.6342  -0.6266  -0.6258  -0.6211  -0.6191  -0.6101  -0.6034
    -0.5997  -0.5994  -0.5892  -0.5571  -0.5569  -0.5486  -0.5451  -0.5448
    -0.4674  -0.4669  -0.4646  -0.4645  -0.4554  -0.4551  -0.4186  -0.4059
    -0.4056  -0.3782  -0.3762  -0.3735  -0.2523  -0.2513  -0.1496   0.2657
     0.2659   0.2685   0.2691   0.3294   0.3300   0.7188   0.7193   0.7614
     0.7624   0.8694   0.9502   1.0602   1.0633   1.2809   1.2852   1.9153
     1.9168   2.0784   2.0789   2.2097   2.2104   2.3136   2.3151   2.4684
     2.7062   2.7109   2.8288   3.0527   3.0567   3.1376   3.1398   3.2386
     3.2537   3.4431   3.4560   3.5104   3.7102   3.7116   3.7727   3.7750
     4.0306   4.0384   4.0389   4.2819   4.3230   4.3245   4.3685   4.7041
     4.7067   4.7343   4.8695   5.0413   5.0420   5.0811   5.1005   5.2907
     5.7115   5.8204   5.8299   5.8366   5.8395   5.9049   5.9055   5.9935
     6.0147   6.0382   6.0480   6.0670   6.0679   6.0922   6.1049   6.1279
     6.1289   6.4043   6.4825   6.6547   6.6815   6.7694   6.7753   6.7793
     6.7857   6.8970   6.9899

          k =-0.2500 0.1443 0.1111 (136898 PWs)   bands (ev):

   -18.5847  -6.6592  -6.4014  -5.8671  -5.5754  -5.5168  -5.5167  -4.9784
    -4.9783  -4.8463  -4.8459  -4.6904  -4.6603  -4.5987  -4.5646  -4.5644
    -4.5317  -4.5317  -4.4032  -4.3614  -4.3613  -4.3012  -4.2800  -4.2799
    -4.1778  -4.1778  -4.1417  -4.1414  -4.1414  -4.1141  -4.0928  -4.0928
    -3.9871  -3.9856  -3.9856  -3.9647  -3.9479  -3.9478  -3.9354  -3.9354
    -3.9217  -3.8920  -3.8920  -3.8919  -3.8918  -3.8585  -3.8584  -3.8414
    -3.8413  -3.8266  -3.7831  -3.7829  -3.7529  -3.7375  -3.7373  -3.7332
    -3.7331  -3.6584  -3.6584  -3.6228  -3.6204  -3.6203  -3.5530  -3.5529
    -3.5375  -3.5373  -3.5062  -3.5060  -3.5051  -3.5049  -3.3516  -3.3515
    -3.3258  -3.3257  -3.3206  -3.3047  -3.3046  -3.2785  -3.2785  -3.2288
    -3.2287  -3.2125  -3.2124  -3.1921  -3.1433  -3.1432  -3.1237  -3.1187
    -3.1186  -3.0777  -3.0776  -3.0713  -3.0712  -3.0545  -3.0543  -3.0150
    -3.0149  -2.9932  -2.9930  -2.9901  -2.9899  -2.9869  -2.9094  -2.9093
    -2.9081  -2.8793  -2.8791  -2.8171  -2.8168  -2.7890  -2.7875  -2.7745
    -2.7744  -2.7691  -2.7394  -2.7393  -2.7299  -2.7120  -2.6863  -2.6862
    -2.6860  -2.6653  -2.6652  -2.6540  -2.6537  -2.6503  -2.6501  -2.6424
    -2.6119  -2.5965  -2.5635  -2.5635  -2.5481  -2.5339  -2.5273  -2.5271
    -2.5200  -2.5199  -2.5185  -2.4883  -2.4882  -2.4881  -2.4784  -2.4783
    -2.4608  -2.4331  -2.4329  -2.4326  -2.4319  -2.4316  -2.3866  -2.3548
    -2.3546  -2.3545  -2.3471  -2.3391  -2.3257  -2.3254  -2.3091  -2.3091
    -2.2755  -2.2737  -2.2736  -2.2546  -2.2531  -2.2531  -2.2203  -2.2201
    -2.1796  -2.1788  -2.1714  -2.1694  -2.1693  -2.1626  -2.1625  -2.1602
    -2.1599  -2.1528  -2.1526  -2.1361  -2.1359  -2.0085  -2.0084  -1.9761
    -1.9697  -1.9695  -1.9648  -1.9648  -1.9467  -1.9464  -1.9433  -1.9432
    -1.9418  -1.9192  -1.9105  -1.9105  -1.9070  -1.8987  -1.8983  -1.8755
    -1.8754  -1.8468  -1.8468  -1.8143  -1.8142  -1.8043  -1.7960  -1.7784
    -1.7782  -1.7753  -1.7569  -1.7446  -1.7446  -1.7370  -1.7370  -1.7102
    -1.7101  -1.6926  -1.6925  -1.6608  -1.6607  -1.6503  -1.5999  -1.5997
    -1.5872  -1.5869  -1.5862  -1.5616  -1.5591  -1.5252  -1.5247  -1.5243
    -1.4908  -1.4804  -1.4804  -1.4649  -1.4648  -1.4381  -1.4365  -1.4364
    -1.4069  -1.4040  -1.4039  -1.3412  -1.3411  -1.3277  -1.3274  -1.3114
    -1.3111  -1.2986  -1.2985  -1.2807  -1.2679  -1.2401  -1.2398  -1.2286
    -1.2007  -1.1901  -1.1899  -1.1785  -1.1784  -1.1760  -1.1705  -1.1704
    -1.1576  -1.1263  -1.1260  -1.1152  -1.1144  -1.1135  -1.1133  -1.0894
    -1.0709  -1.0705  -1.0498  -1.0494  -0.9568  -0.9430  -0.9376  -0.9375
    -0.9340  -0.9285  -0.9282  -0.9077  -0.9026  -0.8873  -0.8869  -0.8727
    -0.8726  -0.8631  -0.8428  -0.8426  -0.8409  -0.8328  -0.7610  -0.7608
    -0.7267  -0.7262  -0.7225  -0.7152  -0.7147  -0.7141  -0.7140  -0.7008
    -0.7003  -0.6852  -0.6599  -0.6453  -0.6251  -0.6249  -0.6137  -0.6134
    -0.6009  -0.6005  -0.5996  -0.5983  -0.5979  -0.5894  -0.5804  -0.5760
    -0.5758  -0.5453  -0.5439  -0.5435  -0.5317  -0.5316  -0.5123  -0.4801
    -0.4800  -0.4708  -0.4707  -0.4027  -0.4024  -0.3646  -0.3645  -0.3063
    -0.3057  -0.3053  -0.2953  -0.2774  -0.0538  -0.0529   0.2940   0.2940
     0.3851   0.3861   0.5788   0.5923   0.6117   0.7427   0.7429   1.1741
     1.1742   1.1927   1.4501   1.4842   1.4842   1.7608   1.7625   1.8407
     1.8409   1.8680   1.8688   2.0973   2.0974   2.1853   2.1854   2.2574
     2.3240   2.3254   2.4893   2.5865   3.0275   3.0286   3.0313   3.0316
     3.0864   3.0866   3.3784   3.3785   3.6596   3.6614   3.7622   4.0742
     4.1171   4.1182   4.3308   4.3403   4.4179   4.4189   4.5093   4.6268
     4.6284   4.7445   4.7450   5.0492   5.1156   5.1199   5.1713   5.2866
     5.3216   5.5061   5.5069   5.5322   5.5326   5.5955   5.5969   5.6388
     5.7401   5.9939   6.1967   6.2071   6.2210   6.3391   6.3393   6.3515
     6.3530   6.5360   6.5932   6.5943   6.6491   6.7469   6.7970   6.8255
     6.8274   6.9788   7.0201

          k =-0.2500-0.1443-0.1111 (136898 PWs)   bands (ev):

   -18.5847  -6.6592  -6.4014  -5.8671  -5.5754  -5.5168  -5.5167  -4.9783
    -4.9782  -4.8467  -4.8457  -4.6904  -4.6603  -4.5988  -4.5647  -4.5644
    -4.5317  -4.5315  -4.4031  -4.3615  -4.3613  -4.3011  -4.2801  -4.2799
    -4.1778  -4.1777  -4.1417  -4.1415  -4.1414  -4.1140  -4.0930  -4.0926
    -3.9871  -3.9858  -3.9855  -3.9646  -3.9481  -3.9478  -3.9355  -3.9354
    -3.9216  -3.8921  -3.8919  -3.8918  -3.8917  -3.8587  -3.8584  -3.8413
    -3.8413  -3.8264  -3.7833  -3.7828  -3.7531  -3.7375  -3.7372  -3.7332
    -3.7330  -3.6585  -3.6584  -3.6226  -3.6204  -3.6202  -3.5532  -3.5530
    -3.5374  -3.5372  -3.5060  -3.5057  -3.5055  -3.5053  -3.3517  -3.3516
    -3.3259  -3.3257  -3.3206  -3.3047  -3.3046  -3.2786  -3.2782  -3.2288
    -3.2288  -3.2125  -3.2124  -3.1920  -3.1434  -3.1429  -3.1238  -3.1188
    -3.1187  -3.0778  -3.0776  -3.0714  -3.0713  -3.0546  -3.0544  -3.0148
    -3.0147  -2.9932  -2.9930  -2.9900  -2.9899  -2.9868  -2.9095  -2.9093
    -2.9084  -2.8794  -2.8791  -2.8171  -2.8167  -2.7889  -2.7875  -2.7743
    -2.7742  -2.7692  -2.7395  -2.7390  -2.7300  -2.7120  -2.6864  -2.6863
    -2.6861  -2.6653  -2.6651  -2.6543  -2.6540  -2.6503  -2.6499  -2.6424
    -2.6119  -2.5965  -2.5636  -2.5635  -2.5480  -2.5341  -2.5273  -2.5271
    -2.5201  -2.5199  -2.5186  -2.4884  -2.4882  -2.4879  -2.4784  -2.4782
    -2.4606  -2.4335  -2.4330  -2.4324  -2.4318  -2.4316  -2.3867  -2.3550
    -2.3547  -2.3545  -2.3470  -2.3391  -2.3258  -2.3250  -2.3089  -2.3089
    -2.2754  -2.2736  -2.2735  -2.2547  -2.2532  -2.2531  -2.2203  -2.2201
    -2.1798  -2.1786  -2.1711  -2.1693  -2.1691  -2.1627  -2.1625  -2.1605
    -2.1600  -2.1527  -2.1525  -2.1362  -2.1360  -2.0085  -2.0084  -1.9761
    -1.9697  -1.9695  -1.9647  -1.9646  -1.9474  -1.9468  -1.9433  -1.9431
    -1.9413  -1.9192  -1.9105  -1.9104  -1.9071  -1.8986  -1.8980  -1.8757
    -1.8756  -1.8472  -1.8466  -1.8143  -1.8142  -1.8042  -1.7959  -1.7784
    -1.7781  -1.7751  -1.7568  -1.7448  -1.7447  -1.7372  -1.7370  -1.7100
    -1.7099  -1.6929  -1.6922  -1.6610  -1.6609  -1.6503  -1.6002  -1.5994
    -1.5872  -1.5868  -1.5865  -1.5618  -1.5589  -1.5252  -1.5245  -1.5241
    -1.4909  -1.4803  -1.4803  -1.4649  -1.4647  -1.4380  -1.4366  -1.4364
    -1.4069  -1.4040  -1.4039  -1.3414  -1.3412  -1.3277  -1.3274  -1.3115
    -1.3111  -1.2984  -1.2983  -1.2802  -1.2677  -1.2401  -1.2398  -1.2286
    -1.2004  -1.1901  -1.1899  -1.1786  -1.1786  -1.1763  -1.1707  -1.1705
    -1.1575  -1.1264  -1.1259  -1.1153  -1.1145  -1.1136  -1.1131  -1.0895
    -1.0712  -1.0707  -1.0497  -1.0493  -0.9566  -0.9431  -0.9376  -0.9375
    -0.9338  -0.9287  -0.9282  -0.9074  -0.9026  -0.8873  -0.8869  -0.8727
    -0.8726  -0.8632  -0.8427  -0.8425  -0.8411  -0.8329  -0.7610  -0.7608
    -0.7267  -0.7261  -0.7225  -0.7153  -0.7148  -0.7142  -0.7140  -0.7007
    -0.7003  -0.6852  -0.6598  -0.6455  -0.6251  -0.6249  -0.6137  -0.6134
    -0.6010  -0.6004  -0.5996  -0.5982  -0.5980  -0.5894  -0.5803  -0.5762
    -0.5759  -0.5453  -0.5437  -0.5434  -0.5317  -0.5315  -0.5123  -0.4801
    -0.4800  -0.4708  -0.4707  -0.4028  -0.4024  -0.3648  -0.3643  -0.3063
    -0.3057  -0.3052  -0.2955  -0.2774  -0.0537  -0.0528   0.2940   0.2940
     0.3852   0.3861   0.5785   0.5923   0.6117   0.7427   0.7429   1.1740
     1.1743   1.1929   1.4501   1.4842   1.4843   1.7608   1.7624   1.8407
     1.8409   1.8680   1.8688   2.0970   2.0975   2.1853   2.1854   2.2574
     2.3241   2.3253   2.4891   2.5865   3.0278   3.0286   3.0313   3.0316
     3.0863   3.0869   3.3782   3.3787   3.6596   3.6614   3.7622   4.0742
     4.1169   4.1180   4.3307   4.3404   4.4178   4.4192   4.5093   4.6266
     4.6285   4.7448   4.7454   5.0492   5.1159   5.1202   5.1707   5.2870
     5.3223   5.5059   5.5065   5.5322   5.5326   5.5953   5.5974   5.6388
     5.7393   5.9899   6.1992   6.2089   6.2208   6.3391   6.3394   6.3517
     6.3532   6.5360   6.5932   6.5943   6.6492   6.7442   6.7988   6.8258
     6.8279   6.9788   7.0214

          k = 0.2500 0.1443-0.1111 (136898 PWs)   bands (ev):

   -18.5847  -6.6592  -6.4014  -5.8671  -5.5754  -5.5168  -5.5167  -4.9783
    -4.9782  -4.8467  -4.8457  -4.6904  -4.6603  -4.5988  -4.5647  -4.5644
    -4.5317  -4.5315  -4.4031  -4.3615  -4.3613  -4.3011  -4.2801  -4.2799
    -4.1778  -4.1777  -4.1417  -4.1415  -4.1414  -4.1140  -4.0930  -4.0926
    -3.9871  -3.9858  -3.9855  -3.9646  -3.9481  -3.9478  -3.9355  -3.9354
    -3.9216  -3.8921  -3.8919  -3.8918  -3.8917  -3.8587  -3.8584  -3.8413
    -3.8413  -3.8264  -3.7833  -3.7828  -3.7531  -3.7375  -3.7372  -3.7332
    -3.7330  -3.6585  -3.6584  -3.6226  -3.6204  -3.6202  -3.5532  -3.5530
    -3.5374  -3.5372  -3.5060  -3.5057  -3.5055  -3.5053  -3.3517  -3.3516
    -3.3259  -3.3257  -3.3206  -3.3048  -3.3046  -3.2786  -3.2782  -3.2288
    -3.2288  -3.2125  -3.2124  -3.1920  -3.1434  -3.1429  -3.1237  -3.1188
    -3.1187  -3.0778  -3.0776  -3.0714  -3.0713  -3.0546  -3.0544  -3.0148
    -3.0147  -2.9932  -2.9930  -2.9900  -2.9899  -2.9868  -2.9095  -2.9093
    -2.9084  -2.8794  -2.8791  -2.8171  -2.8167  -2.7889  -2.7875  -2.7743
    -2.7742  -2.7692  -2.7395  -2.7390  -2.7300  -2.7120  -2.6864  -2.6863
    -2.6861  -2.6653  -2.6651  -2.6543  -2.6540  -2.6503  -2.6499  -2.6424
    -2.6119  -2.5965  -2.5636  -2.5635  -2.5479  -2.5341  -2.5273  -2.5271
    -2.5201  -2.5199  -2.5186  -2.4884  -2.4882  -2.4879  -2.4784  -2.4782
    -2.4606  -2.4335  -2.4330  -2.4324  -2.4318  -2.4316  -2.3867  -2.3550
    -2.3546  -2.3545  -2.3470  -2.3391  -2.3258  -2.3250  -2.3089  -2.3089
    -2.2754  -2.2736  -2.2735  -2.2547  -2.2532  -2.2531  -2.2203  -2.2201
    -2.1798  -2.1786  -2.1711  -2.1693  -2.1691  -2.1627  -2.1625  -2.1605
    -2.1600  -2.1527  -2.1525  -2.1362  -2.1360  -2.0085  -2.0084  -1.9761
    -1.9697  -1.9695  -1.9647  -1.9646  -1.9474  -1.9468  -1.9433  -1.9431
    -1.9413  -1.9192  -1.9105  -1.9104  -1.9071  -1.8986  -1.8980  -1.8757
    -1.8756  -1.8472  -1.8466  -1.8143  -1.8142  -1.8042  -1.7959  -1.7784
    -1.7781  -1.7751  -1.7568  -1.7448  -1.7447  -1.7372  -1.7370  -1.7100
    -1.7099  -1.6929  -1.6922  -1.6610  -1.6609  -1.6503  -1.6002  -1.5994
    -1.5872  -1.5868  -1.5865  -1.5618  -1.5589  -1.5252  -1.5245  -1.5241
    -1.4909  -1.4803  -1.4803  -1.4649  -1.4647  -1.4380  -1.4366  -1.4364
    -1.4069  -1.4040  -1.4039  -1.3414  -1.3412  -1.3277  -1.3274  -1.3115
    -1.3111  -1.2984  -1.2983  -1.2802  -1.2677  -1.2401  -1.2398  -1.2286
    -1.2004  -1.1901  -1.1899  -1.1786  -1.1786  -1.1763  -1.1707  -1.1705
    -1.1576  -1.1264  -1.1259  -1.1153  -1.1145  -1.1136  -1.1131  -1.0895
    -1.0712  -1.0707  -1.0497  -1.0493  -0.9566  -0.9431  -0.9376  -0.9375
    -0.9338  -0.9287  -0.9283  -0.9075  -0.9026  -0.8873  -0.8869  -0.8727
    -0.8726  -0.8632  -0.8427  -0.8425  -0.8411  -0.8329  -0.7610  -0.7607
    -0.7267  -0.7262  -0.7225  -0.7153  -0.7148  -0.7142  -0.7140  -0.7007
    -0.7003  -0.6852  -0.6598  -0.6455  -0.6251  -0.6249  -0.6137  -0.6134
    -0.6010  -0.6004  -0.5996  -0.5982  -0.5980  -0.5894  -0.5803  -0.5762
    -0.5759  -0.5453  -0.5437  -0.5434  -0.5317  -0.5315  -0.5123  -0.4801
    -0.4800  -0.4708  -0.4707  -0.4028  -0.4024  -0.3648  -0.3643  -0.3063
    -0.3057  -0.3052  -0.2955  -0.2774  -0.0537  -0.0528   0.2940   0.2940
     0.3852   0.3861   0.5785   0.5923   0.6117   0.7427   0.7429   1.1740
     1.1743   1.1929   1.4501   1.4842   1.4843   1.7608   1.7624   1.8407
     1.8409   1.8680   1.8688   2.0970   2.0975   2.1853   2.1854   2.2574
     2.3241   2.3253   2.4891   2.5866   3.0278   3.0286   3.0313   3.0316
     3.0863   3.0869   3.3782   3.3787   3.6596   3.6614   3.7622   4.0742
     4.1169   4.1180   4.3307   4.3404   4.4178   4.4192   4.5093   4.6266
     4.6285   4.7448   4.7454   5.0492   5.1159   5.1202   5.1707   5.2870
     5.3223   5.5059   5.5065   5.5322   5.5326   5.5953   5.5974   5.6389
     5.7388   5.9912   6.1992   6.2088   6.2205   6.3391   6.3394   6.3517
     6.3532   6.5400   6.5932   6.5942   6.6338   6.7530   6.7974   6.8256
     6.8280   6.9832   7.0231

          k = 0.0000-0.2887 0.1111 (136898 PWs)   bands (ev):

   -18.5847  -6.6592  -6.4014  -5.8671  -5.5754  -5.5168  -5.5166  -4.9783
    -4.9782  -4.8467  -4.8456  -4.6904  -4.6603  -4.5989  -4.5648  -4.5643
    -4.5317  -4.5316  -4.4031  -4.3614  -4.3613  -4.3011  -4.2801  -4.2798
    -4.1778  -4.1777  -4.1417  -4.1415  -4.1414  -4.1141  -4.0929  -4.0927
    -3.9871  -3.9857  -3.9856  -3.9646  -3.9481  -3.9478  -3.9355  -3.9354
    -3.9217  -3.8922  -3.8920  -3.8918  -3.8915  -3.8586  -3.8584  -3.8413
    -3.8412  -3.8264  -3.7832  -3.7829  -3.7531  -3.7376  -3.7371  -3.7332
    -3.7331  -3.6585  -3.6584  -3.6227  -3.6204  -3.6201  -3.5532  -3.5530
    -3.5374  -3.5372  -3.5061  -3.5058  -3.5054  -3.5052  -3.3518  -3.3515
    -3.3258  -3.3257  -3.3206  -3.3048  -3.3046  -3.2786  -3.2782  -3.2289
    -3.2287  -3.2126  -3.2123  -3.1920  -3.1434  -3.1429  -3.1238  -3.1188
    -3.1186  -3.0778  -3.0776  -3.0714  -3.0713  -3.0547  -3.0543  -3.0148
    -3.0147  -2.9932  -2.9929  -2.9900  -2.9898  -2.9868  -2.9095  -2.9093
    -2.9083  -2.8794  -2.8791  -2.8172  -2.8166  -2.7889  -2.7875  -2.7744
    -2.7742  -2.7692  -2.7393  -2.7392  -2.7300  -2.7120  -2.6865  -2.6863
    -2.6861  -2.6653  -2.6651  -2.6543  -2.6539  -2.6503  -2.6499  -2.6424
    -2.6118  -2.5965  -2.5636  -2.5635  -2.5480  -2.5340  -2.5273  -2.5270
    -2.5201  -2.5199  -2.5186  -2.4884  -2.4882  -2.4880  -2.4786  -2.4780
    -2.4606  -2.4335  -2.4331  -2.4326  -2.4318  -2.4315  -2.3867  -2.3550
    -2.3547  -2.3544  -2.3471  -2.3391  -2.3257  -2.3252  -2.3089  -2.3089
    -2.2754  -2.2737  -2.2735  -2.2547  -2.2532  -2.2530  -2.2204  -2.2200
    -2.1796  -2.1788  -2.1711  -2.1694  -2.1691  -2.1627  -2.1625  -2.1604
    -2.1601  -2.1529  -2.1523  -2.1363  -2.1360  -2.0087  -2.0083  -1.9761
    -1.9698  -1.9694  -1.9647  -1.9647  -1.9472  -1.9469  -1.9433  -1.9431
    -1.9413  -1.9192  -1.9106  -1.9102  -1.9071  -1.8987  -1.8979  -1.8757
    -1.8756  -1.8472  -1.8466  -1.8144  -1.8142  -1.8042  -1.7959  -1.7784
    -1.7781  -1.7751  -1.7568  -1.7447  -1.7447  -1.7372  -1.7370  -1.7100
    -1.7099  -1.6928  -1.6923  -1.6611  -1.6607  -1.6503  -1.6001  -1.5996
    -1.5872  -1.5867  -1.5866  -1.5619  -1.5589  -1.5252  -1.5245  -1.5241
    -1.4909  -1.4804  -1.4802  -1.4649  -1.4646  -1.4380  -1.4366  -1.4364
    -1.4069  -1.4040  -1.4039  -1.3415  -1.3412  -1.3278  -1.3273  -1.3117
    -1.3109  -1.2985  -1.2983  -1.2802  -1.2678  -1.2402  -1.2398  -1.2286
    -1.2004  -1.1902  -1.1898  -1.1786  -1.1785  -1.1763  -1.1708  -1.1704
    -1.1576  -1.1263  -1.1259  -1.1155  -1.1145  -1.1135  -1.1131  -1.0895
    -1.0713  -1.0704  -1.0499  -1.0491  -0.9566  -0.9431  -0.9376  -0.9375
    -0.9338  -0.9286  -0.9282  -0.9074  -0.9026  -0.8875  -0.8867  -0.8727
    -0.8725  -0.8632  -0.8427  -0.8426  -0.8410  -0.8329  -0.7610  -0.7608
    -0.7268  -0.7260  -0.7225  -0.7154  -0.7146  -0.7141  -0.7140  -0.7006
    -0.7005  -0.6852  -0.6597  -0.6454  -0.6252  -0.6249  -0.6137  -0.6133
    -0.6011  -0.6007  -0.5996  -0.5982  -0.5980  -0.5891  -0.5803  -0.5762
    -0.5759  -0.5453  -0.5438  -0.5434  -0.5318  -0.5315  -0.5123  -0.4801
    -0.4799  -0.4708  -0.4706  -0.4027  -0.4025  -0.3648  -0.3643  -0.3064
    -0.3056  -0.3053  -0.2956  -0.2773  -0.0541  -0.0522   0.2940   0.2940
     0.3846   0.3867   0.5789   0.5919   0.6116   0.7425   0.7430   1.1741
     1.1742   1.1929   1.4500   1.4842   1.4843   1.7599   1.7634   1.8407
     1.8409   1.8674   1.8693   2.0971   2.0974   2.1853   2.1855   2.2573
     2.3235   2.3261   2.4891   2.5865   3.0278   3.0286   3.0311   3.0318
     3.0864   3.0867   3.3784   3.3785   3.6588   3.6621   3.7625   4.0742
     4.1165   4.1185   4.3240   4.3458   4.4181   4.4190   4.5093   4.6267
     4.6282   4.7447   4.7456   5.0493   5.1148   5.1199   5.1724   5.2953
     5.3234   5.5054   5.5069   5.5323   5.5327   5.5958   5.5968   5.6400
     5.7288   5.9674   6.1993   6.2056   6.2561   6.3390   6.3393   6.3509
     6.3536   6.5484   6.5923   6.5949   6.6248   6.7218   6.8199   6.8260
     6.8345   6.9613   7.0494

          k = 0.0000 0.2887 0.1111 (136898 PWs)   bands (ev):

   -18.5847  -6.6592  -6.4014  -5.8671  -5.5754  -5.5168  -5.5166  -4.9783
    -4.9782  -4.8467  -4.8456  -4.6904  -4.6603  -4.5989  -4.5648  -4.5643
    -4.5317  -4.5316  -4.4031  -4.3614  -4.3613  -4.3011  -4.2801  -4.2798
    -4.1778  -4.1777  -4.1417  -4.1415  -4.1414  -4.1141  -4.0929  -4.0927
    -3.9871  -3.9857  -3.9856  -3.9646  -3.9481  -3.9478  -3.9355  -3.9353
    -3.9217  -3.8922  -3.8920  -3.8918  -3.8915  -3.8586  -3.8584  -3.8413
    -3.8412  -3.8264  -3.7832  -3.7829  -3.7531  -3.7376  -3.7371  -3.7332
    -3.7331  -3.6585  -3.6584  -3.6227  -3.6204  -3.6201  -3.5532  -3.5530
    -3.5374  -3.5372  -3.5061  -3.5058  -3.5054  -3.5052  -3.3518  -3.3515
    -3.3258  -3.3257  -3.3206  -3.3048  -3.3046  -3.2786  -3.2782  -3.2289
    -3.2287  -3.2126  -3.2123  -3.1920  -3.1434  -3.1429  -3.1238  -3.1188
    -3.1186  -3.0778  -3.0776  -3.0714  -3.0713  -3.0547  -3.0543  -3.0148
    -3.0147  -2.9932  -2.9929  -2.9900  -2.9898  -2.9868  -2.9095  -2.9093
    -2.9083  -2.8794  -2.8791  -2.8172  -2.8166  -2.7889  -2.7875  -2.7744
    -2.7742  -2.7692  -2.7393  -2.7392  -2.7300  -2.7120  -2.6865  -2.6862
    -2.6861  -2.6653  -2.6651  -2.6543  -2.6539  -2.6503  -2.6499  -2.6424
    -2.6118  -2.5965  -2.5636  -2.5635  -2.5480  -2.5340  -2.5273  -2.5270
    -2.5201  -2.5199  -2.5186  -2.4884  -2.4882  -2.4880  -2.4786  -2.4780
    -2.4606  -2.4335  -2.4331  -2.4326  -2.4318  -2.4315  -2.3867  -2.3550
    -2.3547  -2.3544  -2.3471  -2.3391  -2.3257  -2.3252  -2.3089  -2.3089
    -2.2754  -2.2737  -2.2735  -2.2547  -2.2532  -2.2530  -2.2204  -2.2200
    -2.1796  -2.1788  -2.1711  -2.1694  -2.1691  -2.1627  -2.1625  -2.1604
    -2.1601  -2.1529  -2.1523  -2.1363  -2.1360  -2.0087  -2.0083  -1.9761
    -1.9698  -1.9694  -1.9647  -1.9647  -1.9472  -1.9469  -1.9433  -1.9431
    -1.9413  -1.9192  -1.9106  -1.9102  -1.9071  -1.8987  -1.8979  -1.8757
    -1.8756  -1.8472  -1.8466  -1.8144  -1.8142  -1.8042  -1.7959  -1.7784
    -1.7781  -1.7751  -1.7568  -1.7447  -1.7447  -1.7372  -1.7370  -1.7100
    -1.7099  -1.6928  -1.6922  -1.6611  -1.6607  -1.6503  -1.6001  -1.5996
    -1.5873  -1.5867  -1.5866  -1.5619  -1.5588  -1.5252  -1.5245  -1.5241
    -1.4909  -1.4804  -1.4802  -1.4649  -1.4646  -1.4380  -1.4366  -1.4364
    -1.4069  -1.4040  -1.4039  -1.3415  -1.3412  -1.3278  -1.3273  -1.3117
    -1.3109  -1.2985  -1.2983  -1.2802  -1.2678  -1.2402  -1.2398  -1.2286
    -1.2004  -1.1902  -1.1898  -1.1786  -1.1785  -1.1763  -1.1708  -1.1704
    -1.1576  -1.1263  -1.1259  -1.1155  -1.1145  -1.1135  -1.1131  -1.0895
    -1.0713  -1.0704  -1.0499  -1.0491  -0.9566  -0.9431  -0.9376  -0.9375
    -0.9338  -0.9286  -0.9282  -0.9075  -0.9026  -0.8874  -0.8867  -0.8727
    -0.8725  -0.8632  -0.8427  -0.8426  -0.8410  -0.8329  -0.7610  -0.7608
    -0.7268  -0.7260  -0.7225  -0.7154  -0.7146  -0.7141  -0.7140  -0.7006
    -0.7005  -0.6852  -0.6597  -0.6454  -0.6252  -0.6249  -0.6137  -0.6133
    -0.6011  -0.6007  -0.5996  -0.5982  -0.5980  -0.5891  -0.5803  -0.5762
    -0.5759  -0.5453  -0.5438  -0.5434  -0.5318  -0.5315  -0.5123  -0.4801
    -0.4799  -0.4708  -0.4706  -0.4027  -0.4025  -0.3648  -0.3643  -0.3064
    -0.3056  -0.3053  -0.2956  -0.2773  -0.0541  -0.0522   0.2940   0.2940
     0.3846   0.3867   0.5789   0.5919   0.6116   0.7425   0.7430   1.1741
     1.1742   1.1929   1.4500   1.4842   1.4843   1.7599   1.7634   1.8407
     1.8409   1.8674   1.8693   2.0971   2.0974   2.1853   2.1855   2.2573
     2.3235   2.3261   2.4891   2.5865   3.0278   3.0286   3.0311   3.0318
     3.0864   3.0867   3.3784   3.3785   3.6588   3.6621   3.7625   4.0742
     4.1165   4.1185   4.3240   4.3458   4.4181   4.4190   4.5092   4.6267
     4.6282   4.7447   4.7456   5.0493   5.1148   5.1199   5.1724   5.2953
     5.3234   5.5054   5.5069   5.5323   5.5327   5.5958   5.5968   5.6400
     5.7297   5.9664   6.1983   6.2052   6.2559   6.3390   6.3393   6.3509
     6.3536   6.5456   6.5922   6.5949   6.6388   6.7115   6.8195   6.8262
     6.8348   6.9681   7.0535

     the Fermi energy is     1.3165 ev

!    total energy              =   -6604.43002422 Ry
     Harris-Foulkes estimate   =   -6604.43002421 Ry
     estimated scf accuracy    <          3.7E-09 Ry

     The total energy is the sum of the following terms:

     one-electron contribution =  -48248.42232430 Ry
     hartree contribution      =   24622.41348960 Ry
     xc contribution           =   -3204.94939303 Ry
     ewald contribution        =   20226.52530765 Ry
     smearing contrib. (-TS)   =       0.00289586 Ry

     convergence has been achieved in  24 iterations

     Writing output data file 1490821.save

     init_run     :    152.29s CPU    166.79s WALL (       1 calls)
     electrons    :   9090.34s CPU   9709.34s WALL (       1 calls)

     Called by init_run:
     wfcinit      :    118.46s CPU    130.74s WALL (       1 calls)
     potinit      :      9.31s CPU     10.39s WALL (       1 calls)

     Called by electrons:
     c_bands      :   7658.40s CPU   8138.48s WALL (      25 calls)
     sum_band     :   1063.22s CPU   1163.02s WALL (      25 calls)
     v_of_rho     :    124.54s CPU    145.34s WALL (      25 calls)
     newd         :    252.94s CPU    271.17s WALL (      25 calls)
     mix_rho      :      3.16s CPU      3.66s WALL (      25 calls)
     vdW_energy   :      8.51s CPU      9.86s WALL (      25 calls)
     vdW_ffts     :     68.30s CPU     79.53s WALL (      50 calls)
     vdW_v        :     15.54s CPU     17.71s WALL (      25 calls)

     Called by c_bands:
     init_us_2    :     11.20s CPU     11.90s WALL (     612 calls)
     cegterg      :   7572.35s CPU   8049.29s WALL (     300 calls)

     Called by *egterg:
     h_psi        :   3208.30s CPU   3618.25s WALL (    1738 calls)
     s_psi        :    425.82s CPU    431.92s WALL (    1738 calls)
     g_psi        :      6.08s CPU      6.16s WALL (    1426 calls)
     cdiaghg      :   2396.46s CPU   2417.20s WALL (    1714 calls)

     Called by h_psi:
     add_vuspsi   :    425.60s CPU    432.34s WALL (    1738 calls)

     General routines
     calbec       :    639.19s CPU    647.27s WALL (    2038 calls)
     fft          :    216.18s CPU    237.23s WALL (    1650 calls)
     ffts         :      1.60s CPU      1.94s WALL (      50 calls)
     fftw         :   2621.36s CPU   3066.31s WALL (  729284 calls)
     interpolate  :      4.50s CPU      5.47s WALL (      50 calls)
     davcio       :      0.01s CPU      0.17s WALL (      12 calls)

     Parallel routines
     fft_scatter  :   2012.38s CPU   2387.80s WALL (  730984 calls)

     PWSCF        :     2h34m CPU        2h44m WALL


   This run was terminated on:   7:22:24   6Jul2015            

=------------------------------------------------------------------------------=
   JOB DONE.
=------------------------------------------------------------------------------=
