Setting SGE environment for SCC

     Program PWSCF v.5.1.2 starts on  3Jul2015 at  9:52:15 

     This program is part of the open-source Quantum ESPRESSO suite
     for quantum simulation of materials; please cite
         "P. Giannozzi et al., J. Phys.:Condens. Matter 21 395502 (2009);
          URL http://www.quantum-espresso.org", 
     in publications or presentations arising from this work. More details at
     http://www.quantum-espresso.org/quote

     Parallel version (MPI), running on    32 processors
     R & G space division:  proc/nbgrp/npool/nimage =      32
     Reading input from hollow.O1.Au535758.d.2.5.phi.0.psi.90.in
Warning: card &IONS ignored
Warning: card / ignored
Warning: card &CELL ignored
Warning: card / ignored

     Current dimensions of program PWSCF are:
     Max number of different atomic species (ntypx) = 10
     Max number of k-points (npk) =  40000
     Max angular momentum in pseudopotentials (lmaxx) =  3

     IMPORTANT: XC functional enforced from input :
     Exchange-correlation      = VDW-DF ( 1  4  4  0 1 0)
     Any further DFT definition will be discarded
     Please, verify this is what you really want


     Subspace diagonalization in iterative solution of the eigenvalue problem:
     a serial algorithm will be used


     Parallelization info
     --------------------
     sticks:   dense  smooth     PW     G-vecs:    dense   smooth      PW
     Min         445     223     58                96775    34191    4534
     Max         446     224     59                96790    34246    4540
     Sum       14269    7147   1867              3097177  1095093  145167


     Title: 
     hollow.O1.Au535758.d.2.5.phi.0.psi.90                                      


     bravais-lattice index     =            4
     lattice parameter (alat)  =      22.7436  a.u.
     unit-cell volume          =   22924.1508 (a.u.)^3
     number of atoms/cell      =           67
     number of atomic types    =            3
     number of electrons       =       712.00
     number of Kohn-Sham states=          427
     kinetic-energy cutoff     =      50.0000  Ry
     charge density cutoff     =     400.0000  Ry
     convergence threshold     =      1.0E-08
     mixing beta               =       0.7000
     number of iterations used =            8  plain     mixing
     Exchange-correlation      = VDW-DF ( 1  4  4  0 1 0)

     celldm(1)=  22.743643  celldm(2)=   0.000000  celldm(3)=   2.250000
     celldm(4)=   0.000000  celldm(5)=   0.000000  celldm(6)=   0.000000

     crystal axes: (cart. coord. in units of alat)
               a(1) = (   1.000000   0.000000   0.000000 )  
               a(2) = (  -0.500000   0.866025   0.000000 )  
               a(3) = (   0.000000   0.000000   2.250000 )  

     reciprocal axes: (cart. coord. in units 2 pi/alat)
               b(1) = (  1.000000  0.577350 -0.000000 )  
               b(2) = (  0.000000  1.154701  0.000000 )  
               b(3) = (  0.000000 -0.000000  0.444444 )  


     PseudoPot. # 1 for Au read from file:
     /home/scc/andrejb/qe/pseudo/Au.pbe-nd-van.UPF
     MD5 check sum: 458681b50f36d87ef23c61b04bba420a
     Pseudo is Ultrasoft + core correction, Zval = 11.0
     Generated by new atomic code, or converted to UPF format
     Using radial grid of  985 points,  3 beta functions with: 
                l(1) =   1
                l(2) =   2
                l(3) =   2
     Q(r) pseudized with  8 coefficients,  rinner =    1.100   1.100   1.100
                                                       1.100   1.100

     PseudoPot. # 2 for H  read from file:
     /home/scc/andrejb/qe/pseudo/H.pbe-van_ak.UPF
     MD5 check sum: 403db7282739603aa925980fa9b8608d
     Pseudo is Ultrasoft, Zval =  1.0
     Generated by new atomic code, or converted to UPF format
     Using radial grid of  615 points,  1 beta functions with: 
                l(1) =   0
     Q(r) pseudized with  8 coefficients,  rinner =    0.800

     PseudoPot. # 3 for O  read from file:
     /home/scc/andrejb/qe/pseudo/O.pbe-van_ak.UPF
     MD5 check sum: 4b8c549914a63cae506c6ff22b5af4fe
     Pseudo is Ultrasoft, Zval =  6.0
     Generated by new atomic code, or converted to UPF format
     Using radial grid of  737 points,  4 beta functions with: 
                l(1) =   0
                l(2) =   0
                l(3) =   1
                l(4) =   1
     Q(r) pseudized with  8 coefficients,  rinner =    0.800   0.800   0.800


     vdW kernel table read from file vdW_kernel_table
     MD5 check sum: 48e77a2e26edf626eeb0eaa751ad5cac

     atomic species   valence    mass     pseudopotential
        Au            11.00   196.96657     Au( 1.00)
        H              1.00     1.01000     H ( 1.00)
        O              6.00    16.00000     O ( 1.00)

     No symmetry found



   Cartesian axes

     site n.     atom                  positions (alat units)
         1           O   tau(   1) = (  -0.0208375   0.5411347   0.8207265  )
         2           H   tau(   2) = (  -0.0707709   0.4928811   0.7791789  )
         3           H   tau(   3) = (   0.0275819   0.4903739   0.8610334  )
         4           Au  tau(   4) = (   0.3540481   0.6132292   0.0000000  )
         5           Au  tau(   5) = (   0.4790062   0.3967954   0.0000000  )
         6           Au  tau(   6) = (   0.6039644   0.1803616   0.0000000  )
         7           Au  tau(   7) = (   0.7289225  -0.0360723   0.0000000  )
         8           Au  tau(   8) = (   0.1041318   0.6132292   0.0000000  )
         9           Au  tau(   9) = (   0.2290899   0.3967954   0.0000000  )
        10           Au  tau(  10) = (   0.3540481   0.1803616   0.0000000  )
        11           Au  tau(  11) = (   0.4790062  -0.0360723   0.0000000  )
        12           Au  tau(  12) = (  -0.1457845   0.6132292   0.0000000  )
        13           Au  tau(  13) = (  -0.0208264   0.3967954   0.0000000  )
        14           Au  tau(  14) = (   0.1041318   0.1803616   0.0000000  )
        15           Au  tau(  15) = (   0.2290899  -0.0360723   0.0000000  )
        16           Au  tau(  16) = (  -0.3957008   0.6132292   0.0000000  )
        17           Au  tau(  17) = (  -0.2707426   0.3967954   0.0000000  )
        18           Au  tau(  18) = (  -0.1457845   0.1803616   0.0000000  )
        19           Au  tau(  19) = (  -0.0208264  -0.0360723   0.0000000  )
        20           Au  tau(  20) = (   0.4790062   0.6853738   0.2040557  )
        21           Au  tau(  21) = (   0.6039644   0.4689400   0.2040557  )
        22           Au  tau(  22) = (   0.7289225   0.2525061   0.2040557  )
        23           Au  tau(  23) = (   0.8538806   0.0360723   0.2040557  )
        24           Au  tau(  24) = (   0.2290899   0.6853738   0.2040557  )
        25           Au  tau(  25) = (   0.3540481   0.4689400   0.2040557  )
        26           Au  tau(  26) = (   0.4790062   0.2525061   0.2040557  )
        27           Au  tau(  27) = (   0.6039644   0.0360723   0.2040557  )
        28           Au  tau(  28) = (  -0.0208264   0.6853738   0.2040557  )
        29           Au  tau(  29) = (   0.1041318   0.4689400   0.2040557  )
        30           Au  tau(  30) = (   0.2290899   0.2525061   0.2040557  )
        31           Au  tau(  31) = (   0.3540481   0.0360723   0.2040557  )
        32           Au  tau(  32) = (  -0.2707426   0.6853738   0.2040557  )
        33           Au  tau(  33) = (  -0.1457845   0.4689400   0.2040557  )
        34           Au  tau(  34) = (  -0.0208264   0.2525061   0.2040557  )
        35           Au  tau(  35) = (   0.1041318   0.0360723   0.2040557  )
        36           Au  tau(  36) = (   0.3541162   0.7576593   0.4066483  )
        37           Au  tau(  37) = (   0.4791000   0.5411421   0.4066695  )
        38           Au  tau(  38) = (   0.6040570   0.3246862   0.4066617  )
        39           Au  tau(  39) = (   0.7290270   0.1081684   0.4066529  )
        40           Au  tau(  40) = (   0.1041162   0.7576236   0.4066247  )
        41           Au  tau(  41) = (   0.2291001   0.5411063   0.4066455  )
        42           Au  tau(  42) = (   0.3540567   0.3246505   0.4066380  )
        43           Au  tau(  43) = (   0.4790276   0.1081324   0.4066292  )
        44           Au  tau(  44) = (  -0.1458201   0.7576104   0.4066224  )
        45           Au  tau(  45) = (  -0.0208365   0.5410930   0.4066438  )
        46           Au  tau(  46) = (   0.1041202   0.3246372   0.4066359  )
        47           Au  tau(  47) = (   0.2290908   0.1081193   0.4066273  )
        48           Au  tau(  48) = (  -0.3958167   0.7575791   0.4065812  )
        49           Au  tau(  49) = (  -0.2708328   0.5410617   0.4066025  )
        50           Au  tau(  50) = (  -0.1458763   0.3246061   0.4065947  )
        51           Au  tau(  51) = (  -0.0209056   0.1080882   0.4065858  )
        52           Au  tau(  52) = (   0.3541085   0.6133344   0.6129762  )
        53           Au  tau(  53) = (   0.4790780   0.3968269   0.6129968  )
        54           Au  tau(  54) = (   0.6040356   0.1803811   0.6129859  )
        55           Au  tau(  55) = (   0.7290165  -0.0361221   0.6129385  )
        56           Au  tau(  56) = (   0.1041243   0.6133091   0.6130022  )
        57           Au  tau(  57) = (   0.2290941   0.3968013   0.6130241  )
        58           Au  tau(  58) = (   0.3540515   0.1803552   0.6130121  )
        59           Au  tau(  59) = (   0.4790323  -0.0361475   0.6129659  )
        60           Au  tau(  60) = (  -0.1458030   0.6133014   0.6129980  )
        61           Au  tau(  61) = (  -0.0208339   0.3967936   0.6130188  )
        62           Au  tau(  62) = (   0.1041239   0.1803477   0.6130083  )
        63           Au  tau(  63) = (   0.2291046  -0.0361554   0.6129607  )
        64           Au  tau(  64) = (  -0.3957908   0.6132739   0.6129471  )
        65           Au  tau(  65) = (  -0.2708208   0.3967658   0.6129688  )
        66           Au  tau(  66) = (  -0.1458636   0.1803200   0.6129569  )
        67           Au  tau(  67) = (  -0.0208823  -0.0361826   0.6129110  )

     number of k points=    12  Marzari-Vanderbilt smearing, width (Ry)=  0.0200
                       cart. coord. in units 2pi/alat
        k(    1) = (   0.2500000   0.4330127   0.1111111), wk =   0.1666667
        k(    2) = (   0.2500000  -0.1443376   0.1111111), wk =   0.1666667
        k(    3) = (  -0.2500000  -0.4330127   0.1111111), wk =   0.1666667
        k(    4) = (  -0.2500000   0.4330127  -0.1111111), wk =   0.1666667
        k(    5) = (   0.2500000  -0.4330127  -0.1111111), wk =   0.1666667
        k(    6) = (   0.5000000   0.0000000   0.1111111), wk =   0.1666667
        k(    7) = (  -0.5000000   0.0000000   0.1111111), wk =   0.1666667
        k(    8) = (  -0.2500000   0.1443376   0.1111111), wk =   0.1666667
        k(    9) = (  -0.2500000  -0.1443376  -0.1111111), wk =   0.1666667
        k(   10) = (   0.2500000   0.1443376  -0.1111111), wk =   0.1666667
        k(   11) = (   0.0000000  -0.2886751   0.1111111), wk =   0.1666667
        k(   12) = (   0.0000000   0.2886751   0.1111111), wk =   0.1666667

     Dense  grid:  3097177 G-vectors     FFT dimensions: ( 150, 150, 360)

     Smooth grid:  1095093 G-vectors     FFT dimensions: ( 108, 108, 240)

     Largest allocated arrays     est. size (Mb)     dimensions
        Kohn-Sham Wavefunctions        28.01 Mb     (    4299,  427)
        NL pseudopotentials            55.23 Mb     (    4299,  842)
        Each V/rho on FFT grid          4.12 Mb     (  270000)
        Each G-vector array             0.74 Mb     (   96788)
        G-vector shells                 0.16 Mb     (   21404)
     Largest temporary arrays     est. size (Mb)     dimensions
        Auxiliary wavefunctions       112.04 Mb     (    4299, 1708)
        Each subspace H/S matrix       44.51 Mb     (    1708, 1708)
        Each <psi_i|beta_j> matrix      5.49 Mb     (     842,  427)
        Arrays for rho mixing          32.96 Mb     (  270000,    8)

     Initial potential from superposition of free atoms
     Check: negative starting charge=   -1.730345

     starting charge  711.25682, renormalised to  712.00000

     negative rho (up, down):  1.732E+00 0.000E+00


     ************************************************************************
     *
     * You are using vdW-DF for exchange-correlation in this calculation.
     * Please cite the following three references that made this development
     * possible:
     *
     *   M. Dion, H. Rydberg, E. Schroder, D. C. Langreth, and
     *   B. I. Lundqvist, Phys. Rev. Lett. 92, 246401 (2004).
     *
     *   T. Thonhauser, V. R. Cooper, S. Li, A. Puzder, P. Hyldgaard, and
     *   D. C. Langreth, Phys. Rev. B 76, 125112 (2007).
     *
     *   G. Roman-Perez and J. M. Soler, Phys. Rev. Lett. 103, 096102 (2009).
     *
     *
     * If you are using vdW-DF2, please also cite:
     *
     *   K. Lee, E. D. Murray, L. Kong, B. I. Lundqvist, and
     *   D. C. Langreth, Phys. Rev. B 82, 081101(R) (2010).
     *
     *
     * If you are calculating the stress with vdW-DF, please also cite:
     *
     *   R. Sabatini, E. Kucukbenli, B. Kolb, T. Thonhauser, and
     *   S. de Gironcoli, J. Phys.: Condens. Matter 24, 424209 (2012).
     *
     ************************************************************************

     Carrying out vdW-DF run using the following parameters:

     Nqs =      20    Nr_points =    1024   r_max =   100.000
     q_mesh =
               0.00001000     0.04494208     0.09755937     0.15916263
               0.23128650     0.31572767     0.41458969     0.53033537
               0.66584808     0.82450364     1.01025438     1.22772762
               1.48234092     1.78043706     2.12944203     2.53805004
               3.01644009     3.57652955     4.23227104     5.00000000

     Gradients computed in reciprocal space

     ************************************************************************


     Starting wfc are  582 randomized atomic wfcs

     total cpu time spent up to now is      161.1 secs

     Self-consistent Calculation

     iteration #  1     ecut=    50.00 Ry     beta=0.70
     Davidson diagonalization with overlap
     ethr =  1.00E-02,  avg # of iterations =  3.0

     Threshold (ethr) on eigenvalues was too large:
     Diagonalizing with lowered threshold

     Davidson diagonalization with overlap
     ethr =  3.44E-04,  avg # of iterations =  3.7

     negative rho (up, down):  1.727E+00 0.000E+00

     total cpu time spent up to now is      785.2 secs

     total energy              =   -6602.78627706 Ry
     Harris-Foulkes estimate   =   -6605.01272372 Ry
     estimated scf accuracy    <       2.79061309 Ry

     iteration #  2     ecut=    50.00 Ry     beta=0.70
     Davidson diagonalization with overlap
     ethr =  3.92E-04,  avg # of iterations = 11.0

     negative rho (up, down):  1.726E+00 0.000E+00

     total cpu time spent up to now is     1754.7 secs

     total energy              =   -6596.80323147 Ry
     Harris-Foulkes estimate   =   -6610.08620110 Ry
     estimated scf accuracy    <      73.94021051 Ry

     iteration #  3     ecut=    50.00 Ry     beta=0.70
     Davidson diagonalization with overlap
     ethr =  3.92E-04,  avg # of iterations =  6.5

     negative rho (up, down):  1.736E+00 0.000E+00

     total cpu time spent up to now is     2397.1 secs

     total energy              =   -6603.29872631 Ry
     Harris-Foulkes estimate   =   -6604.97879867 Ry
     estimated scf accuracy    <       7.21554509 Ry

     iteration #  4     ecut=    50.00 Ry     beta=0.70
     Davidson diagonalization with overlap
     ethr =  3.92E-04,  avg # of iterations =  6.3

     negative rho (up, down):  1.739E+00 0.000E+00

     total cpu time spent up to now is     2787.0 secs

     total energy              =   -6603.40269151 Ry
     Harris-Foulkes estimate   =   -6605.28368470 Ry
     estimated scf accuracy    <      19.46611844 Ry

     iteration #  5     ecut=    50.00 Ry     beta=0.70
     Davidson diagonalization with overlap
     ethr =  3.92E-04,  avg # of iterations =  6.7

     negative rho (up, down):  1.748E+00 0.000E+00

     total cpu time spent up to now is     3172.5 secs

     total energy              =   -6604.34090021 Ry
     Harris-Foulkes estimate   =   -6604.55644466 Ry
     estimated scf accuracy    <       1.19823195 Ry

     iteration #  6     ecut=    50.00 Ry     beta=0.70
     Davidson diagonalization with overlap
     ethr =  1.68E-04,  avg # of iterations =  3.7

     negative rho (up, down):  1.752E+00 0.000E+00

     total cpu time spent up to now is     3500.8 secs

     total energy              =   -6604.40168965 Ry
     Harris-Foulkes estimate   =   -6604.44813430 Ry
     estimated scf accuracy    <       0.14050106 Ry

     iteration #  7     ecut=    50.00 Ry     beta=0.70
     Davidson diagonalization with overlap
     ethr =  1.97E-05,  avg # of iterations = 13.2

     negative rho (up, down):  1.754E+00 0.000E+00

     total cpu time spent up to now is     4008.8 secs

     total energy              =   -6604.41239745 Ry
     Harris-Foulkes estimate   =   -6604.43525832 Ry
     estimated scf accuracy    <       0.09103779 Ry

     iteration #  8     ecut=    50.00 Ry     beta=0.70
     Davidson diagonalization with overlap
     ethr =  1.28E-05,  avg # of iterations =  4.8

     negative rho (up, down):  1.755E+00 0.000E+00

     total cpu time spent up to now is     4354.6 secs

     total energy              =   -6604.41500115 Ry
     Harris-Foulkes estimate   =   -6604.42733999 Ry
     estimated scf accuracy    <       0.04267116 Ry

     iteration #  9     ecut=    50.00 Ry     beta=0.70
     Davidson diagonalization with overlap
     ethr =  5.99E-06,  avg # of iterations =  6.4

     negative rho (up, down):  1.756E+00 0.000E+00

     total cpu time spent up to now is     4763.4 secs

     total energy              =   -6604.41749929 Ry
     Harris-Foulkes estimate   =   -6604.42173015 Ry
     estimated scf accuracy    <       0.01200673 Ry

     iteration # 10     ecut=    50.00 Ry     beta=0.70
     Davidson diagonalization with overlap
     c_bands:  2 eigenvalues not converged
     ethr =  1.69E-06,  avg # of iterations =  7.2

     negative rho (up, down):  1.756E+00 0.000E+00

     total cpu time spent up to now is     5159.5 secs

     total energy              =   -6604.41864208 Ry
     Harris-Foulkes estimate   =   -6604.42002460 Ry
     estimated scf accuracy    <       0.00434634 Ry

     iteration # 11     ecut=    50.00 Ry     beta=0.70
     Davidson diagonalization with overlap
     ethr =  6.10E-07,  avg # of iterations =  2.1

     negative rho (up, down):  1.757E+00 0.000E+00

     total cpu time spent up to now is     5462.8 secs

     total energy              =   -6604.41908122 Ry
     Harris-Foulkes estimate   =   -6604.41956143 Ry
     estimated scf accuracy    <       0.00164100 Ry

     iteration # 12     ecut=    50.00 Ry     beta=0.70
     Davidson diagonalization with overlap
     ethr =  2.30E-07,  avg # of iterations =  2.0

     negative rho (up, down):  1.757E+00 0.000E+00

     total cpu time spent up to now is     5771.1 secs

     total energy              =   -6604.41924649 Ry
     Harris-Foulkes estimate   =   -6604.41935035 Ry
     estimated scf accuracy    <       0.00026163 Ry

     iteration # 13     ecut=    50.00 Ry     beta=0.70
     Davidson diagonalization with overlap
     ethr =  3.67E-08,  avg # of iterations =  3.0

     negative rho (up, down):  1.757E+00 0.000E+00

     total cpu time spent up to now is     6127.3 secs

     total energy              =   -6604.41924238 Ry
     Harris-Foulkes estimate   =   -6604.41935799 Ry
     estimated scf accuracy    <       0.00049483 Ry

     iteration # 14     ecut=    50.00 Ry     beta=0.70
     Davidson diagonalization with overlap
     ethr =  3.67E-08,  avg # of iterations =  2.0

     negative rho (up, down):  1.757E+00 0.000E+00

     total cpu time spent up to now is     6413.0 secs

     total energy              =   -6604.41929508 Ry
     Harris-Foulkes estimate   =   -6604.41930858 Ry
     estimated scf accuracy    <       0.00006616 Ry

     iteration # 15     ecut=    50.00 Ry     beta=0.70
     Davidson diagonalization with overlap
     ethr =  9.29E-09,  avg # of iterations =  2.0

     negative rho (up, down):  1.757E+00 0.000E+00

     total cpu time spent up to now is     6705.2 secs

     total energy              =   -6604.41930179 Ry
     Harris-Foulkes estimate   =   -6604.41930588 Ry
     estimated scf accuracy    <       0.00003326 Ry

     iteration # 16     ecut=    50.00 Ry     beta=0.70
     Davidson diagonalization with overlap
     ethr =  4.67E-09,  avg # of iterations =  2.0

     negative rho (up, down):  1.757E+00 0.000E+00

     total cpu time spent up to now is     6981.8 secs

     total energy              =   -6604.41930365 Ry
     Harris-Foulkes estimate   =   -6604.41930448 Ry
     estimated scf accuracy    <       0.00000302 Ry

     iteration # 17     ecut=    50.00 Ry     beta=0.70
     Davidson diagonalization with overlap
     ethr =  4.24E-10,  avg # of iterations =  2.2

     negative rho (up, down):  1.757E+00 0.000E+00

     total cpu time spent up to now is     7295.2 secs

     total energy              =   -6604.41930379 Ry
     Harris-Foulkes estimate   =   -6604.41930453 Ry
     estimated scf accuracy    <       0.00000286 Ry

     iteration # 18     ecut=    50.00 Ry     beta=0.70
     Davidson diagonalization with overlap
     ethr =  4.01E-10,  avg # of iterations =  2.0

     negative rho (up, down):  1.757E+00 0.000E+00

     total cpu time spent up to now is     7575.9 secs

     total energy              =   -6604.41930404 Ry
     Harris-Foulkes estimate   =   -6604.41930431 Ry
     estimated scf accuracy    <       0.00000107 Ry

     iteration # 19     ecut=    50.00 Ry     beta=0.70
     Davidson diagonalization with overlap
     ethr =  1.50E-10,  avg # of iterations =  2.0

     negative rho (up, down):  1.757E+00 0.000E+00

     total cpu time spent up to now is     7861.9 secs

     total energy              =   -6604.41930417 Ry
     Harris-Foulkes estimate   =   -6604.41930420 Ry
     estimated scf accuracy    <       0.00000010 Ry

     iteration # 20     ecut=    50.00 Ry     beta=0.70
     Davidson diagonalization with overlap
     ethr =  1.43E-11,  avg # of iterations =  3.0

     negative rho (up, down):  1.757E+00 0.000E+00

     total cpu time spent up to now is     8211.4 secs

     total energy              =   -6604.41930419 Ry
     Harris-Foulkes estimate   =   -6604.41930420 Ry
     estimated scf accuracy    <       0.00000001 Ry

     iteration # 21     ecut=    50.00 Ry     beta=0.70
     Davidson diagonalization with overlap
     ethr =  2.08E-12,  avg # of iterations =  3.0

     negative rho (up, down):  1.757E+00 0.000E+00

     total cpu time spent up to now is     8621.7 secs

     total energy              =   -6604.41930419 Ry
     Harris-Foulkes estimate   =   -6604.41930420 Ry
     estimated scf accuracy    <       0.00000001 Ry

     iteration # 22     ecut=    50.00 Ry     beta=0.70
     Davidson diagonalization with overlap
     ethr =  1.72E-12,  avg # of iterations =  2.0

     negative rho (up, down):  1.757E+00 0.000E+00

     total cpu time spent up to now is     8907.8 secs

     End of self-consistent calculation

          k = 0.2500 0.4330 0.1111 (136853 PWs)   bands (ev):

   -19.2564  -7.1827  -6.3140  -5.9161  -5.9147  -5.2391  -4.9050  -4.9044
    -4.8690  -4.8649  -4.5052  -4.5040  -4.4068  -4.4053  -4.3918  -4.3684
    -4.3521  -4.2390  -4.2371  -4.2138  -4.1704  -4.1700  -4.1050  -4.1013
    -4.0972  -4.0955  -4.0730  -4.0692  -4.0665  -4.0052  -3.9961  -3.9658
    -3.9646  -3.9547  -3.9527  -3.9294  -3.9291  -3.9068  -3.8986  -3.8982
    -3.8752  -3.8209  -3.8197  -3.7726  -3.7703  -3.7269  -3.7151  -3.6732
    -3.6589  -3.6571  -3.6567  -3.6215  -3.6000  -3.5873  -3.5767  -3.5757
    -3.5743  -3.5530  -3.5451  -3.5363  -3.4971  -3.4776  -3.4720  -3.4583
    -3.4422  -3.4176  -3.3691  -3.3649  -3.3409  -3.3352  -3.3081  -3.3023
    -3.2920  -3.2708  -3.2185  -3.2085  -3.1999  -3.1983  -3.1497  -3.1453
    -3.1437  -3.1021  -3.0752  -3.0736  -3.0643  -3.0631  -3.0539  -3.0529
    -3.0445  -3.0428  -3.0318  -2.9919  -2.9546  -2.9526  -2.9423  -2.9400
    -2.9120  -2.9064  -2.9046  -2.8807  -2.8370  -2.8354  -2.8278  -2.7911
    -2.7818  -2.7701  -2.7698  -2.7440  -2.7419  -2.7107  -2.6808  -2.6738
    -2.6555  -2.6439  -2.6355  -2.6308  -2.5833  -2.5812  -2.5486  -2.5279
    -2.5237  -2.5023  -2.4992  -2.4899  -2.4885  -2.4788  -2.4589  -2.4582
    -2.4119  -2.4099  -2.4090  -2.3954  -2.3934  -2.3852  -2.3839  -2.3798
    -2.3770  -2.3736  -2.3695  -2.3671  -2.3570  -2.3553  -2.3302  -2.3205
    -2.3190  -2.3182  -2.3161  -2.3141  -2.3124  -2.2885  -2.2854  -2.2710
    -2.2696  -2.2516  -2.2495  -2.2443  -2.2403  -2.2390  -2.2382  -2.2290
    -2.2212  -2.2174  -2.2168  -2.2020  -2.1740  -2.1720  -2.1319  -2.1309
    -2.1123  -2.1096  -2.0896  -2.0784  -2.0547  -2.0534  -2.0390  -2.0317
    -2.0133  -1.9977  -1.9876  -1.9790  -1.9763  -1.9709  -1.9633  -1.9624
    -1.9414  -1.9337  -1.9293  -1.8892  -1.8643  -1.8607  -1.8581  -1.8556
    -1.8338  -1.8014  -1.8002  -1.7758  -1.7712  -1.7173  -1.7151  -1.6896
    -1.6807  -1.6643  -1.6441  -1.6044  -1.6021  -1.5928  -1.5901  -1.5808
    -1.5785  -1.5749  -1.5670  -1.5551  -1.5148  -1.5078  -1.5000  -1.4975
    -1.4876  -1.4803  -1.4664  -1.4456  -1.4319  -1.4295  -1.4266  -1.4232
    -1.4182  -1.4112  -1.4045  -1.3864  -1.3841  -1.3742  -1.3477  -1.3379
    -1.3332  -1.3139  -1.2981  -1.2908  -1.2567  -1.2472  -1.2281  -1.2258
    -1.1973  -1.1905  -1.1477  -1.1414  -1.1404  -1.1376  -1.1345  -1.1281
    -1.1159  -1.1075  -1.0903  -1.0663  -1.0611  -1.0377  -1.0349  -1.0292
    -1.0251  -1.0221  -1.0066  -1.0051  -1.0038  -1.0015  -0.9967  -0.9630
    -0.9609  -0.9602  -0.9464  -0.9307  -0.9285  -0.9209  -0.8986  -0.8932
    -0.8776  -0.8464  -0.8414  -0.8271  -0.8061  -0.7946  -0.7874  -0.7853
    -0.7799  -0.7791  -0.7753  -0.7734  -0.7636  -0.7510  -0.7396  -0.7370
    -0.7328  -0.7320  -0.7285  -0.6949  -0.6946  -0.6866  -0.6746  -0.6656
    -0.6599  -0.6491  -0.6397  -0.5934  -0.5919  -0.5844  -0.5827  -0.5804
    -0.5774  -0.5682  -0.5562  -0.5544  -0.5473  -0.5462  -0.5443  -0.5316
    -0.5058  -0.5030  -0.5025  -0.4944  -0.4937  -0.4888  -0.4860  -0.4731
    -0.4686  -0.4671  -0.4461  -0.4262  -0.4229  -0.4181  -0.4126  -0.4095
    -0.3384  -0.3334  -0.3325  -0.3314  -0.3232  -0.3199  -0.2864  -0.2748
    -0.2745  -0.2449  -0.2420  -0.2150  -0.1201  -0.1073  -0.0128   0.3965
     0.3974   0.4017   0.4041   0.4610   0.4803   0.8469   0.8519   0.8908
     0.8983   1.0103   1.0883   1.1928   1.2064   1.4137   1.4364   2.0456
     2.0529   2.2060   2.2180   2.3409   2.3554   2.4470   2.4486   2.6014
     2.8381   2.8430   2.9644   3.1856   3.1922   3.2664   3.2718   3.3674
     3.3869   3.5760   3.5892   3.6410   3.8430   3.8448   3.9056   3.9100
     4.1611   4.1681   4.1768   4.4103   4.4500   4.4600   4.4984   4.8273
     4.8368   4.8617   4.9980   5.1731   5.1752   5.2154   5.2370   5.4761
     5.7927   5.9230   5.9570   5.9602   5.9695   6.0292   6.0351   6.1016
     6.1383   6.1609   6.1700   6.1947   6.2011   6.2185   6.2372   6.2548
     6.2718   6.4544   6.5731   6.7026   6.7522   6.7809   6.9026   6.9087
     6.9152   7.0225   7.0295

          k = 0.2500-0.1443 0.1111 (136898 PWs)   bands (ev):

   -19.2564  -7.1830  -6.5233  -5.7329  -5.4424  -5.3832  -5.3823  -4.8453
    -4.8441  -4.7148  -4.7123  -4.5584  -4.5313  -4.4648  -4.4360  -4.4323
    -4.3989  -4.3975  -4.2689  -4.2272  -4.2271  -4.1690  -4.1504  -4.1469
    -4.0451  -4.0438  -4.0084  -4.0072  -4.0070  -3.9820  -3.9605  -3.9589
    -3.8592  -3.8523  -3.8518  -3.8332  -3.8178  -3.8143  -3.8046  -3.8031
    -3.7921  -3.7635  -3.7596  -3.7584  -3.7574  -3.7316  -3.7275  -3.7103
    -3.7075  -3.7008  -3.6752  -3.6562  -3.6225  -3.6116  -3.6088  -3.5990
    -3.5988  -3.5322  -3.5248  -3.5077  -3.4933  -3.4885  -3.4481  -3.4193
    -3.4176  -3.4037  -3.3919  -3.3761  -3.3745  -3.3733  -3.3487  -3.2181
    -3.2171  -3.1970  -3.1948  -3.1905  -3.1723  -3.1699  -3.1476  -3.1446
    -3.0965  -3.0956  -3.0811  -3.0786  -3.0596  -3.0146  -3.0113  -2.9940
    -2.9880  -2.9857  -2.9469  -2.9458  -2.9381  -2.9365  -2.9237  -2.9183
    -2.8840  -2.8827  -2.8651  -2.8609  -2.8580  -2.8562  -2.8528  -2.7799
    -2.7784  -2.7756  -2.7471  -2.7453  -2.6932  -2.6833  -2.6565  -2.6556
    -2.6451  -2.6425  -2.6350  -2.6101  -2.6066  -2.5960  -2.5805  -2.5586
    -2.5563  -2.5515  -2.5354  -2.5335  -2.5266  -2.5239  -2.5197  -2.5159
    -2.5075  -2.4620  -2.4350  -2.4327  -2.4180  -2.4036  -2.3985  -2.3959
    -2.3894  -2.3865  -2.3841  -2.3622  -2.3578  -2.3556  -2.3463  -2.3455
    -2.3311  -2.3052  -2.3034  -2.3022  -2.3008  -2.2990  -2.2525  -2.2293
    -2.2238  -2.2223  -2.2171  -2.2108  -2.2047  -2.1959  -2.1765  -2.1760
    -2.1508  -2.1458  -2.1421  -2.1397  -2.1244  -2.1235  -2.0987  -2.0907
    -2.0581  -2.0537  -2.0441  -2.0420  -2.0391  -2.0370  -2.0330  -2.0301
    -2.0272  -2.0258  -2.0221  -2.0091  -2.0055  -1.9270  -1.8806  -1.8647
    -1.8462  -1.8399  -1.8332  -1.8314  -1.8254  -1.8186  -1.8163  -1.8120
    -1.8092  -1.7987  -1.7867  -1.7826  -1.7803  -1.7682  -1.7669  -1.7492
    -1.7441  -1.7216  -1.7159  -1.6923  -1.6865  -1.6733  -1.6675  -1.6481
    -1.6457  -1.6434  -1.6283  -1.6251  -1.6128  -1.6090  -1.6055  -1.5902
    -1.5805  -1.5749  -1.5646  -1.5458  -1.5297  -1.5233  -1.4856  -1.4731
    -1.4641  -1.4559  -1.4529  -1.4287  -1.4279  -1.4128  -1.3959  -1.3920
    -1.3830  -1.3570  -1.3512  -1.3336  -1.3315  -1.3274  -1.3091  -1.3067
    -1.2785  -1.2756  -1.2723  -1.2336  -1.2104  -1.2078  -1.1988  -1.1853
    -1.1823  -1.1736  -1.1683  -1.1611  -1.1490  -1.1364  -1.1104  -1.1075
    -1.0938  -1.0640  -1.0599  -1.0505  -1.0468  -1.0458  -1.0438  -1.0398
    -1.0238  -1.0231  -0.9988  -0.9964  -0.9849  -0.9823  -0.9803  -0.9626
    -0.9579  -0.9409  -0.9265  -0.9189  -0.8885  -0.8253  -0.8144  -0.8084
    -0.8075  -0.8025  -0.7980  -0.7884  -0.7751  -0.7632  -0.7582  -0.7481
    -0.7426  -0.7365  -0.7325  -0.7150  -0.7115  -0.7027  -0.6817  -0.6285
    -0.6280  -0.5969  -0.5912  -0.5879  -0.5857  -0.5814  -0.5803  -0.5747
    -0.5685  -0.5635  -0.5307  -0.5249  -0.5073  -0.4948  -0.4891  -0.4826
    -0.4778  -0.4709  -0.4679  -0.4667  -0.4650  -0.4587  -0.4483  -0.4441
    -0.4386  -0.4139  -0.4118  -0.4108  -0.3983  -0.3973  -0.3786  -0.3476
    -0.3464  -0.3381  -0.3355  -0.2700  -0.2697  -0.2348  -0.2343  -0.1774
    -0.1769  -0.1742  -0.1514  -0.1465   0.0775   0.1012   0.4263   0.4268
     0.5139   0.5350   0.7124   0.7389   0.7540   0.8705   0.8812   1.3068
     1.3082   1.3234   1.5866   1.6161   1.6209   1.8867   1.9071   1.9702
     1.9743   1.9936   2.0157   2.2253   2.2331   2.3172   2.3193   2.3904
     2.4509   2.4759   2.6211   2.7234   3.1519   3.1576   3.1605   3.1727
     3.2132   3.2263   3.5096   3.5130   3.7841   3.8017   3.8978   4.2066
     4.2400   4.2535   4.4406   4.4861   4.5478   4.5504   4.6427   4.7563
     4.7608   4.8748   4.8781   5.1770   5.2348   5.2465   5.3304   5.4313
     5.4541   5.6271   5.6413   5.6642   5.6666   5.7209   5.7278   5.7784
     5.8781   6.0591   6.2667   6.3292   6.3483   6.4621   6.4709   6.4798
     6.4860   6.5433   6.6672   6.7029   6.7305   6.8424   6.9151   6.9346
     6.9824   7.0485   7.0764

          k =-0.2500-0.4330 0.1111 (136853 PWs)   bands (ev):

   -19.2564  -7.1826  -6.3140  -5.9161  -5.9147  -5.2391  -4.9050  -4.9044
    -4.8690  -4.8649  -4.5052  -4.5040  -4.4068  -4.4053  -4.3918  -4.3684
    -4.3521  -4.2390  -4.2371  -4.2138  -4.1704  -4.1700  -4.1050  -4.1013
    -4.0972  -4.0955  -4.0730  -4.0692  -4.0665  -4.0052  -3.9961  -3.9658
    -3.9646  -3.9546  -3.9527  -3.9294  -3.9291  -3.9068  -3.8986  -3.8982
    -3.8752  -3.8209  -3.8197  -3.7726  -3.7703  -3.7269  -3.7151  -3.6732
    -3.6589  -3.6571  -3.6567  -3.6215  -3.6000  -3.5873  -3.5767  -3.5757
    -3.5743  -3.5530  -3.5451  -3.5363  -3.4971  -3.4776  -3.4720  -3.4583
    -3.4422  -3.4176  -3.3691  -3.3649  -3.3409  -3.3352  -3.3081  -3.3023
    -3.2920  -3.2708  -3.2185  -3.2085  -3.1999  -3.1983  -3.1497  -3.1453
    -3.1437  -3.1021  -3.0752  -3.0736  -3.0643  -3.0631  -3.0539  -3.0529
    -3.0445  -3.0428  -3.0318  -2.9919  -2.9546  -2.9526  -2.9423  -2.9400
    -2.9120  -2.9064  -2.9046  -2.8807  -2.8370  -2.8354  -2.8278  -2.7911
    -2.7818  -2.7701  -2.7698  -2.7440  -2.7419  -2.7107  -2.6808  -2.6738
    -2.6555  -2.6439  -2.6355  -2.6308  -2.5833  -2.5812  -2.5486  -2.5279
    -2.5237  -2.5023  -2.4992  -2.4899  -2.4885  -2.4788  -2.4589  -2.4582
    -2.4119  -2.4099  -2.4090  -2.3954  -2.3934  -2.3852  -2.3839  -2.3798
    -2.3770  -2.3736  -2.3695  -2.3671  -2.3570  -2.3553  -2.3302  -2.3205
    -2.3190  -2.3182  -2.3161  -2.3141  -2.3124  -2.2885  -2.2854  -2.2710
    -2.2696  -2.2516  -2.2495  -2.2443  -2.2403  -2.2390  -2.2382  -2.2290
    -2.2212  -2.2174  -2.2168  -2.2020  -2.1740  -2.1720  -2.1319  -2.1309
    -2.1123  -2.1096  -2.0896  -2.0784  -2.0547  -2.0534  -2.0390  -2.0317
    -2.0133  -1.9977  -1.9876  -1.9790  -1.9763  -1.9709  -1.9633  -1.9624
    -1.9414  -1.9337  -1.9293  -1.8892  -1.8643  -1.8607  -1.8581  -1.8556
    -1.8338  -1.8014  -1.8002  -1.7758  -1.7712  -1.7173  -1.7151  -1.6896
    -1.6807  -1.6643  -1.6441  -1.6044  -1.6021  -1.5928  -1.5901  -1.5808
    -1.5785  -1.5749  -1.5670  -1.5551  -1.5148  -1.5078  -1.5000  -1.4975
    -1.4876  -1.4803  -1.4664  -1.4456  -1.4319  -1.4295  -1.4266  -1.4232
    -1.4182  -1.4112  -1.4045  -1.3864  -1.3841  -1.3742  -1.3477  -1.3379
    -1.3332  -1.3139  -1.2981  -1.2908  -1.2567  -1.2472  -1.2281  -1.2258
    -1.1973  -1.1905  -1.1477  -1.1414  -1.1404  -1.1376  -1.1345  -1.1281
    -1.1159  -1.1075  -1.0903  -1.0663  -1.0611  -1.0377  -1.0349  -1.0292
    -1.0251  -1.0221  -1.0066  -1.0051  -1.0038  -1.0015  -0.9967  -0.9630
    -0.9609  -0.9602  -0.9464  -0.9307  -0.9285  -0.9209  -0.8986  -0.8932
    -0.8776  -0.8464  -0.8414  -0.8271  -0.8061  -0.7946  -0.7874  -0.7853
    -0.7799  -0.7791  -0.7753  -0.7734  -0.7636  -0.7510  -0.7396  -0.7370
    -0.7328  -0.7320  -0.7285  -0.6949  -0.6946  -0.6866  -0.6746  -0.6656
    -0.6599  -0.6491  -0.6397  -0.5934  -0.5919  -0.5844  -0.5827  -0.5804
    -0.5774  -0.5682  -0.5562  -0.5544  -0.5473  -0.5462  -0.5443  -0.5316
    -0.5058  -0.5030  -0.5025  -0.4944  -0.4937  -0.4888  -0.4860  -0.4731
    -0.4686  -0.4671  -0.4461  -0.4262  -0.4229  -0.4181  -0.4126  -0.4095
    -0.3384  -0.3334  -0.3325  -0.3314  -0.3232  -0.3199  -0.2864  -0.2748
    -0.2745  -0.2449  -0.2420  -0.2150  -0.1201  -0.1073  -0.0128   0.3965
     0.3974   0.4017   0.4041   0.4610   0.4803   0.8469   0.8519   0.8908
     0.8983   1.0103   1.0883   1.1928   1.2064   1.4137   1.4364   2.0456
     2.0529   2.2060   2.2180   2.3409   2.3554   2.4470   2.4486   2.6014
     2.8381   2.8430   2.9644   3.1856   3.1922   3.2664   3.2718   3.3674
     3.3869   3.5760   3.5892   3.6410   3.8430   3.8448   3.9056   3.9100
     4.1611   4.1681   4.1768   4.4103   4.4500   4.4600   4.4984   4.8273
     4.8368   4.8617   4.9980   5.1731   5.1752   5.2153   5.2370   5.4761
     5.7924   5.9229   5.9570   5.9601   5.9695   6.0291   6.0352   6.1012
     6.1385   6.1633   6.1700   6.1947   6.2012   6.2184   6.2367   6.2548
     6.2717   6.4538   6.5740   6.6987   6.7510   6.7804   6.9021   6.9084
     6.9147   7.0221   7.0384

          k =-0.2500 0.4330-0.1111 (136853 PWs)   bands (ev):

   -19.2564  -7.1826  -6.3141  -5.9170  -5.9137  -5.2392  -4.9058  -4.9034
    -4.8694  -4.8647  -4.5053  -4.5038  -4.4066  -4.4054  -4.3918  -4.3684
    -4.3516  -4.2404  -4.2364  -4.2140  -4.1707  -4.1698  -4.1049  -4.1015
    -4.0969  -4.0956  -4.0731  -4.0694  -4.0666  -4.0050  -3.9965  -3.9661
    -3.9638  -3.9541  -3.9526  -3.9296  -3.9292  -3.9066  -3.8991  -3.8982
    -3.8752  -3.8216  -3.8195  -3.7727  -3.7697  -3.7246  -3.7164  -3.6713
    -3.6604  -3.6570  -3.6566  -3.6222  -3.6013  -3.5881  -3.5769  -3.5762
    -3.5739  -3.5572  -3.5446  -3.5365  -3.4978  -3.4778  -3.4737  -3.4535
    -3.4413  -3.4179  -3.3694  -3.3601  -3.3402  -3.3317  -3.3078  -3.3032
    -3.2920  -3.2727  -3.2198  -3.2111  -3.2001  -3.1973  -3.1499  -3.1462
    -3.1431  -3.1021  -3.0760  -3.0736  -3.0655  -3.0612  -3.0555  -3.0533
    -3.0436  -3.0409  -3.0323  -2.9917  -2.9549  -2.9525  -2.9418  -2.9392
    -2.9119  -2.9073  -2.9035  -2.8806  -2.8378  -2.8348  -2.8294  -2.7908
    -2.7818  -2.7712  -2.7689  -2.7477  -2.7405  -2.7107  -2.6782  -2.6747
    -2.6552  -2.6440  -2.6338  -2.6309  -2.5850  -2.5805  -2.5485  -2.5259
    -2.5242  -2.5068  -2.4989  -2.4897  -2.4871  -2.4785  -2.4594  -2.4581
    -2.4113  -2.4095  -2.4091  -2.3961  -2.3928  -2.3849  -2.3833  -2.3790
    -2.3782  -2.3734  -2.3672  -2.3666  -2.3563  -2.3533  -2.3329  -2.3210
    -2.3194  -2.3182  -2.3160  -2.3144  -2.3122  -2.2919  -2.2857  -2.2718
    -2.2700  -2.2517  -2.2497  -2.2469  -2.2401  -2.2396  -2.2377  -2.2274
    -2.2214  -2.2167  -2.2162  -2.2024  -2.1740  -2.1727  -2.1326  -2.1297
    -2.1128  -2.1088  -2.0834  -2.0798  -2.0667  -2.0536  -2.0421  -2.0319
    -2.0113  -1.9984  -1.9865  -1.9782  -1.9761  -1.9713  -1.9660  -1.9632
    -1.9405  -1.9317  -1.9283  -1.8788  -1.8656  -1.8601  -1.8579  -1.8563
    -1.8288  -1.8018  -1.7996  -1.7762  -1.7720  -1.7176  -1.7143  -1.6966
    -1.6767  -1.6654  -1.6463  -1.6053  -1.5992  -1.5929  -1.5888  -1.5821
    -1.5789  -1.5751  -1.5670  -1.5561  -1.5131  -1.5048  -1.4992  -1.4981
    -1.4935  -1.4806  -1.4644  -1.4453  -1.4349  -1.4296  -1.4280  -1.4213
    -1.4178  -1.4088  -1.4034  -1.3868  -1.3852  -1.3757  -1.3496  -1.3410
    -1.3323  -1.3151  -1.2963  -1.2773  -1.2575  -1.2434  -1.2279  -1.2257
    -1.2021  -1.1937  -1.1463  -1.1423  -1.1409  -1.1365  -1.1344  -1.1266
    -1.1226  -1.1060  -1.0857  -1.0694  -1.0628  -1.0379  -1.0350  -1.0299
    -1.0253  -1.0219  -1.0068  -1.0055  -1.0038  -1.0016  -0.9929  -0.9648
    -0.9617  -0.9593  -0.9469  -0.9317  -0.9302  -0.9253  -0.8985  -0.8930
    -0.8731  -0.8468  -0.8412  -0.8246  -0.8055  -0.7949  -0.7881  -0.7857
    -0.7805  -0.7782  -0.7766  -0.7709  -0.7645  -0.7498  -0.7402  -0.7382
    -0.7343  -0.7331  -0.7254  -0.6952  -0.6936  -0.6860  -0.6763  -0.6657
    -0.6607  -0.6487  -0.6277  -0.5937  -0.5914  -0.5843  -0.5820  -0.5812
    -0.5781  -0.5689  -0.5574  -0.5522  -0.5474  -0.5454  -0.5436  -0.5349
    -0.5058  -0.5046  -0.4997  -0.4949  -0.4924  -0.4880  -0.4864  -0.4720
    -0.4683  -0.4673  -0.4470  -0.4257  -0.4242  -0.4181  -0.4129  -0.4104
    -0.3397  -0.3333  -0.3326  -0.3296  -0.3235  -0.3210  -0.2869  -0.2759
    -0.2737  -0.2462  -0.2419  -0.2119  -0.1231  -0.1133  -0.0169   0.3966
     0.3983   0.4014   0.4042   0.4601   0.4798   0.8480   0.8537   0.8910
     0.8973   1.0116   1.0878   1.1893   1.2094   1.4108   1.4379   2.0449
     2.0555   2.2025   2.2218   2.3374   2.3563   2.4466   2.4486   2.6017
     2.8323   2.8516   2.9645   3.1810   3.1962   3.2659   3.2733   3.3710
     3.3870   3.5697   3.5948   3.6424   3.8415   3.8459   3.9010   3.9131
     4.1587   4.1640   4.1843   4.4105   4.4462   4.4611   4.4988   4.8277
     4.8373   4.8621   4.9940   5.1724   5.1760   5.2023   5.2430   5.4779
     5.8097   5.9173   5.9470   5.9619   5.9717   6.0271   6.0368   6.1111
     6.1414   6.1542   6.1701   6.1995   6.2074   6.2132   6.2343   6.2533
     6.2789   6.4557   6.5568   6.7023   6.7515   6.7671   6.8923   6.9110
     6.9152   7.0208   7.0527

          k = 0.2500-0.4330-0.1111 (136853 PWs)   bands (ev):

   -19.2564  -7.1826  -6.3141  -5.9170  -5.9137  -5.2392  -4.9058  -4.9034
    -4.8694  -4.8647  -4.5053  -4.5038  -4.4066  -4.4054  -4.3918  -4.3684
    -4.3516  -4.2404  -4.2364  -4.2140  -4.1707  -4.1698  -4.1049  -4.1015
    -4.0969  -4.0956  -4.0731  -4.0694  -4.0666  -4.0050  -3.9965  -3.9661
    -3.9638  -3.9541  -3.9526  -3.9296  -3.9292  -3.9066  -3.8991  -3.8982
    -3.8752  -3.8216  -3.8195  -3.7727  -3.7697  -3.7246  -3.7164  -3.6713
    -3.6604  -3.6570  -3.6566  -3.6222  -3.6013  -3.5881  -3.5769  -3.5762
    -3.5739  -3.5572  -3.5446  -3.5365  -3.4978  -3.4778  -3.4737  -3.4535
    -3.4413  -3.4179  -3.3694  -3.3601  -3.3402  -3.3317  -3.3078  -3.3032
    -3.2920  -3.2727  -3.2198  -3.2111  -3.2001  -3.1973  -3.1499  -3.1462
    -3.1431  -3.1021  -3.0760  -3.0736  -3.0655  -3.0612  -3.0555  -3.0533
    -3.0436  -3.0409  -3.0323  -2.9917  -2.9549  -2.9525  -2.9418  -2.9392
    -2.9119  -2.9073  -2.9035  -2.8806  -2.8378  -2.8348  -2.8294  -2.7908
    -2.7818  -2.7712  -2.7689  -2.7477  -2.7405  -2.7107  -2.6782  -2.6747
    -2.6552  -2.6440  -2.6338  -2.6309  -2.5850  -2.5805  -2.5485  -2.5259
    -2.5242  -2.5068  -2.4989  -2.4897  -2.4871  -2.4785  -2.4594  -2.4581
    -2.4113  -2.4095  -2.4091  -2.3961  -2.3928  -2.3849  -2.3833  -2.3790
    -2.3782  -2.3734  -2.3672  -2.3666  -2.3563  -2.3533  -2.3329  -2.3210
    -2.3194  -2.3182  -2.3160  -2.3144  -2.3122  -2.2919  -2.2857  -2.2718
    -2.2700  -2.2517  -2.2497  -2.2469  -2.2401  -2.2396  -2.2377  -2.2274
    -2.2214  -2.2167  -2.2162  -2.2024  -2.1740  -2.1727  -2.1326  -2.1297
    -2.1128  -2.1088  -2.0834  -2.0798  -2.0667  -2.0536  -2.0421  -2.0319
    -2.0113  -1.9984  -1.9865  -1.9782  -1.9761  -1.9713  -1.9660  -1.9633
    -1.9405  -1.9317  -1.9283  -1.8788  -1.8656  -1.8601  -1.8579  -1.8563
    -1.8288  -1.8018  -1.7996  -1.7762  -1.7720  -1.7176  -1.7143  -1.6966
    -1.6767  -1.6654  -1.6463  -1.6053  -1.5992  -1.5929  -1.5888  -1.5821
    -1.5789  -1.5751  -1.5670  -1.5561  -1.5131  -1.5048  -1.4992  -1.4981
    -1.4935  -1.4806  -1.4644  -1.4453  -1.4349  -1.4296  -1.4280  -1.4213
    -1.4178  -1.4088  -1.4034  -1.3868  -1.3852  -1.3757  -1.3496  -1.3410
    -1.3323  -1.3151  -1.2963  -1.2773  -1.2575  -1.2434  -1.2279  -1.2257
    -1.2021  -1.1937  -1.1463  -1.1423  -1.1409  -1.1365  -1.1344  -1.1266
    -1.1226  -1.1060  -1.0857  -1.0694  -1.0628  -1.0379  -1.0350  -1.0299
    -1.0253  -1.0219  -1.0068  -1.0055  -1.0038  -1.0016  -0.9929  -0.9648
    -0.9617  -0.9593  -0.9469  -0.9317  -0.9302  -0.9253  -0.8985  -0.8930
    -0.8731  -0.8468  -0.8412  -0.8246  -0.8055  -0.7949  -0.7881  -0.7857
    -0.7805  -0.7782  -0.7766  -0.7709  -0.7645  -0.7498  -0.7402  -0.7382
    -0.7343  -0.7331  -0.7254  -0.6952  -0.6936  -0.6860  -0.6763  -0.6657
    -0.6607  -0.6487  -0.6277  -0.5937  -0.5914  -0.5843  -0.5820  -0.5812
    -0.5781  -0.5689  -0.5574  -0.5522  -0.5474  -0.5454  -0.5436  -0.5349
    -0.5058  -0.5046  -0.4997  -0.4949  -0.4924  -0.4880  -0.4864  -0.4720
    -0.4683  -0.4673  -0.4470  -0.4257  -0.4242  -0.4181  -0.4129  -0.4104
    -0.3397  -0.3333  -0.3326  -0.3296  -0.3235  -0.3210  -0.2869  -0.2759
    -0.2737  -0.2462  -0.2419  -0.2119  -0.1231  -0.1133  -0.0169   0.3966
     0.3983   0.4014   0.4042   0.4601   0.4798   0.8480   0.8537   0.8910
     0.8973   1.0116   1.0878   1.1893   1.2094   1.4108   1.4379   2.0449
     2.0555   2.2025   2.2218   2.3374   2.3563   2.4466   2.4486   2.6017
     2.8323   2.8516   2.9645   3.1810   3.1962   3.2659   3.2733   3.3710
     3.3870   3.5697   3.5948   3.6424   3.8415   3.8459   3.9010   3.9131
     4.1587   4.1640   4.1843   4.4105   4.4462   4.4611   4.4988   4.8277
     4.8373   4.8621   4.9940   5.1724   5.1760   5.2023   5.2430   5.4779
     5.8098   5.9174   5.9471   5.9619   5.9718   6.0271   6.0368   6.1115
     6.1413   6.1539   6.1694   6.1994   6.2069   6.2125   6.2345   6.2533
     6.2791   6.4559   6.5563   6.7119   6.7511   6.7663   6.8929   6.9121
     6.9152   7.0235   7.0338

          k = 0.5000 0.0000 0.1111 (136853 PWs)   bands (ev):

   -19.2564  -7.1827  -6.3140  -5.9175  -5.9133  -5.2389  -4.9051  -4.9049
    -4.8707  -4.8634  -4.5053  -4.5031  -4.4061  -4.4053  -4.3913  -4.3684
    -4.3515  -4.2413  -4.2370  -4.2148  -4.1704  -4.1699  -4.1049  -4.1008
    -4.0993  -4.0962  -4.0729  -4.0696  -4.0662  -4.0055  -3.9960  -3.9662
    -3.9642  -3.9535  -3.9525  -3.9296  -3.9290  -3.9067  -3.8990  -3.8982
    -3.8736  -3.8206  -3.8198  -3.7725  -3.7697  -3.7181  -3.7163  -3.6649
    -3.6599  -3.6573  -3.6567  -3.6243  -3.6039  -3.5885  -3.5828  -3.5763
    -3.5746  -3.5680  -3.5462  -3.5363  -3.4981  -3.4781  -3.4767  -3.4488
    -3.4412  -3.4158  -3.3695  -3.3567  -3.3345  -3.3221  -3.3092  -3.3061
    -3.2920  -3.2757  -3.2202  -3.2146  -3.1999  -3.1963  -3.1499  -3.1453
    -3.1441  -3.1027  -3.0776  -3.0721  -3.0644  -3.0617  -3.0558  -3.0533
    -3.0430  -3.0407  -3.0333  -2.9924  -2.9556  -2.9520  -2.9412  -2.9398
    -2.9121  -2.9060  -2.9041  -2.8802  -2.8380  -2.8348  -2.8282  -2.7910
    -2.7819  -2.7707  -2.7692  -2.7476  -2.7394  -2.7107  -2.6794  -2.6744
    -2.6558  -2.6441  -2.6342  -2.6307  -2.5841  -2.5812  -2.5483  -2.5264
    -2.5243  -2.5052  -2.4999  -2.4904  -2.4860  -2.4784  -2.4599  -2.4572
    -2.4133  -2.4102  -2.4085  -2.3949  -2.3941  -2.3851  -2.3826  -2.3802
    -2.3764  -2.3740  -2.3673  -2.3667  -2.3579  -2.3547  -2.3335  -2.3208
    -2.3191  -2.3181  -2.3161  -2.3151  -2.3120  -2.2909  -2.2855  -2.2735
    -2.2685  -2.2524  -2.2497  -2.2452  -2.2401  -2.2395  -2.2373  -2.2270
    -2.2223  -2.2165  -2.2160  -2.2033  -2.1744  -2.1728  -2.1319  -2.1305
    -2.1109  -2.1102  -2.0861  -2.0791  -2.0626  -2.0531  -2.0423  -2.0313
    -2.0109  -2.0004  -1.9859  -1.9775  -1.9756  -1.9686  -1.9640  -1.9610
    -1.9402  -1.9326  -1.9280  -1.8834  -1.8651  -1.8617  -1.8596  -1.8568
    -1.8303  -1.8023  -1.7995  -1.7757  -1.7740  -1.7178  -1.7144  -1.6959
    -1.6760  -1.6617  -1.6469  -1.6060  -1.6005  -1.5906  -1.5897  -1.5822
    -1.5772  -1.5752  -1.5670  -1.5557  -1.5144  -1.5059  -1.5029  -1.4983
    -1.4908  -1.4794  -1.4643  -1.4474  -1.4362  -1.4284  -1.4265  -1.4214
    -1.4180  -1.4102  -1.4048  -1.3868  -1.3840  -1.3751  -1.3470  -1.3390
    -1.3322  -1.3147  -1.2964  -1.2836  -1.2595  -1.2449  -1.2280  -1.2268
    -1.1970  -1.1927  -1.1482  -1.1419  -1.1402  -1.1374  -1.1339  -1.1252
    -1.1202  -1.1092  -1.0871  -1.0691  -1.0621  -1.0389  -1.0345  -1.0288
    -1.0247  -1.0227  -1.0096  -1.0048  -1.0039  -1.0000  -0.9924  -0.9642
    -0.9605  -0.9594  -0.9480  -0.9315  -0.9277  -0.9193  -0.8993  -0.8926
    -0.8807  -0.8489  -0.8418  -0.8246  -0.8058  -0.7956  -0.7876  -0.7853
    -0.7800  -0.7786  -0.7755  -0.7703  -0.7633  -0.7497  -0.7392  -0.7379
    -0.7339  -0.7320  -0.7265  -0.6952  -0.6941  -0.6859  -0.6761  -0.6645
    -0.6602  -0.6490  -0.6325  -0.5927  -0.5916  -0.5842  -0.5834  -0.5802
    -0.5763  -0.5717  -0.5577  -0.5527  -0.5475  -0.5461  -0.5447  -0.5325
    -0.5052  -0.5041  -0.5018  -0.4949  -0.4924  -0.4885  -0.4860  -0.4718
    -0.4685  -0.4668  -0.4494  -0.4275  -0.4227  -0.4182  -0.4120  -0.4090
    -0.3390  -0.3335  -0.3320  -0.3307  -0.3229  -0.3219  -0.2868  -0.2753
    -0.2741  -0.2449  -0.2418  -0.2152  -0.1219  -0.1085  -0.0141   0.3966
     0.3984   0.4011   0.4040   0.4605   0.4796   0.8494   0.8517   0.8899
     0.8972   1.0118   1.0883   1.1901   1.2095   1.4089   1.4399   2.0456
     2.0541   2.2034   2.2203   2.3358   2.3589   2.4466   2.4489   2.6014
     2.8389   2.8453   2.9643   3.1806   3.1969   3.2662   3.2730   3.3689
     3.3868   3.5601   3.6012   3.6427   3.8417   3.8459   3.9011   3.9162
     4.1587   4.1653   4.1808   4.4109   4.4465   4.4603   4.4990   4.8276
     4.8372   4.8605   4.9955   5.1709   5.1769   5.1849   5.2603   5.4918
     5.7834   5.9375   5.9516   5.9600   5.9726   6.0286   6.0355   6.1098
     6.1309   6.1536   6.1709   6.1939   6.2041   6.2143   6.2356   6.2589
     6.2751   6.4504   6.5776   6.6910   6.7459   6.7975   6.8955   6.9122
     6.9164   7.0247   7.0317

          k =-0.5000 0.0000 0.1111 (136853 PWs)   bands (ev):

   -19.2564  -7.1827  -6.3140  -5.9175  -5.9133  -5.2389  -4.9051  -4.9049
    -4.8707  -4.8634  -4.5053  -4.5031  -4.4061  -4.4053  -4.3913  -4.3684
    -4.3515  -4.2413  -4.2370  -4.2148  -4.1704  -4.1699  -4.1049  -4.1008
    -4.0993  -4.0962  -4.0729  -4.0696  -4.0662  -4.0055  -3.9960  -3.9662
    -3.9642  -3.9535  -3.9525  -3.9296  -3.9290  -3.9067  -3.8990  -3.8982
    -3.8736  -3.8206  -3.8198  -3.7725  -3.7697  -3.7181  -3.7163  -3.6649
    -3.6599  -3.6573  -3.6567  -3.6243  -3.6039  -3.5885  -3.5828  -3.5763
    -3.5746  -3.5680  -3.5462  -3.5363  -3.4981  -3.4781  -3.4767  -3.4488
    -3.4412  -3.4158  -3.3695  -3.3567  -3.3345  -3.3221  -3.3092  -3.3061
    -3.2920  -3.2757  -3.2202  -3.2146  -3.1999  -3.1963  -3.1499  -3.1453
    -3.1441  -3.1027  -3.0776  -3.0721  -3.0644  -3.0617  -3.0558  -3.0533
    -3.0430  -3.0407  -3.0333  -2.9924  -2.9556  -2.9520  -2.9412  -2.9398
    -2.9121  -2.9059  -2.9041  -2.8802  -2.8380  -2.8348  -2.8282  -2.7910
    -2.7819  -2.7707  -2.7692  -2.7476  -2.7394  -2.7107  -2.6794  -2.6744
    -2.6558  -2.6441  -2.6342  -2.6307  -2.5841  -2.5812  -2.5483  -2.5264
    -2.5243  -2.5052  -2.4999  -2.4904  -2.4860  -2.4784  -2.4599  -2.4572
    -2.4133  -2.4102  -2.4085  -2.3949  -2.3941  -2.3851  -2.3826  -2.3802
    -2.3764  -2.3740  -2.3673  -2.3667  -2.3579  -2.3547  -2.3335  -2.3208
    -2.3191  -2.3181  -2.3161  -2.3151  -2.3120  -2.2909  -2.2855  -2.2735
    -2.2685  -2.2524  -2.2497  -2.2452  -2.2401  -2.2395  -2.2373  -2.2270
    -2.2223  -2.2165  -2.2160  -2.2033  -2.1744  -2.1728  -2.1319  -2.1305
    -2.1109  -2.1102  -2.0861  -2.0791  -2.0626  -2.0531  -2.0423  -2.0313
    -2.0109  -2.0004  -1.9859  -1.9775  -1.9756  -1.9686  -1.9640  -1.9610
    -1.9402  -1.9326  -1.9280  -1.8834  -1.8651  -1.8617  -1.8596  -1.8568
    -1.8303  -1.8023  -1.7995  -1.7757  -1.7740  -1.7178  -1.7144  -1.6959
    -1.6760  -1.6617  -1.6469  -1.6060  -1.6005  -1.5906  -1.5897  -1.5822
    -1.5772  -1.5752  -1.5670  -1.5557  -1.5144  -1.5059  -1.5029  -1.4983
    -1.4908  -1.4794  -1.4643  -1.4474  -1.4362  -1.4284  -1.4265  -1.4214
    -1.4180  -1.4102  -1.4048  -1.3867  -1.3840  -1.3751  -1.3470  -1.3390
    -1.3322  -1.3147  -1.2964  -1.2836  -1.2595  -1.2449  -1.2280  -1.2268
    -1.1970  -1.1927  -1.1482  -1.1419  -1.1402  -1.1374  -1.1339  -1.1252
    -1.1202  -1.1092  -1.0871  -1.0691  -1.0621  -1.0389  -1.0345  -1.0288
    -1.0247  -1.0227  -1.0096  -1.0048  -1.0039  -1.0000  -0.9924  -0.9642
    -0.9605  -0.9594  -0.9480  -0.9315  -0.9277  -0.9193  -0.8993  -0.8926
    -0.8807  -0.8489  -0.8418  -0.8246  -0.8058  -0.7956  -0.7876  -0.7853
    -0.7800  -0.7786  -0.7755  -0.7703  -0.7633  -0.7497  -0.7392  -0.7379
    -0.7339  -0.7320  -0.7265  -0.6952  -0.6941  -0.6859  -0.6761  -0.6645
    -0.6602  -0.6490  -0.6325  -0.5927  -0.5915  -0.5842  -0.5834  -0.5802
    -0.5763  -0.5717  -0.5577  -0.5527  -0.5475  -0.5461  -0.5447  -0.5325
    -0.5052  -0.5041  -0.5018  -0.4949  -0.4924  -0.4885  -0.4860  -0.4718
    -0.4685  -0.4668  -0.4494  -0.4275  -0.4227  -0.4182  -0.4120  -0.4090
    -0.3390  -0.3335  -0.3320  -0.3307  -0.3229  -0.3219  -0.2868  -0.2753
    -0.2741  -0.2449  -0.2418  -0.2152  -0.1219  -0.1085  -0.0141   0.3966
     0.3984   0.4011   0.4040   0.4605   0.4796   0.8494   0.8517   0.8899
     0.8972   1.0118   1.0883   1.1901   1.2095   1.4089   1.4399   2.0456
     2.0541   2.2034   2.2203   2.3358   2.3589   2.4466   2.4489   2.6014
     2.8389   2.8453   2.9643   3.1806   3.1969   3.2662   3.2730   3.3689
     3.3868   3.5601   3.6012   3.6427   3.8417   3.8459   3.9011   3.9162
     4.1587   4.1653   4.1808   4.4109   4.4465   4.4603   4.4990   4.8276
     4.8372   4.8605   4.9955   5.1709   5.1770   5.1849   5.2603   5.4919
     5.7833   5.9375   5.9517   5.9600   5.9726   6.0285   6.0355   6.1097
     6.1322   6.1526   6.1708   6.1938   6.2042   6.2138   6.2356   6.2589
     6.2749   6.4509   6.5774   6.6926   6.7455   6.8000   6.8955   6.9119
     6.9174   7.0242   7.0308

          k =-0.2500 0.1443 0.1111 (136898 PWs)   bands (ev):

   -19.2564  -7.1830  -6.5233  -5.7329  -5.4424  -5.3832  -5.3823  -4.8453
    -4.8441  -4.7148  -4.7123  -4.5584  -4.5313  -4.4648  -4.4360  -4.4323
    -4.3989  -4.3975  -4.2689  -4.2272  -4.2271  -4.1690  -4.1504  -4.1469
    -4.0451  -4.0438  -4.0084  -4.0072  -4.0070  -3.9820  -3.9605  -3.9589
    -3.8592  -3.8523  -3.8518  -3.8332  -3.8179  -3.8143  -3.8046  -3.8031
    -3.7921  -3.7635  -3.7596  -3.7584  -3.7574  -3.7316  -3.7275  -3.7103
    -3.7075  -3.7008  -3.6752  -3.6562  -3.6225  -3.6116  -3.6088  -3.5990
    -3.5988  -3.5322  -3.5248  -3.5077  -3.4933  -3.4885  -3.4481  -3.4193
    -3.4176  -3.4037  -3.3919  -3.3761  -3.3745  -3.3733  -3.3487  -3.2181
    -3.2171  -3.1970  -3.1948  -3.1905  -3.1723  -3.1699  -3.1476  -3.1446
    -3.0965  -3.0956  -3.0811  -3.0786  -3.0596  -3.0146  -3.0113  -2.9940
    -2.9880  -2.9857  -2.9469  -2.9458  -2.9380  -2.9365  -2.9237  -2.9183
    -2.8840  -2.8827  -2.8651  -2.8609  -2.8580  -2.8562  -2.8528  -2.7799
    -2.7784  -2.7756  -2.7471  -2.7453  -2.6933  -2.6833  -2.6565  -2.6556
    -2.6451  -2.6425  -2.6350  -2.6101  -2.6066  -2.5960  -2.5805  -2.5586
    -2.5563  -2.5515  -2.5354  -2.5335  -2.5266  -2.5239  -2.5197  -2.5159
    -2.5075  -2.4620  -2.4350  -2.4327  -2.4180  -2.4036  -2.3985  -2.3959
    -2.3894  -2.3865  -2.3842  -2.3622  -2.3578  -2.3556  -2.3463  -2.3455
    -2.3312  -2.3052  -2.3034  -2.3022  -2.3008  -2.2990  -2.2525  -2.2293
    -2.2238  -2.2223  -2.2171  -2.2108  -2.2047  -2.1959  -2.1765  -2.1760
    -2.1508  -2.1458  -2.1421  -2.1397  -2.1244  -2.1235  -2.0987  -2.0907
    -2.0581  -2.0537  -2.0441  -2.0420  -2.0391  -2.0370  -2.0330  -2.0301
    -2.0272  -2.0258  -2.0221  -2.0091  -2.0055  -1.9270  -1.8806  -1.8647
    -1.8462  -1.8399  -1.8332  -1.8314  -1.8254  -1.8186  -1.8163  -1.8120
    -1.8092  -1.7987  -1.7867  -1.7826  -1.7803  -1.7682  -1.7669  -1.7492
    -1.7441  -1.7216  -1.7159  -1.6923  -1.6865  -1.6733  -1.6675  -1.6481
    -1.6457  -1.6434  -1.6283  -1.6251  -1.6128  -1.6090  -1.6055  -1.5902
    -1.5805  -1.5749  -1.5646  -1.5458  -1.5297  -1.5233  -1.4856  -1.4731
    -1.4641  -1.4559  -1.4529  -1.4287  -1.4279  -1.4128  -1.3959  -1.3920
    -1.3830  -1.3570  -1.3512  -1.3336  -1.3315  -1.3274  -1.3091  -1.3067
    -1.2785  -1.2756  -1.2723  -1.2336  -1.2104  -1.2078  -1.1988  -1.1853
    -1.1823  -1.1736  -1.1683  -1.1611  -1.1490  -1.1364  -1.1104  -1.1075
    -1.0938  -1.0640  -1.0599  -1.0505  -1.0468  -1.0458  -1.0438  -1.0398
    -1.0238  -1.0231  -0.9988  -0.9964  -0.9849  -0.9823  -0.9803  -0.9626
    -0.9579  -0.9409  -0.9265  -0.9189  -0.8885  -0.8253  -0.8144  -0.8084
    -0.8075  -0.8025  -0.7980  -0.7883  -0.7752  -0.7632  -0.7582  -0.7481
    -0.7426  -0.7365  -0.7325  -0.7150  -0.7115  -0.7027  -0.6817  -0.6285
    -0.6280  -0.5969  -0.5912  -0.5879  -0.5857  -0.5814  -0.5803  -0.5747
    -0.5685  -0.5635  -0.5307  -0.5249  -0.5073  -0.4948  -0.4891  -0.4826
    -0.4778  -0.4709  -0.4679  -0.4667  -0.4650  -0.4587  -0.4483  -0.4441
    -0.4386  -0.4139  -0.4118  -0.4108  -0.3983  -0.3973  -0.3786  -0.3476
    -0.3464  -0.3381  -0.3355  -0.2700  -0.2697  -0.2348  -0.2343  -0.1774
    -0.1769  -0.1742  -0.1514  -0.1465   0.0775   0.1013   0.4263   0.4268
     0.5139   0.5350   0.7125   0.7389   0.7540   0.8705   0.8812   1.3068
     1.3082   1.3234   1.5866   1.6161   1.6209   1.8867   1.9071   1.9702
     1.9744   1.9936   2.0157   2.2253   2.2331   2.3172   2.3193   2.3904
     2.4509   2.4759   2.6211   2.7234   3.1519   3.1576   3.1605   3.1727
     3.2132   3.2263   3.5096   3.5130   3.7841   3.8017   3.8978   4.2066
     4.2400   4.2535   4.4406   4.4860   4.5478   4.5504   4.6427   4.7563
     4.7608   4.8748   4.8781   5.1770   5.2348   5.2465   5.3305   5.4314
     5.4539   5.6271   5.6412   5.6642   5.6666   5.7209   5.7279   5.7781
     5.8785   6.0581   6.2664   6.3294   6.3477   6.4615   6.4706   6.4798
     6.4860   6.5496   6.6713   6.7030   6.7308   6.8407   6.9137   6.9339
     6.9837   7.0463   7.0730

          k =-0.2500-0.1443-0.1111 (136898 PWs)   bands (ev):

   -19.2564  -7.1830  -6.5233  -5.7327  -5.4424  -5.3837  -5.3822  -4.8453
    -4.8442  -4.7146  -4.7121  -4.5585  -4.5314  -4.4650  -4.4362  -4.4321
    -4.3985  -4.3976  -4.2690  -4.2278  -4.2264  -4.1685  -4.1503  -4.1475
    -4.0445  -4.0437  -4.0085  -4.0074  -4.0070  -3.9822  -3.9602  -3.9590
    -3.8606  -3.8529  -3.8515  -3.8334  -3.8177  -3.8144  -3.8039  -3.8030
    -3.7922  -3.7623  -3.7598  -3.7584  -3.7575  -3.7312  -3.7277  -3.7112
    -3.7075  -3.7018  -3.6697  -3.6581  -3.6233  -3.6101  -3.6078  -3.5992
    -3.5987  -3.5318  -3.5249  -3.5095  -3.4924  -3.4891  -3.4501  -3.4195
    -3.4175  -3.4036  -3.3925  -3.3761  -3.3747  -3.3727  -3.3497  -3.2182
    -3.2152  -3.1965  -3.1952  -3.1905  -3.1725  -3.1705  -3.1487  -3.1439
    -3.0968  -3.0958  -3.0811  -3.0784  -3.0593  -3.0152  -3.0104  -2.9938
    -2.9875  -2.9857  -2.9472  -2.9464  -2.9382  -2.9365  -2.9239  -2.9195
    -2.8837  -2.8828  -2.8646  -2.8600  -2.8578  -2.8567  -2.8527  -2.7821
    -2.7783  -2.7753  -2.7468  -2.7454  -2.6885  -2.6841  -2.6583  -2.6557
    -2.6432  -2.6424  -2.6352  -2.6098  -2.6060  -2.5961  -2.5822  -2.5633
    -2.5574  -2.5509  -2.5355  -2.5334  -2.5258  -2.5206  -2.5194  -2.5170
    -2.5075  -2.4620  -2.4338  -2.4326  -2.4170  -2.4033  -2.3979  -2.3963
    -2.3889  -2.3874  -2.3847  -2.3604  -2.3571  -2.3549  -2.3461  -2.3449
    -2.3313  -2.3081  -2.3042  -2.3025  -2.3000  -2.2997  -2.2529  -2.2289
    -2.2240  -2.2215  -2.2165  -2.2077  -2.2048  -2.1949  -2.1762  -2.1755
    -2.1509  -2.1475  -2.1420  -2.1376  -2.1252  -2.1232  -2.1019  -2.0908
    -2.0564  -2.0530  -2.0440  -2.0411  -2.0387  -2.0376  -2.0331  -2.0308
    -2.0284  -2.0259  -2.0221  -2.0107  -2.0062  -1.9195  -1.8804  -1.8685
    -1.8436  -1.8400  -1.8354  -1.8314  -1.8267  -1.8190  -1.8148  -1.8115
    -1.8090  -1.7955  -1.7870  -1.7828  -1.7812  -1.7690  -1.7664  -1.7476
    -1.7448  -1.7201  -1.7155  -1.7052  -1.6855  -1.6746  -1.6700  -1.6500
    -1.6469  -1.6434  -1.6275  -1.6217  -1.6130  -1.6089  -1.6057  -1.5922
    -1.5795  -1.5741  -1.5648  -1.5467  -1.5299  -1.5258  -1.4823  -1.4722
    -1.4651  -1.4565  -1.4542  -1.4286  -1.4262  -1.4074  -1.3958  -1.3930
    -1.3834  -1.3551  -1.3501  -1.3372  -1.3318  -1.3242  -1.3076  -1.3065
    -1.2759  -1.2741  -1.2723  -1.2348  -1.2108  -1.2085  -1.1981  -1.1966
    -1.1820  -1.1760  -1.1669  -1.1586  -1.1493  -1.1361  -1.1106  -1.1057
    -1.0951  -1.0647  -1.0593  -1.0507  -1.0472  -1.0460  -1.0433  -1.0404
    -1.0236  -1.0229  -0.9985  -0.9960  -0.9839  -0.9820  -0.9780  -0.9645
    -0.9600  -0.9395  -0.9235  -0.9179  -0.8919  -0.8243  -0.8145  -0.8081
    -0.8076  -0.8020  -0.8000  -0.7897  -0.7753  -0.7647  -0.7579  -0.7481
    -0.7422  -0.7372  -0.7312  -0.7157  -0.7102  -0.7025  -0.6821  -0.6282
    -0.6270  -0.5959  -0.5902  -0.5897  -0.5851  -0.5821  -0.5803  -0.5781
    -0.5696  -0.5613  -0.5299  -0.5248  -0.5056  -0.4933  -0.4923  -0.4828
    -0.4802  -0.4707  -0.4683  -0.4677  -0.4653  -0.4563  -0.4488  -0.4442
    -0.4400  -0.4136  -0.4125  -0.4068  -0.3977  -0.3960  -0.3788  -0.3478
    -0.3464  -0.3381  -0.3351  -0.2702  -0.2691  -0.2354  -0.2338  -0.1779
    -0.1756  -0.1742  -0.1513  -0.1486   0.0792   0.1019   0.4265   0.4270
     0.5166   0.5339   0.7094   0.7366   0.7582   0.8722   0.8818   1.3068
     1.3071   1.3269   1.5874   1.6162   1.6191   1.8905   1.9048   1.9693
     1.9718   1.9969   2.0128   2.2270   2.2285   2.3180   2.3189   2.3898
     2.4535   2.4724   2.6249   2.7231   3.1514   3.1560   3.1616   3.1727
     3.2171   3.2197   3.5095   3.5123   3.7869   3.7989   3.8951   4.2080
     4.2426   4.2491   4.4492   4.4827   4.5467   4.5498   4.6415   4.7575
     4.7618   4.8745   4.8805   5.1755   5.2405   5.2470   5.3285   5.4347
     5.4551   5.6344   5.6373   5.6624   5.6666   5.7158   5.7344   5.7658
     5.8794   6.0458   6.2725   6.3283   6.3617   6.4591   6.4689   6.4772
     6.4883   6.5468   6.6602   6.7209   6.7273   6.8211   6.9226   6.9466
     6.9759   7.0436   7.0807

          k = 0.2500 0.1443-0.1111 (136898 PWs)   bands (ev):

   -19.2564  -7.1831  -6.5233  -5.7327  -5.4424  -5.3837  -5.3822  -4.8453
    -4.8442  -4.7146  -4.7121  -4.5585  -4.5314  -4.4650  -4.4362  -4.4321
    -4.3985  -4.3976  -4.2690  -4.2278  -4.2264  -4.1685  -4.1503  -4.1475
    -4.0445  -4.0437  -4.0085  -4.0074  -4.0070  -3.9822  -3.9602  -3.9590
    -3.8606  -3.8530  -3.8515  -3.8334  -3.8177  -3.8144  -3.8039  -3.8030
    -3.7922  -3.7623  -3.7598  -3.7584  -3.7575  -3.7312  -3.7277  -3.7112
    -3.7075  -3.7018  -3.6697  -3.6581  -3.6233  -3.6101  -3.6078  -3.5992
    -3.5987  -3.5318  -3.5249  -3.5095  -3.4924  -3.4891  -3.4501  -3.4195
    -3.4175  -3.4036  -3.3925  -3.3761  -3.3747  -3.3727  -3.3497  -3.2182
    -3.2152  -3.1965  -3.1952  -3.1905  -3.1725  -3.1705  -3.1487  -3.1439
    -3.0968  -3.0958  -3.0811  -3.0784  -3.0593  -3.0152  -3.0104  -2.9938
    -2.9875  -2.9857  -2.9472  -2.9464  -2.9382  -2.9366  -2.9239  -2.9195
    -2.8837  -2.8828  -2.8646  -2.8599  -2.8578  -2.8567  -2.8527  -2.7821
    -2.7783  -2.7753  -2.7468  -2.7454  -2.6884  -2.6841  -2.6583  -2.6557
    -2.6432  -2.6424  -2.6352  -2.6098  -2.6060  -2.5961  -2.5822  -2.5633
    -2.5574  -2.5509  -2.5355  -2.5334  -2.5258  -2.5206  -2.5194  -2.5170
    -2.5075  -2.4620  -2.4338  -2.4327  -2.4170  -2.4033  -2.3979  -2.3963
    -2.3889  -2.3874  -2.3847  -2.3604  -2.3571  -2.3549  -2.3461  -2.3449
    -2.3313  -2.3081  -2.3042  -2.3025  -2.3000  -2.2997  -2.2529  -2.2289
    -2.2240  -2.2215  -2.2165  -2.2077  -2.2047  -2.1949  -2.1762  -2.1755
    -2.1509  -2.1475  -2.1420  -2.1376  -2.1252  -2.1232  -2.1019  -2.0908
    -2.0564  -2.0530  -2.0440  -2.0411  -2.0387  -2.0376  -2.0331  -2.0308
    -2.0284  -2.0259  -2.0221  -2.0107  -2.0062  -1.9195  -1.8804  -1.8685
    -1.8436  -1.8400  -1.8354  -1.8314  -1.8267  -1.8190  -1.8148  -1.8115
    -1.8090  -1.7955  -1.7870  -1.7828  -1.7812  -1.7690  -1.7664  -1.7476
    -1.7448  -1.7201  -1.7155  -1.7052  -1.6855  -1.6746  -1.6700  -1.6500
    -1.6469  -1.6434  -1.6275  -1.6217  -1.6130  -1.6089  -1.6057  -1.5922
    -1.5795  -1.5741  -1.5648  -1.5467  -1.5299  -1.5258  -1.4823  -1.4722
    -1.4651  -1.4565  -1.4542  -1.4286  -1.4262  -1.4074  -1.3958  -1.3930
    -1.3834  -1.3551  -1.3501  -1.3372  -1.3318  -1.3242  -1.3076  -1.3066
    -1.2759  -1.2741  -1.2723  -1.2348  -1.2108  -1.2085  -1.1981  -1.1966
    -1.1820  -1.1760  -1.1669  -1.1586  -1.1493  -1.1361  -1.1106  -1.1057
    -1.0951  -1.0647  -1.0593  -1.0507  -1.0472  -1.0460  -1.0433  -1.0404
    -1.0236  -1.0229  -0.9985  -0.9960  -0.9839  -0.9820  -0.9780  -0.9645
    -0.9600  -0.9395  -0.9235  -0.9179  -0.8919  -0.8243  -0.8144  -0.8081
    -0.8076  -0.8020  -0.8000  -0.7897  -0.7753  -0.7647  -0.7579  -0.7481
    -0.7422  -0.7372  -0.7312  -0.7157  -0.7102  -0.7025  -0.6821  -0.6282
    -0.6270  -0.5959  -0.5902  -0.5897  -0.5851  -0.5821  -0.5803  -0.5781
    -0.5696  -0.5613  -0.5299  -0.5248  -0.5056  -0.4933  -0.4923  -0.4828
    -0.4802  -0.4707  -0.4683  -0.4677  -0.4653  -0.4563  -0.4488  -0.4442
    -0.4401  -0.4136  -0.4125  -0.4068  -0.3977  -0.3960  -0.3788  -0.3478
    -0.3464  -0.3381  -0.3351  -0.2702  -0.2691  -0.2354  -0.2338  -0.1779
    -0.1756  -0.1742  -0.1513  -0.1486   0.0792   0.1019   0.4265   0.4270
     0.5166   0.5339   0.7094   0.7366   0.7582   0.8722   0.8818   1.3068
     1.3071   1.3269   1.5874   1.6162   1.6191   1.8905   1.9048   1.9693
     1.9718   1.9969   2.0128   2.2270   2.2285   2.3180   2.3189   2.3898
     2.4535   2.4724   2.6249   2.7231   3.1514   3.1560   3.1616   3.1727
     3.2171   3.2197   3.5095   3.5123   3.7869   3.7989   3.8951   4.2080
     4.2426   4.2491   4.4492   4.4827   4.5467   4.5498   4.6415   4.7575
     4.7618   4.8745   4.8805   5.1755   5.2405   5.2470   5.3285   5.4346
     5.4553   5.6344   5.6373   5.6624   5.6666   5.7158   5.7344   5.7662
     5.8781   6.0474   6.2729   6.3284   6.3612   6.4592   6.4690   6.4768
     6.4887   6.5437   6.6599   6.7206   6.7263   6.8209   6.9228   6.9462
     6.9768   7.0474   7.0858

          k = 0.0000-0.2887 0.1111 (136898 PWs)   bands (ev):

   -19.2564  -7.1830  -6.5234  -5.7330  -5.4425  -5.3829  -5.3823  -4.8449
    -4.8441  -4.7163  -4.7121  -4.5585  -4.5314  -4.4658  -4.4341  -4.4319
    -4.3981  -4.3974  -4.2690  -4.2273  -4.2270  -4.1701  -4.1493  -4.1470
    -4.0444  -4.0438  -4.0085  -4.0074  -4.0069  -3.9825  -3.9596  -3.9589
    -3.8623  -3.8531  -3.8519  -3.8350  -3.8171  -3.8142  -3.8036  -3.8028
    -3.7948  -3.7609  -3.7595  -3.7582  -3.7575  -3.7291  -3.7276  -3.7140
    -3.7074  -3.7047  -3.6612  -3.6580  -3.6280  -3.6097  -3.6067  -3.5989
    -3.5987  -3.5300  -3.5248  -3.5100  -3.4912  -3.4884  -3.4523  -3.4191
    -3.4177  -3.4036  -3.3924  -3.3758  -3.3751  -3.3735  -3.3529  -3.2179
    -3.2130  -3.1968  -3.1940  -3.1902  -3.1726  -3.1718  -3.1482  -3.1465
    -3.0965  -3.0960  -3.0798  -3.0785  -3.0587  -3.0154  -3.0116  -2.9935
    -2.9870  -2.9851  -2.9474  -2.9463  -2.9377  -2.9371  -2.9232  -2.9220
    -2.8829  -2.8824  -2.8632  -2.8614  -2.8580  -2.8573  -2.8525  -2.7817
    -2.7787  -2.7750  -2.7465  -2.7458  -2.6892  -2.6850  -2.6575  -2.6557
    -2.6431  -2.6423  -2.6351  -2.6096  -2.6070  -2.5961  -2.5813  -2.5622
    -2.5563  -2.5537  -2.5356  -2.5336  -2.5254  -2.5229  -2.5195  -2.5141
    -2.5075  -2.4619  -2.4338  -2.4325  -2.4163  -2.4032  -2.3985  -2.3963
    -2.3892  -2.3871  -2.3847  -2.3598  -2.3575  -2.3564  -2.3456  -2.3449
    -2.3314  -2.3075  -2.3039  -2.3026  -2.2998  -2.2992  -2.2528  -2.2287
    -2.2241  -2.2222  -2.2167  -2.2060  -2.2049  -2.1968  -2.1759  -2.1757
    -2.1506  -2.1468  -2.1424  -2.1352  -2.1255  -2.1235  -2.1014  -2.0905
    -2.0579  -2.0534  -2.0441  -2.0404  -2.0393  -2.0374  -2.0338  -2.0310
    -2.0285  -2.0251  -2.0237  -2.0113  -2.0058  -1.9192  -1.8812  -1.8704
    -1.8424  -1.8407  -1.8327  -1.8313  -1.8254  -1.8186  -1.8170  -1.8133
    -1.8077  -1.7952  -1.7873  -1.7836  -1.7803  -1.7686  -1.7658  -1.7492
    -1.7454  -1.7214  -1.7171  -1.6970  -1.6876  -1.6743  -1.6685  -1.6503
    -1.6462  -1.6433  -1.6278  -1.6222  -1.6131  -1.6087  -1.6056  -1.5913
    -1.5806  -1.5733  -1.5641  -1.5461  -1.5310  -1.5246  -1.4839  -1.4719
    -1.4647  -1.4556  -1.4515  -1.4289  -1.4266  -1.4109  -1.3958  -1.3933
    -1.3849  -1.3539  -1.3518  -1.3335  -1.3322  -1.3237  -1.3085  -1.3070
    -1.2781  -1.2735  -1.2722  -1.2385  -1.2110  -1.2079  -1.1991  -1.1926
    -1.1821  -1.1748  -1.1683  -1.1568  -1.1480  -1.1359  -1.1083  -1.1064
    -1.0954  -1.0646  -1.0595  -1.0505  -1.0465  -1.0459  -1.0424  -1.0392
    -1.0271  -1.0236  -0.9993  -0.9965  -0.9861  -0.9830  -0.9815  -0.9620
    -0.9517  -0.9419  -0.9233  -0.9186  -0.8941  -0.8242  -0.8141  -0.8090
    -0.8078  -0.8036  -0.7974  -0.7882  -0.7754  -0.7631  -0.7579  -0.7491
    -0.7431  -0.7374  -0.7323  -0.7153  -0.7115  -0.7025  -0.6814  -0.6287
    -0.6268  -0.5963  -0.5920  -0.5895  -0.5842  -0.5823  -0.5806  -0.5756
    -0.5689  -0.5621  -0.5260  -0.5246  -0.5111  -0.4944  -0.4894  -0.4825
    -0.4805  -0.4715  -0.4693  -0.4661  -0.4654  -0.4567  -0.4481  -0.4444
    -0.4391  -0.4137  -0.4127  -0.4075  -0.3986  -0.3954  -0.3784  -0.3472
    -0.3468  -0.3380  -0.3367  -0.2711  -0.2678  -0.2352  -0.2340  -0.1779
    -0.1758  -0.1742  -0.1515  -0.1483   0.0779   0.1029   0.4264   0.4269
     0.5150   0.5349   0.7094   0.7389   0.7561   0.8706   0.8814   1.3070
     1.3076   1.3251   1.5867   1.6160   1.6204   1.8902   1.9041   1.9691
     1.9737   1.9955   2.0142   2.2240   2.2327   2.3177   2.3190   2.3917
     2.4532   2.4717   2.6227   2.7241   3.1510   3.1577   3.1610   3.1718
     3.2120   3.2275   3.5095   3.5126   3.7872   3.7990   3.8956   4.2078
     4.2417   4.2507   4.4596   4.4715   4.5467   4.5510   4.6428   4.7549
     4.7642   4.8754   4.8777   5.1759   5.2384   5.2489   5.3415   5.4097
     5.4554   5.6320   5.6387   5.6634   5.6663   5.7227   5.7274   5.7659
     5.8892   6.0668   6.2732   6.3183   6.3409   6.4574   6.4717   6.4819
     6.4835   6.5426   6.6712   6.7106   6.7283   6.8406   6.8955   6.9541
     6.9774   7.0492   7.0695

          k = 0.0000 0.2887 0.1111 (136898 PWs)   bands (ev):

   -19.2564  -7.1830  -6.5234  -5.7330  -5.4425  -5.3829  -5.3823  -4.8449
    -4.8441  -4.7163  -4.7121  -4.5585  -4.5314  -4.4658  -4.4341  -4.4319
    -4.3981  -4.3974  -4.2690  -4.2273  -4.2270  -4.1701  -4.1493  -4.1470
    -4.0444  -4.0438  -4.0085  -4.0074  -4.0069  -3.9825  -3.9596  -3.9589
    -3.8623  -3.8531  -3.8519  -3.8350  -3.8171  -3.8142  -3.8036  -3.8028
    -3.7948  -3.7609  -3.7595  -3.7582  -3.7575  -3.7291  -3.7276  -3.7140
    -3.7074  -3.7047  -3.6612  -3.6580  -3.6280  -3.6097  -3.6067  -3.5989
    -3.5987  -3.5300  -3.5248  -3.5100  -3.4912  -3.4884  -3.4523  -3.4191
    -3.4177  -3.4036  -3.3924  -3.3758  -3.3751  -3.3735  -3.3529  -3.2179
    -3.2130  -3.1968  -3.1940  -3.1902  -3.1726  -3.1718  -3.1482  -3.1465
    -3.0965  -3.0960  -3.0798  -3.0785  -3.0587  -3.0154  -3.0116  -2.9935
    -2.9870  -2.9851  -2.9474  -2.9463  -2.9377  -2.9371  -2.9232  -2.9220
    -2.8829  -2.8825  -2.8632  -2.8614  -2.8580  -2.8573  -2.8525  -2.7817
    -2.7787  -2.7750  -2.7465  -2.7458  -2.6892  -2.6850  -2.6575  -2.6557
    -2.6431  -2.6423  -2.6351  -2.6096  -2.6070  -2.5961  -2.5813  -2.5622
    -2.5563  -2.5537  -2.5356  -2.5336  -2.5254  -2.5229  -2.5195  -2.5141
    -2.5075  -2.4619  -2.4338  -2.4325  -2.4163  -2.4032  -2.3985  -2.3963
    -2.3892  -2.3871  -2.3847  -2.3598  -2.3575  -2.3564  -2.3456  -2.3449
    -2.3314  -2.3075  -2.3039  -2.3026  -2.2998  -2.2992  -2.2529  -2.2287
    -2.2241  -2.2222  -2.2167  -2.2060  -2.2049  -2.1968  -2.1759  -2.1757
    -2.1506  -2.1468  -2.1424  -2.1352  -2.1255  -2.1235  -2.1014  -2.0905
    -2.0579  -2.0534  -2.0441  -2.0404  -2.0393  -2.0374  -2.0338  -2.0310
    -2.0284  -2.0251  -2.0237  -2.0113  -2.0058  -1.9192  -1.8812  -1.8704
    -1.8424  -1.8407  -1.8327  -1.8313  -1.8254  -1.8186  -1.8170  -1.8133
    -1.8077  -1.7953  -1.7873  -1.7836  -1.7803  -1.7686  -1.7658  -1.7492
    -1.7454  -1.7214  -1.7171  -1.6970  -1.6876  -1.6743  -1.6685  -1.6503
    -1.6462  -1.6433  -1.6278  -1.6222  -1.6131  -1.6087  -1.6056  -1.5913
    -1.5806  -1.5733  -1.5641  -1.5461  -1.5310  -1.5246  -1.4839  -1.4719
    -1.4647  -1.4556  -1.4515  -1.4289  -1.4266  -1.4109  -1.3958  -1.3933
    -1.3849  -1.3539  -1.3518  -1.3335  -1.3322  -1.3237  -1.3085  -1.3070
    -1.2781  -1.2735  -1.2722  -1.2385  -1.2110  -1.2079  -1.1991  -1.1926
    -1.1821  -1.1748  -1.1683  -1.1568  -1.1480  -1.1359  -1.1083  -1.1064
    -1.0954  -1.0646  -1.0595  -1.0505  -1.0465  -1.0459  -1.0424  -1.0392
    -1.0271  -1.0236  -0.9993  -0.9965  -0.9861  -0.9830  -0.9815  -0.9620
    -0.9517  -0.9419  -0.9233  -0.9186  -0.8941  -0.8242  -0.8141  -0.8090
    -0.8078  -0.8036  -0.7974  -0.7882  -0.7754  -0.7631  -0.7579  -0.7491
    -0.7431  -0.7374  -0.7323  -0.7153  -0.7115  -0.7025  -0.6814  -0.6287
    -0.6267  -0.5963  -0.5920  -0.5895  -0.5842  -0.5823  -0.5806  -0.5756
    -0.5689  -0.5621  -0.5260  -0.5246  -0.5111  -0.4944  -0.4894  -0.4825
    -0.4805  -0.4715  -0.4693  -0.4661  -0.4654  -0.4567  -0.4481  -0.4444
    -0.4391  -0.4137  -0.4127  -0.4075  -0.3986  -0.3954  -0.3784  -0.3472
    -0.3468  -0.3380  -0.3367  -0.2711  -0.2678  -0.2352  -0.2340  -0.1779
    -0.1758  -0.1742  -0.1515  -0.1483   0.0779   0.1029   0.4264   0.4269
     0.5150   0.5349   0.7094   0.7389   0.7561   0.8706   0.8814   1.3070
     1.3076   1.3251   1.5867   1.6160   1.6204   1.8902   1.9041   1.9691
     1.9737   1.9955   2.0142   2.2240   2.2327   2.3177   2.3190   2.3917
     2.4532   2.4717   2.6227   2.7241   3.1510   3.1577   3.1610   3.1718
     3.2120   3.2275   3.5095   3.5125   3.7872   3.7990   3.8956   4.2078
     4.2417   4.2507   4.4596   4.4715   4.5467   4.5510   4.6428   4.7549
     4.7642   4.8754   4.8777   5.1759   5.2384   5.2489   5.3416   5.4097
     5.4553   5.6320   5.6387   5.6634   5.6663   5.7228   5.7274   5.7653
     5.8913   6.0648   6.2720   6.3183   6.3400   6.4569   6.4713   6.4818
     6.4833   6.5497   6.6695   6.7109   6.7279   6.8362   6.8955   6.9539
     6.9779   7.0529   7.0792

     the Fermi energy is     1.4531 ev

!    total energy              =   -6604.41930419 Ry
     Harris-Foulkes estimate   =   -6604.41930419 Ry
     estimated scf accuracy    <          4.3E-09 Ry

     The total energy is the sum of the following terms:

     one-electron contribution =  -48848.65782840 Ry
     hartree contribution      =   24925.75240723 Ry
     xc contribution           =   -3205.01905726 Ry
     ewald contribution        =   20523.50235215 Ry
     smearing contrib. (-TS)   =       0.00282209 Ry

     convergence has been achieved in  22 iterations

     Writing output data file 6526884.save

     init_run     :    147.28s CPU    160.13s WALL (       1 calls)
     electrons    :   8179.05s CPU   8748.75s WALL (       1 calls)

     Called by init_run:
     wfcinit      :    113.51s CPU    125.37s WALL (       1 calls)
     potinit      :     10.07s CPU     10.62s WALL (       1 calls)

     Called by electrons:
     c_bands      :   6759.06s CPU   7219.39s WALL (      23 calls)
     sum_band     :   1040.76s CPU   1133.26s WALL (      23 calls)
     v_of_rho     :    108.28s CPU    118.51s WALL (      23 calls)
     newd         :    282.14s CPU    286.82s WALL (      23 calls)
     mix_rho      :      2.96s CPU      3.30s WALL (      23 calls)
     vdW_energy   :      8.87s CPU     10.21s WALL (      23 calls)
     vdW_ffts     :     55.09s CPU     59.97s WALL (      46 calls)
     vdW_v        :     13.57s CPU     14.32s WALL (      23 calls)

     Called by c_bands:
     init_us_2    :     19.78s CPU     20.27s WALL (     564 calls)
     cegterg      :   6686.68s CPU   7145.53s WALL (     276 calls)

     Called by *egterg:
     h_psi        :   2994.32s CPU   3414.93s WALL (    1483 calls)
     s_psi        :    428.06s CPU    430.63s WALL (    1483 calls)
     g_psi        :      5.91s CPU      5.89s WALL (    1195 calls)
     cdiaghg      :   1915.01s CPU   1919.59s WALL (    1459 calls)

     Called by h_psi:
     add_vuspsi   :    425.72s CPU    428.21s WALL (    1483 calls)

     General routines
     calbec       :    616.04s CPU    618.78s WALL (    1759 calls)
     fft          :    122.10s CPU    130.58s WALL (    1518 calls)
     ffts         :      1.60s CPU      1.84s WALL (      46 calls)
     fftw         :   1894.89s CPU   2259.95s WALL (  673922 calls)
     interpolate  :      4.72s CPU      5.32s WALL (      46 calls)
     davcio       :      0.01s CPU      0.44s WALL (      12 calls)

     Parallel routines
     fft_scatter  :   1260.85s CPU   1500.22s WALL (  675486 calls)

     PWSCF        :     2h18m CPU        2h28m WALL


   This run was terminated on:  12:20:59   3Jul2015            

=------------------------------------------------------------------------------=
   JOB DONE.
=------------------------------------------------------------------------------=
