Setting SGE environment for SCC

     Program PWSCF v.5.1.2 starts on 24Aug2015 at 10:31:40 

     This program is part of the open-source Quantum ESPRESSO suite
     for quantum simulation of materials; please cite
         "P. Giannozzi et al., J. Phys.:Condens. Matter 21 395502 (2009);
          URL http://www.quantum-espresso.org", 
     in publications or presentations arising from this work. More details at
     http://www.quantum-espresso.org/quote

     Parallel version (MPI), running on    32 processors
     R & G space division:  proc/nbgrp/npool/nimage =      32
     Reading input from hollow.H2.Au535758.d.2.4.phi.45.psi.0.in
Warning: card &IONS ignored
Warning: card / ignored
Warning: card &CELL ignored
Warning: card / ignored

     Current dimensions of program PWSCF are:
     Max number of different atomic species (ntypx) = 10
     Max number of k-points (npk) =  40000
     Max angular momentum in pseudopotentials (lmaxx) =  3

     IMPORTANT: XC functional enforced from input :
     Exchange-correlation      = VDW-DF ( 1  4  4  0 1 0)
     Any further DFT definition will be discarded
     Please, verify this is what you really want


     Subspace diagonalization in iterative solution of the eigenvalue problem:
     a serial algorithm will be used


     Parallelization info
     --------------------
     sticks:   dense  smooth     PW     G-vecs:    dense   smooth      PW
     Min         445     223     58                96775    34191    4534
     Max         446     224     59                96790    34246    4540
     Sum       14269    7147   1867              3097177  1095093  145167


     Title: 
     hollow.H2.Au535758.d.2.4.phi.45.psi.0                                      


     bravais-lattice index     =            4
     lattice parameter (alat)  =      22.7436  a.u.
     unit-cell volume          =   22924.1508 (a.u.)^3
     number of atoms/cell      =           67
     number of atomic types    =            3
     number of electrons       =       712.00
     number of Kohn-Sham states=          427
     kinetic-energy cutoff     =      50.0000  Ry
     charge density cutoff     =     400.0000  Ry
     convergence threshold     =      1.0E-08
     mixing beta               =       0.7000
     number of iterations used =            8  plain     mixing
     Exchange-correlation      = VDW-DF ( 1  4  4  0 1 0)

     celldm(1)=  22.743643  celldm(2)=   0.000000  celldm(3)=   2.250000
     celldm(4)=   0.000000  celldm(5)=   0.000000  celldm(6)=   0.000000

     crystal axes: (cart. coord. in units of alat)
               a(1) = (   1.000000   0.000000   0.000000 )  
               a(2) = (  -0.500000   0.866025   0.000000 )  
               a(3) = (   0.000000   0.000000   2.250000 )  

     reciprocal axes: (cart. coord. in units 2 pi/alat)
               b(1) = (  1.000000  0.577350 -0.000000 )  
               b(2) = (  0.000000  1.154701  0.000000 )  
               b(3) = (  0.000000 -0.000000  0.444444 )  


     PseudoPot. # 1 for Au read from file:
     /home/scc/andrejb/qe/pseudo/Au.pbe-nd-van.UPF
     MD5 check sum: 458681b50f36d87ef23c61b04bba420a
     Pseudo is Ultrasoft + core correction, Zval = 11.0
     Generated by new atomic code, or converted to UPF format
     Using radial grid of  985 points,  3 beta functions with: 
                l(1) =   1
                l(2) =   2
                l(3) =   2
     Q(r) pseudized with  8 coefficients,  rinner =    1.100   1.100   1.100
                                                       1.100   1.100

     PseudoPot. # 2 for H  read from file:
     /home/scc/andrejb/qe/pseudo/H.pbe-van_ak.UPF
     MD5 check sum: 403db7282739603aa925980fa9b8608d
     Pseudo is Ultrasoft, Zval =  1.0
     Generated by new atomic code, or converted to UPF format
     Using radial grid of  615 points,  1 beta functions with: 
                l(1) =   0
     Q(r) pseudized with  8 coefficients,  rinner =    0.800

     PseudoPot. # 3 for O  read from file:
     /home/scc/andrejb/qe/pseudo/O.pbe-van_ak.UPF
     MD5 check sum: 4b8c549914a63cae506c6ff22b5af4fe
     Pseudo is Ultrasoft, Zval =  6.0
     Generated by new atomic code, or converted to UPF format
     Using radial grid of  737 points,  4 beta functions with: 
                l(1) =   0
                l(2) =   0
                l(3) =   1
                l(4) =   1
     Q(r) pseudized with  8 coefficients,  rinner =    0.800   0.800   0.800


     vdW kernel table read from file vdW_kernel_table
     MD5 check sum: 48e77a2e26edf626eeb0eaa751ad5cac

     atomic species   valence    mass     pseudopotential
        Au            11.00   196.96657     Au( 1.00)
        H              1.00     1.01000     H ( 1.00)
        O              6.00    16.00000     O ( 1.00)

     No symmetry found



   Cartesian axes

     site n.     atom                  positions (alat units)
         1           O   tau(   1) = (  -0.0186562   0.5650466   0.8896927  )
         2           H   tau(   2) = (  -0.0208375   0.5411347   0.8124178  )
         3           H   tau(   3) = (  -0.0249177   0.4965679   0.9323214  )
         4           Au  tau(   4) = (   0.3540481   0.6132292   0.0000000  )
         5           Au  tau(   5) = (   0.4790062   0.3967954   0.0000000  )
         6           Au  tau(   6) = (   0.6039644   0.1803616   0.0000000  )
         7           Au  tau(   7) = (   0.7289225  -0.0360723   0.0000000  )
         8           Au  tau(   8) = (   0.1041318   0.6132292   0.0000000  )
         9           Au  tau(   9) = (   0.2290899   0.3967954   0.0000000  )
        10           Au  tau(  10) = (   0.3540481   0.1803616   0.0000000  )
        11           Au  tau(  11) = (   0.4790062  -0.0360723   0.0000000  )
        12           Au  tau(  12) = (  -0.1457845   0.6132292   0.0000000  )
        13           Au  tau(  13) = (  -0.0208264   0.3967954   0.0000000  )
        14           Au  tau(  14) = (   0.1041318   0.1803616   0.0000000  )
        15           Au  tau(  15) = (   0.2290899  -0.0360723   0.0000000  )
        16           Au  tau(  16) = (  -0.3957008   0.6132292   0.0000000  )
        17           Au  tau(  17) = (  -0.2707426   0.3967954   0.0000000  )
        18           Au  tau(  18) = (  -0.1457845   0.1803616   0.0000000  )
        19           Au  tau(  19) = (  -0.0208264  -0.0360723   0.0000000  )
        20           Au  tau(  20) = (   0.4790062   0.6853738   0.2040557  )
        21           Au  tau(  21) = (   0.6039644   0.4689400   0.2040557  )
        22           Au  tau(  22) = (   0.7289225   0.2525061   0.2040557  )
        23           Au  tau(  23) = (   0.8538806   0.0360723   0.2040557  )
        24           Au  tau(  24) = (   0.2290899   0.6853738   0.2040557  )
        25           Au  tau(  25) = (   0.3540481   0.4689400   0.2040557  )
        26           Au  tau(  26) = (   0.4790062   0.2525061   0.2040557  )
        27           Au  tau(  27) = (   0.6039644   0.0360723   0.2040557  )
        28           Au  tau(  28) = (  -0.0208264   0.6853738   0.2040557  )
        29           Au  tau(  29) = (   0.1041318   0.4689400   0.2040557  )
        30           Au  tau(  30) = (   0.2290899   0.2525061   0.2040557  )
        31           Au  tau(  31) = (   0.3540481   0.0360723   0.2040557  )
        32           Au  tau(  32) = (  -0.2707426   0.6853738   0.2040557  )
        33           Au  tau(  33) = (  -0.1457845   0.4689400   0.2040557  )
        34           Au  tau(  34) = (  -0.0208264   0.2525061   0.2040557  )
        35           Au  tau(  35) = (   0.1041318   0.0360723   0.2040557  )
        36           Au  tau(  36) = (   0.3541162   0.7576593   0.4066483  )
        37           Au  tau(  37) = (   0.4791000   0.5411421   0.4066695  )
        38           Au  tau(  38) = (   0.6040570   0.3246862   0.4066617  )
        39           Au  tau(  39) = (   0.7290270   0.1081684   0.4066529  )
        40           Au  tau(  40) = (   0.1041162   0.7576236   0.4066247  )
        41           Au  tau(  41) = (   0.2291001   0.5411063   0.4066455  )
        42           Au  tau(  42) = (   0.3540567   0.3246505   0.4066380  )
        43           Au  tau(  43) = (   0.4790276   0.1081324   0.4066292  )
        44           Au  tau(  44) = (  -0.1458201   0.7576104   0.4066224  )
        45           Au  tau(  45) = (  -0.0208365   0.5410930   0.4066438  )
        46           Au  tau(  46) = (   0.1041202   0.3246372   0.4066359  )
        47           Au  tau(  47) = (   0.2290908   0.1081193   0.4066273  )
        48           Au  tau(  48) = (  -0.3958167   0.7575791   0.4065812  )
        49           Au  tau(  49) = (  -0.2708328   0.5410617   0.4066025  )
        50           Au  tau(  50) = (  -0.1458763   0.3246061   0.4065947  )
        51           Au  tau(  51) = (  -0.0209056   0.1080882   0.4065858  )
        52           Au  tau(  52) = (   0.3541085   0.6133344   0.6129762  )
        53           Au  tau(  53) = (   0.4790780   0.3968269   0.6129968  )
        54           Au  tau(  54) = (   0.6040356   0.1803811   0.6129859  )
        55           Au  tau(  55) = (   0.7290165  -0.0361221   0.6129385  )
        56           Au  tau(  56) = (   0.1041243   0.6133091   0.6130022  )
        57           Au  tau(  57) = (   0.2290941   0.3968013   0.6130241  )
        58           Au  tau(  58) = (   0.3540515   0.1803552   0.6130121  )
        59           Au  tau(  59) = (   0.4790323  -0.0361475   0.6129659  )
        60           Au  tau(  60) = (  -0.1458030   0.6133014   0.6129980  )
        61           Au  tau(  61) = (  -0.0208339   0.3967936   0.6130188  )
        62           Au  tau(  62) = (   0.1041239   0.1803477   0.6130083  )
        63           Au  tau(  63) = (   0.2291046  -0.0361554   0.6129607  )
        64           Au  tau(  64) = (  -0.3957908   0.6132739   0.6129471  )
        65           Au  tau(  65) = (  -0.2708208   0.3967658   0.6129688  )
        66           Au  tau(  66) = (  -0.1458636   0.1803200   0.6129569  )
        67           Au  tau(  67) = (  -0.0208823  -0.0361826   0.6129110  )

     number of k points=    12  Marzari-Vanderbilt smearing, width (Ry)=  0.0200
                       cart. coord. in units 2pi/alat
        k(    1) = (   0.2500000   0.4330127   0.1111111), wk =   0.1666667
        k(    2) = (   0.2500000  -0.1443376   0.1111111), wk =   0.1666667
        k(    3) = (  -0.2500000  -0.4330127   0.1111111), wk =   0.1666667
        k(    4) = (  -0.2500000   0.4330127  -0.1111111), wk =   0.1666667
        k(    5) = (   0.2500000  -0.4330127  -0.1111111), wk =   0.1666667
        k(    6) = (   0.5000000   0.0000000   0.1111111), wk =   0.1666667
        k(    7) = (  -0.5000000   0.0000000   0.1111111), wk =   0.1666667
        k(    8) = (  -0.2500000   0.1443376   0.1111111), wk =   0.1666667
        k(    9) = (  -0.2500000  -0.1443376  -0.1111111), wk =   0.1666667
        k(   10) = (   0.2500000   0.1443376  -0.1111111), wk =   0.1666667
        k(   11) = (   0.0000000  -0.2886751   0.1111111), wk =   0.1666667
        k(   12) = (   0.0000000   0.2886751   0.1111111), wk =   0.1666667

     Dense  grid:  3097177 G-vectors     FFT dimensions: ( 150, 150, 360)

     Smooth grid:  1095093 G-vectors     FFT dimensions: ( 108, 108, 240)

     Largest allocated arrays     est. size (Mb)     dimensions
        Kohn-Sham Wavefunctions        28.01 Mb     (    4299,  427)
        NL pseudopotentials            55.23 Mb     (    4299,  842)
        Each V/rho on FFT grid          4.12 Mb     (  270000)
        Each G-vector array             0.74 Mb     (   96788)
        G-vector shells                 0.16 Mb     (   21404)
     Largest temporary arrays     est. size (Mb)     dimensions
        Auxiliary wavefunctions       112.04 Mb     (    4299, 1708)
        Each subspace H/S matrix       44.51 Mb     (    1708, 1708)
        Each <psi_i|beta_j> matrix      5.49 Mb     (     842,  427)
        Arrays for rho mixing          32.96 Mb     (  270000,    8)

     Initial potential from superposition of free atoms
     Check: negative starting charge=   -1.730248

     starting charge  711.25682, renormalised to  712.00000

     negative rho (up, down):  1.732E+00 0.000E+00


     ************************************************************************
     *
     * You are using vdW-DF for exchange-correlation in this calculation.
     * Please cite the following three references that made this development
     * possible:
     *
     *   M. Dion, H. Rydberg, E. Schroder, D. C. Langreth, and
     *   B. I. Lundqvist, Phys. Rev. Lett. 92, 246401 (2004).
     *
     *   T. Thonhauser, V. R. Cooper, S. Li, A. Puzder, P. Hyldgaard, and
     *   D. C. Langreth, Phys. Rev. B 76, 125112 (2007).
     *
     *   G. Roman-Perez and J. M. Soler, Phys. Rev. Lett. 103, 096102 (2009).
     *
     *
     * If you are using vdW-DF2, please also cite:
     *
     *   K. Lee, E. D. Murray, L. Kong, B. I. Lundqvist, and
     *   D. C. Langreth, Phys. Rev. B 82, 081101(R) (2010).
     *
     *
     * If you are calculating the stress with vdW-DF, please also cite:
     *
     *   R. Sabatini, E. Kucukbenli, B. Kolb, T. Thonhauser, and
     *   S. de Gironcoli, J. Phys.: Condens. Matter 24, 424209 (2012).
     *
     ************************************************************************

     Carrying out vdW-DF run using the following parameters:

     Nqs =      20    Nr_points =    1024   r_max =   100.000
     q_mesh =
               0.00001000     0.04494208     0.09755937     0.15916263
               0.23128650     0.31572767     0.41458969     0.53033537
               0.66584808     0.82450364     1.01025438     1.22772762
               1.48234092     1.78043706     2.12944203     2.53805004
               3.01644009     3.57652955     4.23227104     5.00000000

     Gradients computed in reciprocal space

     ************************************************************************


     Starting wfc are  582 randomized atomic wfcs

     total cpu time spent up to now is      165.7 secs

     Self-consistent Calculation

     iteration #  1     ecut=    50.00 Ry     beta=0.70
     Davidson diagonalization with overlap
     ethr =  1.00E-02,  avg # of iterations =  3.0

     Threshold (ethr) on eigenvalues was too large:
     Diagonalizing with lowered threshold

     Davidson diagonalization with overlap
     ethr =  3.45E-04,  avg # of iterations =  5.2

     negative rho (up, down):  1.727E+00 0.000E+00

     total cpu time spent up to now is      810.2 secs

     total energy              =   -6602.80394304 Ry
     Harris-Foulkes estimate   =   -6605.03230435 Ry
     estimated scf accuracy    <       2.79499925 Ry

     iteration #  2     ecut=    50.00 Ry     beta=0.70
     Davidson diagonalization with overlap
     ethr =  3.93E-04,  avg # of iterations = 11.2

     negative rho (up, down):  1.727E+00 0.000E+00

     total cpu time spent up to now is     1742.5 secs

     total energy              =   -6596.96424136 Ry
     Harris-Foulkes estimate   =   -6610.04920924 Ry
     estimated scf accuracy    <      72.09627413 Ry

     iteration #  3     ecut=    50.00 Ry     beta=0.70
     Davidson diagonalization with overlap
     ethr =  3.93E-04,  avg # of iterations =  6.5

     negative rho (up, down):  1.737E+00 0.000E+00

     total cpu time spent up to now is     2377.7 secs

     total energy              =   -6603.14560627 Ry
     Harris-Foulkes estimate   =   -6605.01755065 Ry
     estimated scf accuracy    <       8.58120388 Ry

     iteration #  4     ecut=    50.00 Ry     beta=0.70
     Davidson diagonalization with overlap
     ethr =  3.93E-04,  avg # of iterations =  7.0

     negative rho (up, down):  1.739E+00 0.000E+00

     total cpu time spent up to now is     2801.2 secs

     total energy              =   -6603.61029992 Ry
     Harris-Foulkes estimate   =   -6605.08274657 Ry
     estimated scf accuracy    <      12.89947933 Ry

     iteration #  5     ecut=    50.00 Ry     beta=0.70
     Davidson diagonalization with overlap
     ethr =  3.93E-04,  avg # of iterations =  6.8

     negative rho (up, down):  1.748E+00 0.000E+00

     total cpu time spent up to now is     3179.3 secs

     total energy              =   -6604.30119649 Ry
     Harris-Foulkes estimate   =   -6604.65571575 Ry
     estimated scf accuracy    <       2.69739561 Ry

     iteration #  6     ecut=    50.00 Ry     beta=0.70
     Davidson diagonalization with overlap
     ethr =  3.79E-04,  avg # of iterations =  2.3

     negative rho (up, down):  1.753E+00 0.000E+00

     total cpu time spent up to now is     3467.5 secs

     total energy              =   -6604.42936546 Ry
     Harris-Foulkes estimate   =   -6604.47110542 Ry
     estimated scf accuracy    <       0.13091218 Ry

     iteration #  7     ecut=    50.00 Ry     beta=0.70
     Davidson diagonalization with overlap
     ethr =  1.84E-05,  avg # of iterations = 11.6

     negative rho (up, down):  1.755E+00 0.000E+00

     total cpu time spent up to now is     3967.3 secs

     total energy              =   -6604.43368502 Ry
     Harris-Foulkes estimate   =   -6604.46096315 Ry
     estimated scf accuracy    <       0.12001259 Ry

     iteration #  8     ecut=    50.00 Ry     beta=0.70
     Davidson diagonalization with overlap
     ethr =  1.69E-05,  avg # of iterations =  3.3

     negative rho (up, down):  1.756E+00 0.000E+00

     total cpu time spent up to now is     4284.9 secs

     total energy              =   -6604.43614565 Ry
     Harris-Foulkes estimate   =   -6604.44942861 Ry
     estimated scf accuracy    <       0.05115696 Ry

     iteration #  9     ecut=    50.00 Ry     beta=0.70
     Davidson diagonalization with overlap
     ethr =  7.18E-06,  avg # of iterations =  5.8

     negative rho (up, down):  1.756E+00 0.000E+00

     total cpu time spent up to now is     4637.4 secs

     total energy              =   -6604.43552992 Ry
     Harris-Foulkes estimate   =   -6604.44195888 Ry
     estimated scf accuracy    <       0.02344480 Ry

     iteration # 10     ecut=    50.00 Ry     beta=0.70
     Davidson diagonalization with overlap
     ethr =  3.29E-06,  avg # of iterations =  5.1

     negative rho (up, down):  1.757E+00 0.000E+00

     total cpu time spent up to now is     4982.5 secs

     total energy              =   -6604.43479489 Ry
     Harris-Foulkes estimate   =   -6604.43789599 Ry
     estimated scf accuracy    <       0.01098550 Ry

     iteration # 11     ecut=    50.00 Ry     beta=0.70
     Davidson diagonalization with overlap
     ethr =  1.54E-06,  avg # of iterations =  5.3

     negative rho (up, down):  1.758E+00 0.000E+00

     total cpu time spent up to now is     5324.8 secs

     total energy              =   -6604.43452167 Ry
     Harris-Foulkes estimate   =   -6604.43597206 Ry
     estimated scf accuracy    <       0.00578529 Ry

     iteration # 12     ecut=    50.00 Ry     beta=0.70
     Davidson diagonalization with overlap
     ethr =  8.13E-07,  avg # of iterations =  3.6

     negative rho (up, down):  1.758E+00 0.000E+00

     total cpu time spent up to now is     5637.1 secs

     total energy              =   -6604.43410900 Ry
     Harris-Foulkes estimate   =   -6604.43501625 Ry
     estimated scf accuracy    <       0.00153414 Ry

     iteration # 13     ecut=    50.00 Ry     beta=0.70
     Davidson diagonalization with overlap
     c_bands:  1 eigenvalues not converged
     c_bands:  1 eigenvalues not converged
     ethr =  2.15E-07,  avg # of iterations = 10.3

     negative rho (up, down):  1.758E+00 0.000E+00

     total cpu time spent up to now is     6090.3 secs

     total energy              =   -6604.43433745 Ry
     Harris-Foulkes estimate   =   -6604.43452493 Ry
     estimated scf accuracy    <       0.00052737 Ry

     iteration # 14     ecut=    50.00 Ry     beta=0.70
     Davidson diagonalization with overlap
     ethr =  7.41E-08,  avg # of iterations =  2.0

     negative rho (up, down):  1.758E+00 0.000E+00

     total cpu time spent up to now is     6383.1 secs

     total energy              =   -6604.43440684 Ry
     Harris-Foulkes estimate   =   -6604.43448885 Ry
     estimated scf accuracy    <       0.00032767 Ry

     iteration # 15     ecut=    50.00 Ry     beta=0.70
     Davidson diagonalization with overlap
     ethr =  4.60E-08,  avg # of iterations =  2.0

     negative rho (up, down):  1.758E+00 0.000E+00

     total cpu time spent up to now is     6653.2 secs

     total energy              =   -6604.43443813 Ry
     Harris-Foulkes estimate   =   -6604.43446727 Ry
     estimated scf accuracy    <       0.00011103 Ry

     iteration # 16     ecut=    50.00 Ry     beta=0.70
     Davidson diagonalization with overlap
     ethr =  1.56E-08,  avg # of iterations =  2.0

     negative rho (up, down):  1.758E+00 0.000E+00

     total cpu time spent up to now is     6924.2 secs

     total energy              =   -6604.43444268 Ry
     Harris-Foulkes estimate   =   -6604.43446037 Ry
     estimated scf accuracy    <       0.00012396 Ry

     iteration # 17     ecut=    50.00 Ry     beta=0.70
     Davidson diagonalization with overlap
     ethr =  1.56E-08,  avg # of iterations =  1.0

     negative rho (up, down):  1.758E+00 0.000E+00

     total cpu time spent up to now is     7192.8 secs

     total energy              =   -6604.43445114 Ry
     Harris-Foulkes estimate   =   -6604.43445769 Ry
     estimated scf accuracy    <       0.00006246 Ry

     iteration # 18     ecut=    50.00 Ry     beta=0.70
     Davidson diagonalization with overlap
     ethr =  8.77E-09,  avg # of iterations =  1.0

     negative rho (up, down):  1.758E+00 0.000E+00

     total cpu time spent up to now is     7511.7 secs

     total energy              =   -6604.43445344 Ry
     Harris-Foulkes estimate   =   -6604.43445566 Ry
     estimated scf accuracy    <       0.00000751 Ry

     iteration # 19     ecut=    50.00 Ry     beta=0.70
     Davidson diagonalization with overlap
     ethr =  1.06E-09,  avg # of iterations =  2.0

     negative rho (up, down):  1.757E+00 0.000E+00

     total cpu time spent up to now is     7783.4 secs

     total energy              =   -6604.43445452 Ry
     Harris-Foulkes estimate   =   -6604.43445508 Ry
     estimated scf accuracy    <       0.00000248 Ry

     iteration # 20     ecut=    50.00 Ry     beta=0.70
     Davidson diagonalization with overlap
     ethr =  3.48E-10,  avg # of iterations =  2.0

     negative rho (up, down):  1.757E+00 0.000E+00

     total cpu time spent up to now is     8054.5 secs

     total energy              =   -6604.43445491 Ry
     Harris-Foulkes estimate   =   -6604.43445491 Ry
     estimated scf accuracy    <       0.00000019 Ry

     iteration # 21     ecut=    50.00 Ry     beta=0.70
     Davidson diagonalization with overlap
     ethr =  2.74E-11,  avg # of iterations =  3.0

     negative rho (up, down):  1.757E+00 0.000E+00

     total cpu time spent up to now is     8421.6 secs

     total energy              =   -6604.43445495 Ry
     Harris-Foulkes estimate   =   -6604.43445499 Ry
     estimated scf accuracy    <       0.00000021 Ry

     iteration # 22     ecut=    50.00 Ry     beta=0.70
     Davidson diagonalization with overlap
     ethr =  2.74E-11,  avg # of iterations =  2.0

     negative rho (up, down):  1.757E+00 0.000E+00

     total cpu time spent up to now is     8686.7 secs

     total energy              =   -6604.43445497 Ry
     Harris-Foulkes estimate   =   -6604.43445498 Ry
     estimated scf accuracy    <       0.00000001 Ry

     iteration # 23     ecut=    50.00 Ry     beta=0.70
     Davidson diagonalization with overlap
     ethr =  1.87E-12,  avg # of iterations =  4.0

     negative rho (up, down):  1.757E+00 0.000E+00

     total cpu time spent up to now is     9101.9 secs

     total energy              =   -6604.43445498 Ry
     Harris-Foulkes estimate   =   -6604.43445498 Ry
     estimated scf accuracy    <       0.00000001 Ry

     iteration # 24     ecut=    50.00 Ry     beta=0.70
     Davidson diagonalization with overlap
     ethr =  1.87E-12,  avg # of iterations =  3.0

     negative rho (up, down):  1.757E+00 0.000E+00

     total cpu time spent up to now is     9411.6 secs

     total energy              =   -6604.43445498 Ry
     Harris-Foulkes estimate   =   -6604.43445499 Ry
     estimated scf accuracy    <       0.00000002 Ry

     iteration # 25     ecut=    50.00 Ry     beta=0.70
     Davidson diagonalization with overlap
     ethr =  1.87E-12,  avg # of iterations =  2.0

     negative rho (up, down):  1.757E+00 0.000E+00

     total cpu time spent up to now is     9728.2 secs

     End of self-consistent calculation

          k = 0.2500 0.4330 0.1111 (136853 PWs)   bands (ev):

   -18.5793  -6.4564  -6.3889  -5.9960  -5.9954  -5.3177  -4.9851  -4.9847
    -4.9462  -4.9445  -4.5848  -4.5845  -4.4861  -4.4858  -4.4720  -4.4496
    -4.4257  -4.3188  -4.3179  -4.2942  -4.2509  -4.2505  -4.1822  -4.1816
    -4.1756  -4.1743  -4.1536  -4.1480  -4.1471  -4.0781  -4.0737  -4.0455
    -4.0451  -4.0332  -4.0329  -4.0098  -4.0097  -3.9872  -3.9788  -3.9786
    -3.9523  -3.9000  -3.8998  -3.8520  -3.8515  -3.7935  -3.7926  -3.7382
    -3.7379  -3.7378  -3.7372  -3.7019  -3.6643  -3.6633  -3.6563  -3.6554
    -3.6548  -3.6265  -3.6233  -3.6155  -3.5550  -3.5541  -3.5458  -3.5279
    -3.5207  -3.4487  -3.4477  -3.4171  -3.4136  -3.3877  -3.3864  -3.3731
    -3.3564  -3.2972  -3.2964  -3.2794  -3.2786  -3.2275  -3.2228  -3.2219
    -3.1834  -3.1536  -3.1515  -3.1437  -3.1433  -3.1310  -3.1302  -3.1228
    -3.1218  -3.1126  -3.0716  -3.0338  -3.0329  -3.0201  -3.0187  -2.9925
    -2.9845  -2.9828  -2.9619  -2.9175  -2.9163  -2.9078  -2.8691  -2.8617
    -2.8504  -2.8499  -2.8239  -2.8203  -2.7916  -2.7606  -2.7537  -2.7330
    -2.7243  -2.7172  -2.7096  -2.6744  -2.6594  -2.6492  -2.6242  -2.6037
    -2.6007  -2.5797  -2.5777  -2.5685  -2.5665  -2.5572  -2.5350  -2.5337
    -2.4898  -2.4892  -2.4882  -2.4722  -2.4714  -2.4657  -2.4571  -2.4545
    -2.4542  -2.4530  -2.4478  -2.4364  -2.4347  -2.4246  -2.3990  -2.3979
    -2.3971  -2.3953  -2.3943  -2.3924  -2.3915  -2.3644  -2.3622  -2.3480
    -2.3470  -2.3294  -2.3292  -2.3197  -2.3193  -2.3182  -2.3168  -2.2985
    -2.2966  -2.2958  -2.2944  -2.2790  -2.2522  -2.2520  -2.2118  -2.2115
    -2.1872  -2.1863  -2.1594  -2.1585  -2.1318  -2.1306  -2.1136  -2.1094
    -2.0821  -2.0617  -2.0599  -2.0548  -2.0535  -2.0504  -2.0430  -2.0417
    -2.0160  -2.0102  -2.0014  -1.9430  -1.9399  -1.9384  -1.9360  -1.9351
    -1.9002  -1.8804  -1.8796  -1.8528  -1.8513  -1.7927  -1.7915  -1.7624
    -1.7445  -1.7434  -1.6831  -1.6827  -1.6715  -1.6702  -1.6605  -1.6588
    -1.6558  -1.6472  -1.6455  -1.5910  -1.5897  -1.5795  -1.5777  -1.5772
    -1.5600  -1.5569  -1.5229  -1.5223  -1.5061  -1.5054  -1.5048  -1.4980
    -1.4929  -1.4852  -1.4821  -1.4646  -1.4636  -1.4238  -1.4215  -1.4119
    -1.4093  -1.3906  -1.3761  -1.3348  -1.3324  -1.3069  -1.3026  -1.3018
    -1.2728  -1.2216  -1.2206  -1.2195  -1.2194  -1.2145  -1.2128  -1.2037
    -1.1859  -1.1842  -1.1465  -1.1431  -1.1150  -1.1127  -1.1086  -1.1076
    -1.1004  -1.0847  -1.0843  -1.0826  -1.0798  -1.0792  -1.0430  -1.0410
    -1.0398  -1.0391  -1.0101  -1.0087  -1.0048  -0.9805  -0.9744  -0.9725
    -0.9266  -0.9204  -0.9177  -0.8849  -0.8760  -0.8654  -0.8644  -0.8585
    -0.8565  -0.8555  -0.8540  -0.8438  -0.8423  -0.8181  -0.8169  -0.8134
    -0.8120  -0.8112  -0.7747  -0.7739  -0.7685  -0.7637  -0.7481  -0.7413
    -0.7396  -0.7282  -0.6863  -0.6719  -0.6674  -0.6619  -0.6608  -0.6595
    -0.6557  -0.6404  -0.6343  -0.6294  -0.6256  -0.6245  -0.6236  -0.5953
    -0.5836  -0.5822  -0.5791  -0.5730  -0.5694  -0.5668  -0.5647  -0.5550
    -0.5476  -0.5467  -0.5314  -0.5046  -0.5036  -0.4956  -0.4919  -0.4909
    -0.4158  -0.4133  -0.4115  -0.4104  -0.4024  -0.3997  -0.3653  -0.3533
    -0.3523  -0.3233  -0.3206  -0.3190  -0.2014  -0.1971  -0.0974   0.3183
     0.3188   0.3217   0.3221   0.3826   0.3870   0.7700   0.7724   0.8134
     0.8150   0.9259   1.0036   1.1123   1.1180   1.3365   1.3422   1.9671
     1.9709   2.1286   2.1335   2.2626   2.2679   2.3673   2.3677   2.5216
     2.7587   2.7711   2.8830   3.1055   3.1117   3.1894   3.1917   3.2900
     3.3067   3.5049   3.5175   3.5621   3.7629   3.7649   3.8251   3.8302
     4.0831   4.0897   4.0948   4.3339   4.3730   4.3770   4.4213   4.7553
     4.7599   4.7872   4.9218   5.0933   5.0959   5.1499   5.1781   5.5135
     5.7974   5.8801   5.8864   5.8928   5.9187   5.9565   5.9589   6.0515
     6.0696   6.0904   6.1141   6.1240   6.1269   6.1536   6.1582   6.1785
     6.1820   6.4394   6.5868   6.7248   6.7495   6.7794   6.8325   6.8365
     6.8394   6.9474   7.0266

          k = 0.2500-0.1443 0.1111 (136898 PWs)   bands (ev):

   -18.5793  -6.6087  -6.4461  -5.8133  -5.5212  -5.4634  -5.4629  -4.9250
    -4.9247  -4.7931  -4.7926  -4.6375  -4.6078  -4.5453  -4.5121  -4.5109
    -4.4784  -4.4781  -4.3497  -4.3081  -4.3076  -4.2481  -4.2271  -4.2266
    -4.1245  -4.1243  -4.0883  -4.0879  -4.0878  -4.0612  -4.0395  -4.0393
    -3.9353  -3.9323  -3.9321  -3.9119  -3.8947  -3.8945  -3.8827  -3.8821
    -3.8695  -3.8392  -3.8388  -3.8385  -3.8383  -3.8065  -3.8056  -3.7881
    -3.7879  -3.7752  -3.7322  -3.7312  -3.7002  -3.6860  -3.6841  -3.6797
    -3.6795  -3.6051  -3.6051  -3.5706  -3.5680  -3.5671  -3.4997  -3.4995
    -3.4843  -3.4839  -3.4540  -3.4530  -3.4524  -3.4522  -3.2986  -3.2980
    -3.2742  -3.2729  -3.2682  -3.2518  -3.2514  -3.2263  -3.2257  -3.1762
    -3.1756  -3.1600  -3.1592  -3.1390  -3.0915  -3.0908  -3.0713  -3.0661
    -3.0657  -3.0254  -3.0248  -3.0185  -3.0176  -3.0023  -3.0012  -2.9624
    -2.9621  -2.9426  -2.9397  -2.9373  -2.9366  -2.9335  -2.8587  -2.8566
    -2.8552  -2.8267  -2.8257  -2.7715  -2.7640  -2.7364  -2.7355  -2.7228
    -2.7215  -2.7162  -2.6961  -2.6862  -2.6766  -2.6694  -2.6563  -2.6341
    -2.6332  -2.6254  -2.6122  -2.6098  -2.6009  -2.6001  -2.5971  -2.5910
    -2.5887  -2.5429  -2.5106  -2.5101  -2.4945  -2.4810  -2.4750  -2.4737
    -2.4673  -2.4666  -2.4650  -2.4354  -2.4350  -2.4337  -2.4254  -2.4251
    -2.4085  -2.3806  -2.3802  -2.3797  -2.3789  -2.3788  -2.3331  -2.3022
    -2.3015  -2.3012  -2.2946  -2.2855  -2.2728  -2.2721  -2.2559  -2.2557
    -2.2240  -2.2209  -2.2207  -2.2022  -2.2008  -2.2003  -2.1681  -2.1673
    -2.1285  -2.1252  -2.1195  -2.1170  -2.1165  -2.1105  -2.1099  -2.1071
    -2.1063  -2.1008  -2.0995  -2.0839  -2.0828  -1.9571  -1.9554  -1.9238
    -1.9177  -1.9166  -1.9113  -1.9112  -1.8946  -1.8934  -1.8912  -1.8904
    -1.8887  -1.8661  -1.8591  -1.8576  -1.8524  -1.8463  -1.8454  -1.8229
    -1.8225  -1.7943  -1.7938  -1.7632  -1.7620  -1.7518  -1.7435  -1.7260
    -1.7251  -1.7224  -1.7047  -1.6915  -1.6914  -1.6842  -1.6839  -1.6582
    -1.6575  -1.6406  -1.6401  -1.6076  -1.6072  -1.5981  -1.5483  -1.5475
    -1.5351  -1.5335  -1.5333  -1.5084  -1.5059  -1.4734  -1.4724  -1.4715
    -1.4381  -1.4284  -1.4274  -1.4121  -1.4115  -1.3863  -1.3840  -1.3836
    -1.3543  -1.3518  -1.3513  -1.2892  -1.2882  -1.2766  -1.2747  -1.2594
    -1.2590  -1.2462  -1.2459  -1.2280  -1.2152  -1.1876  -1.1873  -1.1759
    -1.1477  -1.1380  -1.1368  -1.1254  -1.1253  -1.1235  -1.1199  -1.1174
    -1.1042  -1.0750  -1.0741  -1.0638  -1.0609  -1.0603  -1.0593  -1.0374
    -1.0207  -1.0169  -0.9987  -0.9963  -0.9045  -0.8911  -0.8861  -0.8851
    -0.8823  -0.8765  -0.8756  -0.8580  -0.8511  -0.8360  -0.8339  -0.8208
    -0.8202  -0.8113  -0.7918  -0.7904  -0.7880  -0.7802  -0.7087  -0.7076
    -0.6922  -0.6737  -0.6695  -0.6666  -0.6624  -0.6609  -0.6604  -0.6504
    -0.6474  -0.6318  -0.6157  -0.6061  -0.5800  -0.5724  -0.5709  -0.5609
    -0.5557  -0.5479  -0.5473  -0.5454  -0.5443  -0.5362  -0.5275  -0.5231
    -0.5176  -0.4925  -0.4910  -0.4881  -0.4784  -0.4775  -0.4590  -0.4270
    -0.4254  -0.4175  -0.4155  -0.3499  -0.3484  -0.3125  -0.3120  -0.2543
    -0.2536  -0.2526  -0.2383  -0.2259   0.0003   0.0029   0.3470   0.3470
     0.4384   0.4419   0.6339   0.6494   0.6646   0.7946   0.7957   1.2271
     1.2274   1.2448   1.5061   1.5369   1.5374   1.8142   1.8196   1.8926
     1.8930   1.9197   1.9234   2.1482   2.1502   2.2381   2.2388   2.3168
     2.3773   2.3822   2.5414   2.6412   3.0775   3.0803   3.0838   3.0851
     3.1365   3.1399   3.4305   3.4317   3.7114   3.7170   3.8252   4.1269
     4.1676   4.1721   4.3901   4.4108   4.4699   4.4723   4.5630   4.6800
     4.6821   4.7971   4.7987   5.1018   5.1685   5.1750   5.3177   5.3603
     5.4309   5.5555   5.5599   5.5839   5.5868   5.6450   5.6496   5.7024
     5.8510   6.0561   6.2524   6.2790   6.3509   6.3901   6.3926   6.4045
     6.4073   6.5417   6.6379   6.6463   6.6548   6.8395   6.8820   6.9037
     6.9292   7.0095   7.1076

          k =-0.2500-0.4330 0.1111 (136853 PWs)   bands (ev):

   -18.5793  -6.4564  -6.3889  -5.9960  -5.9954  -5.3177  -4.9851  -4.9847
    -4.9462  -4.9445  -4.5848  -4.5845  -4.4861  -4.4858  -4.4720  -4.4496
    -4.4257  -4.3188  -4.3179  -4.2942  -4.2509  -4.2505  -4.1822  -4.1816
    -4.1756  -4.1743  -4.1536  -4.1480  -4.1471  -4.0781  -4.0737  -4.0455
    -4.0451  -4.0332  -4.0329  -4.0098  -4.0097  -3.9872  -3.9788  -3.9786
    -3.9523  -3.9000  -3.8998  -3.8520  -3.8515  -3.7935  -3.7926  -3.7382
    -3.7379  -3.7378  -3.7372  -3.7019  -3.6643  -3.6633  -3.6563  -3.6554
    -3.6548  -3.6265  -3.6233  -3.6155  -3.5550  -3.5541  -3.5458  -3.5279
    -3.5207  -3.4487  -3.4477  -3.4171  -3.4136  -3.3877  -3.3864  -3.3731
    -3.3564  -3.2972  -3.2964  -3.2794  -3.2786  -3.2275  -3.2228  -3.2219
    -3.1834  -3.1536  -3.1515  -3.1437  -3.1433  -3.1310  -3.1302  -3.1228
    -3.1218  -3.1126  -3.0716  -3.0338  -3.0329  -3.0201  -3.0187  -2.9925
    -2.9845  -2.9828  -2.9619  -2.9175  -2.9163  -2.9078  -2.8691  -2.8617
    -2.8504  -2.8499  -2.8239  -2.8203  -2.7916  -2.7606  -2.7537  -2.7330
    -2.7243  -2.7172  -2.7096  -2.6744  -2.6594  -2.6492  -2.6242  -2.6037
    -2.6007  -2.5797  -2.5777  -2.5685  -2.5665  -2.5572  -2.5350  -2.5337
    -2.4898  -2.4892  -2.4882  -2.4722  -2.4714  -2.4657  -2.4571  -2.4545
    -2.4542  -2.4530  -2.4478  -2.4364  -2.4347  -2.4246  -2.3990  -2.3979
    -2.3971  -2.3953  -2.3943  -2.3924  -2.3915  -2.3644  -2.3622  -2.3480
    -2.3470  -2.3294  -2.3292  -2.3197  -2.3193  -2.3182  -2.3168  -2.2985
    -2.2966  -2.2958  -2.2944  -2.2790  -2.2522  -2.2520  -2.2118  -2.2115
    -2.1872  -2.1863  -2.1594  -2.1585  -2.1318  -2.1306  -2.1136  -2.1094
    -2.0821  -2.0617  -2.0599  -2.0548  -2.0535  -2.0504  -2.0430  -2.0417
    -2.0160  -2.0102  -2.0014  -1.9430  -1.9399  -1.9384  -1.9360  -1.9351
    -1.9002  -1.8804  -1.8796  -1.8528  -1.8513  -1.7927  -1.7915  -1.7624
    -1.7445  -1.7434  -1.6831  -1.6827  -1.6715  -1.6702  -1.6605  -1.6588
    -1.6558  -1.6472  -1.6455  -1.5910  -1.5897  -1.5795  -1.5777  -1.5772
    -1.5600  -1.5569  -1.5229  -1.5223  -1.5061  -1.5054  -1.5048  -1.4980
    -1.4929  -1.4852  -1.4821  -1.4646  -1.4636  -1.4238  -1.4215  -1.4119
    -1.4093  -1.3906  -1.3761  -1.3348  -1.3324  -1.3069  -1.3026  -1.3018
    -1.2728  -1.2216  -1.2206  -1.2195  -1.2194  -1.2145  -1.2128  -1.2037
    -1.1859  -1.1842  -1.1465  -1.1431  -1.1150  -1.1127  -1.1086  -1.1076
    -1.1004  -1.0847  -1.0843  -1.0826  -1.0798  -1.0792  -1.0430  -1.0410
    -1.0398  -1.0391  -1.0101  -1.0087  -1.0048  -0.9805  -0.9744  -0.9725
    -0.9266  -0.9204  -0.9177  -0.8849  -0.8760  -0.8654  -0.8644  -0.8585
    -0.8565  -0.8555  -0.8540  -0.8438  -0.8423  -0.8181  -0.8169  -0.8134
    -0.8120  -0.8112  -0.7747  -0.7739  -0.7685  -0.7637  -0.7481  -0.7413
    -0.7396  -0.7282  -0.6863  -0.6719  -0.6674  -0.6619  -0.6608  -0.6595
    -0.6557  -0.6404  -0.6343  -0.6294  -0.6256  -0.6245  -0.6236  -0.5953
    -0.5836  -0.5822  -0.5791  -0.5730  -0.5694  -0.5668  -0.5647  -0.5550
    -0.5476  -0.5467  -0.5314  -0.5046  -0.5036  -0.4956  -0.4919  -0.4909
    -0.4158  -0.4133  -0.4115  -0.4104  -0.4024  -0.3997  -0.3653  -0.3533
    -0.3523  -0.3233  -0.3206  -0.3190  -0.2014  -0.1971  -0.0974   0.3183
     0.3188   0.3217   0.3221   0.3826   0.3870   0.7700   0.7724   0.8134
     0.8150   0.9259   1.0036   1.1123   1.1180   1.3365   1.3422   1.9671
     1.9709   2.1286   2.1335   2.2626   2.2679   2.3673   2.3677   2.5216
     2.7587   2.7711   2.8830   3.1055   3.1117   3.1894   3.1917   3.2900
     3.3067   3.5049   3.5175   3.5621   3.7629   3.7649   3.8251   3.8302
     4.0831   4.0897   4.0948   4.3339   4.3730   4.3770   4.4213   4.7553
     4.7599   4.7872   4.9218   5.0933   5.0959   5.1499   5.1781   5.5135
     5.7969   5.8801   5.8863   5.8928   5.9187   5.9565   5.9589   6.0512
     6.0694   6.0904   6.1152   6.1242   6.1282   6.1536   6.1579   6.1786
     6.1821   6.4405   6.5876   6.7100   6.7503   6.7787   6.8324   6.8362
     6.8389   6.9474   7.0400

          k =-0.2500 0.4330-0.1111 (136853 PWs)   bands (ev):

   -18.5793  -6.4564  -6.3889  -5.9968  -5.9946  -5.3177  -4.9856  -4.9843
    -4.9469  -4.9437  -4.5852  -4.5840  -4.4861  -4.4859  -4.4718  -4.4496
    -4.4257  -4.3194  -4.3175  -4.2943  -4.2509  -4.2507  -4.1822  -4.1815
    -4.1759  -4.1740  -4.1535  -4.1488  -4.1464  -4.0786  -4.0731  -4.0460
    -4.0443  -4.0332  -4.0329  -4.0098  -4.0096  -3.9872  -3.9790  -3.9786
    -3.9524  -3.9003  -3.8996  -3.8528  -3.8507  -3.7934  -3.7926  -3.7382
    -3.7380  -3.7378  -3.7370  -3.7021  -3.6644  -3.6634  -3.6563  -3.6554
    -3.6548  -3.6263  -3.6237  -3.6155  -3.5551  -3.5540  -3.5458  -3.5277
    -3.5205  -3.4492  -3.4476  -3.4170  -3.4135  -3.3879  -3.3859  -3.3731
    -3.3566  -3.2974  -3.2966  -3.2793  -3.2783  -3.2274  -3.2229  -3.2219
    -3.1832  -3.1532  -3.1520  -3.1443  -3.1427  -3.1313  -3.1304  -3.1225
    -3.1215  -3.1127  -3.0715  -3.0344  -3.0325  -3.0202  -3.0185  -2.9926
    -2.9851  -2.9823  -2.9619  -2.9181  -2.9157  -2.9080  -2.8689  -2.8616
    -2.8509  -2.8492  -2.8240  -2.8206  -2.7917  -2.7605  -2.7535  -2.7329
    -2.7244  -2.7174  -2.7096  -2.6745  -2.6592  -2.6491  -2.6241  -2.6038
    -2.6007  -2.5799  -2.5782  -2.5686  -2.5659  -2.5573  -2.5354  -2.5334
    -2.4897  -2.4888  -2.4883  -2.4726  -2.4710  -2.4658  -2.4570  -2.4546
    -2.4540  -2.4532  -2.4478  -2.4369  -2.4340  -2.4246  -2.3991  -2.3977
    -2.3969  -2.3953  -2.3943  -2.3922  -2.3915  -2.3647  -2.3623  -2.3481
    -2.3469  -2.3296  -2.3291  -2.3197  -2.3193  -2.3184  -2.3167  -2.2990
    -2.2963  -2.2956  -2.2945  -2.2790  -2.2526  -2.2520  -2.2127  -2.2107
    -2.1876  -2.1860  -2.1590  -2.1583  -2.1320  -2.1303  -2.1137  -2.1092
    -2.0820  -2.0617  -2.0598  -2.0550  -2.0533  -2.0504  -2.0433  -2.0416
    -2.0159  -2.0098  -2.0014  -1.9431  -1.9400  -1.9385  -1.9363  -1.9354
    -1.9002  -1.8810  -1.8789  -1.8530  -1.8512  -1.7931  -1.7909  -1.7628
    -1.7443  -1.7433  -1.6834  -1.6823  -1.6716  -1.6700  -1.6607  -1.6586
    -1.6560  -1.6475  -1.6454  -1.5910  -1.5895  -1.5799  -1.5780  -1.5770
    -1.5600  -1.5568  -1.5229  -1.5225  -1.5061  -1.5055  -1.5047  -1.4978
    -1.4931  -1.4854  -1.4819  -1.4650  -1.4631  -1.4237  -1.4213  -1.4118
    -1.4093  -1.3905  -1.3761  -1.3353  -1.3320  -1.3071  -1.3024  -1.3021
    -1.2729  -1.2216  -1.2207  -1.2197  -1.2194  -1.2147  -1.2127  -1.2037
    -1.1862  -1.1837  -1.1466  -1.1428  -1.1151  -1.1127  -1.1089  -1.1073
    -1.1004  -1.0850  -1.0842  -1.0827  -1.0796  -1.0790  -1.0433  -1.0408
    -1.0397  -1.0391  -1.0102  -1.0086  -1.0044  -0.9808  -0.9747  -0.9718
    -0.9267  -0.9209  -0.9176  -0.8851  -0.8759  -0.8656  -0.8641  -0.8585
    -0.8565  -0.8554  -0.8541  -0.8439  -0.8423  -0.8182  -0.8168  -0.8135
    -0.8123  -0.8111  -0.7745  -0.7738  -0.7676  -0.7637  -0.7488  -0.7416
    -0.7396  -0.7280  -0.6847  -0.6719  -0.6671  -0.6620  -0.6607  -0.6594
    -0.6558  -0.6413  -0.6343  -0.6294  -0.6255  -0.6247  -0.6234  -0.5962
    -0.5835  -0.5822  -0.5793  -0.5730  -0.5695  -0.5666  -0.5639  -0.5546
    -0.5477  -0.5465  -0.5328  -0.5045  -0.5036  -0.4958  -0.4920  -0.4906
    -0.4158  -0.4134  -0.4116  -0.4103  -0.4024  -0.3999  -0.3653  -0.3533
    -0.3523  -0.3236  -0.3206  -0.3189  -0.2014  -0.1970  -0.0972   0.3183
     0.3189   0.3216   0.3222   0.3824   0.3868   0.7701   0.7724   0.8134
     0.8149   0.9260   1.0038   1.1119   1.1187   1.3361   1.3426   1.9671
     1.9707   2.1290   2.1333   2.2625   2.2679   2.3671   2.3678   2.5215
     2.7591   2.7711   2.8831   3.1053   3.1119   3.1891   3.1921   3.2899
     3.3067   3.5039   3.5185   3.5624   3.7626   3.7653   3.8250   3.8303
     4.0828   4.0896   4.0949   4.3345   4.3725   4.3773   4.4211   4.7547
     4.7604   4.7866   4.9217   5.0931   5.0960   5.1499   5.1782   5.5140
     5.7945   5.8799   5.8858   5.8935   5.9213   5.9567   5.9587   6.0505
     6.0689   6.0906   6.1150   6.1246   6.1271   6.1535   6.1580   6.1786
     6.1824   6.4395   6.5906   6.7104   6.7493   6.7819   6.8329   6.8358
     6.8387   6.9477   7.0396

          k = 0.2500-0.4330-0.1111 (136853 PWs)   bands (ev):

   -18.5793  -6.4564  -6.3889  -5.9968  -5.9946  -5.3177  -4.9856  -4.9843
    -4.9469  -4.9437  -4.5852  -4.5840  -4.4861  -4.4859  -4.4718  -4.4496
    -4.4257  -4.3194  -4.3175  -4.2943  -4.2509  -4.2507  -4.1822  -4.1815
    -4.1759  -4.1740  -4.1535  -4.1488  -4.1464  -4.0786  -4.0731  -4.0460
    -4.0443  -4.0332  -4.0329  -4.0098  -4.0096  -3.9872  -3.9790  -3.9786
    -3.9524  -3.9003  -3.8996  -3.8528  -3.8507  -3.7934  -3.7926  -3.7382
    -3.7380  -3.7378  -3.7370  -3.7021  -3.6644  -3.6634  -3.6563  -3.6554
    -3.6548  -3.6263  -3.6237  -3.6155  -3.5551  -3.5540  -3.5458  -3.5277
    -3.5205  -3.4492  -3.4476  -3.4170  -3.4135  -3.3879  -3.3859  -3.3731
    -3.3566  -3.2974  -3.2966  -3.2793  -3.2783  -3.2274  -3.2229  -3.2219
    -3.1832  -3.1532  -3.1520  -3.1443  -3.1427  -3.1313  -3.1304  -3.1225
    -3.1215  -3.1127  -3.0715  -3.0344  -3.0325  -3.0202  -3.0185  -2.9926
    -2.9851  -2.9823  -2.9619  -2.9181  -2.9157  -2.9080  -2.8689  -2.8616
    -2.8509  -2.8492  -2.8240  -2.8206  -2.7917  -2.7605  -2.7535  -2.7329
    -2.7244  -2.7174  -2.7096  -2.6745  -2.6592  -2.6491  -2.6241  -2.6038
    -2.6007  -2.5799  -2.5782  -2.5686  -2.5659  -2.5573  -2.5354  -2.5334
    -2.4897  -2.4888  -2.4883  -2.4726  -2.4710  -2.4658  -2.4570  -2.4546
    -2.4540  -2.4532  -2.4478  -2.4369  -2.4340  -2.4246  -2.3991  -2.3977
    -2.3969  -2.3953  -2.3943  -2.3922  -2.3915  -2.3647  -2.3623  -2.3481
    -2.3469  -2.3296  -2.3291  -2.3197  -2.3193  -2.3184  -2.3167  -2.2990
    -2.2963  -2.2956  -2.2945  -2.2790  -2.2526  -2.2520  -2.2127  -2.2107
    -2.1876  -2.1860  -2.1590  -2.1583  -2.1320  -2.1303  -2.1137  -2.1092
    -2.0820  -2.0617  -2.0598  -2.0549  -2.0533  -2.0504  -2.0433  -2.0416
    -2.0159  -2.0098  -2.0014  -1.9431  -1.9400  -1.9385  -1.9363  -1.9354
    -1.9002  -1.8810  -1.8789  -1.8530  -1.8512  -1.7931  -1.7909  -1.7628
    -1.7443  -1.7433  -1.6834  -1.6823  -1.6716  -1.6700  -1.6607  -1.6586
    -1.6560  -1.6475  -1.6454  -1.5910  -1.5895  -1.5799  -1.5780  -1.5770
    -1.5600  -1.5568  -1.5229  -1.5225  -1.5061  -1.5055  -1.5047  -1.4978
    -1.4931  -1.4854  -1.4819  -1.4650  -1.4631  -1.4237  -1.4213  -1.4118
    -1.4093  -1.3905  -1.3761  -1.3353  -1.3320  -1.3071  -1.3024  -1.3021
    -1.2729  -1.2216  -1.2207  -1.2197  -1.2194  -1.2147  -1.2127  -1.2037
    -1.1862  -1.1837  -1.1466  -1.1428  -1.1151  -1.1127  -1.1089  -1.1073
    -1.1004  -1.0850  -1.0842  -1.0827  -1.0796  -1.0790  -1.0433  -1.0408
    -1.0397  -1.0391  -1.0102  -1.0086  -1.0044  -0.9808  -0.9747  -0.9718
    -0.9267  -0.9209  -0.9176  -0.8851  -0.8759  -0.8656  -0.8641  -0.8585
    -0.8565  -0.8554  -0.8541  -0.8439  -0.8423  -0.8182  -0.8168  -0.8135
    -0.8123  -0.8111  -0.7745  -0.7738  -0.7676  -0.7637  -0.7488  -0.7416
    -0.7396  -0.7280  -0.6847  -0.6719  -0.6671  -0.6620  -0.6607  -0.6594
    -0.6558  -0.6413  -0.6343  -0.6294  -0.6255  -0.6247  -0.6234  -0.5962
    -0.5835  -0.5822  -0.5793  -0.5730  -0.5695  -0.5666  -0.5639  -0.5546
    -0.5477  -0.5465  -0.5328  -0.5045  -0.5036  -0.4958  -0.4920  -0.4906
    -0.4158  -0.4134  -0.4116  -0.4103  -0.4024  -0.3999  -0.3653  -0.3533
    -0.3523  -0.3236  -0.3206  -0.3189  -0.2014  -0.1970  -0.0972   0.3183
     0.3189   0.3216   0.3222   0.3824   0.3868   0.7701   0.7724   0.8134
     0.8149   0.9260   1.0038   1.1119   1.1187   1.3361   1.3426   1.9671
     1.9707   2.1290   2.1333   2.2625   2.2679   2.3671   2.3678   2.5215
     2.7591   2.7711   2.8831   3.1053   3.1119   3.1891   3.1921   3.2899
     3.3067   3.5039   3.5185   3.5624   3.7626   3.7653   3.8250   3.8303
     4.0828   4.0896   4.0949   4.3345   4.3725   4.3773   4.4211   4.7547
     4.7604   4.7866   4.9217   5.0931   5.0960   5.1499   5.1782   5.5139
     5.7949   5.8799   5.8859   5.8935   5.9214   5.9567   5.9587   6.0508
     6.0690   6.0906   6.1139   6.1237   6.1264   6.1534   6.1584   6.1786
     6.1824   6.4386   6.5897   6.7229   6.7496   6.7823   6.8330   6.8360
     6.8393   6.9477   7.0270

          k = 0.5000 0.0000 0.1111 (136853 PWs)   bands (ev):

   -18.5793  -6.4563  -6.3889  -5.9975  -5.9939  -5.3177  -4.9855  -4.9844
    -4.9478  -4.9429  -4.5852  -4.5840  -4.4861  -4.4858  -4.4718  -4.4496
    -4.4257  -4.3193  -4.3176  -4.2943  -4.2509  -4.2506  -4.1822  -4.1815
    -4.1753  -4.1745  -4.1535  -4.1487  -4.1464  -4.0785  -4.0733  -4.0460
    -4.0442  -4.0331  -4.0330  -4.0098  -4.0096  -3.9872  -3.9789  -3.9787
    -3.9524  -3.9002  -3.8998  -3.8528  -3.8507  -3.7936  -3.7927  -3.7385
    -3.7378  -3.7377  -3.7372  -3.7021  -3.6644  -3.6636  -3.6562  -3.6554
    -3.6548  -3.6256  -3.6237  -3.6156  -3.5551  -3.5542  -3.5454  -3.5278
    -3.5204  -3.4488  -3.4480  -3.4167  -3.4135  -3.3878  -3.3860  -3.3731
    -3.3566  -3.2973  -3.2968  -3.2790  -3.2785  -3.2278  -3.2226  -3.2220
    -3.1831  -3.1534  -3.1517  -3.1444  -3.1426  -3.1313  -3.1304  -3.1223
    -3.1217  -3.1127  -3.0714  -3.0345  -3.0325  -3.0195  -3.0189  -2.9925
    -2.9838  -2.9832  -2.9620  -2.9186  -2.9155  -2.9090  -2.8691  -2.8616
    -2.8511  -2.8493  -2.8263  -2.8200  -2.7915  -2.7578  -2.7532  -2.7334
    -2.7242  -2.7145  -2.7096  -2.6773  -2.6594  -2.6486  -2.6244  -2.6042
    -2.6034  -2.5795  -2.5753  -2.5678  -2.5672  -2.5575  -2.5347  -2.5336
    -2.4902  -2.4889  -2.4883  -2.4728  -2.4707  -2.4657  -2.4571  -2.4546
    -2.4539  -2.4531  -2.4479  -2.4369  -2.4340  -2.4267  -2.3985  -2.3981
    -2.3968  -2.3960  -2.3949  -2.3927  -2.3909  -2.3639  -2.3623  -2.3476
    -2.3467  -2.3296  -2.3291  -2.3197  -2.3193  -2.3181  -2.3160  -2.2993
    -2.2963  -2.2960  -2.2940  -2.2791  -2.2526  -2.2520  -2.2126  -2.2108
    -2.1878  -2.1859  -2.1592  -2.1589  -2.1310  -2.1303  -2.1134  -2.1092
    -2.0820  -2.0610  -2.0597  -2.0545  -2.0536  -2.0498  -2.0429  -2.0414
    -2.0160  -2.0100  -2.0014  -1.9434  -1.9409  -1.9386  -1.9359  -1.9354
    -1.9008  -1.8809  -1.8791  -1.8528  -1.8518  -1.7931  -1.7910  -1.7630
    -1.7438  -1.7433  -1.6833  -1.6821  -1.6719  -1.6698  -1.6607  -1.6587
    -1.6560  -1.6475  -1.6454  -1.5901  -1.5898  -1.5795  -1.5784  -1.5776
    -1.5596  -1.5566  -1.5231  -1.5227  -1.5060  -1.5054  -1.5047  -1.4978
    -1.4937  -1.4856  -1.4820  -1.4645  -1.4636  -1.4229  -1.4222  -1.4119
    -1.4090  -1.3905  -1.3761  -1.3351  -1.3321  -1.3071  -1.3026  -1.3021
    -1.2729  -1.2222  -1.2209  -1.2195  -1.2186  -1.2142  -1.2124  -1.2034
    -1.1863  -1.1838  -1.1461  -1.1431  -1.1150  -1.1133  -1.1083  -1.1078
    -1.1004  -1.0853  -1.0847  -1.0831  -1.0797  -1.0786  -1.0434  -1.0403
    -1.0393  -1.0391  -1.0097  -1.0085  -1.0044  -0.9811  -0.9745  -0.9714
    -0.9266  -0.9237  -0.9180  -0.8854  -0.8760  -0.8655  -0.8643  -0.8594
    -0.8559  -0.8553  -0.8540  -0.8433  -0.8425  -0.8177  -0.8168  -0.8135
    -0.8122  -0.8114  -0.7741  -0.7739  -0.7646  -0.7627  -0.7521  -0.7429
    -0.7391  -0.7284  -0.6785  -0.6718  -0.6651  -0.6610  -0.6603  -0.6591
    -0.6556  -0.6479  -0.6343  -0.6288  -0.6259  -0.6253  -0.6235  -0.5990
    -0.5833  -0.5815  -0.5807  -0.5728  -0.5697  -0.5664  -0.5598  -0.5506
    -0.5471  -0.5466  -0.5409  -0.5043  -0.5031  -0.4961  -0.4913  -0.4897
    -0.4153  -0.4136  -0.4115  -0.4103  -0.4020  -0.4018  -0.3657  -0.3531
    -0.3524  -0.3239  -0.3208  -0.3189  -0.1999  -0.1977  -0.0968   0.3182
     0.3189   0.3217   0.3221   0.3832   0.3847   0.7699   0.7722   0.8133
     0.8151   0.9264   1.0043   1.1123   1.1193   1.3341   1.3444   1.9680
     1.9691   2.1295   2.1330   2.2631   2.2667   2.3666   2.3683   2.5215
     2.7587   2.7716   2.8833   3.1040   3.1136   3.1891   3.1920   3.2897
     3.3068   3.4996   3.5228   3.5623   3.7627   3.7653   3.8270   3.8283
     4.0821   4.0907   4.0945   4.3344   4.3735   4.3761   4.4212   4.7553
     4.7604   4.7854   4.9221   5.0934   5.0959   5.1518   5.1774   5.5156
     5.7857   5.8804   5.8867   5.8936   5.9311   5.9575   5.9587   6.0462
     6.0683   6.0911   6.1151   6.1207   6.1253   6.1480   6.1603   6.1790
     6.1843   6.4362   6.6002   6.7148   6.7513   6.7904   6.8309   6.8379
     6.8393   6.9472   7.0321

          k =-0.5000 0.0000 0.1111 (136853 PWs)   bands (ev):

   -18.5793  -6.4563  -6.3889  -5.9975  -5.9939  -5.3177  -4.9855  -4.9844
    -4.9478  -4.9429  -4.5852  -4.5840  -4.4861  -4.4858  -4.4718  -4.4496
    -4.4257  -4.3193  -4.3176  -4.2943  -4.2509  -4.2506  -4.1822  -4.1815
    -4.1753  -4.1745  -4.1535  -4.1487  -4.1464  -4.0785  -4.0733  -4.0460
    -4.0442  -4.0331  -4.0330  -4.0098  -4.0096  -3.9872  -3.9789  -3.9787
    -3.9524  -3.9002  -3.8998  -3.8528  -3.8507  -3.7936  -3.7927  -3.7385
    -3.7378  -3.7377  -3.7372  -3.7021  -3.6644  -3.6636  -3.6562  -3.6554
    -3.6548  -3.6256  -3.6237  -3.6156  -3.5551  -3.5542  -3.5454  -3.5278
    -3.5204  -3.4488  -3.4480  -3.4167  -3.4135  -3.3878  -3.3860  -3.3731
    -3.3566  -3.2973  -3.2968  -3.2790  -3.2785  -3.2278  -3.2226  -3.2220
    -3.1831  -3.1534  -3.1517  -3.1444  -3.1426  -3.1313  -3.1304  -3.1223
    -3.1217  -3.1127  -3.0714  -3.0345  -3.0325  -3.0195  -3.0189  -2.9925
    -2.9838  -2.9832  -2.9620  -2.9186  -2.9155  -2.9090  -2.8691  -2.8616
    -2.8511  -2.8493  -2.8263  -2.8200  -2.7915  -2.7578  -2.7532  -2.7334
    -2.7242  -2.7145  -2.7096  -2.6773  -2.6594  -2.6486  -2.6244  -2.6042
    -2.6034  -2.5795  -2.5753  -2.5678  -2.5672  -2.5575  -2.5347  -2.5336
    -2.4902  -2.4889  -2.4883  -2.4728  -2.4707  -2.4657  -2.4571  -2.4546
    -2.4539  -2.4531  -2.4479  -2.4369  -2.4340  -2.4267  -2.3985  -2.3981
    -2.3968  -2.3960  -2.3949  -2.3927  -2.3909  -2.3639  -2.3623  -2.3476
    -2.3467  -2.3296  -2.3291  -2.3197  -2.3193  -2.3181  -2.3160  -2.2993
    -2.2963  -2.2960  -2.2940  -2.2791  -2.2526  -2.2520  -2.2126  -2.2108
    -2.1878  -2.1859  -2.1592  -2.1589  -2.1310  -2.1303  -2.1134  -2.1092
    -2.0820  -2.0610  -2.0597  -2.0545  -2.0536  -2.0497  -2.0429  -2.0414
    -2.0160  -2.0100  -2.0014  -1.9434  -1.9409  -1.9386  -1.9359  -1.9354
    -1.9008  -1.8809  -1.8791  -1.8528  -1.8518  -1.7931  -1.7910  -1.7630
    -1.7438  -1.7433  -1.6833  -1.6821  -1.6719  -1.6698  -1.6607  -1.6587
    -1.6560  -1.6475  -1.6454  -1.5901  -1.5898  -1.5795  -1.5784  -1.5776
    -1.5596  -1.5566  -1.5231  -1.5227  -1.5060  -1.5054  -1.5047  -1.4978
    -1.4937  -1.4856  -1.4820  -1.4645  -1.4636  -1.4229  -1.4222  -1.4119
    -1.4090  -1.3905  -1.3761  -1.3351  -1.3321  -1.3071  -1.3026  -1.3021
    -1.2729  -1.2222  -1.2209  -1.2195  -1.2186  -1.2142  -1.2124  -1.2034
    -1.1863  -1.1838  -1.1461  -1.1431  -1.1150  -1.1133  -1.1083  -1.1078
    -1.1004  -1.0853  -1.0847  -1.0831  -1.0797  -1.0786  -1.0434  -1.0403
    -1.0393  -1.0391  -1.0097  -1.0085  -1.0044  -0.9811  -0.9745  -0.9714
    -0.9266  -0.9237  -0.9180  -0.8854  -0.8760  -0.8655  -0.8643  -0.8594
    -0.8559  -0.8553  -0.8540  -0.8433  -0.8425  -0.8177  -0.8168  -0.8135
    -0.8122  -0.8114  -0.7741  -0.7739  -0.7646  -0.7627  -0.7521  -0.7429
    -0.7391  -0.7284  -0.6785  -0.6718  -0.6651  -0.6610  -0.6603  -0.6591
    -0.6556  -0.6479  -0.6343  -0.6288  -0.6259  -0.6253  -0.6235  -0.5990
    -0.5833  -0.5815  -0.5807  -0.5728  -0.5697  -0.5664  -0.5598  -0.5506
    -0.5471  -0.5466  -0.5409  -0.5043  -0.5031  -0.4961  -0.4913  -0.4897
    -0.4153  -0.4136  -0.4115  -0.4103  -0.4020  -0.4018  -0.3657  -0.3531
    -0.3524  -0.3239  -0.3208  -0.3189  -0.1999  -0.1977  -0.0968   0.3182
     0.3189   0.3217   0.3221   0.3832   0.3847   0.7699   0.7722   0.8133
     0.8151   0.9264   1.0043   1.1123   1.1193   1.3341   1.3444   1.9680
     1.9691   2.1295   2.1330   2.2631   2.2667   2.3666   2.3683   2.5215
     2.7587   2.7716   2.8833   3.1040   3.1136   3.1891   3.1920   3.2897
     3.3068   3.4996   3.5228   3.5623   3.7627   3.7653   3.8270   3.8283
     4.0821   4.0907   4.0945   4.3344   4.3735   4.3761   4.4212   4.7553
     4.7604   4.7854   4.9221   5.0934   5.0959   5.1518   5.1774   5.5156
     5.7857   5.8804   5.8867   5.8936   5.9311   5.9575   5.9587   6.0462
     6.0683   6.0911   6.1153   6.1208   6.1253   6.1480   6.1603   6.1790
     6.1843   6.4363   6.6004   6.7137   6.7510   6.7904   6.8309   6.8378
     6.8392   6.9471   7.0326

          k =-0.2500 0.1443 0.1111 (136898 PWs)   bands (ev):

   -18.5793  -6.6087  -6.4461  -5.8133  -5.5212  -5.4634  -5.4629  -4.9250
    -4.9247  -4.7931  -4.7926  -4.6375  -4.6078  -4.5453  -4.5121  -4.5109
    -4.4784  -4.4781  -4.3497  -4.3081  -4.3076  -4.2481  -4.2271  -4.2266
    -4.1245  -4.1243  -4.0883  -4.0879  -4.0878  -4.0612  -4.0395  -4.0393
    -3.9353  -3.9323  -3.9320  -3.9119  -3.8947  -3.8945  -3.8827  -3.8821
    -3.8695  -3.8392  -3.8388  -3.8385  -3.8383  -3.8065  -3.8056  -3.7881
    -3.7879  -3.7752  -3.7322  -3.7312  -3.7002  -3.6860  -3.6841  -3.6797
    -3.6795  -3.6052  -3.6051  -3.5706  -3.5680  -3.5670  -3.4997  -3.4995
    -3.4843  -3.4839  -3.4540  -3.4530  -3.4524  -3.4522  -3.2986  -3.2980
    -3.2742  -3.2729  -3.2681  -3.2518  -3.2514  -3.2263  -3.2257  -3.1762
    -3.1756  -3.1600  -3.1592  -3.1390  -3.0915  -3.0908  -3.0713  -3.0661
    -3.0657  -3.0254  -3.0248  -3.0185  -3.0176  -3.0023  -3.0012  -2.9624
    -2.9621  -2.9426  -2.9397  -2.9373  -2.9366  -2.9335  -2.8587  -2.8566
    -2.8552  -2.8267  -2.8257  -2.7715  -2.7640  -2.7364  -2.7355  -2.7228
    -2.7215  -2.7161  -2.6961  -2.6862  -2.6766  -2.6694  -2.6563  -2.6341
    -2.6332  -2.6254  -2.6122  -2.6098  -2.6009  -2.6001  -2.5971  -2.5910
    -2.5887  -2.5429  -2.5106  -2.5101  -2.4945  -2.4810  -2.4750  -2.4737
    -2.4673  -2.4666  -2.4650  -2.4354  -2.4350  -2.4337  -2.4254  -2.4251
    -2.4085  -2.3806  -2.3802  -2.3797  -2.3789  -2.3788  -2.3331  -2.3022
    -2.3015  -2.3012  -2.2946  -2.2856  -2.2728  -2.2721  -2.2558  -2.2557
    -2.2240  -2.2209  -2.2207  -2.2022  -2.2008  -2.2003  -2.1681  -2.1673
    -2.1285  -2.1252  -2.1195  -2.1170  -2.1165  -2.1105  -2.1099  -2.1071
    -2.1063  -2.1008  -2.0995  -2.0839  -2.0828  -1.9571  -1.9554  -1.9238
    -1.9177  -1.9166  -1.9113  -1.9112  -1.8946  -1.8934  -1.8912  -1.8904
    -1.8887  -1.8661  -1.8591  -1.8576  -1.8524  -1.8463  -1.8454  -1.8229
    -1.8225  -1.7943  -1.7938  -1.7632  -1.7620  -1.7518  -1.7435  -1.7260
    -1.7251  -1.7224  -1.7047  -1.6915  -1.6914  -1.6842  -1.6839  -1.6582
    -1.6575  -1.6406  -1.6401  -1.6076  -1.6072  -1.5981  -1.5483  -1.5475
    -1.5351  -1.5335  -1.5333  -1.5084  -1.5059  -1.4734  -1.4724  -1.4715
    -1.4381  -1.4284  -1.4274  -1.4121  -1.4115  -1.3863  -1.3839  -1.3836
    -1.3543  -1.3518  -1.3513  -1.2892  -1.2882  -1.2766  -1.2747  -1.2594
    -1.2590  -1.2462  -1.2459  -1.2280  -1.2152  -1.1876  -1.1873  -1.1759
    -1.1477  -1.1380  -1.1368  -1.1254  -1.1253  -1.1235  -1.1199  -1.1174
    -1.1042  -1.0750  -1.0741  -1.0638  -1.0609  -1.0603  -1.0593  -1.0374
    -1.0207  -1.0169  -0.9987  -0.9963  -0.9045  -0.8911  -0.8861  -0.8851
    -0.8823  -0.8765  -0.8756  -0.8580  -0.8511  -0.8360  -0.8339  -0.8208
    -0.8202  -0.8113  -0.7918  -0.7904  -0.7880  -0.7802  -0.7087  -0.7076
    -0.6922  -0.6737  -0.6695  -0.6666  -0.6624  -0.6609  -0.6604  -0.6504
    -0.6474  -0.6318  -0.6157  -0.6061  -0.5800  -0.5724  -0.5709  -0.5609
    -0.5557  -0.5479  -0.5473  -0.5454  -0.5443  -0.5362  -0.5275  -0.5231
    -0.5176  -0.4925  -0.4910  -0.4881  -0.4784  -0.4775  -0.4590  -0.4270
    -0.4254  -0.4175  -0.4155  -0.3499  -0.3484  -0.3125  -0.3120  -0.2543
    -0.2536  -0.2526  -0.2383  -0.2259   0.0003   0.0029   0.3470   0.3470
     0.4384   0.4419   0.6339   0.6494   0.6646   0.7946   0.7957   1.2271
     1.2274   1.2448   1.5061   1.5369   1.5374   1.8142   1.8196   1.8926
     1.8930   1.9197   1.9234   2.1482   2.1502   2.2381   2.2388   2.3168
     2.3773   2.3822   2.5414   2.6412   3.0775   3.0803   3.0838   3.0851
     3.1365   3.1399   3.4305   3.4317   3.7114   3.7170   3.8252   4.1269
     4.1676   4.1721   4.3901   4.4108   4.4699   4.4723   4.5630   4.6800
     4.6821   4.7971   4.7987   5.1018   5.1685   5.1750   5.3177   5.3603
     5.4309   5.5555   5.5599   5.5839   5.5868   5.6450   5.6496   5.7023
     5.8516   6.0546   6.2525   6.2783   6.3508   6.3901   6.3926   6.4045
     6.4073   6.5453   6.6381   6.6474   6.6587   6.8388   6.8807   6.9035
     6.9279   7.0075   7.1054

          k =-0.2500-0.1443-0.1111 (136898 PWs)   bands (ev):

   -18.5793  -6.6087  -6.4461  -5.8133  -5.5212  -5.4634  -5.4629  -4.9250
    -4.9247  -4.7932  -4.7926  -4.6375  -4.6078  -4.5454  -4.5121  -4.5110
    -4.4782  -4.4781  -4.3496  -4.3079  -4.3078  -4.2480  -4.2271  -4.2266
    -4.1244  -4.1243  -4.0883  -4.0879  -4.0878  -4.0611  -4.0395  -4.0392
    -3.9352  -3.9323  -3.9322  -3.9118  -3.8948  -3.8945  -3.8828  -3.8821
    -3.8694  -3.8392  -3.8388  -3.8384  -3.8382  -3.8066  -3.8056  -3.7880
    -3.7879  -3.7751  -3.7324  -3.7311  -3.7004  -3.6860  -3.6841  -3.6797
    -3.6795  -3.6052  -3.6051  -3.5705  -3.5678  -3.5670  -3.4998  -3.4996
    -3.4842  -3.4838  -3.4538  -3.4530  -3.4527  -3.4523  -3.2986  -3.2981
    -3.2743  -3.2729  -3.2681  -3.2518  -3.2514  -3.2263  -3.2254  -3.1762
    -3.1756  -3.1600  -3.1592  -3.1389  -3.0916  -3.0905  -3.0714  -3.0662
    -3.0658  -3.0253  -3.0248  -3.0185  -3.0177  -3.0024  -3.0013  -2.9622
    -2.9619  -2.9426  -2.9397  -2.9372  -2.9366  -2.9334  -2.8587  -2.8566
    -2.8554  -2.8266  -2.8257  -2.7719  -2.7637  -2.7363  -2.7354  -2.7229
    -2.7214  -2.7162  -2.6961  -2.6860  -2.6767  -2.6687  -2.6562  -2.6342
    -2.6333  -2.6264  -2.6122  -2.6100  -2.6012  -2.6005  -2.5970  -2.5904
    -2.5888  -2.5428  -2.5107  -2.5101  -2.4943  -2.4812  -2.4750  -2.4737
    -2.4674  -2.4666  -2.4652  -2.4356  -2.4347  -2.4337  -2.4254  -2.4249
    -2.4083  -2.3807  -2.3800  -2.3795  -2.3792  -2.3790  -2.3332  -2.3024
    -2.3015  -2.3012  -2.2945  -2.2856  -2.2729  -2.2718  -2.2557  -2.2556
    -2.2239  -2.2208  -2.2206  -2.2023  -2.2008  -2.2003  -2.1681  -2.1673
    -2.1285  -2.1250  -2.1191  -2.1169  -2.1163  -2.1107  -2.1099  -2.1073
    -2.1068  -2.1007  -2.0994  -2.0840  -2.0829  -1.9571  -1.9554  -1.9237
    -1.9176  -1.9166  -1.9112  -1.9111  -1.8953  -1.8938  -1.8911  -1.8903
    -1.8881  -1.8661  -1.8590  -1.8575  -1.8525  -1.8462  -1.8450  -1.8232
    -1.8228  -1.7943  -1.7940  -1.7632  -1.7620  -1.7517  -1.7434  -1.7259
    -1.7251  -1.7222  -1.7047  -1.6917  -1.6915  -1.6843  -1.6840  -1.6580
    -1.6573  -1.6407  -1.6401  -1.6079  -1.6074  -1.5982  -1.5485  -1.5474
    -1.5351  -1.5336  -1.5333  -1.5087  -1.5056  -1.4734  -1.4723  -1.4713
    -1.4381  -1.4284  -1.4273  -1.4120  -1.4114  -1.3862  -1.3840  -1.3835
    -1.3543  -1.3517  -1.3513  -1.2895  -1.2884  -1.2766  -1.2748  -1.2596
    -1.2589  -1.2461  -1.2457  -1.2276  -1.2149  -1.1876  -1.1873  -1.1759
    -1.1472  -1.1380  -1.1368  -1.1255  -1.1254  -1.1237  -1.1199  -1.1176
    -1.1041  -1.0754  -1.0739  -1.0646  -1.0610  -1.0603  -1.0592  -1.0375
    -1.0207  -1.0172  -0.9983  -0.9962  -0.9044  -0.8912  -0.8861  -0.8851
    -0.8820  -0.8769  -0.8755  -0.8570  -0.8511  -0.8360  -0.8340  -0.8210
    -0.8202  -0.8114  -0.7920  -0.7903  -0.7882  -0.7803  -0.7091  -0.7075
    -0.6915  -0.6736  -0.6696  -0.6666  -0.6626  -0.6609  -0.6605  -0.6512
    -0.6472  -0.6317  -0.6143  -0.6060  -0.5819  -0.5724  -0.5706  -0.5610
    -0.5563  -0.5478  -0.5471  -0.5454  -0.5445  -0.5356  -0.5274  -0.5232
    -0.5177  -0.4924  -0.4907  -0.4877  -0.4783  -0.4772  -0.4590  -0.4270
    -0.4254  -0.4174  -0.4157  -0.3498  -0.3485  -0.3126  -0.3119  -0.2543
    -0.2536  -0.2525  -0.2389  -0.2259   0.0005   0.0034   0.3470   0.3471
     0.4385   0.4420   0.6332   0.6496   0.6646   0.7946   0.7957   1.2271
     1.2274   1.2450   1.5060   1.5370   1.5374   1.8143   1.8195   1.8925
     1.8930   1.9197   1.9233   2.1480   2.1502   2.2381   2.2388   2.3168
     2.3774   2.3820   2.5412   2.6412   3.0774   3.0805   3.0839   3.0851
     3.1364   3.1402   3.4302   3.4320   3.7115   3.7169   3.8251   4.1270
     4.1674   4.1718   4.3904   4.4105   4.4697   4.4726   4.5629   4.6798
     4.6822   4.7974   4.7990   5.1017   5.1685   5.1752   5.3184   5.3600
     5.4302   5.5551   5.5596   5.5839   5.5868   5.6455   5.6495   5.7030
     5.8519   6.0564   6.2516   6.2761   6.3486   6.3898   6.3928   6.4047
     6.4074   6.5464   6.6388   6.6474   6.6599   6.8392   6.8825   6.9020
     6.9261   7.0086   7.1035

          k = 0.2500 0.1443-0.1111 (136898 PWs)   bands (ev):

   -18.5793  -6.6087  -6.4461  -5.8133  -5.5212  -5.4634  -5.4629  -4.9250
    -4.9247  -4.7932  -4.7926  -4.6375  -4.6078  -4.5454  -4.5121  -4.5110
    -4.4782  -4.4781  -4.3496  -4.3079  -4.3078  -4.2480  -4.2271  -4.2266
    -4.1244  -4.1243  -4.0883  -4.0879  -4.0878  -4.0611  -4.0395  -4.0392
    -3.9352  -3.9323  -3.9322  -3.9118  -3.8948  -3.8945  -3.8828  -3.8821
    -3.8694  -3.8392  -3.8388  -3.8384  -3.8382  -3.8066  -3.8056  -3.7880
    -3.7879  -3.7751  -3.7324  -3.7311  -3.7004  -3.6860  -3.6841  -3.6797
    -3.6795  -3.6052  -3.6051  -3.5705  -3.5678  -3.5670  -3.4998  -3.4996
    -3.4842  -3.4838  -3.4538  -3.4530  -3.4527  -3.4523  -3.2987  -3.2981
    -3.2743  -3.2729  -3.2681  -3.2518  -3.2514  -3.2263  -3.2254  -3.1762
    -3.1756  -3.1600  -3.1592  -3.1389  -3.0916  -3.0905  -3.0714  -3.0662
    -3.0658  -3.0253  -3.0248  -3.0185  -3.0177  -3.0024  -3.0013  -2.9622
    -2.9619  -2.9426  -2.9397  -2.9372  -2.9366  -2.9334  -2.8587  -2.8566
    -2.8554  -2.8266  -2.8257  -2.7719  -2.7637  -2.7363  -2.7354  -2.7229
    -2.7214  -2.7162  -2.6961  -2.6860  -2.6767  -2.6687  -2.6562  -2.6342
    -2.6332  -2.6264  -2.6122  -2.6100  -2.6012  -2.6005  -2.5970  -2.5904
    -2.5888  -2.5428  -2.5107  -2.5101  -2.4943  -2.4812  -2.4750  -2.4737
    -2.4674  -2.4666  -2.4652  -2.4355  -2.4347  -2.4337  -2.4254  -2.4249
    -2.4083  -2.3807  -2.3800  -2.3795  -2.3792  -2.3790  -2.3333  -2.3024
    -2.3015  -2.3012  -2.2945  -2.2856  -2.2729  -2.2718  -2.2557  -2.2556
    -2.2239  -2.2208  -2.2206  -2.2023  -2.2008  -2.2003  -2.1681  -2.1673
    -2.1285  -2.1250  -2.1191  -2.1169  -2.1163  -2.1107  -2.1099  -2.1073
    -2.1068  -2.1007  -2.0994  -2.0840  -2.0829  -1.9571  -1.9554  -1.9237
    -1.9176  -1.9166  -1.9112  -1.9111  -1.8953  -1.8938  -1.8911  -1.8903
    -1.8881  -1.8661  -1.8590  -1.8575  -1.8525  -1.8462  -1.8450  -1.8232
    -1.8228  -1.7943  -1.7940  -1.7632  -1.7620  -1.7517  -1.7434  -1.7259
    -1.7251  -1.7222  -1.7047  -1.6917  -1.6915  -1.6843  -1.6840  -1.6580
    -1.6573  -1.6407  -1.6401  -1.6079  -1.6074  -1.5982  -1.5485  -1.5474
    -1.5351  -1.5336  -1.5333  -1.5087  -1.5056  -1.4734  -1.4723  -1.4713
    -1.4381  -1.4284  -1.4273  -1.4120  -1.4114  -1.3862  -1.3840  -1.3835
    -1.3543  -1.3517  -1.3513  -1.2895  -1.2884  -1.2766  -1.2748  -1.2596
    -1.2589  -1.2461  -1.2457  -1.2276  -1.2149  -1.1876  -1.1873  -1.1759
    -1.1472  -1.1380  -1.1368  -1.1255  -1.1254  -1.1237  -1.1199  -1.1176
    -1.1041  -1.0754  -1.0739  -1.0646  -1.0610  -1.0603  -1.0593  -1.0375
    -1.0207  -1.0172  -0.9983  -0.9962  -0.9044  -0.8912  -0.8861  -0.8851
    -0.8820  -0.8769  -0.8755  -0.8570  -0.8511  -0.8360  -0.8340  -0.8210
    -0.8202  -0.8114  -0.7920  -0.7903  -0.7882  -0.7803  -0.7091  -0.7075
    -0.6915  -0.6736  -0.6696  -0.6666  -0.6626  -0.6609  -0.6605  -0.6512
    -0.6472  -0.6317  -0.6143  -0.6060  -0.5818  -0.5724  -0.5706  -0.5610
    -0.5563  -0.5478  -0.5471  -0.5454  -0.5445  -0.5357  -0.5274  -0.5232
    -0.5177  -0.4924  -0.4907  -0.4877  -0.4783  -0.4772  -0.4590  -0.4270
    -0.4254  -0.4174  -0.4157  -0.3498  -0.3485  -0.3126  -0.3119  -0.2543
    -0.2535  -0.2525  -0.2389  -0.2259   0.0005   0.0034   0.3470   0.3471
     0.4385   0.4420   0.6332   0.6496   0.6646   0.7946   0.7957   1.2271
     1.2274   1.2450   1.5060   1.5370   1.5374   1.8143   1.8195   1.8925
     1.8930   1.9197   1.9233   2.1480   2.1502   2.2381   2.2388   2.3168
     2.3774   2.3820   2.5412   2.6412   3.0774   3.0805   3.0839   3.0851
     3.1364   3.1402   3.4302   3.4320   3.7115   3.7169   3.8251   4.1270
     4.1674   4.1718   4.3904   4.4105   4.4697   4.4726   4.5629   4.6798
     4.6822   4.7974   4.7990   5.1017   5.1685   5.1752   5.3183   5.3599
     5.4302   5.5551   5.5596   5.5839   5.5868   5.6455   5.6495   5.7032
     5.8510   6.0584   6.2515   6.2772   6.3486   6.3899   6.3928   6.4048
     6.4074   6.5415   6.6389   6.6461   6.6550   6.8405   6.8840   6.9025
     6.9276   7.0099   7.1056

          k = 0.0000-0.2887 0.1111 (136898 PWs)   bands (ev):

   -18.5793  -6.6087  -6.4461  -5.8132  -5.5212  -5.4632  -5.4631  -4.9249
    -4.9248  -4.7936  -4.7921  -4.6375  -4.6078  -4.5454  -4.5119  -4.5112
    -4.4783  -4.4781  -4.3496  -4.3080  -4.3077  -4.2478  -4.2272  -4.2267
    -4.1244  -4.1243  -4.0882  -4.0880  -4.0878  -4.0611  -4.0395  -4.0393
    -3.9351  -3.9325  -3.9321  -3.9117  -3.8948  -3.8946  -3.8828  -3.8821
    -3.8693  -3.8393  -3.8388  -3.8384  -3.8382  -3.8065  -3.8057  -3.7880
    -3.7879  -3.7748  -3.7321  -3.7317  -3.7002  -3.6860  -3.6841  -3.6797
    -3.6795  -3.6053  -3.6051  -3.5704  -3.5680  -3.5670  -3.4999  -3.4996
    -3.4842  -3.4838  -3.4541  -3.4530  -3.4525  -3.4523  -3.2990  -3.2980
    -3.2737  -3.2731  -3.2683  -3.2518  -3.2514  -3.2263  -3.2257  -3.1764
    -3.1756  -3.1602  -3.1592  -3.1388  -3.0912  -3.0905  -3.0713  -3.0663
    -3.0657  -3.0259  -3.0248  -3.0182  -3.0177  -3.0021  -3.0013  -2.9624
    -2.9619  -2.9417  -2.9400  -2.9372  -2.9366  -2.9336  -2.8603  -2.8565
    -2.8553  -2.8266  -2.8257  -2.7664  -2.7643  -2.7398  -2.7355  -2.7219
    -2.7213  -2.7165  -2.6946  -2.6862  -2.6770  -2.6755  -2.6551  -2.6340
    -2.6332  -2.6219  -2.6122  -2.6089  -2.6012  -2.5991  -2.5970  -2.5920
    -2.5887  -2.5428  -2.5107  -2.5105  -2.4945  -2.4813  -2.4751  -2.4738
    -2.4672  -2.4668  -2.4651  -2.4355  -2.4351  -2.4342  -2.4251  -2.4249
    -2.4082  -2.3803  -2.3800  -2.3793  -2.3791  -2.3786  -2.3333  -2.3022
    -2.3016  -2.3013  -2.2946  -2.2856  -2.2728  -2.2724  -2.2557  -2.2556
    -2.2238  -2.2208  -2.2206  -2.2023  -2.2013  -2.2005  -2.1679  -2.1672
    -2.1284  -2.1252  -2.1191  -2.1169  -2.1164  -2.1106  -2.1102  -2.1079
    -2.1067  -2.1004  -2.0996  -2.0837  -2.0829  -1.9575  -1.9556  -1.9226
    -1.9177  -1.9169  -1.9113  -1.9112  -1.8952  -1.8941  -1.8907  -1.8904
    -1.8880  -1.8661  -1.8592  -1.8581  -1.8525  -1.8459  -1.8453  -1.8234
    -1.8228  -1.7947  -1.7940  -1.7624  -1.7622  -1.7517  -1.7433  -1.7258
    -1.7250  -1.7222  -1.7047  -1.6917  -1.6915  -1.6844  -1.6840  -1.6576
    -1.6573  -1.6409  -1.6401  -1.6084  -1.6075  -1.5977  -1.5483  -1.5476
    -1.5341  -1.5338  -1.5333  -1.5087  -1.5056  -1.4738  -1.4723  -1.4718
    -1.4376  -1.4284  -1.4275  -1.4120  -1.4114  -1.3862  -1.3838  -1.3834
    -1.3544  -1.3515  -1.3514  -1.2898  -1.2882  -1.2768  -1.2747  -1.2597
    -1.2592  -1.2463  -1.2456  -1.2276  -1.2150  -1.1877  -1.1871  -1.1756
    -1.1460  -1.1381  -1.1371  -1.1255  -1.1254  -1.1238  -1.1184  -1.1180
    -1.1041  -1.0752  -1.0745  -1.0671  -1.0624  -1.0598  -1.0597  -1.0375
    -1.0189  -1.0182  -0.9973  -0.9964  -0.9043  -0.8912  -0.8857  -0.8853
    -0.8813  -0.8769  -0.8760  -0.8536  -0.8512  -0.8360  -0.8342  -0.8218
    -0.8203  -0.8115  -0.7931  -0.7899  -0.7886  -0.7804  -0.7104  -0.7078
    -0.6886  -0.6742  -0.6698  -0.6657  -0.6630  -0.6609  -0.6606  -0.6548
    -0.6476  -0.6314  -0.6061  -0.6042  -0.5923  -0.5724  -0.5699  -0.5611
    -0.5583  -0.5478  -0.5474  -0.5451  -0.5445  -0.5339  -0.5272  -0.5231
    -0.5183  -0.4923  -0.4908  -0.4863  -0.4783  -0.4755  -0.4589  -0.4270
    -0.4260  -0.4176  -0.4165  -0.3491  -0.3480  -0.3125  -0.3120  -0.2540
    -0.2531  -0.2530  -0.2408  -0.2259  -0.0002   0.0062   0.3469   0.3471
     0.4380   0.4430   0.6317   0.6500   0.6645   0.7943   0.7958   1.2272
     1.2273   1.2449   1.5056   1.5369   1.5375   1.8139   1.8205   1.8923
     1.8935   1.9192   1.9236   2.1484   2.1500   2.2380   2.2388   2.3169
     2.3773   2.3821   2.5409   2.6408   3.0761   3.0823   3.0836   3.0851
     3.1369   3.1398   3.4302   3.4319   3.7114   3.7171   3.8253   4.1271
     4.1672   4.1721   4.3895   4.4103   4.4711   4.4715   4.5627   4.6794
     4.6825   4.7966   4.7993   5.1013   5.1702   5.1739   5.3221   5.3599
     5.4258   5.5557   5.5599   5.5826   5.5872   5.6424   5.6523   5.7060
     5.8508   6.0695   6.2547   6.2664   6.3387   6.3908   6.3917   6.4031
     6.4081   6.5411   6.6376   6.6481   6.6604   6.8508   6.8836   6.9024
     6.9199   7.0077   7.0932

          k = 0.0000 0.2887 0.1111 (136898 PWs)   bands (ev):

   -18.5793  -6.6087  -6.4461  -5.8132  -5.5212  -5.4632  -5.4631  -4.9249
    -4.9248  -4.7936  -4.7921  -4.6375  -4.6078  -4.5454  -4.5119  -4.5112
    -4.4783  -4.4781  -4.3496  -4.3080  -4.3077  -4.2478  -4.2272  -4.2267
    -4.1244  -4.1243  -4.0882  -4.0880  -4.0878  -4.0611  -4.0395  -4.0393
    -3.9351  -3.9325  -3.9321  -3.9117  -3.8948  -3.8946  -3.8828  -3.8821
    -3.8693  -3.8393  -3.8388  -3.8384  -3.8382  -3.8065  -3.8057  -3.7880
    -3.7879  -3.7748  -3.7321  -3.7317  -3.7002  -3.6860  -3.6841  -3.6797
    -3.6795  -3.6053  -3.6051  -3.5704  -3.5680  -3.5670  -3.4999  -3.4996
    -3.4842  -3.4838  -3.4541  -3.4530  -3.4525  -3.4523  -3.2990  -3.2980
    -3.2737  -3.2731  -3.2683  -3.2518  -3.2514  -3.2262  -3.2257  -3.1764
    -3.1756  -3.1602  -3.1592  -3.1388  -3.0912  -3.0905  -3.0713  -3.0663
    -3.0657  -3.0259  -3.0248  -3.0182  -3.0177  -3.0021  -3.0013  -2.9624
    -2.9619  -2.9417  -2.9400  -2.9372  -2.9366  -2.9335  -2.8603  -2.8565
    -2.8553  -2.8266  -2.8257  -2.7664  -2.7643  -2.7398  -2.7355  -2.7219
    -2.7213  -2.7165  -2.6946  -2.6862  -2.6770  -2.6755  -2.6551  -2.6340
    -2.6332  -2.6219  -2.6122  -2.6089  -2.6012  -2.5991  -2.5970  -2.5920
    -2.5887  -2.5428  -2.5107  -2.5105  -2.4945  -2.4813  -2.4751  -2.4738
    -2.4672  -2.4668  -2.4651  -2.4355  -2.4351  -2.4342  -2.4251  -2.4249
    -2.4082  -2.3803  -2.3800  -2.3793  -2.3791  -2.3786  -2.3333  -2.3022
    -2.3016  -2.3012  -2.2946  -2.2856  -2.2728  -2.2724  -2.2557  -2.2556
    -2.2238  -2.2208  -2.2206  -2.2023  -2.2013  -2.2005  -2.1679  -2.1672
    -2.1284  -2.1252  -2.1191  -2.1169  -2.1164  -2.1106  -2.1102  -2.1079
    -2.1067  -2.1004  -2.0996  -2.0837  -2.0829  -1.9575  -1.9556  -1.9226
    -1.9177  -1.9169  -1.9113  -1.9112  -1.8952  -1.8941  -1.8907  -1.8904
    -1.8880  -1.8661  -1.8592  -1.8581  -1.8525  -1.8459  -1.8453  -1.8234
    -1.8228  -1.7947  -1.7940  -1.7624  -1.7623  -1.7517  -1.7433  -1.7258
    -1.7250  -1.7222  -1.7047  -1.6917  -1.6915  -1.6844  -1.6840  -1.6576
    -1.6573  -1.6409  -1.6401  -1.6084  -1.6075  -1.5977  -1.5483  -1.5476
    -1.5341  -1.5338  -1.5333  -1.5087  -1.5056  -1.4738  -1.4723  -1.4718
    -1.4376  -1.4284  -1.4275  -1.4120  -1.4114  -1.3862  -1.3838  -1.3834
    -1.3544  -1.3515  -1.3514  -1.2898  -1.2882  -1.2768  -1.2747  -1.2597
    -1.2592  -1.2463  -1.2456  -1.2276  -1.2150  -1.1877  -1.1871  -1.1756
    -1.1460  -1.1381  -1.1371  -1.1255  -1.1254  -1.1238  -1.1184  -1.1180
    -1.1041  -1.0752  -1.0745  -1.0671  -1.0624  -1.0598  -1.0597  -1.0375
    -1.0189  -1.0182  -0.9973  -0.9964  -0.9043  -0.8912  -0.8857  -0.8853
    -0.8813  -0.8770  -0.8760  -0.8536  -0.8512  -0.8360  -0.8342  -0.8218
    -0.8203  -0.8115  -0.7931  -0.7899  -0.7886  -0.7804  -0.7104  -0.7077
    -0.6886  -0.6742  -0.6698  -0.6657  -0.6630  -0.6609  -0.6606  -0.6548
    -0.6476  -0.6314  -0.6061  -0.6042  -0.5922  -0.5724  -0.5699  -0.5611
    -0.5583  -0.5478  -0.5474  -0.5451  -0.5445  -0.5339  -0.5272  -0.5231
    -0.5183  -0.4923  -0.4908  -0.4863  -0.4783  -0.4755  -0.4589  -0.4270
    -0.4260  -0.4175  -0.4165  -0.3491  -0.3480  -0.3125  -0.3120  -0.2540
    -0.2531  -0.2530  -0.2408  -0.2259  -0.0002   0.0062   0.3469   0.3471
     0.4380   0.4430   0.6317   0.6500   0.6645   0.7943   0.7958   1.2272
     1.2273   1.2449   1.5056   1.5369   1.5375   1.8139   1.8205   1.8923
     1.8935   1.9192   1.9236   2.1484   2.1500   2.2380   2.2388   2.3169
     2.3773   2.3821   2.5409   2.6408   3.0761   3.0823   3.0836   3.0851
     3.1369   3.1398   3.4302   3.4319   3.7114   3.7171   3.8253   4.1271
     4.1672   4.1721   4.3895   4.4103   4.4711   4.4715   4.5627   4.6794
     4.6825   4.7966   4.7992   5.1013   5.1702   5.1739   5.3222   5.3599
     5.4257   5.5557   5.5599   5.5826   5.5872   5.6424   5.6523   5.7058
     5.8527   6.0668   6.2548   6.2635   6.3384   6.3908   6.3917   6.4028
     6.4081   6.5492   6.6381   6.6481   6.6629   6.8469   6.8837   6.8978
     6.9199   7.0151   7.0998

     the Fermi energy is     1.3707 ev

!    total energy              =   -6604.43445499 Ry
     Harris-Foulkes estimate   =   -6604.43445499 Ry
     estimated scf accuracy    <          2.7E-09 Ry

     The total energy is the sum of the following terms:

     one-electron contribution =  -48607.87991472 Ry
     hartree contribution      =   24803.51317451 Ry
     xc contribution           =   -3204.97287701 Ry
     ewald contribution        =   20404.90227351 Ry
     smearing contrib. (-TS)   =       0.00288872 Ry

     convergence has been achieved in  25 iterations

     Writing output data file 1140213.save

     init_run     :    150.83s CPU    163.51s WALL (       1 calls)
     electrons    :   8927.63s CPU   9563.12s WALL (       1 calls)

     Called by init_run:
     wfcinit      :    114.58s CPU    126.29s WALL (       1 calls)
     potinit      :     11.10s CPU     11.53s WALL (       1 calls)

     Called by electrons:
     c_bands      :   7352.40s CPU   7864.48s WALL (      26 calls)
     sum_band     :   1132.48s CPU   1237.95s WALL (      26 calls)
     v_of_rho     :    128.55s CPU    140.79s WALL (      26 calls)
     newd         :    324.28s CPU    329.38s WALL (      26 calls)
     mix_rho      :      3.54s CPU      3.81s WALL (      26 calls)
     vdW_energy   :      9.62s CPU     11.04s WALL (      26 calls)
     vdW_ffts     :     65.97s CPU     72.41s WALL (      52 calls)
     vdW_v        :     15.56s CPU     16.48s WALL (      26 calls)

     Called by c_bands:
     init_us_2    :     23.41s CPU     24.06s WALL (     636 calls)
     cegterg      :   7263.05s CPU   7773.32s WALL (     312 calls)

     Called by *egterg:
     h_psi        :   3171.07s CPU   3636.86s WALL (    1678 calls)
     s_psi        :    458.88s CPU    461.61s WALL (    1678 calls)
     g_psi        :      6.32s CPU      6.37s WALL (    1354 calls)
     cdiaghg      :   2112.95s CPU   2118.52s WALL (    1654 calls)

     Called by h_psi:
     add_vuspsi   :    459.93s CPU    462.65s WALL (    1678 calls)

     General routines
     calbec       :    709.49s CPU    712.48s WALL (    1990 calls)
     fft          :    153.39s CPU    164.00s WALL (    1716 calls)
     ffts         :      1.83s CPU      2.12s WALL (      52 calls)
     fftw         :   2008.65s CPU   2420.48s WALL (  753776 calls)
     interpolate  :      5.46s CPU      6.50s WALL (      52 calls)
     davcio       :      0.01s CPU      0.41s WALL (      12 calls)

     Parallel routines
     fft_scatter  :   1328.24s CPU   1596.41s WALL (  755544 calls)

     PWSCF        :     2h31m CPU        2h42m WALL


   This run was terminated on:  13:14: 8  24Aug2015            

=------------------------------------------------------------------------------=
   JOB DONE.
=------------------------------------------------------------------------------=
