
     Program PWSCF v.5.1.2 starts on 24Aug2015 at  8:54:19 

     This program is part of the open-source Quantum ESPRESSO suite
     for quantum simulation of materials; please cite
         "P. Giannozzi et al., J. Phys.:Condens. Matter 21 395502 (2009);
          URL http://www.quantum-espresso.org", 
     in publications or presentations arising from this work. More details at
     http://www.quantum-espresso.org/quote

     Parallel version (MPI), running on    32 processors
     R & G space division:  proc/nbgrp/npool/nimage =      32
     Reading input from hollow.H2.Au535758.d.2.4.phi.0.psi.90.in
Warning: card &IONS ignored
Warning: card / ignored
Warning: card &CELL ignored
Warning: card / ignored

     Current dimensions of program PWSCF are:
     Max number of different atomic species (ntypx) = 10
     Max number of k-points (npk) =  40000
     Max angular momentum in pseudopotentials (lmaxx) =  3

     IMPORTANT: XC functional enforced from input :
     Exchange-correlation      = VDW-DF ( 1  4  4  0 1 0)
     Any further DFT definition will be discarded
     Please, verify this is what you really want


     Subspace diagonalization in iterative solution of the eigenvalue problem:
     a serial algorithm will be used


     Parallelization info
     --------------------
     sticks:   dense  smooth     PW     G-vecs:    dense   smooth      PW
     Min         445     223     58                96775    34191    4534
     Max         446     224     59                96790    34246    4540
     Sum       14269    7147   1867              3097177  1095093  145167


     Title: 
     hollow.H2.Au535758.d.2.4.phi.0.psi.90                                      


     bravais-lattice index     =            4
     lattice parameter (alat)  =      22.7436  a.u.
     unit-cell volume          =   22924.1508 (a.u.)^3
     number of atoms/cell      =           67
     number of atomic types    =            3
     number of electrons       =       712.00
     number of Kohn-Sham states=          427
     kinetic-energy cutoff     =      50.0000  Ry
     charge density cutoff     =     400.0000  Ry
     convergence threshold     =      1.0E-08
     mixing beta               =       0.7000
     number of iterations used =            8  plain     mixing
     Exchange-correlation      = VDW-DF ( 1  4  4  0 1 0)

     celldm(1)=  22.743643  celldm(2)=   0.000000  celldm(3)=   2.250000
     celldm(4)=   0.000000  celldm(5)=   0.000000  celldm(6)=   0.000000

     crystal axes: (cart. coord. in units of alat)
               a(1) = (   1.000000   0.000000   0.000000 )  
               a(2) = (  -0.500000   0.866025   0.000000 )  
               a(3) = (   0.000000   0.000000   2.250000 )  

     reciprocal axes: (cart. coord. in units 2 pi/alat)
               b(1) = (  1.000000  0.577350 -0.000000 )  
               b(2) = (  0.000000  1.154701  0.000000 )  
               b(3) = (  0.000000 -0.000000  0.444444 )  


     PseudoPot. # 1 for Au read from file:
     /home/scc/andrejb/qe/pseudo/Au.pbe-nd-van.UPF
     MD5 check sum: 458681b50f36d87ef23c61b04bba420a
     Pseudo is Ultrasoft + core correction, Zval = 11.0
     Generated by new atomic code, or converted to UPF format
     Using radial grid of  985 points,  3 beta functions with: 
                l(1) =   1
                l(2) =   2
                l(3) =   2
     Q(r) pseudized with  8 coefficients,  rinner =    1.100   1.100   1.100
                                                       1.100   1.100

     PseudoPot. # 2 for H  read from file:
     /home/scc/andrejb/qe/pseudo/H.pbe-van_ak.UPF
     MD5 check sum: 403db7282739603aa925980fa9b8608d
     Pseudo is Ultrasoft, Zval =  1.0
     Generated by new atomic code, or converted to UPF format
     Using radial grid of  615 points,  1 beta functions with: 
                l(1) =   0
     Q(r) pseudized with  8 coefficients,  rinner =    0.800

     PseudoPot. # 3 for O  read from file:
     /home/scc/andrejb/qe/pseudo/O.pbe-van_ak.UPF
     MD5 check sum: 4b8c549914a63cae506c6ff22b5af4fe
     Pseudo is Ultrasoft, Zval =  6.0
     Generated by new atomic code, or converted to UPF format
     Using radial grid of  737 points,  4 beta functions with: 
                l(1) =   0
                l(2) =   0
                l(3) =   1
                l(4) =   1
     Q(r) pseudized with  8 coefficients,  rinner =    0.800   0.800   0.800


     vdW kernel table read from file vdW_kernel_table
     MD5 check sum: 48e77a2e26edf626eeb0eaa751ad5cac

     atomic species   valence    mass     pseudopotential
        Au            11.00   196.96657     Au( 1.00)
        H              1.00     1.01000     H ( 1.00)
        O              6.00    16.00000     O ( 1.00)

     No symmetry found



   Cartesian axes

     site n.     atom                  positions (alat units)
         1           O   tau(   1) = (  -0.0023868   0.4638597   0.8277836  )
         2           H   tau(   2) = (  -0.0208375   0.5411347   0.8124178  )
         3           H   tau(   3) = (  -0.0552361   0.4212311   0.7837894  )
         4           Au  tau(   4) = (   0.3540481   0.6132292   0.0000000  )
         5           Au  tau(   5) = (   0.4790062   0.3967954   0.0000000  )
         6           Au  tau(   6) = (   0.6039644   0.1803616   0.0000000  )
         7           Au  tau(   7) = (   0.7289225  -0.0360723   0.0000000  )
         8           Au  tau(   8) = (   0.1041318   0.6132292   0.0000000  )
         9           Au  tau(   9) = (   0.2290899   0.3967954   0.0000000  )
        10           Au  tau(  10) = (   0.3540481   0.1803616   0.0000000  )
        11           Au  tau(  11) = (   0.4790062  -0.0360723   0.0000000  )
        12           Au  tau(  12) = (  -0.1457845   0.6132292   0.0000000  )
        13           Au  tau(  13) = (  -0.0208264   0.3967954   0.0000000  )
        14           Au  tau(  14) = (   0.1041318   0.1803616   0.0000000  )
        15           Au  tau(  15) = (   0.2290899  -0.0360723   0.0000000  )
        16           Au  tau(  16) = (  -0.3957008   0.6132292   0.0000000  )
        17           Au  tau(  17) = (  -0.2707426   0.3967954   0.0000000  )
        18           Au  tau(  18) = (  -0.1457845   0.1803616   0.0000000  )
        19           Au  tau(  19) = (  -0.0208264  -0.0360723   0.0000000  )
        20           Au  tau(  20) = (   0.4790062   0.6853738   0.2040557  )
        21           Au  tau(  21) = (   0.6039644   0.4689400   0.2040557  )
        22           Au  tau(  22) = (   0.7289225   0.2525061   0.2040557  )
        23           Au  tau(  23) = (   0.8538806   0.0360723   0.2040557  )
        24           Au  tau(  24) = (   0.2290899   0.6853738   0.2040557  )
        25           Au  tau(  25) = (   0.3540481   0.4689400   0.2040557  )
        26           Au  tau(  26) = (   0.4790062   0.2525061   0.2040557  )
        27           Au  tau(  27) = (   0.6039644   0.0360723   0.2040557  )
        28           Au  tau(  28) = (  -0.0208264   0.6853738   0.2040557  )
        29           Au  tau(  29) = (   0.1041318   0.4689400   0.2040557  )
        30           Au  tau(  30) = (   0.2290899   0.2525061   0.2040557  )
        31           Au  tau(  31) = (   0.3540481   0.0360723   0.2040557  )
        32           Au  tau(  32) = (  -0.2707426   0.6853738   0.2040557  )
        33           Au  tau(  33) = (  -0.1457845   0.4689400   0.2040557  )
        34           Au  tau(  34) = (  -0.0208264   0.2525061   0.2040557  )
        35           Au  tau(  35) = (   0.1041318   0.0360723   0.2040557  )
        36           Au  tau(  36) = (   0.3541162   0.7576593   0.4066483  )
        37           Au  tau(  37) = (   0.4791000   0.5411421   0.4066695  )
        38           Au  tau(  38) = (   0.6040570   0.3246862   0.4066617  )
        39           Au  tau(  39) = (   0.7290270   0.1081684   0.4066529  )
        40           Au  tau(  40) = (   0.1041162   0.7576236   0.4066247  )
        41           Au  tau(  41) = (   0.2291001   0.5411063   0.4066455  )
        42           Au  tau(  42) = (   0.3540567   0.3246505   0.4066380  )
        43           Au  tau(  43) = (   0.4790276   0.1081324   0.4066292  )
        44           Au  tau(  44) = (  -0.1458201   0.7576104   0.4066224  )
        45           Au  tau(  45) = (  -0.0208365   0.5410930   0.4066438  )
        46           Au  tau(  46) = (   0.1041202   0.3246372   0.4066359  )
        47           Au  tau(  47) = (   0.2290908   0.1081193   0.4066273  )
        48           Au  tau(  48) = (  -0.3958167   0.7575791   0.4065812  )
        49           Au  tau(  49) = (  -0.2708328   0.5410617   0.4066025  )
        50           Au  tau(  50) = (  -0.1458763   0.3246061   0.4065947  )
        51           Au  tau(  51) = (  -0.0209056   0.1080882   0.4065858  )
        52           Au  tau(  52) = (   0.3541085   0.6133344   0.6129762  )
        53           Au  tau(  53) = (   0.4790780   0.3968269   0.6129968  )
        54           Au  tau(  54) = (   0.6040356   0.1803811   0.6129859  )
        55           Au  tau(  55) = (   0.7290165  -0.0361221   0.6129385  )
        56           Au  tau(  56) = (   0.1041243   0.6133091   0.6130022  )
        57           Au  tau(  57) = (   0.2290941   0.3968013   0.6130241  )
        58           Au  tau(  58) = (   0.3540515   0.1803552   0.6130121  )
        59           Au  tau(  59) = (   0.4790323  -0.0361475   0.6129659  )
        60           Au  tau(  60) = (  -0.1458030   0.6133014   0.6129980  )
        61           Au  tau(  61) = (  -0.0208339   0.3967936   0.6130188  )
        62           Au  tau(  62) = (   0.1041239   0.1803477   0.6130083  )
        63           Au  tau(  63) = (   0.2291046  -0.0361554   0.6129607  )
        64           Au  tau(  64) = (  -0.3957908   0.6132739   0.6129471  )
        65           Au  tau(  65) = (  -0.2708208   0.3967658   0.6129688  )
        66           Au  tau(  66) = (  -0.1458636   0.1803200   0.6129569  )
        67           Au  tau(  67) = (  -0.0208823  -0.0361826   0.6129110  )

     number of k points=    12  Marzari-Vanderbilt smearing, width (Ry)=  0.0200
                       cart. coord. in units 2pi/alat
        k(    1) = (   0.2500000   0.4330127   0.1111111), wk =   0.1666667
        k(    2) = (   0.2500000  -0.1443376   0.1111111), wk =   0.1666667
        k(    3) = (  -0.2500000  -0.4330127   0.1111111), wk =   0.1666667
        k(    4) = (  -0.2500000   0.4330127  -0.1111111), wk =   0.1666667
        k(    5) = (   0.2500000  -0.4330127  -0.1111111), wk =   0.1666667
        k(    6) = (   0.5000000   0.0000000   0.1111111), wk =   0.1666667
        k(    7) = (  -0.5000000   0.0000000   0.1111111), wk =   0.1666667
        k(    8) = (  -0.2500000   0.1443376   0.1111111), wk =   0.1666667
        k(    9) = (  -0.2500000  -0.1443376  -0.1111111), wk =   0.1666667
        k(   10) = (   0.2500000   0.1443376  -0.1111111), wk =   0.1666667
        k(   11) = (   0.0000000  -0.2886751   0.1111111), wk =   0.1666667
        k(   12) = (   0.0000000   0.2886751   0.1111111), wk =   0.1666667

     Dense  grid:  3097177 G-vectors     FFT dimensions: ( 150, 150, 360)

     Smooth grid:  1095093 G-vectors     FFT dimensions: ( 108, 108, 240)

     Largest allocated arrays     est. size (Mb)     dimensions
        Kohn-Sham Wavefunctions        28.01 Mb     (    4299,  427)
        NL pseudopotentials            55.23 Mb     (    4299,  842)
        Each V/rho on FFT grid          4.12 Mb     (  270000)
        Each G-vector array             0.74 Mb     (   96788)
        G-vector shells                 0.16 Mb     (   21404)
     Largest temporary arrays     est. size (Mb)     dimensions
        Auxiliary wavefunctions       112.04 Mb     (    4299, 1708)
        Each subspace H/S matrix       44.51 Mb     (    1708, 1708)
        Each <psi_i|beta_j> matrix      5.49 Mb     (     842,  427)
        Arrays for rho mixing          32.96 Mb     (  270000,    8)

     Initial potential from superposition of free atoms
     Check: negative starting charge=   -1.730374

     starting charge  711.25682, renormalised to  712.00000

     negative rho (up, down):  1.732E+00 0.000E+00


     ************************************************************************
     *
     * You are using vdW-DF for exchange-correlation in this calculation.
     * Please cite the following three references that made this development
     * possible:
     *
     *   M. Dion, H. Rydberg, E. Schroder, D. C. Langreth, and
     *   B. I. Lundqvist, Phys. Rev. Lett. 92, 246401 (2004).
     *
     *   T. Thonhauser, V. R. Cooper, S. Li, A. Puzder, P. Hyldgaard, and
     *   D. C. Langreth, Phys. Rev. B 76, 125112 (2007).
     *
     *   G. Roman-Perez and J. M. Soler, Phys. Rev. Lett. 103, 096102 (2009).
     *
     *
     * If you are using vdW-DF2, please also cite:
     *
     *   K. Lee, E. D. Murray, L. Kong, B. I. Lundqvist, and
     *   D. C. Langreth, Phys. Rev. B 82, 081101(R) (2010).
     *
     *
     * If you are calculating the stress with vdW-DF, please also cite:
     *
     *   R. Sabatini, E. Kucukbenli, B. Kolb, T. Thonhauser, and
     *   S. de Gironcoli, J. Phys.: Condens. Matter 24, 424209 (2012).
     *
     ************************************************************************

     Carrying out vdW-DF run using the following parameters:

     Nqs =      20    Nr_points =    1024   r_max =   100.000
     q_mesh =
               0.00001000     0.04494208     0.09755937     0.15916263
               0.23128650     0.31572767     0.41458969     0.53033537
               0.66584808     0.82450364     1.01025438     1.22772762
               1.48234092     1.78043706     2.12944203     2.53805004
               3.01644009     3.57652955     4.23227104     5.00000000

     Gradients computed in reciprocal space

     ************************************************************************


     Starting wfc are  582 randomized atomic wfcs

     total cpu time spent up to now is      159.9 secs

     Self-consistent Calculation

     iteration #  1     ecut=    50.00 Ry     beta=0.70
     Davidson diagonalization with overlap
     ethr =  1.00E-02,  avg # of iterations =  3.0

     Threshold (ethr) on eigenvalues was too large:
     Diagonalizing with lowered threshold

     Davidson diagonalization with overlap
     ethr =  3.37E-04,  avg # of iterations =  3.3

     negative rho (up, down):  1.727E+00 0.000E+00

     total cpu time spent up to now is      753.5 secs

     total energy              =   -6602.80366544 Ry
     Harris-Foulkes estimate   =   -6604.99253266 Ry
     estimated scf accuracy    <       2.74718822 Ry

     iteration #  2     ecut=    50.00 Ry     beta=0.70
     Davidson diagonalization with overlap
     ethr =  3.86E-04,  avg # of iterations = 11.4

     negative rho (up, down):  1.726E+00 0.000E+00

     total cpu time spent up to now is     1695.1 secs

     total energy              =   -6597.05555240 Ry
     Harris-Foulkes estimate   =   -6609.95487502 Ry
     estimated scf accuracy    <      71.20734140 Ry

     iteration #  3     ecut=    50.00 Ry     beta=0.70
     Davidson diagonalization with overlap
     ethr =  3.86E-04,  avg # of iterations =  6.0

     negative rho (up, down):  1.737E+00 0.000E+00

     total cpu time spent up to now is     2294.6 secs

     total energy              =   -6603.26192911 Ry
     Harris-Foulkes estimate   =   -6604.98211608 Ry
     estimated scf accuracy    <       7.49634203 Ry

     iteration #  4     ecut=    50.00 Ry     beta=0.70
     Davidson diagonalization with overlap
     ethr =  3.86E-04,  avg # of iterations =  5.9

     negative rho (up, down):  1.739E+00 0.000E+00

     total cpu time spent up to now is     2658.9 secs

     total energy              =   -6603.42026662 Ry
     Harris-Foulkes estimate   =   -6605.24861182 Ry
     estimated scf accuracy    <      18.56021393 Ry

     iteration #  5     ecut=    50.00 Ry     beta=0.70
     Davidson diagonalization with overlap
     ethr =  3.86E-04,  avg # of iterations =  6.0

     negative rho (up, down):  1.748E+00 0.000E+00

     total cpu time spent up to now is     3016.7 secs

     total energy              =   -6604.32458886 Ry
     Harris-Foulkes estimate   =   -6604.56157175 Ry
     estimated scf accuracy    <       1.37300870 Ry

     iteration #  6     ecut=    50.00 Ry     beta=0.70
     Davidson diagonalization with overlap
     ethr =  1.93E-04,  avg # of iterations =  3.5

     negative rho (up, down):  1.752E+00 0.000E+00

     total cpu time spent up to now is     3307.5 secs

     total energy              =   -6604.39511183 Ry
     Harris-Foulkes estimate   =   -6604.43977065 Ry
     estimated scf accuracy    <       0.13644444 Ry

     iteration #  7     ecut=    50.00 Ry     beta=0.70
     Davidson diagonalization with overlap
     c_bands:  2 eigenvalues not converged
     ethr =  1.92E-05,  avg # of iterations = 12.2

     negative rho (up, down):  1.754E+00 0.000E+00

     total cpu time spent up to now is     3787.7 secs

     total energy              =   -6604.40423443 Ry
     Harris-Foulkes estimate   =   -6604.42843207 Ry
     estimated scf accuracy    <       0.09993802 Ry

     iteration #  8     ecut=    50.00 Ry     beta=0.70
     Davidson diagonalization with overlap
     ethr =  1.40E-05,  avg # of iterations =  3.3

     negative rho (up, down):  1.755E+00 0.000E+00

     total cpu time spent up to now is     4077.1 secs

     total energy              =   -6604.40738049 Ry
     Harris-Foulkes estimate   =   -6604.41944922 Ry
     estimated scf accuracy    <       0.04250838 Ry

     iteration #  9     ecut=    50.00 Ry     beta=0.70
     Davidson diagonalization with overlap
     ethr =  5.97E-06,  avg # of iterations =  4.8

     negative rho (up, down):  1.756E+00 0.000E+00

     total cpu time spent up to now is     4403.6 secs

     total energy              =   -6604.40937951 Ry
     Harris-Foulkes estimate   =   -6604.41379358 Ry
     estimated scf accuracy    <       0.01313086 Ry

     iteration # 10     ecut=    50.00 Ry     beta=0.70
     Davidson diagonalization with overlap
     ethr =  1.84E-06,  avg # of iterations =  8.4

     negative rho (up, down):  1.756E+00 0.000E+00

     total cpu time spent up to now is     4793.3 secs

     total energy              =   -6604.41044623 Ry
     Harris-Foulkes estimate   =   -6604.41183130 Ry
     estimated scf accuracy    <       0.00443069 Ry

     iteration # 11     ecut=    50.00 Ry     beta=0.70
     Davidson diagonalization with overlap
     ethr =  6.22E-07,  avg # of iterations =  2.0

     negative rho (up, down):  1.757E+00 0.000E+00

     total cpu time spent up to now is     5072.0 secs

     total energy              =   -6604.41081044 Ry
     Harris-Foulkes estimate   =   -6604.41139504 Ry
     estimated scf accuracy    <       0.00200972 Ry

     iteration # 12     ecut=    50.00 Ry     beta=0.70
     Davidson diagonalization with overlap
     ethr =  2.82E-07,  avg # of iterations =  2.0

     negative rho (up, down):  1.757E+00 0.000E+00

     total cpu time spent up to now is     5336.1 secs

     total energy              =   -6604.41101540 Ry
     Harris-Foulkes estimate   =   -6604.41111937 Ry
     estimated scf accuracy    <       0.00026278 Ry

     iteration # 13     ecut=    50.00 Ry     beta=0.70
     Davidson diagonalization with overlap
     ethr =  3.69E-08,  avg # of iterations =  3.0

     negative rho (up, down):  1.757E+00 0.000E+00

     total cpu time spent up to now is     5667.6 secs

     total energy              =   -6604.41103406 Ry
     Harris-Foulkes estimate   =   -6604.41110158 Ry
     estimated scf accuracy    <       0.00024898 Ry

     iteration # 14     ecut=    50.00 Ry     beta=0.70
     Davidson diagonalization with overlap
     ethr =  3.50E-08,  avg # of iterations =  2.0

     negative rho (up, down):  1.757E+00 0.000E+00

     total cpu time spent up to now is     5938.7 secs

     total energy              =   -6604.41106267 Ry
     Harris-Foulkes estimate   =   -6604.41107899 Ry
     estimated scf accuracy    <       0.00007901 Ry

     iteration # 15     ecut=    50.00 Ry     beta=0.70
     Davidson diagonalization with overlap
     ethr =  1.11E-08,  avg # of iterations =  1.2

     negative rho (up, down):  1.757E+00 0.000E+00

     total cpu time spent up to now is     6194.8 secs

     total energy              =   -6604.41107043 Ry
     Harris-Foulkes estimate   =   -6604.41107474 Ry
     estimated scf accuracy    <       0.00003244 Ry

     iteration # 16     ecut=    50.00 Ry     beta=0.70
     Davidson diagonalization with overlap
     ethr =  4.56E-09,  avg # of iterations =  2.0

     negative rho (up, down):  1.757E+00 0.000E+00

     total cpu time spent up to now is     6461.5 secs

     total energy              =   -6604.41107247 Ry
     Harris-Foulkes estimate   =   -6604.41107305 Ry
     estimated scf accuracy    <       0.00000168 Ry

     iteration # 17     ecut=    50.00 Ry     beta=0.70
     Davidson diagonalization with overlap
     ethr =  2.36E-10,  avg # of iterations =  3.0

     negative rho (up, down):  1.757E+00 0.000E+00

     total cpu time spent up to now is     6817.8 secs

     total energy              =   -6604.41107246 Ry
     Harris-Foulkes estimate   =   -6604.41107329 Ry
     estimated scf accuracy    <       0.00000359 Ry

     iteration # 18     ecut=    50.00 Ry     beta=0.70
     Davidson diagonalization with overlap
     ethr =  2.36E-10,  avg # of iterations =  2.0

     negative rho (up, down):  1.757E+00 0.000E+00

     total cpu time spent up to now is     7101.5 secs

     total energy              =   -6604.41107277 Ry
     Harris-Foulkes estimate   =   -6604.41107302 Ry
     estimated scf accuracy    <       0.00000094 Ry

     iteration # 19     ecut=    50.00 Ry     beta=0.70
     Davidson diagonalization with overlap
     ethr =  1.33E-10,  avg # of iterations =  2.0

     negative rho (up, down):  1.757E+00 0.000E+00

     total cpu time spent up to now is     7369.2 secs

     total energy              =   -6604.41107288 Ry
     Harris-Foulkes estimate   =   -6604.41107293 Ry
     estimated scf accuracy    <       0.00000018 Ry

     iteration # 20     ecut=    50.00 Ry     beta=0.70
     Davidson diagonalization with overlap
     ethr =  2.54E-11,  avg # of iterations =  2.0

     negative rho (up, down):  1.757E+00 0.000E+00

     total cpu time spent up to now is     7639.5 secs

     total energy              =   -6604.41107291 Ry
     Harris-Foulkes estimate   =   -6604.41107292 Ry
     estimated scf accuracy    <       0.00000004 Ry

     iteration # 21     ecut=    50.00 Ry     beta=0.70
     Davidson diagonalization with overlap
     ethr =  5.39E-12,  avg # of iterations =  3.0

     negative rho (up, down):  1.757E+00 0.000E+00

     total cpu time spent up to now is     7977.3 secs

     total energy              =   -6604.41107291 Ry
     Harris-Foulkes estimate   =   -6604.41107292 Ry
     estimated scf accuracy    <       0.00000006 Ry

     iteration # 22     ecut=    50.00 Ry     beta=0.70
     Davidson diagonalization with overlap
     ethr =  5.39E-12,  avg # of iterations =  2.0

     negative rho (up, down):  1.757E+00 0.000E+00

     total cpu time spent up to now is     8244.6 secs

     total energy              =   -6604.41107291 Ry
     Harris-Foulkes estimate   =   -6604.41107292 Ry
     estimated scf accuracy    <       0.00000001 Ry

     iteration # 23     ecut=    50.00 Ry     beta=0.70
     Davidson diagonalization with overlap
     ethr =  1.83E-12,  avg # of iterations =  2.0

     negative rho (up, down):  1.757E+00 0.000E+00

     total cpu time spent up to now is     8540.8 secs

     End of self-consistent calculation

          k = 0.2500 0.4330 0.1111 (136853 PWs)   bands (ev):

   -19.2205  -7.1519  -6.3880  -5.9904  -5.9873  -5.3161  -4.9784  -4.9774
    -4.9490  -4.9373  -4.5780  -4.5761  -4.4791  -4.4779  -4.4643  -4.4404
    -4.4328  -4.3119  -4.3098  -4.2863  -4.2438  -4.2422  -4.1812  -4.1741
    -4.1721  -4.1689  -4.1478  -4.1438  -4.1382  -4.0887  -4.0684  -4.0399
    -4.0366  -4.0264  -4.0251  -4.0026  -4.0017  -3.9798  -3.9717  -3.9708
    -3.9468  -3.8936  -3.8928  -3.8467  -3.8428  -3.7956  -3.7884  -3.7418
    -3.7330  -3.7298  -3.7290  -3.6941  -3.6732  -3.6613  -3.6509  -3.6490
    -3.6471  -3.6295  -3.6170  -3.6089  -3.5653  -3.5516  -3.5453  -3.5257
    -3.5158  -3.4916  -3.4420  -3.4217  -3.4140  -3.4073  -3.3809  -3.3775
    -3.3645  -3.3450  -3.2920  -3.2855  -3.2729  -3.2686  -3.2226  -3.2186
    -3.2043  -3.1754  -3.1471  -3.1426  -3.1375  -3.1315  -3.1280  -3.1240
    -3.1174  -3.1153  -3.1053  -3.0649  -3.0282  -3.0250  -3.0156  -3.0112
    -2.9848  -2.9799  -2.9748  -2.9557  -2.9089  -2.9063  -2.8987  -2.8634
    -2.8544  -2.8431  -2.8419  -2.8157  -2.8104  -2.7827  -2.7537  -2.7447
    -2.7281  -2.7167  -2.7079  -2.7030  -2.6559  -2.6541  -2.6200  -2.6015
    -2.5968  -2.5754  -2.5718  -2.5638  -2.5594  -2.5520  -2.5327  -2.5308
    -2.4864  -2.4832  -2.4821  -2.4690  -2.4666  -2.4587  -2.4570  -2.4531
    -2.4481  -2.4467  -2.4443  -2.4398  -2.4311  -2.4282  -2.4039  -2.3929
    -2.3911  -2.3898  -2.3885  -2.3848  -2.3815  -2.3597  -2.3578  -2.3447
    -2.3410  -2.3246  -2.3221  -2.3193  -2.3148  -2.3123  -2.3105  -2.2983
    -2.2934  -2.2898  -2.2873  -2.2758  -2.2487  -2.2455  -2.2048  -2.2031
    -2.1855  -2.1823  -2.1637  -2.1536  -2.1283  -2.1256  -2.1108  -2.1038
    -2.0884  -2.0736  -2.0596  -2.0553  -2.0476  -2.0471  -2.0384  -2.0352
    -2.0108  -2.0046  -2.0033  -1.9562  -1.9370  -1.9348  -1.9305  -1.9280
    -1.9077  -1.8753  -1.8726  -1.8516  -1.8458  -1.7949  -1.7891  -1.7685
    -1.7531  -1.7375  -1.7015  -1.6777  -1.6736  -1.6672  -1.6593  -1.6533
    -1.6501  -1.6474  -1.6394  -1.6263  -1.5864  -1.5822  -1.5726  -1.5704
    -1.5542  -1.5530  -1.5440  -1.5190  -1.5109  -1.5017  -1.5008  -1.4960
    -1.4909  -1.4858  -1.4766  -1.4607  -1.4566  -1.4450  -1.4207  -1.4083
    -1.4046  -1.3929  -1.3752  -1.3660  -1.3288  -1.3211  -1.3019  -1.2983
    -1.2791  -1.2668  -1.2231  -1.2160  -1.2146  -1.2111  -1.2081  -1.2026
    -1.1857  -1.1823  -1.1646  -1.1427  -1.1347  -1.1119  -1.1077  -1.1028
    -1.0992  -1.0962  -1.0835  -1.0790  -1.0765  -1.0746  -1.0675  -1.0362
    -1.0352  -1.0322  -1.0221  -1.0068  -0.9987  -0.9946  -0.9739  -0.9666
    -0.9463  -0.9213  -0.9142  -0.9017  -0.8788  -0.8706  -0.8630  -0.8580
    -0.8533  -0.8523  -0.8472  -0.8451  -0.8362  -0.8199  -0.8138  -0.8093
    -0.8060  -0.8049  -0.7979  -0.7685  -0.7673  -0.7587  -0.7486  -0.7379
    -0.7341  -0.7223  -0.7139  -0.6659  -0.6638  -0.6590  -0.6552  -0.6526
    -0.6502  -0.6389  -0.6284  -0.6261  -0.6206  -0.6195  -0.6174  -0.5991
    -0.5808  -0.5761  -0.5743  -0.5672  -0.5655  -0.5616  -0.5592  -0.5468
    -0.5417  -0.5398  -0.5064  -0.4989  -0.4949  -0.4906  -0.4845  -0.4733
    -0.4132  -0.4065  -0.4052  -0.4025  -0.3964  -0.3887  -0.3590  -0.3483
    -0.3474  -0.3167  -0.3149  -0.2705  -0.1918  -0.1745  -0.0839   0.3230
     0.3240   0.3295   0.3304   0.3891   0.4142   0.7730   0.7799   0.8178
     0.8231   0.9417   1.0154   1.1196   1.1342   1.3399   1.3686   1.9726
     1.9827   2.1324   2.1452   2.2659   2.2865   2.3743   2.3755   2.5285
     2.7635   2.7773   2.8905   3.1085   3.1221   3.1938   3.1980   3.2936
     3.3134   3.4957   3.5307   3.5656   3.7687   3.7728   3.8330   3.8393
     4.0853   4.0940   4.1053   4.3377   4.3758   4.3857   4.4256   4.7530
     4.7654   4.7909   4.9256   5.1009   5.1027   5.1422   5.1875   5.5891
     5.8174   5.8728   5.8877   5.8973   5.9258   5.9539   5.9643   6.0474
     6.0707   6.0985   6.1239   6.1251   6.1344   6.1689   6.1831   6.1977
     6.2109   6.5280   6.6017   6.7081   6.7646   6.7807   6.8252   6.8373
     6.8466   6.9537   7.0247

          k = 0.2500-0.1443 0.1111 (136898 PWs)   bands (ev):

   -19.2205  -7.1519  -6.5979  -5.8064  -5.5202  -5.4565  -5.4548  -4.9182
    -4.9167  -4.7916  -4.7852  -4.6349  -4.6086  -4.5375  -4.5118  -4.5045
    -4.4707  -4.4700  -4.3420  -4.3010  -4.2992  -4.2425  -4.2238  -4.2197
    -4.1178  -4.1166  -4.0824  -4.0801  -4.0798  -4.0571  -4.0323  -4.0315
    -3.9416  -3.9257  -3.9240  -3.9070  -3.8890  -3.8873  -3.8791  -3.8754
    -3.8653  -3.8382  -3.8323  -3.8318  -3.8303  -3.8048  -3.8002  -3.7827
    -3.7803  -3.7743  -3.7424  -3.7310  -3.7039  -3.6868  -3.6795  -3.6718
    -3.6712  -3.6002  -3.5978  -3.5852  -3.5663  -3.5611  -3.5090  -3.4916
    -3.4865  -3.4765  -3.4615  -3.4487  -3.4479  -3.4468  -3.4140  -3.2924
    -3.2903  -3.2736  -3.2686  -3.2493  -3.2448  -3.2388  -3.2207  -3.2159
    -3.1691  -3.1675  -3.1529  -3.1508  -3.1297  -3.0896  -3.0868  -3.0627
    -3.0601  -3.0588  -3.0202  -3.0195  -3.0100  -3.0081  -2.9951  -2.9860
    -2.9578  -2.9562  -2.9380  -2.9333  -2.9308  -2.9302  -2.9233  -2.8529
    -2.8511  -2.8441  -2.8192  -2.8184  -2.7672  -2.7562  -2.7301  -2.7258
    -2.7190  -2.7160  -2.7071  -2.6822  -2.6790  -2.6689  -2.6533  -2.6342
    -2.6291  -2.6238  -2.6075  -2.6058  -2.6001  -2.5959  -2.5926  -2.5889
    -2.5799  -2.5347  -2.5076  -2.5067  -2.4868  -2.4758  -2.4715  -2.4685
    -2.4626  -2.4602  -2.4577  -2.4352  -2.4312  -2.4286  -2.4202  -2.4181
    -2.4044  -2.3801  -2.3775  -2.3742  -2.3728  -2.3717  -2.3259  -2.3014
    -2.2968  -2.2948  -2.2898  -2.2813  -2.2767  -2.2678  -2.2494  -2.2488
    -2.2256  -2.2159  -2.2147  -2.2070  -2.1986  -2.1964  -2.1665  -2.1617
    -2.1307  -2.1265  -2.1170  -2.1163  -2.1125  -2.1097  -2.1061  -2.1033
    -2.1004  -2.0989  -2.0973  -2.0803  -2.0780  -1.9969  -1.9547  -1.9407
    -1.9176  -1.9153  -1.9054  -1.9041  -1.8988  -1.8910  -1.8874  -1.8853
    -1.8793  -1.8696  -1.8601  -1.8572  -1.8524  -1.8432  -1.8402  -1.8217
    -1.8180  -1.7942  -1.7896  -1.7624  -1.7551  -1.7491  -1.7396  -1.7244
    -1.7205  -1.7169  -1.7018  -1.6979  -1.6861  -1.6806  -1.6786  -1.6624
    -1.6545  -1.6457  -1.6377  -1.6215  -1.6044  -1.5921  -1.5701  -1.5476
    -1.5403  -1.5290  -1.5268  -1.5018  -1.5007  -1.4854  -1.4697  -1.4675
    -1.4541  -1.4302  -1.4254  -1.4061  -1.4054  -1.3966  -1.3828  -1.3805
    -1.3581  -1.3490  -1.3446  -1.3157  -1.2838  -1.2818  -1.2728  -1.2611
    -1.2563  -1.2507  -1.2412  -1.2386  -1.2233  -1.2096  -1.1834  -1.1803
    -1.1664  -1.1373  -1.1328  -1.1257  -1.1213  -1.1186  -1.1175  -1.1147
    -1.0963  -1.0949  -1.0748  -1.0701  -1.0587  -1.0552  -1.0533  -1.0374
    -1.0315  -1.0146  -1.0002  -0.9910  -0.9469  -0.8986  -0.8899  -0.8814
    -0.8809  -0.8754  -0.8712  -0.8601  -0.8495  -0.8370  -0.8321  -0.8193
    -0.8164  -0.8122  -0.8013  -0.7901  -0.7838  -0.7756  -0.7534  -0.7028
    -0.7001  -0.6698  -0.6640  -0.6610  -0.6569  -0.6545  -0.6532  -0.6464
    -0.6420  -0.6349  -0.6062  -0.5974  -0.5749  -0.5674  -0.5636  -0.5551
    -0.5498  -0.5449  -0.5411  -0.5399  -0.5372  -0.5240  -0.5211  -0.5170
    -0.4992  -0.4873  -0.4841  -0.4760  -0.4704  -0.4667  -0.4510  -0.4205
    -0.4170  -0.4110  -0.4010  -0.3434  -0.3412  -0.3089  -0.3071  -0.2520
    -0.2495  -0.2471  -0.2257  -0.2091   0.0055   0.0366   0.3533   0.3536
     0.4428   0.4666   0.6403   0.6711   0.6840   0.7975   0.8075   1.2332
     1.2358   1.2503   1.5165   1.5434   1.5474   1.8176   1.8315   1.8956
     1.9002   1.9233   1.9415   2.1528   2.1573   2.2449   2.2457   2.3233
     2.3811   2.3984   2.5488   2.6518   3.0767   3.0843   3.0884   3.0972
     3.1408   3.1509   3.4370   3.4388   3.7163   3.7266   3.8278   4.1338
     4.1721   4.1768   4.3936   4.4041   4.4698   4.4800   4.5711   4.6819
     4.6887   4.8030   4.8061   5.1049   5.1681   5.1727   5.3393   5.3541
     5.4609   5.5552   5.5640   5.5902   5.5947   5.6451   5.6578   5.7074
     5.9775   6.0631   6.2534   6.2891   6.3148   6.3864   6.3985   6.4079
     6.4186   6.5973   6.6384   6.6480   6.7380   6.8453   6.8751   6.8937
     6.9310   7.0925   7.1129

          k =-0.2500-0.4330 0.1111 (136853 PWs)   bands (ev):

   -19.2205  -7.1519  -6.3880  -5.9904  -5.9873  -5.3161  -4.9784  -4.9774
    -4.9490  -4.9373  -4.5780  -4.5761  -4.4791  -4.4779  -4.4643  -4.4404
    -4.4328  -4.3119  -4.3098  -4.2863  -4.2438  -4.2422  -4.1812  -4.1741
    -4.1721  -4.1689  -4.1478  -4.1438  -4.1382  -4.0887  -4.0684  -4.0399
    -4.0366  -4.0264  -4.0251  -4.0026  -4.0017  -3.9798  -3.9717  -3.9708
    -3.9468  -3.8936  -3.8928  -3.8467  -3.8428  -3.7957  -3.7884  -3.7418
    -3.7330  -3.7298  -3.7290  -3.6941  -3.6732  -3.6613  -3.6509  -3.6490
    -3.6471  -3.6295  -3.6170  -3.6089  -3.5653  -3.5516  -3.5453  -3.5257
    -3.5158  -3.4916  -3.4420  -3.4217  -3.4140  -3.4073  -3.3809  -3.3775
    -3.3645  -3.3450  -3.2920  -3.2855  -3.2729  -3.2686  -3.2226  -3.2186
    -3.2043  -3.1754  -3.1471  -3.1426  -3.1375  -3.1315  -3.1280  -3.1240
    -3.1174  -3.1153  -3.1053  -3.0649  -3.0282  -3.0250  -3.0156  -3.0112
    -2.9848  -2.9799  -2.9748  -2.9557  -2.9089  -2.9063  -2.8987  -2.8634
    -2.8544  -2.8431  -2.8419  -2.8157  -2.8104  -2.7827  -2.7537  -2.7447
    -2.7281  -2.7167  -2.7079  -2.7030  -2.6559  -2.6541  -2.6200  -2.6015
    -2.5968  -2.5754  -2.5718  -2.5638  -2.5594  -2.5520  -2.5327  -2.5308
    -2.4864  -2.4832  -2.4821  -2.4690  -2.4666  -2.4587  -2.4570  -2.4531
    -2.4481  -2.4467  -2.4443  -2.4398  -2.4311  -2.4282  -2.4039  -2.3929
    -2.3911  -2.3898  -2.3885  -2.3848  -2.3815  -2.3597  -2.3578  -2.3446
    -2.3410  -2.3246  -2.3221  -2.3193  -2.3148  -2.3123  -2.3105  -2.2983
    -2.2934  -2.2898  -2.2873  -2.2758  -2.2487  -2.2455  -2.2048  -2.2031
    -2.1855  -2.1823  -2.1637  -2.1536  -2.1283  -2.1256  -2.1108  -2.1038
    -2.0884  -2.0736  -2.0596  -2.0553  -2.0476  -2.0471  -2.0384  -2.0352
    -2.0108  -2.0046  -2.0033  -1.9562  -1.9370  -1.9348  -1.9305  -1.9280
    -1.9077  -1.8753  -1.8726  -1.8516  -1.8458  -1.7949  -1.7891  -1.7685
    -1.7531  -1.7375  -1.7015  -1.6777  -1.6736  -1.6672  -1.6593  -1.6533
    -1.6501  -1.6474  -1.6394  -1.6263  -1.5864  -1.5822  -1.5726  -1.5704
    -1.5542  -1.5530  -1.5440  -1.5190  -1.5109  -1.5017  -1.5008  -1.4960
    -1.4909  -1.4858  -1.4766  -1.4607  -1.4566  -1.4450  -1.4207  -1.4083
    -1.4046  -1.3929  -1.3752  -1.3660  -1.3288  -1.3211  -1.3019  -1.2983
    -1.2791  -1.2668  -1.2231  -1.2160  -1.2146  -1.2111  -1.2081  -1.2026
    -1.1857  -1.1823  -1.1646  -1.1428  -1.1347  -1.1119  -1.1077  -1.1028
    -1.0992  -1.0962  -1.0835  -1.0790  -1.0765  -1.0746  -1.0675  -1.0362
    -1.0352  -1.0322  -1.0221  -1.0068  -0.9987  -0.9946  -0.9739  -0.9666
    -0.9463  -0.9213  -0.9142  -0.9017  -0.8788  -0.8706  -0.8630  -0.8580
    -0.8533  -0.8523  -0.8472  -0.8451  -0.8362  -0.8199  -0.8138  -0.8093
    -0.8060  -0.8049  -0.7979  -0.7685  -0.7673  -0.7587  -0.7486  -0.7379
    -0.7341  -0.7223  -0.7139  -0.6659  -0.6638  -0.6590  -0.6552  -0.6526
    -0.6502  -0.6389  -0.6284  -0.6261  -0.6206  -0.6195  -0.6174  -0.5991
    -0.5808  -0.5761  -0.5743  -0.5672  -0.5655  -0.5616  -0.5592  -0.5468
    -0.5417  -0.5398  -0.5064  -0.4989  -0.4949  -0.4906  -0.4845  -0.4733
    -0.4132  -0.4065  -0.4052  -0.4025  -0.3964  -0.3887  -0.3590  -0.3483
    -0.3474  -0.3167  -0.3149  -0.2705  -0.1918  -0.1745  -0.0839   0.3230
     0.3240   0.3295   0.3304   0.3891   0.4142   0.7730   0.7799   0.8178
     0.8231   0.9417   1.0154   1.1196   1.1342   1.3399   1.3686   1.9726
     1.9827   2.1324   2.1452   2.2659   2.2865   2.3743   2.3755   2.5285
     2.7635   2.7773   2.8905   3.1085   3.1221   3.1938   3.1980   3.2936
     3.3134   3.4957   3.5307   3.5656   3.7687   3.7728   3.8330   3.8393
     4.0853   4.0940   4.1053   4.3377   4.3758   4.3857   4.4256   4.7530
     4.7654   4.7909   4.9256   5.1009   5.1027   5.1422   5.1875   5.5892
     5.8174   5.8728   5.8877   5.8973   5.9258   5.9539   5.9643   6.0475
     6.0708   6.0985   6.1239   6.1250   6.1344   6.1689   6.1831   6.1987
     6.2099   6.5282   6.6018   6.7079   6.7651   6.7793   6.8258   6.8371
     6.8469   6.9536   7.0264

          k =-0.2500 0.4330-0.1111 (136853 PWs)   bands (ev):

   -19.2205  -7.1519  -6.3881  -5.9916  -5.9862  -5.3163  -4.9800  -4.9760
    -4.9495  -4.9365  -4.5776  -4.5760  -4.4786  -4.4778  -4.4642  -4.4404
    -4.4334  -4.3141  -4.3087  -4.2866  -4.2434  -4.2429  -4.1808  -4.1740
    -4.1732  -4.1679  -4.1462  -4.1437  -4.1394  -4.0879  -4.0680  -4.0391
    -4.0364  -4.0257  -4.0254  -4.0038  -4.0017  -3.9793  -3.9726  -3.9710
    -3.9465  -3.8939  -3.8925  -3.8453  -3.8425  -3.7913  -3.7883  -3.7406
    -3.7331  -3.7299  -3.7289  -3.6950  -3.6706  -3.6634  -3.6586  -3.6491
    -3.6462  -3.6377  -3.6176  -3.6088  -3.5687  -3.5516  -3.5491  -3.5224
    -3.5136  -3.4902  -3.4412  -3.4282  -3.4095  -3.3976  -3.3817  -3.3680
    -3.3635  -3.3430  -3.2946  -3.2903  -3.2743  -3.2697  -3.2274  -3.2184
    -3.2029  -3.1745  -3.1537  -3.1458  -3.1379  -3.1335  -3.1285  -3.1181
    -3.1163  -3.1104  -3.1026  -3.0645  -3.0277  -3.0248  -3.0138  -3.0098
    -2.9840  -2.9795  -2.9760  -2.9543  -2.9096  -2.9058  -2.9029  -2.8628
    -2.8541  -2.8437  -2.8416  -2.8229  -2.8107  -2.7823  -2.7524  -2.7434
    -2.7285  -2.7166  -2.7045  -2.7016  -2.6566  -2.6519  -2.6206  -2.5997
    -2.5962  -2.5814  -2.5731  -2.5652  -2.5592  -2.5515  -2.5338  -2.5314
    -2.4879  -2.4832  -2.4811  -2.4700  -2.4665  -2.4579  -2.4571  -2.4523
    -2.4513  -2.4449  -2.4402  -2.4381  -2.4296  -2.4230  -2.4095  -2.3937
    -2.3911  -2.3891  -2.3884  -2.3858  -2.3838  -2.3639  -2.3595  -2.3467
    -2.3416  -2.3232  -2.3223  -2.3174  -2.3145  -2.3119  -2.3090  -2.3007
    -2.2928  -2.2888  -2.2870  -2.2768  -2.2491  -2.2453  -2.2052  -2.2023
    -2.1843  -2.1822  -2.1596  -2.1522  -2.1348  -2.1263  -2.1159  -2.1050
    -2.0772  -2.0699  -2.0561  -2.0514  -2.0483  -2.0440  -2.0382  -2.0354
    -2.0180  -2.0072  -2.0013  -1.9604  -1.9372  -1.9337  -1.9314  -1.9296
    -1.8999  -1.8754  -1.8723  -1.8589  -1.8458  -1.7921  -1.7880  -1.7759
    -1.7446  -1.7378  -1.7101  -1.6788  -1.6719  -1.6698  -1.6629  -1.6560
    -1.6511  -1.6472  -1.6393  -1.6324  -1.5859  -1.5802  -1.5721  -1.5716
    -1.5622  -1.5538  -1.5249  -1.5175  -1.5122  -1.5031  -1.5009  -1.4953
    -1.4900  -1.4844  -1.4770  -1.4606  -1.4578  -1.4520  -1.4236  -1.4139
    -1.4055  -1.3912  -1.3686  -1.3415  -1.3291  -1.3179  -1.2999  -1.2974
    -1.2850  -1.2687  -1.2240  -1.2157  -1.2142  -1.2098  -1.2066  -1.2016
    -1.1944  -1.1823  -1.1719  -1.1444  -1.1352  -1.1099  -1.1075  -1.1029
    -1.0974  -1.0961  -1.0826  -1.0784  -1.0768  -1.0733  -1.0692  -1.0358
    -1.0343  -1.0324  -1.0247  -1.0068  -1.0031  -0.9963  -0.9746  -0.9646
    -0.9511  -0.9224  -0.9140  -0.8958  -0.8794  -0.8671  -0.8617  -0.8585
    -0.8538  -0.8530  -0.8476  -0.8404  -0.8357  -0.8196  -0.8137  -0.8106
    -0.8063  -0.8040  -0.7970  -0.7683  -0.7672  -0.7589  -0.7498  -0.7364
    -0.7328  -0.7227  -0.7068  -0.6659  -0.6639  -0.6578  -0.6558  -0.6526
    -0.6502  -0.6431  -0.6286  -0.6244  -0.6215  -0.6189  -0.6177  -0.5971
    -0.5800  -0.5769  -0.5749  -0.5668  -0.5646  -0.5612  -0.5585  -0.5441
    -0.5412  -0.5395  -0.5130  -0.4989  -0.4948  -0.4914  -0.4855  -0.4670
    -0.4135  -0.4060  -0.4052  -0.4027  -0.3962  -0.3927  -0.3597  -0.3488
    -0.3470  -0.3163  -0.3151  -0.2658  -0.1949  -0.1798  -0.0886   0.3233
     0.3242   0.3291   0.3306   0.3888   0.4122   0.7735   0.7802   0.8179
     0.8225   0.9418   1.0165   1.1208   1.1339   1.3441   1.3644   1.9721
     1.9827   2.1323   2.1457   2.2693   2.2807   2.3740   2.3755   2.5284
     2.7627   2.7774   2.8925   3.1124   3.1193   3.1939   3.1979   3.2952
     3.3139   3.5064   3.5207   3.5708   3.7682   3.7735   3.8321   3.8366
     4.0849   4.0944   4.1051   4.3389   4.3743   4.3824   4.4278   4.7554
     4.7650   4.7867   4.9248   5.1004   5.1029   5.1585   5.1714   5.5799
     5.8313   5.8818   5.8882   5.8997   5.9076   5.9554   5.9664   6.0480
     6.0753   6.0892   6.1173   6.1294   6.1470   6.1670   6.1825   6.1893
     6.2155   6.5413   6.5839   6.7290   6.7500   6.7706   6.8227   6.8363
     6.8506   6.9485   7.0322

          k = 0.2500-0.4330-0.1111 (136853 PWs)   bands (ev):

   -19.2205  -7.1519  -6.3881  -5.9916  -5.9862  -5.3163  -4.9800  -4.9760
    -4.9495  -4.9365  -4.5776  -4.5760  -4.4786  -4.4778  -4.4642  -4.4404
    -4.4334  -4.3141  -4.3087  -4.2866  -4.2434  -4.2429  -4.1808  -4.1740
    -4.1732  -4.1679  -4.1462  -4.1437  -4.1394  -4.0879  -4.0680  -4.0391
    -4.0364  -4.0257  -4.0254  -4.0038  -4.0017  -3.9793  -3.9726  -3.9710
    -3.9465  -3.8939  -3.8925  -3.8453  -3.8425  -3.7913  -3.7883  -3.7406
    -3.7331  -3.7299  -3.7289  -3.6950  -3.6706  -3.6634  -3.6586  -3.6491
    -3.6462  -3.6377  -3.6176  -3.6088  -3.5687  -3.5516  -3.5491  -3.5224
    -3.5136  -3.4902  -3.4412  -3.4282  -3.4095  -3.3976  -3.3817  -3.3680
    -3.3635  -3.3430  -3.2946  -3.2903  -3.2743  -3.2697  -3.2274  -3.2184
    -3.2029  -3.1745  -3.1537  -3.1458  -3.1379  -3.1335  -3.1285  -3.1181
    -3.1163  -3.1104  -3.1026  -3.0645  -3.0277  -3.0248  -3.0138  -3.0098
    -2.9840  -2.9795  -2.9760  -2.9543  -2.9096  -2.9058  -2.9029  -2.8628
    -2.8541  -2.8437  -2.8416  -2.8229  -2.8107  -2.7823  -2.7524  -2.7434
    -2.7285  -2.7166  -2.7045  -2.7016  -2.6566  -2.6519  -2.6206  -2.5998
    -2.5962  -2.5814  -2.5731  -2.5652  -2.5592  -2.5515  -2.5338  -2.5314
    -2.4879  -2.4832  -2.4811  -2.4700  -2.4665  -2.4579  -2.4571  -2.4523
    -2.4513  -2.4449  -2.4402  -2.4381  -2.4296  -2.4230  -2.4095  -2.3937
    -2.3911  -2.3891  -2.3884  -2.3858  -2.3838  -2.3639  -2.3595  -2.3467
    -2.3416  -2.3232  -2.3223  -2.3174  -2.3145  -2.3119  -2.3090  -2.3007
    -2.2928  -2.2888  -2.2870  -2.2768  -2.2491  -2.2453  -2.2052  -2.2023
    -2.1843  -2.1822  -2.1596  -2.1522  -2.1348  -2.1263  -2.1159  -2.1050
    -2.0772  -2.0699  -2.0561  -2.0513  -2.0483  -2.0440  -2.0382  -2.0354
    -2.0180  -2.0072  -2.0013  -1.9604  -1.9372  -1.9337  -1.9314  -1.9296
    -1.8999  -1.8754  -1.8723  -1.8589  -1.8458  -1.7921  -1.7880  -1.7759
    -1.7446  -1.7378  -1.7101  -1.6788  -1.6719  -1.6698  -1.6629  -1.6560
    -1.6511  -1.6472  -1.6393  -1.6324  -1.5859  -1.5802  -1.5721  -1.5716
    -1.5622  -1.5538  -1.5249  -1.5175  -1.5122  -1.5031  -1.5009  -1.4953
    -1.4900  -1.4844  -1.4770  -1.4606  -1.4578  -1.4520  -1.4236  -1.4139
    -1.4055  -1.3912  -1.3686  -1.3415  -1.3291  -1.3179  -1.2999  -1.2974
    -1.2850  -1.2687  -1.2240  -1.2157  -1.2142  -1.2098  -1.2066  -1.2016
    -1.1944  -1.1823  -1.1719  -1.1444  -1.1352  -1.1099  -1.1075  -1.1029
    -1.0974  -1.0961  -1.0826  -1.0784  -1.0768  -1.0733  -1.0692  -1.0358
    -1.0343  -1.0324  -1.0247  -1.0068  -1.0031  -0.9963  -0.9746  -0.9646
    -0.9511  -0.9224  -0.9140  -0.8958  -0.8794  -0.8671  -0.8617  -0.8585
    -0.8538  -0.8530  -0.8476  -0.8404  -0.8357  -0.8196  -0.8137  -0.8106
    -0.8063  -0.8040  -0.7970  -0.7683  -0.7672  -0.7589  -0.7498  -0.7364
    -0.7328  -0.7227  -0.7068  -0.6659  -0.6639  -0.6578  -0.6558  -0.6526
    -0.6502  -0.6431  -0.6286  -0.6244  -0.6215  -0.6189  -0.6177  -0.5971
    -0.5800  -0.5769  -0.5749  -0.5668  -0.5646  -0.5612  -0.5585  -0.5441
    -0.5412  -0.5395  -0.5130  -0.4989  -0.4948  -0.4914  -0.4855  -0.4670
    -0.4135  -0.4060  -0.4052  -0.4027  -0.3962  -0.3927  -0.3597  -0.3488
    -0.3470  -0.3163  -0.3151  -0.2658  -0.1949  -0.1798  -0.0886   0.3233
     0.3242   0.3291   0.3306   0.3888   0.4122   0.7735   0.7802   0.8179
     0.8225   0.9418   1.0165   1.1208   1.1339   1.3441   1.3644   1.9721
     1.9827   2.1323   2.1457   2.2693   2.2807   2.3740   2.3755   2.5284
     2.7627   2.7774   2.8925   3.1124   3.1193   3.1939   3.1979   3.2952
     3.3139   3.5064   3.5207   3.5708   3.7682   3.7735   3.8321   3.8366
     4.0849   4.0944   4.1051   4.3389   4.3743   4.3824   4.4278   4.7554
     4.7650   4.7867   4.9248   5.1004   5.1029   5.1585   5.1714   5.5799
     5.8314   5.8818   5.8882   5.8997   5.9076   5.9554   5.9664   6.0480
     6.0752   6.0892   6.1172   6.1294   6.1470   6.1671   6.1825   6.1898
     6.2152   6.5411   6.5842   6.7295   6.7504   6.7700   6.8227   6.8365
     6.8495   6.9482   7.0315

          k = 0.5000 0.0000 0.1111 (136853 PWs)   bands (ev):

   -19.2205  -7.1518  -6.3882  -5.9917  -5.9860  -5.3165  -4.9793  -4.9761
    -4.9496  -4.9365  -4.5780  -4.5762  -4.4788  -4.4782  -4.4643  -4.4404
    -4.4334  -4.3128  -4.3090  -4.2864  -4.2439  -4.2426  -4.1804  -4.1741
    -4.1719  -4.1672  -4.1465  -4.1436  -4.1396  -4.0873  -4.0689  -4.0396
    -4.0355  -4.0260  -4.0253  -4.0039  -4.0019  -3.9790  -3.9729  -3.9713
    -3.9478  -3.8948  -3.8924  -3.8461  -3.8418  -3.7967  -3.7899  -3.7455
    -3.7326  -3.7295  -3.7294  -3.6951  -3.6696  -3.6622  -3.6502  -3.6483
    -3.6473  -3.6227  -3.6180  -3.6114  -3.5661  -3.5514  -3.5447  -3.5275
    -3.5129  -3.4933  -3.4414  -3.4278  -3.4129  -3.4039  -3.3825  -3.3713
    -3.3646  -3.3430  -3.2927  -3.2881  -3.2735  -3.2709  -3.2243  -3.2211
    -3.2019  -3.1745  -3.1507  -3.1463  -3.1370  -3.1350  -3.1298  -3.1190
    -3.1169  -3.1098  -3.1036  -3.0648  -3.0284  -3.0241  -3.0150  -3.0107
    -2.9846  -2.9790  -2.9774  -2.9543  -2.9086  -2.9069  -2.8993  -2.8629
    -2.8541  -2.8429  -2.8420  -2.8172  -2.8123  -2.7826  -2.7519  -2.7457
    -2.7280  -2.7166  -2.7055  -2.7038  -2.6559  -2.6528  -2.6205  -2.5995
    -2.5975  -2.5782  -2.5718  -2.5634  -2.5603  -2.5520  -2.5331  -2.5307
    -2.4880  -2.4831  -2.4817  -2.4696  -2.4667  -2.4580  -2.4572  -2.4527
    -2.4501  -2.4477  -2.4444  -2.4398  -2.4295  -2.4259  -2.4034  -2.3941
    -2.3919  -2.3886  -2.3876  -2.3854  -2.3830  -2.3615  -2.3591  -2.3452
    -2.3416  -2.3235  -2.3225  -2.3191  -2.3134  -2.3116  -2.3100  -2.2988
    -2.2943  -2.2891  -2.2876  -2.2760  -2.2487  -2.2458  -2.2048  -2.2027
    -2.1849  -2.1824  -2.1615  -2.1537  -2.1321  -2.1265  -2.1142  -2.1044
    -2.0807  -2.0747  -2.0599  -2.0534  -2.0487  -2.0447  -2.0385  -2.0353
    -2.0126  -2.0052  -2.0027  -1.9517  -1.9388  -1.9340  -1.9314  -1.9283
    -1.9031  -1.8752  -1.8725  -1.8533  -1.8467  -1.7938  -1.7890  -1.7701
    -1.7519  -1.7380  -1.7029  -1.6787  -1.6731  -1.6651  -1.6578  -1.6538
    -1.6493  -1.6480  -1.6400  -1.6290  -1.5909  -1.5785  -1.5746  -1.5713
    -1.5637  -1.5527  -1.5433  -1.5165  -1.5110  -1.5017  -1.5002  -1.4937
    -1.4903  -1.4833  -1.4765  -1.4601  -1.4574  -1.4448  -1.4227  -1.4126
    -1.4059  -1.3918  -1.3694  -1.3602  -1.3295  -1.3170  -1.3030  -1.2974
    -1.2840  -1.2655  -1.2231  -1.2155  -1.2143  -1.2106  -1.2078  -1.2014
    -1.1882  -1.1835  -1.1602  -1.1427  -1.1375  -1.1125  -1.1116  -1.1033
    -1.0981  -1.0973  -1.0847  -1.0778  -1.0759  -1.0734  -1.0662  -1.0366
    -1.0348  -1.0325  -1.0203  -1.0083  -1.0008  -0.9963  -0.9728  -0.9687
    -0.9458  -0.9231  -0.9155  -0.9007  -0.8768  -0.8727  -0.8620  -0.8593
    -0.8532  -0.8520  -0.8492  -0.8412  -0.8368  -0.8186  -0.8134  -0.8121
    -0.8062  -0.8054  -0.7947  -0.7677  -0.7670  -0.7611  -0.7500  -0.7368
    -0.7329  -0.7218  -0.7023  -0.6664  -0.6616  -0.6581  -0.6573  -0.6544
    -0.6505  -0.6395  -0.6301  -0.6241  -0.6209  -0.6185  -0.6182  -0.6007
    -0.5794  -0.5773  -0.5735  -0.5677  -0.5641  -0.5617  -0.5586  -0.5459
    -0.5417  -0.5397  -0.5049  -0.5004  -0.4941  -0.4897  -0.4857  -0.4742
    -0.4131  -0.4068  -0.4052  -0.4013  -0.3969  -0.3895  -0.3597  -0.3478
    -0.3467  -0.3175  -0.3151  -0.2672  -0.1930  -0.1816  -0.0875   0.3229
     0.3249   0.3291   0.3308   0.3865   0.4109   0.7742   0.7796   0.8181
     0.8224   0.9424   1.0181   1.1210   1.1375   1.3409   1.3671   1.9687
     1.9839   2.1307   2.1473   2.2642   2.2851   2.3733   2.3762   2.5285
     2.7628   2.7787   2.8926   3.1136   3.1199   3.1897   3.2004   3.2960
     3.3139   3.5054   3.5219   3.5660   3.7687   3.7732   3.8267   3.8412
     4.0877   4.0924   4.1078   4.3377   4.3704   4.3880   4.4255   4.7557
     4.7641   4.7921   4.9201   5.1001   5.1024   5.1524   5.1815   5.5775
     5.8333   5.8765   5.8856   5.8943   5.9102   5.9582   5.9627   6.0507
     6.0631   6.0990   6.1260   6.1281   6.1450   6.1594   6.1812   6.1984
     6.2158   6.5397   6.5895   6.7241   6.7629   6.7688   6.8288   6.8341
     6.8466   6.9557   7.0338

          k =-0.5000 0.0000 0.1111 (136853 PWs)   bands (ev):

   -19.2205  -7.1519  -6.3882  -5.9917  -5.9860  -5.3165  -4.9793  -4.9761
    -4.9496  -4.9365  -4.5780  -4.5762  -4.4788  -4.4782  -4.4643  -4.4404
    -4.4334  -4.3128  -4.3090  -4.2864  -4.2439  -4.2426  -4.1804  -4.1741
    -4.1719  -4.1672  -4.1465  -4.1436  -4.1396  -4.0873  -4.0689  -4.0396
    -4.0355  -4.0260  -4.0253  -4.0039  -4.0019  -3.9790  -3.9729  -3.9713
    -3.9478  -3.8948  -3.8924  -3.8461  -3.8418  -3.7967  -3.7899  -3.7455
    -3.7326  -3.7295  -3.7294  -3.6951  -3.6696  -3.6622  -3.6502  -3.6483
    -3.6473  -3.6227  -3.6180  -3.6114  -3.5661  -3.5514  -3.5447  -3.5275
    -3.5129  -3.4933  -3.4414  -3.4278  -3.4129  -3.4039  -3.3825  -3.3713
    -3.3646  -3.3430  -3.2927  -3.2881  -3.2735  -3.2709  -3.2243  -3.2211
    -3.2019  -3.1745  -3.1507  -3.1463  -3.1370  -3.1350  -3.1298  -3.1190
    -3.1169  -3.1098  -3.1036  -3.0648  -3.0284  -3.0241  -3.0150  -3.0107
    -2.9846  -2.9790  -2.9774  -2.9543  -2.9086  -2.9069  -2.8993  -2.8629
    -2.8541  -2.8429  -2.8420  -2.8172  -2.8123  -2.7826  -2.7519  -2.7457
    -2.7280  -2.7166  -2.7055  -2.7038  -2.6559  -2.6528  -2.6205  -2.5995
    -2.5975  -2.5782  -2.5718  -2.5634  -2.5603  -2.5520  -2.5331  -2.5307
    -2.4880  -2.4831  -2.4817  -2.4696  -2.4667  -2.4580  -2.4572  -2.4527
    -2.4501  -2.4477  -2.4444  -2.4398  -2.4295  -2.4259  -2.4034  -2.3941
    -2.3919  -2.3886  -2.3876  -2.3854  -2.3830  -2.3615  -2.3591  -2.3452
    -2.3416  -2.3235  -2.3225  -2.3191  -2.3134  -2.3116  -2.3100  -2.2988
    -2.2943  -2.2891  -2.2876  -2.2760  -2.2487  -2.2458  -2.2048  -2.2027
    -2.1849  -2.1824  -2.1615  -2.1537  -2.1321  -2.1265  -2.1142  -2.1044
    -2.0807  -2.0747  -2.0599  -2.0534  -2.0487  -2.0447  -2.0385  -2.0353
    -2.0126  -2.0052  -2.0027  -1.9517  -1.9388  -1.9340  -1.9314  -1.9283
    -1.9031  -1.8752  -1.8725  -1.8533  -1.8467  -1.7938  -1.7890  -1.7701
    -1.7519  -1.7380  -1.7029  -1.6787  -1.6731  -1.6651  -1.6578  -1.6538
    -1.6493  -1.6480  -1.6400  -1.6290  -1.5909  -1.5785  -1.5746  -1.5713
    -1.5637  -1.5527  -1.5433  -1.5165  -1.5110  -1.5017  -1.5002  -1.4937
    -1.4903  -1.4833  -1.4765  -1.4601  -1.4574  -1.4448  -1.4227  -1.4126
    -1.4059  -1.3918  -1.3694  -1.3602  -1.3295  -1.3170  -1.3030  -1.2974
    -1.2840  -1.2655  -1.2231  -1.2155  -1.2143  -1.2106  -1.2078  -1.2014
    -1.1882  -1.1835  -1.1602  -1.1427  -1.1375  -1.1125  -1.1116  -1.1033
    -1.0981  -1.0973  -1.0847  -1.0778  -1.0759  -1.0734  -1.0662  -1.0366
    -1.0348  -1.0325  -1.0203  -1.0083  -1.0008  -0.9963  -0.9728  -0.9687
    -0.9458  -0.9231  -0.9155  -0.9007  -0.8768  -0.8727  -0.8620  -0.8593
    -0.8532  -0.8520  -0.8492  -0.8412  -0.8368  -0.8186  -0.8134  -0.8121
    -0.8062  -0.8054  -0.7947  -0.7677  -0.7670  -0.7611  -0.7500  -0.7368
    -0.7329  -0.7218  -0.7023  -0.6664  -0.6616  -0.6581  -0.6573  -0.6544
    -0.6505  -0.6395  -0.6301  -0.6241  -0.6209  -0.6185  -0.6182  -0.6007
    -0.5794  -0.5773  -0.5735  -0.5677  -0.5641  -0.5617  -0.5586  -0.5459
    -0.5417  -0.5397  -0.5049  -0.5004  -0.4941  -0.4897  -0.4857  -0.4742
    -0.4131  -0.4068  -0.4052  -0.4013  -0.3969  -0.3895  -0.3597  -0.3478
    -0.3467  -0.3175  -0.3151  -0.2672  -0.1930  -0.1816  -0.0875   0.3229
     0.3249   0.3291   0.3308   0.3865   0.4109   0.7742   0.7796   0.8181
     0.8224   0.9424   1.0181   1.1210   1.1375   1.3409   1.3671   1.9687
     1.9839   2.1307   2.1473   2.2642   2.2851   2.3733   2.3762   2.5285
     2.7628   2.7787   2.8926   3.1136   3.1199   3.1897   3.2004   3.2960
     3.3139   3.5054   3.5219   3.5660   3.7687   3.7732   3.8267   3.8412
     4.0877   4.0924   4.1078   4.3377   4.3704   4.3880   4.4255   4.7557
     4.7641   4.7921   4.9201   5.1001   5.1024   5.1524   5.1815   5.5775
     5.8333   5.8765   5.8856   5.8943   5.9102   5.9582   5.9627   6.0506
     6.0631   6.0990   6.1260   6.1280   6.1451   6.1595   6.1812   6.1989
     6.2155   6.5396   6.5898   6.7237   6.7622   6.7703   6.8286   6.8341
     6.8457   6.9556   7.0339

          k =-0.2500 0.1443 0.1111 (136898 PWs)   bands (ev):

   -19.2205  -7.1519  -6.5979  -5.8064  -5.5202  -5.4565  -5.4548  -4.9182
    -4.9167  -4.7916  -4.7852  -4.6349  -4.6086  -4.5375  -4.5118  -4.5045
    -4.4707  -4.4700  -4.3420  -4.3010  -4.2992  -4.2425  -4.2238  -4.2197
    -4.1178  -4.1166  -4.0824  -4.0801  -4.0798  -4.0571  -4.0323  -4.0315
    -3.9416  -3.9257  -3.9240  -3.9070  -3.8890  -3.8873  -3.8791  -3.8754
    -3.8653  -3.8382  -3.8323  -3.8318  -3.8303  -3.8048  -3.8002  -3.7827
    -3.7803  -3.7743  -3.7424  -3.7310  -3.7039  -3.6868  -3.6795  -3.6718
    -3.6712  -3.6002  -3.5978  -3.5852  -3.5663  -3.5611  -3.5090  -3.4916
    -3.4865  -3.4765  -3.4615  -3.4487  -3.4479  -3.4468  -3.4140  -3.2924
    -3.2903  -3.2736  -3.2686  -3.2493  -3.2448  -3.2388  -3.2207  -3.2159
    -3.1691  -3.1675  -3.1529  -3.1508  -3.1297  -3.0896  -3.0868  -3.0627
    -3.0601  -3.0588  -3.0202  -3.0195  -3.0100  -3.0081  -2.9951  -2.9860
    -2.9578  -2.9562  -2.9380  -2.9333  -2.9308  -2.9302  -2.9233  -2.8529
    -2.8511  -2.8441  -2.8192  -2.8184  -2.7672  -2.7562  -2.7301  -2.7258
    -2.7190  -2.7160  -2.7071  -2.6822  -2.6790  -2.6689  -2.6533  -2.6342
    -2.6291  -2.6238  -2.6075  -2.6058  -2.6001  -2.5959  -2.5926  -2.5889
    -2.5799  -2.5348  -2.5076  -2.5067  -2.4869  -2.4758  -2.4715  -2.4685
    -2.4626  -2.4602  -2.4577  -2.4352  -2.4312  -2.4286  -2.4202  -2.4181
    -2.4044  -2.3801  -2.3775  -2.3742  -2.3728  -2.3717  -2.3259  -2.3014
    -2.2968  -2.2948  -2.2898  -2.2813  -2.2767  -2.2678  -2.2494  -2.2488
    -2.2256  -2.2159  -2.2147  -2.2070  -2.1986  -2.1964  -2.1665  -2.1617
    -2.1307  -2.1265  -2.1170  -2.1163  -2.1125  -2.1097  -2.1061  -2.1033
    -2.1004  -2.0989  -2.0973  -2.0803  -2.0780  -1.9969  -1.9547  -1.9407
    -1.9176  -1.9153  -1.9054  -1.9041  -1.8988  -1.8910  -1.8874  -1.8853
    -1.8793  -1.8696  -1.8601  -1.8572  -1.8524  -1.8432  -1.8402  -1.8217
    -1.8180  -1.7942  -1.7896  -1.7624  -1.7551  -1.7491  -1.7396  -1.7244
    -1.7205  -1.7169  -1.7018  -1.6979  -1.6861  -1.6806  -1.6786  -1.6624
    -1.6545  -1.6457  -1.6377  -1.6215  -1.6044  -1.5920  -1.5701  -1.5476
    -1.5403  -1.5290  -1.5268  -1.5018  -1.5007  -1.4854  -1.4697  -1.4675
    -1.4541  -1.4302  -1.4254  -1.4061  -1.4054  -1.3966  -1.3828  -1.3805
    -1.3581  -1.3490  -1.3446  -1.3157  -1.2838  -1.2818  -1.2728  -1.2611
    -1.2563  -1.2507  -1.2412  -1.2386  -1.2233  -1.2096  -1.1834  -1.1803
    -1.1664  -1.1373  -1.1328  -1.1257  -1.1213  -1.1186  -1.1175  -1.1147
    -1.0963  -1.0949  -1.0748  -1.0701  -1.0587  -1.0552  -1.0533  -1.0374
    -1.0315  -1.0146  -1.0002  -0.9910  -0.9469  -0.8986  -0.8899  -0.8814
    -0.8809  -0.8754  -0.8712  -0.8601  -0.8495  -0.8370  -0.8321  -0.8193
    -0.8164  -0.8122  -0.8013  -0.7901  -0.7838  -0.7756  -0.7534  -0.7028
    -0.7001  -0.6698  -0.6640  -0.6610  -0.6569  -0.6545  -0.6532  -0.6464
    -0.6420  -0.6349  -0.6062  -0.5974  -0.5749  -0.5674  -0.5636  -0.5551
    -0.5498  -0.5449  -0.5411  -0.5399  -0.5372  -0.5240  -0.5211  -0.5170
    -0.4992  -0.4873  -0.4841  -0.4760  -0.4704  -0.4667  -0.4510  -0.4205
    -0.4170  -0.4110  -0.4010  -0.3434  -0.3412  -0.3089  -0.3071  -0.2520
    -0.2495  -0.2471  -0.2257  -0.2091   0.0055   0.0366   0.3533   0.3536
     0.4428   0.4666   0.6403   0.6711   0.6840   0.7975   0.8075   1.2332
     1.2358   1.2503   1.5165   1.5434   1.5474   1.8176   1.8315   1.8956
     1.9002   1.9233   1.9415   2.1528   2.1573   2.2449   2.2457   2.3233
     2.3811   2.3984   2.5488   2.6517   3.0767   3.0843   3.0884   3.0972
     3.1408   3.1509   3.4370   3.4388   3.7163   3.7266   3.8278   4.1338
     4.1721   4.1768   4.3936   4.4041   4.4698   4.4800   4.5711   4.6819
     4.6887   4.8030   4.8061   5.1049   5.1681   5.1727   5.3393   5.3540
     5.4609   5.5552   5.5640   5.5902   5.5947   5.6451   5.6578   5.7075
     5.9770   6.0630   6.2534   6.2895   6.3150   6.3864   6.3985   6.4079
     6.4188   6.5977   6.6389   6.6480   6.7412   6.8452   6.8746   6.8933
     6.9311   7.0869   7.1075

          k =-0.2500-0.1443-0.1111 (136898 PWs)   bands (ev):

   -19.2205  -7.1520  -6.5979  -5.8063  -5.5202  -5.4564  -5.4550  -4.9177
    -4.9169  -4.7921  -4.7848  -4.6350  -4.6085  -4.5379  -4.5116  -4.5049
    -4.4706  -4.4700  -4.3417  -4.3006  -4.3001  -4.2429  -4.2229  -4.2199
    -4.1170  -4.1167  -4.0823  -4.0804  -4.0798  -4.0571  -4.0325  -4.0313
    -3.9436  -3.9256  -3.9247  -3.9076  -3.8895  -3.8873  -3.8789  -3.8755
    -3.8667  -3.8354  -3.8324  -3.8309  -3.8303  -3.8031  -3.8002  -3.7838
    -3.7804  -3.7776  -3.7349  -3.7297  -3.7084  -3.6878  -3.6797  -3.6718
    -3.6712  -3.6008  -3.5977  -3.5833  -3.5655  -3.5608  -3.5012  -3.4921
    -3.4891  -3.4766  -3.4628  -3.4495  -3.4484  -3.4471  -3.4208  -3.2908
    -3.2901  -3.2703  -3.2669  -3.2506  -3.2449  -3.2384  -3.2202  -3.2161
    -3.1696  -3.1677  -3.1534  -3.1517  -3.1319  -3.0869  -3.0827  -3.0688
    -3.0603  -3.0575  -3.0202  -3.0183  -3.0100  -3.0065  -2.9985  -2.9947
    -2.9567  -2.9559  -2.9344  -2.9330  -2.9306  -2.9278  -2.9219  -2.8558
    -2.8515  -2.8475  -2.8190  -2.8181  -2.7620  -2.7530  -2.7315  -2.7289
    -2.7163  -2.7145  -2.7071  -2.6819  -2.6784  -2.6687  -2.6544  -2.6374
    -2.6290  -2.6274  -2.6091  -2.6062  -2.6006  -2.5967  -2.5919  -2.5874
    -2.5799  -2.5346  -2.5073  -2.5044  -2.4926  -2.4773  -2.4711  -2.4681
    -2.4628  -2.4606  -2.4575  -2.4323  -2.4302  -2.4255  -2.4192  -2.4171
    -2.4048  -2.3805  -2.3772  -2.3768  -2.3727  -2.3724  -2.3256  -2.3022
    -2.2985  -2.2947  -2.2890  -2.2776  -2.2706  -2.2659  -2.2489  -2.2483
    -2.2264  -2.2197  -2.2152  -2.2030  -2.1974  -2.1963  -2.1774  -2.1627
    -2.1325  -2.1242  -2.1165  -2.1163  -2.1120  -2.1107  -2.1051  -2.1038
    -2.1010  -2.0979  -2.0940  -2.0814  -2.0782  -1.9832  -1.9523  -1.9459
    -1.9179  -1.9125  -1.9084  -1.9036  -1.9024  -1.8909  -1.8880  -1.8857
    -1.8809  -1.8639  -1.8600  -1.8570  -1.8513  -1.8439  -1.8387  -1.8223
    -1.8173  -1.7937  -1.7871  -1.7763  -1.7610  -1.7489  -1.7423  -1.7231
    -1.7200  -1.7161  -1.7015  -1.6906  -1.6855  -1.6820  -1.6783  -1.6652
    -1.6538  -1.6420  -1.6363  -1.6293  -1.6034  -1.5973  -1.5585  -1.5452
    -1.5404  -1.5297  -1.5263  -1.5040  -1.5012  -1.4929  -1.4697  -1.4661
    -1.4506  -1.4264  -1.4235  -1.4125  -1.4050  -1.3999  -1.3809  -1.3795
    -1.3559  -1.3471  -1.3449  -1.3217  -1.2848  -1.2798  -1.2717  -1.2692
    -1.2551  -1.2498  -1.2419  -1.2293  -1.2225  -1.2092  -1.1852  -1.1807
    -1.1673  -1.1392  -1.1315  -1.1230  -1.1208  -1.1184  -1.1159  -1.1139
    -1.1081  -1.0962  -1.0725  -1.0706  -1.0580  -1.0549  -1.0535  -1.0364
    -1.0279  -1.0138  -0.9974  -0.9912  -0.9540  -0.8972  -0.8889  -0.8818
    -0.8810  -0.8753  -0.8707  -0.8606  -0.8497  -0.8367  -0.8308  -0.8247
    -0.8167  -0.8117  -0.8042  -0.7896  -0.7838  -0.7755  -0.7519  -0.7007
    -0.7005  -0.6695  -0.6640  -0.6615  -0.6576  -0.6537  -0.6529  -0.6476
    -0.6413  -0.6352  -0.5976  -0.5968  -0.5847  -0.5666  -0.5650  -0.5554
    -0.5502  -0.5450  -0.5419  -0.5398  -0.5378  -0.5238  -0.5208  -0.5173
    -0.5010  -0.4869  -0.4840  -0.4775  -0.4710  -0.4566  -0.4502  -0.4207
    -0.4177  -0.4108  -0.4076  -0.3427  -0.3370  -0.3089  -0.3072  -0.2512
    -0.2496  -0.2472  -0.2258  -0.2094   0.0053   0.0385   0.3534   0.3537
     0.4425   0.4674   0.6410   0.6648   0.6896   0.7982   0.8085   1.2337
     1.2347   1.2516   1.5166   1.5434   1.5451   1.8155   1.8370   1.8963
     1.8990   1.9231   1.9412   2.1537   2.1553   2.2451   2.2454   2.3216
     2.3802   2.4004   2.5499   2.6500   3.0776   3.0847   3.0875   3.0974
     3.1420   3.1481   3.4365   3.4381   3.7140   3.7270   3.8266   4.1345
     4.1705   4.1782   4.3831   4.4154   4.4729   4.4827   4.5677   4.6853
     4.6891   4.8015   4.8035   5.1026   5.1690   5.1760   5.3232   5.3665
     5.4681   5.5595   5.5678   5.5899   5.5933   5.6447   5.6545   5.7064
     5.9795   6.0466   6.2550   6.2836   6.3330   6.3929   6.3995   6.4052
     6.4088   6.5972   6.6385   6.6527   6.7381   6.8478   6.8745   6.8895
     6.9390   7.0840   7.1176

          k = 0.2500 0.1443-0.1111 (136898 PWs)   bands (ev):

   -19.2205  -7.1520  -6.5979  -5.8063  -5.5202  -5.4564  -5.4550  -4.9177
    -4.9169  -4.7921  -4.7848  -4.6350  -4.6085  -4.5379  -4.5116  -4.5049
    -4.4706  -4.4700  -4.3417  -4.3006  -4.3001  -4.2429  -4.2229  -4.2199
    -4.1170  -4.1167  -4.0823  -4.0804  -4.0798  -4.0571  -4.0325  -4.0313
    -3.9436  -3.9256  -3.9247  -3.9076  -3.8895  -3.8873  -3.8789  -3.8755
    -3.8667  -3.8354  -3.8324  -3.8308  -3.8303  -3.8031  -3.8002  -3.7838
    -3.7804  -3.7776  -3.7349  -3.7297  -3.7084  -3.6878  -3.6797  -3.6718
    -3.6712  -3.6008  -3.5977  -3.5833  -3.5655  -3.5608  -3.5012  -3.4921
    -3.4891  -3.4766  -3.4628  -3.4495  -3.4484  -3.4471  -3.4208  -3.2908
    -3.2901  -3.2703  -3.2669  -3.2506  -3.2449  -3.2384  -3.2202  -3.2161
    -3.1696  -3.1677  -3.1534  -3.1517  -3.1319  -3.0869  -3.0827  -3.0687
    -3.0603  -3.0575  -3.0202  -3.0183  -3.0100  -3.0065  -2.9985  -2.9947
    -2.9567  -2.9559  -2.9344  -2.9330  -2.9306  -2.9278  -2.9219  -2.8558
    -2.8515  -2.8475  -2.8190  -2.8181  -2.7620  -2.7530  -2.7315  -2.7289
    -2.7163  -2.7145  -2.7071  -2.6819  -2.6784  -2.6687  -2.6544  -2.6374
    -2.6290  -2.6274  -2.6091  -2.6062  -2.6006  -2.5967  -2.5919  -2.5874
    -2.5799  -2.5346  -2.5073  -2.5044  -2.4926  -2.4773  -2.4711  -2.4681
    -2.4628  -2.4607  -2.4575  -2.4323  -2.4302  -2.4255  -2.4192  -2.4171
    -2.4048  -2.3805  -2.3772  -2.3768  -2.3727  -2.3724  -2.3256  -2.3022
    -2.2985  -2.2947  -2.2890  -2.2776  -2.2706  -2.2659  -2.2489  -2.2483
    -2.2264  -2.2197  -2.2152  -2.2030  -2.1974  -2.1963  -2.1774  -2.1627
    -2.1325  -2.1242  -2.1165  -2.1163  -2.1120  -2.1107  -2.1051  -2.1038
    -2.1010  -2.0979  -2.0940  -2.0814  -2.0782  -1.9832  -1.9523  -1.9459
    -1.9179  -1.9125  -1.9084  -1.9036  -1.9024  -1.8909  -1.8880  -1.8857
    -1.8809  -1.8639  -1.8600  -1.8570  -1.8513  -1.8439  -1.8387  -1.8223
    -1.8173  -1.7937  -1.7871  -1.7763  -1.7610  -1.7489  -1.7423  -1.7231
    -1.7200  -1.7161  -1.7015  -1.6906  -1.6855  -1.6820  -1.6783  -1.6652
    -1.6538  -1.6420  -1.6363  -1.6293  -1.6034  -1.5973  -1.5585  -1.5452
    -1.5404  -1.5297  -1.5263  -1.5040  -1.5012  -1.4929  -1.4697  -1.4661
    -1.4506  -1.4264  -1.4235  -1.4125  -1.4050  -1.3999  -1.3809  -1.3795
    -1.3559  -1.3471  -1.3449  -1.3217  -1.2848  -1.2798  -1.2717  -1.2692
    -1.2551  -1.2498  -1.2419  -1.2293  -1.2225  -1.2092  -1.1852  -1.1807
    -1.1673  -1.1392  -1.1315  -1.1230  -1.1208  -1.1184  -1.1159  -1.1139
    -1.1081  -1.0962  -1.0725  -1.0706  -1.0580  -1.0549  -1.0536  -1.0364
    -1.0279  -1.0138  -0.9974  -0.9912  -0.9540  -0.8972  -0.8889  -0.8818
    -0.8810  -0.8753  -0.8707  -0.8607  -0.8497  -0.8367  -0.8308  -0.8247
    -0.8167  -0.8117  -0.8042  -0.7896  -0.7838  -0.7754  -0.7519  -0.7007
    -0.7004  -0.6695  -0.6640  -0.6615  -0.6576  -0.6537  -0.6529  -0.6476
    -0.6413  -0.6352  -0.5976  -0.5968  -0.5847  -0.5666  -0.5650  -0.5554
    -0.5502  -0.5450  -0.5419  -0.5398  -0.5378  -0.5239  -0.5208  -0.5173
    -0.5010  -0.4869  -0.4840  -0.4775  -0.4710  -0.4566  -0.4502  -0.4207
    -0.4177  -0.4108  -0.4076  -0.3427  -0.3370  -0.3089  -0.3072  -0.2512
    -0.2496  -0.2472  -0.2258  -0.2094   0.0053   0.0385   0.3534   0.3537
     0.4425   0.4674   0.6410   0.6648   0.6896   0.7982   0.8085   1.2337
     1.2347   1.2516   1.5166   1.5434   1.5451   1.8155   1.8370   1.8963
     1.8990   1.9231   1.9412   2.1537   2.1553   2.2451   2.2454   2.3216
     2.3802   2.4004   2.5499   2.6500   3.0776   3.0847   3.0875   3.0974
     3.1420   3.1481   3.4365   3.4381   3.7140   3.7270   3.8266   4.1345
     4.1705   4.1782   4.3831   4.4154   4.4729   4.4827   4.5677   4.6853
     4.6891   4.8015   4.8035   5.1026   5.1690   5.1760   5.3232   5.3665
     5.4681   5.5595   5.5678   5.5899   5.5933   5.6447   5.6545   5.7065
     5.9792   6.0473   6.2549   6.2837   6.3326   6.3928   6.3996   6.4053
     6.4088   6.5967   6.6393   6.6520   6.7343   6.8470   6.8747   6.8896
     6.9396   7.0896   7.1221

          k = 0.0000-0.2887 0.1111 (136898 PWs)   bands (ev):

   -19.2205  -7.1520  -6.5978  -5.8060  -5.5201  -5.4565  -5.4554  -4.9179
    -4.9170  -4.7908  -4.7847  -4.6349  -4.6087  -4.5374  -4.5129  -4.5057
    -4.4706  -4.4703  -4.3418  -4.3008  -4.2996  -4.2411  -4.2242  -4.2204
    -4.1169  -4.1167  -4.0822  -4.0802  -4.0800  -4.0566  -4.0325  -4.0317
    -3.9413  -3.9258  -3.9247  -3.9064  -3.8898  -3.8874  -3.8799  -3.8753
    -3.8649  -3.8365  -3.8327  -3.8307  -3.8301  -3.8038  -3.8011  -3.7820
    -3.7805  -3.7739  -3.7433  -3.7324  -3.7011  -3.6892  -3.6793  -3.6718
    -3.6715  -3.6033  -3.5977  -3.5847  -3.5658  -3.5614  -3.5006  -3.4921
    -3.4868  -3.4765  -3.4642  -3.4489  -3.4479  -3.4466  -3.4232  -3.2906
    -3.2893  -3.2731  -3.2646  -3.2522  -3.2450  -3.2378  -3.2214  -3.2123
    -3.1692  -3.1662  -3.1536  -3.1494  -3.1318  -3.0888  -3.0823  -3.0671
    -3.0607  -3.0582  -3.0211  -3.0167  -3.0102  -3.0061  -2.9970  -2.9940
    -2.9573  -2.9560  -2.9373  -2.9333  -2.9306  -2.9279  -2.9224  -2.8538
    -2.8511  -2.8464  -2.8190  -2.8181  -2.7638  -2.7567  -2.7291  -2.7280
    -2.7173  -2.7150  -2.7070  -2.6819  -2.6789  -2.6688  -2.6543  -2.6373
    -2.6299  -2.6220  -2.6079  -2.6056  -2.5985  -2.5957  -2.5932  -2.5910
    -2.5799  -2.5347  -2.5075  -2.5060  -2.4896  -2.4768  -2.4720  -2.4679
    -2.4634  -2.4598  -2.4575  -2.4347  -2.4313  -2.4261  -2.4198  -2.4172
    -2.4045  -2.3801  -2.3765  -2.3761  -2.3729  -2.3725  -2.3258  -2.3014
    -2.2975  -2.2947  -2.2897  -2.2792  -2.2758  -2.2656  -2.2491  -2.2486
    -2.2244  -2.2174  -2.2152  -2.2080  -2.1970  -2.1943  -2.1700  -2.1629
    -2.1333  -2.1235  -2.1166  -2.1159  -2.1137  -2.1095  -2.1061  -2.1048
    -2.1015  -2.0990  -2.0947  -2.0823  -2.0766  -1.9901  -1.9544  -1.9432
    -1.9166  -1.9123  -1.9065  -1.9033  -1.8995  -1.8928  -1.8881  -1.8845
    -1.8826  -1.8684  -1.8597  -1.8579  -1.8497  -1.8438  -1.8387  -1.8220
    -1.8174  -1.7940  -1.7888  -1.7681  -1.7606  -1.7492  -1.7430  -1.7260
    -1.7191  -1.7167  -1.7020  -1.6953  -1.6852  -1.6804  -1.6785  -1.6643
    -1.6536  -1.6460  -1.6346  -1.6220  -1.6026  -1.5970  -1.5672  -1.5447
    -1.5395  -1.5301  -1.5269  -1.5017  -1.5006  -1.4867  -1.4690  -1.4665
    -1.4533  -1.4273  -1.4249  -1.4097  -1.4047  -1.3903  -1.3841  -1.3807
    -1.3582  -1.3481  -1.3450  -1.3198  -1.2860  -1.2814  -1.2761  -1.2682
    -1.2567  -1.2501  -1.2410  -1.2374  -1.2228  -1.2094  -1.1816  -1.1779
    -1.1690  -1.1399  -1.1313  -1.1265  -1.1192  -1.1179  -1.1170  -1.1142
    -1.0969  -1.0960  -1.0766  -1.0702  -1.0565  -1.0549  -1.0531  -1.0362
    -1.0323  -1.0128  -0.9978  -0.9905  -0.9462  -0.8981  -0.8900  -0.8821
    -0.8809  -0.8770  -0.8716  -0.8614  -0.8493  -0.8396  -0.8301  -0.8190
    -0.8161  -0.8114  -0.8003  -0.7908  -0.7834  -0.7761  -0.7567  -0.7026
    -0.6997  -0.6696  -0.6650  -0.6625  -0.6569  -0.6548  -0.6524  -0.6488
    -0.6414  -0.6333  -0.6043  -0.5973  -0.5744  -0.5686  -0.5646  -0.5554
    -0.5507  -0.5455  -0.5408  -0.5403  -0.5374  -0.5232  -0.5211  -0.5171
    -0.5027  -0.4874  -0.4840  -0.4750  -0.4706  -0.4608  -0.4509  -0.4208
    -0.4171  -0.4106  -0.4000  -0.3429  -0.3409  -0.3089  -0.3074  -0.2509
    -0.2502  -0.2470  -0.2258  -0.2145   0.0074   0.0438   0.3535   0.3539
     0.4437   0.4668   0.6396   0.6665   0.6843   0.7982   0.8080   1.2332
     1.2350   1.2522   1.5153   1.5440   1.5458   1.8190   1.8343   1.8963
     1.8992   1.9228   1.9395   2.1530   2.1554   2.2448   2.2460   2.3221
     2.3819   2.3987   2.5493   2.6498   3.0810   3.0837   3.0882   3.0976
     3.1408   3.1492   3.4365   3.4392   3.7146   3.7268   3.8274   4.1339
     4.1678   4.1774   4.3822   4.4162   4.4718   4.4789   4.5689   4.6843
     4.6892   4.8045   4.8074   5.1028   5.1715   5.1764   5.3220   5.3677
     5.4680   5.5540   5.5648   5.5904   5.5943   5.6434   5.6595   5.7098
     5.9808   6.0489   6.2414   6.2757   6.3375   6.3843   6.3967   6.4100
     6.4179   6.5987   6.6444   6.6569   6.7417   6.8395   6.8676   6.8949
     6.9364   7.0866   7.1111

          k = 0.0000 0.2887 0.1111 (136898 PWs)   bands (ev):

   -19.2205  -7.1520  -6.5978  -5.8060  -5.5201  -5.4565  -5.4554  -4.9179
    -4.9170  -4.7908  -4.7847  -4.6349  -4.6087  -4.5374  -4.5129  -4.5057
    -4.4706  -4.4703  -4.3418  -4.3008  -4.2996  -4.2411  -4.2242  -4.2203
    -4.1169  -4.1167  -4.0822  -4.0802  -4.0800  -4.0566  -4.0325  -4.0317
    -3.9413  -3.9258  -3.9247  -3.9064  -3.8898  -3.8874  -3.8799  -3.8753
    -3.8649  -3.8365  -3.8327  -3.8307  -3.8301  -3.8038  -3.8011  -3.7820
    -3.7805  -3.7738  -3.7433  -3.7324  -3.7011  -3.6892  -3.6793  -3.6718
    -3.6715  -3.6033  -3.5977  -3.5847  -3.5659  -3.5614  -3.5006  -3.4921
    -3.4868  -3.4765  -3.4642  -3.4489  -3.4479  -3.4466  -3.4232  -3.2906
    -3.2893  -3.2731  -3.2646  -3.2523  -3.2450  -3.2378  -3.2214  -3.2123
    -3.1692  -3.1662  -3.1536  -3.1494  -3.1318  -3.0888  -3.0823  -3.0670
    -3.0607  -3.0583  -3.0211  -3.0167  -3.0102  -3.0061  -2.9970  -2.9940
    -2.9573  -2.9560  -2.9373  -2.9333  -2.9306  -2.9279  -2.9224  -2.8538
    -2.8511  -2.8464  -2.8190  -2.8181  -2.7638  -2.7567  -2.7291  -2.7280
    -2.7173  -2.7150  -2.7070  -2.6819  -2.6789  -2.6688  -2.6543  -2.6373
    -2.6299  -2.6220  -2.6079  -2.6056  -2.5985  -2.5957  -2.5932  -2.5910
    -2.5799  -2.5347  -2.5076  -2.5060  -2.4896  -2.4768  -2.4720  -2.4679
    -2.4634  -2.4598  -2.4575  -2.4347  -2.4313  -2.4261  -2.4198  -2.4172
    -2.4045  -2.3801  -2.3765  -2.3761  -2.3729  -2.3726  -2.3258  -2.3014
    -2.2975  -2.2947  -2.2897  -2.2792  -2.2758  -2.2656  -2.2491  -2.2486
    -2.2244  -2.2174  -2.2152  -2.2080  -2.1970  -2.1943  -2.1700  -2.1629
    -2.1333  -2.1235  -2.1166  -2.1159  -2.1137  -2.1095  -2.1061  -2.1048
    -2.1015  -2.0990  -2.0947  -2.0823  -2.0766  -1.9901  -1.9544  -1.9432
    -1.9166  -1.9123  -1.9065  -1.9033  -1.8995  -1.8928  -1.8881  -1.8845
    -1.8826  -1.8684  -1.8597  -1.8579  -1.8497  -1.8438  -1.8387  -1.8220
    -1.8174  -1.7940  -1.7888  -1.7681  -1.7606  -1.7492  -1.7430  -1.7260
    -1.7191  -1.7167  -1.7020  -1.6953  -1.6852  -1.6804  -1.6785  -1.6643
    -1.6536  -1.6460  -1.6346  -1.6220  -1.6026  -1.5971  -1.5672  -1.5447
    -1.5395  -1.5301  -1.5269  -1.5017  -1.5006  -1.4867  -1.4690  -1.4665
    -1.4533  -1.4273  -1.4249  -1.4097  -1.4047  -1.3903  -1.3841  -1.3808
    -1.3582  -1.3481  -1.3450  -1.3198  -1.2860  -1.2814  -1.2761  -1.2682
    -1.2567  -1.2501  -1.2410  -1.2374  -1.2228  -1.2094  -1.1816  -1.1779
    -1.1690  -1.1399  -1.1313  -1.1265  -1.1192  -1.1179  -1.1170  -1.1142
    -1.0969  -1.0960  -1.0766  -1.0702  -1.0565  -1.0549  -1.0531  -1.0362
    -1.0323  -1.0128  -0.9978  -0.9905  -0.9462  -0.8981  -0.8900  -0.8821
    -0.8809  -0.8770  -0.8716  -0.8614  -0.8493  -0.8396  -0.8301  -0.8190
    -0.8161  -0.8114  -0.8003  -0.7909  -0.7834  -0.7761  -0.7567  -0.7026
    -0.6997  -0.6696  -0.6650  -0.6625  -0.6569  -0.6548  -0.6524  -0.6488
    -0.6414  -0.6333  -0.6043  -0.5973  -0.5744  -0.5686  -0.5646  -0.5554
    -0.5506  -0.5455  -0.5408  -0.5403  -0.5374  -0.5232  -0.5211  -0.5171
    -0.5027  -0.4874  -0.4840  -0.4750  -0.4706  -0.4608  -0.4509  -0.4208
    -0.4171  -0.4106  -0.4000  -0.3429  -0.3409  -0.3089  -0.3074  -0.2509
    -0.2502  -0.2470  -0.2258  -0.2145   0.0074   0.0438   0.3535   0.3539
     0.4437   0.4668   0.6396   0.6665   0.6843   0.7982   0.8080   1.2332
     1.2350   1.2522   1.5153   1.5440   1.5458   1.8190   1.8343   1.8963
     1.8992   1.9228   1.9395   2.1530   2.1554   2.2448   2.2460   2.3221
     2.3819   2.3987   2.5493   2.6498   3.0810   3.0837   3.0882   3.0976
     3.1408   3.1492   3.4365   3.4392   3.7146   3.7268   3.8274   4.1339
     4.1678   4.1774   4.3822   4.4162   4.4718   4.4789   4.5689   4.6843
     4.6892   4.8045   4.8074   5.1028   5.1715   5.1764   5.3220   5.3677
     5.4680   5.5540   5.5648   5.5904   5.5943   5.6434   5.6595   5.7099
     5.9811   6.0488   6.2413   6.2754   6.3373   6.3843   6.3967   6.4099
     6.4181   6.5982   6.6447   6.6571   6.7380   6.8389   6.8676   6.8951
     6.9368   7.0916   7.1159

     the Fermi energy is     1.3811 ev

!    total energy              =   -6604.41107291 Ry
     Harris-Foulkes estimate   =   -6604.41107292 Ry
     estimated scf accuracy    <          9.8E-09 Ry

     The total energy is the sum of the following terms:

     one-electron contribution =  -48845.76209501 Ry
     hartree contribution      =   24922.42991999 Ry
     xc contribution           =   -3205.02811881 Ry
     ewald contribution        =   20523.94641286 Ry
     smearing contrib. (-TS)   =       0.00280806 Ry

     convergence has been achieved in  23 iterations

     Writing output data file 9555983.save

     init_run     :    147.94s CPU    159.27s WALL (       1 calls)
     electrons    :   7796.01s CPU   8383.50s WALL (       1 calls)

     Called by init_run:
     wfcinit      :    115.73s CPU    126.21s WALL (       1 calls)
     potinit      :      9.46s CPU     10.01s WALL (       1 calls)

     Called by electrons:
     c_bands      :   6457.92s CPU   6915.22s WALL (      24 calls)
     sum_band     :    973.52s CPU   1086.82s WALL (      24 calls)
     v_of_rho     :    103.62s CPU    114.09s WALL (      24 calls)
     newd         :    271.81s CPU    275.98s WALL (      24 calls)
     mix_rho      :      2.86s CPU      3.12s WALL (      24 calls)
     vdW_energy   :      8.98s CPU     10.12s WALL (      24 calls)
     vdW_ffts     :     52.06s CPU     57.43s WALL (      48 calls)
     vdW_v        :     13.88s CPU     14.81s WALL (      24 calls)

     Called by c_bands:
     init_us_2    :     19.83s CPU     20.21s WALL (     588 calls)
     cegterg      :   6392.97s CPU   6848.97s WALL (     288 calls)

     Called by *egterg:
     h_psi        :   2916.60s CPU   3335.04s WALL (    1452 calls)
     s_psi        :    411.28s CPU    413.99s WALL (    1452 calls)
     g_psi        :      5.77s CPU      5.85s WALL (    1152 calls)
     cdiaghg      :   1833.67s CPU   1838.75s WALL (    1428 calls)

     Called by h_psi:
     add_vuspsi   :    412.24s CPU    414.69s WALL (    1452 calls)

     General routines
     calbec       :    594.43s CPU    597.24s WALL (    1740 calls)
     fft          :    125.22s CPU    134.21s WALL (    1584 calls)
     ffts         :      1.41s CPU      1.60s WALL (      48 calls)
     fftw         :   2058.87s CPU   2492.38s WALL (  702684 calls)
     interpolate  :      3.88s CPU      4.47s WALL (      48 calls)
     davcio       :      0.01s CPU      0.41s WALL (      12 calls)

     Parallel routines
     fft_scatter  :   1396.14s CPU   1704.56s WALL (  704316 calls)

     PWSCF        :     2h12m CPU        2h22m WALL


   This run was terminated on:  11:17: 6  24Aug2015            

=------------------------------------------------------------------------------=
   JOB DONE.
=------------------------------------------------------------------------------=
