Setting SGE environment for SCC

     Program PWSCF v.5.1.2 starts on 24Aug2015 at  8:53:19 

     This program is part of the open-source Quantum ESPRESSO suite
     for quantum simulation of materials; please cite
         "P. Giannozzi et al., J. Phys.:Condens. Matter 21 395502 (2009);
          URL http://www.quantum-espresso.org", 
     in publications or presentations arising from this work. More details at
     http://www.quantum-espresso.org/quote

     Parallel version (MPI), running on    32 processors
     R & G space division:  proc/nbgrp/npool/nimage =      32
     Reading input from hollow.H2.Au535758.d.2.4.phi.0.psi.0.in
Warning: card &IONS ignored
Warning: card / ignored
Warning: card &CELL ignored
Warning: card / ignored

     Current dimensions of program PWSCF are:
     Max number of different atomic species (ntypx) = 10
     Max number of k-points (npk) =  40000
     Max angular momentum in pseudopotentials (lmaxx) =  3

     IMPORTANT: XC functional enforced from input :
     Exchange-correlation      = VDW-DF ( 1  4  4  0 1 0)
     Any further DFT definition will be discarded
     Please, verify this is what you really want


     Subspace diagonalization in iterative solution of the eigenvalue problem:
     a serial algorithm will be used


     Parallelization info
     --------------------
     sticks:   dense  smooth     PW     G-vecs:    dense   smooth      PW
     Min         445     223     58                96775    34191    4534
     Max         446     224     59                96790    34246    4540
     Sum       14269    7147   1867              3097177  1095093  145167


     Title: 
     hollow.H2.Au535758.d.2.4.phi.0.psi.0                                       


     bravais-lattice index     =            4
     lattice parameter (alat)  =      22.7436  a.u.
     unit-cell volume          =   22924.1508 (a.u.)^3
     number of atoms/cell      =           67
     number of atomic types    =            3
     number of electrons       =       712.00
     number of Kohn-Sham states=          427
     kinetic-energy cutoff     =      50.0000  Ry
     charge density cutoff     =     400.0000  Ry
     convergence threshold     =      1.0E-08
     mixing beta               =       0.7000
     number of iterations used =            8  plain     mixing
     Exchange-correlation      = VDW-DF ( 1  4  4  0 1 0)

     celldm(1)=  22.743643  celldm(2)=   0.000000  celldm(3)=   2.250000
     celldm(4)=   0.000000  celldm(5)=   0.000000  celldm(6)=   0.000000

     crystal axes: (cart. coord. in units of alat)
               a(1) = (   1.000000   0.000000   0.000000 )  
               a(2) = (  -0.500000   0.866025   0.000000 )  
               a(3) = (   0.000000   0.000000   2.250000 )  

     reciprocal axes: (cart. coord. in units 2 pi/alat)
               b(1) = (  1.000000  0.577350 -0.000000 )  
               b(2) = (  0.000000  1.154701  0.000000 )  
               b(3) = (  0.000000 -0.000000  0.444444 )  


     PseudoPot. # 1 for Au read from file:
     /home/scc/andrejb/qe/pseudo/Au.pbe-nd-van.UPF
     MD5 check sum: 458681b50f36d87ef23c61b04bba420a
     Pseudo is Ultrasoft + core correction, Zval = 11.0
     Generated by new atomic code, or converted to UPF format
     Using radial grid of  985 points,  3 beta functions with: 
                l(1) =   1
                l(2) =   2
                l(3) =   2
     Q(r) pseudized with  8 coefficients,  rinner =    1.100   1.100   1.100
                                                       1.100   1.100

     PseudoPot. # 2 for H  read from file:
     /home/scc/andrejb/qe/pseudo/H.pbe-van_ak.UPF
     MD5 check sum: 403db7282739603aa925980fa9b8608d
     Pseudo is Ultrasoft, Zval =  1.0
     Generated by new atomic code, or converted to UPF format
     Using radial grid of  615 points,  1 beta functions with: 
                l(1) =   0
     Q(r) pseudized with  8 coefficients,  rinner =    0.800

     PseudoPot. # 3 for O  read from file:
     /home/scc/andrejb/qe/pseudo/O.pbe-van_ak.UPF
     MD5 check sum: 4b8c549914a63cae506c6ff22b5af4fe
     Pseudo is Ultrasoft, Zval =  6.0
     Generated by new atomic code, or converted to UPF format
     Using radial grid of  737 points,  4 beta functions with: 
                l(1) =   0
                l(2) =   0
                l(3) =   1
                l(4) =   1
     Q(r) pseudized with  8 coefficients,  rinner =    0.800   0.800   0.800


     vdW kernel table read from file vdW_kernel_table
     MD5 check sum: 48e77a2e26edf626eeb0eaa751ad5cac

     atomic species   valence    mass     pseudopotential
        Au            11.00   196.96657     Au( 1.00)
        H              1.00     1.01000     H ( 1.00)
        O              6.00    16.00000     O ( 1.00)

     No symmetry found



   Cartesian axes

     site n.     atom                  positions (alat units)
         1           O   tau(   1) = (  -0.0023868   0.5565005   0.8896927  )
         2           H   tau(   2) = (  -0.0208375   0.5411347   0.8124178  )
         3           H   tau(   3) = (  -0.0552361   0.5125063   0.9323214  )
         4           Au  tau(   4) = (   0.3540481   0.6132292   0.0000000  )
         5           Au  tau(   5) = (   0.4790062   0.3967954   0.0000000  )
         6           Au  tau(   6) = (   0.6039644   0.1803616   0.0000000  )
         7           Au  tau(   7) = (   0.7289225  -0.0360723   0.0000000  )
         8           Au  tau(   8) = (   0.1041318   0.6132292   0.0000000  )
         9           Au  tau(   9) = (   0.2290899   0.3967954   0.0000000  )
        10           Au  tau(  10) = (   0.3540481   0.1803616   0.0000000  )
        11           Au  tau(  11) = (   0.4790062  -0.0360723   0.0000000  )
        12           Au  tau(  12) = (  -0.1457845   0.6132292   0.0000000  )
        13           Au  tau(  13) = (  -0.0208264   0.3967954   0.0000000  )
        14           Au  tau(  14) = (   0.1041318   0.1803616   0.0000000  )
        15           Au  tau(  15) = (   0.2290899  -0.0360723   0.0000000  )
        16           Au  tau(  16) = (  -0.3957008   0.6132292   0.0000000  )
        17           Au  tau(  17) = (  -0.2707426   0.3967954   0.0000000  )
        18           Au  tau(  18) = (  -0.1457845   0.1803616   0.0000000  )
        19           Au  tau(  19) = (  -0.0208264  -0.0360723   0.0000000  )
        20           Au  tau(  20) = (   0.4790062   0.6853738   0.2040557  )
        21           Au  tau(  21) = (   0.6039644   0.4689400   0.2040557  )
        22           Au  tau(  22) = (   0.7289225   0.2525061   0.2040557  )
        23           Au  tau(  23) = (   0.8538806   0.0360723   0.2040557  )
        24           Au  tau(  24) = (   0.2290899   0.6853738   0.2040557  )
        25           Au  tau(  25) = (   0.3540481   0.4689400   0.2040557  )
        26           Au  tau(  26) = (   0.4790062   0.2525061   0.2040557  )
        27           Au  tau(  27) = (   0.6039644   0.0360723   0.2040557  )
        28           Au  tau(  28) = (  -0.0208264   0.6853738   0.2040557  )
        29           Au  tau(  29) = (   0.1041318   0.4689400   0.2040557  )
        30           Au  tau(  30) = (   0.2290899   0.2525061   0.2040557  )
        31           Au  tau(  31) = (   0.3540481   0.0360723   0.2040557  )
        32           Au  tau(  32) = (  -0.2707426   0.6853738   0.2040557  )
        33           Au  tau(  33) = (  -0.1457845   0.4689400   0.2040557  )
        34           Au  tau(  34) = (  -0.0208264   0.2525061   0.2040557  )
        35           Au  tau(  35) = (   0.1041318   0.0360723   0.2040557  )
        36           Au  tau(  36) = (   0.3541162   0.7576593   0.4066483  )
        37           Au  tau(  37) = (   0.4791000   0.5411421   0.4066695  )
        38           Au  tau(  38) = (   0.6040570   0.3246862   0.4066617  )
        39           Au  tau(  39) = (   0.7290270   0.1081684   0.4066529  )
        40           Au  tau(  40) = (   0.1041162   0.7576236   0.4066247  )
        41           Au  tau(  41) = (   0.2291001   0.5411063   0.4066455  )
        42           Au  tau(  42) = (   0.3540567   0.3246505   0.4066380  )
        43           Au  tau(  43) = (   0.4790276   0.1081324   0.4066292  )
        44           Au  tau(  44) = (  -0.1458201   0.7576104   0.4066224  )
        45           Au  tau(  45) = (  -0.0208365   0.5410930   0.4066438  )
        46           Au  tau(  46) = (   0.1041202   0.3246372   0.4066359  )
        47           Au  tau(  47) = (   0.2290908   0.1081193   0.4066273  )
        48           Au  tau(  48) = (  -0.3958167   0.7575791   0.4065812  )
        49           Au  tau(  49) = (  -0.2708328   0.5410617   0.4066025  )
        50           Au  tau(  50) = (  -0.1458763   0.3246061   0.4065947  )
        51           Au  tau(  51) = (  -0.0209056   0.1080882   0.4065858  )
        52           Au  tau(  52) = (   0.3541085   0.6133344   0.6129762  )
        53           Au  tau(  53) = (   0.4790780   0.3968269   0.6129968  )
        54           Au  tau(  54) = (   0.6040356   0.1803811   0.6129859  )
        55           Au  tau(  55) = (   0.7290165  -0.0361221   0.6129385  )
        56           Au  tau(  56) = (   0.1041243   0.6133091   0.6130022  )
        57           Au  tau(  57) = (   0.2290941   0.3968013   0.6130241  )
        58           Au  tau(  58) = (   0.3540515   0.1803552   0.6130121  )
        59           Au  tau(  59) = (   0.4790323  -0.0361475   0.6129659  )
        60           Au  tau(  60) = (  -0.1458030   0.6133014   0.6129980  )
        61           Au  tau(  61) = (  -0.0208339   0.3967936   0.6130188  )
        62           Au  tau(  62) = (   0.1041239   0.1803477   0.6130083  )
        63           Au  tau(  63) = (   0.2291046  -0.0361554   0.6129607  )
        64           Au  tau(  64) = (  -0.3957908   0.6132739   0.6129471  )
        65           Au  tau(  65) = (  -0.2708208   0.3967658   0.6129688  )
        66           Au  tau(  66) = (  -0.1458636   0.1803200   0.6129569  )
        67           Au  tau(  67) = (  -0.0208823  -0.0361826   0.6129110  )

     number of k points=    12  Marzari-Vanderbilt smearing, width (Ry)=  0.0200
                       cart. coord. in units 2pi/alat
        k(    1) = (   0.2500000   0.4330127   0.1111111), wk =   0.1666667
        k(    2) = (   0.2500000  -0.1443376   0.1111111), wk =   0.1666667
        k(    3) = (  -0.2500000  -0.4330127   0.1111111), wk =   0.1666667
        k(    4) = (  -0.2500000   0.4330127  -0.1111111), wk =   0.1666667
        k(    5) = (   0.2500000  -0.4330127  -0.1111111), wk =   0.1666667
        k(    6) = (   0.5000000   0.0000000   0.1111111), wk =   0.1666667
        k(    7) = (  -0.5000000   0.0000000   0.1111111), wk =   0.1666667
        k(    8) = (  -0.2500000   0.1443376   0.1111111), wk =   0.1666667
        k(    9) = (  -0.2500000  -0.1443376  -0.1111111), wk =   0.1666667
        k(   10) = (   0.2500000   0.1443376  -0.1111111), wk =   0.1666667
        k(   11) = (   0.0000000  -0.2886751   0.1111111), wk =   0.1666667
        k(   12) = (   0.0000000   0.2886751   0.1111111), wk =   0.1666667

     Dense  grid:  3097177 G-vectors     FFT dimensions: ( 150, 150, 360)

     Smooth grid:  1095093 G-vectors     FFT dimensions: ( 108, 108, 240)

     Largest allocated arrays     est. size (Mb)     dimensions
        Kohn-Sham Wavefunctions        28.01 Mb     (    4299,  427)
        NL pseudopotentials            55.23 Mb     (    4299,  842)
        Each V/rho on FFT grid          4.12 Mb     (  270000)
        Each G-vector array             0.74 Mb     (   96788)
        G-vector shells                 0.16 Mb     (   21404)
     Largest temporary arrays     est. size (Mb)     dimensions
        Auxiliary wavefunctions       112.04 Mb     (    4299, 1708)
        Each subspace H/S matrix       44.51 Mb     (    1708, 1708)
        Each <psi_i|beta_j> matrix      5.49 Mb     (     842,  427)
        Arrays for rho mixing          32.96 Mb     (  270000,    8)

     Initial potential from superposition of free atoms
     Check: negative starting charge=   -1.730252

     starting charge  711.25682, renormalised to  712.00000

     negative rho (up, down):  1.732E+00 0.000E+00


     ************************************************************************
     *
     * You are using vdW-DF for exchange-correlation in this calculation.
     * Please cite the following three references that made this development
     * possible:
     *
     *   M. Dion, H. Rydberg, E. Schroder, D. C. Langreth, and
     *   B. I. Lundqvist, Phys. Rev. Lett. 92, 246401 (2004).
     *
     *   T. Thonhauser, V. R. Cooper, S. Li, A. Puzder, P. Hyldgaard, and
     *   D. C. Langreth, Phys. Rev. B 76, 125112 (2007).
     *
     *   G. Roman-Perez and J. M. Soler, Phys. Rev. Lett. 103, 096102 (2009).
     *
     *
     * If you are using vdW-DF2, please also cite:
     *
     *   K. Lee, E. D. Murray, L. Kong, B. I. Lundqvist, and
     *   D. C. Langreth, Phys. Rev. B 82, 081101(R) (2010).
     *
     *
     * If you are calculating the stress with vdW-DF, please also cite:
     *
     *   R. Sabatini, E. Kucukbenli, B. Kolb, T. Thonhauser, and
     *   S. de Gironcoli, J. Phys.: Condens. Matter 24, 424209 (2012).
     *
     ************************************************************************

     Carrying out vdW-DF run using the following parameters:

     Nqs =      20    Nr_points =    1024   r_max =   100.000
     q_mesh =
               0.00001000     0.04494208     0.09755937     0.15916263
               0.23128650     0.31572767     0.41458969     0.53033537
               0.66584808     0.82450364     1.01025438     1.22772762
               1.48234092     1.78043706     2.12944203     2.53805004
               3.01644009     3.57652955     4.23227104     5.00000000

     Gradients computed in reciprocal space

     ************************************************************************


     Starting wfc are  582 randomized atomic wfcs

     total cpu time spent up to now is      159.9 secs

     Self-consistent Calculation

     iteration #  1     ecut=    50.00 Ry     beta=0.70
     Davidson diagonalization with overlap
     ethr =  1.00E-02,  avg # of iterations =  3.0

     Threshold (ethr) on eigenvalues was too large:
     Diagonalizing with lowered threshold

     Davidson diagonalization with overlap
     ethr =  3.45E-04,  avg # of iterations =  4.2

     negative rho (up, down):  1.727E+00 0.000E+00

     total cpu time spent up to now is      797.0 secs

     total energy              =   -6602.80297185 Ry
     Harris-Foulkes estimate   =   -6605.03220001 Ry
     estimated scf accuracy    <       2.79597941 Ry

     iteration #  2     ecut=    50.00 Ry     beta=0.70
     Davidson diagonalization with overlap
     ethr =  3.93E-04,  avg # of iterations = 11.4

     negative rho (up, down):  1.727E+00 0.000E+00

     total cpu time spent up to now is     1756.0 secs

     total energy              =   -6596.95948791 Ry
     Harris-Foulkes estimate   =   -6610.05211519 Ry
     estimated scf accuracy    <      72.15135513 Ry

     iteration #  3     ecut=    50.00 Ry     beta=0.70
     Davidson diagonalization with overlap
     ethr =  3.93E-04,  avg # of iterations =  6.5

     negative rho (up, down):  1.737E+00 0.000E+00

     total cpu time spent up to now is     2425.0 secs

     total energy              =   -6603.14465584 Ry
     Harris-Foulkes estimate   =   -6605.01863103 Ry
     estimated scf accuracy    <       8.59228981 Ry

     iteration #  4     ecut=    50.00 Ry     beta=0.70
     Davidson diagonalization with overlap
     ethr =  3.93E-04,  avg # of iterations =  7.0

     negative rho (up, down):  1.739E+00 0.000E+00

     total cpu time spent up to now is     2817.2 secs

     total energy              =   -6603.61030097 Ry
     Harris-Foulkes estimate   =   -6605.08228677 Ry
     estimated scf accuracy    <      12.88911787 Ry

     iteration #  5     ecut=    50.00 Ry     beta=0.70
     Davidson diagonalization with overlap
     ethr =  3.93E-04,  avg # of iterations =  7.0

     negative rho (up, down):  1.748E+00 0.000E+00

     total cpu time spent up to now is     3205.4 secs

     total energy              =   -6604.30078654 Ry
     Harris-Foulkes estimate   =   -6604.65589659 Ry
     estimated scf accuracy    <       2.70384823 Ry

     iteration #  6     ecut=    50.00 Ry     beta=0.70
     Davidson diagonalization with overlap
     ethr =  3.80E-04,  avg # of iterations =  2.5

     negative rho (up, down):  1.753E+00 0.000E+00

     total cpu time spent up to now is     3491.4 secs

     total energy              =   -6604.42919215 Ry
     Harris-Foulkes estimate   =   -6604.47096217 Ry
     estimated scf accuracy    <       0.13117638 Ry

     iteration #  7     ecut=    50.00 Ry     beta=0.70
     Davidson diagonalization with overlap
     ethr =  1.84E-05,  avg # of iterations = 11.7

     negative rho (up, down):  1.755E+00 0.000E+00

     total cpu time spent up to now is     3997.9 secs

     total energy              =   -6604.43354071 Ry
     Harris-Foulkes estimate   =   -6604.46081324 Ry
     estimated scf accuracy    <       0.11994273 Ry

     iteration #  8     ecut=    50.00 Ry     beta=0.70
     Davidson diagonalization with overlap
     ethr =  1.68E-05,  avg # of iterations =  3.4

     negative rho (up, down):  1.756E+00 0.000E+00

     total cpu time spent up to now is     4303.8 secs

     total energy              =   -6604.43598626 Ry
     Harris-Foulkes estimate   =   -6604.44928484 Ry
     estimated scf accuracy    <       0.05124378 Ry

     iteration #  9     ecut=    50.00 Ry     beta=0.70
     Davidson diagonalization with overlap
     ethr =  7.20E-06,  avg # of iterations =  5.0

     negative rho (up, down):  1.756E+00 0.000E+00

     total cpu time spent up to now is     4642.4 secs

     total energy              =   -6604.43536150 Ry
     Harris-Foulkes estimate   =   -6604.44180256 Ry
     estimated scf accuracy    <       0.02351554 Ry

     iteration # 10     ecut=    50.00 Ry     beta=0.70
     Davidson diagonalization with overlap
     ethr =  3.30E-06,  avg # of iterations =  5.2

     negative rho (up, down):  1.757E+00 0.000E+00

     total cpu time spent up to now is     4984.8 secs

     total energy              =   -6604.43460878 Ry
     Harris-Foulkes estimate   =   -6604.43772831 Ry
     estimated scf accuracy    <       0.01105448 Ry

     iteration # 11     ecut=    50.00 Ry     beta=0.70
     Davidson diagonalization with overlap
     ethr =  1.55E-06,  avg # of iterations =  5.3

     negative rho (up, down):  1.758E+00 0.000E+00

     total cpu time spent up to now is     5334.8 secs

     total energy              =   -6604.43432826 Ry
     Harris-Foulkes estimate   =   -6604.43578896 Ry
     estimated scf accuracy    <       0.00583431 Ry

     iteration # 12     ecut=    50.00 Ry     beta=0.70
     Davidson diagonalization with overlap
     ethr =  8.19E-07,  avg # of iterations =  3.7

     negative rho (up, down):  1.758E+00 0.000E+00

     total cpu time spent up to now is     5642.0 secs

     total energy              =   -6604.43390590 Ry
     Harris-Foulkes estimate   =   -6604.43482545 Ry
     estimated scf accuracy    <       0.00155318 Ry

     iteration # 13     ecut=    50.00 Ry     beta=0.70
     Davidson diagonalization with overlap
     ethr =  2.18E-07,  avg # of iterations =  9.1

     negative rho (up, down):  1.758E+00 0.000E+00

     total cpu time spent up to now is     6080.0 secs

     total energy              =   -6604.43414066 Ry
     Harris-Foulkes estimate   =   -6604.43432111 Ry
     estimated scf accuracy    <       0.00049793 Ry

     iteration # 14     ecut=    50.00 Ry     beta=0.70
     Davidson diagonalization with overlap
     ethr =  6.99E-08,  avg # of iterations =  2.7

     negative rho (up, down):  1.758E+00 0.000E+00

     total cpu time spent up to now is     6378.0 secs

     total energy              =   -6604.43420564 Ry
     Harris-Foulkes estimate   =   -6604.43428839 Ry
     estimated scf accuracy    <       0.00033026 Ry

     iteration # 15     ecut=    50.00 Ry     beta=0.70
     Davidson diagonalization with overlap
     ethr =  4.64E-08,  avg # of iterations =  2.0

     negative rho (up, down):  1.758E+00 0.000E+00

     total cpu time spent up to now is     6660.1 secs

     total energy              =   -6604.43423736 Ry
     Harris-Foulkes estimate   =   -6604.43426688 Ry
     estimated scf accuracy    <       0.00011431 Ry

     iteration # 16     ecut=    50.00 Ry     beta=0.70
     Davidson diagonalization with overlap
     ethr =  1.61E-08,  avg # of iterations =  2.0

     negative rho (up, down):  1.758E+00 0.000E+00

     total cpu time spent up to now is     6939.6 secs

     total energy              =   -6604.43424287 Ry
     Harris-Foulkes estimate   =   -6604.43425882 Ry
     estimated scf accuracy    <       0.00010284 Ry

     iteration # 17     ecut=    50.00 Ry     beta=0.70
     Davidson diagonalization with overlap
     ethr =  1.44E-08,  avg # of iterations =  1.0

     negative rho (up, down):  1.758E+00 0.000E+00

     total cpu time spent up to now is     7215.3 secs

     total energy              =   -6604.43425001 Ry
     Harris-Foulkes estimate   =   -6604.43425757 Ry
     estimated scf accuracy    <       0.00007433 Ry

     iteration # 18     ecut=    50.00 Ry     beta=0.70
     Davidson diagonalization with overlap
     ethr =  1.04E-08,  avg # of iterations =  1.0

     negative rho (up, down):  1.758E+00 0.000E+00

     total cpu time spent up to now is     7488.4 secs

     total energy              =   -6604.43425289 Ry
     Harris-Foulkes estimate   =   -6604.43425493 Ry
     estimated scf accuracy    <       0.00000662 Ry

     iteration # 19     ecut=    50.00 Ry     beta=0.70
     Davidson diagonalization with overlap
     ethr =  9.30E-10,  avg # of iterations =  2.0

     negative rho (up, down):  1.758E+00 0.000E+00

     total cpu time spent up to now is     7778.7 secs

     total energy              =   -6604.43425385 Ry
     Harris-Foulkes estimate   =   -6604.43425446 Ry
     estimated scf accuracy    <       0.00000273 Ry

     iteration # 20     ecut=    50.00 Ry     beta=0.70
     Davidson diagonalization with overlap
     ethr =  3.83E-10,  avg # of iterations =  2.0

     negative rho (up, down):  1.757E+00 0.000E+00

     total cpu time spent up to now is     8073.1 secs

     total energy              =   -6604.43425424 Ry
     Harris-Foulkes estimate   =   -6604.43425426 Ry
     estimated scf accuracy    <       0.00000022 Ry

     iteration # 21     ecut=    50.00 Ry     beta=0.70
     Davidson diagonalization with overlap
     ethr =  3.07E-11,  avg # of iterations =  3.0

     negative rho (up, down):  1.757E+00 0.000E+00

     total cpu time spent up to now is     8436.5 secs

     total energy              =   -6604.43425429 Ry
     Harris-Foulkes estimate   =   -6604.43425433 Ry
     estimated scf accuracy    <       0.00000023 Ry

     iteration # 22     ecut=    50.00 Ry     beta=0.70
     Davidson diagonalization with overlap
     ethr =  3.07E-11,  avg # of iterations =  2.0

     negative rho (up, down):  1.757E+00 0.000E+00

     total cpu time spent up to now is     8720.6 secs

     total energy              =   -6604.43425432 Ry
     Harris-Foulkes estimate   =   -6604.43425432 Ry
     estimated scf accuracy    <       0.00000001 Ry

     iteration # 23     ecut=    50.00 Ry     beta=0.70
     Davidson diagonalization with overlap
     ethr =  1.79E-12,  avg # of iterations =  4.0

     negative rho (up, down):  1.757E+00 0.000E+00

     total cpu time spent up to now is     9154.1 secs

     total energy              =   -6604.43425432 Ry
     Harris-Foulkes estimate   =   -6604.43425432 Ry
     estimated scf accuracy    <       0.00000001 Ry

     iteration # 24     ecut=    50.00 Ry     beta=0.70
     Davidson diagonalization with overlap
     ethr =  1.79E-12,  avg # of iterations =  3.0

     negative rho (up, down):  1.757E+00 0.000E+00

     total cpu time spent up to now is     9477.5 secs

     total energy              =   -6604.43425432 Ry
     Harris-Foulkes estimate   =   -6604.43425433 Ry
     estimated scf accuracy    <       0.00000002 Ry

     iteration # 25     ecut=    50.00 Ry     beta=0.70
     Davidson diagonalization with overlap
     ethr =  1.79E-12,  avg # of iterations =  2.0

     negative rho (up, down):  1.757E+00 0.000E+00

     total cpu time spent up to now is     9752.9 secs

     End of self-consistent calculation

          k = 0.2500 0.4330 0.1111 (136853 PWs)   bands (ev):

   -18.5726  -6.4520  -6.3888  -5.9965  -5.9959  -5.3182  -4.9856  -4.9853
    -4.9466  -4.9451  -4.5854  -4.5850  -4.4866  -4.4864  -4.4725  -4.4501
    -4.4262  -4.3192  -4.3185  -4.2947  -4.2515  -4.2511  -4.1827  -4.1822
    -4.1757  -4.1751  -4.1542  -4.1486  -4.1476  -4.0785  -4.0743  -4.0460
    -4.0456  -4.0338  -4.0335  -4.0103  -4.0102  -3.9877  -3.9793  -3.9792
    -3.9528  -3.9005  -3.9004  -3.8525  -3.8521  -3.7941  -3.7932  -3.7388
    -3.7385  -3.7382  -3.7379  -3.7024  -3.6648  -3.6640  -3.6568  -3.6557
    -3.6554  -3.6267  -3.6239  -3.6160  -3.5555  -3.5547  -3.5462  -3.5285
    -3.5212  -3.4491  -3.4484  -3.4173  -3.4142  -3.3881  -3.3870  -3.3736
    -3.3570  -3.2978  -3.2970  -3.2798  -3.2791  -3.2282  -3.2232  -3.2225
    -3.1839  -3.1542  -3.1520  -3.1443  -3.1438  -3.1314  -3.1307  -3.1233
    -3.1225  -3.1131  -3.0721  -3.0343  -3.0335  -3.0203  -3.0195  -2.9930
    -2.9847  -2.9834  -2.9625  -2.9181  -2.9168  -2.9087  -2.8697  -2.8622
    -2.8510  -2.8504  -2.8253  -2.8205  -2.7921  -2.7597  -2.7542  -2.7338
    -2.7247  -2.7163  -2.7102  -2.6746  -2.6598  -2.6485  -2.6248  -2.6043
    -2.6025  -2.5799  -2.5765  -2.5689  -2.5678  -2.5578  -2.5354  -2.5342
    -2.4903  -2.4898  -2.4888  -2.4727  -2.4719  -2.4662  -2.4577  -2.4552
    -2.4545  -2.4536  -2.4483  -2.4367  -2.4353  -2.4260  -2.3993  -2.3986
    -2.3976  -2.3960  -2.3949  -2.3927  -2.3922  -2.3645  -2.3627  -2.3483
    -2.3475  -2.3300  -2.3297  -2.3203  -2.3197  -2.3182  -2.3175  -2.2990
    -2.2972  -2.2962  -2.2951  -2.2795  -2.2527  -2.2525  -2.2124  -2.2120
    -2.1877  -2.1869  -2.1600  -2.1592  -2.1318  -2.1312  -2.1140  -2.1099
    -2.0827  -2.0618  -2.0603  -2.0555  -2.0539  -2.0509  -2.0435  -2.0421
    -2.0165  -2.0108  -2.0020  -1.9436  -1.9405  -1.9389  -1.9363  -1.9358
    -1.9010  -1.8809  -1.8802  -1.8531  -1.8520  -1.7932  -1.7920  -1.7628
    -1.7449  -1.7440  -1.6835  -1.6833  -1.6720  -1.6708  -1.6610  -1.6594
    -1.6564  -1.6477  -1.6461  -1.5913  -1.5905  -1.5798  -1.5785  -1.5777
    -1.5604  -1.5575  -1.5233  -1.5231  -1.5064  -1.5062  -1.5051  -1.4985
    -1.4933  -1.4857  -1.4828  -1.4650  -1.4643  -1.4240  -1.4224  -1.4124
    -1.4098  -1.3911  -1.3767  -1.3354  -1.3330  -1.3074  -1.3031  -1.3024
    -1.2733  -1.2225  -1.2212  -1.2201  -1.2194  -1.2151  -1.2132  -1.2043
    -1.1864  -1.1847  -1.1468  -1.1437  -1.1152  -1.1135  -1.1091  -1.1083
    -1.1010  -1.0853  -1.0847  -1.0832  -1.0804  -1.0794  -1.0429  -1.0420
    -1.0405  -1.0396  -1.0104  -1.0093  -1.0053  -0.9810  -0.9748  -0.9730
    -0.9271  -0.9205  -0.9182  -0.8848  -0.8763  -0.8658  -0.8650  -0.8589
    -0.8568  -0.8560  -0.8544  -0.8439  -0.8429  -0.8184  -0.8174  -0.8139
    -0.8122  -0.8117  -0.7751  -0.7743  -0.7688  -0.7642  -0.7481  -0.7415
    -0.7399  -0.7286  -0.6829  -0.6724  -0.6674  -0.6622  -0.6614  -0.6598
    -0.6559  -0.6389  -0.6347  -0.6299  -0.6263  -0.6248  -0.6242  -0.5928
    -0.5843  -0.5827  -0.5789  -0.5735  -0.5701  -0.5671  -0.5662  -0.5556
    -0.5481  -0.5471  -0.5340  -0.5052  -0.5042  -0.4962  -0.4926  -0.4917
    -0.4162  -0.4140  -0.4120  -0.4113  -0.4029  -0.4007  -0.3660  -0.3538
    -0.3531  -0.3238  -0.3212  -0.3200  -0.2017  -0.1979  -0.0979   0.3177
     0.3183   0.3212   0.3216   0.3824   0.3860   0.7694   0.7721   0.8131
     0.8144   0.9254   1.0030   1.1120   1.1171   1.3364   1.3412   1.9670
     1.9700   2.1285   2.1327   2.2629   2.2665   2.3668   2.3671   2.5211
     2.7580   2.7709   2.8824   3.1049   3.1110   3.1892   3.1909   3.2894
     3.3062   3.5052   3.5166   3.5616   3.7625   3.7643   3.8261   3.8283
     4.0823   4.0897   4.0937   4.3333   4.3728   4.3761   4.4207   4.7548
     4.7592   4.7864   4.9219   5.0930   5.0952   5.1507   5.1765   5.5137
     5.7989   5.8803   5.8855   5.8923   5.9176   5.9560   5.9585   6.0523
     6.0682   6.0890   6.1131   6.1239   6.1261   6.1533   6.1572   6.1780
     6.1817   6.4397   6.5860   6.7263   6.7499   6.7772   6.8324   6.8356
     6.8386   6.9468   7.0291

          k = 0.2500-0.1443 0.1111 (136898 PWs)   bands (ev):

   -18.5726  -6.6091  -6.4411  -5.8138  -5.5218  -5.4639  -5.4635  -4.9255
    -4.9253  -4.7935  -4.7932  -4.6380  -4.6083  -4.5458  -4.5127  -4.5115
    -4.4789  -4.4786  -4.3502  -4.3086  -4.3082  -4.2485  -4.2277  -4.2271
    -4.1250  -4.1249  -4.0887  -4.0885  -4.0884  -4.0617  -4.0400  -4.0398
    -3.9357  -3.9329  -3.9326  -3.9124  -3.8952  -3.8951  -3.8833  -3.8826
    -3.8699  -3.8397  -3.8393  -3.8390  -3.8388  -3.8070  -3.8062  -3.7886
    -3.7885  -3.7756  -3.7327  -3.7319  -3.7006  -3.6866  -3.6846  -3.6802
    -3.6801  -3.6057  -3.6056  -3.5711  -3.5686  -3.5676  -3.5002  -3.5000
    -3.4848  -3.4844  -3.4545  -3.4534  -3.4530  -3.4528  -3.2992  -3.2985
    -3.2745  -3.2736  -3.2687  -3.2524  -3.2519  -3.2269  -3.2262  -3.1768
    -3.1761  -3.1606  -3.1597  -3.1395  -3.0918  -3.0914  -3.0718  -3.0666
    -3.0662  -3.0261  -3.0253  -3.0189  -3.0181  -3.0028  -3.0017  -2.9630
    -2.9626  -2.9428  -2.9404  -2.9378  -2.9372  -2.9341  -2.8598  -2.8571
    -2.8556  -2.8272  -2.8262  -2.7697  -2.7646  -2.7380  -2.7361  -2.7226
    -2.7220  -2.7168  -2.6955  -2.6868  -2.6771  -2.6718  -2.6561  -2.6344
    -2.6337  -2.6227  -2.6127  -2.6091  -2.6013  -2.5995  -2.5976  -2.5938
    -2.5892  -2.5434  -2.5112  -2.5107  -2.4953  -2.4816  -2.4755  -2.4742
    -2.4679  -2.4670  -2.4655  -2.4361  -2.4355  -2.4345  -2.4259  -2.4256
    -2.4089  -2.3810  -2.3805  -2.3801  -2.3795  -2.3793  -2.3337  -2.3027
    -2.3020  -2.3017  -2.2951  -2.2861  -2.2733  -2.2727  -2.2564  -2.2563
    -2.2245  -2.2214  -2.2212  -2.2027  -2.2016  -2.2009  -2.1685  -2.1678
    -2.1290  -2.1257  -2.1200  -2.1175  -2.1170  -2.1109  -2.1106  -2.1076
    -2.1069  -2.1014  -2.1002  -2.0843  -2.0832  -1.9579  -1.9560  -1.9241
    -1.9182  -1.9173  -1.9119  -1.9117  -1.8950  -1.8940  -1.8915  -1.8910
    -1.8893  -1.8666  -1.8597  -1.8583  -1.8530  -1.8466  -1.8461  -1.8235
    -1.8231  -1.7948  -1.7945  -1.7635  -1.7626  -1.7523  -1.7440  -1.7265
    -1.7255  -1.7230  -1.7052  -1.6920  -1.6919  -1.6847  -1.6844  -1.6586
    -1.6580  -1.6412  -1.6406  -1.6081  -1.6077  -1.5986  -1.5487  -1.5482
    -1.5357  -1.5340  -1.5337  -1.5090  -1.5064  -1.4739  -1.4726  -1.4723
    -1.4387  -1.4289  -1.4279  -1.4127  -1.4120  -1.3868  -1.3845  -1.3841
    -1.3549  -1.3523  -1.3518  -1.2898  -1.2887  -1.2772  -1.2751  -1.2598
    -1.2596  -1.2467  -1.2464  -1.2285  -1.2157  -1.1881  -1.1878  -1.1764
    -1.1483  -1.1385  -1.1372  -1.1259  -1.1258  -1.1242  -1.1204  -1.1180
    -1.1047  -1.0752  -1.0748  -1.0639  -1.0618  -1.0607  -1.0596  -1.0379
    -1.0212  -1.0173  -0.9992  -0.9965  -0.9051  -0.8916  -0.8864  -0.8856
    -0.8826  -0.8765  -0.8760  -0.8584  -0.8516  -0.8365  -0.8343  -0.8211
    -0.8207  -0.8117  -0.7920  -0.7910  -0.7886  -0.7808  -0.7090  -0.7081
    -0.6877  -0.6735  -0.6700  -0.6663  -0.6621  -0.6614  -0.6609  -0.6492
    -0.6479  -0.6326  -0.6145  -0.6067  -0.5781  -0.5725  -0.5714  -0.5609
    -0.5563  -0.5485  -0.5479  -0.5460  -0.5448  -0.5372  -0.5281  -0.5235
    -0.5202  -0.4930  -0.4915  -0.4897  -0.4790  -0.4783  -0.4595  -0.4274
    -0.4263  -0.4180  -0.4166  -0.3505  -0.3492  -0.3130  -0.3126  -0.2547
    -0.2540  -0.2533  -0.2389  -0.2265  -0.0005   0.0022   0.3464   0.3465
     0.4381   0.4410   0.6334   0.6488   0.6641   0.7941   0.7952   1.2266
     1.2268   1.2444   1.5056   1.5364   1.5369   1.8136   1.8190   1.8920
     1.8926   1.9191   1.9227   2.1480   2.1495   2.2375   2.2383   2.3164
     2.3768   2.3815   2.5409   2.6407   3.0766   3.0801   3.0833   3.0846
     3.1362   3.1392   3.4298   3.4312   3.7111   3.7163   3.8248   4.1264
     4.1673   4.1714   4.3896   4.4103   4.4695   4.4717   4.5625   4.6797
     4.6810   4.7964   4.7982   5.1014   5.1688   5.1734   5.3179   5.3597
     5.4308   5.5553   5.5593   5.5828   5.5865   5.6431   5.6500   5.7013
     5.8512   6.0544   6.2540   6.2768   6.3516   6.3900   6.3918   6.4037
     6.4063   6.5444   6.6360   6.6476   6.6563   6.8395   6.8794   6.9028
     6.9294   7.0088   7.1117

          k =-0.2500-0.4330 0.1111 (136853 PWs)   bands (ev):

   -18.5726  -6.4520  -6.3888  -5.9965  -5.9959  -5.3182  -4.9856  -4.9853
    -4.9466  -4.9451  -4.5854  -4.5850  -4.4866  -4.4864  -4.4725  -4.4501
    -4.4262  -4.3192  -4.3185  -4.2947  -4.2515  -4.2511  -4.1827  -4.1822
    -4.1757  -4.1751  -4.1542  -4.1486  -4.1476  -4.0785  -4.0743  -4.0460
    -4.0456  -4.0338  -4.0335  -4.0103  -4.0102  -3.9877  -3.9793  -3.9792
    -3.9528  -3.9005  -3.9004  -3.8525  -3.8521  -3.7941  -3.7932  -3.7388
    -3.7385  -3.7382  -3.7379  -3.7024  -3.6648  -3.6640  -3.6568  -3.6557
    -3.6554  -3.6267  -3.6239  -3.6160  -3.5555  -3.5547  -3.5462  -3.5285
    -3.5212  -3.4491  -3.4484  -3.4173  -3.4142  -3.3881  -3.3870  -3.3736
    -3.3570  -3.2978  -3.2970  -3.2798  -3.2791  -3.2282  -3.2232  -3.2225
    -3.1839  -3.1542  -3.1520  -3.1443  -3.1438  -3.1314  -3.1307  -3.1233
    -3.1225  -3.1131  -3.0721  -3.0343  -3.0335  -3.0203  -3.0195  -2.9930
    -2.9847  -2.9834  -2.9625  -2.9181  -2.9168  -2.9087  -2.8697  -2.8622
    -2.8510  -2.8504  -2.8253  -2.8205  -2.7921  -2.7597  -2.7542  -2.7338
    -2.7247  -2.7163  -2.7102  -2.6745  -2.6598  -2.6485  -2.6248  -2.6043
    -2.6024  -2.5799  -2.5765  -2.5689  -2.5678  -2.5578  -2.5354  -2.5342
    -2.4903  -2.4898  -2.4888  -2.4727  -2.4719  -2.4662  -2.4577  -2.4552
    -2.4545  -2.4536  -2.4483  -2.4367  -2.4353  -2.4260  -2.3993  -2.3986
    -2.3976  -2.3960  -2.3949  -2.3927  -2.3922  -2.3645  -2.3627  -2.3483
    -2.3475  -2.3300  -2.3297  -2.3203  -2.3197  -2.3182  -2.3175  -2.2990
    -2.2972  -2.2962  -2.2951  -2.2795  -2.2527  -2.2525  -2.2124  -2.2120
    -2.1877  -2.1869  -2.1600  -2.1592  -2.1318  -2.1312  -2.1140  -2.1099
    -2.0827  -2.0618  -2.0603  -2.0555  -2.0540  -2.0509  -2.0435  -2.0421
    -2.0165  -2.0108  -2.0020  -1.9436  -1.9405  -1.9389  -1.9363  -1.9358
    -1.9010  -1.8809  -1.8802  -1.8531  -1.8520  -1.7932  -1.7920  -1.7628
    -1.7449  -1.7440  -1.6835  -1.6833  -1.6720  -1.6708  -1.6610  -1.6594
    -1.6564  -1.6477  -1.6461  -1.5913  -1.5905  -1.5798  -1.5785  -1.5777
    -1.5604  -1.5575  -1.5233  -1.5231  -1.5064  -1.5062  -1.5051  -1.4985
    -1.4933  -1.4857  -1.4828  -1.4650  -1.4643  -1.4240  -1.4224  -1.4124
    -1.4098  -1.3911  -1.3767  -1.3354  -1.3330  -1.3074  -1.3031  -1.3024
    -1.2733  -1.2225  -1.2212  -1.2201  -1.2194  -1.2151  -1.2132  -1.2043
    -1.1864  -1.1847  -1.1468  -1.1437  -1.1152  -1.1135  -1.1091  -1.1083
    -1.1010  -1.0853  -1.0847  -1.0832  -1.0804  -1.0794  -1.0429  -1.0420
    -1.0405  -1.0396  -1.0104  -1.0093  -1.0053  -0.9810  -0.9748  -0.9730
    -0.9271  -0.9205  -0.9182  -0.8848  -0.8763  -0.8658  -0.8650  -0.8589
    -0.8568  -0.8560  -0.8544  -0.8439  -0.8429  -0.8184  -0.8174  -0.8139
    -0.8122  -0.8117  -0.7751  -0.7743  -0.7688  -0.7642  -0.7481  -0.7415
    -0.7399  -0.7286  -0.6829  -0.6724  -0.6674  -0.6622  -0.6614  -0.6598
    -0.6559  -0.6389  -0.6347  -0.6299  -0.6263  -0.6248  -0.6242  -0.5928
    -0.5843  -0.5827  -0.5789  -0.5735  -0.5701  -0.5671  -0.5662  -0.5556
    -0.5481  -0.5471  -0.5340  -0.5052  -0.5042  -0.4962  -0.4926  -0.4917
    -0.4162  -0.4140  -0.4120  -0.4113  -0.4029  -0.4007  -0.3660  -0.3538
    -0.3531  -0.3238  -0.3212  -0.3200  -0.2017  -0.1979  -0.0979   0.3177
     0.3183   0.3212   0.3216   0.3824   0.3860   0.7694   0.7721   0.8131
     0.8144   0.9254   1.0030   1.1120   1.1171   1.3364   1.3412   1.9670
     1.9700   2.1285   2.1327   2.2629   2.2665   2.3668   2.3671   2.5211
     2.7580   2.7709   2.8824   3.1049   3.1110   3.1892   3.1909   3.2894
     3.3062   3.5052   3.5166   3.5616   3.7625   3.7643   3.8261   3.8283
     4.0823   4.0897   4.0937   4.3333   4.3728   4.3761   4.4207   4.7548
     4.7592   4.7864   4.9219   5.0930   5.0952   5.1507   5.1765   5.5138
     5.7983   5.8803   5.8855   5.8923   5.9175   5.9560   5.9585   6.0520
     6.0682   6.0890   6.1142   6.1239   6.1274   6.1533   6.1572   6.1780
     6.1817   6.4410   6.5866   6.7098   6.7514   6.7768   6.8323   6.8353
     6.8382   6.9468   7.0361

          k =-0.2500 0.4330-0.1111 (136853 PWs)   bands (ev):

   -18.5726  -6.4520  -6.3888  -5.9972  -5.9953  -5.3182  -4.9862  -4.9847
    -4.9474  -4.9443  -4.5857  -4.5845  -4.4866  -4.4864  -4.4724  -4.4501
    -4.4262  -4.3200  -4.3180  -4.2948  -4.2514  -4.2512  -4.1827  -4.1820
    -4.1767  -4.1744  -4.1541  -4.1493  -4.1470  -4.0791  -4.0737  -4.0466
    -4.0448  -4.0338  -4.0334  -4.0103  -4.0102  -3.9878  -3.9795  -3.9791
    -3.9529  -3.9009  -3.9001  -3.8533  -3.8512  -3.7939  -3.7931  -3.7387
    -3.7384  -3.7383  -3.7375  -3.7026  -3.6649  -3.6638  -3.6569  -3.6560
    -3.6553  -3.6271  -3.6241  -3.6160  -3.5557  -3.5544  -3.5464  -3.5282
    -3.5210  -3.4500  -3.4480  -3.4178  -3.4139  -3.3884  -3.3864  -3.3736
    -3.3571  -3.2978  -3.2971  -3.2799  -3.2789  -3.2278  -3.2234  -3.2224
    -3.1837  -3.1539  -3.1524  -3.1448  -3.1433  -3.1319  -3.1309  -3.1230
    -3.1220  -3.1132  -3.0720  -3.0349  -3.0331  -3.0209  -3.0189  -2.9931
    -2.9858  -2.9828  -2.9625  -2.9185  -2.9164  -2.9084  -2.8693  -2.8621
    -2.8515  -2.8497  -2.8240  -2.8216  -2.7922  -2.7608  -2.7541  -2.7332
    -2.7249  -2.7178  -2.7101  -2.6736  -2.6599  -2.6482  -2.6242  -2.6043
    -2.6002  -2.5807  -2.5795  -2.5691  -2.5656  -2.5578  -2.5359  -2.5340
    -2.4904  -2.4893  -2.4889  -2.4732  -2.4714  -2.4663  -2.4574  -2.4551
    -2.4545  -2.4538  -2.4483  -2.4374  -2.4344  -2.4253  -2.3993  -2.3980
    -2.3974  -2.3959  -2.3957  -2.3930  -2.3916  -2.3653  -2.3628  -2.3487
    -2.3473  -2.3302  -2.3296  -2.3202  -2.3197  -2.3191  -2.3170  -2.2997
    -2.2969  -2.2961  -2.2947  -2.2797  -2.2532  -2.2524  -2.2133  -2.2112
    -2.1882  -2.1865  -2.1594  -2.1587  -2.1326  -2.1308  -2.1143  -2.1098
    -2.0825  -2.0623  -2.0605  -2.0551  -2.0538  -2.0506  -2.0436  -2.0421
    -2.0165  -2.0102  -2.0020  -1.9436  -1.9412  -1.9387  -1.9369  -1.9360
    -1.9008  -1.8815  -1.8795  -1.8538  -1.8517  -1.7936  -1.7914  -1.7636
    -1.7444  -1.7437  -1.6839  -1.6827  -1.6722  -1.6704  -1.6613  -1.6590
    -1.6565  -1.6480  -1.6459  -1.5914  -1.5895  -1.5806  -1.5785  -1.5775
    -1.5606  -1.5571  -1.5236  -1.5231  -1.5066  -1.5059  -1.5053  -1.4983
    -1.4942  -1.4861  -1.4824  -1.4655  -1.4635  -1.4242  -1.4219  -1.4124
    -1.4097  -1.3911  -1.3766  -1.3360  -1.3324  -1.3076  -1.3031  -1.3026
    -1.2734  -1.2221  -1.2212  -1.2206  -1.2194  -1.2147  -1.2129  -1.2040
    -1.1868  -1.1844  -1.1470  -1.1434  -1.1160  -1.1132  -1.1095  -1.1077
    -1.1009  -1.0864  -1.0846  -1.0834  -1.0799  -1.0796  -1.0440  -1.0410
    -1.0397  -1.0395  -1.0111  -1.0084  -1.0047  -0.9815  -0.9756  -0.9712
    -0.9272  -0.9238  -0.9182  -0.8857  -0.8765  -0.8661  -0.8640  -0.8591
    -0.8568  -0.8559  -0.8540  -0.8442  -0.8426  -0.8185  -0.8171  -0.8138
    -0.8131  -0.8112  -0.7749  -0.7741  -0.7652  -0.7631  -0.7517  -0.7426
    -0.7397  -0.7286  -0.6757  -0.6725  -0.6645  -0.6614  -0.6606  -0.6597
    -0.6557  -0.6456  -0.6345  -0.6299  -0.6267  -0.6256  -0.6238  -0.5980
    -0.5835  -0.5829  -0.5806  -0.5729  -0.5705  -0.5670  -0.5609  -0.5514
    -0.5477  -0.5470  -0.5424  -0.5048  -0.5037  -0.4967  -0.4927  -0.4899
    -0.4164  -0.4136  -0.4118  -0.4114  -0.4028  -0.4021  -0.3662  -0.3537
    -0.3530  -0.3241  -0.3212  -0.3202  -0.2017  -0.1968  -0.0973   0.3178
     0.3184   0.3210   0.3216   0.3817   0.3851   0.7697   0.7716   0.8127
     0.8146   0.9260   1.0038   1.1115   1.1188   1.3342   1.3431   1.9665
     1.9696   2.1285   2.1329   2.2612   2.2673   2.3666   2.3673   2.5210
     2.7587   2.7710   2.8829   3.1047   3.1119   3.1885   3.1916   3.2895
     3.3062   3.5005   3.5208   3.5618   3.7621   3.7648   3.8238   3.8300
     4.0823   4.0892   4.0945   4.3339   4.3718   4.3766   4.4206   4.7545
     4.7598   4.7859   4.9202   5.0923   5.0956   5.1504   5.1781   5.5156
     5.7861   5.8787   5.8855   5.8930   5.9306   5.9572   5.9580   6.0480
     6.0652   6.0908   6.1151   6.1209   6.1250   6.1501   6.1595   6.1783
     6.1821   6.4369   6.6009   6.7134   6.7510   6.7908   6.8309   6.8369
     6.8385   6.9473   7.0343

          k = 0.2500-0.4330-0.1111 (136853 PWs)   bands (ev):

   -18.5726  -6.4520  -6.3888  -5.9972  -5.9953  -5.3182  -4.9862  -4.9847
    -4.9474  -4.9443  -4.5857  -4.5845  -4.4866  -4.4864  -4.4724  -4.4501
    -4.4262  -4.3200  -4.3180  -4.2948  -4.2514  -4.2512  -4.1827  -4.1820
    -4.1767  -4.1744  -4.1541  -4.1493  -4.1470  -4.0791  -4.0737  -4.0466
    -4.0448  -4.0338  -4.0334  -4.0103  -4.0102  -3.9878  -3.9795  -3.9791
    -3.9529  -3.9009  -3.9001  -3.8533  -3.8512  -3.7939  -3.7931  -3.7387
    -3.7384  -3.7383  -3.7375  -3.7026  -3.6649  -3.6638  -3.6569  -3.6560
    -3.6553  -3.6271  -3.6241  -3.6160  -3.5557  -3.5544  -3.5464  -3.5282
    -3.5210  -3.4500  -3.4480  -3.4178  -3.4139  -3.3884  -3.3864  -3.3736
    -3.3571  -3.2978  -3.2971  -3.2799  -3.2789  -3.2278  -3.2234  -3.2224
    -3.1837  -3.1539  -3.1524  -3.1448  -3.1433  -3.1319  -3.1309  -3.1230
    -3.1220  -3.1132  -3.0720  -3.0349  -3.0331  -3.0209  -3.0189  -2.9931
    -2.9858  -2.9828  -2.9625  -2.9185  -2.9164  -2.9084  -2.8693  -2.8621
    -2.8515  -2.8497  -2.8240  -2.8216  -2.7922  -2.7608  -2.7541  -2.7332
    -2.7249  -2.7178  -2.7101  -2.6736  -2.6599  -2.6482  -2.6242  -2.6043
    -2.6002  -2.5807  -2.5795  -2.5691  -2.5656  -2.5578  -2.5359  -2.5340
    -2.4904  -2.4893  -2.4889  -2.4732  -2.4714  -2.4663  -2.4574  -2.4551
    -2.4545  -2.4538  -2.4483  -2.4374  -2.4344  -2.4253  -2.3993  -2.3980
    -2.3974  -2.3959  -2.3957  -2.3930  -2.3916  -2.3653  -2.3628  -2.3487
    -2.3473  -2.3302  -2.3296  -2.3202  -2.3197  -2.3191  -2.3170  -2.2997
    -2.2969  -2.2961  -2.2947  -2.2797  -2.2532  -2.2524  -2.2133  -2.2112
    -2.1882  -2.1865  -2.1594  -2.1587  -2.1326  -2.1308  -2.1143  -2.1098
    -2.0825  -2.0623  -2.0605  -2.0551  -2.0538  -2.0506  -2.0436  -2.0421
    -2.0165  -2.0102  -2.0020  -1.9436  -1.9412  -1.9387  -1.9369  -1.9360
    -1.9008  -1.8815  -1.8795  -1.8538  -1.8517  -1.7936  -1.7914  -1.7636
    -1.7444  -1.7437  -1.6839  -1.6827  -1.6722  -1.6704  -1.6613  -1.6590
    -1.6565  -1.6480  -1.6459  -1.5914  -1.5895  -1.5806  -1.5785  -1.5775
    -1.5606  -1.5571  -1.5236  -1.5231  -1.5066  -1.5059  -1.5053  -1.4983
    -1.4942  -1.4861  -1.4824  -1.4655  -1.4635  -1.4242  -1.4219  -1.4124
    -1.4097  -1.3911  -1.3766  -1.3360  -1.3324  -1.3076  -1.3031  -1.3026
    -1.2734  -1.2221  -1.2212  -1.2206  -1.2194  -1.2147  -1.2129  -1.2040
    -1.1868  -1.1844  -1.1470  -1.1434  -1.1160  -1.1132  -1.1095  -1.1077
    -1.1009  -1.0864  -1.0846  -1.0834  -1.0799  -1.0796  -1.0440  -1.0410
    -1.0397  -1.0395  -1.0111  -1.0084  -1.0047  -0.9815  -0.9756  -0.9712
    -0.9272  -0.9238  -0.9182  -0.8857  -0.8765  -0.8661  -0.8640  -0.8591
    -0.8568  -0.8559  -0.8540  -0.8442  -0.8426  -0.8185  -0.8171  -0.8138
    -0.8131  -0.8112  -0.7749  -0.7741  -0.7652  -0.7631  -0.7517  -0.7426
    -0.7397  -0.7286  -0.6757  -0.6725  -0.6645  -0.6614  -0.6606  -0.6597
    -0.6557  -0.6456  -0.6345  -0.6299  -0.6267  -0.6256  -0.6238  -0.5980
    -0.5835  -0.5829  -0.5806  -0.5729  -0.5705  -0.5670  -0.5609  -0.5514
    -0.5477  -0.5470  -0.5424  -0.5048  -0.5037  -0.4967  -0.4927  -0.4899
    -0.4164  -0.4136  -0.4118  -0.4114  -0.4028  -0.4021  -0.3662  -0.3537
    -0.3530  -0.3241  -0.3212  -0.3202  -0.2017  -0.1968  -0.0973   0.3178
     0.3184   0.3210   0.3216   0.3817   0.3851   0.7697   0.7716   0.8127
     0.8146   0.9260   1.0038   1.1115   1.1188   1.3342   1.3431   1.9665
     1.9696   2.1285   2.1329   2.2612   2.2673   2.3666   2.3673   2.5210
     2.7587   2.7710   2.8829   3.1047   3.1119   3.1885   3.1916   3.2895
     3.3062   3.5005   3.5208   3.5618   3.7621   3.7648   3.8238   3.8300
     4.0823   4.0892   4.0945   4.3339   4.3718   4.3766   4.4206   4.7545
     4.7598   4.7859   4.9202   5.0923   5.0956   5.1504   5.1781   5.5156
     5.7862   5.8787   5.8855   5.8930   5.9306   5.9572   5.9580   6.0481
     6.0652   6.0908   6.1148   6.1206   6.1251   6.1501   6.1596   6.1783
     6.1821   6.4367   6.6006   6.7157   6.7516   6.7909   6.8310   6.8369
     6.8388   6.9474   7.0305

          k = 0.5000 0.0000 0.1111 (136853 PWs)   bands (ev):

   -18.5726  -6.4519  -6.3888  -5.9979  -5.9945  -5.3182  -4.9861  -4.9848
    -4.9480  -4.9437  -4.5857  -4.5845  -4.4867  -4.4863  -4.4724  -4.4501
    -4.4262  -4.3199  -4.3181  -4.2948  -4.2515  -4.2511  -4.1827  -4.1821
    -4.1760  -4.1750  -4.1541  -4.1492  -4.1470  -4.0786  -4.0741  -4.0465
    -4.0448  -4.0336  -4.0335  -4.0103  -4.0102  -3.9877  -3.9795  -3.9792
    -3.9530  -3.9007  -3.9003  -3.8533  -3.8513  -3.7941  -3.7932  -3.7390
    -3.7384  -3.7382  -3.7377  -3.7026  -3.6649  -3.6641  -3.6568  -3.6560
    -3.6552  -3.6263  -3.6242  -3.6161  -3.5556  -3.5547  -3.5460  -3.5283
    -3.5210  -3.4494  -3.4484  -3.4174  -3.4139  -3.3884  -3.3865  -3.3736
    -3.3571  -3.2979  -3.2972  -3.2795  -3.2791  -3.2282  -3.2232  -3.2225
    -3.1837  -3.1539  -3.1523  -3.1449  -3.1431  -3.1317  -3.1309  -3.1229
    -3.1223  -3.1132  -3.0720  -3.0350  -3.0331  -3.0202  -3.0193  -2.9930
    -2.9845  -2.9836  -2.9626  -2.9189  -2.9161  -2.9092  -2.8696  -2.8621
    -2.8515  -2.8498  -2.8262  -2.8205  -2.7921  -2.7591  -2.7538  -2.7338
    -2.7248  -2.7158  -2.7102  -2.6753  -2.6599  -2.6482  -2.6247  -2.6046
    -2.6031  -2.5800  -2.5761  -2.5688  -2.5676  -2.5579  -2.5352  -2.5343
    -2.4904  -2.4894  -2.4888  -2.4734  -2.4712  -2.4663  -2.4575  -2.4552
    -2.4545  -2.4536  -2.4484  -2.4373  -2.4345  -2.4265  -2.3991  -2.3985
    -2.3974  -2.3962  -2.3952  -2.3930  -2.3918  -2.3646  -2.3628  -2.3482
    -2.3474  -2.3301  -2.3296  -2.3202  -2.3197  -2.3184  -2.3171  -2.2997
    -2.2967  -2.2964  -2.2949  -2.2795  -2.2529  -2.2526  -2.2132  -2.2113
    -2.1884  -2.1864  -2.1598  -2.1591  -2.1315  -2.1312  -2.1140  -2.1097
    -2.0825  -2.0617  -2.0601  -2.0555  -2.0538  -2.0507  -2.0435  -2.0421
    -2.0165  -2.0104  -2.0019  -1.9437  -1.9408  -1.9391  -1.9364  -1.9361
    -1.9012  -1.8814  -1.8797  -1.8533  -1.8521  -1.7935  -1.7916  -1.7632
    -1.7447  -1.7438  -1.6838  -1.6828  -1.6722  -1.6705  -1.6612  -1.6593
    -1.6565  -1.6479  -1.6460  -1.5912  -1.5902  -1.5800  -1.5787  -1.5779
    -1.5603  -1.5573  -1.5234  -1.5233  -1.5064  -1.5061  -1.5052  -1.4983
    -1.4936  -1.4861  -1.4825  -1.4651  -1.4640  -1.4238  -1.4224  -1.4124
    -1.4097  -1.3911  -1.3767  -1.3359  -1.3327  -1.3076  -1.3030  -1.3026
    -1.2734  -1.2225  -1.2215  -1.2199  -1.2194  -1.2152  -1.2130  -1.2042
    -1.1865  -1.1844  -1.1467  -1.1437  -1.1153  -1.1136  -1.1091  -1.1082
    -1.1009  -1.0855  -1.0848  -1.0835  -1.0803  -1.0790  -1.0436  -1.0413
    -1.0402  -1.0397  -1.0104  -1.0092  -1.0050  -0.9814  -0.9749  -0.9725
    -0.9271  -0.9216  -0.9182  -0.8851  -0.8763  -0.8657  -0.8649  -0.8592
    -0.8566  -0.8559  -0.8544  -0.8438  -0.8429  -0.8183  -0.8173  -0.8140
    -0.8125  -0.8117  -0.7749  -0.7743  -0.7675  -0.7640  -0.7491  -0.7422
    -0.7397  -0.7286  -0.6802  -0.6723  -0.6668  -0.6618  -0.6615  -0.6597
    -0.6558  -0.6409  -0.6347  -0.6297  -0.6263  -0.6252  -0.6240  -0.5947
    -0.5840  -0.5827  -0.5798  -0.5733  -0.5702  -0.5669  -0.5633  -0.5546
    -0.5480  -0.5472  -0.5373  -0.5050  -0.5041  -0.4965  -0.4921  -0.4914
    -0.4161  -0.4140  -0.4120  -0.4113  -0.4029  -0.4013  -0.3661  -0.3537
    -0.3531  -0.3240  -0.3212  -0.3199  -0.2012  -0.1980  -0.0977   0.3177
     0.3184   0.3212   0.3215   0.3824   0.3854   0.7694   0.7720   0.8126
     0.8148   0.9256   1.0033   1.1118   1.1178   1.3352   1.3424   1.9669
     1.9697   2.1284   2.1329   2.2630   2.2662   2.3661   2.3677   2.5210
     2.7582   2.7710   2.8825   3.1041   3.1120   3.1884   3.1917   3.2893
     3.3062   3.5025   3.5192   3.5618   3.7621   3.7647   3.8264   3.8279
     4.0819   4.0897   4.0937   4.3338   4.3728   4.3759   4.4205   4.7545
     4.7597   4.7855   4.9219   5.0928   5.0954   5.1513   5.1763   5.5147
     5.7944   5.8804   5.8851   5.8929   5.9224   5.9563   5.9584   6.0506
     6.0676   6.0894   6.1133   6.1230   6.1251   6.1516   6.1582   6.1784
     6.1821   6.4383   6.5914   6.7221   6.7503   6.7827   6.8317   6.8362
     6.8385   6.9470   7.0302

          k =-0.5000 0.0000 0.1111 (136853 PWs)   bands (ev):

   -18.5726  -6.4519  -6.3888  -5.9979  -5.9945  -5.3182  -4.9861  -4.9848
    -4.9480  -4.9437  -4.5857  -4.5845  -4.4867  -4.4863  -4.4724  -4.4501
    -4.4262  -4.3199  -4.3181  -4.2948  -4.2515  -4.2511  -4.1827  -4.1821
    -4.1760  -4.1750  -4.1541  -4.1492  -4.1470  -4.0786  -4.0741  -4.0465
    -4.0448  -4.0336  -4.0335  -4.0103  -4.0102  -3.9877  -3.9795  -3.9792
    -3.9530  -3.9007  -3.9003  -3.8533  -3.8513  -3.7941  -3.7932  -3.7390
    -3.7384  -3.7382  -3.7377  -3.7026  -3.6649  -3.6641  -3.6568  -3.6560
    -3.6552  -3.6263  -3.6242  -3.6161  -3.5556  -3.5547  -3.5460  -3.5283
    -3.5210  -3.4494  -3.4484  -3.4174  -3.4139  -3.3884  -3.3865  -3.3736
    -3.3571  -3.2979  -3.2972  -3.2795  -3.2791  -3.2282  -3.2232  -3.2225
    -3.1837  -3.1539  -3.1523  -3.1449  -3.1431  -3.1317  -3.1309  -3.1229
    -3.1223  -3.1132  -3.0720  -3.0350  -3.0331  -3.0202  -3.0193  -2.9930
    -2.9845  -2.9836  -2.9626  -2.9189  -2.9161  -2.9092  -2.8696  -2.8621
    -2.8515  -2.8498  -2.8262  -2.8205  -2.7921  -2.7591  -2.7538  -2.7338
    -2.7248  -2.7158  -2.7102  -2.6753  -2.6599  -2.6482  -2.6247  -2.6046
    -2.6031  -2.5800  -2.5761  -2.5688  -2.5676  -2.5579  -2.5352  -2.5343
    -2.4904  -2.4894  -2.4888  -2.4734  -2.4712  -2.4663  -2.4575  -2.4552
    -2.4545  -2.4536  -2.4484  -2.4373  -2.4345  -2.4265  -2.3991  -2.3985
    -2.3974  -2.3962  -2.3952  -2.3930  -2.3918  -2.3646  -2.3628  -2.3482
    -2.3474  -2.3301  -2.3296  -2.3202  -2.3197  -2.3184  -2.3171  -2.2997
    -2.2967  -2.2964  -2.2949  -2.2795  -2.2529  -2.2526  -2.2132  -2.2113
    -2.1884  -2.1864  -2.1598  -2.1591  -2.1315  -2.1312  -2.1140  -2.1097
    -2.0825  -2.0617  -2.0601  -2.0555  -2.0538  -2.0507  -2.0435  -2.0421
    -2.0165  -2.0104  -2.0019  -1.9437  -1.9408  -1.9391  -1.9364  -1.9361
    -1.9012  -1.8814  -1.8797  -1.8533  -1.8521  -1.7935  -1.7916  -1.7632
    -1.7447  -1.7438  -1.6838  -1.6828  -1.6722  -1.6705  -1.6612  -1.6593
    -1.6565  -1.6479  -1.6460  -1.5912  -1.5902  -1.5800  -1.5787  -1.5779
    -1.5603  -1.5573  -1.5234  -1.5233  -1.5064  -1.5061  -1.5052  -1.4983
    -1.4936  -1.4861  -1.4825  -1.4651  -1.4640  -1.4238  -1.4224  -1.4124
    -1.4097  -1.3911  -1.3767  -1.3359  -1.3327  -1.3076  -1.3030  -1.3026
    -1.2734  -1.2225  -1.2215  -1.2199  -1.2194  -1.2152  -1.2130  -1.2042
    -1.1865  -1.1844  -1.1467  -1.1437  -1.1153  -1.1136  -1.1091  -1.1082
    -1.1009  -1.0855  -1.0848  -1.0835  -1.0803  -1.0790  -1.0436  -1.0413
    -1.0402  -1.0397  -1.0104  -1.0092  -1.0050  -0.9814  -0.9749  -0.9725
    -0.9271  -0.9216  -0.9182  -0.8851  -0.8763  -0.8657  -0.8649  -0.8592
    -0.8566  -0.8559  -0.8544  -0.8438  -0.8429  -0.8183  -0.8173  -0.8140
    -0.8125  -0.8117  -0.7749  -0.7743  -0.7675  -0.7640  -0.7491  -0.7422
    -0.7397  -0.7286  -0.6802  -0.6723  -0.6668  -0.6618  -0.6615  -0.6597
    -0.6558  -0.6409  -0.6347  -0.6297  -0.6263  -0.6252  -0.6240  -0.5947
    -0.5840  -0.5827  -0.5798  -0.5733  -0.5702  -0.5669  -0.5633  -0.5546
    -0.5480  -0.5472  -0.5373  -0.5050  -0.5041  -0.4965  -0.4921  -0.4914
    -0.4161  -0.4140  -0.4120  -0.4113  -0.4029  -0.4013  -0.3661  -0.3537
    -0.3531  -0.3240  -0.3212  -0.3199  -0.2012  -0.1980  -0.0977   0.3177
     0.3184   0.3212   0.3215   0.3824   0.3854   0.7694   0.7720   0.8126
     0.8148   0.9256   1.0033   1.1118   1.1178   1.3352   1.3424   1.9669
     1.9697   2.1284   2.1329   2.2630   2.2662   2.3661   2.3677   2.5210
     2.7582   2.7710   2.8825   3.1041   3.1120   3.1884   3.1917   3.2893
     3.3062   3.5025   3.5192   3.5618   3.7621   3.7647   3.8264   3.8279
     4.0819   4.0897   4.0937   4.3338   4.3728   4.3759   4.4205   4.7545
     4.7597   4.7855   4.9219   5.0928   5.0954   5.1513   5.1763   5.5148
     5.7940   5.8804   5.8851   5.8929   5.9223   5.9563   5.9584   6.0504
     6.0676   6.0893   6.1143   6.1239   6.1253   6.1516   6.1581   6.1784
     6.1822   6.4392   6.5921   6.7106   6.7494   6.7827   6.8315   6.8358
     6.8380   6.9469   7.0344

          k =-0.2500 0.1443 0.1111 (136898 PWs)   bands (ev):

   -18.5726  -6.6091  -6.4411  -5.8138  -5.5218  -5.4639  -5.4635  -4.9255
    -4.9253  -4.7935  -4.7932  -4.6380  -4.6083  -4.5458  -4.5127  -4.5115
    -4.4789  -4.4786  -4.3502  -4.3086  -4.3082  -4.2485  -4.2277  -4.2271
    -4.1250  -4.1249  -4.0887  -4.0885  -4.0884  -4.0617  -4.0400  -4.0398
    -3.9357  -3.9329  -3.9326  -3.9124  -3.8952  -3.8951  -3.8833  -3.8826
    -3.8699  -3.8397  -3.8393  -3.8390  -3.8388  -3.8070  -3.8062  -3.7886
    -3.7885  -3.7756  -3.7327  -3.7319  -3.7006  -3.6866  -3.6846  -3.6802
    -3.6801  -3.6057  -3.6056  -3.5711  -3.5686  -3.5676  -3.5002  -3.5000
    -3.4848  -3.4844  -3.4545  -3.4534  -3.4530  -3.4528  -3.2992  -3.2985
    -3.2745  -3.2736  -3.2687  -3.2524  -3.2519  -3.2269  -3.2262  -3.1768
    -3.1761  -3.1606  -3.1597  -3.1395  -3.0918  -3.0914  -3.0718  -3.0666
    -3.0662  -3.0261  -3.0253  -3.0189  -3.0181  -3.0028  -3.0017  -2.9630
    -2.9626  -2.9428  -2.9404  -2.9378  -2.9372  -2.9341  -2.8598  -2.8571
    -2.8556  -2.8272  -2.8262  -2.7697  -2.7646  -2.7380  -2.7361  -2.7226
    -2.7220  -2.7168  -2.6955  -2.6868  -2.6771  -2.6718  -2.6561  -2.6344
    -2.6337  -2.6227  -2.6127  -2.6091  -2.6013  -2.5995  -2.5976  -2.5938
    -2.5893  -2.5434  -2.5112  -2.5107  -2.4953  -2.4816  -2.4755  -2.4742
    -2.4679  -2.4670  -2.4655  -2.4361  -2.4355  -2.4345  -2.4259  -2.4256
    -2.4089  -2.3810  -2.3805  -2.3801  -2.3795  -2.3793  -2.3336  -2.3027
    -2.3021  -2.3017  -2.2951  -2.2861  -2.2733  -2.2727  -2.2564  -2.2563
    -2.2245  -2.2214  -2.2212  -2.2027  -2.2016  -2.2009  -2.1685  -2.1678
    -2.1290  -2.1257  -2.1200  -2.1175  -2.1170  -2.1109  -2.1106  -2.1076
    -2.1069  -2.1014  -2.1002  -2.0843  -2.0832  -1.9579  -1.9560  -1.9241
    -1.9182  -1.9173  -1.9119  -1.9117  -1.8950  -1.8940  -1.8915  -1.8910
    -1.8893  -1.8666  -1.8597  -1.8583  -1.8530  -1.8466  -1.8461  -1.8235
    -1.8231  -1.7948  -1.7945  -1.7635  -1.7626  -1.7523  -1.7440  -1.7265
    -1.7255  -1.7230  -1.7052  -1.6920  -1.6919  -1.6847  -1.6844  -1.6586
    -1.6580  -1.6412  -1.6406  -1.6081  -1.6077  -1.5986  -1.5487  -1.5482
    -1.5357  -1.5340  -1.5337  -1.5090  -1.5064  -1.4739  -1.4726  -1.4723
    -1.4387  -1.4290  -1.4279  -1.4127  -1.4121  -1.3868  -1.3845  -1.3841
    -1.3549  -1.3523  -1.3518  -1.2898  -1.2887  -1.2772  -1.2751  -1.2598
    -1.2596  -1.2467  -1.2464  -1.2285  -1.2157  -1.1881  -1.1878  -1.1764
    -1.1483  -1.1385  -1.1372  -1.1259  -1.1258  -1.1242  -1.1204  -1.1180
    -1.1047  -1.0752  -1.0748  -1.0639  -1.0618  -1.0607  -1.0596  -1.0379
    -1.0212  -1.0173  -0.9992  -0.9965  -0.9050  -0.8916  -0.8864  -0.8856
    -0.8826  -0.8765  -0.8760  -0.8584  -0.8516  -0.8365  -0.8343  -0.8211
    -0.8207  -0.8117  -0.7920  -0.7910  -0.7886  -0.7808  -0.7090  -0.7081
    -0.6877  -0.6735  -0.6700  -0.6663  -0.6621  -0.6614  -0.6609  -0.6492
    -0.6479  -0.6326  -0.6145  -0.6067  -0.5781  -0.5725  -0.5714  -0.5609
    -0.5563  -0.5485  -0.5479  -0.5460  -0.5448  -0.5372  -0.5281  -0.5235
    -0.5202  -0.4930  -0.4915  -0.4897  -0.4790  -0.4783  -0.4595  -0.4274
    -0.4263  -0.4180  -0.4166  -0.3505  -0.3492  -0.3130  -0.3126  -0.2547
    -0.2540  -0.2533  -0.2389  -0.2265  -0.0005   0.0022   0.3464   0.3465
     0.4381   0.4410   0.6334   0.6488   0.6641   0.7941   0.7952   1.2266
     1.2268   1.2444   1.5056   1.5364   1.5369   1.8136   1.8190   1.8921
     1.8926   1.9191   1.9227   2.1480   2.1495   2.2375   2.2383   2.3164
     2.3768   2.3815   2.5409   2.6407   3.0766   3.0801   3.0833   3.0846
     3.1362   3.1392   3.4298   3.4312   3.7111   3.7163   3.8248   4.1264
     4.1673   4.1714   4.3896   4.4103   4.4695   4.4717   4.5625   4.6797
     4.6810   4.7964   4.7982   5.1014   5.1688   5.1734   5.3179   5.3597
     5.4309   5.5553   5.5593   5.5828   5.5865   5.6431   5.6500   5.7013
     5.8505   6.0552   6.2540   6.2776   6.3522   6.3901   6.3918   6.4037
     6.4064   6.5427   6.6370   6.6471   6.6550   6.8417   6.8802   6.9028
     6.9294   7.0074   7.1033

          k =-0.2500-0.1443-0.1111 (136898 PWs)   bands (ev):

   -18.5726  -6.6091  -6.4411  -5.8138  -5.5217  -5.4638  -5.4635  -4.9254
    -4.9253  -4.7938  -4.7931  -4.6380  -4.6083  -4.5459  -4.5122  -4.5119
    -4.4788  -4.4786  -4.3501  -4.3084  -4.3084  -4.2485  -4.2275  -4.2273
    -4.1249  -4.1248  -4.0888  -4.0885  -4.0883  -4.0617  -4.0401  -4.0397
    -3.9358  -3.9329  -3.9327  -3.9123  -3.8953  -3.8951  -3.8833  -3.8826
    -3.8700  -3.8397  -3.8393  -3.8389  -3.8388  -3.8071  -3.8061  -3.7885
    -3.7884  -3.7757  -3.7329  -3.7315  -3.7010  -3.6864  -3.6847  -3.6802
    -3.6800  -3.6057  -3.6056  -3.5710  -3.5682  -3.5675  -3.5003  -3.5002
    -3.4846  -3.4844  -3.4544  -3.4535  -3.4532  -3.4530  -3.2992  -3.2986
    -3.2749  -3.2733  -3.2686  -3.2523  -3.2519  -3.2267  -3.2260  -3.1767
    -3.1762  -3.1605  -3.1598  -3.1395  -3.0922  -3.0908  -3.0720  -3.0667
    -3.0664  -3.0257  -3.0254  -3.0190  -3.0183  -3.0029  -3.0019  -2.9628
    -2.9625  -2.9431  -2.9401  -2.9376  -2.9372  -2.9340  -2.8589  -2.8571
    -2.8560  -2.8271  -2.8263  -2.7727  -2.7642  -2.7367  -2.7357  -2.7240
    -2.7218  -2.7166  -2.6957  -2.6864  -2.6772  -2.6665  -2.6556  -2.6347
    -2.6340  -2.6297  -2.6127  -2.6110  -2.6019  -2.6013  -2.5974  -2.5893
    -2.5892  -2.5434  -2.5112  -2.5105  -2.4944  -2.4815  -2.4755  -2.4743
    -2.4677  -2.4673  -2.4657  -2.4360  -2.4352  -2.4342  -2.4258  -2.4253
    -2.4089  -2.3812  -2.3806  -2.3799  -2.3798  -2.3794  -2.3338  -2.3028
    -2.3020  -2.3019  -2.2950  -2.2861  -2.2733  -2.2724  -2.2563  -2.2561
    -2.2244  -2.2214  -2.2211  -2.2028  -2.2011  -2.2010  -2.1685  -2.1678
    -2.1291  -2.1255  -2.1196  -2.1173  -2.1170  -2.1114  -2.1102  -2.1080
    -2.1075  -2.1009  -2.1001  -2.0846  -2.0836  -1.9573  -1.9561  -1.9238
    -1.9180  -1.9174  -1.9118  -1.9117  -1.8960  -1.8945  -1.8917  -1.8909
    -1.8881  -1.8667  -1.8591  -1.8584  -1.8529  -1.8470  -1.8453  -1.8238
    -1.8233  -1.7950  -1.7945  -1.7637  -1.7626  -1.7523  -1.7439  -1.7263
    -1.7257  -1.7227  -1.7052  -1.6922  -1.6920  -1.6849  -1.6845  -1.6583
    -1.6578  -1.6413  -1.6407  -1.6089  -1.6080  -1.5986  -1.5492  -1.5478
    -1.5346  -1.5343  -1.5340  -1.5092  -1.5061  -1.4744  -1.4730  -1.4717
    -1.4383  -1.4290  -1.4280  -1.4125  -1.4120  -1.3867  -1.3843  -1.3839
    -1.3549  -1.3521  -1.3519  -1.2903  -1.2888  -1.2771  -1.2755  -1.2605
    -1.2593  -1.2468  -1.2462  -1.2281  -1.2154  -1.1882  -1.1875  -1.1760
    -1.1465  -1.1383  -1.1378  -1.1261  -1.1260  -1.1240  -1.1192  -1.1185
    -1.1046  -1.0769  -1.0742  -1.0674  -1.0622  -1.0605  -1.0601  -1.0381
    -1.0194  -1.0187  -0.9975  -0.9967  -0.9048  -0.8918  -0.8862  -0.8856
    -0.8815  -0.8773  -0.8759  -0.8541  -0.8518  -0.8362  -0.8349  -0.8221
    -0.8208  -0.8120  -0.7929  -0.7904  -0.7893  -0.7808  -0.7104  -0.7080
    -0.6842  -0.6742  -0.6702  -0.6654  -0.6632  -0.6614  -0.6611  -0.6543
    -0.6475  -0.6319  -0.6066  -0.6025  -0.5918  -0.5729  -0.5702  -0.5613
    -0.5590  -0.5478  -0.5476  -0.5458  -0.5452  -0.5348  -0.5278  -0.5236
    -0.5200  -0.4928  -0.4907  -0.4889  -0.4787  -0.4771  -0.4595  -0.4274
    -0.4269  -0.4181  -0.4172  -0.3495  -0.3493  -0.3131  -0.3124  -0.2547
    -0.2541  -0.2531  -0.2413  -0.2265  -0.0002   0.0047   0.3464   0.3465
     0.4379   0.4417   0.6312   0.6495   0.6640   0.7938   0.7953   1.2266
     1.2268   1.2444   1.5051   1.5364   1.5369   1.8144   1.8191   1.8919
     1.8927   1.9189   1.9228   2.1473   2.1499   2.2375   2.2383   2.3167
     2.3772   2.3809   2.5404   2.6402   3.0772   3.0803   3.0828   3.0847
     3.1357   3.1402   3.4296   3.4315   3.7113   3.7160   3.8246   4.1265
     4.1667   4.1710   4.3905   4.4091   4.4698   4.4718   4.5620   4.6800
     4.6813   4.7968   4.7985   5.1008   5.1700   5.1742   5.3229   5.3585
     5.4253   5.5543   5.5591   5.5835   5.5861   5.6453   5.6488   5.7047
     5.8520   6.0658   6.2501   6.2664   6.3389   6.3885   6.3929   6.4038
     6.4064   6.5501   6.6396   6.6479   6.6651   6.8454   6.8840   6.8972
     6.9185   7.0138   7.0952

          k = 0.2500 0.1443-0.1111 (136898 PWs)   bands (ev):

   -18.5726  -6.6091  -6.4411  -5.8138  -5.5217  -5.4638  -5.4635  -4.9254
    -4.9253  -4.7938  -4.7931  -4.6380  -4.6083  -4.5459  -4.5122  -4.5119
    -4.4788  -4.4786  -4.3501  -4.3084  -4.3084  -4.2485  -4.2275  -4.2273
    -4.1249  -4.1248  -4.0888  -4.0885  -4.0883  -4.0617  -4.0401  -4.0397
    -3.9358  -3.9329  -3.9327  -3.9123  -3.8953  -3.8951  -3.8833  -3.8826
    -3.8700  -3.8397  -3.8393  -3.8389  -3.8388  -3.8071  -3.8061  -3.7885
    -3.7884  -3.7757  -3.7329  -3.7315  -3.7010  -3.6864  -3.6847  -3.6802
    -3.6800  -3.6057  -3.6056  -3.5710  -3.5682  -3.5675  -3.5003  -3.5002
    -3.4847  -3.4844  -3.4544  -3.4535  -3.4532  -3.4530  -3.2992  -3.2986
    -3.2749  -3.2733  -3.2686  -3.2523  -3.2520  -3.2267  -3.2260  -3.1767
    -3.1762  -3.1605  -3.1598  -3.1395  -3.0922  -3.0908  -3.0720  -3.0667
    -3.0664  -3.0257  -3.0254  -3.0190  -3.0183  -3.0029  -3.0019  -2.9628
    -2.9625  -2.9431  -2.9401  -2.9376  -2.9372  -2.9340  -2.8589  -2.8571
    -2.8560  -2.8271  -2.8263  -2.7727  -2.7642  -2.7367  -2.7357  -2.7240
    -2.7218  -2.7166  -2.6957  -2.6864  -2.6772  -2.6665  -2.6556  -2.6347
    -2.6340  -2.6297  -2.6127  -2.6110  -2.6019  -2.6013  -2.5974  -2.5893
    -2.5892  -2.5434  -2.5112  -2.5105  -2.4944  -2.4815  -2.4755  -2.4743
    -2.4677  -2.4674  -2.4657  -2.4360  -2.4352  -2.4342  -2.4258  -2.4253
    -2.4089  -2.3812  -2.3806  -2.3800  -2.3798  -2.3794  -2.3338  -2.3028
    -2.3020  -2.3019  -2.2950  -2.2861  -2.2733  -2.2724  -2.2563  -2.2561
    -2.2244  -2.2213  -2.2211  -2.2028  -2.2011  -2.2010  -2.1685  -2.1678
    -2.1291  -2.1255  -2.1196  -2.1173  -2.1170  -2.1114  -2.1102  -2.1080
    -2.1075  -2.1009  -2.1001  -2.0846  -2.0836  -1.9573  -1.9561  -1.9238
    -1.9180  -1.9174  -1.9118  -1.9117  -1.8960  -1.8945  -1.8917  -1.8909
    -1.8881  -1.8667  -1.8591  -1.8584  -1.8529  -1.8470  -1.8453  -1.8238
    -1.8233  -1.7950  -1.7945  -1.7637  -1.7626  -1.7523  -1.7439  -1.7263
    -1.7257  -1.7227  -1.7052  -1.6922  -1.6920  -1.6849  -1.6845  -1.6583
    -1.6578  -1.6413  -1.6407  -1.6089  -1.6080  -1.5986  -1.5492  -1.5478
    -1.5346  -1.5343  -1.5340  -1.5092  -1.5061  -1.4744  -1.4730  -1.4717
    -1.4383  -1.4289  -1.4280  -1.4125  -1.4120  -1.3867  -1.3843  -1.3839
    -1.3549  -1.3521  -1.3519  -1.2903  -1.2888  -1.2771  -1.2755  -1.2606
    -1.2593  -1.2468  -1.2462  -1.2281  -1.2154  -1.1882  -1.1875  -1.1760
    -1.1465  -1.1383  -1.1378  -1.1261  -1.1260  -1.1240  -1.1192  -1.1185
    -1.1046  -1.0769  -1.0742  -1.0674  -1.0622  -1.0605  -1.0601  -1.0381
    -1.0194  -1.0187  -0.9975  -0.9967  -0.9048  -0.8918  -0.8862  -0.8856
    -0.8815  -0.8773  -0.8759  -0.8542  -0.8517  -0.8362  -0.8349  -0.8221
    -0.8208  -0.8121  -0.7929  -0.7904  -0.7893  -0.7808  -0.7104  -0.7080
    -0.6842  -0.6742  -0.6702  -0.6654  -0.6632  -0.6614  -0.6611  -0.6543
    -0.6475  -0.6319  -0.6066  -0.6025  -0.5918  -0.5729  -0.5702  -0.5613
    -0.5590  -0.5478  -0.5476  -0.5458  -0.5452  -0.5348  -0.5278  -0.5236
    -0.5200  -0.4928  -0.4907  -0.4889  -0.4787  -0.4771  -0.4595  -0.4274
    -0.4269  -0.4181  -0.4172  -0.3495  -0.3493  -0.3131  -0.3124  -0.2547
    -0.2541  -0.2531  -0.2413  -0.2265  -0.0002   0.0047   0.3464   0.3465
     0.4379   0.4417   0.6312   0.6495   0.6640   0.7938   0.7953   1.2266
     1.2268   1.2444   1.5050   1.5364   1.5369   1.8144   1.8191   1.8919
     1.8927   1.9189   1.9228   2.1473   2.1499   2.2375   2.2383   2.3167
     2.3772   2.3809   2.5404   2.6403   3.0772   3.0803   3.0828   3.0847
     3.1357   3.1402   3.4296   3.4315   3.7113   3.7160   3.8246   4.1265
     4.1667   4.1710   4.3906   4.4091   4.4698   4.4718   4.5620   4.6800
     4.6813   4.7968   4.7985   5.1008   5.1700   5.1742   5.3228   5.3585
     5.4254   5.5543   5.5591   5.5835   5.5861   5.6453   5.6488   5.7049
     5.8504   6.0689   6.2501   6.2688   6.3385   6.3886   6.3929   6.4039
     6.4064   6.5407   6.6403   6.6478   6.6579   6.8480   6.8843   6.9014
     6.9196   7.0103   7.1000

          k = 0.0000-0.2887 0.1111 (136898 PWs)   bands (ev):

   -18.5726  -6.6091  -6.4411  -5.8138  -5.5218  -5.4638  -5.4635  -4.9255
    -4.9253  -4.7940  -4.7928  -4.6380  -4.6083  -4.5459  -4.5126  -4.5116
    -4.4788  -4.4786  -4.3502  -4.3086  -4.3082  -4.2484  -4.2277  -4.2272
    -4.1249  -4.1248  -4.0887  -4.0885  -4.0883  -4.0617  -4.0400  -4.0398
    -3.9356  -3.9330  -3.9326  -3.9123  -3.8953  -3.8951  -3.8833  -3.8826
    -3.8699  -3.8398  -3.8394  -3.8389  -3.8386  -3.8071  -3.8062  -3.7885
    -3.7884  -3.7754  -3.7327  -3.7321  -3.7007  -3.6866  -3.6846  -3.6802
    -3.6800  -3.6058  -3.6056  -3.5710  -3.5685  -3.5675  -3.5004  -3.5002
    -3.4847  -3.4843  -3.4546  -3.4534  -3.4531  -3.4529  -3.2994  -3.2986
    -3.2744  -3.2735  -3.2688  -3.2524  -3.2520  -3.2268  -3.2262  -3.1768
    -3.1761  -3.1607  -3.1597  -3.1394  -3.0918  -3.0911  -3.0718  -3.0668
    -3.0663  -3.0263  -3.0254  -3.0189  -3.0182  -3.0028  -3.0018  -2.9628
    -2.9624  -2.9426  -2.9404  -2.9377  -2.9371  -2.9340  -2.8602  -2.8571
    -2.8558  -2.8272  -2.8263  -2.7683  -2.7648  -2.7388  -2.7360  -2.7223
    -2.7218  -2.7169  -2.6951  -2.6867  -2.6772  -2.6733  -2.6555  -2.6345
    -2.6337  -2.6222  -2.6127  -2.6091  -2.6017  -2.5990  -2.5976  -2.5940
    -2.5893  -2.5434  -2.5113  -2.5109  -2.4951  -2.4818  -2.4755  -2.4743
    -2.4679  -2.4671  -2.4656  -2.4361  -2.4355  -2.4346  -2.4258  -2.4253
    -2.4087  -2.3807  -2.3805  -2.3801  -2.3798  -2.3793  -2.3338  -2.3028
    -2.3021  -2.3017  -2.2951  -2.2862  -2.2734  -2.2726  -2.2562  -2.2561
    -2.2244  -2.2213  -2.2211  -2.2028  -2.2017  -2.2009  -2.1684  -2.1678
    -2.1289  -2.1257  -2.1196  -2.1175  -2.1168  -2.1110  -2.1108  -2.1081
    -2.1071  -2.1011  -2.1001  -2.0844  -2.0833  -1.9580  -1.9561  -1.9237
    -1.9182  -1.9173  -1.9118  -1.9117  -1.8956  -1.8944  -1.8914  -1.8909
    -1.8887  -1.8666  -1.8598  -1.8584  -1.8530  -1.8465  -1.8457  -1.8238
    -1.8233  -1.7950  -1.7945  -1.7633  -1.7627  -1.7522  -1.7439  -1.7264
    -1.7254  -1.7227  -1.7052  -1.6922  -1.6920  -1.6849  -1.6845  -1.6583
    -1.6578  -1.6413  -1.6406  -1.6084  -1.6079  -1.5985  -1.5489  -1.5481
    -1.5355  -1.5341  -1.5337  -1.5092  -1.5062  -1.4739  -1.4726  -1.4722
    -1.4386  -1.4289  -1.4279  -1.4126  -1.4119  -1.3868  -1.3845  -1.3840
    -1.3549  -1.3521  -1.3519  -1.2901  -1.2888  -1.2773  -1.2752  -1.2602
    -1.2595  -1.2466  -1.2462  -1.2281  -1.2155  -1.1882  -1.1877  -1.1763
    -1.1476  -1.1386  -1.1372  -1.1260  -1.1259  -1.1244  -1.1201  -1.1182
    -1.1046  -1.0752  -1.0748  -1.0649  -1.0624  -1.0605  -1.0598  -1.0379
    -1.0209  -1.0177  -0.9987  -0.9964  -0.9049  -0.8916  -0.8864  -0.8858
    -0.8821  -0.8768  -0.8760  -0.8568  -0.8516  -0.8365  -0.8344  -0.8214
    -0.8207  -0.8119  -0.7923  -0.7908  -0.7888  -0.7809  -0.7095  -0.7082
    -0.6866  -0.6735  -0.6701  -0.6659  -0.6622  -0.6614  -0.6610  -0.6514
    -0.6478  -0.6324  -0.6109  -0.6065  -0.5822  -0.5727  -0.5706  -0.5610
    -0.5580  -0.5484  -0.5477  -0.5459  -0.5450  -0.5359  -0.5280  -0.5236
    -0.5204  -0.4929  -0.4911  -0.4891  -0.4788  -0.4778  -0.4595  -0.4274
    -0.4266  -0.4179  -0.4169  -0.3500  -0.3494  -0.3131  -0.3125  -0.2547
    -0.2539  -0.2534  -0.2399  -0.2264  -0.0004   0.0032   0.3464   0.3465
     0.4381   0.4413   0.6324   0.6491   0.6640   0.7940   0.7952   1.2266
     1.2268   1.2445   1.5055   1.5364   1.5369   1.8137   1.8191   1.8920
     1.8927   1.9191   1.9227   2.1478   2.1495   2.2375   2.2383   2.3164
     2.3769   2.3814   2.5406   2.6405   3.0763   3.0806   3.0834   3.0846
     3.1365   3.1391   3.4298   3.4312   3.7112   3.7162   3.8249   4.1265
     4.1671   4.1713   4.3899   4.4098   4.4700   4.4713   4.5624   4.6796
     4.6810   4.7965   4.7985   5.1012   5.1700   5.1725   5.3192   5.3591
     5.4296   5.5550   5.5591   5.5824   5.5865   5.6430   5.6504   5.7029
     5.8503   6.0598   6.2541   6.2736   6.3477   6.3903   6.3916   6.4035
     6.4068   6.5422   6.6377   6.6468   6.6555   6.8443   6.8836   6.9004
     6.9266   7.0083   7.0992

          k = 0.0000 0.2887 0.1111 (136898 PWs)   bands (ev):

   -18.5726  -6.6091  -6.4411  -5.8138  -5.5218  -5.4638  -5.4635  -4.9255
    -4.9253  -4.7940  -4.7928  -4.6380  -4.6083  -4.5459  -4.5126  -4.5116
    -4.4788  -4.4786  -4.3502  -4.3086  -4.3082  -4.2484  -4.2277  -4.2272
    -4.1249  -4.1248  -4.0887  -4.0885  -4.0884  -4.0617  -4.0400  -4.0398
    -3.9356  -3.9330  -3.9326  -3.9123  -3.8953  -3.8951  -3.8833  -3.8826
    -3.8699  -3.8398  -3.8394  -3.8389  -3.8386  -3.8071  -3.8062  -3.7885
    -3.7884  -3.7754  -3.7327  -3.7321  -3.7007  -3.6866  -3.6846  -3.6802
    -3.6800  -3.6058  -3.6056  -3.5710  -3.5685  -3.5675  -3.5004  -3.5002
    -3.4847  -3.4843  -3.4546  -3.4534  -3.4531  -3.4529  -3.2994  -3.2986
    -3.2744  -3.2735  -3.2688  -3.2524  -3.2520  -3.2268  -3.2262  -3.1769
    -3.1761  -3.1607  -3.1597  -3.1394  -3.0918  -3.0911  -3.0718  -3.0668
    -3.0663  -3.0263  -3.0254  -3.0189  -3.0182  -3.0028  -3.0018  -2.9628
    -2.9625  -2.9426  -2.9404  -2.9377  -2.9371  -2.9340  -2.8602  -2.8571
    -2.8558  -2.8272  -2.8263  -2.7683  -2.7648  -2.7388  -2.7360  -2.7223
    -2.7218  -2.7169  -2.6951  -2.6867  -2.6772  -2.6733  -2.6555  -2.6345
    -2.6337  -2.6222  -2.6127  -2.6091  -2.6017  -2.5990  -2.5976  -2.5940
    -2.5893  -2.5434  -2.5113  -2.5109  -2.4951  -2.4818  -2.4755  -2.4743
    -2.4679  -2.4671  -2.4656  -2.4361  -2.4355  -2.4346  -2.4258  -2.4253
    -2.4087  -2.3807  -2.3805  -2.3801  -2.3797  -2.3793  -2.3338  -2.3028
    -2.3021  -2.3017  -2.2951  -2.2862  -2.2734  -2.2726  -2.2562  -2.2561
    -2.2244  -2.2213  -2.2211  -2.2028  -2.2017  -2.2009  -2.1684  -2.1678
    -2.1289  -2.1257  -2.1196  -2.1175  -2.1168  -2.1110  -2.1108  -2.1081
    -2.1071  -2.1011  -2.1001  -2.0844  -2.0833  -1.9580  -1.9561  -1.9237
    -1.9182  -1.9173  -1.9118  -1.9117  -1.8956  -1.8944  -1.8915  -1.8909
    -1.8888  -1.8666  -1.8598  -1.8584  -1.8530  -1.8465  -1.8457  -1.8238
    -1.8233  -1.7950  -1.7945  -1.7633  -1.7627  -1.7522  -1.7439  -1.7264
    -1.7254  -1.7227  -1.7052  -1.6922  -1.6920  -1.6849  -1.6845  -1.6583
    -1.6578  -1.6413  -1.6406  -1.6084  -1.6079  -1.5985  -1.5489  -1.5481
    -1.5355  -1.5341  -1.5337  -1.5092  -1.5062  -1.4739  -1.4726  -1.4722
    -1.4386  -1.4289  -1.4279  -1.4126  -1.4119  -1.3868  -1.3845  -1.3840
    -1.3550  -1.3521  -1.3519  -1.2901  -1.2888  -1.2773  -1.2752  -1.2602
    -1.2595  -1.2466  -1.2462  -1.2281  -1.2155  -1.1882  -1.1876  -1.1763
    -1.1476  -1.1386  -1.1372  -1.1260  -1.1259  -1.1244  -1.1201  -1.1182
    -1.1046  -1.0752  -1.0748  -1.0649  -1.0624  -1.0605  -1.0598  -1.0379
    -1.0209  -1.0177  -0.9987  -0.9964  -0.9049  -0.8916  -0.8864  -0.8858
    -0.8822  -0.8768  -0.8760  -0.8569  -0.8516  -0.8365  -0.8344  -0.8214
    -0.8208  -0.8119  -0.7923  -0.7908  -0.7888  -0.7809  -0.7095  -0.7082
    -0.6866  -0.6735  -0.6701  -0.6659  -0.6622  -0.6614  -0.6610  -0.6514
    -0.6478  -0.6323  -0.6109  -0.6065  -0.5822  -0.5727  -0.5706  -0.5610
    -0.5580  -0.5484  -0.5477  -0.5459  -0.5450  -0.5359  -0.5280  -0.5236
    -0.5204  -0.4929  -0.4911  -0.4891  -0.4788  -0.4778  -0.4595  -0.4274
    -0.4266  -0.4179  -0.4169  -0.3500  -0.3494  -0.3131  -0.3125  -0.2547
    -0.2539  -0.2534  -0.2399  -0.2264  -0.0004   0.0032   0.3464   0.3465
     0.4381   0.4413   0.6324   0.6491   0.6640   0.7940   0.7952   1.2266
     1.2268   1.2445   1.5055   1.5364   1.5369   1.8137   1.8190   1.8920
     1.8927   1.9191   1.9227   2.1478   2.1495   2.2375   2.2383   2.3164
     2.3769   2.3814   2.5406   2.6405   3.0763   3.0806   3.0834   3.0846
     3.1365   3.1391   3.4298   3.4312   3.7112   3.7162   3.8249   4.1265
     4.1671   4.1713   4.3899   4.4098   4.4700   4.4713   4.5624   4.6796
     4.6810   4.7965   4.7985   5.1012   5.1700   5.1725   5.3192   5.3591
     5.4296   5.5550   5.5591   5.5824   5.5865   5.6430   5.6504   5.7028
     5.8516   6.0580   6.2542   6.2720   6.3471   6.3903   6.3916   6.4033
     6.4067   6.5462   6.6370   6.6475   6.6586   6.8409   6.8822   6.8998
     6.9263   7.0111   7.1084

     the Fermi energy is     1.3702 ev

!    total energy              =   -6604.43425433 Ry
     Harris-Foulkes estimate   =   -6604.43425433 Ry
     estimated scf accuracy    <          2.6E-09 Ry

     The total energy is the sum of the following terms:

     one-electron contribution =  -48607.85800210 Ry
     hartree contribution      =   24803.49071823 Ry
     xc contribution           =   -3204.97328755 Ry
     ewald contribution        =   20404.90342406 Ry
     smearing contrib. (-TS)   =       0.00289304 Ry

     convergence has been achieved in  25 iterations

     Writing output data file 4907035.save

     init_run     :    148.04s CPU    159.33s WALL (       1 calls)
     electrons    :   8948.97s CPU   9594.53s WALL (       1 calls)

     Called by init_run:
     wfcinit      :    115.52s CPU    125.81s WALL (       1 calls)
     potinit      :      9.62s CPU     10.21s WALL (       1 calls)

     Called by electrons:
     c_bands      :   7312.23s CPU   7833.64s WALL (      26 calls)
     sum_band     :   1193.69s CPU   1298.94s WALL (      26 calls)
     v_of_rho     :    130.17s CPU    142.39s WALL (      26 calls)
     newd         :    321.96s CPU    327.09s WALL (      26 calls)
     mix_rho      :      3.39s CPU      3.77s WALL (      26 calls)
     vdW_energy   :     10.01s CPU     11.37s WALL (      26 calls)
     vdW_ffts     :     67.32s CPU     73.65s WALL (      52 calls)
     vdW_v        :     15.92s CPU     16.84s WALL (      26 calls)

     Called by c_bands:
     init_us_2    :     23.46s CPU     23.96s WALL (     636 calls)
     cegterg      :   7234.29s CPU   7753.69s WALL (     312 calls)

     Called by *egterg:
     h_psi        :   3269.72s CPU   3744.08s WALL (    1662 calls)
     s_psi        :    452.32s CPU    454.95s WALL (    1662 calls)
     g_psi        :      6.24s CPU      6.34s WALL (    1338 calls)
     cdiaghg      :   2096.56s CPU   2101.40s WALL (    1638 calls)

     Called by h_psi:
     add_vuspsi   :    453.48s CPU    456.17s WALL (    1662 calls)

     General routines
     calbec       :    675.02s CPU    678.15s WALL (    1974 calls)
     fft          :    127.70s CPU    138.23s WALL (    1716 calls)
     ffts         :      2.22s CPU      2.51s WALL (      52 calls)
     fftw         :   2078.01s CPU   2492.59s WALL (  753226 calls)
     interpolate  :      5.70s CPU      6.63s WALL (      52 calls)
     davcio       :      0.01s CPU      0.36s WALL (      12 calls)

     Parallel routines
     fft_scatter  :   1380.01s CPU   1655.17s WALL (  754994 calls)

     PWSCF        :     2h31m CPU        2h42m WALL


   This run was terminated on:  11:36:17  24Aug2015            

=------------------------------------------------------------------------------=
   JOB DONE.
=------------------------------------------------------------------------------=
