Setting SGE environment for SCC

     Program PWSCF v.5.1.2 starts on 29Aug2015 at 13: 3:59 

     This program is part of the open-source Quantum ESPRESSO suite
     for quantum simulation of materials; please cite
         "P. Giannozzi et al., J. Phys.:Condens. Matter 21 395502 (2009);
          URL http://www.quantum-espresso.org", 
     in publications or presentations arising from this work. More details at
     http://www.quantum-espresso.org/quote

     Parallel version (MPI), running on    32 processors
     R & G space division:  proc/nbgrp/npool/nimage =      32
     Reading input from top.O1.Au50.d.3.2.phi.0.psi.0.in
Warning: card &IONS ignored
Warning: card / ignored
Warning: card &CELL ignored
Warning: card / ignored

     Current dimensions of program PWSCF are:
     Max number of different atomic species (ntypx) = 10
     Max number of k-points (npk) =  40000
     Max angular momentum in pseudopotentials (lmaxx) =  3

     IMPORTANT: XC functional enforced from input :
     Exchange-correlation      = VDW-DF ( 1  4  4  0 1 0)
     Any further DFT definition will be discarded
     Please, verify this is what you really want


     Subspace diagonalization in iterative solution of the eigenvalue problem:
     a serial algorithm will be used


     Parallelization info
     --------------------
     sticks:   dense  smooth     PW     G-vecs:    dense   smooth      PW
     Min         445     223     58                96775    34191    4534
     Max         446     224     59                96790    34246    4540
     Sum       14269    7147   1867              3097177  1095093  145167


     Title: 
     top.O1.Au50.d.3.2.phi.0.psi.0                                              


     bravais-lattice index     =            4
     lattice parameter (alat)  =      22.7436  a.u.
     unit-cell volume          =   22924.1508 (a.u.)^3
     number of atoms/cell      =           67
     number of atomic types    =            3
     number of electrons       =       712.00
     number of Kohn-Sham states=          427
     kinetic-energy cutoff     =      50.0000  Ry
     charge density cutoff     =     400.0000  Ry
     convergence threshold     =      1.0E-08
     mixing beta               =       0.7000
     number of iterations used =            8  plain     mixing
     Exchange-correlation      = VDW-DF ( 1  4  4  0 1 0)

     celldm(1)=  22.743643  celldm(2)=   0.000000  celldm(3)=   2.250000
     celldm(4)=   0.000000  celldm(5)=   0.000000  celldm(6)=   0.000000

     crystal axes: (cart. coord. in units of alat)
               a(1) = (   1.000000   0.000000   0.000000 )  
               a(2) = (  -0.500000   0.866025   0.000000 )  
               a(3) = (   0.000000   0.000000   2.250000 )  

     reciprocal axes: (cart. coord. in units 2 pi/alat)
               b(1) = (  1.000000  0.577350 -0.000000 )  
               b(2) = (  0.000000  1.154701  0.000000 )  
               b(3) = (  0.000000 -0.000000  0.444444 )  


     PseudoPot. # 1 for Au read from file:
     /home/scc/andrejb/qe/pseudo/Au.pbe-nd-van.UPF
     MD5 check sum: 458681b50f36d87ef23c61b04bba420a
     Pseudo is Ultrasoft + core correction, Zval = 11.0
     Generated by new atomic code, or converted to UPF format
     Using radial grid of  985 points,  3 beta functions with: 
                l(1) =   1
                l(2) =   2
                l(3) =   2
     Q(r) pseudized with  8 coefficients,  rinner =    1.100   1.100   1.100
                                                       1.100   1.100

     PseudoPot. # 2 for H  read from file:
     /home/scc/andrejb/qe/pseudo/H.pbe-van_ak.UPF
     MD5 check sum: 403db7282739603aa925980fa9b8608d
     Pseudo is Ultrasoft, Zval =  1.0
     Generated by new atomic code, or converted to UPF format
     Using radial grid of  615 points,  1 beta functions with: 
                l(1) =   0
     Q(r) pseudized with  8 coefficients,  rinner =    0.800

     PseudoPot. # 3 for O  read from file:
     /home/scc/andrejb/qe/pseudo/O.pbe-van_ak.UPF
     MD5 check sum: 4b8c549914a63cae506c6ff22b5af4fe
     Pseudo is Ultrasoft, Zval =  6.0
     Generated by new atomic code, or converted to UPF format
     Using radial grid of  737 points,  4 beta functions with: 
                l(1) =   0
                l(2) =   0
                l(3) =   1
                l(4) =   1
     Q(r) pseudized with  8 coefficients,  rinner =    0.800   0.800   0.800


     vdW kernel table read from file vdW_kernel_table
     MD5 check sum: 48e77a2e26edf626eeb0eaa751ad5cac

     atomic species   valence    mass     pseudopotential
        Au            11.00   196.96657     Au( 1.00)
        H              1.00     1.01000     H ( 1.00)
        O              6.00    16.00000     O ( 1.00)

     No symmetry found



   Cartesian axes

     site n.     atom                  positions (alat units)
         1           O   tau(   1) = (   0.4790780   0.3968269   0.8788788  )
         2           H   tau(   2) = (   0.4291446   0.3552792   0.9271323  )
         3           H   tau(   3) = (   0.5274974   0.4371337   0.9296395  )
         4           Au  tau(   4) = (   0.3540481   0.6132292   0.0000000  )
         5           Au  tau(   5) = (   0.4790062   0.3967954   0.0000000  )
         6           Au  tau(   6) = (   0.6039644   0.1803616   0.0000000  )
         7           Au  tau(   7) = (   0.7289225  -0.0360723   0.0000000  )
         8           Au  tau(   8) = (   0.1041318   0.6132292   0.0000000  )
         9           Au  tau(   9) = (   0.2290899   0.3967954   0.0000000  )
        10           Au  tau(  10) = (   0.3540481   0.1803616   0.0000000  )
        11           Au  tau(  11) = (   0.4790062  -0.0360723   0.0000000  )
        12           Au  tau(  12) = (  -0.1457845   0.6132292   0.0000000  )
        13           Au  tau(  13) = (  -0.0208264   0.3967954   0.0000000  )
        14           Au  tau(  14) = (   0.1041318   0.1803616   0.0000000  )
        15           Au  tau(  15) = (   0.2290899  -0.0360723   0.0000000  )
        16           Au  tau(  16) = (  -0.3957008   0.6132292   0.0000000  )
        17           Au  tau(  17) = (  -0.2707426   0.3967954   0.0000000  )
        18           Au  tau(  18) = (  -0.1457845   0.1803616   0.0000000  )
        19           Au  tau(  19) = (  -0.0208264  -0.0360723   0.0000000  )
        20           Au  tau(  20) = (   0.4790062   0.6853738   0.2040557  )
        21           Au  tau(  21) = (   0.6039644   0.4689400   0.2040557  )
        22           Au  tau(  22) = (   0.7289225   0.2525061   0.2040557  )
        23           Au  tau(  23) = (   0.8538806   0.0360723   0.2040557  )
        24           Au  tau(  24) = (   0.2290899   0.6853738   0.2040557  )
        25           Au  tau(  25) = (   0.3540481   0.4689400   0.2040557  )
        26           Au  tau(  26) = (   0.4790062   0.2525061   0.2040557  )
        27           Au  tau(  27) = (   0.6039644   0.0360723   0.2040557  )
        28           Au  tau(  28) = (  -0.0208264   0.6853738   0.2040557  )
        29           Au  tau(  29) = (   0.1041318   0.4689400   0.2040557  )
        30           Au  tau(  30) = (   0.2290899   0.2525061   0.2040557  )
        31           Au  tau(  31) = (   0.3540481   0.0360723   0.2040557  )
        32           Au  tau(  32) = (  -0.2707426   0.6853738   0.2040557  )
        33           Au  tau(  33) = (  -0.1457845   0.4689400   0.2040557  )
        34           Au  tau(  34) = (  -0.0208264   0.2525061   0.2040557  )
        35           Au  tau(  35) = (   0.1041318   0.0360723   0.2040557  )
        36           Au  tau(  36) = (   0.3541162   0.7576593   0.4066483  )
        37           Au  tau(  37) = (   0.4791000   0.5411421   0.4066695  )
        38           Au  tau(  38) = (   0.6040570   0.3246862   0.4066617  )
        39           Au  tau(  39) = (   0.7290270   0.1081684   0.4066529  )
        40           Au  tau(  40) = (   0.1041162   0.7576236   0.4066247  )
        41           Au  tau(  41) = (   0.2291001   0.5411063   0.4066455  )
        42           Au  tau(  42) = (   0.3540567   0.3246505   0.4066380  )
        43           Au  tau(  43) = (   0.4790276   0.1081324   0.4066292  )
        44           Au  tau(  44) = (  -0.1458201   0.7576104   0.4066224  )
        45           Au  tau(  45) = (  -0.0208365   0.5410930   0.4066438  )
        46           Au  tau(  46) = (   0.1041202   0.3246372   0.4066359  )
        47           Au  tau(  47) = (   0.2290908   0.1081193   0.4066273  )
        48           Au  tau(  48) = (  -0.3958167   0.7575791   0.4065812  )
        49           Au  tau(  49) = (  -0.2708328   0.5410617   0.4066025  )
        50           Au  tau(  50) = (  -0.1458763   0.3246061   0.4065947  )
        51           Au  tau(  51) = (  -0.0209056   0.1080882   0.4065858  )
        52           Au  tau(  52) = (   0.3541085   0.6133344   0.6129762  )
        53           Au  tau(  53) = (   0.4790780   0.3968269   0.6129968  )
        54           Au  tau(  54) = (   0.6040356   0.1803811   0.6129859  )
        55           Au  tau(  55) = (   0.7290165  -0.0361221   0.6129385  )
        56           Au  tau(  56) = (   0.1041243   0.6133091   0.6130022  )
        57           Au  tau(  57) = (   0.2290941   0.3968013   0.6130241  )
        58           Au  tau(  58) = (   0.3540515   0.1803552   0.6130121  )
        59           Au  tau(  59) = (   0.4790323  -0.0361475   0.6129659  )
        60           Au  tau(  60) = (  -0.1458030   0.6133014   0.6129980  )
        61           Au  tau(  61) = (  -0.0208339   0.3967936   0.6130188  )
        62           Au  tau(  62) = (   0.1041239   0.1803477   0.6130083  )
        63           Au  tau(  63) = (   0.2291046  -0.0361554   0.6129607  )
        64           Au  tau(  64) = (  -0.3957908   0.6132739   0.6129471  )
        65           Au  tau(  65) = (  -0.2708208   0.3967658   0.6129688  )
        66           Au  tau(  66) = (  -0.1458636   0.1803200   0.6129569  )
        67           Au  tau(  67) = (  -0.0208823  -0.0361826   0.6129110  )

     number of k points=    12  Marzari-Vanderbilt smearing, width (Ry)=  0.0200
                       cart. coord. in units 2pi/alat
        k(    1) = (   0.2500000   0.4330127   0.1111111), wk =   0.1666667
        k(    2) = (   0.2500000  -0.1443376   0.1111111), wk =   0.1666667
        k(    3) = (  -0.2500000  -0.4330127   0.1111111), wk =   0.1666667
        k(    4) = (  -0.2500000   0.4330127  -0.1111111), wk =   0.1666667
        k(    5) = (   0.2500000  -0.4330127  -0.1111111), wk =   0.1666667
        k(    6) = (   0.5000000   0.0000000   0.1111111), wk =   0.1666667
        k(    7) = (  -0.5000000   0.0000000   0.1111111), wk =   0.1666667
        k(    8) = (  -0.2500000   0.1443376   0.1111111), wk =   0.1666667
        k(    9) = (  -0.2500000  -0.1443376  -0.1111111), wk =   0.1666667
        k(   10) = (   0.2500000   0.1443376  -0.1111111), wk =   0.1666667
        k(   11) = (   0.0000000  -0.2886751   0.1111111), wk =   0.1666667
        k(   12) = (   0.0000000   0.2886751   0.1111111), wk =   0.1666667

     Dense  grid:  3097177 G-vectors     FFT dimensions: ( 150, 150, 360)

     Smooth grid:  1095093 G-vectors     FFT dimensions: ( 108, 108, 240)

     Largest allocated arrays     est. size (Mb)     dimensions
        Kohn-Sham Wavefunctions        28.01 Mb     (    4299,  427)
        NL pseudopotentials            55.23 Mb     (    4299,  842)
        Each V/rho on FFT grid          4.12 Mb     (  270000)
        Each G-vector array             0.74 Mb     (   96788)
        G-vector shells                 0.16 Mb     (   21404)
     Largest temporary arrays     est. size (Mb)     dimensions
        Auxiliary wavefunctions       112.04 Mb     (    4299, 1708)
        Each subspace H/S matrix       44.51 Mb     (    1708, 1708)
        Each <psi_i|beta_j> matrix      5.49 Mb     (     842,  427)
        Arrays for rho mixing          32.96 Mb     (  270000,    8)

     Initial potential from superposition of free atoms
     Check: negative starting charge=   -1.730142

     starting charge  711.25682, renormalised to  712.00000

     negative rho (up, down):  1.732E+00 0.000E+00


     ************************************************************************
     *
     * You are using vdW-DF for exchange-correlation in this calculation.
     * Please cite the following three references that made this development
     * possible:
     *
     *   M. Dion, H. Rydberg, E. Schroder, D. C. Langreth, and
     *   B. I. Lundqvist, Phys. Rev. Lett. 92, 246401 (2004).
     *
     *   T. Thonhauser, V. R. Cooper, S. Li, A. Puzder, P. Hyldgaard, and
     *   D. C. Langreth, Phys. Rev. B 76, 125112 (2007).
     *
     *   G. Roman-Perez and J. M. Soler, Phys. Rev. Lett. 103, 096102 (2009).
     *
     *
     * If you are using vdW-DF2, please also cite:
     *
     *   K. Lee, E. D. Murray, L. Kong, B. I. Lundqvist, and
     *   D. C. Langreth, Phys. Rev. B 82, 081101(R) (2010).
     *
     *
     * If you are calculating the stress with vdW-DF, please also cite:
     *
     *   R. Sabatini, E. Kucukbenli, B. Kolb, T. Thonhauser, and
     *   S. de Gironcoli, J. Phys.: Condens. Matter 24, 424209 (2012).
     *
     ************************************************************************

     Carrying out vdW-DF run using the following parameters:

     Nqs =      20    Nr_points =    1024   r_max =   100.000
     q_mesh =
               0.00001000     0.04494208     0.09755937     0.15916263
               0.23128650     0.31572767     0.41458969     0.53033537
               0.66584808     0.82450364     1.01025438     1.22772762
               1.48234092     1.78043706     2.12944203     2.53805004
               3.01644009     3.57652955     4.23227104     5.00000000

     Gradients computed in reciprocal space

     ************************************************************************


     Starting wfc are  582 randomized atomic wfcs

     total cpu time spent up to now is      151.4 secs

     Self-consistent Calculation

     iteration #  1     ecut=    50.00 Ry     beta=0.70
     Davidson diagonalization with overlap
     ethr =  1.00E-02,  avg # of iterations =  3.0

     Threshold (ethr) on eigenvalues was too large:
     Diagonalizing with lowered threshold

     Davidson diagonalization with overlap
     ethr =  3.55E-04,  avg # of iterations =  5.5

     negative rho (up, down):  1.728E+00 0.000E+00

     total cpu time spent up to now is      780.7 secs

     total energy              =   -6602.76490484 Ry
     Harris-Foulkes estimate   =   -6605.05492517 Ry
     estimated scf accuracy    <       2.86450476 Ry

     iteration #  2     ecut=    50.00 Ry     beta=0.70
     Davidson diagonalization with overlap
     ethr =  4.02E-04,  avg # of iterations = 11.4

     negative rho (up, down):  1.725E+00 0.000E+00

     total cpu time spent up to now is     1816.4 secs

     total energy              =   -6596.20112787 Ry
     Harris-Foulkes estimate   =   -6610.26567361 Ry
     estimated scf accuracy    <      79.98710526 Ry

     iteration #  3     ecut=    50.00 Ry     beta=0.70
     Davidson diagonalization with overlap
     ethr =  4.02E-04,  avg # of iterations =  6.0

     negative rho (up, down):  1.734E+00 0.000E+00

     total cpu time spent up to now is     2444.5 secs

     total energy              =   -6603.08000894 Ry
     Harris-Foulkes estimate   =   -6605.01722644 Ry
     estimated scf accuracy    <       9.11327095 Ry

     iteration #  4     ecut=    50.00 Ry     beta=0.70
     Davidson diagonalization with overlap
     ethr =  4.02E-04,  avg # of iterations =  6.7

     negative rho (up, down):  1.737E+00 0.000E+00

     total cpu time spent up to now is     2841.0 secs

     total energy              =   -6603.52266994 Ry
     Harris-Foulkes estimate   =   -6605.15522271 Ry
     estimated scf accuracy    <      14.83994974 Ry

     iteration #  5     ecut=    50.00 Ry     beta=0.70
     Davidson diagonalization with overlap
     ethr =  4.02E-04,  avg # of iterations =  5.7

     negative rho (up, down):  1.746E+00 0.000E+00

     total cpu time spent up to now is     3203.8 secs

     total energy              =   -6604.30521719 Ry
     Harris-Foulkes estimate   =   -6604.64673323 Ry
     estimated scf accuracy    <       2.54475235 Ry

     iteration #  6     ecut=    50.00 Ry     beta=0.70
     Davidson diagonalization with overlap
     ethr =  3.57E-04,  avg # of iterations =  2.4

     negative rho (up, down):  1.751E+00 0.000E+00

     total cpu time spent up to now is     3488.0 secs

     total energy              =   -6604.42201827 Ry
     Harris-Foulkes estimate   =   -6604.47371283 Ry
     estimated scf accuracy    <       0.15699614 Ry

     iteration #  7     ecut=    50.00 Ry     beta=0.70
     Davidson diagonalization with overlap
     ethr =  2.21E-05,  avg # of iterations = 13.4

     negative rho (up, down):  1.753E+00 0.000E+00

     total cpu time spent up to now is     4043.8 secs

     total energy              =   -6604.43124040 Ry
     Harris-Foulkes estimate   =   -6604.46039871 Ry
     estimated scf accuracy    <       0.12318911 Ry

     iteration #  8     ecut=    50.00 Ry     beta=0.70
     Davidson diagonalization with overlap
     ethr =  1.73E-05,  avg # of iterations =  2.9

     negative rho (up, down):  1.755E+00 0.000E+00

     total cpu time spent up to now is     4336.8 secs

     total energy              =   -6604.43505981 Ry
     Harris-Foulkes estimate   =   -6604.44883416 Ry
     estimated scf accuracy    <       0.05001585 Ry

     iteration #  9     ecut=    50.00 Ry     beta=0.70
     Davidson diagonalization with overlap
     c_bands:  1 eigenvalues not converged
     ethr =  7.02E-06,  avg # of iterations =  9.8

     negative rho (up, down):  1.755E+00 0.000E+00

     total cpu time spent up to now is     4761.3 secs

     total energy              =   -6604.43565717 Ry
     Harris-Foulkes estimate   =   -6604.44226481 Ry
     estimated scf accuracy    <       0.02175304 Ry

     iteration # 10     ecut=    50.00 Ry     beta=0.70
     Davidson diagonalization with overlap
     ethr =  3.06E-06,  avg # of iterations =  9.4

     negative rho (up, down):  1.756E+00 0.000E+00

     total cpu time spent up to now is     5163.4 secs

     total energy              =   -6604.43614872 Ry
     Harris-Foulkes estimate   =   -6604.43851700 Ry
     estimated scf accuracy    <       0.00863352 Ry

     iteration # 11     ecut=    50.00 Ry     beta=0.70
     Davidson diagonalization with overlap
     ethr =  1.21E-06,  avg # of iterations =  9.2

     negative rho (up, down):  1.757E+00 0.000E+00

     total cpu time spent up to now is     5585.8 secs

     total energy              =   -6604.43615683 Ry
     Harris-Foulkes estimate   =   -6604.43726638 Ry
     estimated scf accuracy    <       0.00489035 Ry

     iteration # 12     ecut=    50.00 Ry     beta=0.70
     Davidson diagonalization with overlap
     ethr =  6.87E-07,  avg # of iterations =  4.0

     negative rho (up, down):  1.758E+00 0.000E+00

     total cpu time spent up to now is     5904.5 secs

     total energy              =   -6604.43568004 Ry
     Harris-Foulkes estimate   =   -6604.43657051 Ry
     estimated scf accuracy    <       0.00145714 Ry

     iteration # 13     ecut=    50.00 Ry     beta=0.70
     Davidson diagonalization with overlap
     c_bands:  1 eigenvalues not converged
     ethr =  2.05E-07,  avg # of iterations = 12.3

     negative rho (up, down):  1.758E+00 0.000E+00

     total cpu time spent up to now is     6401.7 secs

     total energy              =   -6604.43591346 Ry
     Harris-Foulkes estimate   =   -6604.43606337 Ry
     estimated scf accuracy    <       0.00039615 Ry

     iteration # 14     ecut=    50.00 Ry     beta=0.70
     Davidson diagonalization with overlap
     ethr =  5.56E-08,  avg # of iterations =  3.0

     negative rho (up, down):  1.757E+00 0.000E+00

     total cpu time spent up to now is     6714.2 secs

     total energy              =   -6604.43598238 Ry
     Harris-Foulkes estimate   =   -6604.43601996 Ry
     estimated scf accuracy    <       0.00012137 Ry

     iteration # 15     ecut=    50.00 Ry     beta=0.70
     Davidson diagonalization with overlap
     ethr =  1.70E-08,  avg # of iterations =  2.0

     negative rho (up, down):  1.757E+00 0.000E+00

     total cpu time spent up to now is     7003.4 secs

     total energy              =   -6604.43599182 Ry
     Harris-Foulkes estimate   =   -6604.43601520 Ry
     estimated scf accuracy    <       0.00008617 Ry

     iteration # 16     ecut=    50.00 Ry     beta=0.70
     Davidson diagonalization with overlap
     ethr =  1.21E-08,  avg # of iterations =  2.0

     negative rho (up, down):  1.757E+00 0.000E+00

     total cpu time spent up to now is     7267.9 secs

     total energy              =   -6604.43599718 Ry
     Harris-Foulkes estimate   =   -6604.43601010 Ry
     estimated scf accuracy    <       0.00006423 Ry

     iteration # 17     ecut=    50.00 Ry     beta=0.70
     Davidson diagonalization with overlap
     ethr =  9.02E-09,  avg # of iterations =  1.0

     negative rho (up, down):  1.757E+00 0.000E+00

     total cpu time spent up to now is     7539.9 secs

     total energy              =   -6604.43599865 Ry
     Harris-Foulkes estimate   =   -6604.43601173 Ry
     estimated scf accuracy    <       0.00011895 Ry

     iteration # 18     ecut=    50.00 Ry     beta=0.70
     Davidson diagonalization with overlap
     ethr =  9.02E-09,  avg # of iterations =  1.0

     negative rho (up, down):  1.757E+00 0.000E+00

     total cpu time spent up to now is     7800.4 secs

     total energy              =   -6604.43600473 Ry
     Harris-Foulkes estimate   =   -6604.43600692 Ry
     estimated scf accuracy    <       0.00001085 Ry

     iteration # 19     ecut=    50.00 Ry     beta=0.70
     Davidson diagonalization with overlap
     ethr =  1.52E-09,  avg # of iterations =  2.0

     negative rho (up, down):  1.757E+00 0.000E+00

     total cpu time spent up to now is     8087.5 secs

     total energy              =   -6604.43600611 Ry
     Harris-Foulkes estimate   =   -6604.43600615 Ry
     estimated scf accuracy    <       0.00000051 Ry

     iteration # 20     ecut=    50.00 Ry     beta=0.70
     Davidson diagonalization with overlap
     ethr =  7.14E-11,  avg # of iterations =  3.0

     negative rho (up, down):  1.757E+00 0.000E+00

     total cpu time spent up to now is     8472.8 secs

     total energy              =   -6604.43600627 Ry
     Harris-Foulkes estimate   =   -6604.43600638 Ry
     estimated scf accuracy    <       0.00000090 Ry

     iteration # 21     ecut=    50.00 Ry     beta=0.70
     Davidson diagonalization with overlap
     ethr =  7.14E-11,  avg # of iterations =  2.0

     negative rho (up, down):  1.757E+00 0.000E+00

     total cpu time spent up to now is     8753.0 secs

     total energy              =   -6604.43600643 Ry
     Harris-Foulkes estimate   =   -6604.43600643 Ry
     estimated scf accuracy    <       0.00000030 Ry

     iteration # 22     ecut=    50.00 Ry     beta=0.70
     Davidson diagonalization with overlap
     ethr =  4.24E-11,  avg # of iterations =  2.0

     negative rho (up, down):  1.757E+00 0.000E+00

     total cpu time spent up to now is     9018.6 secs

     total energy              =   -6604.43600643 Ry
     Harris-Foulkes estimate   =   -6604.43600647 Ry
     estimated scf accuracy    <       0.00000005 Ry

     iteration # 23     ecut=    50.00 Ry     beta=0.70
     Davidson diagonalization with overlap
     ethr =  6.87E-12,  avg # of iterations =  3.0

     negative rho (up, down):  1.757E+00 0.000E+00

     total cpu time spent up to now is     9383.1 secs

     total energy              =   -6604.43600645 Ry
     Harris-Foulkes estimate   =   -6604.43600646 Ry
     estimated scf accuracy    <       0.00000008 Ry

     iteration # 24     ecut=    50.00 Ry     beta=0.70
     Davidson diagonalization with overlap
     ethr =  6.87E-12,  avg # of iterations =  2.0

     negative rho (up, down):  1.757E+00 0.000E+00

     total cpu time spent up to now is     9670.0 secs

     total energy              =   -6604.43600647 Ry
     Harris-Foulkes estimate   =   -6604.43600646 Ry
     estimated scf accuracy    <       0.00000001 Ry

     iteration # 25     ecut=    50.00 Ry     beta=0.70
     Davidson diagonalization with overlap
     ethr =  1.57E-12,  avg # of iterations =  2.0

     negative rho (up, down):  1.757E+00 0.000E+00

     total cpu time spent up to now is     9951.9 secs

     End of self-consistent calculation

          k = 0.2500 0.4330 0.1111 (136853 PWs)   bands (ev):

   -19.0845  -6.8900  -6.2078  -5.8085  -5.8084  -5.1311  -4.7971  -4.7970
    -4.7585  -4.7582  -4.3967  -4.3966  -4.2981  -4.2980  -4.2840  -4.2627
    -4.2374  -4.1306  -4.1302  -4.1062  -4.0627  -4.0626  -3.9938  -3.9938
    -3.9882  -3.9871  -3.9656  -3.9602  -3.9597  -3.8890  -3.8877  -3.8574
    -3.8572  -3.8452  -3.8451  -3.8219  -3.8218  -3.7993  -3.7909  -3.7906
    -3.7648  -3.7120  -3.7117  -3.6641  -3.6636  -3.6055  -3.6047  -3.5521
    -3.5498  -3.5496  -3.5494  -3.5140  -3.4762  -3.4746  -3.4684  -3.4672
    -3.4669  -3.4384  -3.4366  -3.4279  -3.3684  -3.3656  -3.3581  -3.3420
    -3.3333  -3.2865  -3.2600  -3.2405  -3.2267  -3.2189  -3.1986  -3.1964
    -3.1851  -3.1647  -3.1083  -3.1060  -3.0908  -3.0894  -3.0387  -3.0338
    -3.0331  -2.9956  -2.9643  -2.9634  -2.9552  -2.9536  -2.9418  -2.9410
    -2.9340  -2.9335  -2.9236  -2.8829  -2.8455  -2.8445  -2.8308  -2.8304
    -2.8048  -2.7949  -2.7946  -2.7717  -2.7285  -2.7271  -2.7192  -2.6800
    -2.6731  -2.6620  -2.6611  -2.6325  -2.6323  -2.6028  -2.5657  -2.5654
    -2.5432  -2.5359  -2.5222  -2.5215  -2.4713  -2.4709  -2.4385  -2.4156
    -2.4155  -2.3914  -2.3911  -2.3799  -2.3797  -2.3691  -2.3466  -2.3464
    -2.3018  -2.3013  -2.3002  -2.2834  -2.2832  -2.2779  -2.2685  -2.2678
    -2.2658  -2.2655  -2.2596  -2.2472  -2.2466  -2.2372  -2.2107  -2.2105
    -2.2090  -2.2081  -2.2069  -2.2049  -2.2038  -2.1768  -2.1737  -2.1596
    -2.1594  -2.1415  -2.1410  -2.1314  -2.1311  -2.1300  -2.1292  -2.1102
    -2.1087  -2.1077  -2.1070  -2.0898  -2.0641  -2.0634  -2.0239  -2.0233
    -1.9982  -1.9980  -1.9710  -1.9701  -1.9431  -1.9428  -1.9262  -1.9211
    -1.8944  -1.8727  -1.8719  -1.8670  -1.8652  -1.8618  -1.8549  -1.8525
    -1.8280  -1.8216  -1.8116  -1.7560  -1.7519  -1.7501  -1.7482  -1.7468
    -1.7109  -1.6921  -1.6918  -1.6642  -1.6630  -1.6034  -1.6030  -1.5739
    -1.5565  -1.5539  -1.4950  -1.4945  -1.4831  -1.4820  -1.4719  -1.4710
    -1.4677  -1.4586  -1.4581  -1.4057  -1.4012  -1.3907  -1.3902  -1.3884
    -1.3725  -1.3709  -1.3357  -1.3345  -1.3176  -1.3173  -1.3170  -1.3100
    -1.3050  -1.2965  -1.2954  -1.2765  -1.2759  -1.2391  -1.2320  -1.2244
    -1.2225  -1.2025  -1.1887  -1.1495  -1.1449  -1.1200  -1.1172  -1.1138
    -1.0935  -1.0826  -1.0330  -1.0316  -1.0308  -1.0289  -1.0244  -1.0227
    -1.0130  -0.9962  -0.9945  -0.9562  -0.9555  -0.9255  -0.9249  -0.9197
    -0.9185  -0.9120  -0.8958  -0.8954  -0.8941  -0.8916  -0.8896  -0.8549
    -0.8518  -0.8509  -0.8497  -0.8201  -0.8188  -0.8152  -0.7921  -0.7842
    -0.7829  -0.7375  -0.7311  -0.7284  -0.6954  -0.6870  -0.6764  -0.6763
    -0.6685  -0.6682  -0.6669  -0.6638  -0.6549  -0.6526  -0.6284  -0.6279
    -0.6251  -0.6234  -0.6217  -0.5858  -0.5854  -0.5746  -0.5734  -0.5587
    -0.5522  -0.5493  -0.5395  -0.4842  -0.4819  -0.4732  -0.4730  -0.4716
    -0.4709  -0.4655  -0.4473  -0.4448  -0.4379  -0.4375  -0.4358  -0.4334
    -0.3960  -0.3940  -0.3931  -0.3856  -0.3843  -0.3795  -0.3776  -0.3669
    -0.3616  -0.3586  -0.3554  -0.3162  -0.3157  -0.3075  -0.3039  -0.3032
    -0.2266  -0.2258  -0.2236  -0.2227  -0.2141  -0.2131  -0.1774  -0.1648
    -0.1643  -0.1383  -0.1327  -0.1274  -0.0120  -0.0094   0.0913   0.5068
     0.5072   0.5099   0.5101   0.5693   0.5762   0.9597   0.9602   1.0024
     1.0031   1.1115   1.1923   1.2993   1.3082   1.5182   1.5351   2.1560
     2.1592   2.3172   2.3223   2.4480   2.4573   2.5557   2.5558   2.7099
     2.9473   2.9479   3.0711   3.2916   3.3013   3.3789   3.3800   3.4792
     3.4950   3.6794   3.6900   3.7512   3.9519   3.9525   4.0127   4.0178
     4.2716   4.2761   4.2850   4.5223   4.5631   4.5659   4.6103   4.9441
     4.9478   4.9753   5.0633   5.1110   5.2826   5.2833   5.3308   5.3689
     5.7125   5.9418   6.0541   6.0694   6.0739   6.0855   6.1442   6.1456
     6.2052   6.2534   6.2790   6.3021   6.3063   6.3147   6.3187   6.3546
     6.3670   6.3845   6.5023   6.5864   6.7143   6.7806   6.9070   6.9807
     7.0103   7.0132   7.0262

          k = 0.2500-0.1443 0.1111 (136898 PWs)   bands (ev):

   -19.0845  -6.8900  -6.4178  -5.6257  -5.3351  -5.2755  -5.2752  -4.7371
    -4.7368  -4.6057  -4.6049  -4.4508  -4.4195  -4.3573  -4.3243  -4.3242
    -4.2903  -4.2903  -4.1616  -4.1198  -4.1197  -4.0601  -4.0393  -4.0391
    -3.9364  -3.9363  -3.9003  -3.9000  -3.9000  -3.8734  -3.8515  -3.8514
    -3.7476  -3.7443  -3.7443  -3.7239  -3.7069  -3.7067  -3.6947  -3.6945
    -3.6815  -3.6514  -3.6508  -3.6505  -3.6502  -3.6183  -3.6179  -3.6001
    -3.6001  -3.5863  -3.5435  -3.5420  -3.5139  -3.4994  -3.4970  -3.4916
    -3.4916  -3.4177  -3.4170  -3.3875  -3.3817  -3.3795  -3.3125  -3.3116
    -3.3055  -3.2963  -3.2727  -3.2649  -3.2645  -3.2639  -3.2347  -3.1107
    -3.1082  -3.0848  -3.0843  -3.0794  -3.0636  -3.0615  -3.0375  -3.0362
    -2.9877  -2.9864  -2.9714  -2.9705  -2.9503  -2.9023  -2.9021  -2.8824
    -2.8779  -2.8767  -2.8368  -2.8361  -2.8300  -2.8285  -2.8138  -2.8115
    -2.7739  -2.7734  -2.7520  -2.7518  -2.7487  -2.7476  -2.7447  -2.6686
    -2.6680  -2.6661  -2.6381  -2.6364  -2.5761  -2.5760  -2.5473  -2.5465
    -2.5335  -2.5327  -2.5273  -2.4982  -2.4981  -2.4882  -2.4708  -2.4455
    -2.4451  -2.4447  -2.4243  -2.4240  -2.4130  -2.4121  -2.4099  -2.4085
    -2.4008  -2.3547  -2.3226  -2.3224  -2.3066  -2.2927  -2.2863  -2.2863
    -2.2792  -2.2781  -2.2770  -2.2474  -2.2471  -2.2463  -2.2372  -2.2365
    -2.2200  -2.1927  -2.1919  -2.1916  -2.1909  -2.1889  -2.1451  -2.1137
    -2.1136  -2.1126  -2.1067  -2.0975  -2.0849  -2.0848  -2.0678  -2.0677
    -2.0342  -2.0330  -2.0326  -2.0143  -2.0131  -2.0128  -1.9801  -1.9794
    -1.9385  -1.9372  -1.9307  -1.9286  -1.9280  -1.9221  -1.9214  -1.9193
    -1.9184  -1.9130  -1.9114  -1.8956  -1.8948  -1.7687  -1.7680  -1.7357
    -1.7304  -1.7288  -1.7237  -1.7230  -1.7061  -1.7054  -1.7035  -1.7032
    -1.7003  -1.6779  -1.6710  -1.6703  -1.6639  -1.6581  -1.6554  -1.6349
    -1.6343  -1.6061  -1.6060  -1.5749  -1.5742  -1.5634  -1.5556  -1.5377
    -1.5364  -1.5342  -1.5160  -1.5035  -1.5029  -1.4961  -1.4957  -1.4696
    -1.4692  -1.4529  -1.4524  -1.4209  -1.4180  -1.4113  -1.3597  -1.3591
    -1.3478  -1.3468  -1.3431  -1.3202  -1.3176  -1.2847  -1.2842  -1.2832
    -1.2526  -1.2409  -1.2389  -1.2239  -1.2237  -1.2021  -1.1963  -1.1950
    -1.1657  -1.1641  -1.1629  -1.1070  -1.1003  -1.0967  -1.0867  -1.0855
    -1.0706  -1.0690  -1.0581  -1.0517  -1.0396  -1.0269  -0.9992  -0.9981
    -0.9864  -0.9561  -0.9496  -0.9469  -0.9372  -0.9369  -0.9350  -0.9304
    -0.9255  -0.9161  -0.8859  -0.8849  -0.8759  -0.8739  -0.8728  -0.8650
    -0.8488  -0.8313  -0.8259  -0.8100  -0.8049  -0.7157  -0.7029  -0.6973
    -0.6969  -0.6927  -0.6880  -0.6856  -0.6636  -0.6617  -0.6475  -0.6446
    -0.6319  -0.6300  -0.6225  -0.6032  -0.6002  -0.5989  -0.5918  -0.5197
    -0.5193  -0.4870  -0.4831  -0.4813  -0.4754  -0.4732  -0.4726  -0.4711
    -0.4605  -0.4571  -0.4418  -0.4181  -0.4034  -0.3844  -0.3830  -0.3731
    -0.3712  -0.3604  -0.3590  -0.3582  -0.3570  -0.3550  -0.3394  -0.3354
    -0.3333  -0.3043  -0.3031  -0.3011  -0.2903  -0.2897  -0.2708  -0.2391
    -0.2380  -0.2298  -0.2283  -0.1615  -0.1605  -0.1242  -0.1239  -0.0666
    -0.0646  -0.0641  -0.0510  -0.0358   0.1839   0.1959   0.5352   0.5353
     0.6225   0.6334   0.8184   0.8410   0.8531   0.9825   0.9851   1.4154
     1.4155   1.4336   1.6923   1.7253   1.7255   1.9959   2.0108   2.0810
     2.0821   2.1055   2.1158   2.3378   2.3381   2.4263   2.4270   2.4941
     2.5595   2.5769   2.7305   2.8289   3.2669   3.2690   3.2703   3.2769
     3.3265   3.3274   3.6194   3.6199   3.8963   3.9062   3.9965   4.3155
     4.3551   4.3620   4.5576   4.5732   4.6577   4.6616   4.7498   4.8664
     4.8723   4.9844   4.9875   5.0459   5.2896   5.3550   5.3631   5.4991
     5.5330   5.7449   5.7465   5.7570   5.7729   5.7745   5.8339   5.8367
     5.8873   6.0352   6.2251   6.2640   6.4396   6.4492   6.5760   6.5791
     6.5831   6.5895   6.6096   6.7468   6.8157   6.8308   6.8370   6.9809
     7.0185   7.0414   7.0673

          k =-0.2500-0.4330 0.1111 (136853 PWs)   bands (ev):

   -19.0845  -6.8900  -6.2078  -5.8085  -5.8084  -5.1311  -4.7971  -4.7970
    -4.7585  -4.7582  -4.3967  -4.3966  -4.2981  -4.2980  -4.2840  -4.2627
    -4.2374  -4.1306  -4.1302  -4.1062  -4.0627  -4.0626  -3.9938  -3.9938
    -3.9882  -3.9871  -3.9656  -3.9602  -3.9597  -3.8890  -3.8877  -3.8574
    -3.8572  -3.8452  -3.8451  -3.8219  -3.8218  -3.7993  -3.7909  -3.7906
    -3.7648  -3.7120  -3.7117  -3.6641  -3.6636  -3.6055  -3.6047  -3.5521
    -3.5498  -3.5496  -3.5494  -3.5140  -3.4762  -3.4746  -3.4684  -3.4672
    -3.4669  -3.4384  -3.4366  -3.4279  -3.3684  -3.3656  -3.3581  -3.3420
    -3.3333  -3.2865  -3.2600  -3.2405  -3.2267  -3.2189  -3.1986  -3.1964
    -3.1851  -3.1647  -3.1083  -3.1060  -3.0908  -3.0894  -3.0387  -3.0338
    -3.0331  -2.9956  -2.9643  -2.9634  -2.9552  -2.9536  -2.9418  -2.9410
    -2.9340  -2.9335  -2.9236  -2.8829  -2.8455  -2.8445  -2.8308  -2.8304
    -2.8048  -2.7949  -2.7946  -2.7717  -2.7285  -2.7271  -2.7192  -2.6800
    -2.6731  -2.6620  -2.6611  -2.6325  -2.6323  -2.6028  -2.5657  -2.5654
    -2.5432  -2.5359  -2.5222  -2.5215  -2.4713  -2.4709  -2.4385  -2.4156
    -2.4155  -2.3914  -2.3911  -2.3799  -2.3797  -2.3691  -2.3466  -2.3464
    -2.3018  -2.3013  -2.3002  -2.2834  -2.2832  -2.2779  -2.2685  -2.2678
    -2.2658  -2.2655  -2.2596  -2.2472  -2.2466  -2.2372  -2.2107  -2.2105
    -2.2090  -2.2081  -2.2069  -2.2049  -2.2038  -2.1768  -2.1737  -2.1596
    -2.1594  -2.1415  -2.1410  -2.1314  -2.1311  -2.1300  -2.1292  -2.1102
    -2.1087  -2.1077  -2.1070  -2.0898  -2.0641  -2.0634  -2.0239  -2.0233
    -1.9982  -1.9980  -1.9710  -1.9701  -1.9431  -1.9428  -1.9262  -1.9211
    -1.8944  -1.8727  -1.8719  -1.8670  -1.8652  -1.8618  -1.8549  -1.8525
    -1.8280  -1.8216  -1.8116  -1.7560  -1.7519  -1.7501  -1.7482  -1.7468
    -1.7109  -1.6921  -1.6918  -1.6642  -1.6630  -1.6034  -1.6030  -1.5739
    -1.5565  -1.5539  -1.4950  -1.4945  -1.4831  -1.4820  -1.4719  -1.4710
    -1.4677  -1.4586  -1.4581  -1.4057  -1.4012  -1.3907  -1.3902  -1.3884
    -1.3725  -1.3709  -1.3357  -1.3345  -1.3176  -1.3173  -1.3170  -1.3100
    -1.3050  -1.2965  -1.2954  -1.2765  -1.2758  -1.2391  -1.2320  -1.2244
    -1.2225  -1.2025  -1.1887  -1.1495  -1.1449  -1.1200  -1.1172  -1.1138
    -1.0935  -1.0826  -1.0330  -1.0316  -1.0308  -1.0289  -1.0244  -1.0227
    -1.0130  -0.9962  -0.9945  -0.9562  -0.9555  -0.9255  -0.9249  -0.9197
    -0.9185  -0.9120  -0.8958  -0.8954  -0.8941  -0.8916  -0.8896  -0.8549
    -0.8518  -0.8509  -0.8497  -0.8201  -0.8188  -0.8152  -0.7921  -0.7842
    -0.7829  -0.7375  -0.7311  -0.7284  -0.6954  -0.6870  -0.6764  -0.6763
    -0.6685  -0.6682  -0.6669  -0.6638  -0.6549  -0.6526  -0.6284  -0.6279
    -0.6251  -0.6234  -0.6217  -0.5858  -0.5854  -0.5746  -0.5734  -0.5587
    -0.5522  -0.5493  -0.5395  -0.4842  -0.4819  -0.4732  -0.4730  -0.4716
    -0.4709  -0.4655  -0.4473  -0.4448  -0.4379  -0.4375  -0.4358  -0.4334
    -0.3960  -0.3940  -0.3931  -0.3856  -0.3843  -0.3795  -0.3776  -0.3669
    -0.3616  -0.3586  -0.3554  -0.3162  -0.3157  -0.3075  -0.3039  -0.3032
    -0.2266  -0.2258  -0.2236  -0.2227  -0.2141  -0.2131  -0.1774  -0.1648
    -0.1643  -0.1383  -0.1327  -0.1274  -0.0120  -0.0094   0.0913   0.5068
     0.5072   0.5099   0.5101   0.5693   0.5762   0.9597   0.9602   1.0024
     1.0031   1.1115   1.1923   1.2993   1.3082   1.5182   1.5351   2.1560
     2.1592   2.3172   2.3223   2.4480   2.4573   2.5557   2.5558   2.7099
     2.9473   2.9479   3.0711   3.2916   3.3013   3.3789   3.3800   3.4792
     3.4950   3.6794   3.6900   3.7512   3.9519   3.9525   4.0127   4.0178
     4.2716   4.2761   4.2850   4.5223   4.5631   4.5659   4.6103   4.9441
     4.9478   4.9753   5.0633   5.1110   5.2826   5.2833   5.3308   5.3689
     5.7124   5.9419   6.0545   6.0694   6.0739   6.0854   6.1442   6.1456
     6.2052   6.2534   6.2790   6.3021   6.3063   6.3147   6.3187   6.3545
     6.3670   6.3844   6.5023   6.5846   6.7157   6.7804   6.9098   6.9803
     7.0099   7.0136   7.0260

          k =-0.2500 0.4330-0.1111 (136853 PWs)   bands (ev):

   -19.0845  -6.8900  -6.2078  -5.8099  -5.8070  -5.1311  -4.7974  -4.7967
    -4.7598  -4.7569  -4.3972  -4.3960  -4.2982  -4.2979  -4.2838  -4.2627
    -4.2374  -4.1312  -4.1298  -4.1063  -4.0628  -4.0626  -3.9940  -3.9937
    -3.9881  -3.9872  -3.9655  -3.9613  -3.9586  -3.8892  -3.8874  -3.8580
    -3.8563  -3.8453  -3.8450  -3.8219  -3.8217  -3.7993  -3.7911  -3.7906
    -3.7649  -3.7122  -3.7117  -3.6649  -3.6628  -3.6057  -3.6046  -3.5518
    -3.5500  -3.5497  -3.5493  -3.5142  -3.4764  -3.4746  -3.4683  -3.4673
    -3.4669  -3.4382  -3.4368  -3.4279  -3.3684  -3.3657  -3.3579  -3.3419
    -3.3330  -3.2868  -3.2602  -3.2404  -3.2267  -3.2187  -3.1987  -3.1961
    -3.1850  -3.1649  -3.1086  -3.1062  -3.0908  -3.0890  -3.0386  -3.0337
    -3.0332  -2.9955  -2.9642  -2.9634  -2.9555  -2.9532  -2.9420  -2.9415
    -2.9338  -2.9330  -2.9237  -2.8828  -2.8462  -2.8439  -2.8310  -2.8300
    -2.8049  -2.7949  -2.7946  -2.7717  -2.7291  -2.7265  -2.7194  -2.6798
    -2.6730  -2.6626  -2.6603  -2.6330  -2.6320  -2.6029  -2.5656  -2.5652
    -2.5432  -2.5359  -2.5225  -2.5214  -2.4715  -2.4708  -2.4383  -2.4158
    -2.4156  -2.3916  -2.3911  -2.3801  -2.3792  -2.3692  -2.3471  -2.3461
    -2.3015  -2.3010  -2.3003  -2.2841  -2.2825  -2.2780  -2.2685  -2.2678
    -2.2662  -2.2653  -2.2595  -2.2477  -2.2457  -2.2378  -2.2106  -2.2103
    -2.2091  -2.2082  -2.2069  -2.2050  -2.2033  -2.1769  -2.1738  -2.1597
    -2.1591  -2.1418  -2.1407  -2.1314  -2.1310  -2.1302  -2.1290  -2.1112
    -2.1089  -2.1072  -2.1064  -2.0899  -2.0645  -2.0634  -2.0248  -2.0225
    -1.9988  -1.9974  -1.9709  -1.9698  -1.9431  -1.9426  -1.9262  -1.9210
    -1.8943  -1.8727  -1.8718  -1.8674  -1.8650  -1.8616  -1.8555  -1.8521
    -1.8280  -1.8210  -1.8115  -1.7561  -1.7525  -1.7501  -1.7481  -1.7471
    -1.7115  -1.6928  -1.6910  -1.6645  -1.6629  -1.6040  -1.6023  -1.5743
    -1.5566  -1.5534  -1.4951  -1.4941  -1.4835  -1.4819  -1.4723  -1.4705
    -1.4678  -1.4591  -1.4576  -1.4034  -1.4014  -1.3912  -1.3903  -1.3888
    -1.3714  -1.3692  -1.3374  -1.3350  -1.3176  -1.3171  -1.3165  -1.3098
    -1.3070  -1.2971  -1.2962  -1.2763  -1.2759  -1.2360  -1.2339  -1.2229
    -1.2210  -1.2018  -1.1888  -1.1536  -1.1462  -1.1259  -1.1179  -1.1140
    -1.0869  -1.0794  -1.0335  -1.0319  -1.0310  -1.0294  -1.0262  -1.0208
    -1.0134  -0.9964  -0.9948  -0.9568  -0.9544  -0.9260  -0.9238  -0.9200
    -0.9192  -0.9116  -0.8961  -0.8944  -0.8942  -0.8913  -0.8898  -0.8568
    -0.8520  -0.8509  -0.8469  -0.8208  -0.8199  -0.8151  -0.7920  -0.7852
    -0.7819  -0.7380  -0.7317  -0.7273  -0.6955  -0.6869  -0.6763  -0.6762
    -0.6687  -0.6679  -0.6675  -0.6636  -0.6553  -0.6519  -0.6289  -0.6277
    -0.6251  -0.6238  -0.6216  -0.5858  -0.5852  -0.5764  -0.5726  -0.5583
    -0.5527  -0.5488  -0.5393  -0.4842  -0.4817  -0.4734  -0.4728  -0.4722
    -0.4704  -0.4655  -0.4477  -0.4447  -0.4377  -0.4373  -0.4360  -0.4333
    -0.3960  -0.3942  -0.3927  -0.3861  -0.3838  -0.3791  -0.3779  -0.3672
    -0.3613  -0.3590  -0.3550  -0.3168  -0.3152  -0.3077  -0.3041  -0.3030
    -0.2269  -0.2257  -0.2235  -0.2223  -0.2142  -0.2131  -0.1773  -0.1650
    -0.1642  -0.1403  -0.1326  -0.1257  -0.0129  -0.0079   0.0917   0.5067
     0.5074   0.5097   0.5103   0.5671   0.5775   0.9596   0.9598   1.0016
     1.0039   1.1123   1.1925   1.2974   1.3110   1.5150   1.5375   2.1546
     2.1602   2.3153   2.3247   2.4449   2.4600   2.5553   2.5561   2.7097
     2.9473   2.9486   3.0707   3.2896   3.3028   3.3785   3.3810   3.4785
     3.4950   3.6725   3.6955   3.7515   3.9513   3.9532   4.0113   4.0209
     4.2710   4.2743   4.2865   4.5230   4.5628   4.5661   4.6100   4.9430
     4.9488   4.9744   5.0705   5.1126   5.2824   5.2840   5.3166   5.3606
     5.7785   5.8755   6.0686   6.0724   6.0754   6.0972   6.1442   6.1460
     6.2133   6.2541   6.2798   6.3036   6.3059   6.3081   6.3215   6.3626
     6.3673   6.3999   6.4197   6.6016   6.7124   6.7742   6.9305   6.9637
     7.0084   7.0170   7.0257

          k = 0.2500-0.4330-0.1111 (136853 PWs)   bands (ev):

   -19.0845  -6.8900  -6.2078  -5.8099  -5.8070  -5.1311  -4.7974  -4.7967
    -4.7598  -4.7569  -4.3972  -4.3960  -4.2982  -4.2979  -4.2838  -4.2627
    -4.2374  -4.1312  -4.1298  -4.1063  -4.0628  -4.0626  -3.9939  -3.9937
    -3.9881  -3.9872  -3.9655  -3.9613  -3.9586  -3.8892  -3.8874  -3.8580
    -3.8563  -3.8453  -3.8450  -3.8219  -3.8217  -3.7993  -3.7911  -3.7906
    -3.7649  -3.7122  -3.7117  -3.6649  -3.6628  -3.6057  -3.6046  -3.5519
    -3.5500  -3.5497  -3.5493  -3.5142  -3.4764  -3.4746  -3.4683  -3.4673
    -3.4669  -3.4382  -3.4368  -3.4279  -3.3684  -3.3657  -3.3579  -3.3419
    -3.3330  -3.2868  -3.2602  -3.2404  -3.2267  -3.2187  -3.1987  -3.1961
    -3.1850  -3.1649  -3.1086  -3.1062  -3.0908  -3.0890  -3.0386  -3.0337
    -3.0332  -2.9955  -2.9642  -2.9634  -2.9555  -2.9532  -2.9420  -2.9415
    -2.9338  -2.9330  -2.9237  -2.8828  -2.8462  -2.8439  -2.8310  -2.8300
    -2.8049  -2.7949  -2.7946  -2.7717  -2.7291  -2.7265  -2.7194  -2.6798
    -2.6730  -2.6626  -2.6603  -2.6330  -2.6320  -2.6029  -2.5656  -2.5652
    -2.5432  -2.5359  -2.5225  -2.5214  -2.4715  -2.4708  -2.4383  -2.4158
    -2.4156  -2.3916  -2.3911  -2.3801  -2.3792  -2.3692  -2.3471  -2.3461
    -2.3015  -2.3010  -2.3003  -2.2841  -2.2825  -2.2780  -2.2685  -2.2678
    -2.2662  -2.2653  -2.2595  -2.2478  -2.2457  -2.2378  -2.2106  -2.2103
    -2.2091  -2.2082  -2.2069  -2.2050  -2.2033  -2.1769  -2.1738  -2.1597
    -2.1591  -2.1418  -2.1407  -2.1314  -2.1310  -2.1302  -2.1290  -2.1112
    -2.1089  -2.1072  -2.1064  -2.0899  -2.0645  -2.0634  -2.0248  -2.0225
    -1.9988  -1.9974  -1.9709  -1.9698  -1.9431  -1.9426  -1.9262  -1.9210
    -1.8943  -1.8727  -1.8718  -1.8674  -1.8650  -1.8616  -1.8555  -1.8521
    -1.8280  -1.8210  -1.8115  -1.7561  -1.7525  -1.7501  -1.7481  -1.7471
    -1.7115  -1.6928  -1.6910  -1.6645  -1.6629  -1.6040  -1.6023  -1.5743
    -1.5566  -1.5534  -1.4951  -1.4941  -1.4835  -1.4819  -1.4723  -1.4705
    -1.4678  -1.4591  -1.4576  -1.4034  -1.4014  -1.3912  -1.3903  -1.3888
    -1.3714  -1.3692  -1.3374  -1.3350  -1.3176  -1.3171  -1.3165  -1.3098
    -1.3070  -1.2971  -1.2962  -1.2763  -1.2759  -1.2360  -1.2339  -1.2229
    -1.2210  -1.2018  -1.1888  -1.1536  -1.1462  -1.1259  -1.1179  -1.1140
    -1.0869  -1.0794  -1.0335  -1.0319  -1.0310  -1.0294  -1.0262  -1.0208
    -1.0134  -0.9964  -0.9948  -0.9568  -0.9544  -0.9260  -0.9238  -0.9200
    -0.9192  -0.9116  -0.8961  -0.8944  -0.8942  -0.8913  -0.8898  -0.8568
    -0.8520  -0.8509  -0.8469  -0.8208  -0.8199  -0.8151  -0.7920  -0.7852
    -0.7819  -0.7380  -0.7317  -0.7273  -0.6955  -0.6869  -0.6763  -0.6762
    -0.6687  -0.6679  -0.6675  -0.6636  -0.6553  -0.6519  -0.6289  -0.6277
    -0.6251  -0.6238  -0.6216  -0.5858  -0.5852  -0.5764  -0.5726  -0.5583
    -0.5527  -0.5488  -0.5393  -0.4842  -0.4817  -0.4734  -0.4728  -0.4722
    -0.4704  -0.4655  -0.4477  -0.4447  -0.4377  -0.4373  -0.4360  -0.4333
    -0.3960  -0.3942  -0.3927  -0.3861  -0.3838  -0.3791  -0.3779  -0.3672
    -0.3613  -0.3590  -0.3550  -0.3168  -0.3152  -0.3077  -0.3041  -0.3030
    -0.2269  -0.2257  -0.2235  -0.2223  -0.2142  -0.2131  -0.1773  -0.1650
    -0.1642  -0.1403  -0.1326  -0.1257  -0.0129  -0.0079   0.0917   0.5067
     0.5074   0.5097   0.5103   0.5671   0.5775   0.9596   0.9598   1.0016
     1.0039   1.1123   1.1925   1.2974   1.3110   1.5150   1.5375   2.1546
     2.1602   2.3153   2.3247   2.4449   2.4600   2.5553   2.5561   2.7097
     2.9473   2.9486   3.0707   3.2896   3.3028   3.3785   3.3810   3.4785
     3.4950   3.6725   3.6955   3.7515   3.9513   3.9532   4.0113   4.0209
     4.2710   4.2743   4.2865   4.5230   4.5628   4.5661   4.6100   4.9430
     4.9488   4.9744   5.0705   5.1126   5.2824   5.2840   5.3166   5.3606
     5.7786   5.8754   6.0686   6.0724   6.0754   6.0971   6.1442   6.1460
     6.2133   6.2541   6.2798   6.3036   6.3058   6.3082   6.3215   6.3625
     6.3674   6.3993   6.4205   6.6021   6.7121   6.7742   6.9304   6.9636
     7.0083   7.0173   7.0253

          k = 0.5000 0.0000 0.1111 (136853 PWs)   bands (ev):

   -19.0845  -6.8900  -6.2078  -5.8099  -5.8070  -5.1311  -4.7979  -4.7961
    -4.7598  -4.7569  -4.3974  -4.3959  -4.2981  -4.2979  -4.2838  -4.2627
    -4.2374  -4.1310  -4.1300  -4.1063  -4.0628  -4.0626  -3.9939  -3.9936
    -3.9882  -3.9871  -3.9655  -3.9616  -3.9583  -3.8899  -3.8868  -3.8581
    -3.8561  -3.8454  -3.8448  -3.8219  -3.8218  -3.7993  -3.7911  -3.7905
    -3.7649  -3.7123  -3.7116  -3.6651  -3.6626  -3.6056  -3.6046  -3.5524
    -3.5501  -3.5494  -3.5489  -3.5142  -3.4763  -3.4747  -3.4683  -3.4673
    -3.4670  -3.4382  -3.4369  -3.4279  -3.3686  -3.3656  -3.3579  -3.3418
    -3.3331  -3.2863  -3.2606  -3.2404  -3.2271  -3.2185  -3.1981  -3.1967
    -3.1850  -3.1648  -3.1083  -3.1064  -3.0908  -3.0891  -3.0387  -3.0338
    -3.0331  -2.9955  -2.9647  -2.9630  -2.9550  -2.9537  -2.9418  -2.9408
    -2.9340  -2.9338  -2.9237  -2.8828  -2.8455  -2.8446  -2.8310  -2.8301
    -2.8048  -2.7949  -2.7946  -2.7717  -2.7280  -2.7277  -2.7194  -2.6799
    -2.6731  -2.6621  -2.6607  -2.6329  -2.6323  -2.6029  -2.5657  -2.5650
    -2.5432  -2.5359  -2.5223  -2.5216  -2.4714  -2.4709  -2.4383  -2.4159
    -2.4156  -2.3915  -2.3913  -2.3801  -2.3793  -2.3692  -2.3470  -2.3461
    -2.3018  -2.3007  -2.3002  -2.2841  -2.2825  -2.2779  -2.2684  -2.2678
    -2.2661  -2.2654  -2.2596  -2.2474  -2.2462  -2.2373  -2.2107  -2.2103
    -2.2090  -2.2080  -2.2070  -2.2048  -2.2035  -2.1770  -2.1738  -2.1596
    -2.1594  -2.1418  -2.1408  -2.1313  -2.1311  -2.1304  -2.1288  -2.1101
    -2.1090  -2.1076  -2.1071  -2.0897  -2.0642  -2.0637  -2.0248  -2.0225
    -1.9989  -1.9975  -1.9709  -1.9699  -1.9432  -1.9426  -1.9262  -1.9210
    -1.8943  -1.8727  -1.8717  -1.8672  -1.8650  -1.8619  -1.8552  -1.8523
    -1.8280  -1.8212  -1.8115  -1.7560  -1.7525  -1.7500  -1.7480  -1.7473
    -1.7111  -1.6927  -1.6911  -1.6642  -1.6631  -1.6035  -1.6027  -1.5742
    -1.5565  -1.5537  -1.4950  -1.4944  -1.4831  -1.4821  -1.4719  -1.4710
    -1.4678  -1.4587  -1.4581  -1.4046  -1.4015  -1.3911  -1.3903  -1.3885
    -1.3716  -1.3709  -1.3363  -1.3348  -1.3177  -1.3173  -1.3169  -1.3097
    -1.3056  -1.2968  -1.2956  -1.2768  -1.2754  -1.2382  -1.2323  -1.2233
    -1.2225  -1.2022  -1.1887  -1.1514  -1.1450  -1.1222  -1.1176  -1.1141
    -1.0904  -1.0820  -1.0333  -1.0314  -1.0308  -1.0292  -1.0249  -1.0223
    -1.0133  -0.9962  -0.9946  -0.9563  -0.9552  -0.9257  -0.9246  -0.9199
    -0.9186  -0.9117  -0.8957  -0.8952  -0.8940  -0.8915  -0.8897  -0.8554
    -0.8519  -0.8509  -0.8488  -0.8201  -0.8192  -0.8153  -0.7923  -0.7841
    -0.7828  -0.7377  -0.7313  -0.7279  -0.6954  -0.6869  -0.6765  -0.6761
    -0.6685  -0.6681  -0.6672  -0.6637  -0.6552  -0.6522  -0.6288  -0.6276
    -0.6252  -0.6238  -0.6216  -0.5859  -0.5852  -0.5754  -0.5730  -0.5587
    -0.5523  -0.5492  -0.5393  -0.4841  -0.4819  -0.4733  -0.4729  -0.4718
    -0.4706  -0.4655  -0.4475  -0.4447  -0.4379  -0.4373  -0.4357  -0.4334
    -0.3961  -0.3939  -0.3930  -0.3857  -0.3841  -0.3795  -0.3777  -0.3669
    -0.3615  -0.3588  -0.3552  -0.3165  -0.3155  -0.3076  -0.3040  -0.3032
    -0.2268  -0.2258  -0.2236  -0.2225  -0.2142  -0.2130  -0.1773  -0.1649
    -0.1642  -0.1385  -0.1327  -0.1272  -0.0123  -0.0089   0.0914   0.5067
     0.5074   0.5096   0.5104   0.5683   0.5768   0.9596   0.9601   1.0017
     1.0037   1.1118   1.1924   1.2994   1.3086   1.5177   1.5354   2.1550
     2.1599   2.3162   2.3235   2.4467   2.4584   2.5550   2.5564   2.7097
     2.9474   2.9482   3.0709   3.2915   3.3013   3.3782   3.3809   3.4789
     3.4950   3.6778   3.6912   3.7514   3.9520   3.9525   4.0116   4.0194
     4.2712   4.2748   4.2860   4.5228   4.5623   4.5665   4.6101   4.9442
     4.9476   4.9748   5.0676   5.1101   5.2823   5.2839   5.3253   5.3660
     5.7331   5.9205   6.0633   6.0698   6.0741   6.0879   6.1441   6.1457
     6.2068   6.2534   6.2792   6.3040   6.3052   6.3123   6.3201   6.3556
     6.3670   6.3874   6.4779   6.5945   6.7252   6.7600   6.9164   6.9754
     7.0101   7.0142   7.0258

          k =-0.5000 0.0000 0.1111 (136853 PWs)   bands (ev):

   -19.0845  -6.8900  -6.2078  -5.8099  -5.8070  -5.1311  -4.7979  -4.7961
    -4.7598  -4.7569  -4.3974  -4.3959  -4.2981  -4.2979  -4.2838  -4.2627
    -4.2374  -4.1310  -4.1300  -4.1063  -4.0628  -4.0626  -3.9939  -3.9936
    -3.9882  -3.9871  -3.9655  -3.9616  -3.9583  -3.8899  -3.8868  -3.8581
    -3.8561  -3.8454  -3.8448  -3.8219  -3.8218  -3.7993  -3.7911  -3.7905
    -3.7649  -3.7123  -3.7116  -3.6651  -3.6626  -3.6056  -3.6046  -3.5524
    -3.5501  -3.5494  -3.5489  -3.5142  -3.4763  -3.4747  -3.4683  -3.4673
    -3.4670  -3.4382  -3.4369  -3.4279  -3.3686  -3.3656  -3.3579  -3.3418
    -3.3331  -3.2863  -3.2606  -3.2404  -3.2271  -3.2185  -3.1981  -3.1967
    -3.1850  -3.1648  -3.1083  -3.1064  -3.0908  -3.0891  -3.0387  -3.0338
    -3.0331  -2.9955  -2.9647  -2.9630  -2.9550  -2.9537  -2.9418  -2.9408
    -2.9340  -2.9338  -2.9237  -2.8828  -2.8455  -2.8446  -2.8310  -2.8301
    -2.8048  -2.7949  -2.7946  -2.7717  -2.7280  -2.7277  -2.7194  -2.6799
    -2.6731  -2.6621  -2.6607  -2.6329  -2.6323  -2.6029  -2.5657  -2.5650
    -2.5432  -2.5359  -2.5223  -2.5216  -2.4714  -2.4709  -2.4383  -2.4159
    -2.4156  -2.3915  -2.3913  -2.3801  -2.3793  -2.3692  -2.3470  -2.3461
    -2.3018  -2.3007  -2.3002  -2.2841  -2.2825  -2.2779  -2.2684  -2.2678
    -2.2661  -2.2654  -2.2596  -2.2474  -2.2462  -2.2373  -2.2107  -2.2103
    -2.2090  -2.2080  -2.2070  -2.2048  -2.2035  -2.1770  -2.1738  -2.1596
    -2.1594  -2.1418  -2.1408  -2.1313  -2.1311  -2.1304  -2.1288  -2.1101
    -2.1090  -2.1076  -2.1071  -2.0897  -2.0642  -2.0637  -2.0248  -2.0225
    -1.9989  -1.9975  -1.9709  -1.9699  -1.9432  -1.9426  -1.9262  -1.9210
    -1.8943  -1.8727  -1.8717  -1.8672  -1.8650  -1.8619  -1.8552  -1.8523
    -1.8280  -1.8212  -1.8115  -1.7560  -1.7525  -1.7500  -1.7480  -1.7473
    -1.7111  -1.6927  -1.6911  -1.6642  -1.6631  -1.6035  -1.6027  -1.5742
    -1.5565  -1.5537  -1.4950  -1.4944  -1.4831  -1.4821  -1.4719  -1.4710
    -1.4678  -1.4587  -1.4581  -1.4046  -1.4015  -1.3911  -1.3903  -1.3885
    -1.3716  -1.3709  -1.3363  -1.3348  -1.3177  -1.3173  -1.3169  -1.3097
    -1.3056  -1.2968  -1.2956  -1.2768  -1.2754  -1.2382  -1.2323  -1.2233
    -1.2225  -1.2022  -1.1887  -1.1514  -1.1450  -1.1222  -1.1176  -1.1141
    -1.0904  -1.0820  -1.0333  -1.0314  -1.0308  -1.0292  -1.0249  -1.0223
    -1.0133  -0.9962  -0.9946  -0.9563  -0.9552  -0.9257  -0.9246  -0.9199
    -0.9186  -0.9117  -0.8957  -0.8952  -0.8940  -0.8915  -0.8897  -0.8554
    -0.8519  -0.8509  -0.8488  -0.8201  -0.8192  -0.8153  -0.7923  -0.7841
    -0.7828  -0.7377  -0.7314  -0.7279  -0.6954  -0.6869  -0.6765  -0.6761
    -0.6685  -0.6681  -0.6672  -0.6637  -0.6552  -0.6522  -0.6288  -0.6276
    -0.6252  -0.6238  -0.6216  -0.5859  -0.5852  -0.5754  -0.5730  -0.5587
    -0.5523  -0.5492  -0.5393  -0.4841  -0.4819  -0.4733  -0.4729  -0.4718
    -0.4706  -0.4655  -0.4475  -0.4447  -0.4379  -0.4373  -0.4357  -0.4334
    -0.3961  -0.3939  -0.3930  -0.3857  -0.3841  -0.3795  -0.3777  -0.3669
    -0.3615  -0.3588  -0.3552  -0.3165  -0.3155  -0.3076  -0.3040  -0.3032
    -0.2268  -0.2258  -0.2236  -0.2225  -0.2142  -0.2130  -0.1773  -0.1649
    -0.1642  -0.1385  -0.1327  -0.1272  -0.0123  -0.0089   0.0914   0.5067
     0.5074   0.5096   0.5104   0.5683   0.5768   0.9596   0.9601   1.0017
     1.0037   1.1118   1.1924   1.2994   1.3086   1.5177   1.5354   2.1550
     2.1599   2.3162   2.3235   2.4467   2.4584   2.5550   2.5564   2.7097
     2.9474   2.9482   3.0709   3.2915   3.3013   3.3782   3.3809   3.4789
     3.4950   3.6778   3.6912   3.7514   3.9520   3.9525   4.0116   4.0194
     4.2712   4.2748   4.2860   4.5228   4.5623   4.5665   4.6101   4.9442
     4.9476   4.9748   5.0676   5.1101   5.2823   5.2839   5.3253   5.3660
     5.7330   5.9205   6.0637   6.0698   6.0740   6.0878   6.1440   6.1457
     6.2068   6.2534   6.2792   6.3040   6.3051   6.3123   6.3201   6.3555
     6.3670   6.3872   6.4781   6.5932   6.7271   6.7591   6.9185   6.9748
     7.0098   7.0146   7.0254

          k =-0.2500 0.1443 0.1111 (136898 PWs)   bands (ev):

   -19.0845  -6.8900  -6.4178  -5.6257  -5.3351  -5.2755  -5.2752  -4.7371
    -4.7368  -4.6057  -4.6049  -4.4508  -4.4195  -4.3573  -4.3243  -4.3242
    -4.2903  -4.2903  -4.1616  -4.1198  -4.1197  -4.0601  -4.0393  -4.0391
    -3.9364  -3.9363  -3.9003  -3.9000  -3.9000  -3.8734  -3.8515  -3.8514
    -3.7476  -3.7443  -3.7442  -3.7239  -3.7069  -3.7067  -3.6947  -3.6945
    -3.6815  -3.6514  -3.6508  -3.6505  -3.6502  -3.6183  -3.6179  -3.6001
    -3.6001  -3.5863  -3.5435  -3.5420  -3.5139  -3.4994  -3.4970  -3.4916
    -3.4916  -3.4177  -3.4170  -3.3875  -3.3817  -3.3795  -3.3125  -3.3116
    -3.3055  -3.2963  -3.2727  -3.2649  -3.2645  -3.2639  -3.2347  -3.1107
    -3.1082  -3.0848  -3.0843  -3.0794  -3.0636  -3.0615  -3.0375  -3.0362
    -2.9877  -2.9864  -2.9714  -2.9705  -2.9503  -2.9023  -2.9021  -2.8824
    -2.8779  -2.8767  -2.8368  -2.8361  -2.8300  -2.8285  -2.8138  -2.8115
    -2.7739  -2.7734  -2.7520  -2.7518  -2.7487  -2.7476  -2.7447  -2.6686
    -2.6680  -2.6661  -2.6381  -2.6364  -2.5761  -2.5760  -2.5473  -2.5465
    -2.5335  -2.5327  -2.5273  -2.4982  -2.4981  -2.4882  -2.4708  -2.4455
    -2.4451  -2.4447  -2.4243  -2.4240  -2.4130  -2.4121  -2.4099  -2.4085
    -2.4008  -2.3547  -2.3226  -2.3224  -2.3066  -2.2927  -2.2863  -2.2863
    -2.2792  -2.2781  -2.2770  -2.2474  -2.2471  -2.2463  -2.2372  -2.2365
    -2.2200  -2.1927  -2.1919  -2.1916  -2.1909  -2.1889  -2.1451  -2.1137
    -2.1136  -2.1126  -2.1067  -2.0975  -2.0849  -2.0848  -2.0678  -2.0677
    -2.0342  -2.0330  -2.0326  -2.0143  -2.0131  -2.0128  -1.9801  -1.9794
    -1.9385  -1.9372  -1.9307  -1.9286  -1.9280  -1.9221  -1.9214  -1.9193
    -1.9184  -1.9130  -1.9114  -1.8956  -1.8948  -1.7687  -1.7680  -1.7357
    -1.7304  -1.7288  -1.7237  -1.7230  -1.7061  -1.7054  -1.7035  -1.7032
    -1.7003  -1.6779  -1.6710  -1.6703  -1.6639  -1.6581  -1.6554  -1.6349
    -1.6343  -1.6061  -1.6060  -1.5749  -1.5742  -1.5634  -1.5556  -1.5377
    -1.5364  -1.5342  -1.5161  -1.5035  -1.5029  -1.4961  -1.4957  -1.4696
    -1.4692  -1.4529  -1.4524  -1.4209  -1.4180  -1.4113  -1.3597  -1.3591
    -1.3478  -1.3468  -1.3431  -1.3202  -1.3177  -1.2847  -1.2842  -1.2832
    -1.2526  -1.2409  -1.2389  -1.2239  -1.2237  -1.2021  -1.1963  -1.1950
    -1.1657  -1.1641  -1.1629  -1.1070  -1.1003  -1.0967  -1.0867  -1.0855
    -1.0706  -1.0690  -1.0581  -1.0517  -1.0396  -1.0269  -0.9992  -0.9981
    -0.9864  -0.9561  -0.9496  -0.9469  -0.9372  -0.9369  -0.9350  -0.9304
    -0.9255  -0.9160  -0.8859  -0.8849  -0.8759  -0.8739  -0.8728  -0.8650
    -0.8488  -0.8313  -0.8259  -0.8100  -0.8049  -0.7157  -0.7029  -0.6973
    -0.6969  -0.6927  -0.6880  -0.6856  -0.6636  -0.6617  -0.6475  -0.6446
    -0.6319  -0.6300  -0.6225  -0.6032  -0.6002  -0.5989  -0.5918  -0.5197
    -0.5193  -0.4870  -0.4831  -0.4813  -0.4754  -0.4732  -0.4726  -0.4711
    -0.4605  -0.4571  -0.4418  -0.4181  -0.4034  -0.3845  -0.3830  -0.3731
    -0.3712  -0.3604  -0.3590  -0.3582  -0.3570  -0.3550  -0.3394  -0.3354
    -0.3333  -0.3043  -0.3031  -0.3011  -0.2903  -0.2897  -0.2708  -0.2391
    -0.2380  -0.2298  -0.2283  -0.1615  -0.1605  -0.1242  -0.1239  -0.0666
    -0.0646  -0.0641  -0.0511  -0.0358   0.1839   0.1959   0.5352   0.5353
     0.6225   0.6334   0.8184   0.8410   0.8531   0.9825   0.9851   1.4154
     1.4155   1.4336   1.6923   1.7253   1.7255   1.9959   2.0108   2.0810
     2.0821   2.1055   2.1158   2.3378   2.3381   2.4263   2.4270   2.4941
     2.5595   2.5769   2.7305   2.8289   3.2669   3.2690   3.2703   3.2769
     3.3265   3.3274   3.6194   3.6199   3.8963   3.9062   3.9965   4.3155
     4.3551   4.3620   4.5576   4.5732   4.6577   4.6616   4.7498   4.8664
     4.8723   4.9844   4.9875   5.0459   5.2896   5.3550   5.3631   5.4991
     5.5330   5.7449   5.7464   5.7571   5.7730   5.7745   5.8340   5.8367
     5.8872   6.0353   6.2248   6.2646   6.4393   6.4497   6.5770   6.5791
     6.5843   6.5894   6.6105   6.7464   6.8159   6.8308   6.8371   6.9774
     7.0143   7.0406   7.0654

          k =-0.2500-0.1443-0.1111 (136898 PWs)   bands (ev):

   -19.0845  -6.8900  -6.4178  -5.6257  -5.3350  -5.2755  -5.2752  -4.7370
    -4.7368  -4.6058  -4.6048  -4.4507  -4.4195  -4.3574  -4.3246  -4.3240
    -4.2904  -4.2901  -4.1615  -4.1199  -4.1197  -4.0600  -4.0395  -4.0390
    -3.9364  -3.9363  -3.9003  -3.9000  -3.9000  -3.8734  -3.8516  -3.8513
    -3.7475  -3.7444  -3.7442  -3.7237  -3.7070  -3.7067  -3.6949  -3.6945
    -3.6813  -3.6514  -3.6508  -3.6504  -3.6502  -3.6185  -3.6179  -3.6001
    -3.6000  -3.5860  -3.5439  -3.5418  -3.5140  -3.4997  -3.4967  -3.4917
    -3.4915  -3.4178  -3.4171  -3.3876  -3.3815  -3.3793  -3.3127  -3.3117
    -3.3055  -3.2961  -3.2727  -3.2648  -3.2645  -3.2642  -3.2348  -3.1106
    -3.1084  -3.0847  -3.0845  -3.0793  -3.0635  -3.0616  -3.0374  -3.0362
    -2.9877  -2.9865  -2.9713  -2.9705  -2.9502  -2.9022  -2.9020  -2.8824
    -2.8779  -2.8769  -2.8368  -2.8362  -2.8301  -2.8288  -2.8137  -2.8117
    -2.7737  -2.7732  -2.7523  -2.7515  -2.7486  -2.7477  -2.7446  -2.6685
    -2.6681  -2.6662  -2.6380  -2.6365  -2.5763  -2.5757  -2.5472  -2.5464
    -2.5332  -2.5326  -2.5274  -2.4982  -2.4980  -2.4883  -2.4707  -2.4456
    -2.4450  -2.4449  -2.4242  -2.4240  -2.4131  -2.4124  -2.4096  -2.4086
    -2.4009  -2.3546  -2.3227  -2.3225  -2.3065  -2.2929  -2.2864  -2.2862
    -2.2791  -2.2782  -2.2771  -2.2473  -2.2470  -2.2465  -2.2372  -2.2363
    -2.2199  -2.1930  -2.1919  -2.1911  -2.1909  -2.1891  -2.1452  -2.1138
    -2.1136  -2.1126  -2.1066  -2.0976  -2.0849  -2.0848  -2.0676  -2.0675
    -2.0342  -2.0329  -2.0325  -2.0144  -2.0132  -2.0130  -1.9799  -1.9794
    -1.9388  -1.9369  -1.9304  -1.9284  -1.9279  -1.9220  -1.9219  -1.9203
    -1.9179  -1.9127  -1.9114  -1.8956  -1.8949  -1.7688  -1.7680  -1.7353
    -1.7304  -1.7287  -1.7236  -1.7229  -1.7070  -1.7057  -1.7032  -1.7028
    -1.6998  -1.6779  -1.6715  -1.6702  -1.6632  -1.6583  -1.6549  -1.6354
    -1.6345  -1.6068  -1.6063  -1.5741  -1.5739  -1.5633  -1.5552  -1.5375
    -1.5364  -1.5340  -1.5160  -1.5039  -1.5031  -1.4964  -1.4958  -1.4691
    -1.4689  -1.4539  -1.4523  -1.4224  -1.4182  -1.4101  -1.3605  -1.3590
    -1.3475  -1.3467  -1.3426  -1.3205  -1.3174  -1.2859  -1.2844  -1.2825
    -1.2498  -1.2429  -1.2388  -1.2238  -1.2233  -1.1987  -1.1975  -1.1943
    -1.1658  -1.1653  -1.1632  -1.1152  -1.1006  -1.0957  -1.0863  -1.0795
    -1.0702  -1.0654  -1.0573  -1.0562  -1.0389  -1.0263  -0.9990  -0.9982
    -0.9873  -0.9588  -0.9481  -0.9478  -0.9373  -0.9370  -0.9355  -0.9290
    -0.9281  -0.9160  -0.8859  -0.8852  -0.8744  -0.8740  -0.8693  -0.8677
    -0.8486  -0.8285  -0.8272  -0.8090  -0.8055  -0.7158  -0.7028  -0.6971
    -0.6970  -0.6929  -0.6876  -0.6857  -0.6647  -0.6617  -0.6466  -0.6453
    -0.6317  -0.6306  -0.6227  -0.6022  -0.6002  -0.6000  -0.5917  -0.5198
    -0.5194  -0.4861  -0.4843  -0.4812  -0.4749  -0.4736  -0.4723  -0.4715
    -0.4604  -0.4564  -0.4422  -0.4180  -0.4036  -0.3841  -0.3834  -0.3730
    -0.3714  -0.3605  -0.3588  -0.3582  -0.3570  -0.3552  -0.3392  -0.3354
    -0.3335  -0.3041  -0.3034  -0.3006  -0.2903  -0.2897  -0.2709  -0.2390
    -0.2381  -0.2296  -0.2284  -0.1617  -0.1604  -0.1245  -0.1237  -0.0665
    -0.0650  -0.0637  -0.0518  -0.0358   0.1863   0.1944   0.5352   0.5353
     0.6246   0.6321   0.8159   0.8418   0.8534   0.9831   0.9845   1.4154
     1.4156   1.4334   1.6924   1.7253   1.7257   1.9989   2.0079   2.0813
     2.0819   2.1072   2.1141   2.3373   2.3387   2.4265   2.4268   2.4947
     2.5619   2.5735   2.7301   2.8294   3.2667   3.2688   3.2713   3.2761
     3.3268   3.3280   3.6194   3.6201   3.8983   3.9049   3.9979   4.3154
     4.3561   4.3606   4.5538   4.5687   4.6579   4.6606   4.7513   4.8661
     4.8703   4.9853   4.9875   5.0590   5.2897   5.3535   5.3637   5.5124
     5.5267   5.7401   5.7455   5.7490   5.7732   5.7750   5.8338   5.8395
     5.8680   5.9913   6.2425   6.3495   6.4318   6.4505   6.5736   6.5799
     6.5804   6.5909   6.6024   6.6919   6.8319   6.8345   6.9150   6.9606
     6.9908   7.0488   7.0542

          k = 0.2500 0.1443-0.1111 (136898 PWs)   bands (ev):

   -19.0845  -6.8900  -6.4178  -5.6257  -5.3350  -5.2755  -5.2752  -4.7370
    -4.7368  -4.6058  -4.6048  -4.4507  -4.4195  -4.3574  -4.3246  -4.3240
    -4.2904  -4.2901  -4.1615  -4.1199  -4.1197  -4.0600  -4.0395  -4.0390
    -3.9364  -3.9363  -3.9003  -3.9000  -3.9000  -3.8734  -3.8516  -3.8513
    -3.7475  -3.7444  -3.7442  -3.7237  -3.7070  -3.7067  -3.6949  -3.6945
    -3.6813  -3.6514  -3.6508  -3.6504  -3.6502  -3.6185  -3.6179  -3.6001
    -3.6000  -3.5860  -3.5439  -3.5418  -3.5140  -3.4997  -3.4967  -3.4917
    -3.4915  -3.4178  -3.4171  -3.3876  -3.3815  -3.3793  -3.3127  -3.3117
    -3.3055  -3.2961  -3.2727  -3.2648  -3.2645  -3.2642  -3.2348  -3.1106
    -3.1084  -3.0847  -3.0845  -3.0793  -3.0636  -3.0616  -3.0374  -3.0362
    -2.9877  -2.9865  -2.9713  -2.9705  -2.9502  -2.9022  -2.9020  -2.8824
    -2.8779  -2.8769  -2.8368  -2.8362  -2.8301  -2.8288  -2.8137  -2.8117
    -2.7737  -2.7732  -2.7523  -2.7515  -2.7486  -2.7477  -2.7446  -2.6685
    -2.6681  -2.6662  -2.6380  -2.6365  -2.5763  -2.5757  -2.5472  -2.5464
    -2.5333  -2.5326  -2.5274  -2.4982  -2.4980  -2.4883  -2.4707  -2.4456
    -2.4450  -2.4449  -2.4242  -2.4240  -2.4131  -2.4124  -2.4096  -2.4086
    -2.4009  -2.3546  -2.3227  -2.3225  -2.3065  -2.2929  -2.2864  -2.2862
    -2.2791  -2.2782  -2.2771  -2.2473  -2.2470  -2.2465  -2.2372  -2.2363
    -2.2199  -2.1930  -2.1919  -2.1911  -2.1909  -2.1891  -2.1452  -2.1138
    -2.1136  -2.1126  -2.1066  -2.0976  -2.0849  -2.0848  -2.0676  -2.0675
    -2.0342  -2.0329  -2.0325  -2.0144  -2.0132  -2.0130  -1.9799  -1.9794
    -1.9388  -1.9369  -1.9304  -1.9284  -1.9279  -1.9220  -1.9219  -1.9203
    -1.9179  -1.9127  -1.9114  -1.8956  -1.8949  -1.7688  -1.7680  -1.7353
    -1.7304  -1.7287  -1.7236  -1.7229  -1.7070  -1.7057  -1.7032  -1.7028
    -1.6998  -1.6779  -1.6715  -1.6702  -1.6632  -1.6583  -1.6549  -1.6354
    -1.6345  -1.6068  -1.6063  -1.5741  -1.5739  -1.5633  -1.5552  -1.5375
    -1.5364  -1.5340  -1.5160  -1.5038  -1.5031  -1.4964  -1.4958  -1.4691
    -1.4689  -1.4539  -1.4523  -1.4224  -1.4182  -1.4101  -1.3605  -1.3590
    -1.3475  -1.3467  -1.3426  -1.3205  -1.3174  -1.2859  -1.2844  -1.2825
    -1.2498  -1.2429  -1.2388  -1.2238  -1.2233  -1.1987  -1.1975  -1.1943
    -1.1658  -1.1653  -1.1632  -1.1152  -1.1006  -1.0957  -1.0863  -1.0795
    -1.0702  -1.0654  -1.0573  -1.0562  -1.0389  -1.0263  -0.9990  -0.9982
    -0.9873  -0.9588  -0.9481  -0.9478  -0.9373  -0.9370  -0.9355  -0.9290
    -0.9281  -0.9160  -0.8859  -0.8852  -0.8744  -0.8740  -0.8693  -0.8677
    -0.8486  -0.8284  -0.8272  -0.8090  -0.8055  -0.7158  -0.7028  -0.6971
    -0.6970  -0.6929  -0.6876  -0.6857  -0.6647  -0.6617  -0.6466  -0.6453
    -0.6317  -0.6306  -0.6227  -0.6022  -0.6002  -0.6000  -0.5917  -0.5198
    -0.5194  -0.4861  -0.4843  -0.4812  -0.4749  -0.4736  -0.4723  -0.4715
    -0.4604  -0.4564  -0.4422  -0.4180  -0.4036  -0.3841  -0.3834  -0.3730
    -0.3714  -0.3605  -0.3588  -0.3582  -0.3570  -0.3552  -0.3392  -0.3354
    -0.3335  -0.3041  -0.3034  -0.3006  -0.2903  -0.2897  -0.2709  -0.2390
    -0.2381  -0.2296  -0.2284  -0.1617  -0.1604  -0.1245  -0.1237  -0.0665
    -0.0650  -0.0637  -0.0518  -0.0358   0.1863   0.1944   0.5352   0.5353
     0.6246   0.6321   0.8159   0.8418   0.8534   0.9831   0.9845   1.4154
     1.4156   1.4334   1.6924   1.7253   1.7257   1.9989   2.0079   2.0813
     2.0819   2.1072   2.1141   2.3373   2.3387   2.4265   2.4268   2.4947
     2.5619   2.5735   2.7301   2.8294   3.2667   3.2688   3.2713   3.2761
     3.3268   3.3280   3.6194   3.6201   3.8983   3.9049   3.9979   4.3154
     4.3561   4.3606   4.5538   4.5687   4.6579   4.6606   4.7513   4.8661
     4.8703   4.9853   4.9875   5.0589   5.2897   5.3535   5.3637   5.5124
     5.5267   5.7402   5.7455   5.7486   5.7732   5.7750   5.8338   5.8395
     5.8681   5.9923   6.2425   6.3487   6.4305   6.4490   6.5719   6.5793
     6.5804   6.5909   6.6021   6.6940   6.8319   6.8345   6.9174   6.9628
     6.9962   7.0493   7.0564

          k = 0.0000-0.2887 0.1111 (136898 PWs)   bands (ev):

   -19.0845  -6.8900  -6.4178  -5.6257  -5.3350  -5.2755  -5.2752  -4.7370
    -4.7368  -4.6059  -4.6048  -4.4508  -4.4195  -4.3574  -4.3244  -4.3241
    -4.2903  -4.2902  -4.1615  -4.1199  -4.1197  -4.0600  -4.0394  -4.0391
    -3.9364  -3.9363  -3.9003  -3.9000  -3.9000  -3.8734  -3.8516  -3.8513
    -3.7475  -3.7444  -3.7442  -3.7238  -3.7070  -3.7067  -3.6948  -3.6945
    -3.6814  -3.6513  -3.6509  -3.6504  -3.6502  -3.6184  -3.6179  -3.6001
    -3.6000  -3.5861  -3.5436  -3.5420  -3.5140  -3.4996  -3.4969  -3.4916
    -3.4915  -3.4177  -3.4171  -3.3875  -3.3816  -3.3794  -3.3126  -3.3117
    -3.3056  -3.2961  -3.2728  -3.2647  -3.2646  -3.2641  -3.2347  -3.1107
    -3.1083  -3.0847  -3.0844  -3.0793  -3.0636  -3.0616  -3.0376  -3.0360
    -2.9877  -2.9865  -2.9714  -2.9705  -2.9502  -2.9024  -2.9019  -2.8825
    -2.8779  -2.8768  -2.8368  -2.8361  -2.8301  -2.8286  -2.8138  -2.8116
    -2.7737  -2.7732  -2.7521  -2.7516  -2.7486  -2.7475  -2.7446  -2.6686
    -2.6680  -2.6663  -2.6381  -2.6365  -2.5762  -2.5758  -2.5471  -2.5465
    -2.5333  -2.5326  -2.5274  -2.4981  -2.4979  -2.4883  -2.4706  -2.4457
    -2.4450  -2.4449  -2.4242  -2.4239  -2.4132  -2.4123  -2.4097  -2.4085
    -2.4009  -2.3547  -2.3227  -2.3225  -2.3065  -2.2929  -2.2863  -2.2863
    -2.2792  -2.2781  -2.2771  -2.2473  -2.2470  -2.2464  -2.2369  -2.2366
    -2.2199  -2.1927  -2.1922  -2.1917  -2.1907  -2.1891  -2.1452  -2.1138
    -2.1136  -2.1126  -2.1067  -2.0976  -2.0849  -2.0847  -2.0676  -2.0675
    -2.0342  -2.0330  -2.0326  -2.0144  -2.0131  -2.0129  -1.9800  -1.9794
    -1.9386  -1.9371  -1.9305  -1.9285  -1.9279  -1.9221  -1.9217  -1.9196
    -1.9183  -1.9129  -1.9114  -1.8957  -1.8949  -1.7688  -1.7679  -1.7355
    -1.7304  -1.7287  -1.7236  -1.7230  -1.7070  -1.7055  -1.7034  -1.7029
    -1.6998  -1.6779  -1.6712  -1.6699  -1.6639  -1.6579  -1.6552  -1.6352
    -1.6345  -1.6066  -1.6060  -1.5747  -1.5741  -1.5632  -1.5554  -1.5376
    -1.5364  -1.5340  -1.5160  -1.5036  -1.5031  -1.4963  -1.4957  -1.4693
    -1.4690  -1.4535  -1.4522  -1.4215  -1.4182  -1.4109  -1.3601  -1.3591
    -1.3479  -1.3466  -1.3429  -1.3205  -1.3174  -1.2848  -1.2844  -1.2829
    -1.2517  -1.2415  -1.2387  -1.2239  -1.2234  -1.2011  -1.1966  -1.1948
    -1.1656  -1.1644  -1.1631  -1.1104  -1.1007  -1.0960  -1.0861  -1.0833
    -1.0705  -1.0685  -1.0579  -1.0526  -1.0391  -1.0266  -0.9992  -0.9981
    -0.9867  -0.9571  -0.9489  -0.9471  -0.9374  -0.9370  -0.9354  -0.9301
    -0.9263  -0.9160  -0.8858  -0.8851  -0.8752  -0.8741  -0.8719  -0.8656
    -0.8488  -0.8305  -0.8263  -0.8096  -0.8051  -0.7157  -0.7029  -0.6972
    -0.6970  -0.6926  -0.6880  -0.6857  -0.6639  -0.6617  -0.6472  -0.6448
    -0.6318  -0.6302  -0.6227  -0.6028  -0.6002  -0.5992  -0.5918  -0.5197
    -0.5194  -0.4866  -0.4835  -0.4813  -0.4752  -0.4733  -0.4725  -0.4713
    -0.4606  -0.4568  -0.4420  -0.4180  -0.4035  -0.3844  -0.3832  -0.3731
    -0.3713  -0.3603  -0.3589  -0.3582  -0.3570  -0.3551  -0.3393  -0.3354
    -0.3334  -0.3042  -0.3031  -0.3010  -0.2902  -0.2898  -0.2709  -0.2390
    -0.2380  -0.2297  -0.2283  -0.1616  -0.1605  -0.1244  -0.1237  -0.0666
    -0.0648  -0.0639  -0.0515  -0.0357   0.1848   0.1956   0.5352   0.5353
     0.6232   0.6330   0.8175   0.8413   0.8530   0.9827   0.9849   1.4154
     1.4155   1.4337   1.6923   1.7254   1.7256   1.9969   2.0099   2.0811
     2.0820   2.1060   2.1152   2.3376   2.3382   2.4264   2.4270   2.4943
     2.5603   2.5757   2.7303   2.8291   3.2669   3.2690   3.2706   3.2769
     3.3267   3.3275   3.6194   3.6199   3.8968   3.9058   3.9971   4.3155
     4.3553   4.3614   4.5603   4.5675   4.6578   4.6612   4.7506   4.8661
     4.8720   4.9847   4.9878   5.0495   5.2896   5.3548   5.3631   5.5040
     5.5312   5.7446   5.7458   5.7542   5.7730   5.7749   5.8336   5.8377
     5.8795   6.0127   6.2561   6.2713   6.4371   6.4503   6.5765   6.5793
     6.5838   6.5901   6.6084   6.7322   6.8304   6.8352   6.8434   6.9726
     7.0043   7.0420   7.0641

          k = 0.0000 0.2887 0.1111 (136898 PWs)   bands (ev):

   -19.0845  -6.8900  -6.4178  -5.6257  -5.3350  -5.2755  -5.2752  -4.7370
    -4.7368  -4.6059  -4.6048  -4.4508  -4.4195  -4.3574  -4.3244  -4.3241
    -4.2903  -4.2901  -4.1615  -4.1199  -4.1197  -4.0600  -4.0394  -4.0391
    -3.9364  -3.9363  -3.9003  -3.9000  -3.9000  -3.8734  -3.8516  -3.8513
    -3.7475  -3.7444  -3.7442  -3.7238  -3.7070  -3.7067  -3.6948  -3.6945
    -3.6814  -3.6513  -3.6509  -3.6504  -3.6502  -3.6184  -3.6179  -3.6001
    -3.6000  -3.5861  -3.5436  -3.5420  -3.5140  -3.4996  -3.4969  -3.4916
    -3.4915  -3.4177  -3.4171  -3.3875  -3.3816  -3.3794  -3.3126  -3.3117
    -3.3056  -3.2961  -3.2728  -3.2647  -3.2646  -3.2641  -3.2347  -3.1107
    -3.1083  -3.0847  -3.0844  -3.0794  -3.0636  -3.0616  -3.0376  -3.0360
    -2.9877  -2.9865  -2.9714  -2.9705  -2.9502  -2.9024  -2.9019  -2.8825
    -2.8779  -2.8768  -2.8368  -2.8361  -2.8301  -2.8286  -2.8138  -2.8116
    -2.7737  -2.7732  -2.7521  -2.7516  -2.7486  -2.7475  -2.7446  -2.6686
    -2.6680  -2.6663  -2.6381  -2.6365  -2.5762  -2.5758  -2.5471  -2.5465
    -2.5333  -2.5326  -2.5274  -2.4981  -2.4979  -2.4883  -2.4706  -2.4457
    -2.4450  -2.4449  -2.4242  -2.4239  -2.4132  -2.4123  -2.4097  -2.4085
    -2.4009  -2.3546  -2.3227  -2.3225  -2.3065  -2.2929  -2.2863  -2.2863
    -2.2792  -2.2781  -2.2771  -2.2473  -2.2470  -2.2464  -2.2369  -2.2366
    -2.2199  -2.1927  -2.1922  -2.1916  -2.1907  -2.1891  -2.1452  -2.1138
    -2.1136  -2.1126  -2.1067  -2.0976  -2.0849  -2.0847  -2.0676  -2.0675
    -2.0342  -2.0330  -2.0325  -2.0144  -2.0131  -2.0129  -1.9800  -1.9794
    -1.9386  -1.9371  -1.9305  -1.9285  -1.9279  -1.9221  -1.9217  -1.9196
    -1.9183  -1.9129  -1.9114  -1.8957  -1.8949  -1.7688  -1.7679  -1.7355
    -1.7304  -1.7287  -1.7236  -1.7230  -1.7070  -1.7055  -1.7034  -1.7029
    -1.6999  -1.6779  -1.6712  -1.6699  -1.6639  -1.6579  -1.6552  -1.6352
    -1.6345  -1.6066  -1.6060  -1.5747  -1.5741  -1.5632  -1.5554  -1.5376
    -1.5364  -1.5340  -1.5160  -1.5036  -1.5031  -1.4963  -1.4957  -1.4693
    -1.4690  -1.4535  -1.4522  -1.4216  -1.4182  -1.4109  -1.3601  -1.3591
    -1.3479  -1.3466  -1.3429  -1.3205  -1.3174  -1.2848  -1.2844  -1.2829
    -1.2517  -1.2415  -1.2387  -1.2239  -1.2234  -1.2011  -1.1966  -1.1948
    -1.1657  -1.1644  -1.1631  -1.1104  -1.1007  -1.0960  -1.0861  -1.0833
    -1.0705  -1.0685  -1.0579  -1.0526  -1.0391  -1.0266  -0.9992  -0.9981
    -0.9867  -0.9571  -0.9489  -0.9471  -0.9374  -0.9370  -0.9354  -0.9301
    -0.9263  -0.9160  -0.8858  -0.8851  -0.8752  -0.8741  -0.8719  -0.8656
    -0.8488  -0.8305  -0.8263  -0.8096  -0.8051  -0.7157  -0.7029  -0.6972
    -0.6970  -0.6926  -0.6880  -0.6857  -0.6639  -0.6617  -0.6472  -0.6448
    -0.6318  -0.6303  -0.6227  -0.6028  -0.6002  -0.5992  -0.5918  -0.5197
    -0.5194  -0.4866  -0.4835  -0.4813  -0.4752  -0.4733  -0.4725  -0.4713
    -0.4606  -0.4568  -0.4420  -0.4180  -0.4035  -0.3844  -0.3832  -0.3731
    -0.3713  -0.3604  -0.3588  -0.3582  -0.3570  -0.3551  -0.3393  -0.3355
    -0.3334  -0.3042  -0.3031  -0.3010  -0.2902  -0.2898  -0.2709  -0.2390
    -0.2380  -0.2297  -0.2283  -0.1616  -0.1605  -0.1244  -0.1238  -0.0666
    -0.0648  -0.0639  -0.0515  -0.0358   0.1848   0.1956   0.5352   0.5353
     0.6232   0.6330   0.8175   0.8413   0.8530   0.9827   0.9849   1.4154
     1.4155   1.4337   1.6923   1.7254   1.7256   1.9969   2.0099   2.0811
     2.0820   2.1060   2.1152   2.3376   2.3382   2.4264   2.4270   2.4943
     2.5603   2.5757   2.7303   2.8291   3.2669   3.2690   3.2706   3.2769
     3.3267   3.3275   3.6194   3.6199   3.8968   3.9058   3.9971   4.3155
     4.3553   4.3614   4.5603   4.5676   4.6578   4.6612   4.7506   4.8661
     4.8720   4.9847   4.9878   5.0495   5.2896   5.3548   5.3631   5.5040
     5.5312   5.7446   5.7460   5.7540   5.7730   5.7750   5.8336   5.8378
     5.8796   6.0124   6.2561   6.2711   6.4376   6.4498   6.5759   6.5793
     6.5825   6.5901   6.6076   6.7311   6.8305   6.8353   6.8438   6.9765
     7.0085   7.0428   7.0662

     the Fermi energy is     1.5586 ev

!    total energy              =   -6604.43600649 Ry
     Harris-Foulkes estimate   =   -6604.43600647 Ry
     estimated scf accuracy    <          2.0E-09 Ry

     The total energy is the sum of the following terms:

     one-electron contribution =  -48595.58131381 Ry
     hartree contribution      =   24802.07819339 Ry
     xc contribution           =   -3204.96297094 Ry
     ewald contribution        =   20394.02721629 Ry
     smearing contrib. (-TS)   =       0.00286858 Ry

     convergence has been achieved in  25 iterations

     Writing output data file 1810337.save

     init_run     :    142.33s CPU    150.66s WALL (       1 calls)
     electrons    :   9327.58s CPU   9800.96s WALL (       1 calls)

     Called by init_run:
     wfcinit      :    113.20s CPU    120.79s WALL (       1 calls)
     potinit      :      8.07s CPU      8.46s WALL (       1 calls)

     Called by electrons:
     c_bands      :   8154.27s CPU   8535.92s WALL (      26 calls)
     sum_band     :    925.94s CPU   1005.51s WALL (      26 calls)
     v_of_rho     :     74.30s CPU     82.95s WALL (      26 calls)
     newd         :    180.95s CPU    184.13s WALL (      26 calls)
     mix_rho      :      2.14s CPU      2.41s WALL (      26 calls)
     vdW_energy   :      7.12s CPU      7.61s WALL (      26 calls)
     vdW_ffts     :     33.98s CPU     38.39s WALL (      52 calls)
     vdW_v        :     10.54s CPU     11.27s WALL (      26 calls)

     Called by c_bands:
     init_us_2    :     12.14s CPU     12.48s WALL (     636 calls)
     cegterg      :   8001.87s CPU   8381.82s WALL (     312 calls)

     Called by *egterg:
     h_psi        :   3070.01s CPU   3409.94s WALL (    1843 calls)
     s_psi        :    481.22s CPU    483.81s WALL (    1843 calls)
     g_psi        :      6.45s CPU      6.52s WALL (    1519 calls)
     cdiaghg      :   2487.21s CPU   2495.34s WALL (    1819 calls)

     Called by h_psi:
     add_vuspsi   :    484.44s CPU    487.17s WALL (    1843 calls)

     General routines
     calbec       :    848.34s CPU    851.70s WALL (    2155 calls)
     fft          :     92.06s CPU    100.35s WALL (    1716 calls)
     ffts         :      1.06s CPU      1.22s WALL (      52 calls)
     fftw         :   2197.64s CPU   2566.84s WALL (  757082 calls)
     interpolate  :      2.76s CPU      3.29s WALL (      52 calls)
     davcio       :      0.00s CPU      0.22s WALL (      12 calls)

     Parallel routines
     fft_scatter  :   1467.51s CPU   1731.09s WALL (  758850 calls)

     PWSCF        :     2h38m CPU        2h46m WALL


   This run was terminated on:  15:50:17  29Aug2015            

=------------------------------------------------------------------------------=
   JOB DONE.
=------------------------------------------------------------------------------=
