Setting SGE environment for SCC

     Program PWSCF v.5.1.2 starts on 25Jun2015 at  8:50:37 

     This program is part of the open-source Quantum ESPRESSO suite
     for quantum simulation of materials; please cite
         "P. Giannozzi et al., J. Phys.:Condens. Matter 21 395502 (2009);
          URL http://www.quantum-espresso.org", 
     in publications or presentations arising from this work. More details at
     http://www.quantum-espresso.org/quote

     Parallel version (MPI), running on    32 processors
     R & G space division:  proc/nbgrp/npool/nimage =      32
     Reading input from top.O1.Au50.d.2.6.phi.45.psi.0.in
Warning: card &IONS ignored
Warning: card / ignored
Warning: card &CELL ignored
Warning: card / ignored

     Current dimensions of program PWSCF are:
     Max number of different atomic species (ntypx) = 10
     Max number of k-points (npk) =  40000
     Max angular momentum in pseudopotentials (lmaxx) =  3

     IMPORTANT: XC functional enforced from input :
     Exchange-correlation      = VDW-DF ( 1  4  4  0 1 0)
     Any further DFT definition will be discarded
     Please, verify this is what you really want


     Subspace diagonalization in iterative solution of the eigenvalue problem:
     a serial algorithm will be used


     Parallelization info
     --------------------
     sticks:   dense  smooth     PW     G-vecs:    dense   smooth      PW
     Min         445     223     58                96775    34191    4534
     Max         446     224     59                96790    34246    4540
     Sum       14269    7147   1867              3097177  1095093  145167


     Title: 
     top.O1.Au50.d.2.6.phi.45.psi.0                                             


     bravais-lattice index     =            4
     lattice parameter (alat)  =      22.7436  a.u.
     unit-cell volume          =   22924.1508 (a.u.)^3
     number of atoms/cell      =           67
     number of atomic types    =            3
     number of electrons       =       712.00
     number of Kohn-Sham states=          427
     kinetic-energy cutoff     =      50.0000  Ry
     charge density cutoff     =     400.0000  Ry
     convergence threshold     =      1.0E-08
     mixing beta               =       0.7000
     number of iterations used =            8  plain     mixing
     Exchange-correlation      = VDW-DF ( 1  4  4  0 1 0)

     celldm(1)=  22.743643  celldm(2)=   0.000000  celldm(3)=   2.250000
     celldm(4)=   0.000000  celldm(5)=   0.000000  celldm(6)=   0.000000

     crystal axes: (cart. coord. in units of alat)
               a(1) = (   1.000000   0.000000   0.000000 )  
               a(2) = (  -0.500000   0.866025   0.000000 )  
               a(3) = (   0.000000   0.000000   2.250000 )  

     reciprocal axes: (cart. coord. in units 2 pi/alat)
               b(1) = (  1.000000  0.577350 -0.000000 )  
               b(2) = (  0.000000  1.154701  0.000000 )  
               b(3) = (  0.000000 -0.000000  0.444444 )  


     PseudoPot. # 1 for Au read from file:
     /home/scc/andrejb/qe/pseudo/Au.pbe-nd-van.UPF
     MD5 check sum: 458681b50f36d87ef23c61b04bba420a
     Pseudo is Ultrasoft + core correction, Zval = 11.0
     Generated by new atomic code, or converted to UPF format
     Using radial grid of  985 points,  3 beta functions with: 
                l(1) =   1
                l(2) =   2
                l(3) =   2
     Q(r) pseudized with  8 coefficients,  rinner =    1.100   1.100   1.100
                                                       1.100   1.100

     PseudoPot. # 2 for H  read from file:
     /home/scc/andrejb/qe/pseudo/H.pbe-van_ak.UPF
     MD5 check sum: 403db7282739603aa925980fa9b8608d
     Pseudo is Ultrasoft, Zval =  1.0
     Generated by new atomic code, or converted to UPF format
     Using radial grid of  615 points,  1 beta functions with: 
                l(1) =   0
     Q(r) pseudized with  8 coefficients,  rinner =    0.800

     PseudoPot. # 3 for O  read from file:
     /home/scc/andrejb/qe/pseudo/O.pbe-van_ak.UPF
     MD5 check sum: 4b8c549914a63cae506c6ff22b5af4fe
     Pseudo is Ultrasoft, Zval =  6.0
     Generated by new atomic code, or converted to UPF format
     Using radial grid of  737 points,  4 beta functions with: 
                l(1) =   0
                l(2) =   0
                l(3) =   1
                l(4) =   1
     Q(r) pseudized with  8 coefficients,  rinner =    0.800   0.800   0.800


     vdW kernel table read from file vdW_kernel_table
     MD5 check sum: 48e77a2e26edf626eeb0eaa751ad5cac

     atomic species   valence    mass     pseudopotential
        Au            11.00   196.96657     Au( 1.00)
        H              1.00     1.01000     H ( 1.00)
        O              6.00    16.00000     O ( 1.00)

     No symmetry found



   Cartesian axes

     site n.     atom                  positions (alat units)
         1           O   tau(   1) = (   0.4790780   0.3968269   0.8290259  )
         2           H   tau(   2) = (   0.4731484   0.3321400   0.8772795  )
         3           H   tau(   3) = (   0.4848144   0.4595658   0.8797866  )
         4           Au  tau(   4) = (   0.3540481   0.6132292   0.0000000  )
         5           Au  tau(   5) = (   0.4790062   0.3967954   0.0000000  )
         6           Au  tau(   6) = (   0.6039644   0.1803616   0.0000000  )
         7           Au  tau(   7) = (   0.7289225  -0.0360723   0.0000000  )
         8           Au  tau(   8) = (   0.1041318   0.6132292   0.0000000  )
         9           Au  tau(   9) = (   0.2290899   0.3967954   0.0000000  )
        10           Au  tau(  10) = (   0.3540481   0.1803616   0.0000000  )
        11           Au  tau(  11) = (   0.4790062  -0.0360723   0.0000000  )
        12           Au  tau(  12) = (  -0.1457845   0.6132292   0.0000000  )
        13           Au  tau(  13) = (  -0.0208264   0.3967954   0.0000000  )
        14           Au  tau(  14) = (   0.1041318   0.1803616   0.0000000  )
        15           Au  tau(  15) = (   0.2290899  -0.0360723   0.0000000  )
        16           Au  tau(  16) = (  -0.3957008   0.6132292   0.0000000  )
        17           Au  tau(  17) = (  -0.2707426   0.3967954   0.0000000  )
        18           Au  tau(  18) = (  -0.1457845   0.1803616   0.0000000  )
        19           Au  tau(  19) = (  -0.0208264  -0.0360723   0.0000000  )
        20           Au  tau(  20) = (   0.4790062   0.6853738   0.2040557  )
        21           Au  tau(  21) = (   0.6039644   0.4689400   0.2040557  )
        22           Au  tau(  22) = (   0.7289225   0.2525062   0.2040557  )
        23           Au  tau(  23) = (   0.8538806   0.0360723   0.2040557  )
        24           Au  tau(  24) = (   0.2290899   0.6853738   0.2040557  )
        25           Au  tau(  25) = (   0.3540481   0.4689400   0.2040557  )
        26           Au  tau(  26) = (   0.4790062   0.2525062   0.2040557  )
        27           Au  tau(  27) = (   0.6039644   0.0360723   0.2040557  )
        28           Au  tau(  28) = (  -0.0208264   0.6853738   0.2040557  )
        29           Au  tau(  29) = (   0.1041318   0.4689400   0.2040557  )
        30           Au  tau(  30) = (   0.2290899   0.2525062   0.2040557  )
        31           Au  tau(  31) = (   0.3540481   0.0360723   0.2040557  )
        32           Au  tau(  32) = (  -0.2707426   0.6853738   0.2040557  )
        33           Au  tau(  33) = (  -0.1457845   0.4689400   0.2040557  )
        34           Au  tau(  34) = (  -0.0208264   0.2525062   0.2040557  )
        35           Au  tau(  35) = (   0.1041318   0.0360723   0.2040557  )
        36           Au  tau(  36) = (   0.3541162   0.7576593   0.4066483  )
        37           Au  tau(  37) = (   0.4791000   0.5411421   0.4066696  )
        38           Au  tau(  38) = (   0.6040570   0.3246862   0.4066618  )
        39           Au  tau(  39) = (   0.7290270   0.1081684   0.4066530  )
        40           Au  tau(  40) = (   0.1041162   0.7576236   0.4066247  )
        41           Au  tau(  41) = (   0.2291001   0.5411062   0.4066455  )
        42           Au  tau(  42) = (   0.3540567   0.3246505   0.4066380  )
        43           Au  tau(  43) = (   0.4790276   0.1081324   0.4066292  )
        44           Au  tau(  44) = (  -0.1458201   0.7576104   0.4066225  )
        45           Au  tau(  45) = (  -0.0208365   0.5410930   0.4066438  )
        46           Au  tau(  46) = (   0.1041202   0.3246372   0.4066359  )
        47           Au  tau(  47) = (   0.2290908   0.1081193   0.4066273  )
        48           Au  tau(  48) = (  -0.3958167   0.7575791   0.4065812  )
        49           Au  tau(  49) = (  -0.2708328   0.5410617   0.4066025  )
        50           Au  tau(  50) = (  -0.1458763   0.3246061   0.4065947  )
        51           Au  tau(  51) = (  -0.0209056   0.1080882   0.4065858  )
        52           Au  tau(  52) = (   0.3541084   0.6133344   0.6129762  )
        53           Au  tau(  53) = (   0.4790780   0.3968269   0.6129968  )
        54           Au  tau(  54) = (   0.6040356   0.1803811   0.6129859  )
        55           Au  tau(  55) = (   0.7290165  -0.0361221   0.6129385  )
        56           Au  tau(  56) = (   0.1041243   0.6133091   0.6130023  )
        57           Au  tau(  57) = (   0.2290941   0.3968013   0.6130241  )
        58           Au  tau(  58) = (   0.3540515   0.1803552   0.6130121  )
        59           Au  tau(  59) = (   0.4790323  -0.0361475   0.6129659  )
        60           Au  tau(  60) = (  -0.1458030   0.6133014   0.6129980  )
        61           Au  tau(  61) = (  -0.0208339   0.3967936   0.6130189  )
        62           Au  tau(  62) = (   0.1041239   0.1803477   0.6130083  )
        63           Au  tau(  63) = (   0.2291046  -0.0361554   0.6129607  )
        64           Au  tau(  64) = (  -0.3957908   0.6132739   0.6129471  )
        65           Au  tau(  65) = (  -0.2708208   0.3967658   0.6129688  )
        66           Au  tau(  66) = (  -0.1458636   0.1803200   0.6129569  )
        67           Au  tau(  67) = (  -0.0208823  -0.0361826   0.6129110  )

     number of k points=    12  Marzari-Vanderbilt smearing, width (Ry)=  0.0200
                       cart. coord. in units 2pi/alat
        k(    1) = (   0.2500000   0.4330127   0.1111111), wk =   0.1666667
        k(    2) = (   0.2500000  -0.1443376   0.1111111), wk =   0.1666667
        k(    3) = (  -0.2500000  -0.4330127   0.1111111), wk =   0.1666667
        k(    4) = (  -0.2500000   0.4330127  -0.1111111), wk =   0.1666667
        k(    5) = (   0.2500000  -0.4330127  -0.1111111), wk =   0.1666667
        k(    6) = (   0.5000000   0.0000000   0.1111111), wk =   0.1666667
        k(    7) = (  -0.5000000   0.0000000   0.1111111), wk =   0.1666667
        k(    8) = (  -0.2500000   0.1443376   0.1111111), wk =   0.1666667
        k(    9) = (  -0.2500000  -0.1443376  -0.1111111), wk =   0.1666667
        k(   10) = (   0.2500000   0.1443376  -0.1111111), wk =   0.1666667
        k(   11) = (   0.0000000  -0.2886751   0.1111111), wk =   0.1666667
        k(   12) = (   0.0000000   0.2886751   0.1111111), wk =   0.1666667

     Dense  grid:  3097177 G-vectors     FFT dimensions: ( 150, 150, 360)

     Smooth grid:  1095093 G-vectors     FFT dimensions: ( 108, 108, 240)

     Largest allocated arrays     est. size (Mb)     dimensions
        Kohn-Sham Wavefunctions        28.01 Mb     (    4299,  427)
        NL pseudopotentials            55.23 Mb     (    4299,  842)
        Each V/rho on FFT grid          4.12 Mb     (  270000)
        Each G-vector array             0.74 Mb     (   96788)
        G-vector shells                 0.16 Mb     (   21404)
     Largest temporary arrays     est. size (Mb)     dimensions
        Auxiliary wavefunctions       112.04 Mb     (    4299, 1708)
        Each subspace H/S matrix       44.51 Mb     (    1708, 1708)
        Each <psi_i|beta_j> matrix      5.49 Mb     (     842,  427)
        Arrays for rho mixing          32.96 Mb     (  270000,    8)

     Initial potential from superposition of free atoms
     Check: negative starting charge=   -1.730265

     starting charge  711.25682, renormalised to  712.00000

     negative rho (up, down):  1.732E+00 0.000E+00


     ************************************************************************
     *
     * You are using vdW-DF for exchange-correlation in this calculation.
     * Please cite the following three references that made this development
     * possible:
     *
     *   M. Dion, H. Rydberg, E. Schroder, D. C. Langreth, and
     *   B. I. Lundqvist, Phys. Rev. Lett. 92, 246401 (2004).
     *
     *   T. Thonhauser, V. R. Cooper, S. Li, A. Puzder, P. Hyldgaard, and
     *   D. C. Langreth, Phys. Rev. B 76, 125112 (2007).
     *
     *   G. Roman-Perez and J. M. Soler, Phys. Rev. Lett. 103, 096102 (2009).
     *
     *
     * If you are using vdW-DF2, please also cite:
     *
     *   K. Lee, E. D. Murray, L. Kong, B. I. Lundqvist, and
     *   D. C. Langreth, Phys. Rev. B 82, 081101(R) (2010).
     *
     *
     * If you are calculating the stress with vdW-DF, please also cite:
     *
     *   R. Sabatini, E. Kucukbenli, B. Kolb, T. Thonhauser, and
     *   S. de Gironcoli, J. Phys.: Condens. Matter 24, 424209 (2012).
     *
     ************************************************************************

     Carrying out vdW-DF run using the following parameters:

     Nqs =      20    Nr_points =    1024   r_max =   100.000
     q_mesh =
               0.00001000     0.04494208     0.09755937     0.15916263
               0.23128650     0.31572767     0.41458969     0.53033537
               0.66584808     0.82450364     1.01025438     1.22772762
               1.48234092     1.78043706     2.12944203     2.53805004
               3.01644009     3.57652955     4.23227104     5.00000000

     Gradients computed in reciprocal space

     ************************************************************************


     Starting wfc are  582 randomized atomic wfcs

     total cpu time spent up to now is      176.1 secs

     Self-consistent Calculation

     iteration #  1     ecut=    50.00 Ry     beta=0.70
     Davidson diagonalization with overlap
     ethr =  1.00E-02,  avg # of iterations =  3.0

     Threshold (ethr) on eigenvalues was too large:
     Diagonalizing with lowered threshold

     Davidson diagonalization with overlap
     ethr =  3.58E-04,  avg # of iterations =  5.0

     negative rho (up, down):  1.728E+00 0.000E+00

     total cpu time spent up to now is     1217.9 secs

     total energy              =   -6602.74231049 Ry
     Harris-Foulkes estimate   =   -6605.04948189 Ry
     estimated scf accuracy    <       2.88490759 Ry

     iteration #  2     ecut=    50.00 Ry     beta=0.70
     Davidson diagonalization with overlap
     ethr =  4.05E-04,  avg # of iterations = 11.0

     negative rho (up, down):  1.725E+00 0.000E+00

     total cpu time spent up to now is     2123.4 secs

     total energy              =   -6595.63995222 Ry
     Harris-Foulkes estimate   =   -6610.45579790 Ry
     estimated scf accuracy    <      87.02742089 Ry

     iteration #  3     ecut=    50.00 Ry     beta=0.70
     Davidson diagonalization with overlap
     ethr =  4.05E-04,  avg # of iterations =  6.0

     negative rho (up, down):  1.732E+00 0.000E+00

     total cpu time spent up to now is     2747.2 secs

     total energy              =   -6602.87988844 Ry
     Harris-Foulkes estimate   =   -6605.06764835 Ry
     estimated scf accuracy    <      11.09457644 Ry

     iteration #  4     ecut=    50.00 Ry     beta=0.70
     Davidson diagonalization with overlap
     ethr =  4.05E-04,  avg # of iterations =  6.8

     negative rho (up, down):  1.736E+00 0.000E+00

     total cpu time spent up to now is     3167.5 secs

     total energy              =   -6602.91808472 Ry
     Harris-Foulkes estimate   =   -6605.65986382 Ry
     estimated scf accuracy    <      30.78096661 Ry

     iteration #  5     ecut=    50.00 Ry     beta=0.70
     Davidson diagonalization with overlap
     ethr =  4.05E-04,  avg # of iterations =  6.6

     negative rho (up, down):  1.746E+00 0.000E+00

     total cpu time spent up to now is     3573.3 secs

     total energy              =   -6604.35196471 Ry
     Harris-Foulkes estimate   =   -6604.58360552 Ry
     estimated scf accuracy    <       1.18662495 Ry

     iteration #  6     ecut=    50.00 Ry     beta=0.70
     Davidson diagonalization with overlap
     ethr =  1.67E-04,  avg # of iterations =  3.5

     negative rho (up, down):  1.750E+00 0.000E+00

     total cpu time spent up to now is     3901.5 secs

     total energy              =   -6604.40839760 Ry
     Harris-Foulkes estimate   =   -6604.47286684 Ry
     estimated scf accuracy    <       0.20708660 Ry

     iteration #  7     ecut=    50.00 Ry     beta=0.70
     Davidson diagonalization with overlap
     ethr =  2.91E-05,  avg # of iterations =  8.8

     negative rho (up, down):  1.753E+00 0.000E+00

     total cpu time spent up to now is     4339.5 secs

     total energy              =   -6604.42492006 Ry
     Harris-Foulkes estimate   =   -6604.45099554 Ry
     estimated scf accuracy    <       0.10663339 Ry

     iteration #  8     ecut=    50.00 Ry     beta=0.70
     Davidson diagonalization with overlap
     ethr =  1.50E-05,  avg # of iterations =  8.4

     negative rho (up, down):  1.754E+00 0.000E+00

     total cpu time spent up to now is     4760.3 secs

     total energy              =   -6604.42682656 Ry
     Harris-Foulkes estimate   =   -6604.44190796 Ry
     estimated scf accuracy    <       0.05233925 Ry

     iteration #  9     ecut=    50.00 Ry     beta=0.70
     Davidson diagonalization with overlap
     ethr =  7.35E-06,  avg # of iterations = 10.0

     negative rho (up, down):  1.755E+00 0.000E+00

     total cpu time spent up to now is     5206.3 secs

     total energy              =   -6604.42949393 Ry
     Harris-Foulkes estimate   =   -6604.43505296 Ry
     estimated scf accuracy    <       0.01601841 Ry

     iteration # 10     ecut=    50.00 Ry     beta=0.70
     Davidson diagonalization with overlap
     ethr =  2.25E-06,  avg # of iterations =  9.0

     negative rho (up, down):  1.756E+00 0.000E+00

     total cpu time spent up to now is     5654.7 secs

     total energy              =   -6604.43103659 Ry
     Harris-Foulkes estimate   =   -6604.43266132 Ry
     estimated scf accuracy    <       0.00590664 Ry

     iteration # 11     ecut=    50.00 Ry     beta=0.70
     Davidson diagonalization with overlap
     ethr =  8.30E-07,  avg # of iterations =  6.5

     negative rho (up, down):  1.757E+00 0.000E+00

     total cpu time spent up to now is     6046.2 secs

     total energy              =   -6604.43148852 Ry
     Harris-Foulkes estimate   =   -6604.43210258 Ry
     estimated scf accuracy    <       0.00285319 Ry

     iteration # 12     ecut=    50.00 Ry     beta=0.70
     Davidson diagonalization with overlap
     ethr =  4.01E-07,  avg # of iterations =  3.2

     negative rho (up, down):  1.757E+00 0.000E+00

     total cpu time spent up to now is     6403.5 secs

     total energy              =   -6604.43159827 Ry
     Harris-Foulkes estimate   =   -6604.43181706 Ry
     estimated scf accuracy    <       0.00049212 Ry

     iteration # 13     ecut=    50.00 Ry     beta=0.70
     Davidson diagonalization with overlap
     ethr =  6.91E-08,  avg # of iterations =  7.0

     negative rho (up, down):  1.757E+00 0.000E+00

     total cpu time spent up to now is     6827.9 secs

     total energy              =   -6604.43163344 Ry
     Harris-Foulkes estimate   =   -6604.43174409 Ry
     estimated scf accuracy    <       0.00039297 Ry

     iteration # 14     ecut=    50.00 Ry     beta=0.70
     Davidson diagonalization with overlap
     ethr =  5.52E-08,  avg # of iterations =  2.0

     negative rho (up, down):  1.757E+00 0.000E+00

     total cpu time spent up to now is     7136.6 secs

     total energy              =   -6604.43167356 Ry
     Harris-Foulkes estimate   =   -6604.43171079 Ry
     estimated scf accuracy    <       0.00019616 Ry

     iteration # 15     ecut=    50.00 Ry     beta=0.70
     Davidson diagonalization with overlap
     ethr =  2.76E-08,  avg # of iterations =  1.8

     negative rho (up, down):  1.757E+00 0.000E+00

     total cpu time spent up to now is     7443.6 secs

     total energy              =   -6604.43169230 Ry
     Harris-Foulkes estimate   =   -6604.43170199 Ry
     estimated scf accuracy    <       0.00006012 Ry

     iteration # 16     ecut=    50.00 Ry     beta=0.70
     Davidson diagonalization with overlap
     ethr =  8.44E-09,  avg # of iterations =  2.0

     negative rho (up, down):  1.757E+00 0.000E+00

     total cpu time spent up to now is     7744.0 secs

     total energy              =   -6604.43169430 Ry
     Harris-Foulkes estimate   =   -6604.43170081 Ry
     estimated scf accuracy    <       0.00003491 Ry

     iteration # 17     ecut=    50.00 Ry     beta=0.70
     Davidson diagonalization with overlap
     ethr =  4.90E-09,  avg # of iterations =  1.8

     negative rho (up, down):  1.757E+00 0.000E+00

     total cpu time spent up to now is     8046.9 secs

     total energy              =   -6604.43169702 Ry
     Harris-Foulkes estimate   =   -6604.43169849 Ry
     estimated scf accuracy    <       0.00000648 Ry

     iteration # 18     ecut=    50.00 Ry     beta=0.70
     Davidson diagonalization with overlap
     ethr =  9.10E-10,  avg # of iterations =  2.0

     negative rho (up, down):  1.757E+00 0.000E+00

     total cpu time spent up to now is     8349.1 secs

     total energy              =   -6604.43169771 Ry
     Harris-Foulkes estimate   =   -6604.43169815 Ry
     estimated scf accuracy    <       0.00000196 Ry

     iteration # 19     ecut=    50.00 Ry     beta=0.70
     Davidson diagonalization with overlap
     ethr =  2.76E-10,  avg # of iterations =  3.0

     negative rho (up, down):  1.757E+00 0.000E+00

     total cpu time spent up to now is     8664.2 secs

     total energy              =   -6604.43169800 Ry
     Harris-Foulkes estimate   =   -6604.43169801 Ry
     estimated scf accuracy    <       0.00000024 Ry

     iteration # 20     ecut=    50.00 Ry     beta=0.70
     Davidson diagonalization with overlap
     ethr =  3.34E-11,  avg # of iterations =  2.2

     negative rho (up, down):  1.757E+00 0.000E+00

     total cpu time spent up to now is     9007.0 secs

     total energy              =   -6604.43169808 Ry
     Harris-Foulkes estimate   =   -6604.43169807 Ry
     estimated scf accuracy    <       0.00000011 Ry

     iteration # 21     ecut=    50.00 Ry     beta=0.70
     Davidson diagonalization with overlap
     ethr =  1.56E-11,  avg # of iterations =  2.0

     negative rho (up, down):  1.757E+00 0.000E+00

     total cpu time spent up to now is     9312.0 secs

     total energy              =   -6604.43169813 Ry
     Harris-Foulkes estimate   =   -6604.43169811 Ry
     estimated scf accuracy    <       0.00000005 Ry

     iteration # 22     ecut=    50.00 Ry     beta=0.70
     Davidson diagonalization with overlap
     ethr =  7.00E-12,  avg # of iterations =  2.0

     negative rho (up, down):  1.757E+00 0.000E+00

     total cpu time spent up to now is     9613.3 secs

     End of self-consistent calculation

          k = 0.2500 0.4330 0.1111 (136853 PWs)   bands (ev):

   -19.6765  -7.4543  -6.1727  -5.7749  -5.7720  -5.1043  -4.7731  -4.7612
    -4.7450  -4.7230  -4.4208  -4.3605  -4.3439  -4.2618  -4.2563  -4.2439
    -4.2255  -4.1880  -4.0940  -4.0902  -4.0677  -4.0261  -4.0260  -3.9577
    -3.9567  -3.9524  -3.9360  -3.9292  -3.9239  -3.9213  -3.8536  -3.8472
    -3.8216  -3.8196  -3.8091  -3.8056  -3.7856  -3.7826  -3.7616  -3.7546
    -3.7533  -3.7235  -3.6759  -3.6747  -3.6270  -3.6266  -3.5708  -3.5678
    -3.5149  -3.5135  -3.5132  -3.5078  -3.4772  -3.4420  -3.4403  -3.4323
    -3.4307  -3.4305  -3.4017  -3.3975  -3.3930  -3.3321  -3.3313  -3.3229
    -3.3026  -3.2956  -3.2250  -3.2212  -3.1932  -3.1914  -3.1637  -3.1631
    -3.1486  -3.1301  -3.0745  -3.0718  -3.0557  -3.0537  -3.0061  -3.0004
    -2.9988  -2.9596  -2.9313  -2.9297  -2.9199  -2.9175  -2.9083  -2.9059
    -2.9009  -2.8996  -2.8891  -2.8473  -2.8097  -2.8082  -2.7962  -2.7958
    -2.7687  -2.7609  -2.7601  -2.7343  -2.6925  -2.6905  -2.6849  -2.6456
    -2.6367  -2.6263  -2.6244  -2.6012  -2.5970  -2.5663  -2.5331  -2.5310
    -2.5095  -2.4999  -2.4881  -2.4870  -2.4378  -2.4361  -2.4040  -2.3813
    -2.3800  -2.3596  -2.3556  -2.3458  -2.3435  -2.3341  -2.3153  -2.3130
    -2.2663  -2.2657  -2.2651  -2.2493  -2.2489  -2.2412  -2.2361  -2.2335
    -2.2328  -2.2310  -2.2233  -2.2147  -2.2131  -2.2106  -2.1857  -2.1757
    -2.1746  -2.1740  -2.1727  -2.1703  -2.1673  -2.1474  -2.1399  -2.1297
    -2.1255  -2.1059  -2.1049  -2.1005  -2.0963  -2.0955  -2.0941  -2.0803
    -2.0750  -2.0745  -2.0698  -2.0546  -2.0313  -2.0264  -1.9875  -1.9868
    -1.9649  -1.9637  -1.9427  -1.9345  -1.9238  -1.9084  -1.8990  -1.8863
    -1.8697  -1.8578  -1.8394  -1.8341  -1.8311  -1.8280  -1.8239  -1.8197
    -1.7940  -1.7855  -1.7777  -1.7514  -1.7216  -1.7173  -1.7152  -1.7105
    -1.6881  -1.6607  -1.6567  -1.6552  -1.6279  -1.6214  -1.5703  -1.5693
    -1.5374  -1.5205  -1.5139  -1.4604  -1.4575  -1.4482  -1.4458  -1.4372
    -1.4362  -1.4312  -1.4238  -1.4204  -1.3671  -1.3633  -1.3566  -1.3546
    -1.3493  -1.3371  -1.3244  -1.3016  -1.2963  -1.2836  -1.2828  -1.2791
    -1.2747  -1.2678  -1.2620  -1.2565  -1.2409  -1.2395  -1.2007  -1.1949
    -1.1892  -1.1810  -1.1644  -1.1525  -1.1126  -1.1081  -1.0842  -1.0808
    -1.0784  -1.0493  -1.0000  -0.9980  -0.9966  -0.9946  -0.9908  -0.9863
    -0.9790  -0.9624  -0.9607  -0.9231  -0.9213  -0.8918  -0.8916  -0.8844
    -0.8829  -0.8794  -0.8618  -0.8612  -0.8594  -0.8573  -0.8546  -0.8216
    -0.8170  -0.8161  -0.8134  -0.7875  -0.7837  -0.7805  -0.7588  -0.7499
    -0.7453  -0.7035  -0.6970  -0.6913  -0.6612  -0.6530  -0.6430  -0.6421
    -0.6368  -0.6350  -0.6322  -0.6269  -0.6203  -0.6118  -0.5950  -0.5933
    -0.5899  -0.5886  -0.5838  -0.5506  -0.5503  -0.5413  -0.5376  -0.5227
    -0.5174  -0.5095  -0.5026  -0.4487  -0.4470  -0.4393  -0.4387  -0.4366
    -0.4357  -0.4286  -0.4130  -0.4076  -0.4036  -0.4027  -0.4011  -0.3893
    -0.3608  -0.3597  -0.3582  -0.3508  -0.3485  -0.3444  -0.3435  -0.3313
    -0.3256  -0.3240  -0.3007  -0.2817  -0.2798  -0.2731  -0.2689  -0.2647
    -0.1926  -0.1912  -0.1888  -0.1860  -0.1795  -0.1741  -0.1423  -0.1306
    -0.1297  -0.1047  -0.0980  -0.0644   0.0221   0.0275   0.1260   0.5421
     0.5425   0.5451   0.5457   0.6018   0.6254   0.9939   0.9948   1.0357
     1.0377   1.1471   1.2311   1.3324   1.3535   1.5487   1.5877   2.1889
     2.1994   2.3482   2.3628   2.4779   2.5068   2.5913   2.5915   2.7455
     2.9725   2.9830   3.1095   3.3238   3.3434   3.4121   3.4160   3.5129
     3.5306   3.7044   3.7075   3.7856   3.9875   3.9881   4.0450   4.0571
     4.3052   4.3059   4.3301   4.5573   4.5943   4.6034   4.6469   4.9688
     4.9807   4.9874   5.0175   5.1483   5.3175   5.3189   5.3466   5.4176
     5.6901   5.9262   6.0695   6.1007   6.1044   6.1248   6.1747   6.1792
     6.2162   6.2814   6.3096   6.3311   6.3326   6.3397   6.3468   6.3872
     6.3983   6.4551   6.5007   6.5759   6.6946   6.7499   6.9058   6.9830
     7.0366   7.0416   7.0592

          k = 0.2500-0.1443 0.1111 (136898 PWs)   bands (ev):

   -19.6765  -7.4543  -6.3825  -5.5909  -5.3065  -5.2419  -5.2397  -4.7087
    -4.7012  -4.6013  -4.5691  -4.4614  -4.4045  -4.3657  -4.3188  -4.2897
    -4.2609  -4.2541  -4.2137  -4.1250  -4.0837  -4.0831  -4.0216  -4.0040
    -3.9873  -3.9004  -3.8988  -3.8641  -3.8638  -3.8589  -3.8367  -3.8152
    -3.8126  -3.7116  -3.7085  -3.7061  -3.6875  -3.6710  -3.6674  -3.6591
    -3.6570  -3.6460  -3.6155  -3.6146  -3.6144  -3.6120  -3.5833  -3.5827
    -3.5643  -3.5624  -3.5524  -3.5104  -3.5078  -3.4748  -3.4631  -3.4589
    -3.4553  -3.4538  -3.3812  -3.3799  -3.3481  -3.3448  -3.3383  -3.2755
    -3.2751  -3.2606  -3.2550  -3.2307  -3.2302  -3.2293  -3.2252  -3.0748
    -3.0722  -3.0519  -3.0506  -3.0460  -3.0282  -3.0262  -3.0031  -3.0011
    -2.9524  -2.9508  -2.9363  -2.9356  -2.9146  -2.8690  -2.8677  -2.8487
    -2.8432  -2.8411  -2.8025  -2.8015  -2.7938  -2.7920  -2.7790  -2.7756
    -2.7392  -2.7382  -2.7176  -2.7171  -2.7137  -2.7113  -2.7076  -2.6354
    -2.6344  -2.6300  -2.6025  -2.5988  -2.5436  -2.5416  -2.5132  -2.5110
    -2.4989  -2.4975  -2.4907  -2.4640  -2.4630  -2.4519  -2.4364  -2.4161
    -2.4114  -2.4096  -2.3909  -2.3897  -2.3801  -2.3786  -2.3759  -2.3740
    -2.3640  -2.3182  -2.2886  -2.2878  -2.2716  -2.2582  -2.2522  -2.2510
    -2.2442  -2.2431  -2.2410  -2.2146  -2.2122  -2.2104  -2.2019  -2.1997
    -2.1863  -2.1611  -2.1582  -2.1575  -2.1563  -2.1520  -2.1090  -2.0822
    -2.0785  -2.0769  -2.0720  -2.0613  -2.0565  -2.0512  -2.0327  -2.0320
    -2.0047  -2.0011  -1.9983  -1.9891  -1.9804  -1.9795  -1.9615  -1.9469
    -1.9157  -1.9064  -1.9006  -1.8963  -1.8940  -1.8932  -1.8885  -1.8873
    -1.8850  -1.8809  -1.8790  -1.8658  -1.8623  -1.8051  -1.7364  -1.7293
    -1.7003  -1.6970  -1.6893  -1.6876  -1.6844  -1.6722  -1.6710  -1.6700
    -1.6635  -1.6508  -1.6424  -1.6396  -1.6306  -1.6245  -1.6228  -1.6042
    -1.5994  -1.5899  -1.5717  -1.5694  -1.5425  -1.5306  -1.5272  -1.5107
    -1.5030  -1.4997  -1.4966  -1.4825  -1.4681  -1.4670  -1.4616  -1.4583
    -1.4357  -1.4312  -1.4199  -1.4129  -1.3869  -1.3798  -1.3666  -1.3265
    -1.3235  -1.3130  -1.3078  -1.2950  -1.2844  -1.2816  -1.2510  -1.2500
    -1.2454  -1.2124  -1.2063  -1.2011  -1.1886  -1.1866  -1.1638  -1.1608
    -1.1522  -1.1304  -1.1296  -1.1274  -1.0662  -1.0653  -1.0544  -1.0532
    -1.0373  -1.0353  -1.0250  -1.0196  -1.0052  -0.9928  -0.9647  -0.9632
    -0.9511  -0.9224  -0.9154  -0.9114  -0.9019  -0.9016  -0.9008  -0.8976
    -0.8882  -0.8798  -0.8534  -0.8515  -0.8430  -0.8405  -0.8383  -0.8232
    -0.8163  -0.7986  -0.7882  -0.7762  -0.7597  -0.6828  -0.6693  -0.6636
    -0.6631  -0.6580  -0.6544  -0.6472  -0.6296  -0.6245  -0.6143  -0.6089
    -0.5988  -0.5935  -0.5902  -0.5702  -0.5688  -0.5593  -0.5585  -0.4843
    -0.4839  -0.4538  -0.4469  -0.4460  -0.4417  -0.4377  -0.4367  -0.4339
    -0.4265  -0.4188  -0.3981  -0.3814  -0.3654  -0.3499  -0.3483  -0.3389
    -0.3344  -0.3265  -0.3248  -0.3228  -0.3225  -0.3126  -0.3052  -0.3010
    -0.2908  -0.2699  -0.2685  -0.2605  -0.2544  -0.2494  -0.2351  -0.2042
    -0.2005  -0.1947  -0.1876  -0.1261  -0.1224  -0.0901  -0.0899  -0.0318
    -0.0316  -0.0310  -0.0049  -0.0048   0.2156   0.2504   0.5705   0.5708
     0.6535   0.6817   0.8501   0.8863   0.8999   1.0153   1.0228   1.4507
     1.4512   1.4682   1.7289   1.7606   1.7613   2.0240   2.0533   2.1141
     2.1163   2.1361   2.1651   2.3710   2.3724   2.4616   2.4629   2.5195
     2.5885   2.6263   2.7673   2.8676   3.2982   3.3021   3.3026   3.3220
     3.3589   3.3643   3.6541   3.6557   3.9257   3.9475   4.0158   4.3512
     4.3857   4.4009   4.5696   4.5775   4.6889   4.6988   4.7806   4.8978
     4.9107   5.0031   5.0189   5.0382   5.3222   5.3816   5.4049   5.5091
     5.5690   5.7688   5.7774   5.7891   5.8071   5.8111   5.8616   5.8649
     5.9268   6.0149   6.1747   6.2634   6.4444   6.4729   6.6025   6.6110
     6.6139   6.6197   6.6575   6.7386   6.8085   6.8602   6.8707   6.9862
     7.0188   7.0554   7.0784

          k =-0.2500-0.4330 0.1111 (136853 PWs)   bands (ev):

   -19.6765  -7.4543  -6.1727  -5.7749  -5.7720  -5.1043  -4.7731  -4.7612
    -4.7450  -4.7230  -4.4208  -4.3605  -4.3439  -4.2618  -4.2563  -4.2439
    -4.2255  -4.1880  -4.0940  -4.0902  -4.0677  -4.0261  -4.0260  -3.9577
    -3.9568  -3.9524  -3.9360  -3.9292  -3.9239  -3.9213  -3.8536  -3.8472
    -3.8216  -3.8196  -3.8091  -3.8056  -3.7856  -3.7826  -3.7616  -3.7546
    -3.7533  -3.7235  -3.6759  -3.6747  -3.6270  -3.6266  -3.5708  -3.5678
    -3.5149  -3.5135  -3.5132  -3.5078  -3.4772  -3.4420  -3.4403  -3.4323
    -3.4307  -3.4305  -3.4017  -3.3975  -3.3930  -3.3321  -3.3313  -3.3229
    -3.3026  -3.2956  -3.2250  -3.2212  -3.1932  -3.1914  -3.1637  -3.1631
    -3.1486  -3.1301  -3.0745  -3.0718  -3.0557  -3.0537  -3.0061  -3.0004
    -2.9988  -2.9596  -2.9313  -2.9297  -2.9199  -2.9175  -2.9083  -2.9059
    -2.9009  -2.8996  -2.8891  -2.8473  -2.8097  -2.8082  -2.7962  -2.7958
    -2.7687  -2.7609  -2.7601  -2.7343  -2.6925  -2.6905  -2.6849  -2.6456
    -2.6367  -2.6263  -2.6244  -2.6012  -2.5970  -2.5663  -2.5331  -2.5310
    -2.5095  -2.4999  -2.4881  -2.4870  -2.4378  -2.4361  -2.4040  -2.3813
    -2.3800  -2.3596  -2.3556  -2.3458  -2.3435  -2.3341  -2.3153  -2.3130
    -2.2663  -2.2657  -2.2651  -2.2493  -2.2489  -2.2412  -2.2361  -2.2335
    -2.2328  -2.2310  -2.2233  -2.2147  -2.2131  -2.2106  -2.1857  -2.1757
    -2.1746  -2.1740  -2.1727  -2.1703  -2.1673  -2.1474  -2.1399  -2.1297
    -2.1255  -2.1059  -2.1049  -2.1005  -2.0963  -2.0955  -2.0941  -2.0803
    -2.0750  -2.0745  -2.0698  -2.0546  -2.0313  -2.0264  -1.9875  -1.9868
    -1.9649  -1.9637  -1.9427  -1.9345  -1.9238  -1.9084  -1.8990  -1.8863
    -1.8697  -1.8578  -1.8394  -1.8341  -1.8311  -1.8280  -1.8239  -1.8197
    -1.7940  -1.7855  -1.7777  -1.7514  -1.7216  -1.7173  -1.7152  -1.7105
    -1.6881  -1.6607  -1.6567  -1.6552  -1.6279  -1.6214  -1.5703  -1.5693
    -1.5374  -1.5205  -1.5139  -1.4604  -1.4575  -1.4482  -1.4458  -1.4372
    -1.4362  -1.4312  -1.4238  -1.4204  -1.3671  -1.3633  -1.3566  -1.3546
    -1.3493  -1.3371  -1.3244  -1.3016  -1.2963  -1.2836  -1.2828  -1.2791
    -1.2747  -1.2678  -1.2620  -1.2565  -1.2409  -1.2395  -1.2007  -1.1949
    -1.1892  -1.1810  -1.1644  -1.1525  -1.1126  -1.1081  -1.0842  -1.0808
    -1.0784  -1.0493  -1.0000  -0.9980  -0.9967  -0.9946  -0.9908  -0.9863
    -0.9790  -0.9624  -0.9607  -0.9231  -0.9213  -0.8918  -0.8916  -0.8844
    -0.8829  -0.8794  -0.8618  -0.8612  -0.8594  -0.8573  -0.8546  -0.8216
    -0.8170  -0.8161  -0.8134  -0.7875  -0.7837  -0.7805  -0.7588  -0.7499
    -0.7453  -0.7035  -0.6970  -0.6913  -0.6612  -0.6530  -0.6430  -0.6421
    -0.6368  -0.6350  -0.6322  -0.6269  -0.6203  -0.6118  -0.5950  -0.5933
    -0.5899  -0.5886  -0.5838  -0.5506  -0.5503  -0.5413  -0.5376  -0.5227
    -0.5174  -0.5095  -0.5026  -0.4487  -0.4470  -0.4393  -0.4387  -0.4366
    -0.4357  -0.4286  -0.4130  -0.4076  -0.4036  -0.4027  -0.4011  -0.3893
    -0.3608  -0.3597  -0.3582  -0.3508  -0.3485  -0.3444  -0.3435  -0.3313
    -0.3256  -0.3240  -0.3007  -0.2817  -0.2798  -0.2731  -0.2689  -0.2647
    -0.1926  -0.1912  -0.1888  -0.1860  -0.1795  -0.1741  -0.1423  -0.1306
    -0.1297  -0.1047  -0.0980  -0.0644   0.0221   0.0275   0.1260   0.5421
     0.5425   0.5451   0.5457   0.6018   0.6254   0.9939   0.9948   1.0357
     1.0377   1.1471   1.2311   1.3324   1.3535   1.5487   1.5877   2.1889
     2.1994   2.3482   2.3628   2.4779   2.5068   2.5913   2.5915   2.7455
     2.9725   2.9830   3.1095   3.3238   3.3434   3.4121   3.4160   3.5129
     3.5306   3.7044   3.7075   3.7856   3.9875   3.9881   4.0450   4.0571
     4.3052   4.3059   4.3301   4.5573   4.5943   4.6034   4.6469   4.9688
     4.9807   4.9874   5.0175   5.1483   5.3175   5.3189   5.3466   5.4176
     5.6900   5.9262   6.0695   6.1007   6.1045   6.1251   6.1747   6.1792
     6.2161   6.2814   6.3094   6.3312   6.3325   6.3396   6.3468   6.3872
     6.3982   6.4549   6.5003   6.5749   6.6954   6.7505   6.9069   6.9839
     7.0374   7.0404   7.0599

          k =-0.2500 0.4330-0.1111 (136853 PWs)   bands (ev):

   -19.6765  -7.4542  -6.1727  -5.7754  -5.7715  -5.1043  -4.7734  -4.7607
    -4.7449  -4.7234  -4.4211  -4.3598  -4.3442  -4.2618  -4.2554  -4.2444
    -4.2255  -4.1881  -4.0945  -4.0898  -4.0678  -4.0263  -4.0259  -3.9577
    -3.9569  -3.9522  -3.9359  -3.9292  -3.9229  -3.9223  -3.8542  -3.8466
    -3.8215  -3.8193  -3.8091  -3.8055  -3.7856  -3.7826  -3.7617  -3.7547
    -3.7533  -3.7235  -3.6763  -3.6745  -3.6275  -3.6260  -3.5707  -3.5679
    -3.5152  -3.5135  -3.5131  -3.5077  -3.4773  -3.4421  -3.4404  -3.4324
    -3.4308  -3.4305  -3.4018  -3.3974  -3.3929  -3.3324  -3.3312  -3.3228
    -3.3024  -3.2954  -3.2250  -3.2214  -3.1929  -3.1914  -3.1637  -3.1629
    -3.1485  -3.1303  -3.0748  -3.0719  -3.0557  -3.0533  -3.0059  -3.0006
    -2.9987  -2.9595  -2.9314  -2.9294  -2.9203  -2.9169  -2.9083  -2.9061
    -2.9010  -2.8994  -2.8892  -2.8473  -2.8104  -2.8075  -2.7963  -2.7956
    -2.7689  -2.7611  -2.7599  -2.7343  -2.6930  -2.6901  -2.6849  -2.6455
    -2.6366  -2.6269  -2.6237  -2.6008  -2.5973  -2.5664  -2.5331  -2.5308
    -2.5096  -2.5000  -2.4885  -2.4872  -2.4378  -2.4359  -2.4038  -2.3816
    -2.3802  -2.3592  -2.3559  -2.3454  -2.3436  -2.3342  -2.3155  -2.3127
    -2.2661  -2.2656  -2.2650  -2.2500  -2.2484  -2.2413  -2.2361  -2.2335
    -2.2327  -2.2311  -2.2232  -2.2167  -2.2133  -2.2104  -2.1851  -2.1758
    -2.1746  -2.1739  -2.1724  -2.1701  -2.1671  -2.1469  -2.1399  -2.1291
    -2.1256  -2.1063  -2.1047  -2.1003  -2.0963  -2.0956  -2.0941  -2.0808
    -2.0756  -2.0743  -2.0694  -2.0547  -2.0315  -2.0265  -1.9884  -1.9860
    -1.9652  -1.9638  -1.9440  -1.9337  -1.9208  -1.9082  -1.8990  -1.8863
    -1.8709  -1.8574  -1.8397  -1.8345  -1.8314  -1.8272  -1.8230  -1.8199
    -1.7938  -1.7855  -1.7775  -1.7559  -1.7211  -1.7172  -1.7156  -1.7109
    -1.6908  -1.6584  -1.6559  -1.6539  -1.6277  -1.6200  -1.5703  -1.5691
    -1.5377  -1.5207  -1.5137  -1.4601  -1.4579  -1.4483  -1.4456  -1.4370
    -1.4362  -1.4313  -1.4242  -1.4202  -1.3676  -1.3630  -1.3563  -1.3547
    -1.3496  -1.3372  -1.3270  -1.3015  -1.2956  -1.2838  -1.2827  -1.2799
    -1.2744  -1.2678  -1.2621  -1.2550  -1.2407  -1.2393  -1.2013  -1.1943
    -1.1892  -1.1815  -1.1653  -1.1525  -1.1125  -1.1081  -1.0843  -1.0806
    -1.0776  -1.0495  -1.0001  -0.9979  -0.9970  -0.9950  -0.9913  -0.9857
    -0.9790  -0.9622  -0.9608  -0.9225  -0.9214  -0.8919  -0.8913  -0.8845
    -0.8831  -0.8791  -0.8618  -0.8613  -0.8594  -0.8571  -0.8545  -0.8220
    -0.8170  -0.8162  -0.8128  -0.7875  -0.7842  -0.7798  -0.7590  -0.7501
    -0.7450  -0.7038  -0.6972  -0.6913  -0.6612  -0.6531  -0.6429  -0.6420
    -0.6366  -0.6351  -0.6324  -0.6265  -0.6204  -0.6117  -0.5953  -0.5932
    -0.5899  -0.5888  -0.5839  -0.5505  -0.5501  -0.5420  -0.5373  -0.5225
    -0.5175  -0.5096  -0.5023  -0.4486  -0.4469  -0.4394  -0.4385  -0.4369
    -0.4356  -0.4284  -0.4131  -0.4077  -0.4035  -0.4025  -0.4011  -0.3893
    -0.3610  -0.3598  -0.3581  -0.3510  -0.3484  -0.3444  -0.3436  -0.3314
    -0.3256  -0.3243  -0.3004  -0.2821  -0.2794  -0.2732  -0.2689  -0.2647
    -0.1926  -0.1912  -0.1887  -0.1858  -0.1795  -0.1741  -0.1423  -0.1306
    -0.1298  -0.1055  -0.0979  -0.0637   0.0219   0.0281   0.1263   0.5421
     0.5426   0.5450   0.5458   0.6011   0.6258   0.9936   0.9947   1.0353
     1.0383   1.1475   1.2313   1.3316   1.3547   1.5478   1.5881   2.1882
     2.1999   2.3473   2.3640   2.4769   2.5078   2.5909   2.5918   2.7454
     2.9728   2.9831   3.1091   3.3231   3.3433   3.4120   3.4165   3.5124
     3.5307   3.7028   3.7084   3.7859   3.9873   3.9884   4.0448   4.0587
     4.3041   4.3057   4.3302   4.5579   4.5944   4.6030   4.6465   4.9686
     4.9807   4.9924   5.0168   5.1476   5.3176   5.3190   5.3418   5.4156
     5.7037   5.9126   6.0757   6.1008   6.1039   6.1262   6.1748   6.1793
     6.2170   6.2813   6.3097   6.3299   6.3327   6.3391   6.3468   6.3873
     6.3987   6.4532   6.4900   6.5821   6.6973   6.7381   6.9140   6.9807
     7.0365   7.0417   7.0597

          k = 0.2500-0.4330-0.1111 (136853 PWs)   bands (ev):

   -19.6765  -7.4542  -6.1727  -5.7754  -5.7715  -5.1043  -4.7734  -4.7607
    -4.7449  -4.7234  -4.4211  -4.3598  -4.3442  -4.2618  -4.2554  -4.2444
    -4.2255  -4.1881  -4.0945  -4.0898  -4.0678  -4.0263  -4.0259  -3.9577
    -3.9569  -3.9522  -3.9359  -3.9292  -3.9229  -3.9223  -3.8542  -3.8466
    -3.8215  -3.8193  -3.8091  -3.8055  -3.7856  -3.7826  -3.7617  -3.7547
    -3.7533  -3.7235  -3.6763  -3.6745  -3.6275  -3.6260  -3.5707  -3.5679
    -3.5152  -3.5135  -3.5131  -3.5077  -3.4773  -3.4421  -3.4404  -3.4324
    -3.4308  -3.4305  -3.4018  -3.3974  -3.3929  -3.3324  -3.3312  -3.3228
    -3.3024  -3.2954  -3.2250  -3.2214  -3.1929  -3.1914  -3.1637  -3.1629
    -3.1485  -3.1303  -3.0748  -3.0719  -3.0557  -3.0533  -3.0059  -3.0006
    -2.9987  -2.9595  -2.9314  -2.9294  -2.9203  -2.9169  -2.9083  -2.9061
    -2.9010  -2.8994  -2.8892  -2.8473  -2.8104  -2.8075  -2.7963  -2.7956
    -2.7689  -2.7611  -2.7599  -2.7343  -2.6930  -2.6901  -2.6849  -2.6455
    -2.6366  -2.6269  -2.6237  -2.6008  -2.5973  -2.5664  -2.5331  -2.5308
    -2.5096  -2.5000  -2.4885  -2.4872  -2.4378  -2.4359  -2.4038  -2.3816
    -2.3802  -2.3592  -2.3559  -2.3454  -2.3436  -2.3342  -2.3155  -2.3127
    -2.2661  -2.2656  -2.2650  -2.2500  -2.2484  -2.2413  -2.2361  -2.2335
    -2.2327  -2.2311  -2.2232  -2.2167  -2.2133  -2.2104  -2.1851  -2.1758
    -2.1746  -2.1739  -2.1724  -2.1701  -2.1671  -2.1469  -2.1399  -2.1291
    -2.1256  -2.1063  -2.1047  -2.1003  -2.0963  -2.0956  -2.0941  -2.0808
    -2.0756  -2.0743  -2.0694  -2.0547  -2.0315  -2.0265  -1.9884  -1.9860
    -1.9652  -1.9638  -1.9440  -1.9337  -1.9208  -1.9082  -1.8990  -1.8863
    -1.8709  -1.8574  -1.8397  -1.8345  -1.8314  -1.8272  -1.8230  -1.8199
    -1.7938  -1.7855  -1.7775  -1.7559  -1.7211  -1.7172  -1.7156  -1.7109
    -1.6908  -1.6584  -1.6559  -1.6539  -1.6277  -1.6200  -1.5703  -1.5691
    -1.5377  -1.5207  -1.5137  -1.4601  -1.4579  -1.4483  -1.4456  -1.4370
    -1.4362  -1.4313  -1.4242  -1.4202  -1.3676  -1.3630  -1.3563  -1.3547
    -1.3496  -1.3372  -1.3270  -1.3015  -1.2956  -1.2838  -1.2827  -1.2799
    -1.2744  -1.2678  -1.2621  -1.2550  -1.2407  -1.2393  -1.2013  -1.1943
    -1.1892  -1.1815  -1.1653  -1.1525  -1.1125  -1.1081  -1.0843  -1.0806
    -1.0776  -1.0495  -1.0001  -0.9979  -0.9970  -0.9950  -0.9913  -0.9857
    -0.9790  -0.9622  -0.9608  -0.9225  -0.9214  -0.8919  -0.8913  -0.8845
    -0.8830  -0.8791  -0.8618  -0.8613  -0.8594  -0.8571  -0.8545  -0.8220
    -0.8170  -0.8162  -0.8128  -0.7875  -0.7842  -0.7798  -0.7590  -0.7501
    -0.7450  -0.7038  -0.6972  -0.6913  -0.6612  -0.6531  -0.6429  -0.6420
    -0.6366  -0.6351  -0.6324  -0.6265  -0.6204  -0.6117  -0.5953  -0.5932
    -0.5899  -0.5888  -0.5839  -0.5505  -0.5501  -0.5420  -0.5373  -0.5225
    -0.5175  -0.5096  -0.5023  -0.4486  -0.4469  -0.4394  -0.4385  -0.4369
    -0.4356  -0.4284  -0.4131  -0.4077  -0.4035  -0.4025  -0.4011  -0.3893
    -0.3610  -0.3598  -0.3581  -0.3510  -0.3484  -0.3444  -0.3436  -0.3314
    -0.3256  -0.3243  -0.3004  -0.2821  -0.2794  -0.2732  -0.2689  -0.2647
    -0.1926  -0.1912  -0.1887  -0.1858  -0.1795  -0.1741  -0.1423  -0.1306
    -0.1298  -0.1055  -0.0979  -0.0637   0.0219   0.0281   0.1263   0.5421
     0.5426   0.5450   0.5458   0.6011   0.6258   0.9936   0.9947   1.0353
     1.0382   1.1475   1.2313   1.3316   1.3547   1.5478   1.5881   2.1882
     2.1999   2.3473   2.3640   2.4769   2.5078   2.5909   2.5918   2.7454
     2.9728   2.9831   3.1091   3.3231   3.3433   3.4120   3.4165   3.5124
     3.5307   3.7028   3.7084   3.7859   3.9873   3.9884   4.0448   4.0587
     4.3041   4.3057   4.3302   4.5579   4.5944   4.6030   4.6465   4.9686
     4.9807   4.9924   5.0168   5.1476   5.3176   5.3190   5.3418   5.4156
     5.7038   5.9126   6.0758   6.1008   6.1038   6.1259   6.1747   6.1793
     6.2170   6.2813   6.3098   6.3299   6.3326   6.3391   6.3469   6.3873
     6.3988   6.4532   6.4906   6.5831   6.6964   6.7376   6.9133   6.9800
     7.0359   7.0433   7.0586

          k = 0.5000 0.0000 0.1111 (136853 PWs)   bands (ev):

   -19.6765  -7.4543  -6.1727  -5.7762  -5.7708  -5.1043  -4.7732  -4.7620
    -4.7450  -4.7223  -4.4205  -4.3609  -4.3435  -4.2619  -4.2564  -4.2435
    -4.2255  -4.1886  -4.0940  -4.0903  -4.0677  -4.0262  -4.0260  -3.9578
    -3.9568  -3.9531  -3.9352  -3.9288  -3.9252  -3.9198  -3.8536  -3.8470
    -3.8223  -3.8184  -3.8093  -3.8052  -3.7857  -3.7826  -3.7616  -3.7545
    -3.7534  -3.7239  -3.6759  -3.6749  -3.6279  -3.6256  -3.5706  -3.5680
    -3.5149  -3.5133  -3.5132  -3.5085  -3.4773  -3.4420  -3.4408  -3.4323
    -3.4310  -3.4302  -3.4026  -3.3965  -3.3928  -3.3325  -3.3314  -3.3226
    -3.3026  -3.2952  -3.2255  -3.2206  -3.1931  -3.1909  -3.1638  -3.1631
    -3.1486  -3.1303  -3.0743  -3.0722  -3.0554  -3.0535  -3.0048  -3.0014
    -2.9987  -2.9595  -2.9306  -2.9293  -2.9190  -2.9180  -2.9096  -2.9058
    -2.9012  -2.8994  -2.8893  -2.8474  -2.8097  -2.8084  -2.7964  -2.7957
    -2.7690  -2.7604  -2.7602  -2.7343  -2.6917  -2.6911  -2.6842  -2.6457
    -2.6367  -2.6261  -2.6244  -2.5985  -2.5976  -2.5665  -2.5340  -2.5308
    -2.5095  -2.5000  -2.4902  -2.4872  -2.4372  -2.4360  -2.4036  -2.3825
    -2.3804  -2.3574  -2.3560  -2.3458  -2.3431  -2.3344  -2.3139  -2.3131
    -2.2666  -2.2659  -2.2651  -2.2499  -2.2484  -2.2412  -2.2366  -2.2337
    -2.2319  -2.2311  -2.2247  -2.2233  -2.2126  -2.2113  -2.1838  -2.1759
    -2.1748  -2.1738  -2.1719  -2.1694  -2.1667  -2.1440  -2.1399  -2.1272
    -2.1254  -2.1062  -2.1049  -2.1009  -2.0961  -2.0956  -2.0933  -2.0814
    -2.0753  -2.0746  -2.0696  -2.0548  -2.0312  -2.0269  -1.9884  -1.9858
    -1.9663  -1.9637  -1.9472  -1.9332  -1.9098  -1.9081  -1.8932  -1.8874
    -1.8785  -1.8558  -1.8418  -1.8355  -1.8319  -1.8261  -1.8215  -1.8163
    -1.7936  -1.7870  -1.7773  -1.7734  -1.7199  -1.7160  -1.7151  -1.7121
    -1.6964  -1.6575  -1.6557  -1.6461  -1.6277  -1.6108  -1.5701  -1.5689
    -1.5379  -1.5218  -1.5132  -1.4597  -1.4587  -1.4484  -1.4445  -1.4372
    -1.4349  -1.4313  -1.4243  -1.4211  -1.3705  -1.3624  -1.3563  -1.3535
    -1.3487  -1.3376  -1.3370  -1.3018  -1.2933  -1.2838  -1.2830  -1.2819
    -1.2743  -1.2674  -1.2622  -1.2490  -1.2416  -1.2364  -1.2041  -1.1906
    -1.1897  -1.1878  -1.1678  -1.1524  -1.1120  -1.1075  -1.0839  -1.0807
    -1.0736  -1.0496  -1.0006  -0.9985  -0.9975  -0.9953  -0.9914  -0.9836
    -0.9794  -0.9637  -0.9605  -0.9221  -0.9207  -0.8924  -0.8896  -0.8846
    -0.8838  -0.8779  -0.8618  -0.8614  -0.8597  -0.8569  -0.8560  -0.8233
    -0.8169  -0.8162  -0.8094  -0.7877  -0.7858  -0.7793  -0.7592  -0.7507
    -0.7442  -0.7044  -0.6987  -0.6907  -0.6612  -0.6540  -0.6425  -0.6418
    -0.6369  -0.6354  -0.6334  -0.6254  -0.6209  -0.6104  -0.5953  -0.5932
    -0.5898  -0.5894  -0.5833  -0.5508  -0.5500  -0.5446  -0.5362  -0.5219
    -0.5176  -0.5094  -0.5023  -0.4483  -0.4470  -0.4399  -0.4383  -0.4376
    -0.4351  -0.4282  -0.4137  -0.4076  -0.4030  -0.4022  -0.4013  -0.3896
    -0.3613  -0.3596  -0.3580  -0.3511  -0.3481  -0.3446  -0.3432  -0.3324
    -0.3251  -0.3242  -0.2998  -0.2824  -0.2794  -0.2732  -0.2692  -0.2645
    -0.1920  -0.1916  -0.1888  -0.1853  -0.1795  -0.1742  -0.1423  -0.1309
    -0.1296  -0.1065  -0.0978  -0.0622   0.0211   0.0305   0.1272   0.5420
     0.5423   0.5455   0.5457   0.5976   0.6284   0.9919   0.9948   1.0339
     1.0402   1.1490   1.2318   1.3307   1.3570   1.5452   1.5885   2.1850
     2.2023   2.3447   2.3682   2.4727   2.5119   2.5907   2.5920   2.7452
     2.9739   2.9826   3.1078   3.3222   3.3422   3.4105   3.4192   3.5109
     3.5308   3.6981   3.7102   3.7859   3.9875   3.9883   4.0416   4.0664
     4.3022   4.3056   4.3310   4.5579   4.5931   4.6051   4.6462   4.9693
     4.9774   5.0076   5.0175   5.1466   5.3169   5.3208   5.3222   5.4101
     5.7749   5.8443   6.0939   6.0998   6.1046   6.1300   6.1753   6.1803
     6.2248   6.2831   6.3119   6.3212   6.3369   6.3394   6.3420   6.3914
     6.3989   6.4157   6.4727   6.5997   6.6727   6.7561   6.9275   6.9699
     7.0335   7.0461   7.0581

          k =-0.5000 0.0000 0.1111 (136853 PWs)   bands (ev):

   -19.6765  -7.4543  -6.1727  -5.7762  -5.7708  -5.1043  -4.7732  -4.7620
    -4.7450  -4.7223  -4.4205  -4.3609  -4.3435  -4.2619  -4.2564  -4.2435
    -4.2255  -4.1886  -4.0940  -4.0903  -4.0677  -4.0262  -4.0260  -3.9578
    -3.9568  -3.9531  -3.9352  -3.9288  -3.9252  -3.9198  -3.8536  -3.8470
    -3.8223  -3.8184  -3.8093  -3.8052  -3.7857  -3.7826  -3.7616  -3.7545
    -3.7534  -3.7239  -3.6759  -3.6749  -3.6279  -3.6256  -3.5706  -3.5680
    -3.5149  -3.5133  -3.5132  -3.5085  -3.4773  -3.4420  -3.4408  -3.4323
    -3.4310  -3.4302  -3.4026  -3.3965  -3.3928  -3.3325  -3.3314  -3.3226
    -3.3026  -3.2952  -3.2255  -3.2206  -3.1931  -3.1909  -3.1638  -3.1631
    -3.1486  -3.1303  -3.0743  -3.0722  -3.0554  -3.0535  -3.0048  -3.0014
    -2.9987  -2.9595  -2.9306  -2.9293  -2.9190  -2.9180  -2.9096  -2.9058
    -2.9012  -2.8994  -2.8893  -2.8474  -2.8097  -2.8084  -2.7964  -2.7957
    -2.7690  -2.7604  -2.7602  -2.7343  -2.6917  -2.6911  -2.6842  -2.6457
    -2.6367  -2.6261  -2.6244  -2.5985  -2.5976  -2.5665  -2.5340  -2.5308
    -2.5095  -2.5000  -2.4902  -2.4872  -2.4372  -2.4360  -2.4036  -2.3825
    -2.3804  -2.3574  -2.3560  -2.3458  -2.3431  -2.3344  -2.3139  -2.3131
    -2.2666  -2.2659  -2.2651  -2.2499  -2.2484  -2.2412  -2.2366  -2.2337
    -2.2319  -2.2311  -2.2247  -2.2233  -2.2126  -2.2113  -2.1838  -2.1759
    -2.1748  -2.1738  -2.1719  -2.1694  -2.1667  -2.1440  -2.1399  -2.1272
    -2.1254  -2.1062  -2.1049  -2.1009  -2.0961  -2.0956  -2.0933  -2.0814
    -2.0753  -2.0746  -2.0696  -2.0548  -2.0312  -2.0269  -1.9884  -1.9858
    -1.9663  -1.9637  -1.9472  -1.9332  -1.9098  -1.9081  -1.8932  -1.8874
    -1.8785  -1.8558  -1.8418  -1.8355  -1.8319  -1.8261  -1.8215  -1.8163
    -1.7936  -1.7870  -1.7773  -1.7734  -1.7199  -1.7160  -1.7151  -1.7121
    -1.6964  -1.6575  -1.6557  -1.6461  -1.6277  -1.6108  -1.5701  -1.5689
    -1.5379  -1.5218  -1.5132  -1.4597  -1.4587  -1.4484  -1.4445  -1.4372
    -1.4349  -1.4313  -1.4243  -1.4211  -1.3705  -1.3624  -1.3563  -1.3535
    -1.3487  -1.3376  -1.3370  -1.3018  -1.2933  -1.2838  -1.2830  -1.2819
    -1.2743  -1.2674  -1.2622  -1.2490  -1.2416  -1.2364  -1.2041  -1.1906
    -1.1897  -1.1878  -1.1678  -1.1524  -1.1120  -1.1075  -1.0839  -1.0807
    -1.0736  -1.0496  -1.0006  -0.9985  -0.9975  -0.9953  -0.9914  -0.9836
    -0.9794  -0.9637  -0.9605  -0.9221  -0.9207  -0.8924  -0.8896  -0.8846
    -0.8838  -0.8779  -0.8618  -0.8614  -0.8597  -0.8569  -0.8560  -0.8233
    -0.8169  -0.8162  -0.8094  -0.7877  -0.7858  -0.7793  -0.7592  -0.7507
    -0.7442  -0.7044  -0.6987  -0.6907  -0.6612  -0.6540  -0.6425  -0.6418
    -0.6369  -0.6354  -0.6334  -0.6254  -0.6209  -0.6104  -0.5953  -0.5932
    -0.5898  -0.5894  -0.5833  -0.5508  -0.5500  -0.5446  -0.5362  -0.5219
    -0.5176  -0.5094  -0.5023  -0.4483  -0.4470  -0.4399  -0.4383  -0.4376
    -0.4351  -0.4282  -0.4137  -0.4076  -0.4030  -0.4022  -0.4013  -0.3896
    -0.3613  -0.3596  -0.3580  -0.3511  -0.3481  -0.3446  -0.3432  -0.3324
    -0.3251  -0.3242  -0.2998  -0.2824  -0.2794  -0.2732  -0.2692  -0.2645
    -0.1920  -0.1916  -0.1888  -0.1853  -0.1795  -0.1742  -0.1423  -0.1309
    -0.1296  -0.1065  -0.0978  -0.0622   0.0211   0.0305   0.1272   0.5420
     0.5423   0.5455   0.5457   0.5976   0.6284   0.9919   0.9948   1.0339
     1.0402   1.1490   1.2318   1.3307   1.3570   1.5452   1.5885   2.1850
     2.2023   2.3447   2.3682   2.4727   2.5119   2.5907   2.5920   2.7452
     2.9739   2.9826   3.1078   3.3222   3.3422   3.4105   3.4192   3.5109
     3.5308   3.6981   3.7102   3.7859   3.9875   3.9883   4.0416   4.0664
     4.3022   4.3056   4.3310   4.5579   4.5931   4.6051   4.6462   4.9693
     4.9774   5.0076   5.0175   5.1466   5.3169   5.3208   5.3222   5.4101
     5.7749   5.8443   6.0940   6.0998   6.1046   6.1300   6.1752   6.1803
     6.2248   6.2831   6.3119   6.3212   6.3368   6.3395   6.3419   6.3914
     6.3990   6.4156   6.4729   6.5996   6.6728   6.7560   6.9276   6.9700
     7.0335   7.0462   7.0579

          k =-0.2500 0.1443 0.1111 (136898 PWs)   bands (ev):

   -19.6765  -7.4543  -6.3825  -5.5909  -5.3065  -5.2419  -5.2397  -4.7087
    -4.7012  -4.6013  -4.5691  -4.4614  -4.4045  -4.3657  -4.3188  -4.2897
    -4.2609  -4.2541  -4.2137  -4.1251  -4.0837  -4.0831  -4.0216  -4.0040
    -3.9873  -3.9004  -3.8988  -3.8641  -3.8638  -3.8589  -3.8367  -3.8152
    -3.8126  -3.7116  -3.7085  -3.7061  -3.6875  -3.6711  -3.6674  -3.6591
    -3.6570  -3.6460  -3.6155  -3.6146  -3.6144  -3.6121  -3.5833  -3.5827
    -3.5643  -3.5624  -3.5524  -3.5104  -3.5078  -3.4748  -3.4631  -3.4589
    -3.4553  -3.4538  -3.3812  -3.3799  -3.3481  -3.3448  -3.3383  -3.2755
    -3.2751  -3.2606  -3.2550  -3.2307  -3.2302  -3.2293  -3.2252  -3.0748
    -3.0722  -3.0519  -3.0506  -3.0460  -3.0282  -3.0262  -3.0031  -3.0011
    -2.9524  -2.9508  -2.9363  -2.9356  -2.9146  -2.8690  -2.8677  -2.8487
    -2.8432  -2.8411  -2.8025  -2.8015  -2.7938  -2.7920  -2.7790  -2.7756
    -2.7392  -2.7382  -2.7176  -2.7171  -2.7137  -2.7113  -2.7076  -2.6354
    -2.6344  -2.6300  -2.6025  -2.5988  -2.5436  -2.5416  -2.5132  -2.5110
    -2.4989  -2.4975  -2.4907  -2.4640  -2.4630  -2.4519  -2.4364  -2.4161
    -2.4114  -2.4096  -2.3909  -2.3897  -2.3801  -2.3786  -2.3759  -2.3740
    -2.3641  -2.3183  -2.2886  -2.2878  -2.2716  -2.2582  -2.2522  -2.2510
    -2.2442  -2.2431  -2.2410  -2.2146  -2.2122  -2.2105  -2.2019  -2.1997
    -2.1863  -2.1611  -2.1582  -2.1575  -2.1563  -2.1520  -2.1090  -2.0822
    -2.0785  -2.0769  -2.0720  -2.0613  -2.0565  -2.0512  -2.0327  -2.0320
    -2.0048  -2.0011  -1.9983  -1.9891  -1.9804  -1.9795  -1.9615  -1.9469
    -1.9157  -1.9064  -1.9006  -1.8963  -1.8940  -1.8932  -1.8885  -1.8873
    -1.8850  -1.8809  -1.8790  -1.8658  -1.8623  -1.8051  -1.7364  -1.7293
    -1.7003  -1.6970  -1.6893  -1.6876  -1.6844  -1.6722  -1.6710  -1.6700
    -1.6635  -1.6508  -1.6424  -1.6396  -1.6306  -1.6245  -1.6228  -1.6042
    -1.5994  -1.5899  -1.5717  -1.5694  -1.5425  -1.5306  -1.5272  -1.5107
    -1.5030  -1.4997  -1.4966  -1.4825  -1.4681  -1.4670  -1.4616  -1.4583
    -1.4357  -1.4312  -1.4199  -1.4129  -1.3869  -1.3798  -1.3666  -1.3265
    -1.3235  -1.3130  -1.3078  -1.2950  -1.2844  -1.2816  -1.2510  -1.2500
    -1.2454  -1.2124  -1.2064  -1.2011  -1.1886  -1.1866  -1.1638  -1.1608
    -1.1522  -1.1304  -1.1296  -1.1274  -1.0662  -1.0653  -1.0544  -1.0532
    -1.0372  -1.0353  -1.0250  -1.0196  -1.0052  -0.9928  -0.9647  -0.9632
    -0.9511  -0.9224  -0.9154  -0.9114  -0.9019  -0.9016  -0.9008  -0.8976
    -0.8882  -0.8798  -0.8534  -0.8515  -0.8430  -0.8405  -0.8383  -0.8232
    -0.8163  -0.7986  -0.7882  -0.7762  -0.7597  -0.6828  -0.6693  -0.6636
    -0.6631  -0.6580  -0.6544  -0.6472  -0.6296  -0.6245  -0.6143  -0.6089
    -0.5988  -0.5935  -0.5902  -0.5702  -0.5688  -0.5593  -0.5585  -0.4843
    -0.4839  -0.4538  -0.4469  -0.4460  -0.4417  -0.4377  -0.4367  -0.4339
    -0.4265  -0.4188  -0.3981  -0.3814  -0.3654  -0.3499  -0.3483  -0.3389
    -0.3344  -0.3264  -0.3248  -0.3228  -0.3225  -0.3126  -0.3052  -0.3010
    -0.2908  -0.2699  -0.2685  -0.2605  -0.2544  -0.2494  -0.2351  -0.2042
    -0.2005  -0.1947  -0.1876  -0.1261  -0.1224  -0.0901  -0.0899  -0.0318
    -0.0316  -0.0310  -0.0049  -0.0048   0.2156   0.2504   0.5705   0.5708
     0.6535   0.6817   0.8501   0.8863   0.8999   1.0153   1.0228   1.4507
     1.4512   1.4681   1.7289   1.7606   1.7613   2.0240   2.0533   2.1141
     2.1163   2.1361   2.1651   2.3710   2.3724   2.4616   2.4629   2.5195
     2.5885   2.6263   2.7673   2.8676   3.2982   3.3021   3.3026   3.3220
     3.3589   3.3643   3.6541   3.6557   3.9257   3.9475   4.0158   4.3512
     4.3857   4.4009   4.5696   4.5775   4.6889   4.6988   4.7806   4.8978
     4.9107   5.0032   5.0189   5.0382   5.3222   5.3816   5.4049   5.5092
     5.5690   5.7687   5.7774   5.7893   5.8071   5.8111   5.8616   5.8649
     5.9266   6.0144   6.1754   6.2634   6.4448   6.4732   6.6050   6.6111
     6.6141   6.6196   6.6589   6.7371   6.8090   6.8602   6.8708   6.9826
     7.0141   7.0538   7.0758

          k =-0.2500-0.1443-0.1111 (136898 PWs)   bands (ev):

   -19.6765  -7.4543  -6.3825  -5.5909  -5.3065  -5.2419  -5.2397  -4.7086
    -4.7011  -4.6013  -4.5693  -4.4611  -4.4047  -4.3655  -4.3189  -4.2897
    -4.2609  -4.2541  -4.2138  -4.1250  -4.0836  -4.0833  -4.0214  -4.0040
    -3.9874  -3.9004  -3.8987  -3.8641  -3.8638  -3.8589  -3.8367  -3.8155
    -3.8123  -3.7115  -3.7084  -3.7063  -3.6874  -3.6711  -3.6675  -3.6592
    -3.6570  -3.6459  -3.6155  -3.6146  -3.6143  -3.6120  -3.5834  -3.5827
    -3.5642  -3.5623  -3.5523  -3.5105  -3.5079  -3.4748  -3.4631  -3.4590
    -3.4553  -3.4538  -3.3813  -3.3799  -3.3479  -3.3447  -3.3381  -3.2757
    -3.2752  -3.2604  -3.2550  -3.2306  -3.2301  -3.2296  -3.2255  -3.0748
    -3.0723  -3.0522  -3.0504  -3.0458  -3.0282  -3.0263  -3.0030  -3.0009
    -2.9525  -2.9509  -2.9363  -2.9355  -2.9145  -2.8691  -2.8676  -2.8486
    -2.8434  -2.8412  -2.8026  -2.8014  -2.7939  -2.7922  -2.7790  -2.7755
    -2.7390  -2.7381  -2.7176  -2.7172  -2.7137  -2.7114  -2.7074  -2.6352
    -2.6344  -2.6302  -2.6025  -2.5988  -2.5440  -2.5416  -2.5130  -2.5108
    -2.4988  -2.4974  -2.4908  -2.4641  -2.4628  -2.4520  -2.4361  -2.4161
    -2.4116  -2.4098  -2.3909  -2.3896  -2.3800  -2.3787  -2.3760  -2.3740
    -2.3641  -2.3182  -2.2889  -2.2879  -2.2713  -2.2584  -2.2523  -2.2510
    -2.2442  -2.2430  -2.2411  -2.2149  -2.2123  -2.2105  -2.2020  -2.1995
    -2.1861  -2.1609  -2.1581  -2.1570  -2.1565  -2.1522  -2.1092  -2.0820
    -2.0786  -2.0769  -2.0720  -2.0615  -2.0584  -2.0509  -2.0327  -2.0318
    -2.0038  -2.0010  -1.9982  -1.9902  -1.9804  -1.9796  -1.9596  -1.9467
    -1.9164  -1.9065  -1.9005  -1.8964  -1.8937  -1.8931  -1.8884  -1.8871
    -1.8855  -1.8809  -1.8786  -1.8659  -1.8622  -1.8057  -1.7362  -1.7283
    -1.7005  -1.6967  -1.6896  -1.6872  -1.6845  -1.6724  -1.6712  -1.6698
    -1.6635  -1.6525  -1.6424  -1.6393  -1.6298  -1.6246  -1.6214  -1.6056
    -1.5994  -1.5900  -1.5721  -1.5664  -1.5424  -1.5312  -1.5269  -1.5125
    -1.5027  -1.4997  -1.4968  -1.4825  -1.4679  -1.4670  -1.4614  -1.4583
    -1.4354  -1.4317  -1.4198  -1.4124  -1.3861  -1.3800  -1.3672  -1.3268
    -1.3231  -1.3130  -1.3080  -1.2964  -1.2846  -1.2813  -1.2509  -1.2492
    -1.2450  -1.2133  -1.2055  -1.2010  -1.1885  -1.1868  -1.1642  -1.1605
    -1.1530  -1.1304  -1.1294  -1.1268  -1.0662  -1.0651  -1.0539  -1.0533
    -1.0373  -1.0353  -1.0247  -1.0200  -1.0046  -0.9925  -0.9648  -0.9632
    -0.9514  -0.9228  -0.9149  -0.9116  -0.9022  -0.9018  -0.9011  -0.8974
    -0.8891  -0.8797  -0.8534  -0.8519  -0.8424  -0.8407  -0.8377  -0.8242
    -0.8160  -0.7978  -0.7887  -0.7758  -0.7596  -0.6829  -0.6692  -0.6635
    -0.6632  -0.6580  -0.6543  -0.6475  -0.6295  -0.6244  -0.6141  -0.6092
    -0.5988  -0.5938  -0.5902  -0.5697  -0.5688  -0.5599  -0.5585  -0.4843
    -0.4840  -0.4534  -0.4473  -0.4461  -0.4416  -0.4379  -0.4365  -0.4341
    -0.4264  -0.4186  -0.3984  -0.3813  -0.3655  -0.3498  -0.3484  -0.3389
    -0.3345  -0.3265  -0.3248  -0.3227  -0.3225  -0.3127  -0.3051  -0.3011
    -0.2908  -0.2699  -0.2685  -0.2604  -0.2544  -0.2494  -0.2351  -0.2041
    -0.2005  -0.1946  -0.1876  -0.1261  -0.1225  -0.0903  -0.0897  -0.0319
    -0.0315  -0.0310  -0.0051  -0.0048   0.2164   0.2497   0.5705   0.5708
     0.6542   0.6815   0.8492   0.8857   0.9005   1.0155   1.0226   1.4507
     1.4513   1.4680   1.7292   1.7607   1.7614   2.0248   2.0523   2.1144
     2.1162   2.1365   2.1645   2.3710   2.3724   2.4617   2.4628   2.5197
     2.5892   2.6252   2.7671   2.8683   3.2980   3.3023   3.3029   3.3214
     3.3596   3.3643   3.6540   3.6559   3.9260   3.9472   4.0167   4.3512
     4.3858   4.4007   4.5646   4.5791   4.6892   4.6978   4.7826   4.8975
     4.9086   5.0055   5.0198   5.0385   5.3220   5.3814   5.4048   5.5132
     5.5677   5.7668   5.7773   5.7877   5.8072   5.8111   5.8610   5.8651
     5.9164   6.0068   6.2061   6.2595   6.4444   6.4736   6.6046   6.6116
     6.6140   6.6203   6.6557   6.7264   6.8208   6.8609   6.8700   6.9795
     7.0089   7.0544   7.0802

          k = 0.2500 0.1443-0.1111 (136898 PWs)   bands (ev):

   -19.6765  -7.4543  -6.3825  -5.5909  -5.3065  -5.2419  -5.2397  -4.7086
    -4.7011  -4.6013  -4.5693  -4.4611  -4.4047  -4.3655  -4.3189  -4.2897
    -4.2609  -4.2541  -4.2139  -4.1250  -4.0836  -4.0833  -4.0214  -4.0040
    -3.9874  -3.9004  -3.8987  -3.8641  -3.8638  -3.8589  -3.8367  -3.8155
    -3.8123  -3.7115  -3.7084  -3.7063  -3.6874  -3.6711  -3.6675  -3.6592
    -3.6570  -3.6459  -3.6155  -3.6146  -3.6143  -3.6120  -3.5834  -3.5827
    -3.5643  -3.5623  -3.5523  -3.5105  -3.5079  -3.4748  -3.4631  -3.4590
    -3.4553  -3.4538  -3.3813  -3.3799  -3.3479  -3.3447  -3.3381  -3.2757
    -3.2752  -3.2604  -3.2550  -3.2306  -3.2301  -3.2296  -3.2255  -3.0748
    -3.0723  -3.0522  -3.0504  -3.0458  -3.0282  -3.0263  -3.0030  -3.0009
    -2.9525  -2.9509  -2.9363  -2.9355  -2.9145  -2.8691  -2.8676  -2.8486
    -2.8434  -2.8412  -2.8026  -2.8014  -2.7939  -2.7922  -2.7790  -2.7755
    -2.7390  -2.7381  -2.7176  -2.7172  -2.7137  -2.7114  -2.7074  -2.6352
    -2.6344  -2.6302  -2.6025  -2.5988  -2.5440  -2.5416  -2.5130  -2.5108
    -2.4988  -2.4974  -2.4908  -2.4641  -2.4628  -2.4520  -2.4361  -2.4161
    -2.4116  -2.4098  -2.3909  -2.3896  -2.3800  -2.3787  -2.3760  -2.3740
    -2.3641  -2.3182  -2.2889  -2.2879  -2.2713  -2.2584  -2.2523  -2.2510
    -2.2442  -2.2430  -2.2411  -2.2149  -2.2123  -2.2105  -2.2020  -2.1995
    -2.1861  -2.1609  -2.1581  -2.1570  -2.1565  -2.1522  -2.1092  -2.0820
    -2.0786  -2.0769  -2.0720  -2.0615  -2.0584  -2.0509  -2.0327  -2.0318
    -2.0038  -2.0010  -1.9982  -1.9902  -1.9804  -1.9796  -1.9596  -1.9467
    -1.9164  -1.9065  -1.9005  -1.8964  -1.8937  -1.8931  -1.8885  -1.8871
    -1.8855  -1.8809  -1.8786  -1.8659  -1.8622  -1.8057  -1.7362  -1.7283
    -1.7005  -1.6967  -1.6896  -1.6872  -1.6845  -1.6724  -1.6712  -1.6698
    -1.6635  -1.6525  -1.6424  -1.6393  -1.6298  -1.6246  -1.6214  -1.6056
    -1.5994  -1.5900  -1.5721  -1.5664  -1.5424  -1.5312  -1.5269  -1.5125
    -1.5027  -1.4997  -1.4968  -1.4825  -1.4679  -1.4670  -1.4614  -1.4583
    -1.4354  -1.4317  -1.4198  -1.4124  -1.3861  -1.3800  -1.3672  -1.3268
    -1.3231  -1.3130  -1.3080  -1.2964  -1.2846  -1.2813  -1.2509  -1.2492
    -1.2450  -1.2133  -1.2055  -1.2010  -1.1885  -1.1868  -1.1642  -1.1605
    -1.1530  -1.1304  -1.1294  -1.1268  -1.0662  -1.0651  -1.0539  -1.0533
    -1.0373  -1.0353  -1.0247  -1.0200  -1.0046  -0.9925  -0.9648  -0.9632
    -0.9514  -0.9228  -0.9149  -0.9116  -0.9022  -0.9018  -0.9011  -0.8974
    -0.8891  -0.8797  -0.8534  -0.8519  -0.8424  -0.8407  -0.8377  -0.8242
    -0.8160  -0.7978  -0.7887  -0.7758  -0.7596  -0.6829  -0.6692  -0.6635
    -0.6632  -0.6580  -0.6543  -0.6475  -0.6295  -0.6244  -0.6141  -0.6092
    -0.5988  -0.5938  -0.5902  -0.5697  -0.5688  -0.5599  -0.5585  -0.4843
    -0.4840  -0.4534  -0.4473  -0.4461  -0.4416  -0.4379  -0.4365  -0.4341
    -0.4264  -0.4186  -0.3984  -0.3813  -0.3655  -0.3498  -0.3484  -0.3389
    -0.3345  -0.3265  -0.3248  -0.3227  -0.3225  -0.3127  -0.3051  -0.3011
    -0.2908  -0.2699  -0.2685  -0.2604  -0.2544  -0.2494  -0.2351  -0.2041
    -0.2005  -0.1946  -0.1876  -0.1261  -0.1225  -0.0903  -0.0897  -0.0319
    -0.0315  -0.0310  -0.0051  -0.0048   0.2164   0.2497   0.5705   0.5708
     0.6542   0.6815   0.8492   0.8857   0.9005   1.0155   1.0226   1.4507
     1.4513   1.4680   1.7291   1.7607   1.7614   2.0248   2.0523   2.1144
     2.1162   2.1365   2.1645   2.3710   2.3724   2.4617   2.4628   2.5197
     2.5892   2.6252   2.7671   2.8683   3.2980   3.3023   3.3029   3.3214
     3.3596   3.3643   3.6540   3.6559   3.9260   3.9472   4.0167   4.3512
     4.3858   4.4007   4.5646   4.5791   4.6892   4.6978   4.7826   4.8975
     4.9086   5.0055   5.0198   5.0385   5.3220   5.3814   5.4048   5.5132
     5.5677   5.7669   5.7774   5.7874   5.8072   5.8111   5.8610   5.8651
     5.9166   6.0073   6.2052   6.2597   6.4439   6.4732   6.6025   6.6113
     6.6137   6.6204   6.6544   6.7278   6.8207   6.8609   6.8699   6.9832
     7.0131   7.0560   7.0825

          k = 0.0000-0.2887 0.1111 (136898 PWs)   bands (ev):

   -19.6765  -7.4543  -6.3825  -5.5909  -5.3066  -5.2419  -5.2397  -4.7086
    -4.7010  -4.6012  -4.5691  -4.4621  -4.4045  -4.3653  -4.3188  -4.2896
    -4.2608  -4.2541  -4.2141  -4.1249  -4.0838  -4.0831  -4.0214  -4.0039
    -3.9876  -3.9004  -3.8988  -3.8640  -3.8639  -3.8590  -3.8365  -3.8153
    -3.8125  -3.7113  -3.7086  -3.7060  -3.6874  -3.6711  -3.6675  -3.6591
    -3.6574  -3.6458  -3.6154  -3.6148  -3.6142  -3.6118  -3.5832  -3.5830
    -3.5642  -3.5622  -3.5521  -3.5101  -3.5086  -3.4747  -3.4631  -3.4593
    -3.4553  -3.4539  -3.3813  -3.3800  -3.3477  -3.3447  -3.3383  -3.2757
    -3.2751  -3.2603  -3.2550  -3.2306  -3.2302  -3.2297  -3.2255  -3.0747
    -3.0723  -3.0529  -3.0505  -3.0451  -3.0283  -3.0265  -3.0031  -3.0011
    -2.9525  -2.9508  -2.9361  -2.9353  -2.9144  -2.8697  -2.8679  -2.8480
    -2.8434  -2.8413  -2.8028  -2.8012  -2.7942  -2.7921  -2.7788  -2.7752
    -2.7389  -2.7380  -2.7183  -2.7176  -2.7136  -2.7113  -2.7075  -2.6348
    -2.6342  -2.6300  -2.6025  -2.5989  -2.5462  -2.5416  -2.5118  -2.5107
    -2.4989  -2.4973  -2.4907  -2.4643  -2.4632  -2.4519  -2.4353  -2.4145
    -2.4121  -2.4101  -2.3908  -2.3896  -2.3797  -2.3780  -2.3764  -2.3740
    -2.3641  -2.3182  -2.2901  -2.2880  -2.2706  -2.2579  -2.2528  -2.2510
    -2.2441  -2.2424  -2.2414  -2.2165  -2.2126  -2.2102  -2.2021  -2.1996
    -2.1860  -2.1588  -2.1584  -2.1572  -2.1564  -2.1519  -2.1096  -2.0808
    -2.0792  -2.0764  -2.0720  -2.0661  -2.0609  -2.0512  -2.0332  -2.0316
    -2.0015  -1.9992  -1.9979  -1.9951  -1.9803  -1.9796  -1.9520  -1.9467
    -1.9184  -1.9065  -1.9005  -1.8971  -1.8934  -1.8932  -1.8883  -1.8868
    -1.8839  -1.8827  -1.8776  -1.8667  -1.8615  -1.8084  -1.7364  -1.7236
    -1.7014  -1.6962  -1.6906  -1.6868  -1.6851  -1.6709  -1.6706  -1.6694
    -1.6633  -1.6606  -1.6424  -1.6392  -1.6280  -1.6249  -1.6146  -1.6130
    -1.5989  -1.5896  -1.5722  -1.5500  -1.5421  -1.5392  -1.5245  -1.5215
    -1.5019  -1.5004  -1.4971  -1.4824  -1.4677  -1.4660  -1.4606  -1.4566
    -1.4348  -1.4343  -1.4201  -1.4098  -1.3820  -1.3775  -1.3722  -1.3271
    -1.3220  -1.3136  -1.3063  -1.3027  -1.2846  -1.2813  -1.2509  -1.2465
    -1.2448  -1.2159  -1.2044  -1.1999  -1.1883  -1.1879  -1.1657  -1.1587
    -1.1567  -1.1297  -1.1292  -1.1255  -1.0658  -1.0637  -1.0538  -1.0512
    -1.0373  -1.0350  -1.0238  -1.0233  -1.0043  -0.9920  -0.9645  -0.9638
    -0.9522  -0.9244  -0.9137  -0.9123  -0.9025  -0.9015  -0.9014  -0.8947
    -0.8924  -0.8797  -0.8538  -0.8527  -0.8410  -0.8408  -0.8348  -0.8286
    -0.8151  -0.7935  -0.7901  -0.7746  -0.7597  -0.6838  -0.6686  -0.6637
    -0.6632  -0.6591  -0.6526  -0.6483  -0.6293  -0.6255  -0.6125  -0.6106
    -0.5985  -0.5950  -0.5895  -0.5690  -0.5669  -0.5630  -0.5583  -0.4848
    -0.4843  -0.4523  -0.4490  -0.4459  -0.4412  -0.4381  -0.4357  -0.4342
    -0.4258  -0.4182  -0.3993  -0.3813  -0.3656  -0.3493  -0.3491  -0.3387
    -0.3345  -0.3262  -0.3243  -0.3234  -0.3223  -0.3128  -0.3047  -0.3010
    -0.2911  -0.2697  -0.2687  -0.2603  -0.2544  -0.2495  -0.2350  -0.2039
    -0.2005  -0.1943  -0.1878  -0.1264  -0.1224  -0.0904  -0.0897  -0.0321
    -0.0312  -0.0307  -0.0059  -0.0048   0.2194   0.2475   0.5706   0.5706
     0.6570   0.6795   0.8466   0.8853   0.9006   1.0165   1.0218   1.4507
     1.4517   1.4668   1.7297   1.7608   1.7617   2.0286   2.0486   2.1152
     2.1158   2.1390   2.1617   2.3703   2.3743   2.4620   2.4622   2.5206
     2.5922   2.6201   2.7667   2.8705   3.2990   3.3004   3.3044   3.3192
     3.3624   3.3631   3.6550   3.6553   3.9289   3.9460   4.0193   4.3509
     4.3874   4.3995   4.5409   4.5906   4.6897   4.6951   4.7881   4.8974
     4.8991   5.0179   5.0196   5.0430   5.3218   5.3792   5.4039   5.5308
     5.5606   5.7462   5.7782   5.7829   5.8082   5.8121   5.8621   5.8638
     5.8924   5.9963   6.2384   6.3273   6.4320   6.4747   6.5935   6.6086
     6.6142   6.6221   6.6275   6.6895   6.8625   6.8663   6.9028   6.9572
     7.0003   7.0652   7.0699

          k = 0.0000 0.2887 0.1111 (136898 PWs)   bands (ev):

   -19.6765  -7.4543  -6.3825  -5.5909  -5.3066  -5.2419  -5.2397  -4.7086
    -4.7010  -4.6012  -4.5691  -4.4621  -4.4045  -4.3653  -4.3188  -4.2896
    -4.2608  -4.2541  -4.2141  -4.1249  -4.0838  -4.0831  -4.0214  -4.0039
    -3.9876  -3.9004  -3.8988  -3.8640  -3.8639  -3.8590  -3.8365  -3.8153
    -3.8125  -3.7113  -3.7086  -3.7060  -3.6874  -3.6711  -3.6675  -3.6591
    -3.6574  -3.6458  -3.6154  -3.6148  -3.6142  -3.6118  -3.5832  -3.5830
    -3.5642  -3.5622  -3.5521  -3.5101  -3.5086  -3.4747  -3.4631  -3.4593
    -3.4553  -3.4539  -3.3813  -3.3800  -3.3477  -3.3447  -3.3383  -3.2757
    -3.2751  -3.2603  -3.2550  -3.2306  -3.2302  -3.2297  -3.2255  -3.0747
    -3.0723  -3.0529  -3.0505  -3.0451  -3.0283  -3.0265  -3.0031  -3.0011
    -2.9525  -2.9508  -2.9361  -2.9353  -2.9144  -2.8697  -2.8679  -2.8480
    -2.8434  -2.8413  -2.8028  -2.8012  -2.7942  -2.7921  -2.7788  -2.7752
    -2.7389  -2.7380  -2.7183  -2.7176  -2.7136  -2.7113  -2.7075  -2.6348
    -2.6342  -2.6300  -2.6025  -2.5989  -2.5462  -2.5416  -2.5118  -2.5107
    -2.4989  -2.4973  -2.4907  -2.4643  -2.4632  -2.4519  -2.4353  -2.4145
    -2.4121  -2.4101  -2.3908  -2.3896  -2.3797  -2.3780  -2.3764  -2.3740
    -2.3641  -2.3182  -2.2901  -2.2880  -2.2706  -2.2579  -2.2528  -2.2510
    -2.2441  -2.2424  -2.2414  -2.2166  -2.2126  -2.2102  -2.2021  -2.1996
    -2.1860  -2.1588  -2.1584  -2.1572  -2.1564  -2.1519  -2.1096  -2.0808
    -2.0792  -2.0764  -2.0720  -2.0661  -2.0609  -2.0512  -2.0332  -2.0316
    -2.0015  -1.9992  -1.9979  -1.9951  -1.9803  -1.9796  -1.9521  -1.9467
    -1.9184  -1.9065  -1.9005  -1.8971  -1.8934  -1.8932  -1.8883  -1.8868
    -1.8839  -1.8827  -1.8776  -1.8667  -1.8615  -1.8084  -1.7364  -1.7236
    -1.7014  -1.6962  -1.6906  -1.6868  -1.6851  -1.6709  -1.6706  -1.6694
    -1.6633  -1.6606  -1.6424  -1.6392  -1.6280  -1.6249  -1.6146  -1.6130
    -1.5989  -1.5896  -1.5722  -1.5500  -1.5421  -1.5392  -1.5245  -1.5215
    -1.5019  -1.5004  -1.4971  -1.4824  -1.4677  -1.4660  -1.4606  -1.4566
    -1.4348  -1.4343  -1.4201  -1.4098  -1.3820  -1.3775  -1.3722  -1.3271
    -1.3220  -1.3136  -1.3063  -1.3027  -1.2846  -1.2813  -1.2509  -1.2465
    -1.2448  -1.2159  -1.2044  -1.1999  -1.1883  -1.1879  -1.1657  -1.1587
    -1.1567  -1.1297  -1.1292  -1.1255  -1.0658  -1.0637  -1.0538  -1.0512
    -1.0373  -1.0350  -1.0238  -1.0233  -1.0043  -0.9920  -0.9645  -0.9638
    -0.9522  -0.9244  -0.9137  -0.9123  -0.9025  -0.9015  -0.9014  -0.8947
    -0.8924  -0.8797  -0.8538  -0.8527  -0.8410  -0.8408  -0.8348  -0.8286
    -0.8151  -0.7935  -0.7901  -0.7746  -0.7597  -0.6839  -0.6686  -0.6637
    -0.6632  -0.6591  -0.6526  -0.6483  -0.6293  -0.6255  -0.6125  -0.6106
    -0.5985  -0.5950  -0.5895  -0.5691  -0.5669  -0.5630  -0.5583  -0.4848
    -0.4843  -0.4523  -0.4490  -0.4459  -0.4412  -0.4381  -0.4357  -0.4342
    -0.4258  -0.4182  -0.3993  -0.3813  -0.3656  -0.3493  -0.3491  -0.3387
    -0.3345  -0.3262  -0.3243  -0.3234  -0.3223  -0.3128  -0.3047  -0.3010
    -0.2911  -0.2697  -0.2687  -0.2603  -0.2544  -0.2495  -0.2350  -0.2039
    -0.2005  -0.1943  -0.1878  -0.1264  -0.1224  -0.0904  -0.0897  -0.0321
    -0.0312  -0.0307  -0.0059  -0.0048   0.2194   0.2475   0.5706   0.5706
     0.6570   0.6795   0.8466   0.8853   0.9006   1.0165   1.0218   1.4507
     1.4517   1.4668   1.7297   1.7608   1.7617   2.0286   2.0486   2.1152
     2.1158   2.1390   2.1617   2.3703   2.3743   2.4620   2.4622   2.5206
     2.5922   2.6201   2.7667   2.8705   3.2990   3.3004   3.3044   3.3192
     3.3624   3.3631   3.6550   3.6553   3.9289   3.9460   4.0193   4.3509
     4.3874   4.3995   4.5409   4.5906   4.6897   4.6951   4.7881   4.8974
     4.8991   5.0179   5.0196   5.0430   5.3218   5.3792   5.4039   5.5308
     5.5606   5.7466   5.7782   5.7826   5.8082   5.8121   5.8621   5.8638
     5.8924   5.9964   6.2383   6.3267   6.4334   6.4734   6.5907   6.6098
     6.6142   6.6221   6.6276   6.6866   6.8625   6.8662   6.9047   6.9588
     7.0061   7.0670   7.0709

     the Fermi energy is     1.5964 ev

!    total energy              =   -6604.43169814 Ry
     Harris-Foulkes estimate   =   -6604.43169814 Ry
     estimated scf accuracy    <          8.2E-09 Ry

     The total energy is the sum of the following terms:

     one-electron contribution =  -48777.16405522 Ry
     hartree contribution      =   24893.58490567 Ry
     xc contribution           =   -3204.99014378 Ry
     ewald contribution        =   20484.13485456 Ry
     smearing contrib. (-TS)   =       0.00274064 Ry

     convergence has been achieved in  22 iterations

     Writing output data file 1074241.save

     init_run     :    163.01s CPU    174.82s WALL (       1 calls)
     electrons    :   8523.35s CPU   9437.79s WALL (       1 calls)

     Called by init_run:
     wfcinit      :    126.04s CPU    137.03s WALL (       1 calls)
     potinit      :     10.32s CPU     10.76s WALL (       1 calls)

     Called by electrons:
     c_bands      :   6883.25s CPU   7687.25s WALL (      23 calls)
     sum_band     :   1206.92s CPU   1302.62s WALL (      23 calls)
     v_of_rho     :    129.36s CPU    139.59s WALL (      23 calls)
     newd         :    317.19s CPU    321.28s WALL (      23 calls)
     mix_rho      :      3.11s CPU      3.39s WALL (      23 calls)
     vdW_energy   :     11.37s CPU     13.88s WALL (      23 calls)
     vdW_ffts     :     72.93s CPU     77.17s WALL (      46 calls)
     vdW_v        :     15.00s CPU     15.63s WALL (      23 calls)

     Called by c_bands:
     init_us_2    :     23.58s CPU     24.07s WALL (     564 calls)
     cegterg      :   6772.36s CPU   7574.07s WALL (     276 calls)

     Called by *egterg:
     h_psi        :   3401.36s CPU   4119.07s WALL (    1651 calls)
     s_psi        :    319.56s CPU    321.83s WALL (    1651 calls)
     g_psi        :      6.74s CPU      6.70s WALL (    1363 calls)
     cdiaghg      :   1652.34s CPU   1656.45s WALL (    1627 calls)

     Called by h_psi:
     add_vuspsi   :    314.68s CPU    616.47s WALL (    1651 calls)

     General routines
     calbec       :    556.64s CPU    558.78s WALL (    1927 calls)
     fft          :    170.94s CPU    177.57s WALL (    1518 calls)
     ffts         :      1.40s CPU      1.54s WALL (      46 calls)
     fftw         :   2616.60s CPU   3031.45s WALL (  670032 calls)
     interpolate  :      4.13s CPU      4.56s WALL (      46 calls)
     davcio       :      0.01s CPU      0.51s WALL (      12 calls)

     Parallel routines
     fft_scatter  :   2035.97s CPU   2385.27s WALL (  671596 calls)

     PWSCF        :     2h24m CPU        2h40m WALL


   This run was terminated on:  11:31:17  25Jun2015            

=------------------------------------------------------------------------------=
   JOB DONE.
=------------------------------------------------------------------------------=
