Setting SGE environment for SCC

     Program PWSCF v.5.1.2 starts on 25Jun2015 at  6:26:19 

     This program is part of the open-source Quantum ESPRESSO suite
     for quantum simulation of materials; please cite
         "P. Giannozzi et al., J. Phys.:Condens. Matter 21 395502 (2009);
          URL http://www.quantum-espresso.org", 
     in publications or presentations arising from this work. More details at
     http://www.quantum-espresso.org/quote

     Parallel version (MPI), running on    32 processors
     R & G space division:  proc/nbgrp/npool/nimage =      32
     Reading input from top.O1.Au50.d.3.4.phi.25.psi.180.in
Warning: card &IONS ignored
Warning: card / ignored
Warning: card &CELL ignored
Warning: card / ignored

     Current dimensions of program PWSCF are:
     Max number of different atomic species (ntypx) = 10
     Max number of k-points (npk) =  40000
     Max angular momentum in pseudopotentials (lmaxx) =  3

     IMPORTANT: XC functional enforced from input :
     Exchange-correlation      = VDW-DF ( 1  4  4  0 1 0)
     Any further DFT definition will be discarded
     Please, verify this is what you really want


     Subspace diagonalization in iterative solution of the eigenvalue problem:
     a serial algorithm will be used


     Parallelization info
     --------------------
     sticks:   dense  smooth     PW     G-vecs:    dense   smooth      PW
     Min         445     223     58                96775    34191    4534
     Max         446     224     59                96790    34246    4540
     Sum       14269    7147   1867              3097177  1095093  145167


     Title: 
     top.O1.Au50.d.3.4.phi.25.psi.180                                           


     bravais-lattice index     =            4
     lattice parameter (alat)  =      22.7436  a.u.
     unit-cell volume          =   22924.1508 (a.u.)^3
     number of atoms/cell      =           67
     number of atomic types    =            3
     number of electrons       =       712.00
     number of Kohn-Sham states=          427
     kinetic-energy cutoff     =      50.0000  Ry
     charge density cutoff     =     400.0000  Ry
     convergence threshold     =      1.0E-08
     mixing beta               =       0.7000
     number of iterations used =            8  plain     mixing
     Exchange-correlation      = VDW-DF ( 1  4  4  0 1 0)

     celldm(1)=  22.743643  celldm(2)=   0.000000  celldm(3)=   2.250000
     celldm(4)=   0.000000  celldm(5)=   0.000000  celldm(6)=   0.000000

     crystal axes: (cart. coord. in units of alat)
               a(1) = (   1.000000   0.000000   0.000000 )  
               a(2) = (  -0.500000   0.866025   0.000000 )  
               a(3) = (   0.000000   0.000000   2.250000 )  

     reciprocal axes: (cart. coord. in units 2 pi/alat)
               b(1) = (  1.000000  0.577350 -0.000000 )  
               b(2) = (  0.000000  1.154701  0.000000 )  
               b(3) = (  0.000000 -0.000000  0.444444 )  


     PseudoPot. # 1 for Au read from file:
     /home/scc/andrejb/qe/pseudo/Au.pbe-nd-van.UPF
     MD5 check sum: 458681b50f36d87ef23c61b04bba420a
     Pseudo is Ultrasoft + core correction, Zval = 11.0
     Generated by new atomic code, or converted to UPF format
     Using radial grid of  985 points,  3 beta functions with: 
                l(1) =   1
                l(2) =   2
                l(3) =   2
     Q(r) pseudized with  8 coefficients,  rinner =    1.100   1.100   1.100
                                                       1.100   1.100

     PseudoPot. # 2 for H  read from file:
     /home/scc/andrejb/qe/pseudo/H.pbe-van_ak.UPF
     MD5 check sum: 403db7282739603aa925980fa9b8608d
     Pseudo is Ultrasoft, Zval =  1.0
     Generated by new atomic code, or converted to UPF format
     Using radial grid of  615 points,  1 beta functions with: 
                l(1) =   0
     Q(r) pseudized with  8 coefficients,  rinner =    0.800

     PseudoPot. # 3 for O  read from file:
     /home/scc/andrejb/qe/pseudo/O.pbe-van_ak.UPF
     MD5 check sum: 4b8c549914a63cae506c6ff22b5af4fe
     Pseudo is Ultrasoft, Zval =  6.0
     Generated by new atomic code, or converted to UPF format
     Using radial grid of  737 points,  4 beta functions with: 
                l(1) =   0
                l(2) =   0
                l(3) =   1
                l(4) =   1
     Q(r) pseudized with  8 coefficients,  rinner =    0.800   0.800   0.800


     vdW kernel table read from file vdW_kernel_table
     MD5 check sum: 48e77a2e26edf626eeb0eaa751ad5cac

     atomic species   valence    mass     pseudopotential
        Au            11.00   196.96657     Au( 1.00)
        H              1.00     1.01000     H ( 1.00)
        O              6.00    16.00000     O ( 1.00)

     No symmetry found



   Cartesian axes

     site n.     atom                  positions (alat units)
         1           O   tau(   1) = (   0.4790780   0.3968269   0.8954964  )
         2           H   tau(   2) = (   0.4518956   0.4558240   0.8472428  )
         3           H   tau(   3) = (   0.5054281   0.3396014   0.8447357  )
         4           Au  tau(   4) = (   0.3540481   0.6132292   0.0000000  )
         5           Au  tau(   5) = (   0.4790062   0.3967954   0.0000000  )
         6           Au  tau(   6) = (   0.6039644   0.1803616   0.0000000  )
         7           Au  tau(   7) = (   0.7289225  -0.0360723   0.0000000  )
         8           Au  tau(   8) = (   0.1041318   0.6132292   0.0000000  )
         9           Au  tau(   9) = (   0.2290899   0.3967954   0.0000000  )
        10           Au  tau(  10) = (   0.3540481   0.1803616   0.0000000  )
        11           Au  tau(  11) = (   0.4790062  -0.0360723   0.0000000  )
        12           Au  tau(  12) = (  -0.1457845   0.6132292   0.0000000  )
        13           Au  tau(  13) = (  -0.0208264   0.3967954   0.0000000  )
        14           Au  tau(  14) = (   0.1041318   0.1803616   0.0000000  )
        15           Au  tau(  15) = (   0.2290899  -0.0360723   0.0000000  )
        16           Au  tau(  16) = (  -0.3957008   0.6132292   0.0000000  )
        17           Au  tau(  17) = (  -0.2707426   0.3967954   0.0000000  )
        18           Au  tau(  18) = (  -0.1457845   0.1803616   0.0000000  )
        19           Au  tau(  19) = (  -0.0208264  -0.0360723   0.0000000  )
        20           Au  tau(  20) = (   0.4790062   0.6853738   0.2040557  )
        21           Au  tau(  21) = (   0.6039644   0.4689400   0.2040557  )
        22           Au  tau(  22) = (   0.7289225   0.2525062   0.2040557  )
        23           Au  tau(  23) = (   0.8538806   0.0360723   0.2040557  )
        24           Au  tau(  24) = (   0.2290899   0.6853738   0.2040557  )
        25           Au  tau(  25) = (   0.3540481   0.4689400   0.2040557  )
        26           Au  tau(  26) = (   0.4790062   0.2525062   0.2040557  )
        27           Au  tau(  27) = (   0.6039644   0.0360723   0.2040557  )
        28           Au  tau(  28) = (  -0.0208264   0.6853738   0.2040557  )
        29           Au  tau(  29) = (   0.1041318   0.4689400   0.2040557  )
        30           Au  tau(  30) = (   0.2290899   0.2525062   0.2040557  )
        31           Au  tau(  31) = (   0.3540481   0.0360723   0.2040557  )
        32           Au  tau(  32) = (  -0.2707426   0.6853738   0.2040557  )
        33           Au  tau(  33) = (  -0.1457845   0.4689400   0.2040557  )
        34           Au  tau(  34) = (  -0.0208264   0.2525062   0.2040557  )
        35           Au  tau(  35) = (   0.1041318   0.0360723   0.2040557  )
        36           Au  tau(  36) = (   0.3541162   0.7576593   0.4066483  )
        37           Au  tau(  37) = (   0.4791000   0.5411421   0.4066696  )
        38           Au  tau(  38) = (   0.6040570   0.3246862   0.4066618  )
        39           Au  tau(  39) = (   0.7290270   0.1081684   0.4066530  )
        40           Au  tau(  40) = (   0.1041162   0.7576236   0.4066247  )
        41           Au  tau(  41) = (   0.2291001   0.5411062   0.4066455  )
        42           Au  tau(  42) = (   0.3540567   0.3246505   0.4066380  )
        43           Au  tau(  43) = (   0.4790276   0.1081324   0.4066292  )
        44           Au  tau(  44) = (  -0.1458201   0.7576104   0.4066225  )
        45           Au  tau(  45) = (  -0.0208365   0.5410930   0.4066438  )
        46           Au  tau(  46) = (   0.1041202   0.3246372   0.4066359  )
        47           Au  tau(  47) = (   0.2290908   0.1081193   0.4066273  )
        48           Au  tau(  48) = (  -0.3958167   0.7575791   0.4065812  )
        49           Au  tau(  49) = (  -0.2708328   0.5410617   0.4066025  )
        50           Au  tau(  50) = (  -0.1458763   0.3246061   0.4065947  )
        51           Au  tau(  51) = (  -0.0209056   0.1080882   0.4065858  )
        52           Au  tau(  52) = (   0.3541084   0.6133344   0.6129762  )
        53           Au  tau(  53) = (   0.4790780   0.3968269   0.6129968  )
        54           Au  tau(  54) = (   0.6040356   0.1803811   0.6129859  )
        55           Au  tau(  55) = (   0.7290165  -0.0361221   0.6129385  )
        56           Au  tau(  56) = (   0.1041243   0.6133091   0.6130023  )
        57           Au  tau(  57) = (   0.2290941   0.3968013   0.6130241  )
        58           Au  tau(  58) = (   0.3540515   0.1803552   0.6130121  )
        59           Au  tau(  59) = (   0.4790323  -0.0361475   0.6129659  )
        60           Au  tau(  60) = (  -0.1458030   0.6133014   0.6129980  )
        61           Au  tau(  61) = (  -0.0208339   0.3967936   0.6130189  )
        62           Au  tau(  62) = (   0.1041239   0.1803477   0.6130083  )
        63           Au  tau(  63) = (   0.2291046  -0.0361554   0.6129607  )
        64           Au  tau(  64) = (  -0.3957908   0.6132739   0.6129471  )
        65           Au  tau(  65) = (  -0.2708208   0.3967658   0.6129688  )
        66           Au  tau(  66) = (  -0.1458636   0.1803200   0.6129569  )
        67           Au  tau(  67) = (  -0.0208823  -0.0361826   0.6129110  )

     number of k points=    12  Marzari-Vanderbilt smearing, width (Ry)=  0.0200
                       cart. coord. in units 2pi/alat
        k(    1) = (   0.2500000   0.4330127   0.1111111), wk =   0.1666667
        k(    2) = (   0.2500000  -0.1443376   0.1111111), wk =   0.1666667
        k(    3) = (  -0.2500000  -0.4330127   0.1111111), wk =   0.1666667
        k(    4) = (  -0.2500000   0.4330127  -0.1111111), wk =   0.1666667
        k(    5) = (   0.2500000  -0.4330127  -0.1111111), wk =   0.1666667
        k(    6) = (   0.5000000   0.0000000   0.1111111), wk =   0.1666667
        k(    7) = (  -0.5000000   0.0000000   0.1111111), wk =   0.1666667
        k(    8) = (  -0.2500000   0.1443376   0.1111111), wk =   0.1666667
        k(    9) = (  -0.2500000  -0.1443376  -0.1111111), wk =   0.1666667
        k(   10) = (   0.2500000   0.1443376  -0.1111111), wk =   0.1666667
        k(   11) = (   0.0000000  -0.2886751   0.1111111), wk =   0.1666667
        k(   12) = (   0.0000000   0.2886751   0.1111111), wk =   0.1666667

     Dense  grid:  3097177 G-vectors     FFT dimensions: ( 150, 150, 360)

     Smooth grid:  1095093 G-vectors     FFT dimensions: ( 108, 108, 240)

     Largest allocated arrays     est. size (Mb)     dimensions
        Kohn-Sham Wavefunctions        28.01 Mb     (    4299,  427)
        NL pseudopotentials            55.23 Mb     (    4299,  842)
        Each V/rho on FFT grid          4.12 Mb     (  270000)
        Each G-vector array             0.74 Mb     (   96788)
        G-vector shells                 0.16 Mb     (   21404)
     Largest temporary arrays     est. size (Mb)     dimensions
        Auxiliary wavefunctions       112.04 Mb     (    4299, 1708)
        Each subspace H/S matrix       44.51 Mb     (    1708, 1708)
        Each <psi_i|beta_j> matrix      5.49 Mb     (     842,  427)
        Arrays for rho mixing          32.96 Mb     (  270000,    8)

     Initial potential from superposition of free atoms
     Check: negative starting charge=   -1.730363

     starting charge  711.25682, renormalised to  712.00000

     negative rho (up, down):  1.732E+00 0.000E+00


     ************************************************************************
     *
     * You are using vdW-DF for exchange-correlation in this calculation.
     * Please cite the following three references that made this development
     * possible:
     *
     *   M. Dion, H. Rydberg, E. Schroder, D. C. Langreth, and
     *   B. I. Lundqvist, Phys. Rev. Lett. 92, 246401 (2004).
     *
     *   T. Thonhauser, V. R. Cooper, S. Li, A. Puzder, P. Hyldgaard, and
     *   D. C. Langreth, Phys. Rev. B 76, 125112 (2007).
     *
     *   G. Roman-Perez and J. M. Soler, Phys. Rev. Lett. 103, 096102 (2009).
     *
     *
     * If you are using vdW-DF2, please also cite:
     *
     *   K. Lee, E. D. Murray, L. Kong, B. I. Lundqvist, and
     *   D. C. Langreth, Phys. Rev. B 82, 081101(R) (2010).
     *
     *
     * If you are calculating the stress with vdW-DF, please also cite:
     *
     *   R. Sabatini, E. Kucukbenli, B. Kolb, T. Thonhauser, and
     *   S. de Gironcoli, J. Phys.: Condens. Matter 24, 424209 (2012).
     *
     ************************************************************************

     Carrying out vdW-DF run using the following parameters:

     Nqs =      20    Nr_points =    1024   r_max =   100.000
     q_mesh =
               0.00001000     0.04494208     0.09755937     0.15916263
               0.23128650     0.31572767     0.41458969     0.53033537
               0.66584808     0.82450364     1.01025438     1.22772762
               1.48234092     1.78043706     2.12944203     2.53805004
               3.01644009     3.57652955     4.23227104     5.00000000

     Gradients computed in reciprocal space

     ************************************************************************


     Starting wfc are  582 randomized atomic wfcs

     total cpu time spent up to now is      182.5 secs

     Self-consistent Calculation

     iteration #  1     ecut=    50.00 Ry     beta=0.70
     Davidson diagonalization with overlap
     ethr =  1.00E-02,  avg # of iterations =  3.0

     Threshold (ethr) on eigenvalues was too large:
     Diagonalizing with lowered threshold

     Davidson diagonalization with overlap
     ethr =  3.44E-04,  avg # of iterations =  3.7

     negative rho (up, down):  1.727E+00 0.000E+00

     total cpu time spent up to now is      846.0 secs

     total energy              =   -6602.80321778 Ry
     Harris-Foulkes estimate   =   -6605.02719112 Ry
     estimated scf accuracy    <       2.79157297 Ry

     iteration #  2     ecut=    50.00 Ry     beta=0.70
     Davidson diagonalization with overlap
     ethr =  3.92E-04,  avg # of iterations = 11.5

     negative rho (up, down):  1.727E+00 0.000E+00

     total cpu time spent up to now is     1828.4 secs

     total energy              =   -6596.95652730 Ry
     Harris-Foulkes estimate   =   -6610.06401849 Ry
     estimated scf accuracy    <      72.51411190 Ry

     iteration #  3     ecut=    50.00 Ry     beta=0.70
     Davidson diagonalization with overlap
     ethr =  3.92E-04,  avg # of iterations =  6.0

     negative rho (up, down):  1.737E+00 0.000E+00

     total cpu time spent up to now is     2454.0 secs

     total energy              =   -6603.01685545 Ry
     Harris-Foulkes estimate   =   -6605.07492472 Ry
     estimated scf accuracy    <       9.93691588 Ry

     iteration #  4     ecut=    50.00 Ry     beta=0.70
     Davidson diagonalization with overlap
     ethr =  3.92E-04,  avg # of iterations =  6.5

     negative rho (up, down):  1.738E+00 0.000E+00

     total cpu time spent up to now is     2852.7 secs

     total energy              =   -6603.33135865 Ry
     Harris-Foulkes estimate   =   -6605.32095477 Ry
     estimated scf accuracy    <      19.79343057 Ry

     iteration #  5     ecut=    50.00 Ry     beta=0.70
     Davidson diagonalization with overlap
     ethr =  3.92E-04,  avg # of iterations =  7.7

     negative rho (up, down):  1.748E+00 0.000E+00

     total cpu time spent up to now is     3261.6 secs

     total energy              =   -6604.33976466 Ry
     Harris-Foulkes estimate   =   -6604.62175255 Ry
     estimated scf accuracy    <       1.81359622 Ry

     iteration #  6     ecut=    50.00 Ry     beta=0.70
     Davidson diagonalization with overlap
     ethr =  2.55E-04,  avg # of iterations =  3.9

     negative rho (up, down):  1.753E+00 0.000E+00

     total cpu time spent up to now is     3575.8 secs

     total energy              =   -6604.42987652 Ry
     Harris-Foulkes estimate   =   -6604.46927117 Ry
     estimated scf accuracy    <       0.12427125 Ry

     iteration #  7     ecut=    50.00 Ry     beta=0.70
     Davidson diagonalization with overlap
     ethr =  1.75E-05,  avg # of iterations = 10.8

     negative rho (up, down):  1.755E+00 0.000E+00

     total cpu time spent up to now is     4068.3 secs

     total energy              =   -6604.43287058 Ry
     Harris-Foulkes estimate   =   -6604.45896257 Ry
     estimated scf accuracy    <       0.11330805 Ry

     iteration #  8     ecut=    50.00 Ry     beta=0.70
     Davidson diagonalization with overlap
     ethr =  1.59E-05,  avg # of iterations =  3.4

     negative rho (up, down):  1.756E+00 0.000E+00

     total cpu time spent up to now is     4371.3 secs

     total energy              =   -6604.43461138 Ry
     Harris-Foulkes estimate   =   -6604.44804884 Ry
     estimated scf accuracy    <       0.05108184 Ry

     iteration #  9     ecut=    50.00 Ry     beta=0.70
     Davidson diagonalization with overlap
     ethr =  7.17E-06,  avg # of iterations =  5.4

     negative rho (up, down):  1.756E+00 0.000E+00

     total cpu time spent up to now is     4719.6 secs

     total energy              =   -6604.43426643 Ry
     Harris-Foulkes estimate   =   -6604.44031197 Ry
     estimated scf accuracy    <       0.02259654 Ry

     iteration # 10     ecut=    50.00 Ry     beta=0.70
     Davidson diagonalization with overlap
     ethr =  3.17E-06,  avg # of iterations =  7.1

     negative rho (up, down):  1.757E+00 0.000E+00

     total cpu time spent up to now is     5105.0 secs

     total energy              =   -6604.43340057 Ry
     Harris-Foulkes estimate   =   -6604.43648548 Ry
     estimated scf accuracy    <       0.01167313 Ry

     iteration # 11     ecut=    50.00 Ry     beta=0.70
     Davidson diagonalization with overlap
     ethr =  1.64E-06,  avg # of iterations =  8.5

     negative rho (up, down):  1.757E+00 0.000E+00

     total cpu time spent up to now is     5565.5 secs

     total energy              =   -6604.43309504 Ry
     Harris-Foulkes estimate   =   -6604.43458648 Ry
     estimated scf accuracy    <       0.00640844 Ry

     iteration # 12     ecut=    50.00 Ry     beta=0.70
     Davidson diagonalization with overlap
     ethr =  9.00E-07,  avg # of iterations =  3.0

     negative rho (up, down):  1.758E+00 0.000E+00

     total cpu time spent up to now is     5916.2 secs

     total energy              =   -6604.43271162 Ry
     Harris-Foulkes estimate   =   -6604.43363080 Ry
     estimated scf accuracy    <       0.00166505 Ry

     iteration # 13     ecut=    50.00 Ry     beta=0.70
     Davidson diagonalization with overlap
     ethr =  2.34E-07,  avg # of iterations =  8.7

     negative rho (up, down):  1.758E+00 0.000E+00

     total cpu time spent up to now is     6399.9 secs

     total energy              =   -6604.43299659 Ry
     Harris-Foulkes estimate   =   -6604.43311115 Ry
     estimated scf accuracy    <       0.00027374 Ry

     iteration # 14     ecut=    50.00 Ry     beta=0.70
     Davidson diagonalization with overlap
     ethr =  3.84E-08,  avg # of iterations =  3.0

     negative rho (up, down):  1.757E+00 0.000E+00

     total cpu time spent up to now is     6822.7 secs

     total energy              =   -6604.43302032 Ry
     Harris-Foulkes estimate   =   -6604.43310412 Ry
     estimated scf accuracy    <       0.00037761 Ry

     iteration # 15     ecut=    50.00 Ry     beta=0.70
     Davidson diagonalization with overlap
     ethr =  3.84E-08,  avg # of iterations =  2.0

     negative rho (up, down):  1.757E+00 0.000E+00

     total cpu time spent up to now is     7159.6 secs

     total energy              =   -6604.43305396 Ry
     Harris-Foulkes estimate   =   -6604.43308012 Ry
     estimated scf accuracy    <       0.00020154 Ry

     iteration # 16     ecut=    50.00 Ry     beta=0.70
     Davidson diagonalization with overlap
     ethr =  2.83E-08,  avg # of iterations =  2.0

     negative rho (up, down):  1.757E+00 0.000E+00

     total cpu time spent up to now is     7484.0 secs

     total energy              =   -6604.43306712 Ry
     Harris-Foulkes estimate   =   -6604.43307040 Ry
     estimated scf accuracy    <       0.00000879 Ry

     iteration # 17     ecut=    50.00 Ry     beta=0.70
     Davidson diagonalization with overlap
     ethr =  1.23E-09,  avg # of iterations =  3.0

     negative rho (up, down):  1.757E+00 0.000E+00

     total cpu time spent up to now is     7929.5 secs

     total energy              =   -6604.43306585 Ry
     Harris-Foulkes estimate   =   -6604.43307259 Ry
     estimated scf accuracy    <       0.00003930 Ry

     iteration # 18     ecut=    50.00 Ry     beta=0.70
     Davidson diagonalization with overlap
     ethr =  1.23E-09,  avg # of iterations =  2.2

     negative rho (up, down):  1.757E+00 0.000E+00

     total cpu time spent up to now is     8301.1 secs

     total energy              =   -6604.43306900 Ry
     Harris-Foulkes estimate   =   -6604.43307015 Ry
     estimated scf accuracy    <       0.00000484 Ry

     iteration # 19     ecut=    50.00 Ry     beta=0.70
     Davidson diagonalization with overlap
     ethr =  6.79E-10,  avg # of iterations =  2.0

     negative rho (up, down):  1.757E+00 0.000E+00

     total cpu time spent up to now is     8636.9 secs

     total energy              =   -6604.43306958 Ry
     Harris-Foulkes estimate   =   -6604.43306973 Ry
     estimated scf accuracy    <       0.00000058 Ry

     iteration # 20     ecut=    50.00 Ry     beta=0.70
     Davidson diagonalization with overlap
     ethr =  8.11E-11,  avg # of iterations =  3.0

     negative rho (up, down):  1.757E+00 0.000E+00

     total cpu time spent up to now is     9044.3 secs

     total energy              =   -6604.43306970 Ry
     Harris-Foulkes estimate   =   -6604.43306975 Ry
     estimated scf accuracy    <       0.00000026 Ry

     iteration # 21     ecut=    50.00 Ry     beta=0.70
     Davidson diagonalization with overlap
     ethr =  3.64E-11,  avg # of iterations =  2.0

     negative rho (up, down):  1.757E+00 0.000E+00

     total cpu time spent up to now is     9359.4 secs

     total energy              =   -6604.43306974 Ry
     Harris-Foulkes estimate   =   -6604.43306976 Ry
     estimated scf accuracy    <       0.00000014 Ry

     iteration # 22     ecut=    50.00 Ry     beta=0.70
     Davidson diagonalization with overlap
     ethr =  1.97E-11,  avg # of iterations =  2.0

     negative rho (up, down):  1.757E+00 0.000E+00

     total cpu time spent up to now is     9658.1 secs

     total energy              =   -6604.43306976 Ry
     Harris-Foulkes estimate   =   -6604.43306976 Ry
     estimated scf accuracy    <       0.00000001 Ry

     iteration # 23     ecut=    50.00 Ry     beta=0.70
     Davidson diagonalization with overlap
     ethr =  2.07E-12,  avg # of iterations =  3.0

     negative rho (up, down):  1.757E+00 0.000E+00

     total cpu time spent up to now is    10046.5 secs

     total energy              =   -6604.43306976 Ry
     Harris-Foulkes estimate   =   -6604.43306977 Ry
     estimated scf accuracy    <       0.00000005 Ry

     iteration # 24     ecut=    50.00 Ry     beta=0.70
     Davidson diagonalization with overlap
     ethr =  2.07E-12,  avg # of iterations =  3.0

     negative rho (up, down):  1.757E+00 0.000E+00

     total cpu time spent up to now is    10411.7 secs

     total energy              =   -6604.43306976 Ry
     Harris-Foulkes estimate   =   -6604.43306977 Ry
     estimated scf accuracy    <       0.00000001 Ry

     iteration # 25     ecut=    50.00 Ry     beta=0.70
     Davidson diagonalization with overlap
     ethr =  1.59E-12,  avg # of iterations =  2.0

     negative rho (up, down):  1.757E+00 0.000E+00

     total cpu time spent up to now is    10727.6 secs

     End of self-consistent calculation

          k = 0.2500 0.4330 0.1111 (136853 PWs)   bands (ev):

   -18.5754  -6.4692  -6.4037  -6.0704  -6.0690  -5.3928  -5.0585  -5.0581
    -5.0219  -5.0178  -4.6581  -4.6576  -4.5594  -4.5591  -4.5452  -4.5223
    -4.5010  -4.3922  -4.3910  -4.3674  -4.3240  -4.3239  -4.2559  -4.2548
    -4.2493  -4.2479  -4.2268  -4.2214  -4.2201  -4.1531  -4.1472  -4.1188
    -4.1183  -4.1065  -4.1061  -4.0831  -4.0829  -4.0605  -4.0520  -4.0519
    -4.0258  -3.9733  -3.9730  -3.9253  -3.9246  -3.8665  -3.8661  -3.8122
    -3.8110  -3.8109  -3.8105  -3.7751  -3.7376  -3.7370  -3.7296  -3.7284
    -3.7280  -3.6995  -3.6967  -3.6887  -3.6282  -3.6276  -3.6191  -3.6014
    -3.5940  -3.5227  -3.5212  -3.4899  -3.4871  -3.4609  -3.4597  -3.4463
    -3.4302  -3.3707  -3.3700  -3.3525  -3.3521  -3.3010  -3.2960  -3.2957
    -3.2564  -3.2272  -3.2248  -3.2178  -3.2167  -3.2044  -3.2039  -3.1961
    -3.1954  -3.1861  -3.1452  -3.1077  -3.1063  -3.0928  -3.0920  -3.0655
    -3.0570  -3.0567  -3.0377  -2.9931  -2.9895  -2.9811  -2.9421  -2.9366
    -2.9252  -2.9232  -2.8953  -2.8950  -2.8657  -2.8294  -2.8273  -2.8064
    -2.7975  -2.7888  -2.7831  -2.7513  -2.7332  -2.7210  -2.6998  -2.6773
    -2.6755  -2.6537  -2.6491  -2.6418  -2.6376  -2.6301  -2.6082  -2.6076
    -2.5627  -2.5617  -2.5610  -2.5453  -2.5446  -2.5387  -2.5307  -2.5280
    -2.5274  -2.5254  -2.5211  -2.5103  -2.5078  -2.5000  -2.4735  -2.4720
    -2.4704  -2.4684  -2.4672  -2.4657  -2.4626  -2.4386  -2.4350  -2.4216
    -2.4206  -2.4026  -2.4016  -2.3933  -2.3919  -2.3915  -2.3893  -2.3717
    -2.3698  -2.3685  -2.3660  -2.3500  -2.3255  -2.3242  -2.2847  -2.2846
    -2.2605  -2.2593  -2.2326  -2.2308  -2.2050  -2.2033  -2.1869  -2.1819
    -2.1554  -2.1362  -2.1337  -2.1275  -2.1259  -2.1223  -2.1157  -2.1145
    -2.0875  -2.0828  -2.0741  -2.0166  -2.0125  -2.0116  -2.0093  -2.0073
    -1.9748  -1.9534  -1.9527  -1.9256  -1.9242  -1.8660  -1.8646  -1.8351
    -1.8171  -1.8152  -1.7566  -1.7558  -1.7453  -1.7432  -1.7336  -1.7322
    -1.7290  -1.7211  -1.7187  -1.6654  -1.6612  -1.6521  -1.6514  -1.6503
    -1.6338  -1.6300  -1.5971  -1.5957  -1.5793  -1.5783  -1.5778  -1.5712
    -1.5661  -1.5587  -1.5554  -1.5375  -1.5370  -1.4972  -1.4931  -1.4855
    -1.4828  -1.4643  -1.4490  -1.4086  -1.4059  -1.3799  -1.3763  -1.3751
    -1.3461  -1.2963  -1.2933  -1.2921  -1.2913  -1.2871  -1.2859  -1.2764
    -1.2594  -1.2572  -1.2194  -1.2164  -1.1879  -1.1865  -1.1818  -1.1807
    -1.1738  -1.1583  -1.1570  -1.1562  -1.1527  -1.1524  -1.1146  -1.1135
    -1.1131  -1.1122  -1.0829  -1.0806  -1.0780  -1.0529  -1.0472  -1.0446
    -1.0000  -0.9929  -0.9911  -0.9566  -0.9490  -0.9381  -0.9372  -0.9298
    -0.9295  -0.9283  -0.9270  -0.9162  -0.9155  -0.8907  -0.8900  -0.8865
    -0.8846  -0.8840  -0.8474  -0.8470  -0.8389  -0.8354  -0.8209  -0.8140
    -0.8124  -0.8011  -0.7452  -0.7440  -0.7354  -0.7346  -0.7333  -0.7327
    -0.7277  -0.7084  -0.7075  -0.7006  -0.6987  -0.6975  -0.6969  -0.6577
    -0.6563  -0.6546  -0.6472  -0.6459  -0.6420  -0.6395  -0.6296  -0.6238
    -0.6200  -0.6192  -0.5839  -0.5775  -0.5734  -0.5693  -0.5651  -0.5606
    -0.4889  -0.4861  -0.4847  -0.4846  -0.4756  -0.4748  -0.4390  -0.4264
    -0.4261  -0.3953  -0.3939  -0.3920  -0.2728  -0.2705  -0.1699   0.2449
     0.2455   0.2489   0.2491   0.3102   0.3126   0.6967   0.6990   0.7408
     0.7417   0.8538   0.9309   1.0406   1.0439   1.2654   1.2672   1.8950
     1.8963   2.0576   2.0583   2.1908   2.1926   2.2942   2.2944   2.4484
     2.6856   2.6968   2.8096   3.0328   3.0375   3.1170   3.1178   3.2167
     3.2335   3.4317   3.4418   3.4890   3.6899   3.6916   3.7537   3.7547
     4.0098   4.0179   4.0191   4.2608   4.3016   4.3027   4.3480   4.6816
     4.6861   4.7123   4.8489   5.0214   5.0220   5.0902   5.0949   5.5413
     5.7953   5.8077   5.8136   5.8242   5.8612   5.8833   5.8850   5.9822
     5.9959   6.0165   6.0437   6.0499   6.0717   6.0799   6.1059   6.1082
     6.1988   6.5292   6.5849   6.6992   6.7056   6.7551   6.7609   6.7651
     6.8088   6.8738   6.9653

          k = 0.2500-0.1443 0.1111 (136898 PWs)   bands (ev):

   -18.5754  -6.6791  -6.4037  -5.8870  -5.5967  -5.5370  -5.5363  -4.9985
    -4.9979  -4.8673  -4.8660  -4.7110  -4.6826  -4.6185  -4.5869  -4.5844
    -4.5515  -4.5514  -4.4229  -4.3811  -4.3810  -4.3215  -4.3011  -4.2998
    -4.1977  -4.1975  -4.1617  -4.1611  -4.1610  -4.1345  -4.1127  -4.1126
    -4.0091  -4.0055  -4.0055  -3.9851  -3.9682  -3.9677  -3.9562  -3.9552
    -3.9424  -3.9126  -3.9120  -3.9118  -3.9114  -3.8791  -3.8789  -3.8615
    -3.8611  -3.8484  -3.8058  -3.8050  -3.7738  -3.7601  -3.7575  -3.7528
    -3.7528  -3.6785  -3.6782  -3.6438  -3.6424  -3.6404  -3.5730  -3.5726
    -3.5585  -3.5570  -3.5271  -3.5269  -3.5258  -3.5250  -3.3725  -3.3711
    -3.3471  -3.3467  -3.3417  -3.3257  -3.3246  -3.2995  -3.2992  -3.2498
    -3.2488  -3.2334  -3.2324  -3.2126  -3.1647  -3.1645  -3.1451  -3.1401
    -3.1387  -3.0999  -3.0981  -3.0925  -3.0909  -3.0769  -3.0742  -3.0362
    -3.0352  -3.0151  -3.0141  -3.0117  -3.0100  -3.0069  -2.9326  -2.9300
    -2.9294  -2.9029  -2.8988  -2.8391  -2.8382  -2.8132  -2.8081  -2.7979
    -2.7946  -2.7908  -2.7609  -2.7598  -2.7528  -2.7441  -2.7292  -2.7076
    -2.7071  -2.6970  -2.6856  -2.6846  -2.6744  -2.6735  -2.6703  -2.6618
    -2.6612  -2.6162  -2.5843  -2.5840  -2.5664  -2.5536  -2.5484  -2.5457
    -2.5397  -2.5391  -2.5382  -2.5089  -2.5085  -2.5048  -2.4984  -2.4966
    -2.4817  -2.4539  -2.4531  -2.4526  -2.4519  -2.4496  -2.4063  -2.3753
    -2.3743  -2.3733  -2.3673  -2.3587  -2.3472  -2.3458  -2.3291  -2.3290
    -2.2966  -2.2943  -2.2938  -2.2752  -2.2747  -2.2744  -2.2422  -2.2409
    -2.2018  -2.1984  -2.1926  -2.1900  -2.1897  -2.1838  -2.1835  -2.1805
    -2.1798  -2.1735  -2.1733  -2.1573  -2.1565  -2.0307  -2.0300  -1.9965
    -1.9909  -1.9902  -1.9846  -1.9840  -1.9680  -1.9669  -1.9643  -1.9637
    -1.9606  -1.9394  -1.9326  -1.9320  -1.9217  -1.9186  -1.9177  -1.8965
    -1.8953  -1.8679  -1.8671  -1.8368  -1.8359  -1.8251  -1.8166  -1.7987
    -1.7983  -1.7957  -1.7779  -1.7650  -1.7644  -1.7575  -1.7571  -1.7315
    -1.7311  -1.7141  -1.7140  -1.6817  -1.6785  -1.6715  -1.6220  -1.6212
    -1.6075  -1.6069  -1.6048  -1.5816  -1.5789  -1.5465  -1.5452  -1.5446
    -1.5103  -1.5014  -1.5007  -1.4854  -1.4847  -1.4600  -1.4574  -1.4559
    -1.4279  -1.4248  -1.4244  -1.3628  -1.3612  -1.3495  -1.3482  -1.3329
    -1.3322  -1.3195  -1.3191  -1.3012  -1.2884  -1.2609  -1.2603  -1.2486
    -1.2184  -1.2105  -1.2102  -1.1987  -1.1986  -1.1962  -1.1914  -1.1911
    -1.1774  -1.1483  -1.1472  -1.1367  -1.1341  -1.1328  -1.1319  -1.1107
    -1.0914  -1.0896  -1.0703  -1.0692  -0.9776  -0.9643  -0.9588  -0.9584
    -0.9547  -0.9492  -0.9485  -0.9273  -0.9245  -0.9090  -0.9075  -0.8937
    -0.8934  -0.8847  -0.8654  -0.8630  -0.8613  -0.8536  -0.7816  -0.7809
    -0.7481  -0.7465  -0.7427  -0.7362  -0.7351  -0.7340  -0.7336  -0.7220
    -0.7205  -0.7041  -0.6793  -0.6658  -0.6465  -0.6455  -0.6340  -0.6335
    -0.6234  -0.6206  -0.6205  -0.6190  -0.6178  -0.6010  -0.5964  -0.5961
    -0.5748  -0.5654  -0.5640  -0.5628  -0.5515  -0.5511  -0.5320  -0.5001
    -0.4999  -0.4907  -0.4903  -0.4228  -0.4223  -0.3855  -0.3851  -0.3273
    -0.3267  -0.3260  -0.3120  -0.2996  -0.0710  -0.0698   0.2737   0.2739
     0.3666   0.3680   0.5605   0.5771   0.5913   0.7214   0.7224   1.1540
     1.1542   1.1715   1.4328   1.4639   1.4642   1.7427   1.7450   1.8197
     1.8200   1.8470   1.8492   2.0759   2.0767   2.1649   2.1656   2.2430
     2.3050   2.3073   2.4679   2.5676   3.0054   3.0071   3.0104   3.0113
     3.0647   3.0658   3.3579   3.3582   3.6391   3.6423   3.7509   4.0540
     4.0949   4.0984   4.3170   4.3331   4.3970   4.3974   4.4891   4.6068
     4.6078   4.7234   4.7252   5.0280   5.0932   5.0983   5.2631   5.2811
     5.4262   5.4835   5.4870   5.5121   5.5124   5.5739   5.5755   5.6324
     5.9482   6.0255   6.1824   6.2428   6.2855   6.3165   6.3186   6.3307
     6.3338   6.5650   6.5730   6.6380   6.7264   6.7993   6.8034   6.8407
     6.8657   7.0849   7.1049

          k =-0.2500-0.4330 0.1111 (136853 PWs)   bands (ev):

   -18.5754  -6.4692  -6.4037  -6.0704  -6.0690  -5.3928  -5.0585  -5.0581
    -5.0219  -5.0178  -4.6581  -4.6576  -4.5594  -4.5591  -4.5452  -4.5223
    -4.5010  -4.3922  -4.3910  -4.3674  -4.3240  -4.3239  -4.2559  -4.2548
    -4.2493  -4.2479  -4.2268  -4.2214  -4.2201  -4.1531  -4.1472  -4.1188
    -4.1183  -4.1065  -4.1061  -4.0831  -4.0829  -4.0605  -4.0520  -4.0519
    -4.0258  -3.9733  -3.9730  -3.9253  -3.9246  -3.8665  -3.8661  -3.8122
    -3.8110  -3.8109  -3.8105  -3.7751  -3.7376  -3.7370  -3.7296  -3.7284
    -3.7280  -3.6995  -3.6967  -3.6887  -3.6282  -3.6276  -3.6191  -3.6014
    -3.5940  -3.5227  -3.5211  -3.4899  -3.4871  -3.4609  -3.4597  -3.4463
    -3.4302  -3.3707  -3.3700  -3.3525  -3.3521  -3.3010  -3.2960  -3.2957
    -3.2564  -3.2272  -3.2248  -3.2178  -3.2167  -3.2044  -3.2039  -3.1961
    -3.1954  -3.1861  -3.1452  -3.1077  -3.1063  -3.0928  -3.0920  -3.0655
    -3.0570  -3.0567  -3.0377  -2.9931  -2.9895  -2.9811  -2.9421  -2.9366
    -2.9252  -2.9232  -2.8953  -2.8950  -2.8657  -2.8294  -2.8273  -2.8064
    -2.7975  -2.7888  -2.7831  -2.7513  -2.7332  -2.7210  -2.6998  -2.6773
    -2.6755  -2.6537  -2.6491  -2.6418  -2.6376  -2.6301  -2.6082  -2.6076
    -2.5627  -2.5617  -2.5610  -2.5453  -2.5446  -2.5387  -2.5307  -2.5280
    -2.5274  -2.5254  -2.5211  -2.5103  -2.5078  -2.5000  -2.4735  -2.4720
    -2.4704  -2.4684  -2.4672  -2.4657  -2.4626  -2.4386  -2.4350  -2.4216
    -2.4206  -2.4026  -2.4016  -2.3933  -2.3918  -2.3915  -2.3893  -2.3717
    -2.3698  -2.3685  -2.3660  -2.3500  -2.3255  -2.3242  -2.2847  -2.2846
    -2.2605  -2.2593  -2.2326  -2.2308  -2.2050  -2.2033  -2.1869  -2.1819
    -2.1554  -2.1362  -2.1337  -2.1275  -2.1259  -2.1223  -2.1157  -2.1146
    -2.0875  -2.0828  -2.0741  -2.0166  -2.0125  -2.0116  -2.0093  -2.0073
    -1.9748  -1.9534  -1.9527  -1.9256  -1.9242  -1.8660  -1.8646  -1.8351
    -1.8171  -1.8152  -1.7566  -1.7558  -1.7453  -1.7432  -1.7336  -1.7322
    -1.7290  -1.7211  -1.7187  -1.6654  -1.6612  -1.6521  -1.6514  -1.6503
    -1.6338  -1.6300  -1.5971  -1.5957  -1.5793  -1.5783  -1.5778  -1.5712
    -1.5661  -1.5587  -1.5554  -1.5375  -1.5370  -1.4972  -1.4931  -1.4855
    -1.4828  -1.4643  -1.4490  -1.4086  -1.4059  -1.3799  -1.3763  -1.3751
    -1.3461  -1.2963  -1.2933  -1.2921  -1.2913  -1.2871  -1.2859  -1.2764
    -1.2594  -1.2572  -1.2194  -1.2164  -1.1879  -1.1865  -1.1819  -1.1807
    -1.1738  -1.1583  -1.1570  -1.1562  -1.1527  -1.1524  -1.1146  -1.1135
    -1.1131  -1.1122  -1.0829  -1.0806  -1.0780  -1.0529  -1.0472  -1.0446
    -1.0000  -0.9929  -0.9911  -0.9566  -0.9490  -0.9381  -0.9372  -0.9298
    -0.9295  -0.9283  -0.9270  -0.9162  -0.9155  -0.8907  -0.8900  -0.8865
    -0.8846  -0.8840  -0.8474  -0.8470  -0.8389  -0.8354  -0.8209  -0.8140
    -0.8124  -0.8011  -0.7452  -0.7440  -0.7354  -0.7346  -0.7333  -0.7327
    -0.7277  -0.7084  -0.7075  -0.7006  -0.6987  -0.6975  -0.6969  -0.6577
    -0.6563  -0.6546  -0.6472  -0.6459  -0.6420  -0.6395  -0.6296  -0.6238
    -0.6200  -0.6192  -0.5839  -0.5775  -0.5734  -0.5693  -0.5651  -0.5606
    -0.4889  -0.4861  -0.4847  -0.4846  -0.4756  -0.4748  -0.4390  -0.4264
    -0.4261  -0.3953  -0.3939  -0.3920  -0.2728  -0.2705  -0.1699   0.2449
     0.2455   0.2489   0.2491   0.3102   0.3126   0.6967   0.6990   0.7408
     0.7417   0.8538   0.9309   1.0406   1.0439   1.2654   1.2672   1.8950
     1.8963   2.0576   2.0583   2.1908   2.1926   2.2942   2.2944   2.4484
     2.6856   2.6968   2.8096   3.0328   3.0375   3.1170   3.1178   3.2167
     3.2335   3.4317   3.4418   3.4890   3.6899   3.6916   3.7537   3.7547
     4.0098   4.0179   4.0191   4.2608   4.3016   4.3027   4.3480   4.6816
     4.6861   4.7123   4.8489   5.0214   5.0220   5.0902   5.0949   5.5413
     5.7952   5.8077   5.8136   5.8242   5.8612   5.8833   5.8850   5.9822
     5.9959   6.0165   6.0437   6.0499   6.0717   6.0799   6.1059   6.1082
     6.1988   6.5292   6.5849   6.6992   6.7057   6.7551   6.7609   6.7652
     6.8086   6.8738   6.9654

          k =-0.2500 0.4330-0.1111 (136853 PWs)   bands (ev):

   -18.5754  -6.4694  -6.4035  -6.0712  -6.0683  -5.3927  -5.0593  -5.0573
    -5.0224  -5.0173  -4.6587  -4.6569  -4.5594  -4.5591  -4.5449  -4.5223
    -4.5009  -4.3922  -4.3913  -4.3675  -4.3240  -4.3239  -4.2559  -4.2546
    -4.2505  -4.2471  -4.2267  -4.2228  -4.2187  -4.1538  -4.1466  -4.1194
    -4.1174  -4.1068  -4.1058  -4.0832  -4.0828  -4.0605  -4.0523  -4.0518
    -4.0259  -3.9734  -3.9729  -3.9261  -3.9239  -3.8664  -3.8658  -3.8122
    -3.8110  -3.8107  -3.8103  -3.7753  -3.7378  -3.7365  -3.7295  -3.7289
    -3.7278  -3.7010  -3.6959  -3.6885  -3.6283  -3.6273  -3.6195  -3.6011
    -3.5937  -3.5238  -3.5207  -3.4910  -3.4863  -3.4606  -3.4595  -3.4462
    -3.4303  -3.3708  -3.3700  -3.3525  -3.3519  -3.3009  -3.2963  -3.2954
    -3.2563  -3.2281  -3.2241  -3.2180  -3.2166  -3.2046  -3.2037  -3.1961
    -3.1952  -3.1861  -3.1451  -3.1079  -3.1063  -3.0929  -3.0917  -3.0655
    -3.0582  -3.0559  -3.0376  -2.9930  -2.9895  -2.9814  -2.9418  -2.9365
    -2.9244  -2.9238  -2.8958  -2.8954  -2.8657  -2.8291  -2.8270  -2.8060
    -2.7976  -2.7884  -2.7830  -2.7519  -2.7335  -2.7204  -2.6993  -2.6776
    -2.6749  -2.6539  -2.6500  -2.6417  -2.6372  -2.6302  -2.6086  -2.6071
    -2.5622  -2.5616  -2.5610  -2.5458  -2.5442  -2.5389  -2.5306  -2.5280
    -2.5273  -2.5256  -2.5210  -2.5093  -2.5080  -2.5006  -2.4740  -2.4711
    -2.4703  -2.4685  -2.4676  -2.4656  -2.4624  -2.4389  -2.4351  -2.4221
    -2.4201  -2.4030  -2.4013  -2.3931  -2.3922  -2.3916  -2.3891  -2.3724
    -2.3699  -2.3677  -2.3662  -2.3499  -2.3257  -2.3242  -2.2855  -2.2838
    -2.2611  -2.2589  -2.2323  -2.2306  -2.2055  -2.2027  -2.1869  -2.1819
    -2.1553  -2.1360  -2.1338  -2.1270  -2.1262  -2.1221  -2.1158  -2.1147
    -2.0872  -2.0825  -2.0740  -2.0165  -2.0128  -2.0114  -2.0101  -2.0074
    -1.9749  -1.9540  -1.9520  -1.9261  -1.9239  -1.8660  -1.8645  -1.8355
    -1.8167  -1.8153  -1.7569  -1.7557  -1.7455  -1.7428  -1.7339  -1.7318
    -1.7291  -1.7215  -1.7185  -1.6659  -1.6609  -1.6527  -1.6510  -1.6501
    -1.6346  -1.6293  -1.5974  -1.5954  -1.5797  -1.5785  -1.5774  -1.5709
    -1.5660  -1.5593  -1.5549  -1.5385  -1.5360  -1.4974  -1.4928  -1.4861
    -1.4820  -1.4641  -1.4490  -1.4086  -1.4059  -1.3800  -1.3767  -1.3747
    -1.3462  -1.2965  -1.2934  -1.2922  -1.2913  -1.2872  -1.2858  -1.2767
    -1.2592  -1.2572  -1.2199  -1.2159  -1.1887  -1.1857  -1.1828  -1.1802
    -1.1737  -1.1588  -1.1572  -1.1559  -1.1523  -1.1516  -1.1152  -1.1134
    -1.1126  -1.1122  -1.0843  -1.0805  -1.0773  -1.0528  -1.0474  -1.0444
    -1.0005  -0.9926  -0.9904  -0.9569  -0.9484  -0.9387  -0.9364  -0.9301
    -0.9296  -0.9286  -0.9265  -0.9164  -0.9151  -0.8914  -0.8896  -0.8864
    -0.8856  -0.8833  -0.8473  -0.8467  -0.8406  -0.8352  -0.8201  -0.8137
    -0.8122  -0.8009  -0.7451  -0.7439  -0.7359  -0.7353  -0.7333  -0.7328
    -0.7278  -0.7091  -0.7071  -0.7010  -0.6984  -0.6972  -0.6967  -0.6579
    -0.6562  -0.6545  -0.6472  -0.6458  -0.6409  -0.6397  -0.6273  -0.6234
    -0.6204  -0.6193  -0.5827  -0.5778  -0.5715  -0.5692  -0.5651  -0.5638
    -0.4895  -0.4861  -0.4846  -0.4845  -0.4755  -0.4747  -0.4389  -0.4270
    -0.4257  -0.3952  -0.3939  -0.3917  -0.2760  -0.2695  -0.1708   0.2452
     0.2457   0.2485   0.2491   0.3098   0.3140   0.6981   0.6990   0.7397
     0.7421   0.8536   0.9305   1.0383   1.0455   1.2622   1.2703   1.8941
     1.8978   2.0553   2.0605   2.1878   2.1953   2.2939   2.2947   2.4484
     2.6863   2.6972   2.8098   3.0310   3.0396   3.1158   3.1190   3.2178
     3.2335   3.4250   3.4479   3.4895   3.6897   3.6918   3.7490   3.7584
     4.0096   4.0158   4.0220   4.2613   4.2993   4.3042   4.3479   4.6819
     4.6859   4.7124   4.8453   5.0201   5.0231   5.0708   5.1082   5.5541
     5.7780   5.8048   5.8175   5.8190   5.8803   5.8819   5.8858   5.9823
     5.9911   6.0189   6.0470   6.0508   6.0660   6.0861   6.1076   6.1088
     6.1940   6.5071   6.6054   6.6661   6.7318   6.7506   6.7630   6.7664
     6.8094   6.8769   6.9727

          k = 0.2500-0.4330-0.1111 (136853 PWs)   bands (ev):

   -18.5754  -6.4694  -6.4035  -6.0712  -6.0683  -5.3927  -5.0593  -5.0573
    -5.0224  -5.0173  -4.6587  -4.6569  -4.5594  -4.5591  -4.5449  -4.5223
    -4.5009  -4.3922  -4.3913  -4.3675  -4.3240  -4.3239  -4.2559  -4.2546
    -4.2505  -4.2471  -4.2267  -4.2228  -4.2187  -4.1538  -4.1466  -4.1194
    -4.1174  -4.1068  -4.1058  -4.0832  -4.0828  -4.0605  -4.0523  -4.0518
    -4.0259  -3.9734  -3.9729  -3.9261  -3.9239  -3.8664  -3.8658  -3.8122
    -3.8110  -3.8107  -3.8103  -3.7753  -3.7378  -3.7365  -3.7295  -3.7289
    -3.7278  -3.7010  -3.6959  -3.6885  -3.6283  -3.6273  -3.6195  -3.6011
    -3.5937  -3.5238  -3.5207  -3.4910  -3.4863  -3.4606  -3.4595  -3.4462
    -3.4303  -3.3708  -3.3700  -3.3525  -3.3519  -3.3009  -3.2963  -3.2954
    -3.2563  -3.2281  -3.2241  -3.2180  -3.2166  -3.2046  -3.2037  -3.1961
    -3.1952  -3.1861  -3.1451  -3.1079  -3.1063  -3.0929  -3.0917  -3.0655
    -3.0582  -3.0559  -3.0376  -2.9930  -2.9895  -2.9814  -2.9418  -2.9365
    -2.9244  -2.9238  -2.8958  -2.8954  -2.8657  -2.8291  -2.8270  -2.8060
    -2.7976  -2.7884  -2.7830  -2.7519  -2.7335  -2.7204  -2.6993  -2.6776
    -2.6749  -2.6539  -2.6500  -2.6417  -2.6372  -2.6302  -2.6086  -2.6071
    -2.5622  -2.5616  -2.5610  -2.5458  -2.5442  -2.5389  -2.5306  -2.5280
    -2.5273  -2.5256  -2.5210  -2.5093  -2.5080  -2.5006  -2.4740  -2.4711
    -2.4703  -2.4685  -2.4676  -2.4656  -2.4624  -2.4389  -2.4351  -2.4221
    -2.4201  -2.4030  -2.4013  -2.3931  -2.3922  -2.3916  -2.3891  -2.3724
    -2.3699  -2.3677  -2.3662  -2.3499  -2.3257  -2.3242  -2.2855  -2.2838
    -2.2611  -2.2589  -2.2323  -2.2306  -2.2055  -2.2027  -2.1869  -2.1819
    -2.1553  -2.1360  -2.1338  -2.1270  -2.1262  -2.1221  -2.1158  -2.1147
    -2.0872  -2.0825  -2.0740  -2.0165  -2.0128  -2.0114  -2.0101  -2.0074
    -1.9749  -1.9540  -1.9520  -1.9261  -1.9239  -1.8660  -1.8645  -1.8355
    -1.8167  -1.8153  -1.7569  -1.7557  -1.7455  -1.7428  -1.7339  -1.7318
    -1.7291  -1.7215  -1.7185  -1.6659  -1.6609  -1.6527  -1.6510  -1.6501
    -1.6346  -1.6293  -1.5974  -1.5954  -1.5797  -1.5785  -1.5774  -1.5709
    -1.5660  -1.5593  -1.5549  -1.5385  -1.5360  -1.4974  -1.4928  -1.4861
    -1.4820  -1.4641  -1.4490  -1.4086  -1.4059  -1.3800  -1.3767  -1.3747
    -1.3462  -1.2965  -1.2934  -1.2922  -1.2913  -1.2872  -1.2858  -1.2767
    -1.2592  -1.2572  -1.2199  -1.2159  -1.1887  -1.1857  -1.1828  -1.1802
    -1.1737  -1.1588  -1.1572  -1.1559  -1.1523  -1.1516  -1.1152  -1.1134
    -1.1126  -1.1122  -1.0843  -1.0805  -1.0773  -1.0528  -1.0474  -1.0444
    -1.0005  -0.9926  -0.9904  -0.9569  -0.9484  -0.9387  -0.9364  -0.9301
    -0.9296  -0.9286  -0.9265  -0.9164  -0.9151  -0.8914  -0.8896  -0.8864
    -0.8856  -0.8833  -0.8473  -0.8467  -0.8406  -0.8352  -0.8201  -0.8137
    -0.8122  -0.8009  -0.7451  -0.7439  -0.7359  -0.7353  -0.7333  -0.7328
    -0.7278  -0.7091  -0.7071  -0.7010  -0.6984  -0.6972  -0.6967  -0.6579
    -0.6562  -0.6545  -0.6472  -0.6458  -0.6409  -0.6397  -0.6273  -0.6234
    -0.6204  -0.6193  -0.5827  -0.5778  -0.5715  -0.5692  -0.5651  -0.5638
    -0.4895  -0.4861  -0.4846  -0.4845  -0.4755  -0.4747  -0.4389  -0.4270
    -0.4257  -0.3952  -0.3939  -0.3917  -0.2760  -0.2695  -0.1708   0.2452
     0.2457   0.2485   0.2491   0.3098   0.3140   0.6981   0.6990   0.7397
     0.7421   0.8536   0.9305   1.0383   1.0455   1.2622   1.2703   1.8941
     1.8978   2.0553   2.0605   2.1878   2.1953   2.2939   2.2947   2.4484
     2.6863   2.6972   2.8098   3.0310   3.0396   3.1158   3.1190   3.2178
     3.2335   3.4250   3.4479   3.4895   3.6897   3.6918   3.7490   3.7584
     4.0096   4.0158   4.0220   4.2613   4.2993   4.3042   4.3479   4.6819
     4.6859   4.7124   4.8453   5.0201   5.0231   5.0708   5.1082   5.5541
     5.7780   5.8048   5.8175   5.8190   5.8803   5.8819   5.8858   5.9823
     5.9911   6.0189   6.0470   6.0508   6.0660   6.0861   6.1076   6.1088
     6.1940   6.5070   6.6053   6.6662   6.7318   6.7506   6.7630   6.7664
     6.8096   6.8769   6.9728

          k = 0.5000 0.0000 0.1111 (136853 PWs)   bands (ev):

   -18.5754  -6.4692  -6.4037  -6.0719  -6.0676  -5.3928  -5.0590  -5.0576
    -5.0231  -5.0166  -4.6586  -4.6571  -4.5595  -4.5591  -4.5450  -4.5223
    -4.5010  -4.3927  -4.3907  -4.3675  -4.3241  -4.3239  -4.2558  -4.2547
    -4.2493  -4.2481  -4.2267  -4.2223  -4.2192  -4.1536  -4.1467  -4.1195
    -4.1173  -4.1063  -4.1063  -4.0831  -4.0829  -4.0605  -4.0522  -4.0519
    -4.0259  -3.9735  -3.9729  -3.9263  -3.9237  -3.8665  -3.8661  -3.8125
    -3.8109  -3.8108  -3.8103  -3.7753  -3.7376  -3.7373  -3.7295  -3.7284
    -3.7281  -3.6987  -3.6972  -3.6890  -3.6283  -3.6276  -3.6188  -3.6013
    -3.5938  -3.5224  -3.5217  -3.4895  -3.4872  -3.4612  -3.4591  -3.4462
    -3.4304  -3.3710  -3.3699  -3.3526  -3.3517  -3.3009  -3.2960  -3.2957
    -3.2562  -3.2269  -3.2251  -3.2182  -3.2161  -3.2047  -3.2041  -3.1958
    -3.1950  -3.1863  -3.1451  -3.1084  -3.1057  -3.0926  -3.0920  -3.0655
    -3.0570  -3.0567  -3.0377  -2.9938  -2.9888  -2.9813  -2.9420  -2.9365
    -2.9257  -2.9226  -2.8957  -2.8947  -2.8657  -2.8290  -2.8273  -2.8065
    -2.7976  -2.7892  -2.7832  -2.7512  -2.7329  -2.7214  -2.6997  -2.6773
    -2.6759  -2.6538  -2.6491  -2.6419  -2.6374  -2.6301  -2.6086  -2.6073
    -2.5622  -2.5618  -2.5608  -2.5457  -2.5441  -2.5388  -2.5305  -2.5283
    -2.5271  -2.5256  -2.5211  -2.5108  -2.5071  -2.5000  -2.4734  -2.4722
    -2.4702  -2.4686  -2.4670  -2.4654  -2.4625  -2.4388  -2.4352  -2.4215
    -2.4206  -2.4030  -2.4014  -2.3933  -2.3921  -2.3914  -2.3892  -2.3714
    -2.3696  -2.3687  -2.3664  -2.3499  -2.3255  -2.3245  -2.2856  -2.2837
    -2.2607  -2.2592  -2.2323  -2.2307  -2.2050  -2.2032  -2.1870  -2.1818
    -2.1553  -2.1361  -2.1336  -2.1276  -2.1258  -2.1224  -2.1160  -2.1145
    -2.0875  -2.0824  -2.0740  -2.0166  -2.0126  -2.0120  -2.0094  -2.0073
    -1.9749  -1.9541  -1.9520  -1.9254  -1.9244  -1.8664  -1.8641  -1.8354
    -1.8171  -1.8151  -1.7569  -1.7555  -1.7452  -1.7431  -1.7336  -1.7322
    -1.7291  -1.7212  -1.7188  -1.6649  -1.6615  -1.6521  -1.6515  -1.6506
    -1.6337  -1.6299  -1.5971  -1.5960  -1.5793  -1.5783  -1.5778  -1.5711
    -1.5662  -1.5588  -1.5553  -1.5374  -1.5370  -1.4970  -1.4930  -1.4853
    -1.4829  -1.4642  -1.4490  -1.4090  -1.4056  -1.3802  -1.3762  -1.3754
    -1.3463  -1.2964  -1.2931  -1.2922  -1.2915  -1.2875  -1.2859  -1.2763
    -1.2595  -1.2569  -1.2193  -1.2163  -1.1878  -1.1867  -1.1817  -1.1809
    -1.1738  -1.1583  -1.1573  -1.1561  -1.1525  -1.1522  -1.1146  -1.1135
    -1.1130  -1.1123  -1.0826  -1.0806  -1.0778  -1.0533  -1.0471  -1.0443
    -1.0000  -0.9928  -0.9912  -0.9567  -0.9489  -0.9382  -0.9371  -0.9298
    -0.9292  -0.9282  -0.9272  -0.9163  -0.9155  -0.8910  -0.8897  -0.8866
    -0.8845  -0.8843  -0.8472  -0.8469  -0.8383  -0.8355  -0.8213  -0.8142
    -0.8124  -0.8009  -0.7452  -0.7439  -0.7352  -0.7348  -0.7333  -0.7326
    -0.7276  -0.7084  -0.7074  -0.7005  -0.6988  -0.6974  -0.6968  -0.6578
    -0.6563  -0.6544  -0.6474  -0.6459  -0.6423  -0.6396  -0.6299  -0.6239
    -0.6201  -0.6191  -0.5840  -0.5776  -0.5737  -0.5694  -0.5651  -0.5601
    -0.4887  -0.4861  -0.4848  -0.4844  -0.4757  -0.4748  -0.4389  -0.4263
    -0.4262  -0.3954  -0.3939  -0.3921  -0.2722  -0.2707  -0.1696   0.2450
     0.2456   0.2487   0.2491   0.3093   0.3131   0.6965   0.6992   0.7403
     0.7421   0.8538   0.9311   1.0409   1.0440   1.2657   1.2668   1.8939
     1.8970   2.0567   2.0594   2.1897   2.1937   2.2935   2.2951   2.4483
     2.6858   2.6967   2.8096   3.0325   3.0377   3.1160   3.1188   3.2164
     3.2336   3.4325   3.4411   3.4891   3.6896   3.6921   3.7536   3.7549
     4.0096   4.0172   4.0197   4.2612   4.3010   4.3033   4.3477   4.6810
     4.6866   4.7117   4.8491   5.0212   5.0224   5.0882   5.0985   5.5384
     5.7963   5.8079   5.8149   5.8249   5.8572   5.8835   5.8847   5.9814
     5.9961   6.0171   6.0434   6.0508   6.0726   6.0786   6.1062   6.1086
     6.1997   6.5367   6.5791   6.6931   6.7133   6.7566   6.7610   6.7639
     6.8087   6.8736   6.9654

          k =-0.5000 0.0000 0.1111 (136853 PWs)   bands (ev):

   -18.5754  -6.4692  -6.4037  -6.0719  -6.0676  -5.3928  -5.0590  -5.0576
    -5.0231  -5.0166  -4.6586  -4.6571  -4.5595  -4.5591  -4.5450  -4.5223
    -4.5010  -4.3927  -4.3907  -4.3675  -4.3241  -4.3239  -4.2558  -4.2547
    -4.2493  -4.2481  -4.2267  -4.2223  -4.2192  -4.1536  -4.1467  -4.1195
    -4.1173  -4.1063  -4.1063  -4.0831  -4.0829  -4.0605  -4.0522  -4.0519
    -4.0259  -3.9735  -3.9729  -3.9263  -3.9237  -3.8665  -3.8661  -3.8125
    -3.8109  -3.8108  -3.8103  -3.7753  -3.7376  -3.7373  -3.7295  -3.7284
    -3.7281  -3.6987  -3.6972  -3.6890  -3.6283  -3.6276  -3.6188  -3.6013
    -3.5938  -3.5224  -3.5217  -3.4895  -3.4872  -3.4612  -3.4591  -3.4462
    -3.4304  -3.3710  -3.3699  -3.3526  -3.3517  -3.3009  -3.2960  -3.2957
    -3.2562  -3.2269  -3.2251  -3.2182  -3.2161  -3.2047  -3.2041  -3.1958
    -3.1950  -3.1863  -3.1451  -3.1084  -3.1057  -3.0926  -3.0920  -3.0655
    -3.0570  -3.0567  -3.0377  -2.9938  -2.9888  -2.9813  -2.9420  -2.9365
    -2.9257  -2.9226  -2.8957  -2.8947  -2.8657  -2.8290  -2.8273  -2.8065
    -2.7976  -2.7892  -2.7832  -2.7512  -2.7329  -2.7214  -2.6997  -2.6773
    -2.6759  -2.6538  -2.6491  -2.6419  -2.6374  -2.6301  -2.6086  -2.6073
    -2.5622  -2.5618  -2.5608  -2.5457  -2.5441  -2.5388  -2.5305  -2.5283
    -2.5271  -2.5256  -2.5211  -2.5108  -2.5071  -2.5000  -2.4734  -2.4722
    -2.4702  -2.4686  -2.4670  -2.4654  -2.4625  -2.4388  -2.4352  -2.4215
    -2.4206  -2.4030  -2.4014  -2.3933  -2.3921  -2.3914  -2.3892  -2.3714
    -2.3696  -2.3687  -2.3664  -2.3499  -2.3255  -2.3245  -2.2856  -2.2837
    -2.2607  -2.2592  -2.2323  -2.2307  -2.2050  -2.2032  -2.1870  -2.1818
    -2.1553  -2.1361  -2.1336  -2.1276  -2.1258  -2.1224  -2.1160  -2.1145
    -2.0875  -2.0824  -2.0740  -2.0166  -2.0126  -2.0120  -2.0094  -2.0073
    -1.9749  -1.9541  -1.9520  -1.9254  -1.9244  -1.8664  -1.8641  -1.8354
    -1.8171  -1.8151  -1.7569  -1.7555  -1.7452  -1.7431  -1.7336  -1.7322
    -1.7291  -1.7212  -1.7188  -1.6649  -1.6615  -1.6521  -1.6515  -1.6506
    -1.6337  -1.6299  -1.5971  -1.5960  -1.5793  -1.5783  -1.5778  -1.5711
    -1.5662  -1.5588  -1.5553  -1.5374  -1.5370  -1.4970  -1.4930  -1.4853
    -1.4829  -1.4642  -1.4490  -1.4090  -1.4056  -1.3802  -1.3762  -1.3754
    -1.3463  -1.2964  -1.2931  -1.2922  -1.2915  -1.2875  -1.2859  -1.2763
    -1.2595  -1.2569  -1.2193  -1.2163  -1.1878  -1.1867  -1.1817  -1.1809
    -1.1738  -1.1583  -1.1573  -1.1561  -1.1525  -1.1522  -1.1146  -1.1135
    -1.1130  -1.1123  -1.0826  -1.0806  -1.0778  -1.0533  -1.0471  -1.0443
    -1.0000  -0.9928  -0.9912  -0.9567  -0.9489  -0.9382  -0.9371  -0.9298
    -0.9292  -0.9282  -0.9272  -0.9163  -0.9155  -0.8910  -0.8897  -0.8866
    -0.8845  -0.8843  -0.8472  -0.8469  -0.8383  -0.8355  -0.8213  -0.8142
    -0.8124  -0.8009  -0.7452  -0.7439  -0.7352  -0.7347  -0.7333  -0.7326
    -0.7276  -0.7084  -0.7074  -0.7005  -0.6988  -0.6974  -0.6968  -0.6578
    -0.6563  -0.6544  -0.6474  -0.6459  -0.6423  -0.6396  -0.6299  -0.6239
    -0.6201  -0.6191  -0.5840  -0.5776  -0.5737  -0.5694  -0.5651  -0.5601
    -0.4887  -0.4861  -0.4848  -0.4844  -0.4757  -0.4748  -0.4389  -0.4263
    -0.4262  -0.3954  -0.3939  -0.3921  -0.2722  -0.2707  -0.1696   0.2450
     0.2456   0.2487   0.2491   0.3093   0.3131   0.6965   0.6992   0.7403
     0.7421   0.8538   0.9311   1.0409   1.0440   1.2657   1.2668   1.8939
     1.8970   2.0567   2.0594   2.1897   2.1937   2.2935   2.2951   2.4483
     2.6858   2.6967   2.8096   3.0325   3.0377   3.1160   3.1188   3.2164
     3.2336   3.4325   3.4411   3.4891   3.6896   3.6921   3.7536   3.7549
     4.0096   4.0172   4.0197   4.2612   4.3010   4.3033   4.3477   4.6810
     4.6866   4.7117   4.8491   5.0212   5.0224   5.0882   5.0985   5.5384
     5.7963   5.8079   5.8149   5.8249   5.8572   5.8835   5.8847   5.9814
     5.9961   6.0171   6.0434   6.0508   6.0726   6.0786   6.1062   6.1086
     6.1996   6.5368   6.5789   6.6931   6.7134   6.7566   6.7610   6.7639
     6.8086   6.8736   6.9654

          k =-0.2500 0.1443 0.1111 (136898 PWs)   bands (ev):

   -18.5754  -6.6791  -6.4037  -5.8870  -5.5967  -5.5370  -5.5363  -4.9985
    -4.9979  -4.8673  -4.8660  -4.7110  -4.6826  -4.6185  -4.5869  -4.5844
    -4.5515  -4.5514  -4.4229  -4.3811  -4.3810  -4.3215  -4.3011  -4.2998
    -4.1977  -4.1975  -4.1617  -4.1611  -4.1610  -4.1344  -4.1127  -4.1126
    -4.0091  -4.0055  -4.0055  -3.9851  -3.9682  -3.9677  -3.9562  -3.9552
    -3.9424  -3.9126  -3.9120  -3.9118  -3.9114  -3.8791  -3.8789  -3.8615
    -3.8611  -3.8484  -3.8058  -3.8050  -3.7738  -3.7601  -3.7575  -3.7528
    -3.7528  -3.6785  -3.6783  -3.6438  -3.6424  -3.6404  -3.5730  -3.5726
    -3.5585  -3.5570  -3.5271  -3.5269  -3.5258  -3.5250  -3.3725  -3.3711
    -3.3471  -3.3467  -3.3417  -3.3257  -3.3246  -3.2995  -3.2992  -3.2498
    -3.2488  -3.2335  -3.2324  -3.2126  -3.1647  -3.1645  -3.1451  -3.1401
    -3.1387  -3.0999  -3.0981  -3.0925  -3.0909  -3.0769  -3.0742  -3.0362
    -3.0352  -3.0151  -3.0141  -3.0117  -3.0100  -3.0069  -2.9326  -2.9300
    -2.9294  -2.9029  -2.8988  -2.8391  -2.8382  -2.8132  -2.8081  -2.7979
    -2.7946  -2.7908  -2.7609  -2.7598  -2.7528  -2.7441  -2.7292  -2.7076
    -2.7071  -2.6970  -2.6856  -2.6846  -2.6744  -2.6735  -2.6703  -2.6618
    -2.6612  -2.6162  -2.5843  -2.5840  -2.5664  -2.5537  -2.5484  -2.5457
    -2.5397  -2.5391  -2.5382  -2.5089  -2.5085  -2.5048  -2.4984  -2.4966
    -2.4817  -2.4539  -2.4531  -2.4526  -2.4519  -2.4496  -2.4063  -2.3753
    -2.3744  -2.3733  -2.3673  -2.3587  -2.3472  -2.3458  -2.3291  -2.3290
    -2.2966  -2.2943  -2.2938  -2.2752  -2.2747  -2.2744  -2.2422  -2.2409
    -2.2018  -2.1984  -2.1926  -2.1900  -2.1897  -2.1838  -2.1835  -2.1805
    -2.1798  -2.1735  -2.1733  -2.1573  -2.1565  -2.0307  -2.0300  -1.9965
    -1.9909  -1.9902  -1.9846  -1.9840  -1.9680  -1.9669  -1.9643  -1.9637
    -1.9606  -1.9394  -1.9326  -1.9320  -1.9217  -1.9186  -1.9177  -1.8965
    -1.8953  -1.8679  -1.8671  -1.8368  -1.8359  -1.8251  -1.8166  -1.7987
    -1.7983  -1.7957  -1.7779  -1.7650  -1.7644  -1.7575  -1.7571  -1.7315
    -1.7311  -1.7141  -1.7140  -1.6817  -1.6785  -1.6715  -1.6220  -1.6212
    -1.6075  -1.6069  -1.6048  -1.5816  -1.5789  -1.5465  -1.5452  -1.5446
    -1.5103  -1.5014  -1.5007  -1.4854  -1.4847  -1.4600  -1.4574  -1.4559
    -1.4279  -1.4248  -1.4244  -1.3628  -1.3612  -1.3495  -1.3482  -1.3329
    -1.3322  -1.3195  -1.3191  -1.3012  -1.2884  -1.2609  -1.2603  -1.2486
    -1.2184  -1.2105  -1.2102  -1.1987  -1.1986  -1.1962  -1.1914  -1.1911
    -1.1773  -1.1483  -1.1472  -1.1367  -1.1341  -1.1328  -1.1319  -1.1107
    -1.0914  -1.0896  -1.0703  -1.0692  -0.9776  -0.9643  -0.9588  -0.9584
    -0.9547  -0.9492  -0.9485  -0.9273  -0.9245  -0.9090  -0.9075  -0.8937
    -0.8934  -0.8847  -0.8654  -0.8630  -0.8613  -0.8536  -0.7816  -0.7809
    -0.7481  -0.7465  -0.7427  -0.7362  -0.7351  -0.7340  -0.7336  -0.7220
    -0.7205  -0.7042  -0.6793  -0.6658  -0.6465  -0.6455  -0.6340  -0.6335
    -0.6234  -0.6206  -0.6205  -0.6190  -0.6178  -0.6010  -0.5964  -0.5961
    -0.5748  -0.5654  -0.5640  -0.5628  -0.5515  -0.5511  -0.5320  -0.5001
    -0.4999  -0.4907  -0.4903  -0.4228  -0.4223  -0.3855  -0.3851  -0.3273
    -0.3267  -0.3260  -0.3120  -0.2996  -0.0710  -0.0698   0.2737   0.2739
     0.3666   0.3680   0.5605   0.5771   0.5913   0.7214   0.7224   1.1540
     1.1542   1.1715   1.4329   1.4639   1.4642   1.7427   1.7450   1.8197
     1.8200   1.8470   1.8492   2.0759   2.0767   2.1649   2.1656   2.2430
     2.3050   2.3073   2.4679   2.5676   3.0054   3.0071   3.0104   3.0113
     3.0647   3.0658   3.3579   3.3582   3.6391   3.6423   3.7509   4.0540
     4.0949   4.0984   4.3170   4.3331   4.3970   4.3974   4.4891   4.6068
     4.6078   4.7234   4.7252   5.0280   5.0932   5.0983   5.2631   5.2811
     5.4263   5.4835   5.4870   5.5121   5.5124   5.5739   5.5755   5.6324
     5.9481   6.0253   6.1824   6.2430   6.2857   6.3165   6.3186   6.3307
     6.3338   6.5650   6.5730   6.6385   6.7290   6.7992   6.8038   6.8405
     6.8656   7.0812   7.1022

          k =-0.2500-0.1443-0.1111 (136898 PWs)   bands (ev):

   -18.5754  -6.6791  -6.4037  -5.8871  -5.5967  -5.5368  -5.5364  -4.9983
    -4.9980  -4.8678  -4.8659  -4.7109  -4.6826  -4.6187  -4.5863  -4.5847
    -4.5515  -4.5513  -4.4228  -4.3811  -4.3810  -4.3215  -4.3009  -4.3000
    -4.1976  -4.1975  -4.1617  -4.1613  -4.1609  -4.1345  -4.1128  -4.1125
    -4.0095  -4.0056  -4.0054  -3.9851  -3.9683  -3.9678  -3.9559  -3.9554
    -3.9424  -3.9123  -3.9120  -3.9117  -3.9113  -3.8795  -3.8786  -3.8614
    -3.8610  -3.8488  -3.8061  -3.8041  -3.7743  -3.7593  -3.7578  -3.7529
    -3.7527  -3.6785  -3.6783  -3.6439  -3.6418  -3.6405  -3.5732  -3.5728
    -3.5582  -3.5570  -3.5268  -3.5265  -3.5261  -3.5255  -3.3724  -3.3713
    -3.3475  -3.3462  -3.3417  -3.3255  -3.3247  -3.2994  -3.2989  -3.2497
    -3.2489  -3.2334  -3.2326  -3.2125  -3.1651  -3.1637  -3.1452  -3.1403
    -3.1390  -3.0998  -3.0983  -3.0923  -3.0909  -3.0766  -3.0746  -3.0361
    -3.0352  -3.0146  -3.0141  -3.0115  -3.0101  -3.0070  -2.9323  -2.9301
    -2.9297  -2.9027  -2.8990  -2.8387  -2.8382  -2.8135  -2.8081  -2.7986
    -2.7946  -2.7904  -2.7606  -2.7600  -2.7526  -2.7433  -2.7280  -2.7081
    -2.7072  -2.6992  -2.6855  -2.6849  -2.6745  -2.6738  -2.6708  -2.6619
    -2.6597  -2.6161  -2.5843  -2.5841  -2.5661  -2.5539  -2.5481  -2.5457
    -2.5401  -2.5389  -2.5384  -2.5093  -2.5080  -2.5051  -2.4982  -2.4965
    -2.4815  -2.4541  -2.4539  -2.4523  -2.4516  -2.4493  -2.4065  -2.3750
    -2.3746  -2.3736  -2.3672  -2.3588  -2.3480  -2.3449  -2.3289  -2.3289
    -2.2966  -2.2940  -2.2939  -2.2753  -2.2749  -2.2745  -2.2417  -2.2412
    -2.2017  -2.1983  -2.1922  -2.1901  -2.1898  -2.1840  -2.1835  -2.1805
    -2.1799  -2.1740  -2.1729  -2.1571  -2.1570  -2.0306  -2.0302  -1.9961
    -1.9908  -1.9905  -1.9845  -1.9837  -1.9680  -1.9675  -1.9647  -1.9639
    -1.9599  -1.9394  -1.9328  -1.9316  -1.9222  -1.9178  -1.9175  -1.8967
    -1.8955  -1.8681  -1.8670  -1.8367  -1.8361  -1.8251  -1.8165  -1.7987
    -1.7984  -1.7955  -1.7779  -1.7651  -1.7645  -1.7577  -1.7573  -1.7310
    -1.7310  -1.7143  -1.7136  -1.6819  -1.6785  -1.6717  -1.6222  -1.6207
    -1.6075  -1.6072  -1.6047  -1.5818  -1.5786  -1.5463  -1.5450  -1.5447
    -1.5106  -1.5017  -1.5004  -1.4850  -1.4847  -1.4601  -1.4577  -1.4557
    -1.4276  -1.4249  -1.4246  -1.3627  -1.3618  -1.3490  -1.3488  -1.3333
    -1.3316  -1.3192  -1.3191  -1.3010  -1.2881  -1.2613  -1.2598  -1.2486
    -1.2188  -1.2107  -1.2098  -1.1987  -1.1987  -1.1964  -1.1917  -1.1911
    -1.1773  -1.1487  -1.1468  -1.1355  -1.1345  -1.1329  -1.1313  -1.1111
    -1.0918  -1.0895  -1.0696  -1.0695  -0.9773  -0.9643  -0.9586  -0.9584
    -0.9547  -0.9494  -0.9486  -0.9284  -0.9245  -0.9081  -0.9078  -0.8937
    -0.8936  -0.8854  -0.8646  -0.8633  -0.8617  -0.8535  -0.7820  -0.7805
    -0.7481  -0.7470  -0.7427  -0.7359  -0.7352  -0.7340  -0.7338  -0.7216
    -0.7197  -0.7045  -0.6792  -0.6669  -0.6457  -0.6452  -0.6338  -0.6337
    -0.6218  -0.6212  -0.6201  -0.6197  -0.6179  -0.6008  -0.5969  -0.5963
    -0.5751  -0.5657  -0.5643  -0.5630  -0.5513  -0.5506  -0.5322  -0.5001
    -0.4999  -0.4909  -0.4900  -0.4233  -0.4220  -0.3859  -0.3849  -0.3279
    -0.3265  -0.3256  -0.3105  -0.2996  -0.0735  -0.0689   0.2739   0.2739
     0.3651   0.3696   0.5606   0.5776   0.5917   0.7215   0.7227   1.1538
     1.1541   1.1725   1.4330   1.4637   1.4642   1.7410   1.7464   1.8191
     1.8196   1.8474   1.8493   2.0743   2.0772   2.1653   2.1653   2.2433
     2.3041   2.3080   2.4684   2.5674   3.0060   3.0067   3.0106   3.0110
     3.0625   3.0674   3.3573   3.3586   3.6398   3.6419   3.7493   4.0543
     4.0960   4.0963   4.3226   4.3318   4.3967   4.3977   4.4879   4.6065
     4.6088   4.7248   4.7251   5.0270   5.0960   5.1003   5.2702   5.2800
     5.4160   5.4850   5.4853   5.5111   5.5134   5.5756   5.5760   5.6262
     5.9371   6.0461   6.1789   6.2519   6.2777   6.3139   6.3200   6.3322
     6.3326   6.5717   6.5729   6.6374   6.7285   6.7951   6.8076   6.8331
     6.8711   7.0855   7.0951

          k = 0.2500 0.1443-0.1111 (136898 PWs)   bands (ev):

   -18.5754  -6.6791  -6.4037  -5.8871  -5.5967  -5.5368  -5.5364  -4.9983
    -4.9980  -4.8678  -4.8659  -4.7109  -4.6826  -4.6187  -4.5863  -4.5847
    -4.5515  -4.5513  -4.4228  -4.3811  -4.3810  -4.3215  -4.3009  -4.3000
    -4.1976  -4.1975  -4.1617  -4.1613  -4.1609  -4.1345  -4.1128  -4.1125
    -4.0095  -4.0056  -4.0054  -3.9851  -3.9683  -3.9678  -3.9559  -3.9554
    -3.9424  -3.9123  -3.9120  -3.9117  -3.9113  -3.8794  -3.8786  -3.8614
    -3.8610  -3.8488  -3.8061  -3.8041  -3.7743  -3.7593  -3.7578  -3.7529
    -3.7527  -3.6785  -3.6783  -3.6439  -3.6418  -3.6405  -3.5732  -3.5728
    -3.5582  -3.5570  -3.5268  -3.5265  -3.5261  -3.5255  -3.3724  -3.3713
    -3.3475  -3.3462  -3.3417  -3.3255  -3.3247  -3.2994  -3.2989  -3.2497
    -3.2489  -3.2334  -3.2326  -3.2125  -3.1652  -3.1637  -3.1452  -3.1403
    -3.1390  -3.0998  -3.0983  -3.0923  -3.0909  -3.0766  -3.0746  -3.0361
    -3.0352  -3.0146  -3.0141  -3.0115  -3.0101  -3.0070  -2.9323  -2.9301
    -2.9297  -2.9027  -2.8990  -2.8387  -2.8382  -2.8135  -2.8081  -2.7986
    -2.7946  -2.7905  -2.7606  -2.7600  -2.7526  -2.7433  -2.7280  -2.7081
    -2.7072  -2.6992  -2.6855  -2.6849  -2.6745  -2.6738  -2.6708  -2.6619
    -2.6597  -2.6161  -2.5843  -2.5841  -2.5661  -2.5539  -2.5481  -2.5457
    -2.5401  -2.5389  -2.5384  -2.5093  -2.5080  -2.5051  -2.4982  -2.4965
    -2.4815  -2.4541  -2.4539  -2.4523  -2.4516  -2.4493  -2.4065  -2.3750
    -2.3746  -2.3736  -2.3672  -2.3588  -2.3480  -2.3450  -2.3289  -2.3289
    -2.2966  -2.2940  -2.2938  -2.2753  -2.2749  -2.2745  -2.2417  -2.2412
    -2.2017  -2.1984  -2.1922  -2.1901  -2.1898  -2.1840  -2.1836  -2.1805
    -2.1799  -2.1740  -2.1729  -2.1571  -2.1570  -2.0306  -2.0302  -1.9961
    -1.9908  -1.9905  -1.9845  -1.9837  -1.9680  -1.9675  -1.9647  -1.9639
    -1.9599  -1.9394  -1.9329  -1.9316  -1.9222  -1.9178  -1.9175  -1.8967
    -1.8955  -1.8681  -1.8670  -1.8367  -1.8361  -1.8251  -1.8165  -1.7987
    -1.7984  -1.7955  -1.7779  -1.7651  -1.7645  -1.7577  -1.7573  -1.7310
    -1.7310  -1.7142  -1.7136  -1.6819  -1.6785  -1.6717  -1.6222  -1.6207
    -1.6075  -1.6072  -1.6047  -1.5818  -1.5786  -1.5463  -1.5450  -1.5447
    -1.5106  -1.5017  -1.5004  -1.4850  -1.4847  -1.4601  -1.4577  -1.4557
    -1.4276  -1.4249  -1.4246  -1.3626  -1.3618  -1.3490  -1.3488  -1.3333
    -1.3316  -1.3192  -1.3191  -1.3010  -1.2881  -1.2613  -1.2598  -1.2486
    -1.2188  -1.2107  -1.2098  -1.1987  -1.1987  -1.1964  -1.1917  -1.1911
    -1.1773  -1.1487  -1.1468  -1.1355  -1.1345  -1.1329  -1.1313  -1.1111
    -1.0918  -1.0895  -1.0696  -1.0695  -0.9773  -0.9643  -0.9586  -0.9584
    -0.9547  -0.9494  -0.9486  -0.9284  -0.9245  -0.9081  -0.9078  -0.8937
    -0.8936  -0.8854  -0.8646  -0.8633  -0.8617  -0.8535  -0.7820  -0.7805
    -0.7481  -0.7470  -0.7427  -0.7359  -0.7352  -0.7340  -0.7338  -0.7216
    -0.7197  -0.7045  -0.6792  -0.6669  -0.6457  -0.6452  -0.6338  -0.6337
    -0.6218  -0.6212  -0.6201  -0.6197  -0.6179  -0.6008  -0.5969  -0.5963
    -0.5751  -0.5657  -0.5643  -0.5630  -0.5513  -0.5506  -0.5322  -0.5001
    -0.4999  -0.4908  -0.4900  -0.4233  -0.4220  -0.3859  -0.3849  -0.3279
    -0.3265  -0.3256  -0.3105  -0.2996  -0.0735  -0.0689   0.2739   0.2739
     0.3651   0.3696   0.5606   0.5776   0.5917   0.7215   0.7227   1.1538
     1.1541   1.1725   1.4330   1.4637   1.4642   1.7410   1.7464   1.8191
     1.8195   1.8474   1.8493   2.0743   2.0772   2.1653   2.1653   2.2433
     2.3041   2.3080   2.4684   2.5674   3.0060   3.0067   3.0106   3.0110
     3.0625   3.0674   3.3573   3.3586   3.6398   3.6419   3.7493   4.0543
     4.0960   4.0963   4.3226   4.3318   4.3967   4.3977   4.4879   4.6065
     4.6088   4.7248   4.7251   5.0270   5.0960   5.1003   5.2702   5.2800
     5.4160   5.4850   5.4853   5.5111   5.5134   5.5756   5.5760   5.6262
     5.9372   6.0463   6.1789   6.2517   6.2775   6.3139   6.3200   6.3322
     6.3326   6.5717   6.5729   6.6369   6.7259   6.7951   6.8074   6.8334
     6.8713   7.0876   7.0990

          k = 0.0000-0.2887 0.1111 (136898 PWs)   bands (ev):

   -18.5754  -6.6791  -6.4037  -5.8870  -5.5968  -5.5370  -5.5363  -4.9984
    -4.9979  -4.8675  -4.8658  -4.7110  -4.6826  -4.6186  -4.5871  -4.5843
    -4.5515  -4.5513  -4.4228  -4.3811  -4.3810  -4.3213  -4.3012  -4.2998
    -4.1977  -4.1974  -4.1617  -4.1612  -4.1610  -4.1344  -4.1128  -4.1125
    -4.0089  -4.0056  -4.0054  -3.9849  -3.9683  -3.9677  -3.9563  -3.9552
    -3.9423  -3.9127  -3.9120  -3.9117  -3.9113  -3.8791  -3.8789  -3.8615
    -3.8610  -3.8482  -3.8058  -3.8052  -3.7738  -3.7602  -3.7574  -3.7528
    -3.7527  -3.6786  -3.6783  -3.6436  -3.6424  -3.6402  -3.5732  -3.5727
    -3.5585  -3.5568  -3.5272  -3.5266  -3.5262  -3.5252  -3.3726  -3.3711
    -3.3470  -3.3468  -3.3417  -3.3258  -3.3246  -3.2994  -3.2992  -3.2498
    -3.2488  -3.2335  -3.2324  -3.2125  -3.1647  -3.1643  -3.1452  -3.1402
    -3.1388  -3.1001  -3.0981  -3.0925  -3.0909  -3.0770  -3.0742  -3.0360
    -3.0350  -3.0152  -3.0140  -3.0117  -3.0099  -3.0068  -2.9327  -2.9299
    -2.9296  -2.9030  -2.8988  -2.8391  -2.8381  -2.8130  -2.8081  -2.7975
    -2.7945  -2.7909  -2.7607  -2.7597  -2.7529  -2.7445  -2.7293  -2.7074
    -2.7072  -2.6966  -2.6855  -2.6845  -2.6748  -2.6737  -2.6702  -2.6619
    -2.6614  -2.6161  -2.5844  -2.5840  -2.5663  -2.5538  -2.5484  -2.5458
    -2.5397  -2.5390  -2.5384  -2.5088  -2.5084  -2.5048  -2.4981  -2.4968
    -2.4815  -2.4538  -2.4531  -2.4523  -2.4519  -2.4501  -2.4065  -2.3754
    -2.3743  -2.3734  -2.3673  -2.3588  -2.3472  -2.3457  -2.3289  -2.3289
    -2.2965  -2.2943  -2.2937  -2.2752  -2.2748  -2.2743  -2.2423  -2.2408
    -2.2019  -2.1983  -2.1923  -2.1900  -2.1895  -2.1839  -2.1833  -2.1807
    -2.1799  -2.1737  -2.1730  -2.1574  -2.1566  -2.0308  -2.0299  -1.9965
    -1.9909  -1.9901  -1.9845  -1.9839  -1.9685  -1.9668  -1.9642  -1.9637
    -1.9604  -1.9393  -1.9324  -1.9320  -1.9217  -1.9184  -1.9176  -1.8968
    -1.8955  -1.8681  -1.8671  -1.8368  -1.8358  -1.8250  -1.8166  -1.7987
    -1.7982  -1.7954  -1.7779  -1.7652  -1.7645  -1.7576  -1.7572  -1.7313
    -1.7308  -1.7144  -1.7138  -1.6818  -1.6788  -1.6715  -1.6221  -1.6212
    -1.6077  -1.6068  -1.6049  -1.5818  -1.5786  -1.5465  -1.5450  -1.5444
    -1.5104  -1.5013  -1.5008  -1.4853  -1.4845  -1.4599  -1.4574  -1.4560
    -1.4281  -1.4247  -1.4243  -1.3631  -1.3613  -1.3496  -1.3480  -1.3332
    -1.3320  -1.3193  -1.3189  -1.3008  -1.2883  -1.2608  -1.2603  -1.2486
    -1.2180  -1.2105  -1.2103  -1.1988  -1.1987  -1.1965  -1.1915  -1.1912
    -1.1773  -1.1483  -1.1472  -1.1369  -1.1342  -1.1327  -1.1320  -1.1107
    -1.0915  -1.0899  -1.0704  -1.0689  -0.9774  -0.9643  -0.9588  -0.9584
    -0.9544  -0.9496  -0.9485  -0.9267  -0.9245  -0.9092  -0.9074  -0.8937
    -0.8934  -0.8847  -0.8654  -0.8630  -0.8614  -0.8537  -0.7815  -0.7809
    -0.7477  -0.7465  -0.7427  -0.7364  -0.7352  -0.7340  -0.7336  -0.7227
    -0.7200  -0.7041  -0.6792  -0.6658  -0.6466  -0.6457  -0.6341  -0.6335
    -0.6238  -0.6205  -0.6203  -0.6188  -0.6178  -0.6010  -0.5965  -0.5961
    -0.5749  -0.5653  -0.5638  -0.5623  -0.5515  -0.5511  -0.5320  -0.5001
    -0.4998  -0.4907  -0.4902  -0.4228  -0.4224  -0.3856  -0.3851  -0.3273
    -0.3267  -0.3260  -0.3126  -0.2996  -0.0711  -0.0690   0.2737   0.2739
     0.3663   0.3685   0.5601   0.5770   0.5912   0.7212   0.7225   1.1540
     1.1543   1.1716   1.4328   1.4640   1.4643   1.7418   1.7460   1.8196
     1.8202   1.8464   1.8497   2.0757   2.0769   2.1648   2.1656   2.2430
     2.3043   2.3080   2.4676   2.5676   3.0057   3.0072   3.0100   3.0116
     3.0650   3.0658   3.3579   3.3583   3.6385   3.6431   3.7511   4.0539
     4.0943   4.0987   4.3134   4.3360   4.3966   4.3978   4.4892   4.6063
     4.6078   4.7237   4.7257   5.0280   5.0934   5.0980   5.2601   5.2845
     5.4269   5.4826   5.4870   5.5120   5.5127   5.5739   5.5759   5.6329
     5.9505   6.0213   6.1818   6.2362   6.2931   6.3166   6.3189   6.3310
     6.3344   6.5631   6.5741   6.6389   6.7338   6.7931   6.8058   6.8342
     6.8708   7.0751   7.1091

          k = 0.0000 0.2887 0.1111 (136898 PWs)   bands (ev):

   -18.5754  -6.6791  -6.4037  -5.8870  -5.5968  -5.5370  -5.5363  -4.9984
    -4.9979  -4.8675  -4.8658  -4.7110  -4.6826  -4.6186  -4.5871  -4.5843
    -4.5515  -4.5513  -4.4228  -4.3811  -4.3810  -4.3213  -4.3012  -4.2998
    -4.1977  -4.1974  -4.1617  -4.1612  -4.1610  -4.1344  -4.1128  -4.1125
    -4.0089  -4.0056  -4.0054  -3.9849  -3.9683  -3.9677  -3.9563  -3.9552
    -3.9423  -3.9127  -3.9120  -3.9117  -3.9113  -3.8791  -3.8789  -3.8615
    -3.8610  -3.8482  -3.8058  -3.8052  -3.7738  -3.7602  -3.7574  -3.7528
    -3.7527  -3.6786  -3.6783  -3.6436  -3.6424  -3.6402  -3.5732  -3.5727
    -3.5585  -3.5568  -3.5272  -3.5266  -3.5262  -3.5252  -3.3726  -3.3711
    -3.3470  -3.3468  -3.3417  -3.3258  -3.3246  -3.2994  -3.2992  -3.2498
    -3.2488  -3.2335  -3.2324  -3.2125  -3.1647  -3.1643  -3.1452  -3.1402
    -3.1388  -3.1001  -3.0981  -3.0925  -3.0909  -3.0770  -3.0742  -3.0360
    -3.0350  -3.0152  -3.0140  -3.0117  -3.0099  -3.0068  -2.9327  -2.9299
    -2.9296  -2.9030  -2.8988  -2.8391  -2.8381  -2.8130  -2.8081  -2.7975
    -2.7945  -2.7909  -2.7607  -2.7597  -2.7529  -2.7445  -2.7293  -2.7074
    -2.7072  -2.6966  -2.6855  -2.6845  -2.6748  -2.6737  -2.6702  -2.6619
    -2.6614  -2.6161  -2.5844  -2.5840  -2.5663  -2.5538  -2.5484  -2.5458
    -2.5397  -2.5390  -2.5384  -2.5088  -2.5084  -2.5048  -2.4981  -2.4968
    -2.4815  -2.4538  -2.4531  -2.4523  -2.4519  -2.4501  -2.4065  -2.3754
    -2.3743  -2.3734  -2.3673  -2.3588  -2.3472  -2.3457  -2.3289  -2.3289
    -2.2965  -2.2943  -2.2937  -2.2752  -2.2748  -2.2743  -2.2423  -2.2408
    -2.2019  -2.1983  -2.1923  -2.1900  -2.1895  -2.1839  -2.1833  -2.1807
    -2.1799  -2.1737  -2.1730  -2.1574  -2.1566  -2.0308  -2.0299  -1.9965
    -1.9909  -1.9901  -1.9845  -1.9839  -1.9685  -1.9668  -1.9642  -1.9637
    -1.9604  -1.9393  -1.9324  -1.9320  -1.9217  -1.9184  -1.9176  -1.8968
    -1.8955  -1.8681  -1.8671  -1.8368  -1.8358  -1.8250  -1.8166  -1.7987
    -1.7982  -1.7954  -1.7779  -1.7652  -1.7645  -1.7576  -1.7572  -1.7313
    -1.7308  -1.7144  -1.7138  -1.6818  -1.6788  -1.6715  -1.6221  -1.6212
    -1.6077  -1.6068  -1.6049  -1.5818  -1.5786  -1.5465  -1.5450  -1.5444
    -1.5104  -1.5013  -1.5008  -1.4853  -1.4845  -1.4599  -1.4574  -1.4560
    -1.4281  -1.4247  -1.4243  -1.3631  -1.3613  -1.3496  -1.3480  -1.3332
    -1.3320  -1.3193  -1.3189  -1.3008  -1.2883  -1.2608  -1.2603  -1.2486
    -1.2180  -1.2105  -1.2103  -1.1988  -1.1987  -1.1965  -1.1915  -1.1912
    -1.1773  -1.1483  -1.1472  -1.1369  -1.1342  -1.1327  -1.1320  -1.1108
    -1.0915  -1.0899  -1.0704  -1.0689  -0.9774  -0.9643  -0.9588  -0.9584
    -0.9544  -0.9496  -0.9485  -0.9267  -0.9245  -0.9092  -0.9074  -0.8937
    -0.8934  -0.8847  -0.8654  -0.8630  -0.8614  -0.8537  -0.7815  -0.7809
    -0.7477  -0.7465  -0.7427  -0.7364  -0.7352  -0.7340  -0.7336  -0.7227
    -0.7200  -0.7041  -0.6792  -0.6657  -0.6466  -0.6457  -0.6341  -0.6335
    -0.6238  -0.6205  -0.6203  -0.6188  -0.6178  -0.6010  -0.5965  -0.5961
    -0.5749  -0.5653  -0.5638  -0.5623  -0.5515  -0.5511  -0.5320  -0.5001
    -0.4998  -0.4907  -0.4902  -0.4228  -0.4224  -0.3856  -0.3851  -0.3273
    -0.3267  -0.3260  -0.3126  -0.2996  -0.0711  -0.0690   0.2737   0.2739
     0.3663   0.3685   0.5601   0.5770   0.5912   0.7212   0.7225   1.1540
     1.1543   1.1716   1.4328   1.4640   1.4643   1.7418   1.7460   1.8196
     1.8202   1.8464   1.8497   2.0757   2.0769   2.1648   2.1656   2.2430
     2.3043   2.3080   2.4676   2.5676   3.0057   3.0072   3.0100   3.0116
     3.0650   3.0658   3.3579   3.3583   3.6385   3.6431   3.7511   4.0539
     4.0943   4.0987   4.3135   4.3360   4.3966   4.3978   4.4891   4.6064
     4.6078   4.7237   4.7257   5.0280   5.0934   5.0980   5.2600   5.2845
     5.4269   5.4826   5.4870   5.5120   5.5127   5.5739   5.5759   5.6329
     5.9506   6.0214   6.1818   6.2360   6.2929   6.3166   6.3189   6.3310
     6.3344   6.5631   6.5741   6.6384   6.7313   6.7931   6.8055   6.8344
     6.8710   7.0789   7.1116

     the Fermi energy is     1.2976 ev

!    total energy              =   -6604.43306977 Ry
     Harris-Foulkes estimate   =   -6604.43306977 Ry
     estimated scf accuracy    <          5.0E-09 Ry

     The total energy is the sum of the following terms:

     one-electron contribution =  -48610.57484442 Ry
     hartree contribution      =   24802.96326539 Ry
     xc contribution           =   -3204.97196827 Ry
     ewald contribution        =   20408.14757090 Ry
     smearing contrib. (-TS)   =       0.00290663 Ry

     convergence has been achieved in  25 iterations

     Writing output data file 3478140.save

     init_run     :    164.75s CPU    179.80s WALL (       1 calls)
     electrons    :   9860.72s CPU  10546.33s WALL (       1 calls)

     Called by init_run:
     wfcinit      :    123.42s CPU    135.41s WALL (       1 calls)
     potinit      :     12.25s CPU     12.98s WALL (       1 calls)

     Called by electrons:
     c_bands      :   8415.52s CPU   8980.51s WALL (      26 calls)
     sum_band     :   1108.72s CPU   1215.28s WALL (      26 calls)
     v_of_rho     :    107.70s CPU    117.23s WALL (      26 calls)
     newd         :    243.49s CPU    247.09s WALL (      26 calls)
     mix_rho      :      2.95s CPU      3.26s WALL (      26 calls)
     vdW_energy   :      7.64s CPU      8.64s WALL (      26 calls)
     vdW_ffts     :     57.52s CPU     62.05s WALL (      52 calls)
     vdW_v        :     13.80s CPU     14.50s WALL (      26 calls)

     Called by c_bands:
     init_us_2    :     24.39s CPU     24.86s WALL (     636 calls)
     cegterg      :   8274.58s CPU   8837.49s WALL (     312 calls)

     Called by *egterg:
     h_psi        :   3552.92s CPU   4042.60s WALL (    1744 calls)
     s_psi        :    474.86s CPU    478.01s WALL (    1744 calls)
     g_psi        :      6.67s CPU      6.71s WALL (    1420 calls)
     cdiaghg      :   2193.40s CPU   2199.63s WALL (    1720 calls)

     Called by h_psi:
     add_vuspsi   :    477.69s CPU    480.93s WALL (    1744 calls)

     General routines
     calbec       :    865.15s CPU    868.36s WALL (    2056 calls)
     fft          :    167.68s CPU    176.16s WALL (    1716 calls)
     ffts         :      2.02s CPU      2.23s WALL (      52 calls)
     fftw         :   2271.02s CPU   2735.11s WALL (  763166 calls)
     interpolate  :      4.50s CPU      5.15s WALL (      52 calls)
     davcio       :      0.00s CPU      0.23s WALL (      12 calls)

     Parallel routines
     fft_scatter  :   1581.51s CPU   1886.33s WALL (  764934 calls)

     PWSCF        :     2h47m CPU        2h59m WALL


   This run was terminated on:   9:25:30  25Jun2015            

=------------------------------------------------------------------------------=
   JOB DONE.
=------------------------------------------------------------------------------=
