Setting SGE environment for SCC

     Program PWSCF v.5.1.2 starts on 29Jun2015 at 23:26:56 

     This program is part of the open-source Quantum ESPRESSO suite
     for quantum simulation of materials; please cite
         "P. Giannozzi et al., J. Phys.:Condens. Matter 21 395502 (2009);
          URL http://www.quantum-espresso.org", 
     in publications or presentations arising from this work. More details at
     http://www.quantum-espresso.org/quote

     Parallel version (MPI), running on    32 processors
     R & G space division:  proc/nbgrp/npool/nimage =      32
     Reading input from top.H2.Au50.d.1.9.phi.45.psi.0.in
Warning: card &IONS ignored
Warning: card / ignored
Warning: card &CELL ignored
Warning: card / ignored

     Current dimensions of program PWSCF are:
     Max number of different atomic species (ntypx) = 10
     Max number of k-points (npk) =  40000
     Max angular momentum in pseudopotentials (lmaxx) =  3

     IMPORTANT: XC functional enforced from input :
     Exchange-correlation      = VDW-DF ( 1  4  4  0 1 0)
     Any further DFT definition will be discarded
     Please, verify this is what you really want


     Subspace diagonalization in iterative solution of the eigenvalue problem:
     a serial algorithm will be used


     Parallelization info
     --------------------
     sticks:   dense  smooth     PW     G-vecs:    dense   smooth      PW
     Min         445     223     58                96775    34191    4534
     Max         446     224     59                96790    34246    4540
     Sum       14269    7147   1867              3097177  1095093  145167


     Title: 
     top.H2.Au50.d.1.9.phi.45.psi.0                                             


     bravais-lattice index     =            4
     lattice parameter (alat)  =      22.7436  a.u.
     unit-cell volume          =   22924.1508 (a.u.)^3
     number of atoms/cell      =           67
     number of atomic types    =            3
     number of electrons       =       712.00
     number of Kohn-Sham states=          427
     kinetic-energy cutoff     =      50.0000  Ry
     charge density cutoff     =     400.0000  Ry
     convergence threshold     =      1.0E-08
     mixing beta               =       0.7000
     number of iterations used =            8  plain     mixing
     Exchange-correlation      = VDW-DF ( 1  4  4  0 1 0)

     celldm(1)=  22.743643  celldm(2)=   0.000000  celldm(3)=   2.250000
     celldm(4)=   0.000000  celldm(5)=   0.000000  celldm(6)=   0.000000

     crystal axes: (cart. coord. in units of alat)
               a(1) = (   1.000000   0.000000   0.000000 )  
               a(2) = (  -0.500000   0.866025   0.000000 )  
               a(3) = (   0.000000   0.000000   2.250000 )  

     reciprocal axes: (cart. coord. in units 2 pi/alat)
               b(1) = (  1.000000  0.577350 -0.000000 )  
               b(2) = (  0.000000  1.154701  0.000000 )  
               b(3) = (  0.000000 -0.000000  0.444444 )  


     PseudoPot. # 1 for Au read from file:
     /home/scc/andrejb/qe/pseudo/Au.pbe-nd-van.UPF
     MD5 check sum: 458681b50f36d87ef23c61b04bba420a
     Pseudo is Ultrasoft + core correction, Zval = 11.0
     Generated by new atomic code, or converted to UPF format
     Using radial grid of  985 points,  3 beta functions with: 
                l(1) =   1
                l(2) =   2
                l(3) =   2
     Q(r) pseudized with  8 coefficients,  rinner =    1.100   1.100   1.100
                                                       1.100   1.100

     PseudoPot. # 2 for H  read from file:
     /home/scc/andrejb/qe/pseudo/H.pbe-van_ak.UPF
     MD5 check sum: 403db7282739603aa925980fa9b8608d
     Pseudo is Ultrasoft, Zval =  1.0
     Generated by new atomic code, or converted to UPF format
     Using radial grid of  615 points,  1 beta functions with: 
                l(1) =   0
     Q(r) pseudized with  8 coefficients,  rinner =    0.800

     PseudoPot. # 3 for O  read from file:
     /home/scc/andrejb/qe/pseudo/O.pbe-van_ak.UPF
     MD5 check sum: 4b8c549914a63cae506c6ff22b5af4fe
     Pseudo is Ultrasoft, Zval =  6.0
     Generated by new atomic code, or converted to UPF format
     Using radial grid of  737 points,  4 beta functions with: 
                l(1) =   0
                l(2) =   0
                l(3) =   1
                l(4) =   1
     Q(r) pseudized with  8 coefficients,  rinner =    0.800   0.800   0.800


     vdW kernel table read from file vdW_kernel_table
     MD5 check sum: 48e77a2e26edf626eeb0eaa751ad5cac

     atomic species   valence    mass     pseudopotential
        Au            11.00   196.96657     Au( 1.00)
        H              1.00     1.01000     H ( 1.00)
        O              6.00    16.00000     O ( 1.00)

     No symmetry found



   Cartesian axes

     site n.     atom                  positions (alat units)
         1           O   tau(   1) = (   0.4812593   0.4207388   0.8481392  )
         2           H   tau(   2) = (   0.4790780   0.3968269   0.7708642  )
         3           H   tau(   3) = (   0.4749979   0.3522601   0.8907678  )
         4           Au  tau(   4) = (   0.3540481   0.6132292   0.0000000  )
         5           Au  tau(   5) = (   0.4790062   0.3967954   0.0000000  )
         6           Au  tau(   6) = (   0.6039644   0.1803616   0.0000000  )
         7           Au  tau(   7) = (   0.7289225  -0.0360723   0.0000000  )
         8           Au  tau(   8) = (   0.1041318   0.6132292   0.0000000  )
         9           Au  tau(   9) = (   0.2290899   0.3967954   0.0000000  )
        10           Au  tau(  10) = (   0.3540481   0.1803616   0.0000000  )
        11           Au  tau(  11) = (   0.4790062  -0.0360723   0.0000000  )
        12           Au  tau(  12) = (  -0.1457845   0.6132292   0.0000000  )
        13           Au  tau(  13) = (  -0.0208264   0.3967954   0.0000000  )
        14           Au  tau(  14) = (   0.1041318   0.1803616   0.0000000  )
        15           Au  tau(  15) = (   0.2290899  -0.0360723   0.0000000  )
        16           Au  tau(  16) = (  -0.3957008   0.6132292   0.0000000  )
        17           Au  tau(  17) = (  -0.2707426   0.3967954   0.0000000  )
        18           Au  tau(  18) = (  -0.1457845   0.1803616   0.0000000  )
        19           Au  tau(  19) = (  -0.0208264  -0.0360723   0.0000000  )
        20           Au  tau(  20) = (   0.4790062   0.6853738   0.2040557  )
        21           Au  tau(  21) = (   0.6039644   0.4689400   0.2040557  )
        22           Au  tau(  22) = (   0.7289225   0.2525062   0.2040557  )
        23           Au  tau(  23) = (   0.8538806   0.0360723   0.2040557  )
        24           Au  tau(  24) = (   0.2290899   0.6853738   0.2040557  )
        25           Au  tau(  25) = (   0.3540481   0.4689400   0.2040557  )
        26           Au  tau(  26) = (   0.4790062   0.2525062   0.2040557  )
        27           Au  tau(  27) = (   0.6039644   0.0360723   0.2040557  )
        28           Au  tau(  28) = (  -0.0208264   0.6853738   0.2040557  )
        29           Au  tau(  29) = (   0.1041318   0.4689400   0.2040557  )
        30           Au  tau(  30) = (   0.2290899   0.2525062   0.2040557  )
        31           Au  tau(  31) = (   0.3540481   0.0360723   0.2040557  )
        32           Au  tau(  32) = (  -0.2707426   0.6853738   0.2040557  )
        33           Au  tau(  33) = (  -0.1457845   0.4689400   0.2040557  )
        34           Au  tau(  34) = (  -0.0208264   0.2525062   0.2040557  )
        35           Au  tau(  35) = (   0.1041318   0.0360723   0.2040557  )
        36           Au  tau(  36) = (   0.3541162   0.7576593   0.4066483  )
        37           Au  tau(  37) = (   0.4791000   0.5411421   0.4066696  )
        38           Au  tau(  38) = (   0.6040570   0.3246862   0.4066618  )
        39           Au  tau(  39) = (   0.7290270   0.1081684   0.4066530  )
        40           Au  tau(  40) = (   0.1041162   0.7576236   0.4066247  )
        41           Au  tau(  41) = (   0.2291001   0.5411062   0.4066455  )
        42           Au  tau(  42) = (   0.3540567   0.3246505   0.4066380  )
        43           Au  tau(  43) = (   0.4790276   0.1081324   0.4066292  )
        44           Au  tau(  44) = (  -0.1458201   0.7576104   0.4066225  )
        45           Au  tau(  45) = (  -0.0208365   0.5410930   0.4066438  )
        46           Au  tau(  46) = (   0.1041202   0.3246372   0.4066359  )
        47           Au  tau(  47) = (   0.2290908   0.1081193   0.4066273  )
        48           Au  tau(  48) = (  -0.3958167   0.7575791   0.4065812  )
        49           Au  tau(  49) = (  -0.2708328   0.5410617   0.4066025  )
        50           Au  tau(  50) = (  -0.1458763   0.3246061   0.4065947  )
        51           Au  tau(  51) = (  -0.0209056   0.1080882   0.4065858  )
        52           Au  tau(  52) = (   0.3541084   0.6133344   0.6129762  )
        53           Au  tau(  53) = (   0.4790780   0.3968269   0.6129968  )
        54           Au  tau(  54) = (   0.6040356   0.1803811   0.6129859  )
        55           Au  tau(  55) = (   0.7290165  -0.0361221   0.6129385  )
        56           Au  tau(  56) = (   0.1041243   0.6133091   0.6130023  )
        57           Au  tau(  57) = (   0.2290941   0.3968013   0.6130241  )
        58           Au  tau(  58) = (   0.3540515   0.1803552   0.6130121  )
        59           Au  tau(  59) = (   0.4790323  -0.0361475   0.6129659  )
        60           Au  tau(  60) = (  -0.1458030   0.6133014   0.6129980  )
        61           Au  tau(  61) = (  -0.0208339   0.3967936   0.6130189  )
        62           Au  tau(  62) = (   0.1041239   0.1803477   0.6130083  )
        63           Au  tau(  63) = (   0.2291046  -0.0361554   0.6129607  )
        64           Au  tau(  64) = (  -0.3957908   0.6132739   0.6129471  )
        65           Au  tau(  65) = (  -0.2708208   0.3967658   0.6129688  )
        66           Au  tau(  66) = (  -0.1458636   0.1803200   0.6129569  )
        67           Au  tau(  67) = (  -0.0208823  -0.0361826   0.6129110  )

     number of k points=    12  Marzari-Vanderbilt smearing, width (Ry)=  0.0200
                       cart. coord. in units 2pi/alat
        k(    1) = (   0.2500000   0.4330127   0.1111111), wk =   0.1666667
        k(    2) = (   0.2500000  -0.1443376   0.1111111), wk =   0.1666667
        k(    3) = (  -0.2500000  -0.4330127   0.1111111), wk =   0.1666667
        k(    4) = (  -0.2500000   0.4330127  -0.1111111), wk =   0.1666667
        k(    5) = (   0.2500000  -0.4330127  -0.1111111), wk =   0.1666667
        k(    6) = (   0.5000000   0.0000000   0.1111111), wk =   0.1666667
        k(    7) = (  -0.5000000   0.0000000   0.1111111), wk =   0.1666667
        k(    8) = (  -0.2500000   0.1443376   0.1111111), wk =   0.1666667
        k(    9) = (  -0.2500000  -0.1443376  -0.1111111), wk =   0.1666667
        k(   10) = (   0.2500000   0.1443376  -0.1111111), wk =   0.1666667
        k(   11) = (   0.0000000  -0.2886751   0.1111111), wk =   0.1666667
        k(   12) = (   0.0000000   0.2886751   0.1111111), wk =   0.1666667

     Dense  grid:  3097177 G-vectors     FFT dimensions: ( 150, 150, 360)

     Smooth grid:  1095093 G-vectors     FFT dimensions: ( 108, 108, 240)

     Largest allocated arrays     est. size (Mb)     dimensions
        Kohn-Sham Wavefunctions        28.01 Mb     (    4299,  427)
        NL pseudopotentials            55.23 Mb     (    4299,  842)
        Each V/rho on FFT grid          4.12 Mb     (  270000)
        Each G-vector array             0.74 Mb     (   96788)
        G-vector shells                 0.16 Mb     (   21404)
     Largest temporary arrays     est. size (Mb)     dimensions
        Auxiliary wavefunctions       112.04 Mb     (    4299, 1708)
        Each subspace H/S matrix       44.51 Mb     (    1708, 1708)
        Each <psi_i|beta_j> matrix      5.49 Mb     (     842,  427)
        Arrays for rho mixing          32.96 Mb     (  270000,    8)

     Initial potential from superposition of free atoms
     Check: negative starting charge=   -1.730225

     starting charge  711.25682, renormalised to  712.00000

     negative rho (up, down):  1.732E+00 0.000E+00


     ************************************************************************
     *
     * You are using vdW-DF for exchange-correlation in this calculation.
     * Please cite the following three references that made this development
     * possible:
     *
     *   M. Dion, H. Rydberg, E. Schroder, D. C. Langreth, and
     *   B. I. Lundqvist, Phys. Rev. Lett. 92, 246401 (2004).
     *
     *   T. Thonhauser, V. R. Cooper, S. Li, A. Puzder, P. Hyldgaard, and
     *   D. C. Langreth, Phys. Rev. B 76, 125112 (2007).
     *
     *   G. Roman-Perez and J. M. Soler, Phys. Rev. Lett. 103, 096102 (2009).
     *
     *
     * If you are using vdW-DF2, please also cite:
     *
     *   K. Lee, E. D. Murray, L. Kong, B. I. Lundqvist, and
     *   D. C. Langreth, Phys. Rev. B 82, 081101(R) (2010).
     *
     *
     * If you are calculating the stress with vdW-DF, please also cite:
     *
     *   R. Sabatini, E. Kucukbenli, B. Kolb, T. Thonhauser, and
     *   S. de Gironcoli, J. Phys.: Condens. Matter 24, 424209 (2012).
     *
     ************************************************************************

     Carrying out vdW-DF run using the following parameters:

     Nqs =      20    Nr_points =    1024   r_max =   100.000
     q_mesh =
               0.00001000     0.04494208     0.09755937     0.15916263
               0.23128650     0.31572767     0.41458969     0.53033537
               0.66584808     0.82450364     1.01025438     1.22772762
               1.48234092     1.78043706     2.12944203     2.53805004
               3.01644009     3.57652955     4.23227104     5.00000000

     Gradients computed in reciprocal space

     ************************************************************************


     Starting wfc are  582 randomized atomic wfcs

     total cpu time spent up to now is      188.1 secs

     Self-consistent Calculation

     iteration #  1     ecut=    50.00 Ry     beta=0.70
     Davidson diagonalization with overlap
     ethr =  1.00E-02,  avg # of iterations =  3.0

     Threshold (ethr) on eigenvalues was too large:
     Diagonalizing with lowered threshold

     Davidson diagonalization with overlap
     ethr =  3.35E-04,  avg # of iterations =  4.0

     negative rho (up, down):  1.727E+00 0.000E+00

     total cpu time spent up to now is      821.5 secs

     total energy              =   -6602.82282014 Ry
     Harris-Foulkes estimate   =   -6604.99914138 Ry
     estimated scf accuracy    <       2.72971338 Ry

     iteration #  2     ecut=    50.00 Ry     beta=0.70
     Davidson diagonalization with overlap
     ethr =  3.83E-04,  avg # of iterations = 11.3

     negative rho (up, down):  1.727E+00 0.000E+00

     total cpu time spent up to now is     1819.3 secs

     total energy              =   -6597.35661416 Ry
     Harris-Foulkes estimate   =   -6609.74579028 Ry
     estimated scf accuracy    <      66.84200723 Ry

     iteration #  3     ecut=    50.00 Ry     beta=0.70
     Davidson diagonalization with overlap
     ethr =  3.83E-04,  avg # of iterations =  6.1

     negative rho (up, down):  1.737E+00 0.000E+00

     total cpu time spent up to now is     2488.1 secs

     total energy              =   -6603.22452982 Ry
     Harris-Foulkes estimate   =   -6604.98987058 Ry
     estimated scf accuracy    <       7.84393336 Ry

     iteration #  4     ecut=    50.00 Ry     beta=0.70
     Davidson diagonalization with overlap
     ethr =  3.83E-04,  avg # of iterations =  6.8

     negative rho (up, down):  1.740E+00 0.000E+00

     total cpu time spent up to now is     2867.2 secs

     total energy              =   -6603.98864914 Ry
     Harris-Foulkes estimate   =   -6604.71486338 Ry
     estimated scf accuracy    <       3.92364979 Ry

     iteration #  5     ecut=    50.00 Ry     beta=0.70
     Davidson diagonalization with overlap
     ethr =  3.83E-04,  avg # of iterations =  5.3

     negative rho (up, down):  1.747E+00 0.000E+00

     total cpu time spent up to now is     3238.7 secs

     total energy              =   -6604.06466043 Ry
     Harris-Foulkes estimate   =   -6604.79510978 Ry
     estimated scf accuracy    <       7.36889181 Ry

     iteration #  6     ecut=    50.00 Ry     beta=0.70
     Davidson diagonalization with overlap
     ethr =  3.83E-04,  avg # of iterations =  3.0

     negative rho (up, down):  1.752E+00 0.000E+00

     total cpu time spent up to now is     3545.0 secs

     total energy              =   -6604.39504513 Ry
     Harris-Foulkes estimate   =   -6604.44829818 Ry
     estimated scf accuracy    <       0.18889484 Ry

     iteration #  7     ecut=    50.00 Ry     beta=0.70
     Davidson diagonalization with overlap
     ethr =  2.65E-05,  avg # of iterations =  6.4

     negative rho (up, down):  1.754E+00 0.000E+00

     total cpu time spent up to now is     3940.3 secs

     total energy              =   -6604.40505547 Ry
     Harris-Foulkes estimate   =   -6604.43405006 Ry
     estimated scf accuracy    <       0.13407786 Ry

     iteration #  8     ecut=    50.00 Ry     beta=0.70
     Davidson diagonalization with overlap
     ethr =  1.88E-05,  avg # of iterations =  3.7

     negative rho (up, down):  1.755E+00 0.000E+00

     total cpu time spent up to now is     4233.8 secs

     total energy              =   -6604.40831081 Ry
     Harris-Foulkes estimate   =   -6604.42209436 Ry
     estimated scf accuracy    <       0.05757844 Ry

     iteration #  9     ecut=    50.00 Ry     beta=0.70
     Davidson diagonalization with overlap
     ethr =  8.09E-06,  avg # of iterations =  8.7

     negative rho (up, down):  1.756E+00 0.000E+00

     total cpu time spent up to now is     4641.2 secs

     total energy              =   -6604.40793312 Ry
     Harris-Foulkes estimate   =   -6604.41453208 Ry
     estimated scf accuracy    <       0.02458852 Ry

     iteration # 10     ecut=    50.00 Ry     beta=0.70
     Davidson diagonalization with overlap
     ethr =  3.45E-06,  avg # of iterations =  5.8

     negative rho (up, down):  1.757E+00 0.000E+00

     total cpu time spent up to now is     5013.0 secs

     total energy              =   -6604.40751282 Ry
     Harris-Foulkes estimate   =   -6604.41040226 Ry
     estimated scf accuracy    <       0.00963661 Ry

     iteration # 11     ecut=    50.00 Ry     beta=0.70
     Davidson diagonalization with overlap
     ethr =  1.35E-06,  avg # of iterations =  7.3

     negative rho (up, down):  1.757E+00 0.000E+00

     total cpu time spent up to now is     5397.1 secs

     total energy              =   -6604.40740114 Ry
     Harris-Foulkes estimate   =   -6604.40873362 Ry
     estimated scf accuracy    <       0.00480879 Ry

     iteration # 12     ecut=    50.00 Ry     beta=0.70
     Davidson diagonalization with overlap
     ethr =  6.75E-07,  avg # of iterations =  2.3

     negative rho (up, down):  1.758E+00 0.000E+00

     total cpu time spent up to now is     5731.8 secs

     total energy              =   -6604.40731963 Ry
     Harris-Foulkes estimate   =   -6604.40790427 Ry
     estimated scf accuracy    <       0.00102960 Ry

     iteration # 13     ecut=    50.00 Ry     beta=0.70
     Davidson diagonalization with overlap
     ethr =  1.45E-07,  avg # of iterations =  9.0

     negative rho (up, down):  1.758E+00 0.000E+00

     total cpu time spent up to now is     6188.6 secs

     total energy              =   -6604.40747801 Ry
     Harris-Foulkes estimate   =   -6604.40765954 Ry
     estimated scf accuracy    <       0.00057874 Ry

     iteration # 14     ecut=    50.00 Ry     beta=0.70
     Davidson diagonalization with overlap
     ethr =  8.13E-08,  avg # of iterations =  2.0

     negative rho (up, down):  1.757E+00 0.000E+00

     total cpu time spent up to now is     6480.5 secs

     total energy              =   -6604.40754949 Ry
     Harris-Foulkes estimate   =   -6604.40760644 Ry
     estimated scf accuracy    <       0.00020064 Ry

     iteration # 15     ecut=    50.00 Ry     beta=0.70
     Davidson diagonalization with overlap
     ethr =  2.82E-08,  avg # of iterations =  2.0

     negative rho (up, down):  1.757E+00 0.000E+00

     total cpu time spent up to now is     6778.3 secs

     total energy              =   -6604.40754136 Ry
     Harris-Foulkes estimate   =   -6604.40761492 Ry
     estimated scf accuracy    <       0.00042065 Ry

     iteration # 16     ecut=    50.00 Ry     beta=0.70
     Davidson diagonalization with overlap
     ethr =  2.82E-08,  avg # of iterations =  2.0

     negative rho (up, down):  1.757E+00 0.000E+00

     total cpu time spent up to now is     7092.7 secs

     total energy              =   -6604.40755567 Ry
     Harris-Foulkes estimate   =   -6604.40761219 Ry
     estimated scf accuracy    <       0.00058212 Ry

     iteration # 17     ecut=    50.00 Ry     beta=0.70
     Davidson diagonalization with overlap
     ethr =  2.82E-08,  avg # of iterations =  1.0

     negative rho (up, down):  1.757E+00 0.000E+00

     total cpu time spent up to now is     7359.4 secs

     total energy              =   -6604.40758420 Ry
     Harris-Foulkes estimate   =   -6604.40758520 Ry
     estimated scf accuracy    <       0.00000372 Ry

     iteration # 18     ecut=    50.00 Ry     beta=0.70
     Davidson diagonalization with overlap
     ethr =  5.22E-10,  avg # of iterations =  3.0

     negative rho (up, down):  1.757E+00 0.000E+00

     total cpu time spent up to now is     7757.5 secs

     total energy              =   -6604.40758456 Ry
     Harris-Foulkes estimate   =   -6604.40758563 Ry
     estimated scf accuracy    <       0.00000304 Ry

     iteration # 19     ecut=    50.00 Ry     beta=0.70
     Davidson diagonalization with overlap
     ethr =  4.27E-10,  avg # of iterations =  2.0

     negative rho (up, down):  1.757E+00 0.000E+00

     total cpu time spent up to now is     8055.4 secs

     total energy              =   -6604.40758491 Ry
     Harris-Foulkes estimate   =   -6604.40758545 Ry
     estimated scf accuracy    <       0.00000237 Ry

     iteration # 20     ecut=    50.00 Ry     beta=0.70
     Davidson diagonalization with overlap
     ethr =  3.33E-10,  avg # of iterations =  2.0

     negative rho (up, down):  1.757E+00 0.000E+00

     total cpu time spent up to now is     8326.4 secs

     total energy              =   -6604.40758523 Ry
     Harris-Foulkes estimate   =   -6604.40758524 Ry
     estimated scf accuracy    <       0.00000016 Ry

     iteration # 21     ecut=    50.00 Ry     beta=0.70
     Davidson diagonalization with overlap
     ethr =  2.22E-11,  avg # of iterations =  3.0

     negative rho (up, down):  1.757E+00 0.000E+00

     total cpu time spent up to now is     8675.2 secs

     total energy              =   -6604.40758525 Ry
     Harris-Foulkes estimate   =   -6604.40758530 Ry
     estimated scf accuracy    <       0.00000023 Ry

     iteration # 22     ecut=    50.00 Ry     beta=0.70
     Davidson diagonalization with overlap
     ethr =  2.22E-11,  avg # of iterations =  2.0

     negative rho (up, down):  1.757E+00 0.000E+00

     total cpu time spent up to now is     8932.7 secs

     total energy              =   -6604.40758528 Ry
     Harris-Foulkes estimate   =   -6604.40758529 Ry
     estimated scf accuracy    <       0.00000003 Ry

     iteration # 23     ecut=    50.00 Ry     beta=0.70
     Davidson diagonalization with overlap
     ethr =  3.88E-12,  avg # of iterations =  3.0

     negative rho (up, down):  1.757E+00 0.000E+00

     total cpu time spent up to now is     9238.1 secs

     End of self-consistent calculation

          k = 0.2500 0.4330 0.1111 (136853 PWs)   bands (ev):

   -18.6619  -6.8680  -6.3811  -5.9851  -5.9835  -5.3064  -4.9750  -4.9745
    -4.9354  -4.9339  -4.5755  -4.5740  -4.4764  -4.4760  -4.4621  -4.4387
    -4.4201  -4.3108  -4.3070  -4.2843  -4.2416  -4.2408  -4.1739  -4.1718
    -4.1659  -4.1648  -4.1441  -4.1398  -4.1365  -4.0734  -4.0641  -4.0372
    -4.0346  -4.0242  -4.0230  -4.0011  -3.9999  -3.9775  -3.9701  -3.9691
    -3.9433  -3.8911  -3.8904  -3.8435  -3.8407  -3.7867  -3.7844  -3.7318
    -3.7288  -3.7281  -3.7271  -3.6927  -3.6593  -3.6561  -3.6478  -3.6464
    -3.6444  -3.6206  -3.6146  -3.6066  -3.5486  -3.5468  -3.5398  -3.5189
    -3.5116  -3.4407  -3.4383  -3.4118  -3.4050  -3.3826  -3.3778  -3.3631
    -3.3497  -3.2931  -3.2896  -3.2747  -3.2694  -3.2322  -3.2236  -3.2162
    -3.1754  -3.1574  -3.1485  -3.1423  -3.1345  -3.1304  -3.1258  -3.1142
    -3.1135  -3.1055  -3.0675  -3.0389  -3.0230  -3.0148  -3.0104  -2.9903
    -2.9816  -2.9748  -2.9706  -2.9233  -2.9067  -2.9041  -2.8843  -2.8602
    -2.8468  -2.8407  -2.8332  -2.8147  -2.8042  -2.7802  -2.7474  -2.7414
    -2.7251  -2.7142  -2.7020  -2.6988  -2.6531  -2.6487  -2.6180  -2.5964
    -2.5934  -2.5747  -2.5681  -2.5611  -2.5563  -2.5488  -2.5295  -2.5270
    -2.4815  -2.4804  -2.4790  -2.4657  -2.4632  -2.4557  -2.4537  -2.4490
    -2.4456  -2.4429  -2.4384  -2.4327  -2.4271  -2.4172  -2.4013  -2.3923
    -2.3878  -2.3856  -2.3845  -2.3823  -2.3791  -2.3584  -2.3550  -2.3428
    -2.3379  -2.3204  -2.3187  -2.3138  -2.3092  -2.3079  -2.3062  -2.2945
    -2.2865  -2.2856  -2.2816  -2.2690  -2.2442  -2.2401  -2.2018  -2.2012
    -2.1811  -2.1779  -2.1518  -2.1476  -2.1257  -2.1211  -2.1081  -2.1004
    -2.0740  -2.0621  -2.0540  -2.0453  -2.0421  -2.0386  -2.0332  -2.0319
    -2.0050  -2.0014  -1.9950  -1.9391  -1.9358  -1.9291  -1.9260  -1.9233
    -1.8961  -1.8722  -1.8700  -1.8462  -1.8408  -1.7872  -1.7836  -1.7541
    -1.7359  -1.7327  -1.6831  -1.6746  -1.6693  -1.6612  -1.6537  -1.6514
    -1.6462  -1.6427  -1.6357  -1.5959  -1.5802  -1.5742  -1.5681  -1.5676
    -1.5553  -1.5483  -1.5188  -1.5140  -1.5023  -1.4985  -1.4958  -1.4889
    -1.4830  -1.4802  -1.4726  -1.4569  -1.4531  -1.4247  -1.4102  -1.4075
    -1.4016  -1.3848  -1.3666  -1.3320  -1.3245  -1.3006  -1.2964  -1.2936
    -1.2676  -1.2274  -1.2136  -1.2104  -1.2078  -1.2056  -1.2032  -1.1950
    -1.1810  -1.1759  -1.1444  -1.1338  -1.1135  -1.1076  -1.1019  -1.0974
    -1.0932  -1.0837  -1.0751  -1.0737  -1.0705  -1.0683  -1.0364  -1.0325
    -1.0305  -1.0285  -1.0073  -0.9999  -0.9954  -0.9705  -0.9686  -0.9620
    -0.9229  -0.9131  -0.9085  -0.8769  -0.8705  -0.8605  -0.8551  -0.8508
    -0.8491  -0.8475  -0.8438  -0.8345  -0.8319  -0.8107  -0.8088  -0.8058
    -0.8035  -0.8000  -0.7710  -0.7658  -0.7648  -0.7514  -0.7379  -0.7328
    -0.7293  -0.7189  -0.6699  -0.6660  -0.6610  -0.6544  -0.6521  -0.6507
    -0.6465  -0.6298  -0.6267  -0.6230  -0.6162  -0.6152  -0.6138  -0.5848
    -0.5755  -0.5725  -0.5675  -0.5639  -0.5619  -0.5569  -0.5503  -0.5417
    -0.5392  -0.5377  -0.5296  -0.4974  -0.4941  -0.4877  -0.4828  -0.4813
    -0.4104  -0.4036  -0.4032  -0.4016  -0.3937  -0.3916  -0.3574  -0.3461
    -0.3434  -0.3123  -0.3098  -0.3052  -0.1937  -0.1860  -0.0884   0.3252
     0.3268   0.3322   0.3327   0.3957   0.3989   0.7802   0.7811   0.8229
     0.8245   0.9421   1.0148   1.1240   1.1291   1.3511   1.3563   1.9769
     1.9817   2.1388   2.1438   2.2742   2.2792   2.3765   2.3772   2.5308
     2.7689   2.7891   2.8935   3.1153   3.1223   3.1975   3.2004   3.3002
     3.3159   3.5235   3.5343   3.5705   3.7708   3.7756   3.8305   3.8417
     4.0881   4.0989   4.1057   4.3403   4.3806   4.3861   4.4290   4.7582
     4.7685   4.7952   4.9254   5.1038   5.1061   5.1717   5.1920   5.5592
     5.8289   5.8755   5.8938   5.9016   5.9274   5.9602   5.9683   6.0597
     6.0797   6.0992   6.1286   6.1358   6.1491   6.1641   6.1793   6.1882
     6.1946   6.4640   6.5911   6.7331   6.7620   6.7928   6.8325   6.8403
     6.8524   6.9608   7.0247

          k = 0.2500-0.1443 0.1111 (136898 PWs)   bands (ev):

   -18.6619  -6.8712  -6.5870  -5.8021  -5.5095  -5.4530  -5.4519  -4.9149
    -4.9147  -4.7829  -4.7823  -4.6275  -4.6010  -4.5355  -4.5027  -4.5006
    -4.4685  -4.4681  -4.3400  -4.2986  -4.2979  -4.2388  -4.2179  -4.2170
    -4.1153  -4.1146  -4.0797  -4.0782  -4.0778  -4.0520  -4.0301  -4.0296
    -3.9283  -3.9237  -3.9226  -3.9031  -3.8868  -3.8848  -3.8741  -3.8725
    -3.8613  -3.8307  -3.8300  -3.8290  -3.8280  -3.7985  -3.7967  -3.7802
    -3.7780  -3.7693  -3.7289  -3.7239  -3.6911  -3.6791  -3.6754  -3.6698
    -3.6694  -3.5967  -3.5955  -3.5638  -3.5602  -3.5576  -3.4919  -3.4894
    -3.4800  -3.4737  -3.4490  -3.4466  -3.4446  -3.4433  -3.3044  -3.2877
    -3.2762  -3.2682  -3.2621  -3.2448  -3.2424  -3.2198  -3.2179  -3.1727
    -3.1665  -3.1560  -3.1499  -3.1326  -3.1022  -3.0852  -3.0697  -3.0628
    -3.0566  -3.0346  -3.0171  -3.0110  -3.0075  -3.0014  -2.9914  -2.9706
    -2.9541  -2.9489  -2.9338  -2.9298  -2.9276  -2.9234  -2.8921  -2.8510
    -2.8484  -2.8399  -2.8157  -2.8039  -2.7565  -2.7526  -2.7268  -2.7221
    -2.7132  -2.7094  -2.7032  -2.6785  -2.6767  -2.6661  -2.6498  -2.6303
    -2.6266  -2.6181  -2.6051  -2.6031  -2.5971  -2.5920  -2.5879  -2.5845
    -2.5783  -2.5332  -2.5041  -2.5008  -2.4857  -2.4726  -2.4689  -2.4640
    -2.4579  -2.4568  -2.4551  -2.4287  -2.4273  -2.4220  -2.4158  -2.4121
    -2.4012  -2.3735  -2.3729  -2.3710  -2.3697  -2.3668  -2.3238  -2.2969
    -2.2931  -2.2911  -2.2856  -2.2761  -2.2686  -2.2636  -2.2467  -2.2465
    -2.2193  -2.2137  -2.2123  -2.1971  -2.1941  -2.1932  -2.1667  -2.1598
    -2.1247  -2.1152  -2.1140  -2.1116  -2.1092  -2.1048  -2.1026  -2.0991
    -2.0973  -2.0937  -2.0894  -2.0763  -2.0737  -1.9555  -1.9497  -1.9255
    -1.9116  -1.9076  -1.9019  -1.9015  -1.8900  -1.8880  -1.8823  -1.8804
    -1.8768  -1.8593  -1.8539  -1.8514  -1.8408  -1.8364  -1.8346  -1.8161
    -1.8132  -1.7867  -1.7856  -1.7605  -1.7573  -1.7459  -1.7363  -1.7178
    -1.7168  -1.7133  -1.6975  -1.6844  -1.6833  -1.6757  -1.6748  -1.6529
    -1.6507  -1.6363  -1.6309  -1.6011  -1.5976  -1.5915  -1.5469  -1.5388
    -1.5276  -1.5242  -1.5213  -1.4992  -1.4962  -1.4676  -1.4653  -1.4626
    -1.4337  -1.4219  -1.4203  -1.4039  -1.4020  -1.3832  -1.3785  -1.3723
    -1.3498  -1.3439  -1.3420  -1.2856  -1.2804  -1.2726  -1.2658  -1.2581
    -1.2506  -1.2388  -1.2376  -1.2200  -1.2064  -1.1841  -1.1771  -1.1671
    -1.1412  -1.1296  -1.1279  -1.1195  -1.1167  -1.1142  -1.1111  -1.1094
    -1.0944  -1.0740  -1.0664  -1.0537  -1.0524  -1.0504  -1.0476  -1.0313
    -1.0101  -1.0070  -0.9909  -0.9859  -0.9015  -0.8867  -0.8799  -0.8780
    -0.8755  -0.8695  -0.8657  -0.8501  -0.8458  -0.8313  -0.8252  -0.8138
    -0.8124  -0.8070  -0.7860  -0.7843  -0.7786  -0.7719  -0.7052  -0.6975
    -0.6768  -0.6652  -0.6611  -0.6598  -0.6522  -0.6507  -0.6503  -0.6401
    -0.6376  -0.6241  -0.5967  -0.5958  -0.5708  -0.5637  -0.5563  -0.5537
    -0.5510  -0.5415  -0.5391  -0.5370  -0.5344  -0.5243  -0.5184  -0.5139
    -0.5130  -0.4841  -0.4836  -0.4798  -0.4685  -0.4678  -0.4493  -0.4183
    -0.4175  -0.4082  -0.4070  -0.3418  -0.3390  -0.3059  -0.3035  -0.2491
    -0.2465  -0.2426  -0.2240  -0.2208   0.0136   0.0155   0.3557   0.3562
     0.4510   0.4541   0.6460   0.6682   0.6742   0.8031   0.8055   1.2356
     1.2372   1.2549   1.5195   1.5460   1.5470   1.8276   1.8316   1.9000
     1.9032   1.9296   1.9338   2.1580   2.1589   2.2471   2.2486   2.3353
     2.3881   2.3945   2.5517   2.6518   3.0827   3.0909   3.0932   3.0945
     3.1473   3.1488   3.4396   3.4412   3.7193   3.7270   3.8424   4.1371
     4.1709   4.1821   4.4082   4.4278   4.4754   4.4807   4.5703   4.6836
     4.6935   4.8038   4.8085   5.1066   5.1690   5.1833   5.3431   5.3758
     5.4620   5.5610   5.5701   5.5926   5.5970   5.6498   5.6603   5.7170
     5.8985   6.0654   6.2572   6.2910   6.3677   6.3959   6.4019   6.4073
     6.4174   6.5599   6.6519   6.6562   6.6744   6.8537   6.8933   6.9164
     6.9482   7.0352   7.1169

          k =-0.2500-0.4330 0.1111 (136853 PWs)   bands (ev):

   -18.6619  -6.8680  -6.3811  -5.9851  -5.9835  -5.3064  -4.9750  -4.9745
    -4.9354  -4.9339  -4.5755  -4.5740  -4.4764  -4.4760  -4.4621  -4.4387
    -4.4201  -4.3108  -4.3070  -4.2843  -4.2416  -4.2408  -4.1739  -4.1718
    -4.1659  -4.1648  -4.1441  -4.1398  -4.1365  -4.0734  -4.0641  -4.0372
    -4.0346  -4.0242  -4.0230  -4.0011  -3.9999  -3.9775  -3.9701  -3.9691
    -3.9433  -3.8911  -3.8904  -3.8435  -3.8407  -3.7867  -3.7844  -3.7318
    -3.7288  -3.7281  -3.7271  -3.6927  -3.6593  -3.6561  -3.6478  -3.6464
    -3.6444  -3.6206  -3.6146  -3.6066  -3.5486  -3.5468  -3.5398  -3.5189
    -3.5116  -3.4406  -3.4383  -3.4118  -3.4050  -3.3826  -3.3778  -3.3631
    -3.3497  -3.2931  -3.2896  -3.2747  -3.2694  -3.2322  -3.2236  -3.2162
    -3.1754  -3.1574  -3.1485  -3.1423  -3.1345  -3.1304  -3.1258  -3.1142
    -3.1135  -3.1055  -3.0675  -3.0389  -3.0230  -3.0148  -3.0104  -2.9903
    -2.9816  -2.9748  -2.9706  -2.9233  -2.9067  -2.9041  -2.8843  -2.8602
    -2.8468  -2.8407  -2.8332  -2.8146  -2.8042  -2.7802  -2.7474  -2.7414
    -2.7251  -2.7142  -2.7020  -2.6988  -2.6531  -2.6487  -2.6180  -2.5964
    -2.5934  -2.5747  -2.5681  -2.5611  -2.5563  -2.5488  -2.5295  -2.5270
    -2.4815  -2.4804  -2.4790  -2.4657  -2.4632  -2.4557  -2.4537  -2.4490
    -2.4456  -2.4429  -2.4384  -2.4327  -2.4271  -2.4172  -2.4013  -2.3923
    -2.3878  -2.3856  -2.3845  -2.3823  -2.3791  -2.3584  -2.3550  -2.3428
    -2.3379  -2.3204  -2.3187  -2.3138  -2.3092  -2.3079  -2.3062  -2.2945
    -2.2865  -2.2856  -2.2816  -2.2690  -2.2442  -2.2401  -2.2018  -2.2012
    -2.1811  -2.1779  -2.1518  -2.1476  -2.1257  -2.1211  -2.1081  -2.1004
    -2.0740  -2.0621  -2.0540  -2.0453  -2.0421  -2.0386  -2.0332  -2.0319
    -2.0050  -2.0015  -1.9950  -1.9391  -1.9358  -1.9291  -1.9260  -1.9233
    -1.8961  -1.8722  -1.8700  -1.8462  -1.8409  -1.7872  -1.7836  -1.7541
    -1.7359  -1.7327  -1.6831  -1.6746  -1.6693  -1.6612  -1.6537  -1.6514
    -1.6462  -1.6427  -1.6357  -1.5959  -1.5802  -1.5742  -1.5681  -1.5676
    -1.5553  -1.5483  -1.5188  -1.5140  -1.5023  -1.4985  -1.4958  -1.4889
    -1.4830  -1.4802  -1.4726  -1.4569  -1.4531  -1.4247  -1.4102  -1.4074
    -1.4016  -1.3848  -1.3666  -1.3320  -1.3245  -1.3006  -1.2964  -1.2936
    -1.2676  -1.2274  -1.2136  -1.2104  -1.2078  -1.2056  -1.2032  -1.1950
    -1.1810  -1.1759  -1.1444  -1.1338  -1.1135  -1.1076  -1.1019  -1.0974
    -1.0932  -1.0837  -1.0751  -1.0737  -1.0705  -1.0683  -1.0364  -1.0325
    -1.0305  -1.0285  -1.0073  -0.9999  -0.9954  -0.9705  -0.9686  -0.9620
    -0.9229  -0.9131  -0.9085  -0.8769  -0.8705  -0.8605  -0.8551  -0.8508
    -0.8491  -0.8475  -0.8438  -0.8345  -0.8319  -0.8107  -0.8088  -0.8058
    -0.8035  -0.8000  -0.7710  -0.7658  -0.7648  -0.7514  -0.7379  -0.7328
    -0.7293  -0.7189  -0.6699  -0.6660  -0.6610  -0.6544  -0.6521  -0.6507
    -0.6465  -0.6298  -0.6267  -0.6230  -0.6162  -0.6152  -0.6138  -0.5848
    -0.5755  -0.5725  -0.5675  -0.5639  -0.5619  -0.5569  -0.5503  -0.5417
    -0.5392  -0.5377  -0.5296  -0.4974  -0.4941  -0.4877  -0.4828  -0.4813
    -0.4104  -0.4036  -0.4032  -0.4016  -0.3937  -0.3916  -0.3574  -0.3461
    -0.3434  -0.3123  -0.3098  -0.3052  -0.1937  -0.1860  -0.0884   0.3252
     0.3268   0.3322   0.3327   0.3957   0.3989   0.7802   0.7811   0.8229
     0.8245   0.9421   1.0148   1.1240   1.1291   1.3511   1.3563   1.9769
     1.9817   2.1388   2.1438   2.2742   2.2792   2.3765   2.3772   2.5308
     2.7689   2.7891   2.8935   3.1153   3.1223   3.1975   3.2004   3.3002
     3.3159   3.5235   3.5343   3.5705   3.7708   3.7756   3.8305   3.8417
     4.0881   4.0989   4.1057   4.3403   4.3806   4.3861   4.4290   4.7582
     4.7685   4.7952   4.9254   5.1038   5.1061   5.1717   5.1920   5.5592
     5.8283   5.8755   5.8938   5.9015   5.9273   5.9602   5.9683   6.0595
     6.0794   6.0992   6.1290   6.1358   6.1517   6.1644   6.1785   6.1882
     6.1948   6.4651   6.5919   6.7204   6.7602   6.7921   6.8324   6.8402
     6.8519   6.9608   7.0347

          k =-0.2500 0.4330-0.1111 (136853 PWs)   bands (ev):

   -18.6619  -6.8680  -6.3811  -5.9861  -5.9825  -5.3063  -4.9754  -4.9742
    -4.9368  -4.9325  -4.5757  -4.5737  -4.4764  -4.4760  -4.4619  -4.4387
    -4.4201  -4.3108  -4.3075  -4.2844  -4.2415  -4.2410  -4.1739  -4.1717
    -4.1661  -4.1646  -4.1440  -4.1407  -4.1355  -4.0736  -4.0639  -4.0373
    -4.0343  -4.0243  -4.0227  -4.0011  -3.9999  -3.9774  -3.9701  -3.9691
    -3.9436  -3.8913  -3.8905  -3.8438  -3.8403  -3.7866  -3.7845  -3.7321
    -3.7286  -3.7280  -3.7271  -3.6929  -3.6593  -3.6562  -3.6477  -3.6466
    -3.6444  -3.6210  -3.6143  -3.6062  -3.5486  -3.5469  -3.5399  -3.5187
    -3.5112  -3.4415  -3.4380  -3.4117  -3.4050  -3.3820  -3.3779  -3.3630
    -3.3498  -3.2925  -3.2897  -3.2740  -3.2698  -3.2331  -3.2231  -3.2165
    -3.1750  -3.1568  -3.1495  -3.1418  -3.1348  -3.1299  -3.1258  -3.1147
    -3.1140  -3.1054  -3.0670  -3.0391  -3.0233  -3.0144  -3.0103  -2.9899
    -2.9817  -2.9751  -2.9715  -2.9248  -2.9065  -2.9044  -2.8829  -2.8600
    -2.8466  -2.8411  -2.8331  -2.8134  -2.8025  -2.7802  -2.7473  -2.7421
    -2.7252  -2.7142  -2.7024  -2.6996  -2.6532  -2.6485  -2.6178  -2.5966
    -2.5939  -2.5742  -2.5683  -2.5609  -2.5566  -2.5491  -2.5297  -2.5264
    -2.4815  -2.4802  -2.4790  -2.4657  -2.4633  -2.4558  -2.4537  -2.4489
    -2.4458  -2.4429  -2.4383  -2.4330  -2.4271  -2.4179  -2.4011  -2.3920
    -2.3876  -2.3856  -2.3844  -2.3821  -2.3793  -2.3581  -2.3550  -2.3429
    -2.3377  -2.3207  -2.3184  -2.3135  -2.3091  -2.3078  -2.3062  -2.2950
    -2.2868  -2.2855  -2.2814  -2.2691  -2.2443  -2.2402  -2.2022  -2.2010
    -2.1811  -2.1780  -2.1519  -2.1476  -2.1249  -2.1207  -2.1078  -2.1003
    -2.0741  -2.0616  -2.0541  -2.0454  -2.0421  -2.0381  -2.0326  -2.0320
    -2.0049  -2.0012  -1.9948  -1.9397  -1.9361  -1.9294  -1.9262  -1.9236
    -1.8967  -1.8725  -1.8696  -1.8464  -1.8409  -1.7871  -1.7836  -1.7546
    -1.7354  -1.7327  -1.6832  -1.6741  -1.6693  -1.6612  -1.6535  -1.6512
    -1.6463  -1.6428  -1.6360  -1.5949  -1.5806  -1.5743  -1.5681  -1.5679
    -1.5546  -1.5482  -1.5200  -1.5138  -1.5023  -1.4987  -1.4956  -1.4885
    -1.4837  -1.4801  -1.4728  -1.4572  -1.4526  -1.4240  -1.4104  -1.4072
    -1.4015  -1.3847  -1.3666  -1.3321  -1.3247  -1.3013  -1.2967  -1.2934
    -1.2676  -1.2271  -1.2136  -1.2106  -1.2079  -1.2057  -1.2031  -1.1952
    -1.1807  -1.1759  -1.1444  -1.1339  -1.1135  -1.1078  -1.1017  -1.0973
    -1.0932  -1.0835  -1.0753  -1.0738  -1.0703  -1.0682  -1.0371  -1.0320
    -1.0302  -1.0286  -1.0069  -0.9998  -0.9950  -0.9704  -0.9686  -0.9618
    -0.9225  -0.9135  -0.9086  -0.8770  -0.8703  -0.8607  -0.8549  -0.8504
    -0.8492  -0.8476  -0.8437  -0.8353  -0.8319  -0.8110  -0.8085  -0.8059
    -0.8036  -0.8000  -0.7698  -0.7656  -0.7647  -0.7515  -0.7384  -0.7337
    -0.7293  -0.7187  -0.6696  -0.6659  -0.6607  -0.6544  -0.6519  -0.6505
    -0.6465  -0.6299  -0.6268  -0.6233  -0.6163  -0.6152  -0.6139  -0.5854
    -0.5756  -0.5725  -0.5679  -0.5641  -0.5628  -0.5572  -0.5512  -0.5413
    -0.5395  -0.5374  -0.5285  -0.4972  -0.4945  -0.4878  -0.4828  -0.4810
    -0.4103  -0.4034  -0.4030  -0.4016  -0.3938  -0.3916  -0.3574  -0.3461
    -0.3434  -0.3123  -0.3110  -0.3043  -0.1929  -0.1857  -0.0879   0.3252
     0.3268   0.3320   0.3329   0.3956   0.3984   0.7798   0.7811   0.8230
     0.8245   0.9422   1.0150   1.1240   1.1296   1.3498   1.3575   1.9770
     1.9813   2.1392   2.1437   2.2745   2.2789   2.3763   2.3774   2.5307
     2.7690   2.7893   2.8934   3.1148   3.1227   3.1974   3.2005   3.2999
     3.3159   3.5207   3.5369   3.5708   3.7710   3.7755   3.8305   3.8420
     4.0880   4.0985   4.1056   4.3408   4.3802   4.3863   4.4288   4.7587
     4.7679   4.7944   4.9259   5.1038   5.1061   5.1719   5.1922   5.5604
     5.8245   5.8761   5.8944   5.9010   5.9310   5.9603   5.9682   6.0589
     6.0783   6.0994   6.1282   6.1367   6.1492   6.1653   6.1768   6.1884
     6.1960   6.4638   6.5951   6.7203   6.7589   6.7964   6.8320   6.8402
     6.8527   6.9608   7.0353

          k = 0.2500-0.4330-0.1111 (136853 PWs)   bands (ev):

   -18.6619  -6.8680  -6.3811  -5.9861  -5.9825  -5.3063  -4.9754  -4.9742
    -4.9368  -4.9325  -4.5757  -4.5737  -4.4764  -4.4760  -4.4619  -4.4387
    -4.4201  -4.3108  -4.3075  -4.2844  -4.2415  -4.2410  -4.1739  -4.1717
    -4.1661  -4.1646  -4.1440  -4.1407  -4.1355  -4.0736  -4.0639  -4.0373
    -4.0343  -4.0243  -4.0227  -4.0011  -3.9999  -3.9774  -3.9701  -3.9691
    -3.9436  -3.8913  -3.8905  -3.8438  -3.8403  -3.7866  -3.7845  -3.7321
    -3.7286  -3.7280  -3.7271  -3.6929  -3.6593  -3.6562  -3.6477  -3.6466
    -3.6444  -3.6210  -3.6143  -3.6062  -3.5486  -3.5469  -3.5399  -3.5187
    -3.5112  -3.4415  -3.4380  -3.4117  -3.4050  -3.3820  -3.3779  -3.3630
    -3.3498  -3.2925  -3.2897  -3.2740  -3.2698  -3.2331  -3.2231  -3.2165
    -3.1750  -3.1568  -3.1495  -3.1418  -3.1348  -3.1299  -3.1258  -3.1147
    -3.1140  -3.1054  -3.0670  -3.0391  -3.0233  -3.0144  -3.0103  -2.9899
    -2.9817  -2.9751  -2.9715  -2.9248  -2.9065  -2.9044  -2.8829  -2.8600
    -2.8466  -2.8411  -2.8331  -2.8134  -2.8025  -2.7802  -2.7473  -2.7421
    -2.7252  -2.7142  -2.7024  -2.6996  -2.6532  -2.6485  -2.6178  -2.5966
    -2.5939  -2.5742  -2.5683  -2.5609  -2.5566  -2.5491  -2.5297  -2.5264
    -2.4815  -2.4802  -2.4790  -2.4657  -2.4633  -2.4558  -2.4537  -2.4489
    -2.4458  -2.4429  -2.4383  -2.4330  -2.4271  -2.4179  -2.4011  -2.3920
    -2.3876  -2.3856  -2.3844  -2.3821  -2.3793  -2.3581  -2.3550  -2.3429
    -2.3377  -2.3207  -2.3184  -2.3135  -2.3091  -2.3078  -2.3062  -2.2950
    -2.2868  -2.2855  -2.2814  -2.2691  -2.2443  -2.2402  -2.2022  -2.2010
    -2.1811  -2.1780  -2.1519  -2.1476  -2.1249  -2.1207  -2.1078  -2.1003
    -2.0741  -2.0616  -2.0541  -2.0454  -2.0421  -2.0381  -2.0325  -2.0320
    -2.0049  -2.0012  -1.9948  -1.9397  -1.9361  -1.9294  -1.9262  -1.9236
    -1.8967  -1.8725  -1.8696  -1.8464  -1.8409  -1.7871  -1.7836  -1.7546
    -1.7354  -1.7327  -1.6832  -1.6741  -1.6693  -1.6612  -1.6535  -1.6512
    -1.6463  -1.6428  -1.6360  -1.5949  -1.5806  -1.5743  -1.5681  -1.5679
    -1.5546  -1.5482  -1.5200  -1.5138  -1.5023  -1.4987  -1.4956  -1.4885
    -1.4837  -1.4801  -1.4728  -1.4572  -1.4526  -1.4240  -1.4104  -1.4072
    -1.4015  -1.3847  -1.3666  -1.3321  -1.3247  -1.3013  -1.2967  -1.2934
    -1.2676  -1.2271  -1.2136  -1.2106  -1.2079  -1.2057  -1.2031  -1.1952
    -1.1807  -1.1759  -1.1444  -1.1339  -1.1135  -1.1078  -1.1017  -1.0973
    -1.0932  -1.0835  -1.0753  -1.0738  -1.0703  -1.0682  -1.0371  -1.0320
    -1.0302  -1.0286  -1.0069  -0.9998  -0.9950  -0.9704  -0.9686  -0.9618
    -0.9225  -0.9135  -0.9086  -0.8770  -0.8703  -0.8607  -0.8549  -0.8504
    -0.8492  -0.8476  -0.8437  -0.8353  -0.8319  -0.8110  -0.8085  -0.8059
    -0.8036  -0.8000  -0.7698  -0.7656  -0.7647  -0.7515  -0.7384  -0.7337
    -0.7293  -0.7187  -0.6695  -0.6659  -0.6607  -0.6544  -0.6519  -0.6505
    -0.6465  -0.6299  -0.6268  -0.6233  -0.6163  -0.6152  -0.6139  -0.5854
    -0.5756  -0.5725  -0.5679  -0.5641  -0.5628  -0.5572  -0.5512  -0.5413
    -0.5395  -0.5374  -0.5285  -0.4972  -0.4945  -0.4878  -0.4828  -0.4810
    -0.4103  -0.4034  -0.4030  -0.4016  -0.3938  -0.3916  -0.3574  -0.3461
    -0.3434  -0.3123  -0.3110  -0.3043  -0.1929  -0.1857  -0.0879   0.3252
     0.3268   0.3320   0.3329   0.3956   0.3984   0.7798   0.7811   0.8230
     0.8245   0.9422   1.0150   1.1240   1.1296   1.3498   1.3575   1.9770
     1.9813   2.1392   2.1437   2.2745   2.2789   2.3763   2.3774   2.5307
     2.7690   2.7893   2.8934   3.1148   3.1227   3.1974   3.2005   3.2999
     3.3159   3.5207   3.5369   3.5708   3.7710   3.7755   3.8305   3.8420
     4.0880   4.0985   4.1056   4.3408   4.3802   4.3863   4.4288   4.7587
     4.7679   4.7944   4.9259   5.1038   5.1061   5.1719   5.1922   5.5604
     5.8250   5.8761   5.8944   5.9010   5.9311   5.9603   5.9682   6.0592
     6.0785   6.0994   6.1279   6.1366   6.1470   6.1648   6.1777   6.1884
     6.1958   6.4629   6.5942   6.7305   6.7618   6.7970   6.8322   6.8403
     6.8534   6.9609   7.0256

          k = 0.5000 0.0000 0.1111 (136853 PWs)   bands (ev):

   -18.6619  -6.8680  -6.3811  -5.9854  -5.9831  -5.3063  -4.9756  -4.9739
    -4.9373  -4.9319  -4.5763  -4.5734  -4.4768  -4.4762  -4.4617  -4.4387
    -4.4201  -4.3102  -4.3071  -4.2842  -4.2418  -4.2406  -4.1738  -4.1717
    -4.1657  -4.1656  -4.1442  -4.1409  -4.1354  -4.0741  -4.0638  -4.0383
    -4.0339  -4.0242  -4.0232  -4.0003  -3.9998  -3.9778  -3.9697  -3.9689
    -3.9433  -3.8910  -3.8904  -3.8449  -3.8399  -3.7866  -3.7843  -3.7308
    -3.7288  -3.7281  -3.7272  -3.6925  -3.6596  -3.6565  -3.6473  -3.6463
    -3.6449  -3.6211  -3.6146  -3.6067  -3.5489  -3.5469  -3.5389  -3.5185
    -3.5119  -3.4405  -3.4384  -3.4111  -3.4045  -3.3837  -3.3767  -3.3630
    -3.3502  -3.2998  -3.2896  -3.2764  -3.2687  -3.2336  -3.2195  -3.2148
    -3.1755  -3.1645  -3.1423  -3.1352  -3.1344  -3.1298  -3.1257  -3.1140
    -3.1123  -3.1069  -3.0690  -3.0398  -3.0223  -3.0145  -3.0127  -2.9945
    -2.9829  -2.9759  -2.9631  -2.9219  -2.9061  -2.9001  -2.8909  -2.8605
    -2.8471  -2.8404  -2.8354  -2.8120  -2.8059  -2.7810  -2.7491  -2.7365
    -2.7254  -2.7145  -2.7051  -2.6976  -2.6533  -2.6503  -2.6180  -2.5980
    -2.5918  -2.5732  -2.5687  -2.5607  -2.5539  -2.5487  -2.5292  -2.5276
    -2.4818  -2.4793  -2.4783  -2.4654  -2.4630  -2.4558  -2.4551  -2.4486
    -2.4441  -2.4423  -2.4384  -2.4358  -2.4264  -2.4215  -2.3983  -2.3915
    -2.3873  -2.3855  -2.3844  -2.3816  -2.3766  -2.3589  -2.3547  -2.3406
    -2.3387  -2.3208  -2.3184  -2.3158  -2.3102  -2.3083  -2.3068  -2.2933
    -2.2863  -2.2844  -2.2833  -2.2687  -2.2442  -2.2404  -2.2022  -2.2007
    -2.1813  -2.1782  -2.1533  -2.1457  -2.1257  -2.1216  -2.1069  -2.1001
    -2.0747  -2.0599  -2.0581  -2.0455  -2.0443  -2.0401  -2.0347  -2.0317
    -2.0054  -1.9991  -1.9940  -1.9413  -1.9322  -1.9297  -1.9264  -1.9237
    -1.8989  -1.8729  -1.8694  -1.8454  -1.8410  -1.7874  -1.7834  -1.7533
    -1.7372  -1.7323  -1.6841  -1.6735  -1.6687  -1.6616  -1.6535  -1.6501
    -1.6459  -1.6427  -1.6358  -1.5870  -1.5833  -1.5744  -1.5681  -1.5667
    -1.5520  -1.5482  -1.5248  -1.5146  -1.5020  -1.4987  -1.4965  -1.4890
    -1.4855  -1.4803  -1.4722  -1.4564  -1.4535  -1.4204  -1.4113  -1.4048
    -1.4016  -1.3845  -1.3668  -1.3350  -1.3242  -1.3031  -1.2966  -1.2941
    -1.2677  -1.2260  -1.2153  -1.2097  -1.2089  -1.2061  -1.2029  -1.1942
    -1.1807  -1.1763  -1.1456  -1.1328  -1.1136  -1.1080  -1.1003  -1.0984
    -1.0930  -1.0822  -1.0765  -1.0734  -1.0710  -1.0688  -1.0384  -1.0314
    -1.0296  -1.0292  -1.0033  -0.9985  -0.9951  -0.9715  -0.9663  -0.9619
    -0.9207  -0.9160  -0.9088  -0.8775  -0.8711  -0.8612  -0.8549  -0.8493
    -0.8480  -0.8470  -0.8442  -0.8375  -0.8324  -0.8109  -0.8085  -0.8057
    -0.8034  -0.8007  -0.7655  -0.7651  -0.7615  -0.7539  -0.7414  -0.7356
    -0.7300  -0.7189  -0.6672  -0.6657  -0.6585  -0.6547  -0.6512  -0.6496
    -0.6463  -0.6311  -0.6281  -0.6244  -0.6170  -0.6155  -0.6142  -0.5885
    -0.5771  -0.5729  -0.5705  -0.5647  -0.5631  -0.5580  -0.5512  -0.5420
    -0.5383  -0.5365  -0.5280  -0.4976  -0.4943  -0.4880  -0.4819  -0.4805
    -0.4102  -0.4033  -0.4023  -0.4013  -0.3937  -0.3921  -0.3573  -0.3459
    -0.3436  -0.3125  -0.3118  -0.3042  -0.1877  -0.1867  -0.0857   0.3257
     0.3263   0.3323   0.3326   0.3953   0.3970   0.7775   0.7815   0.8228
     0.8254   0.9427   1.0158   1.1242   1.1309   1.3474   1.3598   1.9778
     1.9796   2.1397   2.1434   2.2754   2.2777   2.3759   2.3778   2.5305
     2.7683   2.7900   2.8932   3.1129   3.1243   3.1971   3.2010   3.2990
     3.3161   3.5153   3.5419   3.5704   3.7708   3.7758   3.8333   3.8402
     4.0893   4.0977   4.1052   4.3408   4.3821   4.3854   4.4282   4.7570
     4.7697   4.7948   4.9264   5.1045   5.1060   5.1719   5.1934   5.5655
     5.8102   5.8727   5.8917   5.9029   5.9443   5.9611   5.9679   6.0577
     6.0741   6.1009   6.1309   6.1354   6.1409   6.1675   6.1794   6.1882
     6.1921   6.4598   6.6059   6.7217   6.7631   6.8126   6.8329   6.8418
     6.8474   6.9603   7.0324

          k =-0.5000 0.0000 0.1111 (136853 PWs)   bands (ev):

   -18.6619  -6.8680  -6.3811  -5.9854  -5.9831  -5.3063  -4.9756  -4.9739
    -4.9373  -4.9319  -4.5763  -4.5734  -4.4768  -4.4762  -4.4617  -4.4387
    -4.4201  -4.3102  -4.3071  -4.2842  -4.2418  -4.2406  -4.1738  -4.1717
    -4.1657  -4.1656  -4.1442  -4.1409  -4.1354  -4.0741  -4.0638  -4.0383
    -4.0339  -4.0242  -4.0232  -4.0003  -3.9998  -3.9778  -3.9697  -3.9689
    -3.9433  -3.8910  -3.8904  -3.8449  -3.8399  -3.7866  -3.7843  -3.7308
    -3.7288  -3.7281  -3.7272  -3.6925  -3.6596  -3.6565  -3.6473  -3.6463
    -3.6449  -3.6211  -3.6146  -3.6067  -3.5489  -3.5469  -3.5389  -3.5185
    -3.5119  -3.4405  -3.4384  -3.4111  -3.4045  -3.3837  -3.3767  -3.3630
    -3.3502  -3.2998  -3.2896  -3.2764  -3.2687  -3.2336  -3.2195  -3.2148
    -3.1755  -3.1645  -3.1423  -3.1352  -3.1344  -3.1298  -3.1257  -3.1140
    -3.1123  -3.1069  -3.0690  -3.0398  -3.0223  -3.0145  -3.0127  -2.9945
    -2.9829  -2.9759  -2.9631  -2.9219  -2.9061  -2.9001  -2.8909  -2.8605
    -2.8471  -2.8404  -2.8354  -2.8120  -2.8059  -2.7810  -2.7491  -2.7365
    -2.7254  -2.7145  -2.7051  -2.6976  -2.6533  -2.6503  -2.6180  -2.5980
    -2.5918  -2.5732  -2.5687  -2.5607  -2.5539  -2.5487  -2.5292  -2.5276
    -2.4818  -2.4793  -2.4783  -2.4654  -2.4630  -2.4558  -2.4551  -2.4486
    -2.4441  -2.4423  -2.4384  -2.4358  -2.4264  -2.4215  -2.3983  -2.3915
    -2.3873  -2.3855  -2.3844  -2.3816  -2.3766  -2.3589  -2.3547  -2.3406
    -2.3387  -2.3208  -2.3184  -2.3158  -2.3102  -2.3083  -2.3068  -2.2933
    -2.2863  -2.2844  -2.2833  -2.2687  -2.2442  -2.2404  -2.2022  -2.2007
    -2.1813  -2.1782  -2.1533  -2.1457  -2.1257  -2.1216  -2.1069  -2.1001
    -2.0747  -2.0599  -2.0581  -2.0455  -2.0443  -2.0401  -2.0347  -2.0317
    -2.0054  -1.9991  -1.9940  -1.9413  -1.9322  -1.9297  -1.9264  -1.9237
    -1.8989  -1.8729  -1.8694  -1.8454  -1.8410  -1.7874  -1.7834  -1.7533
    -1.7372  -1.7323  -1.6841  -1.6735  -1.6687  -1.6616  -1.6535  -1.6501
    -1.6459  -1.6427  -1.6358  -1.5870  -1.5833  -1.5744  -1.5681  -1.5667
    -1.5520  -1.5482  -1.5248  -1.5146  -1.5020  -1.4987  -1.4965  -1.4890
    -1.4855  -1.4803  -1.4722  -1.4564  -1.4535  -1.4204  -1.4113  -1.4048
    -1.4016  -1.3845  -1.3668  -1.3350  -1.3242  -1.3031  -1.2966  -1.2941
    -1.2677  -1.2260  -1.2153  -1.2097  -1.2089  -1.2061  -1.2029  -1.1942
    -1.1807  -1.1763  -1.1456  -1.1328  -1.1136  -1.1080  -1.1003  -1.0984
    -1.0930  -1.0822  -1.0765  -1.0734  -1.0710  -1.0688  -1.0384  -1.0314
    -1.0296  -1.0292  -1.0033  -0.9985  -0.9951  -0.9715  -0.9663  -0.9619
    -0.9207  -0.9160  -0.9088  -0.8775  -0.8711  -0.8612  -0.8549  -0.8493
    -0.8480  -0.8470  -0.8442  -0.8375  -0.8324  -0.8109  -0.8085  -0.8057
    -0.8034  -0.8007  -0.7655  -0.7651  -0.7615  -0.7539  -0.7414  -0.7356
    -0.7300  -0.7189  -0.6672  -0.6657  -0.6585  -0.6547  -0.6512  -0.6496
    -0.6463  -0.6311  -0.6281  -0.6244  -0.6170  -0.6155  -0.6142  -0.5885
    -0.5771  -0.5729  -0.5705  -0.5647  -0.5631  -0.5580  -0.5512  -0.5420
    -0.5383  -0.5365  -0.5280  -0.4976  -0.4943  -0.4880  -0.4819  -0.4805
    -0.4102  -0.4033  -0.4023  -0.4013  -0.3937  -0.3921  -0.3573  -0.3459
    -0.3436  -0.3125  -0.3118  -0.3042  -0.1877  -0.1867  -0.0857   0.3257
     0.3263   0.3323   0.3326   0.3953   0.3970   0.7775   0.7815   0.8228
     0.8254   0.9427   1.0158   1.1242   1.1309   1.3474   1.3598   1.9778
     1.9796   2.1397   2.1434   2.2754   2.2777   2.3759   2.3778   2.5305
     2.7683   2.7900   2.8932   3.1129   3.1243   3.1971   3.2010   3.2990
     3.3161   3.5153   3.5419   3.5704   3.7708   3.7758   3.8333   3.8402
     4.0893   4.0977   4.1052   4.3408   4.3821   4.3854   4.4282   4.7570
     4.7697   4.7948   4.9264   5.1045   5.1060   5.1719   5.1934   5.5655
     5.8101   5.8728   5.8917   5.9029   5.9442   5.9611   5.9679   6.0577
     6.0741   6.1009   6.1309   6.1355   6.1411   6.1676   6.1793   6.1882
     6.1921   6.4599   6.6060   6.7208   6.7627   6.8124   6.8328   6.8417
     6.8473   6.9603   7.0332

          k =-0.2500 0.1443 0.1111 (136898 PWs)   bands (ev):

   -18.6619  -6.8712  -6.5870  -5.8021  -5.5095  -5.4530  -5.4519  -4.9149
    -4.9147  -4.7829  -4.7823  -4.6275  -4.6010  -4.5355  -4.5027  -4.5006
    -4.4685  -4.4681  -4.3400  -4.2986  -4.2979  -4.2388  -4.2180  -4.2170
    -4.1153  -4.1146  -4.0797  -4.0782  -4.0778  -4.0520  -4.0301  -4.0296
    -3.9283  -3.9237  -3.9226  -3.9031  -3.8868  -3.8848  -3.8741  -3.8725
    -3.8613  -3.8307  -3.8300  -3.8290  -3.8280  -3.7985  -3.7968  -3.7802
    -3.7780  -3.7693  -3.7289  -3.7239  -3.6911  -3.6791  -3.6754  -3.6698
    -3.6694  -3.5967  -3.5955  -3.5638  -3.5602  -3.5576  -3.4919  -3.4894
    -3.4800  -3.4737  -3.4490  -3.4466  -3.4446  -3.4433  -3.3044  -3.2877
    -3.2762  -3.2682  -3.2621  -3.2448  -3.2424  -3.2198  -3.2179  -3.1727
    -3.1665  -3.1560  -3.1499  -3.1326  -3.1022  -3.0852  -3.0697  -3.0628
    -3.0566  -3.0346  -3.0171  -3.0110  -3.0075  -3.0014  -2.9914  -2.9706
    -2.9541  -2.9488  -2.9338  -2.9298  -2.9276  -2.9234  -2.8921  -2.8510
    -2.8484  -2.8399  -2.8157  -2.8039  -2.7565  -2.7526  -2.7268  -2.7221
    -2.7132  -2.7094  -2.7032  -2.6785  -2.6767  -2.6661  -2.6498  -2.6303
    -2.6266  -2.6182  -2.6051  -2.6031  -2.5971  -2.5920  -2.5878  -2.5845
    -2.5783  -2.5332  -2.5041  -2.5008  -2.4857  -2.4726  -2.4689  -2.4640
    -2.4579  -2.4568  -2.4551  -2.4287  -2.4273  -2.4220  -2.4158  -2.4121
    -2.4012  -2.3735  -2.3729  -2.3710  -2.3697  -2.3668  -2.3238  -2.2969
    -2.2931  -2.2911  -2.2856  -2.2761  -2.2686  -2.2636  -2.2467  -2.2465
    -2.2193  -2.2137  -2.2123  -2.1971  -2.1941  -2.1932  -2.1667  -2.1598
    -2.1247  -2.1152  -2.1140  -2.1116  -2.1092  -2.1048  -2.1026  -2.0991
    -2.0973  -2.0937  -2.0894  -2.0763  -2.0737  -1.9555  -1.9497  -1.9255
    -1.9116  -1.9076  -1.9019  -1.9015  -1.8900  -1.8880  -1.8823  -1.8804
    -1.8768  -1.8593  -1.8539  -1.8514  -1.8408  -1.8364  -1.8346  -1.8161
    -1.8132  -1.7867  -1.7856  -1.7605  -1.7573  -1.7459  -1.7363  -1.7178
    -1.7168  -1.7133  -1.6975  -1.6844  -1.6833  -1.6757  -1.6748  -1.6529
    -1.6507  -1.6363  -1.6309  -1.6011  -1.5976  -1.5915  -1.5469  -1.5388
    -1.5276  -1.5242  -1.5213  -1.4992  -1.4962  -1.4676  -1.4653  -1.4626
    -1.4337  -1.4219  -1.4203  -1.4039  -1.4020  -1.3832  -1.3785  -1.3723
    -1.3498  -1.3439  -1.3420  -1.2856  -1.2804  -1.2726  -1.2658  -1.2581
    -1.2506  -1.2388  -1.2376  -1.2200  -1.2064  -1.1841  -1.1771  -1.1671
    -1.1412  -1.1296  -1.1278  -1.1195  -1.1167  -1.1142  -1.1111  -1.1094
    -1.0944  -1.0740  -1.0664  -1.0537  -1.0524  -1.0504  -1.0476  -1.0313
    -1.0101  -1.0070  -0.9909  -0.9859  -0.9015  -0.8867  -0.8799  -0.8780
    -0.8755  -0.8695  -0.8657  -0.8501  -0.8458  -0.8313  -0.8252  -0.8138
    -0.8124  -0.8070  -0.7860  -0.7843  -0.7786  -0.7719  -0.7052  -0.6975
    -0.6768  -0.6652  -0.6611  -0.6598  -0.6522  -0.6508  -0.6503  -0.6401
    -0.6376  -0.6241  -0.5967  -0.5958  -0.5708  -0.5637  -0.5563  -0.5537
    -0.5510  -0.5415  -0.5391  -0.5370  -0.5344  -0.5243  -0.5184  -0.5138
    -0.5130  -0.4841  -0.4836  -0.4798  -0.4685  -0.4678  -0.4493  -0.4183
    -0.4175  -0.4082  -0.4070  -0.3418  -0.3390  -0.3059  -0.3035  -0.2491
    -0.2465  -0.2426  -0.2240  -0.2208   0.0136   0.0155   0.3557   0.3562
     0.4510   0.4541   0.6460   0.6682   0.6742   0.8031   0.8055   1.2356
     1.2372   1.2549   1.5195   1.5460   1.5470   1.8276   1.8316   1.9000
     1.9032   1.9296   1.9338   2.1580   2.1589   2.2471   2.2486   2.3353
     2.3881   2.3945   2.5517   2.6518   3.0827   3.0909   3.0932   3.0945
     3.1473   3.1488   3.4396   3.4412   3.7193   3.7270   3.8424   4.1371
     4.1709   4.1821   4.4082   4.4278   4.4754   4.4807   4.5703   4.6836
     4.6935   4.8038   4.8085   5.1066   5.1690   5.1833   5.3431   5.3758
     5.4620   5.5610   5.5701   5.5926   5.5970   5.6498   5.6603   5.7168
     5.8994   6.0637   6.2572   6.2906   6.3675   6.3959   6.4020   6.4073
     6.4174   6.5632   6.6517   6.6575   6.6791   6.8533   6.8920   6.9163
     6.9467   7.0323   7.1144

          k =-0.2500-0.1443-0.1111 (136898 PWs)   bands (ev):

   -18.6619  -6.8712  -6.5870  -5.8021  -5.5095  -5.4530  -5.4519  -4.9148
    -4.9147  -4.7832  -4.7822  -4.6275  -4.6010  -4.5356  -4.5026  -4.5007
    -4.4684  -4.4680  -4.3400  -4.2984  -4.2981  -4.2386  -4.2180  -4.2170
    -4.1152  -4.1145  -4.0797  -4.0782  -4.0778  -4.0520  -4.0302  -4.0295
    -3.9284  -3.9237  -3.9228  -3.9030  -3.8869  -3.8849  -3.8741  -3.8725
    -3.8612  -3.8306  -3.8300  -3.8288  -3.8279  -3.7986  -3.7968  -3.7802
    -3.7780  -3.7692  -3.7290  -3.7238  -3.6913  -3.6791  -3.6753  -3.6698
    -3.6695  -3.5968  -3.5955  -3.5637  -3.5600  -3.5576  -3.4921  -3.4896
    -3.4796  -3.4736  -3.4491  -3.4463  -3.4447  -3.4436  -3.3056  -3.2877
    -3.2757  -3.2687  -3.2617  -3.2448  -3.2424  -3.2196  -3.2180  -3.1730
    -3.1666  -3.1564  -3.1499  -3.1319  -3.1014  -3.0856  -3.0689  -3.0634
    -3.0567  -3.0345  -3.0172  -3.0104  -3.0075  -3.0010  -2.9914  -2.9712
    -2.9539  -2.9486  -2.9341  -2.9299  -2.9275  -2.9234  -2.8929  -2.8507
    -2.8486  -2.8396  -2.8157  -2.8034  -2.7566  -2.7542  -2.7265  -2.7219
    -2.7130  -2.7089  -2.7028  -2.6782  -2.6773  -2.6661  -2.6491  -2.6308
    -2.6262  -2.6179  -2.6051  -2.6031  -2.5967  -2.5924  -2.5879  -2.5848
    -2.5783  -2.5330  -2.5041  -2.5011  -2.4860  -2.4728  -2.4689  -2.4639
    -2.4579  -2.4568  -2.4553  -2.4289  -2.4272  -2.4221  -2.4157  -2.4119
    -2.4011  -2.3735  -2.3729  -2.3708  -2.3697  -2.3665  -2.3240  -2.2969
    -2.2931  -2.2913  -2.2857  -2.2764  -2.2694  -2.2632  -2.2466  -2.2464
    -2.2192  -2.2135  -2.2121  -2.1974  -2.1942  -2.1934  -2.1663  -2.1599
    -2.1247  -2.1153  -2.1139  -2.1116  -2.1096  -2.1044  -2.1027  -2.0992
    -2.0977  -2.0932  -2.0894  -2.0764  -2.0737  -1.9559  -1.9502  -1.9237
    -1.9116  -1.9079  -1.9018  -1.9014  -1.8907  -1.8880  -1.8824  -1.8806
    -1.8765  -1.8595  -1.8538  -1.8517  -1.8404  -1.8364  -1.8342  -1.8166
    -1.8134  -1.7871  -1.7859  -1.7596  -1.7572  -1.7456  -1.7362  -1.7177
    -1.7168  -1.7131  -1.6976  -1.6847  -1.6834  -1.6758  -1.6749  -1.6524
    -1.6505  -1.6362  -1.6312  -1.6018  -1.5975  -1.5912  -1.5466  -1.5391
    -1.5273  -1.5242  -1.5214  -1.4993  -1.4960  -1.4678  -1.4652  -1.4628
    -1.4332  -1.4222  -1.4202  -1.4039  -1.4019  -1.3828  -1.3789  -1.3722
    -1.3498  -1.3438  -1.3421  -1.2860  -1.2806  -1.2726  -1.2661  -1.2579
    -1.2507  -1.2383  -1.2374  -1.2196  -1.2063  -1.1839  -1.1773  -1.1671
    -1.1404  -1.1298  -1.1280  -1.1196  -1.1169  -1.1144  -1.1114  -1.1093
    -1.0943  -1.0738  -1.0667  -1.0543  -1.0529  -1.0504  -1.0476  -1.0313
    -1.0108  -1.0070  -0.9906  -0.9858  -0.9008  -0.8872  -0.8797  -0.8780
    -0.8750  -0.8699  -0.8659  -0.8485  -0.8456  -0.8313  -0.8255  -0.8137
    -0.8125  -0.8073  -0.7863  -0.7839  -0.7786  -0.7720  -0.7045  -0.6976
    -0.6771  -0.6659  -0.6610  -0.6594  -0.6525  -0.6508  -0.6504  -0.6403
    -0.6388  -0.6234  -0.5962  -0.5955  -0.5717  -0.5644  -0.5560  -0.5538
    -0.5511  -0.5413  -0.5392  -0.5369  -0.5345  -0.5238  -0.5182  -0.5140
    -0.5130  -0.4840  -0.4835  -0.4797  -0.4685  -0.4679  -0.4494  -0.4183
    -0.4174  -0.4081  -0.4069  -0.3419  -0.3391  -0.3060  -0.3034  -0.2492
    -0.2465  -0.2426  -0.2248  -0.2208   0.0141   0.0158   0.3556   0.3562
     0.4514   0.4541   0.6453   0.6683   0.6741   0.8032   0.8053   1.2356
     1.2373   1.2548   1.5196   1.5459   1.5473   1.8279   1.8313   1.8999
     1.9034   1.9297   1.9336   2.1581   2.1589   2.2470   2.2486   2.3354
     2.3883   2.3942   2.5514   2.6519   3.0825   3.0910   3.0935   3.0945
     3.1475   3.1490   3.4398   3.4411   3.7192   3.7271   3.8425   4.1371
     4.1707   4.1820   4.4087   4.4268   4.4754   4.4809   4.5704   4.6835
     4.6935   4.8039   4.8089   5.1066   5.1691   5.1830   5.3443   5.3751
     5.4608   5.5609   5.5699   5.5925   5.5970   5.6492   5.6608   5.7182
     5.8997   6.0661   6.2573   6.2886   6.3640   6.3958   6.4017   6.4074
     6.4176   6.5639   6.6517   6.6571   6.6805   6.8542   6.8947   6.9149
     6.9445   7.0339   7.1129

          k = 0.2500 0.1443-0.1111 (136898 PWs)   bands (ev):

   -18.6619  -6.8712  -6.5870  -5.8021  -5.5095  -5.4530  -5.4519  -4.9148
    -4.9147  -4.7832  -4.7822  -4.6275  -4.6010  -4.5356  -4.5026  -4.5007
    -4.4684  -4.4680  -4.3400  -4.2984  -4.2981  -4.2386  -4.2180  -4.2170
    -4.1152  -4.1145  -4.0797  -4.0782  -4.0778  -4.0520  -4.0302  -4.0295
    -3.9284  -3.9237  -3.9228  -3.9030  -3.8869  -3.8848  -3.8741  -3.8725
    -3.8612  -3.8306  -3.8300  -3.8288  -3.8279  -3.7986  -3.7968  -3.7802
    -3.7780  -3.7692  -3.7290  -3.7238  -3.6913  -3.6791  -3.6753  -3.6698
    -3.6695  -3.5968  -3.5955  -3.5637  -3.5600  -3.5576  -3.4921  -3.4896
    -3.4796  -3.4736  -3.4491  -3.4463  -3.4447  -3.4436  -3.3056  -3.2877
    -3.2757  -3.2687  -3.2617  -3.2448  -3.2424  -3.2196  -3.2180  -3.1730
    -3.1666  -3.1564  -3.1499  -3.1319  -3.1014  -3.0856  -3.0689  -3.0634
    -3.0567  -3.0345  -3.0172  -3.0104  -3.0075  -3.0010  -2.9914  -2.9712
    -2.9539  -2.9486  -2.9341  -2.9299  -2.9275  -2.9234  -2.8929  -2.8507
    -2.8486  -2.8396  -2.8157  -2.8034  -2.7566  -2.7542  -2.7265  -2.7219
    -2.7130  -2.7089  -2.7028  -2.6782  -2.6773  -2.6661  -2.6491  -2.6308
    -2.6262  -2.6178  -2.6051  -2.6031  -2.5967  -2.5924  -2.5879  -2.5848
    -2.5783  -2.5330  -2.5041  -2.5011  -2.4860  -2.4728  -2.4689  -2.4639
    -2.4579  -2.4568  -2.4553  -2.4289  -2.4272  -2.4221  -2.4157  -2.4119
    -2.4011  -2.3735  -2.3729  -2.3708  -2.3697  -2.3665  -2.3240  -2.2968
    -2.2931  -2.2913  -2.2857  -2.2764  -2.2694  -2.2632  -2.2466  -2.2464
    -2.2192  -2.2135  -2.2121  -2.1974  -2.1942  -2.1934  -2.1663  -2.1599
    -2.1247  -2.1153  -2.1139  -2.1116  -2.1096  -2.1044  -2.1027  -2.0992
    -2.0977  -2.0932  -2.0894  -2.0764  -2.0737  -1.9559  -1.9502  -1.9237
    -1.9116  -1.9079  -1.9018  -1.9014  -1.8907  -1.8880  -1.8824  -1.8806
    -1.8765  -1.8595  -1.8538  -1.8517  -1.8404  -1.8364  -1.8342  -1.8166
    -1.8134  -1.7871  -1.7859  -1.7596  -1.7572  -1.7456  -1.7362  -1.7177
    -1.7168  -1.7131  -1.6976  -1.6847  -1.6834  -1.6758  -1.6749  -1.6524
    -1.6505  -1.6362  -1.6312  -1.6018  -1.5975  -1.5912  -1.5466  -1.5391
    -1.5273  -1.5242  -1.5214  -1.4993  -1.4960  -1.4678  -1.4652  -1.4628
    -1.4332  -1.4222  -1.4202  -1.4039  -1.4018  -1.3828  -1.3789  -1.3722
    -1.3498  -1.3438  -1.3421  -1.2860  -1.2806  -1.2726  -1.2661  -1.2579
    -1.2507  -1.2383  -1.2374  -1.2196  -1.2063  -1.1839  -1.1773  -1.1671
    -1.1404  -1.1298  -1.1280  -1.1196  -1.1169  -1.1144  -1.1114  -1.1093
    -1.0943  -1.0738  -1.0667  -1.0543  -1.0529  -1.0504  -1.0476  -1.0313
    -1.0108  -1.0070  -0.9906  -0.9858  -0.9008  -0.8872  -0.8797  -0.8780
    -0.8750  -0.8699  -0.8659  -0.8485  -0.8456  -0.8313  -0.8255  -0.8137
    -0.8125  -0.8073  -0.7863  -0.7839  -0.7786  -0.7720  -0.7045  -0.6976
    -0.6771  -0.6659  -0.6610  -0.6594  -0.6525  -0.6508  -0.6503  -0.6403
    -0.6388  -0.6234  -0.5962  -0.5955  -0.5717  -0.5644  -0.5560  -0.5538
    -0.5511  -0.5413  -0.5392  -0.5369  -0.5345  -0.5238  -0.5182  -0.5140
    -0.5130  -0.4840  -0.4835  -0.4797  -0.4685  -0.4679  -0.4494  -0.4183
    -0.4174  -0.4081  -0.4069  -0.3419  -0.3391  -0.3060  -0.3034  -0.2492
    -0.2465  -0.2426  -0.2248  -0.2208   0.0141   0.0158   0.3556   0.3562
     0.4514   0.4541   0.6453   0.6683   0.6741   0.8032   0.8053   1.2356
     1.2373   1.2549   1.5196   1.5459   1.5473   1.8279   1.8313   1.8999
     1.9034   1.9297   1.9336   2.1581   2.1589   2.2470   2.2486   2.3354
     2.3883   2.3942   2.5514   2.6519   3.0825   3.0910   3.0935   3.0945
     3.1475   3.1490   3.4398   3.4411   3.7192   3.7271   3.8425   4.1371
     4.1707   4.1820   4.4087   4.4268   4.4754   4.4809   4.5704   4.6835
     4.6935   4.8039   4.8089   5.1066   5.1691   5.1830   5.3443   5.3750
     5.4609   5.5609   5.5699   5.5925   5.5970   5.6492   5.6608   5.7184
     5.8985   6.0684   6.2575   6.2895   6.3643   6.3957   6.4017   6.4074
     6.4177   6.5591   6.6518   6.6557   6.6753   6.8550   6.8963   6.9153
     6.9462   7.0363   7.1149

          k = 0.0000-0.2887 0.1111 (136898 PWs)   bands (ev):

   -18.6619  -6.8712  -6.5870  -5.8021  -5.5095  -5.4529  -5.4521  -4.9149
    -4.9146  -4.7831  -4.7823  -4.6275  -4.6010  -4.5352  -4.5018  -4.5015
    -4.4687  -4.4681  -4.3399  -4.2988  -4.2978  -4.2387  -4.2179  -4.2171
    -4.1157  -4.1144  -4.0798  -4.0780  -4.0779  -4.0520  -4.0301  -4.0298
    -3.9280  -3.9235  -3.9223  -3.9029  -3.8867  -3.8849  -3.8742  -3.8724
    -3.8613  -3.8310  -3.8300  -3.8299  -3.8278  -3.7986  -3.7969  -3.7802
    -3.7779  -3.7688  -3.7285  -3.7247  -3.6922  -3.6793  -3.6749  -3.6697
    -3.6694  -3.5963  -3.5955  -3.5635  -3.5590  -3.5582  -3.4929  -3.4895
    -3.4807  -3.4735  -3.4481  -3.4467  -3.4451  -3.4436  -3.2940  -3.2877
    -3.2763  -3.2706  -3.2651  -3.2441  -3.2424  -3.2187  -3.2178  -3.1715
    -3.1666  -3.1563  -3.1499  -3.1371  -3.0977  -3.0876  -3.0801  -3.0590
    -3.0566  -3.0323  -3.0175  -3.0161  -3.0082  -3.0049  -2.9912  -2.9594
    -2.9537  -2.9441  -2.9367  -2.9296  -2.9274  -2.9235  -2.8981  -2.8493
    -2.8491  -2.8378  -2.8156  -2.8048  -2.7622  -2.7458  -2.7280  -2.7210
    -2.7129  -2.7126  -2.7045  -2.6793  -2.6729  -2.6664  -2.6514  -2.6308
    -2.6264  -2.6201  -2.6041  -2.6039  -2.5936  -2.5928  -2.5881  -2.5835
    -2.5783  -2.5331  -2.5040  -2.5027  -2.4812  -2.4713  -2.4690  -2.4642
    -2.4567  -2.4562  -2.4558  -2.4301  -2.4260  -2.4222  -2.4154  -2.4152
    -2.4007  -2.3744  -2.3733  -2.3706  -2.3692  -2.3680  -2.3242  -2.2956
    -2.2922  -2.2915  -2.2851  -2.2775  -2.2722  -2.2638  -2.2468  -2.2466
    -2.2190  -2.2124  -2.2115  -2.1987  -2.1942  -2.1938  -2.1609  -2.1603
    -2.1247  -2.1154  -2.1130  -2.1113  -2.1093  -2.1037  -2.1020  -2.0980
    -2.0975  -2.0924  -2.0922  -2.0771  -2.0756  -1.9578  -1.9516  -1.9208
    -1.9120  -1.9102  -1.9020  -1.9017  -1.8922  -1.8848  -1.8820  -1.8805
    -1.8750  -1.8611  -1.8544  -1.8521  -1.8407  -1.8352  -1.8347  -1.8174
    -1.8129  -1.7889  -1.7857  -1.7574  -1.7540  -1.7461  -1.7361  -1.7179
    -1.7174  -1.7132  -1.6977  -1.6861  -1.6836  -1.6758  -1.6752  -1.6512
    -1.6496  -1.6353  -1.6344  -1.6034  -1.5961  -1.5900  -1.5460  -1.5409
    -1.5269  -1.5253  -1.5213  -1.4995  -1.4960  -1.4689  -1.4634  -1.4632
    -1.4305  -1.4247  -1.4202  -1.4039  -1.4020  -1.3805  -1.3784  -1.3727
    -1.3509  -1.3431  -1.3419  -1.2881  -1.2792  -1.2724  -1.2668  -1.2566
    -1.2508  -1.2377  -1.2374  -1.2196  -1.2064  -1.1833  -1.1779  -1.1662
    -1.1362  -1.1311  -1.1290  -1.1188  -1.1178  -1.1144  -1.1124  -1.1088
    -1.0943  -1.0723  -1.0702  -1.0575  -1.0533  -1.0497  -1.0487  -1.0316
    -1.0118  -1.0074  -0.9898  -0.9858  -0.8982  -0.8888  -0.8796  -0.8779
    -0.8721  -0.8697  -0.8675  -0.8464  -0.8417  -0.8312  -0.8277  -0.8132
    -0.8124  -0.8074  -0.7873  -0.7811  -0.7804  -0.7722  -0.7008  -0.6989
    -0.6779  -0.6683  -0.6611  -0.6566  -0.6558  -0.6508  -0.6504  -0.6422
    -0.6398  -0.6210  -0.5958  -0.5875  -0.5838  -0.5663  -0.5561  -0.5539
    -0.5508  -0.5399  -0.5396  -0.5368  -0.5346  -0.5219  -0.5153  -0.5145
    -0.5133  -0.4840  -0.4836  -0.4788  -0.4696  -0.4677  -0.4490  -0.4184
    -0.4169  -0.4083  -0.4072  -0.3428  -0.3383  -0.3060  -0.3033  -0.2493
    -0.2464  -0.2425  -0.2272  -0.2208   0.0141   0.0186   0.3554   0.3563
     0.4513   0.4545   0.6433   0.6679   0.6745   0.8036   0.8043   1.2355
     1.2377   1.2538   1.5195   1.5459   1.5475   1.8281   1.8311   1.8998
     1.9045   1.9295   1.9335   2.1579   2.1600   2.2467   2.2487   2.3358
     2.3889   2.3931   2.5507   2.6520   3.0827   3.0911   3.0923   3.0958
     3.1480   3.1494   3.4400   3.4413   3.7190   3.7277   3.8429   4.1365
     4.1703   4.1823   4.4101   4.4225   4.4730   4.4831   4.5711   4.6818
     4.6944   4.8048   4.8090   5.1073   5.1643   5.1856   5.3518   5.3724
     5.4534   5.5580   5.5703   5.5937   5.5965   5.6528   5.6584   5.7227
     5.8987   6.0820   6.2572   6.2848   6.3480   6.3945   6.4036   6.4082
     6.4176   6.5574   6.6493   6.6580   6.6822   6.8667   6.8934   6.9207
     6.9347   7.0366   7.1030

          k = 0.0000 0.2887 0.1111 (136898 PWs)   bands (ev):

   -18.6619  -6.8712  -6.5870  -5.8021  -5.5095  -5.4529  -5.4521  -4.9149
    -4.9146  -4.7831  -4.7823  -4.6275  -4.6010  -4.5352  -4.5018  -4.5015
    -4.4687  -4.4681  -4.3399  -4.2988  -4.2978  -4.2387  -4.2179  -4.2171
    -4.1157  -4.1144  -4.0798  -4.0780  -4.0780  -4.0521  -4.0301  -4.0298
    -3.9280  -3.9235  -3.9223  -3.9029  -3.8867  -3.8849  -3.8742  -3.8724
    -3.8613  -3.8310  -3.8300  -3.8299  -3.8278  -3.7986  -3.7969  -3.7802
    -3.7779  -3.7688  -3.7285  -3.7247  -3.6922  -3.6793  -3.6749  -3.6697
    -3.6694  -3.5963  -3.5955  -3.5635  -3.5590  -3.5582  -3.4929  -3.4895
    -3.4807  -3.4735  -3.4481  -3.4467  -3.4451  -3.4436  -3.2940  -3.2877
    -3.2763  -3.2706  -3.2651  -3.2441  -3.2424  -3.2187  -3.2178  -3.1715
    -3.1666  -3.1563  -3.1499  -3.1371  -3.0977  -3.0876  -3.0801  -3.0590
    -3.0566  -3.0323  -3.0175  -3.0161  -3.0082  -3.0049  -2.9912  -2.9594
    -2.9537  -2.9441  -2.9367  -2.9296  -2.9274  -2.9235  -2.8981  -2.8493
    -2.8491  -2.8378  -2.8156  -2.8048  -2.7622  -2.7458  -2.7280  -2.7210
    -2.7129  -2.7126  -2.7045  -2.6793  -2.6729  -2.6664  -2.6514  -2.6307
    -2.6263  -2.6201  -2.6041  -2.6039  -2.5936  -2.5928  -2.5881  -2.5835
    -2.5783  -2.5331  -2.5040  -2.5027  -2.4812  -2.4713  -2.4690  -2.4642
    -2.4567  -2.4562  -2.4558  -2.4301  -2.4260  -2.4222  -2.4154  -2.4152
    -2.4007  -2.3744  -2.3733  -2.3706  -2.3692  -2.3680  -2.3242  -2.2956
    -2.2922  -2.2915  -2.2851  -2.2775  -2.2722  -2.2638  -2.2468  -2.2466
    -2.2190  -2.2124  -2.2115  -2.1987  -2.1942  -2.1938  -2.1609  -2.1603
    -2.1247  -2.1154  -2.1130  -2.1113  -2.1093  -2.1037  -2.1020  -2.0980
    -2.0975  -2.0924  -2.0922  -2.0771  -2.0756  -1.9578  -1.9516  -1.9208
    -1.9120  -1.9102  -1.9020  -1.9017  -1.8922  -1.8848  -1.8820  -1.8805
    -1.8750  -1.8611  -1.8544  -1.8521  -1.8407  -1.8352  -1.8347  -1.8174
    -1.8129  -1.7889  -1.7857  -1.7574  -1.7540  -1.7461  -1.7361  -1.7179
    -1.7174  -1.7132  -1.6977  -1.6861  -1.6836  -1.6758  -1.6752  -1.6512
    -1.6496  -1.6353  -1.6344  -1.6034  -1.5961  -1.5900  -1.5460  -1.5409
    -1.5269  -1.5253  -1.5213  -1.4995  -1.4960  -1.4689  -1.4634  -1.4632
    -1.4305  -1.4247  -1.4202  -1.4039  -1.4020  -1.3805  -1.3784  -1.3727
    -1.3509  -1.3431  -1.3419  -1.2881  -1.2792  -1.2724  -1.2668  -1.2566
    -1.2508  -1.2377  -1.2374  -1.2196  -1.2064  -1.1833  -1.1779  -1.1662
    -1.1362  -1.1311  -1.1290  -1.1188  -1.1178  -1.1144  -1.1124  -1.1088
    -1.0943  -1.0723  -1.0702  -1.0575  -1.0533  -1.0497  -1.0487  -1.0316
    -1.0118  -1.0074  -0.9898  -0.9858  -0.8982  -0.8888  -0.8796  -0.8779
    -0.8721  -0.8697  -0.8675  -0.8464  -0.8418  -0.8312  -0.8277  -0.8132
    -0.8124  -0.8074  -0.7873  -0.7811  -0.7804  -0.7722  -0.7008  -0.6989
    -0.6779  -0.6683  -0.6611  -0.6566  -0.6558  -0.6508  -0.6504  -0.6422
    -0.6398  -0.6210  -0.5958  -0.5875  -0.5838  -0.5663  -0.5561  -0.5539
    -0.5508  -0.5398  -0.5396  -0.5368  -0.5346  -0.5219  -0.5153  -0.5145
    -0.5133  -0.4840  -0.4836  -0.4789  -0.4696  -0.4677  -0.4490  -0.4184
    -0.4169  -0.4083  -0.4072  -0.3428  -0.3383  -0.3060  -0.3033  -0.2493
    -0.2464  -0.2425  -0.2272  -0.2208   0.0141   0.0186   0.3554   0.3563
     0.4513   0.4545   0.6433   0.6679   0.6745   0.8036   0.8043   1.2355
     1.2377   1.2538   1.5195   1.5459   1.5475   1.8281   1.8311   1.8998
     1.9045   1.9295   1.9335   2.1579   2.1600   2.2467   2.2487   2.3358
     2.3889   2.3930   2.5506   2.6520   3.0827   3.0911   3.0923   3.0958
     3.1480   3.1494   3.4400   3.4413   3.7190   3.7277   3.8429   4.1365
     4.1703   4.1823   4.4101   4.4225   4.4730   4.4831   4.5711   4.6818
     4.6944   4.8048   4.8090   5.1073   5.1643   5.1856   5.3519   5.3724
     5.4533   5.5580   5.5703   5.5937   5.5965   5.6528   5.6584   5.7224
     5.9012   6.0791   6.2568   6.2818   6.3477   6.3946   6.4035   6.4081
     6.4177   6.5656   6.6505   6.6580   6.6830   6.8638   6.8936   6.9163
     6.9347   7.0449   7.1098

     the Fermi energy is     1.3822 ev

!    total energy              =   -6604.40758529 Ry
     Harris-Foulkes estimate   =   -6604.40758529 Ry
     estimated scf accuracy    <          7.7E-09 Ry

     The total energy is the sum of the following terms:

     one-electron contribution =  -48759.28775670 Ry
     hartree contribution      =   24879.41481186 Ry
     xc contribution           =   -3205.03748729 Ry
     ewald contribution        =   20480.49994483 Ry
     smearing contrib. (-TS)   =       0.00290201 Ry

     convergence has been achieved in  23 iterations

     Writing output data file 6323832.save

     init_run     :    150.38s CPU    185.94s WALL (       1 calls)
     electrons    :   8269.86s CPU   9050.54s WALL (       1 calls)

     Called by init_run:
     wfcinit      :    123.48s CPU    154.71s WALL (       1 calls)
     potinit      :      8.16s CPU     12.08s WALL (       1 calls)

     Called by electrons:
     c_bands      :   6980.04s CPU   7634.65s WALL (      24 calls)
     sum_band     :    975.07s CPU   1063.38s WALL (      24 calls)
     v_of_rho     :     83.97s CPU     94.05s WALL (      24 calls)
     newd         :    236.32s CPU    239.50s WALL (      24 calls)
     mix_rho      :      2.56s CPU      2.86s WALL (      24 calls)
     vdW_energy   :      7.30s CPU      8.36s WALL (      24 calls)
     vdW_ffts     :     41.04s CPU     45.72s WALL (      48 calls)
     vdW_v        :     11.11s CPU     11.95s WALL (      24 calls)

     Called by c_bands:
     init_us_2    :     16.84s CPU     17.38s WALL (     588 calls)
     cegterg      :   6903.96s CPU   7336.06s WALL (     288 calls)

     Called by *egterg:
     h_psi        :   3114.26s CPU   3475.57s WALL (    1555 calls)
     s_psi        :    409.53s CPU    412.33s WALL (    1555 calls)
     g_psi        :      5.87s CPU      5.93s WALL (    1255 calls)
     cdiaghg      :   1973.02s CPU   1977.59s WALL (    1531 calls)

     Called by h_psi:
     add_vuspsi   :    409.06s CPU    411.67s WALL (    1555 calls)

     General routines
     calbec       :    631.75s CPU    634.00s WALL (    1843 calls)
     fft          :    119.77s CPU    128.28s WALL (    1584 calls)
     ffts         :      1.20s CPU      1.44s WALL (      48 calls)
     fftw         :   2428.05s CPU   2796.35s WALL (  704378 calls)
     interpolate  :      3.33s CPU      3.99s WALL (      48 calls)
     davcio       :      0.00s CPU      0.25s WALL (      12 calls)

     Parallel routines
     fft_scatter  :   1790.26s CPU   2046.10s WALL (  706010 calls)

     PWSCF        :     2h20m CPU        2h34m WALL


   This run was terminated on:   2: 1:12  30Jun2015            

=------------------------------------------------------------------------------=
   JOB DONE.
=------------------------------------------------------------------------------=
