Setting SGE environment for SCC

     Program PWSCF v.5.1.2 starts on 23Jun2015 at 12:26:33 

     This program is part of the open-source Quantum ESPRESSO suite
     for quantum simulation of materials; please cite
         "P. Giannozzi et al., J. Phys.:Condens. Matter 21 395502 (2009);
          URL http://www.quantum-espresso.org", 
     in publications or presentations arising from this work. More details at
     http://www.quantum-espresso.org/quote

     Parallel version (MPI), running on    32 processors
     R & G space division:  proc/nbgrp/npool/nimage =      32
     Reading input from top.O1.Au50.d.2.6.phi.0.psi.0.in
Warning: card &IONS ignored
Warning: card / ignored
Warning: card &CELL ignored
Warning: card / ignored

     Current dimensions of program PWSCF are:
     Max number of different atomic species (ntypx) = 10
     Max number of k-points (npk) =  40000
     Max angular momentum in pseudopotentials (lmaxx) =  3

     IMPORTANT: XC functional enforced from input :
     Exchange-correlation      = VDW-DF ( 1  4  4  0 1 0)
     Any further DFT definition will be discarded
     Please, verify this is what you really want


     Subspace diagonalization in iterative solution of the eigenvalue problem:
     a serial algorithm will be used


     Parallelization info
     --------------------
     sticks:   dense  smooth     PW     G-vecs:    dense   smooth      PW
     Min         445     223     58                96775    34191    4534
     Max         446     224     59                96790    34246    4540
     Sum       14269    7147   1867              3097177  1095093  145167


     Title: 
     top.O1.Au50.d.2.6.phi.0.psi.0                                              


     bravais-lattice index     =            4
     lattice parameter (alat)  =      22.7436  a.u.
     unit-cell volume          =   22924.1508 (a.u.)^3
     number of atoms/cell      =           67
     number of atomic types    =            3
     number of electrons       =       712.00
     number of Kohn-Sham states=          427
     kinetic-energy cutoff     =      50.0000  Ry
     charge density cutoff     =     400.0000  Ry
     convergence threshold     =      1.0E-08
     mixing beta               =       0.7000
     number of iterations used =            8  plain     mixing
     Exchange-correlation      = VDW-DF ( 1  4  4  0 1 0)

     celldm(1)=  22.743643  celldm(2)=   0.000000  celldm(3)=   2.250000
     celldm(4)=   0.000000  celldm(5)=   0.000000  celldm(6)=   0.000000

     crystal axes: (cart. coord. in units of alat)
               a(1) = (   1.000000   0.000000   0.000000 )  
               a(2) = (  -0.500000   0.866025   0.000000 )  
               a(3) = (   0.000000   0.000000   2.250000 )  

     reciprocal axes: (cart. coord. in units 2 pi/alat)
               b(1) = (  1.000000  0.577350 -0.000000 )  
               b(2) = (  0.000000  1.154701  0.000000 )  
               b(3) = (  0.000000 -0.000000  0.444444 )  


     PseudoPot. # 1 for Au read from file:
     /home/scc/andrejb/qe/pseudo/Au.pbe-nd-van.UPF
     MD5 check sum: 458681b50f36d87ef23c61b04bba420a
     Pseudo is Ultrasoft + core correction, Zval = 11.0
     Generated by new atomic code, or converted to UPF format
     Using radial grid of  985 points,  3 beta functions with: 
                l(1) =   1
                l(2) =   2
                l(3) =   2
     Q(r) pseudized with  8 coefficients,  rinner =    1.100   1.100   1.100
                                                       1.100   1.100

     PseudoPot. # 2 for H  read from file:
     /home/scc/andrejb/qe/pseudo/H.pbe-van_ak.UPF
     MD5 check sum: 403db7282739603aa925980fa9b8608d
     Pseudo is Ultrasoft, Zval =  1.0
     Generated by new atomic code, or converted to UPF format
     Using radial grid of  615 points,  1 beta functions with: 
                l(1) =   0
     Q(r) pseudized with  8 coefficients,  rinner =    0.800

     PseudoPot. # 3 for O  read from file:
     /home/scc/andrejb/qe/pseudo/O.pbe-van_ak.UPF
     MD5 check sum: 4b8c549914a63cae506c6ff22b5af4fe
     Pseudo is Ultrasoft, Zval =  6.0
     Generated by new atomic code, or converted to UPF format
     Using radial grid of  737 points,  4 beta functions with: 
                l(1) =   0
                l(2) =   0
                l(3) =   1
                l(4) =   1
     Q(r) pseudized with  8 coefficients,  rinner =    0.800   0.800   0.800


     vdW kernel table read from file vdW_kernel_table
     MD5 check sum: 48e77a2e26edf626eeb0eaa751ad5cac

     atomic species   valence    mass     pseudopotential
        Au            11.00   196.96657     Au( 1.00)
        H              1.00     1.01000     H ( 1.00)
        O              6.00    16.00000     O ( 1.00)

     No symmetry found



   Cartesian axes

     site n.     atom                  positions (alat units)
         1           O   tau(   1) = (   0.4790780   0.3968269   0.8290259  )
         2           H   tau(   2) = (   0.4291446   0.3552792   0.8772795  )
         3           H   tau(   3) = (   0.5274974   0.4371337   0.8797866  )
         4           Au  tau(   4) = (   0.3540481   0.6132292   0.0000000  )
         5           Au  tau(   5) = (   0.4790062   0.3967954   0.0000000  )
         6           Au  tau(   6) = (   0.6039644   0.1803616   0.0000000  )
         7           Au  tau(   7) = (   0.7289225  -0.0360723   0.0000000  )
         8           Au  tau(   8) = (   0.1041318   0.6132292   0.0000000  )
         9           Au  tau(   9) = (   0.2290899   0.3967954   0.0000000  )
        10           Au  tau(  10) = (   0.3540481   0.1803616   0.0000000  )
        11           Au  tau(  11) = (   0.4790062  -0.0360723   0.0000000  )
        12           Au  tau(  12) = (  -0.1457845   0.6132292   0.0000000  )
        13           Au  tau(  13) = (  -0.0208264   0.3967954   0.0000000  )
        14           Au  tau(  14) = (   0.1041318   0.1803616   0.0000000  )
        15           Au  tau(  15) = (   0.2290899  -0.0360723   0.0000000  )
        16           Au  tau(  16) = (  -0.3957008   0.6132292   0.0000000  )
        17           Au  tau(  17) = (  -0.2707426   0.3967954   0.0000000  )
        18           Au  tau(  18) = (  -0.1457845   0.1803616   0.0000000  )
        19           Au  tau(  19) = (  -0.0208264  -0.0360723   0.0000000  )
        20           Au  tau(  20) = (   0.4790062   0.6853738   0.2040557  )
        21           Au  tau(  21) = (   0.6039644   0.4689400   0.2040557  )
        22           Au  tau(  22) = (   0.7289225   0.2525062   0.2040557  )
        23           Au  tau(  23) = (   0.8538806   0.0360723   0.2040557  )
        24           Au  tau(  24) = (   0.2290899   0.6853738   0.2040557  )
        25           Au  tau(  25) = (   0.3540481   0.4689400   0.2040557  )
        26           Au  tau(  26) = (   0.4790062   0.2525062   0.2040557  )
        27           Au  tau(  27) = (   0.6039644   0.0360723   0.2040557  )
        28           Au  tau(  28) = (  -0.0208264   0.6853738   0.2040557  )
        29           Au  tau(  29) = (   0.1041318   0.4689400   0.2040557  )
        30           Au  tau(  30) = (   0.2290899   0.2525062   0.2040557  )
        31           Au  tau(  31) = (   0.3540481   0.0360723   0.2040557  )
        32           Au  tau(  32) = (  -0.2707426   0.6853738   0.2040557  )
        33           Au  tau(  33) = (  -0.1457845   0.4689400   0.2040557  )
        34           Au  tau(  34) = (  -0.0208264   0.2525062   0.2040557  )
        35           Au  tau(  35) = (   0.1041318   0.0360723   0.2040557  )
        36           Au  tau(  36) = (   0.3541162   0.7576593   0.4066483  )
        37           Au  tau(  37) = (   0.4791000   0.5411421   0.4066696  )
        38           Au  tau(  38) = (   0.6040570   0.3246862   0.4066618  )
        39           Au  tau(  39) = (   0.7290270   0.1081684   0.4066530  )
        40           Au  tau(  40) = (   0.1041162   0.7576236   0.4066247  )
        41           Au  tau(  41) = (   0.2291001   0.5411062   0.4066455  )
        42           Au  tau(  42) = (   0.3540567   0.3246505   0.4066380  )
        43           Au  tau(  43) = (   0.4790276   0.1081324   0.4066292  )
        44           Au  tau(  44) = (  -0.1458201   0.7576104   0.4066225  )
        45           Au  tau(  45) = (  -0.0208365   0.5410930   0.4066438  )
        46           Au  tau(  46) = (   0.1041202   0.3246372   0.4066359  )
        47           Au  tau(  47) = (   0.2290908   0.1081193   0.4066273  )
        48           Au  tau(  48) = (  -0.3958167   0.7575791   0.4065812  )
        49           Au  tau(  49) = (  -0.2708328   0.5410617   0.4066025  )
        50           Au  tau(  50) = (  -0.1458763   0.3246061   0.4065947  )
        51           Au  tau(  51) = (  -0.0209056   0.1080882   0.4065858  )
        52           Au  tau(  52) = (   0.3541084   0.6133344   0.6129762  )
        53           Au  tau(  53) = (   0.4790780   0.3968269   0.6129968  )
        54           Au  tau(  54) = (   0.6040356   0.1803811   0.6129859  )
        55           Au  tau(  55) = (   0.7290165  -0.0361221   0.6129385  )
        56           Au  tau(  56) = (   0.1041243   0.6133091   0.6130023  )
        57           Au  tau(  57) = (   0.2290941   0.3968013   0.6130241  )
        58           Au  tau(  58) = (   0.3540515   0.1803552   0.6130121  )
        59           Au  tau(  59) = (   0.4790323  -0.0361475   0.6129659  )
        60           Au  tau(  60) = (  -0.1458030   0.6133014   0.6129980  )
        61           Au  tau(  61) = (  -0.0208339   0.3967936   0.6130189  )
        62           Au  tau(  62) = (   0.1041239   0.1803477   0.6130083  )
        63           Au  tau(  63) = (   0.2291046  -0.0361554   0.6129607  )
        64           Au  tau(  64) = (  -0.3957908   0.6132739   0.6129471  )
        65           Au  tau(  65) = (  -0.2708208   0.3967658   0.6129688  )
        66           Au  tau(  66) = (  -0.1458636   0.1803200   0.6129569  )
        67           Au  tau(  67) = (  -0.0208823  -0.0361826   0.6129110  )

     number of k points=    12  Marzari-Vanderbilt smearing, width (Ry)=  0.0200
                       cart. coord. in units 2pi/alat
        k(    1) = (   0.2500000   0.4330127   0.1111111), wk =   0.1666667
        k(    2) = (   0.2500000  -0.1443376   0.1111111), wk =   0.1666667
        k(    3) = (  -0.2500000  -0.4330127   0.1111111), wk =   0.1666667
        k(    4) = (  -0.2500000   0.4330127  -0.1111111), wk =   0.1666667
        k(    5) = (   0.2500000  -0.4330127  -0.1111111), wk =   0.1666667
        k(    6) = (   0.5000000   0.0000000   0.1111111), wk =   0.1666667
        k(    7) = (  -0.5000000   0.0000000   0.1111111), wk =   0.1666667
        k(    8) = (  -0.2500000   0.1443376   0.1111111), wk =   0.1666667
        k(    9) = (  -0.2500000  -0.1443376  -0.1111111), wk =   0.1666667
        k(   10) = (   0.2500000   0.1443376  -0.1111111), wk =   0.1666667
        k(   11) = (   0.0000000  -0.2886751   0.1111111), wk =   0.1666667
        k(   12) = (   0.0000000   0.2886751   0.1111111), wk =   0.1666667

     Dense  grid:  3097177 G-vectors     FFT dimensions: ( 150, 150, 360)

     Smooth grid:  1095093 G-vectors     FFT dimensions: ( 108, 108, 240)

     Largest allocated arrays     est. size (Mb)     dimensions
        Kohn-Sham Wavefunctions        28.01 Mb     (    4299,  427)
        NL pseudopotentials            55.23 Mb     (    4299,  842)
        Each V/rho on FFT grid          4.12 Mb     (  270000)
        Each G-vector array             0.74 Mb     (   96788)
        G-vector shells                 0.16 Mb     (   21404)
     Largest temporary arrays     est. size (Mb)     dimensions
        Auxiliary wavefunctions       112.04 Mb     (    4299, 1708)
        Each subspace H/S matrix       44.51 Mb     (    1708, 1708)
        Each <psi_i|beta_j> matrix      5.49 Mb     (     842,  427)
        Arrays for rho mixing          32.96 Mb     (  270000,    8)

     Initial potential from superposition of free atoms
     Check: negative starting charge=   -1.730258

     starting charge  711.25682, renormalised to  712.00000

     negative rho (up, down):  1.732E+00 0.000E+00


     ************************************************************************
     *
     * You are using vdW-DF for exchange-correlation in this calculation.
     * Please cite the following three references that made this development
     * possible:
     *
     *   M. Dion, H. Rydberg, E. Schroder, D. C. Langreth, and
     *   B. I. Lundqvist, Phys. Rev. Lett. 92, 246401 (2004).
     *
     *   T. Thonhauser, V. R. Cooper, S. Li, A. Puzder, P. Hyldgaard, and
     *   D. C. Langreth, Phys. Rev. B 76, 125112 (2007).
     *
     *   G. Roman-Perez and J. M. Soler, Phys. Rev. Lett. 103, 096102 (2009).
     *
     *
     * If you are using vdW-DF2, please also cite:
     *
     *   K. Lee, E. D. Murray, L. Kong, B. I. Lundqvist, and
     *   D. C. Langreth, Phys. Rev. B 82, 081101(R) (2010).
     *
     *
     * If you are calculating the stress with vdW-DF, please also cite:
     *
     *   R. Sabatini, E. Kucukbenli, B. Kolb, T. Thonhauser, and
     *   S. de Gironcoli, J. Phys.: Condens. Matter 24, 424209 (2012).
     *
     ************************************************************************

     Carrying out vdW-DF run using the following parameters:

     Nqs =      20    Nr_points =    1024   r_max =   100.000
     q_mesh =
               0.00001000     0.04494208     0.09755937     0.15916263
               0.23128650     0.31572767     0.41458969     0.53033537
               0.66584808     0.82450364     1.01025438     1.22772762
               1.48234092     1.78043706     2.12944203     2.53805004
               3.01644009     3.57652955     4.23227104     5.00000000

     Gradients computed in reciprocal space

     ************************************************************************


     Starting wfc are  582 randomized atomic wfcs

     total cpu time spent up to now is      155.2 secs

     Self-consistent Calculation

     iteration #  1     ecut=    50.00 Ry     beta=0.70
     Davidson diagonalization with overlap
     ethr =  1.00E-02,  avg # of iterations =  3.0

     Threshold (ethr) on eigenvalues was too large:
     Diagonalizing with lowered threshold

     Davidson diagonalization with overlap
     ethr =  3.58E-04,  avg # of iterations =  4.8

     negative rho (up, down):  1.728E+00 0.000E+00

     total cpu time spent up to now is      746.9 secs

     total energy              =   -6602.74212330 Ry
     Harris-Foulkes estimate   =   -6605.04944062 Ry
     estimated scf accuracy    <       2.88505471 Ry

     iteration #  2     ecut=    50.00 Ry     beta=0.70
     Davidson diagonalization with overlap
     ethr =  4.05E-04,  avg # of iterations = 11.1

     negative rho (up, down):  1.725E+00 0.000E+00

     total cpu time spent up to now is     1730.1 secs

     total energy              =   -6595.63880049 Ry
     Harris-Foulkes estimate   =   -6610.45669017 Ry
     estimated scf accuracy    <      87.04402461 Ry

     iteration #  3     ecut=    50.00 Ry     beta=0.70
     Davidson diagonalization with overlap
     ethr =  4.05E-04,  avg # of iterations =  6.0

     negative rho (up, down):  1.732E+00 0.000E+00

     total cpu time spent up to now is     2317.1 secs

     total energy              =   -6602.87957249 Ry
     Harris-Foulkes estimate   =   -6605.06772777 Ry
     estimated scf accuracy    <      11.09735487 Ry

     iteration #  4     ecut=    50.00 Ry     beta=0.70
     Davidson diagonalization with overlap
     ethr =  4.05E-04,  avg # of iterations =  7.1

     negative rho (up, down):  1.736E+00 0.000E+00

     total cpu time spent up to now is     2714.9 secs

     total energy              =   -6602.91811506 Ry
     Harris-Foulkes estimate   =   -6605.65977643 Ry
     estimated scf accuracy    <      30.77760515 Ry

     iteration #  5     ecut=    50.00 Ry     beta=0.70
     Davidson diagonalization with overlap
     ethr =  4.05E-04,  avg # of iterations =  6.8

     negative rho (up, down):  1.746E+00 0.000E+00

     total cpu time spent up to now is     3086.9 secs

     total energy              =   -6604.35185952 Ry
     Harris-Foulkes estimate   =   -6604.58368141 Ry
     estimated scf accuracy    <       1.18762431 Ry

     iteration #  6     ecut=    50.00 Ry     beta=0.70
     Davidson diagonalization with overlap
     ethr =  1.67E-04,  avg # of iterations =  3.4

     negative rho (up, down):  1.750E+00 0.000E+00

     total cpu time spent up to now is     3376.9 secs

     total energy              =   -6604.40839628 Ry
     Harris-Foulkes estimate   =   -6604.47286256 Ry
     estimated scf accuracy    <       0.20700320 Ry

     iteration #  7     ecut=    50.00 Ry     beta=0.70
     Davidson diagonalization with overlap
     ethr =  2.91E-05,  avg # of iterations =  9.4

     negative rho (up, down):  1.753E+00 0.000E+00

     total cpu time spent up to now is     3782.1 secs

     total energy              =   -6604.42491389 Ry
     Harris-Foulkes estimate   =   -6604.45101259 Ry
     estimated scf accuracy    <       0.10675316 Ry

     iteration #  8     ecut=    50.00 Ry     beta=0.70
     Davidson diagonalization with overlap
     ethr =  1.50E-05,  avg # of iterations =  6.9

     negative rho (up, down):  1.754E+00 0.000E+00

     total cpu time spent up to now is     4126.7 secs

     total energy              =   -6604.42683729 Ry
     Harris-Foulkes estimate   =   -6604.44190784 Ry
     estimated scf accuracy    <       0.05230877 Ry

     iteration #  9     ecut=    50.00 Ry     beta=0.70
     Davidson diagonalization with overlap
     ethr =  7.35E-06,  avg # of iterations = 11.3

     negative rho (up, down):  1.755E+00 0.000E+00

     total cpu time spent up to now is     4570.1 secs

     total energy              =   -6604.42949738 Ry
     Harris-Foulkes estimate   =   -6604.43506193 Ry
     estimated scf accuracy    <       0.01603717 Ry

     iteration # 10     ecut=    50.00 Ry     beta=0.70
     Davidson diagonalization with overlap
     ethr =  2.25E-06,  avg # of iterations =  8.4

     negative rho (up, down):  1.756E+00 0.000E+00

     total cpu time spent up to now is     4959.1 secs

     total energy              =   -6604.43104024 Ry
     Harris-Foulkes estimate   =   -6604.43266571 Ry
     estimated scf accuracy    <       0.00591045 Ry

     iteration # 11     ecut=    50.00 Ry     beta=0.70
     Davidson diagonalization with overlap
     ethr =  8.30E-07,  avg # of iterations =  6.8

     negative rho (up, down):  1.757E+00 0.000E+00

     total cpu time spent up to now is     5308.6 secs

     total energy              =   -6604.43149184 Ry
     Harris-Foulkes estimate   =   -6604.43210716 Ry
     estimated scf accuracy    <       0.00285845 Ry

     iteration # 12     ecut=    50.00 Ry     beta=0.70
     Davidson diagonalization with overlap
     ethr =  4.01E-07,  avg # of iterations =  3.3

     negative rho (up, down):  1.757E+00 0.000E+00

     total cpu time spent up to now is     5577.4 secs

     total energy              =   -6604.43160143 Ry
     Harris-Foulkes estimate   =   -6604.43182056 Ry
     estimated scf accuracy    <       0.00049259 Ry

     iteration # 13     ecut=    50.00 Ry     beta=0.70
     Davidson diagonalization with overlap
     ethr =  6.92E-08,  avg # of iterations =  7.3

     negative rho (up, down):  1.757E+00 0.000E+00

     total cpu time spent up to now is     5986.9 secs

     total energy              =   -6604.43163792 Ry
     Harris-Foulkes estimate   =   -6604.43174665 Ry
     estimated scf accuracy    <       0.00038567 Ry

     iteration # 14     ecut=    50.00 Ry     beta=0.70
     Davidson diagonalization with overlap
     ethr =  5.42E-08,  avg # of iterations =  2.0

     negative rho (up, down):  1.757E+00 0.000E+00

     total cpu time spent up to now is     6237.4 secs

     total energy              =   -6604.43167756 Ry
     Harris-Foulkes estimate   =   -6604.43171358 Ry
     estimated scf accuracy    <       0.00019000 Ry

     iteration # 15     ecut=    50.00 Ry     beta=0.70
     Davidson diagonalization with overlap
     ethr =  2.67E-08,  avg # of iterations =  2.0

     negative rho (up, down):  1.757E+00 0.000E+00

     total cpu time spent up to now is     6490.6 secs

     total energy              =   -6604.43169599 Ry
     Harris-Foulkes estimate   =   -6604.43170509 Ry
     estimated scf accuracy    <       0.00006264 Ry

     iteration # 16     ecut=    50.00 Ry     beta=0.70
     Davidson diagonalization with overlap
     ethr =  8.80E-09,  avg # of iterations =  2.0

     negative rho (up, down):  1.757E+00 0.000E+00

     total cpu time spent up to now is     6729.7 secs

     total energy              =   -6604.43169810 Ry
     Harris-Foulkes estimate   =   -6604.43170360 Ry
     estimated scf accuracy    <       0.00002644 Ry

     iteration # 17     ecut=    50.00 Ry     beta=0.70
     Davidson diagonalization with overlap
     ethr =  3.71E-09,  avg # of iterations =  1.8

     negative rho (up, down):  1.757E+00 0.000E+00

     total cpu time spent up to now is     6980.4 secs

     total energy              =   -6604.43170030 Ry
     Harris-Foulkes estimate   =   -6604.43170186 Ry
     estimated scf accuracy    <       0.00000703 Ry

     iteration # 18     ecut=    50.00 Ry     beta=0.70
     Davidson diagonalization with overlap
     ethr =  9.88E-10,  avg # of iterations =  2.0

     negative rho (up, down):  1.757E+00 0.000E+00

     total cpu time spent up to now is     7229.9 secs

     total energy              =   -6604.43170104 Ry
     Harris-Foulkes estimate   =   -6604.43170146 Ry
     estimated scf accuracy    <       0.00000193 Ry

     iteration # 19     ecut=    50.00 Ry     beta=0.70
     Davidson diagonalization with overlap
     ethr =  2.71E-10,  avg # of iterations =  3.0

     negative rho (up, down):  1.757E+00 0.000E+00

     total cpu time spent up to now is     7505.0 secs

     total energy              =   -6604.43170131 Ry
     Harris-Foulkes estimate   =   -6604.43170135 Ry
     estimated scf accuracy    <       0.00000028 Ry

     iteration # 20     ecut=    50.00 Ry     beta=0.70
     Davidson diagonalization with overlap
     ethr =  3.92E-11,  avg # of iterations =  2.0

     negative rho (up, down):  1.757E+00 0.000E+00

     total cpu time spent up to now is     7791.3 secs

     total energy              =   -6604.43170140 Ry
     Harris-Foulkes estimate   =   -6604.43170138 Ry
     estimated scf accuracy    <       0.00000009 Ry

     iteration # 21     ecut=    50.00 Ry     beta=0.70
     Davidson diagonalization with overlap
     ethr =  1.29E-11,  avg # of iterations =  2.0

     negative rho (up, down):  1.757E+00 0.000E+00

     total cpu time spent up to now is     8073.9 secs

     total energy              =   -6604.43170144 Ry
     Harris-Foulkes estimate   =   -6604.43170142 Ry
     estimated scf accuracy    <       0.00000005 Ry

     iteration # 22     ecut=    50.00 Ry     beta=0.70
     Davidson diagonalization with overlap
     ethr =  7.39E-12,  avg # of iterations =  2.0

     negative rho (up, down):  1.757E+00 0.000E+00

     total cpu time spent up to now is     8327.2 secs

     total energy              =   -6604.43170144 Ry
     Harris-Foulkes estimate   =   -6604.43170144 Ry
     estimated scf accuracy    <       0.00000001 Ry

     iteration # 23     ecut=    50.00 Ry     beta=0.70
     Davidson diagonalization with overlap
     ethr =  1.74E-12,  avg # of iterations =  3.0

     negative rho (up, down):  1.757E+00 0.000E+00

     total cpu time spent up to now is     8603.5 secs

     End of self-consistent calculation

          k = 0.2500 0.4330 0.1111 (136853 PWs)   bands (ev):

   -19.6766  -7.4543  -6.1727  -5.7750  -5.7721  -5.1043  -4.7732  -4.7612
    -4.7451  -4.7230  -4.4209  -4.3605  -4.3439  -4.2618  -4.2564  -4.2439
    -4.2255  -4.1880  -4.0940  -4.0902  -4.0678  -4.0262  -4.0261  -3.9578
    -3.9569  -3.9523  -3.9361  -3.9293  -3.9239  -3.9213  -3.8536  -3.8473
    -3.8217  -3.8196  -3.8091  -3.8056  -3.7856  -3.7826  -3.7617  -3.7546
    -3.7533  -3.7235  -3.6760  -3.6748  -3.6270  -3.6266  -3.5708  -3.5678
    -3.5150  -3.5136  -3.5133  -3.5078  -3.4772  -3.4421  -3.4403  -3.4324
    -3.4308  -3.4306  -3.4018  -3.3976  -3.3929  -3.3321  -3.3314  -3.3230
    -3.3026  -3.2957  -3.2250  -3.2212  -3.1933  -3.1914  -3.1637  -3.1631
    -3.1487  -3.1301  -3.0745  -3.0718  -3.0558  -3.0537  -3.0063  -3.0003
    -2.9988  -2.9596  -2.9315  -2.9297  -2.9199  -2.9175  -2.9082  -2.9060
    -2.9008  -2.8996  -2.8891  -2.8474  -2.8097  -2.8082  -2.7962  -2.7958
    -2.7688  -2.7610  -2.7601  -2.7344  -2.6926  -2.6906  -2.6850  -2.6456
    -2.6367  -2.6264  -2.6244  -2.6014  -2.5970  -2.5664  -2.5330  -2.5311
    -2.5095  -2.5000  -2.4880  -2.4870  -2.4378  -2.4361  -2.4041  -2.3811
    -2.3801  -2.3599  -2.3556  -2.3459  -2.3435  -2.3341  -2.3155  -2.3130
    -2.2661  -2.2658  -2.2651  -2.2494  -2.2490  -2.2412  -2.2358  -2.2340
    -2.2328  -2.2310  -2.2233  -2.2142  -2.2129  -2.2106  -2.1858  -2.1759
    -2.1746  -2.1739  -2.1731  -2.1703  -2.1675  -2.1476  -2.1399  -2.1298
    -2.1256  -2.1061  -2.1050  -2.1006  -2.0964  -2.0955  -2.0943  -2.0803
    -2.0750  -2.0745  -2.0699  -2.0546  -2.0313  -2.0264  -1.9875  -1.9869
    -1.9649  -1.9637  -1.9421  -1.9349  -1.9249  -1.9084  -1.8992  -1.8864
    -1.8691  -1.8581  -1.8393  -1.8340  -1.8312  -1.8282  -1.8241  -1.8198
    -1.7940  -1.7855  -1.7778  -1.7501  -1.7215  -1.7175  -1.7153  -1.7103
    -1.6868  -1.6625  -1.6567  -1.6555  -1.6280  -1.6221  -1.5704  -1.5693
    -1.5374  -1.5204  -1.5140  -1.4605  -1.4575  -1.4482  -1.4460  -1.4373
    -1.4362  -1.4312  -1.4238  -1.4206  -1.3669  -1.3634  -1.3566  -1.3547
    -1.3494  -1.3370  -1.3234  -1.3017  -1.2967  -1.2837  -1.2828  -1.2789
    -1.2747  -1.2677  -1.2621  -1.2572  -1.2409  -1.2396  -1.2005  -1.1952
    -1.1891  -1.1808  -1.1641  -1.1526  -1.1127  -1.1082  -1.0843  -1.0809
    -1.0787  -1.0493  -0.9999  -0.9980  -0.9966  -0.9947  -0.9909  -0.9865
    -0.9790  -0.9623  -0.9607  -0.9233  -0.9212  -0.8919  -0.8916  -0.8844
    -0.8829  -0.8795  -0.8619  -0.8613  -0.8594  -0.8573  -0.8545  -0.8215
    -0.8170  -0.8161  -0.8138  -0.7875  -0.7836  -0.7807  -0.7588  -0.7499
    -0.7454  -0.7035  -0.6969  -0.6915  -0.6612  -0.6529  -0.6431  -0.6421
    -0.6368  -0.6349  -0.6321  -0.6271  -0.6203  -0.6119  -0.5951  -0.5933
    -0.5899  -0.5886  -0.5838  -0.5506  -0.5503  -0.5408  -0.5380  -0.5228
    -0.5174  -0.5095  -0.5026  -0.4487  -0.4471  -0.4394  -0.4388  -0.4365
    -0.4358  -0.4286  -0.4130  -0.4077  -0.4037  -0.4027  -0.4011  -0.3893
    -0.3608  -0.3598  -0.3583  -0.3508  -0.3486  -0.3445  -0.3435  -0.3313
    -0.3257  -0.3241  -0.3008  -0.2817  -0.2799  -0.2731  -0.2689  -0.2648
    -0.1927  -0.1912  -0.1888  -0.1861  -0.1795  -0.1742  -0.1424  -0.1307
    -0.1297  -0.1046  -0.0980  -0.0647   0.0222   0.0273   0.1259   0.5421
     0.5426   0.5450   0.5456   0.6021   0.6251   0.9941   0.9947   1.0358
     1.0376   1.1469   1.2311   1.3325   1.3532   1.5490   1.5876   2.1891
     2.1992   2.3484   2.3624   2.4782   2.5064   2.5912   2.5914   2.7455
     2.9723   2.9830   3.1096   3.3239   3.3434   3.4122   3.4157   3.5130
     3.5305   3.7047   3.7075   3.7855   3.9875   3.9880   4.0452   4.0564
     4.3055   4.3059   4.3299   4.5573   4.5944   4.6034   4.6468   4.9690
     4.9803   4.9857   5.0175   5.1487   5.3175   5.3187   5.3485   5.4182
     5.6853   5.9311   6.0668   6.1006   6.1046   6.1249   6.1747   6.1790
     6.2160   6.2813   6.3093   6.3314   6.3329   6.3398   6.3466   6.3874
     6.3982   6.4556   6.5048   6.5730   6.6930   6.7573   6.9016   6.9854
     7.0375   7.0404   7.0597

          k = 0.2500-0.1443 0.1111 (136898 PWs)   bands (ev):

   -19.6766  -7.4543  -6.3826  -5.5910  -5.3066  -5.2419  -5.2398  -4.7087
    -4.7012  -4.6014  -4.5691  -4.4614  -4.4045  -4.3658  -4.3188  -4.2898
    -4.2609  -4.2541  -4.2137  -4.1251  -4.0837  -4.0832  -4.0216  -4.0041
    -3.9873  -3.9005  -3.8989  -3.8642  -3.8638  -3.8590  -3.8368  -3.8153
    -3.8126  -3.7117  -3.7085  -3.7061  -3.6876  -3.6711  -3.6674  -3.6591
    -3.6570  -3.6461  -3.6155  -3.6146  -3.6145  -3.6121  -3.5834  -3.5827
    -3.5644  -3.5624  -3.5525  -3.5104  -3.5078  -3.4748  -3.4631  -3.4589
    -3.4553  -3.4539  -3.3813  -3.3799  -3.3481  -3.3448  -3.3383  -3.2756
    -3.2751  -3.2606  -3.2551  -3.2308  -3.2302  -3.2293  -3.2253  -3.0749
    -3.0723  -3.0518  -3.0506  -3.0461  -3.0282  -3.0262  -3.0031  -3.0011
    -2.9525  -2.9508  -2.9363  -2.9357  -2.9147  -2.8689  -2.8677  -2.8488
    -2.8433  -2.8412  -2.8025  -2.8015  -2.7939  -2.7921  -2.7791  -2.7757
    -2.7392  -2.7383  -2.7175  -2.7171  -2.7138  -2.7114  -2.7077  -2.6354
    -2.6345  -2.6301  -2.6026  -2.5988  -2.5433  -2.5417  -2.5134  -2.5110
    -2.4989  -2.4976  -2.4908  -2.4640  -2.4630  -2.4519  -2.4365  -2.4163
    -2.4114  -2.4096  -2.3910  -2.3897  -2.3802  -2.3787  -2.3759  -2.3740
    -2.3641  -2.3183  -2.2885  -2.2879  -2.2717  -2.2583  -2.2522  -2.2511
    -2.2442  -2.2432  -2.2410  -2.2145  -2.2123  -2.2105  -2.2019  -2.1998
    -2.1864  -2.1613  -2.1584  -2.1575  -2.1562  -2.1520  -2.1090  -2.0821
    -2.0786  -2.0770  -2.0721  -2.0613  -2.0560  -2.0512  -2.0327  -2.0321
    -2.0051  -2.0012  -1.9983  -1.9885  -1.9805  -1.9795  -1.9623  -1.9469
    -1.9155  -1.9065  -1.9006  -1.8961  -1.8940  -1.8933  -1.8886  -1.8875
    -1.8850  -1.8807  -1.8791  -1.8658  -1.8624  -1.8049  -1.7365  -1.7297
    -1.7003  -1.6971  -1.6890  -1.6877  -1.6845  -1.6724  -1.6711  -1.6700
    -1.6635  -1.6499  -1.6425  -1.6397  -1.6310  -1.6250  -1.6228  -1.6032
    -1.5999  -1.5903  -1.5717  -1.5701  -1.5425  -1.5301  -1.5275  -1.5099
    -1.5033  -1.4997  -1.4966  -1.4825  -1.4683  -1.4671  -1.4617  -1.4584
    -1.4357  -1.4311  -1.4199  -1.4131  -1.3872  -1.3798  -1.3665  -1.3265
    -1.3237  -1.3131  -1.3078  -1.2945  -1.2845  -1.2816  -1.2510  -1.2503
    -1.2454  -1.2121  -1.2066  -1.2011  -1.1887  -1.1866  -1.1637  -1.1609
    -1.1520  -1.1305  -1.1296  -1.1275  -1.0663  -1.0655  -1.0546  -1.0532
    -1.0373  -1.0354  -1.0250  -1.0194  -1.0053  -0.9928  -0.9648  -0.9633
    -0.9511  -0.9222  -0.9156  -0.9114  -0.9020  -0.9016  -0.9009  -0.8978
    -0.8880  -0.8799  -0.8534  -0.8515  -0.8432  -0.8404  -0.8386  -0.8228
    -0.8165  -0.7990  -0.7881  -0.7763  -0.7597  -0.6827  -0.6693  -0.6637
    -0.6631  -0.6579  -0.6547  -0.6472  -0.6296  -0.6245  -0.6144  -0.6089
    -0.5989  -0.5934  -0.5904  -0.5703  -0.5688  -0.5591  -0.5586  -0.4843
    -0.4839  -0.4539  -0.4467  -0.4461  -0.4418  -0.4377  -0.4368  -0.4339
    -0.4266  -0.4189  -0.3980  -0.3814  -0.3654  -0.3500  -0.3483  -0.3389
    -0.3344  -0.3265  -0.3249  -0.3228  -0.3225  -0.3126  -0.3053  -0.3011
    -0.2908  -0.2700  -0.2685  -0.2606  -0.2545  -0.2495  -0.2352  -0.2042
    -0.2005  -0.1948  -0.1876  -0.1260  -0.1225  -0.0901  -0.0900  -0.0318
    -0.0316  -0.0310  -0.0049  -0.0048   0.2153   0.2505   0.5704   0.5708
     0.6532   0.6818   0.8504   0.8865   0.8997   1.0152   1.0229   1.4506
     1.4512   1.4682   1.7288   1.7606   1.7613   2.0236   2.0536   2.1140
     2.1163   2.1359   2.1653   2.3709   2.3723   2.4616   2.4629   2.5195
     2.5882   2.6267   2.7673   2.8673   3.2981   3.3020   3.3026   3.3222
     3.3586   3.3644   3.6540   3.6556   3.9256   3.9475   4.0154   4.3512
     4.3856   4.4008   4.5708   4.5776   4.6889   4.6989   4.7799   4.8979
     4.9114   5.0026   5.0186   5.0381   5.3223   5.3817   5.4048   5.5077
     5.5694   5.7690   5.7773   5.7898   5.8070   5.8109   5.8619   5.8650
     5.9310   6.0188   6.1628   6.2649   6.4450   6.4727   6.6027   6.6109
     6.6139   6.6195   6.6586   6.7414   6.8050   6.8601   6.8710   6.9881
     7.0206   7.0557   7.0759

          k =-0.2500-0.4330 0.1111 (136853 PWs)   bands (ev):

   -19.6766  -7.4543  -6.1727  -5.7750  -5.7721  -5.1043  -4.7732  -4.7612
    -4.7451  -4.7230  -4.4209  -4.3605  -4.3439  -4.2618  -4.2564  -4.2439
    -4.2255  -4.1880  -4.0940  -4.0902  -4.0678  -4.0262  -4.0261  -3.9578
    -3.9569  -3.9523  -3.9361  -3.9293  -3.9239  -3.9213  -3.8536  -3.8473
    -3.8217  -3.8196  -3.8091  -3.8056  -3.7856  -3.7826  -3.7617  -3.7546
    -3.7533  -3.7235  -3.6760  -3.6748  -3.6270  -3.6266  -3.5708  -3.5678
    -3.5150  -3.5136  -3.5133  -3.5078  -3.4772  -3.4421  -3.4403  -3.4324
    -3.4308  -3.4306  -3.4018  -3.3976  -3.3929  -3.3321  -3.3314  -3.3230
    -3.3026  -3.2957  -3.2250  -3.2212  -3.1933  -3.1914  -3.1637  -3.1631
    -3.1487  -3.1301  -3.0745  -3.0718  -3.0558  -3.0537  -3.0063  -3.0003
    -2.9988  -2.9596  -2.9315  -2.9297  -2.9199  -2.9175  -2.9082  -2.9060
    -2.9008  -2.8996  -2.8891  -2.8474  -2.8097  -2.8082  -2.7962  -2.7958
    -2.7688  -2.7610  -2.7601  -2.7344  -2.6926  -2.6906  -2.6850  -2.6456
    -2.6367  -2.6264  -2.6244  -2.6014  -2.5970  -2.5664  -2.5330  -2.5311
    -2.5095  -2.5000  -2.4880  -2.4870  -2.4378  -2.4361  -2.4041  -2.3811
    -2.3801  -2.3599  -2.3556  -2.3459  -2.3435  -2.3341  -2.3155  -2.3130
    -2.2661  -2.2658  -2.2651  -2.2494  -2.2490  -2.2412  -2.2358  -2.2340
    -2.2328  -2.2310  -2.2233  -2.2142  -2.2129  -2.2106  -2.1858  -2.1759
    -2.1746  -2.1739  -2.1731  -2.1703  -2.1675  -2.1476  -2.1399  -2.1298
    -2.1256  -2.1061  -2.1050  -2.1006  -2.0964  -2.0955  -2.0943  -2.0803
    -2.0750  -2.0745  -2.0699  -2.0546  -2.0313  -2.0264  -1.9875  -1.9869
    -1.9649  -1.9637  -1.9421  -1.9349  -1.9249  -1.9084  -1.8992  -1.8864
    -1.8691  -1.8581  -1.8393  -1.8340  -1.8312  -1.8282  -1.8241  -1.8198
    -1.7940  -1.7855  -1.7778  -1.7501  -1.7215  -1.7175  -1.7153  -1.7102
    -1.6868  -1.6625  -1.6567  -1.6555  -1.6280  -1.6221  -1.5704  -1.5693
    -1.5374  -1.5204  -1.5140  -1.4605  -1.4575  -1.4482  -1.4460  -1.4373
    -1.4362  -1.4312  -1.4238  -1.4206  -1.3669  -1.3634  -1.3566  -1.3547
    -1.3494  -1.3370  -1.3234  -1.3017  -1.2967  -1.2837  -1.2828  -1.2789
    -1.2747  -1.2677  -1.2621  -1.2572  -1.2409  -1.2396  -1.2005  -1.1952
    -1.1891  -1.1808  -1.1641  -1.1526  -1.1127  -1.1082  -1.0843  -1.0809
    -1.0787  -1.0493  -0.9999  -0.9980  -0.9966  -0.9947  -0.9909  -0.9865
    -0.9790  -0.9623  -0.9607  -0.9233  -0.9212  -0.8919  -0.8916  -0.8844
    -0.8829  -0.8795  -0.8619  -0.8613  -0.8594  -0.8573  -0.8545  -0.8215
    -0.8170  -0.8161  -0.8138  -0.7875  -0.7836  -0.7807  -0.7588  -0.7499
    -0.7454  -0.7035  -0.6969  -0.6915  -0.6612  -0.6529  -0.6431  -0.6421
    -0.6368  -0.6349  -0.6321  -0.6271  -0.6203  -0.6119  -0.5951  -0.5933
    -0.5899  -0.5886  -0.5838  -0.5506  -0.5503  -0.5408  -0.5380  -0.5228
    -0.5174  -0.5095  -0.5026  -0.4487  -0.4471  -0.4394  -0.4388  -0.4365
    -0.4358  -0.4286  -0.4130  -0.4077  -0.4037  -0.4027  -0.4011  -0.3893
    -0.3608  -0.3598  -0.3583  -0.3508  -0.3486  -0.3445  -0.3435  -0.3313
    -0.3257  -0.3241  -0.3008  -0.2817  -0.2799  -0.2731  -0.2689  -0.2648
    -0.1927  -0.1912  -0.1888  -0.1861  -0.1795  -0.1742  -0.1424  -0.1307
    -0.1297  -0.1046  -0.0980  -0.0647   0.0222   0.0273   0.1259   0.5421
     0.5426   0.5450   0.5456   0.6021   0.6251   0.9941   0.9947   1.0358
     1.0376   1.1469   1.2311   1.3325   1.3532   1.5490   1.5876   2.1891
     2.1992   2.3484   2.3624   2.4782   2.5064   2.5912   2.5914   2.7455
     2.9723   2.9830   3.1096   3.3239   3.3434   3.4122   3.4157   3.5130
     3.5305   3.7047   3.7074   3.7855   3.9875   3.9880   4.0452   4.0564
     4.3055   4.3059   4.3299   4.5573   4.5944   4.6034   4.6468   4.9690
     4.9803   4.9857   5.0175   5.1487   5.3175   5.3187   5.3485   5.4182
     5.6853   5.9312   6.0674   6.1006   6.1045   6.1247   6.1746   6.1789
     6.2159   6.2813   6.3094   6.3313   6.3329   6.3397   6.3466   6.3874
     6.3982   6.4552   6.5050   6.5718   6.6946   6.7567   6.9044   6.9848
     7.0367   7.0413   7.0589

          k =-0.2500 0.4330-0.1111 (136853 PWs)   bands (ev):

   -19.6766  -7.4543  -6.1727  -5.7754  -5.7716  -5.1044  -4.7733  -4.7609
    -4.7445  -4.7238  -4.4211  -4.3599  -4.3443  -4.2619  -4.2554  -4.2444
    -4.2256  -4.1885  -4.0948  -4.0895  -4.0678  -4.0264  -4.0260  -3.9579
    -3.9567  -3.9526  -3.9355  -3.9292  -3.9229  -3.9223  -3.8547  -3.8461
    -3.8214  -3.8193  -3.8092  -3.8055  -3.7858  -3.7826  -3.7617  -3.7548
    -3.7534  -3.7237  -3.6764  -3.6745  -3.6276  -3.6260  -3.5706  -3.5681
    -3.5153  -3.5137  -3.5132  -3.5079  -3.4774  -3.4420  -3.4408  -3.4324
    -3.4308  -3.4305  -3.4022  -3.3969  -3.3927  -3.3327  -3.3313  -3.3226
    -3.3025  -3.2954  -3.2250  -3.2211  -3.1926  -3.1914  -3.1641  -3.1629
    -3.1486  -3.1304  -3.0747  -3.0720  -3.0556  -3.0533  -3.0048  -3.0015
    -2.9987  -2.9597  -2.9301  -2.9298  -2.9201  -2.9170  -2.9092  -2.9064
    -2.9015  -2.8991  -2.8893  -2.8474  -2.8106  -2.8075  -2.7963  -2.7959
    -2.7691  -2.7607  -2.7600  -2.7343  -2.6928  -2.6901  -2.6843  -2.6457
    -2.6366  -2.6269  -2.6238  -2.5985  -2.5977  -2.5666  -2.5339  -2.5310
    -2.5096  -2.5001  -2.4900  -2.4874  -2.4375  -2.4359  -2.4037  -2.3825
    -2.3803  -2.3574  -2.3562  -2.3454  -2.3436  -2.3345  -2.3141  -2.3130
    -2.2669  -2.2657  -2.2651  -2.2499  -2.2484  -2.2413  -2.2366  -2.2335
    -2.2319  -2.2314  -2.2245  -2.2232  -2.2133  -2.2105  -2.1839  -2.1760
    -2.1747  -2.1739  -2.1719  -2.1698  -2.1666  -2.1439  -2.1399  -2.1275
    -2.1254  -2.1063  -2.1049  -2.1005  -2.0960  -2.0957  -2.0938  -2.0816
    -2.0761  -2.0748  -2.0688  -2.0549  -2.0315  -2.0267  -1.9885  -1.9860
    -1.9658  -1.9642  -1.9472  -1.9332  -1.9099  -1.9083  -1.8937  -1.8873
    -1.8782  -1.8557  -1.8418  -1.8352  -1.8321  -1.8258  -1.8216  -1.8169
    -1.7937  -1.7871  -1.7773  -1.7729  -1.7201  -1.7160  -1.7151  -1.7121
    -1.6962  -1.6574  -1.6559  -1.6463  -1.6276  -1.6112  -1.5701  -1.5689
    -1.5379  -1.5219  -1.5133  -1.4604  -1.4581  -1.4486  -1.4446  -1.4375
    -1.4348  -1.4313  -1.4245  -1.4205  -1.3709  -1.3620  -1.3558  -1.3538
    -1.3492  -1.3377  -1.3366  -1.3016  -1.2938  -1.2837  -1.2834  -1.2816
    -1.2743  -1.2674  -1.2627  -1.2489  -1.2408  -1.2371  -1.2039  -1.1910
    -1.1897  -1.1872  -1.1678  -1.1525  -1.1130  -1.1070  -1.0840  -1.0804
    -1.0737  -1.0497  -1.0007  -0.9983  -0.9977  -0.9954  -0.9917  -0.9833
    -0.9795  -0.9629  -0.9613  -0.9221  -0.9207  -0.8924  -0.8896  -0.8849
    -0.8837  -0.8780  -0.8619  -0.8615  -0.8599  -0.8568  -0.8557  -0.8235
    -0.8167  -0.8164  -0.8095  -0.7877  -0.7861  -0.7789  -0.7591  -0.7511
    -0.7440  -0.7044  -0.6985  -0.6909  -0.6612  -0.6540  -0.6425  -0.6418
    -0.6367  -0.6357  -0.6332  -0.6255  -0.6207  -0.6108  -0.5953  -0.5934
    -0.5898  -0.5892  -0.5836  -0.5507  -0.5502  -0.5445  -0.5362  -0.5219
    -0.5177  -0.5096  -0.5023  -0.4485  -0.4469  -0.4399  -0.4383  -0.4377
    -0.4352  -0.4281  -0.4137  -0.4077  -0.4031  -0.4022  -0.4014  -0.3895
    -0.3612  -0.3598  -0.3580  -0.3513  -0.3481  -0.3446  -0.3432  -0.3322
    -0.3252  -0.3244  -0.2999  -0.2825  -0.2792  -0.2733  -0.2691  -0.2644
    -0.1921  -0.1916  -0.1887  -0.1854  -0.1795  -0.1743  -0.1423  -0.1309
    -0.1297  -0.1072  -0.0978  -0.0618   0.0210   0.0304   0.1272   0.5418
     0.5424   0.5451   0.5460   0.5979   0.6281   0.9920   0.9946   1.0341
     1.0399   1.1490   1.2317   1.3298   1.3577   1.5446   1.5889   2.1855
     2.2019   2.3450   2.3678   2.4730   2.5116   2.5907   2.5920   2.7452
     2.9738   2.9826   3.1078   3.3214   3.3426   3.4110   3.4188   3.5109
     3.5308   3.6973   3.7110   3.7860   3.9870   3.9887   4.0424   4.0655
     4.3025   4.3056   4.3304   4.5580   4.5937   4.6043   4.6461   4.9700
     4.9767   5.0070   5.0176   5.1465   5.3173   5.3203   5.3234   5.4096
     5.7718   5.8475   6.0938   6.0999   6.1038   6.1304   6.1754   6.1802
     6.2244   6.2828   6.3116   6.3216   6.3360   6.3395   6.3426   6.3906
     6.3994   6.4183   6.4723   6.5994   6.6739   6.7550   6.9281   6.9702
     7.0336   7.0454   7.0588

          k = 0.2500-0.4330-0.1111 (136853 PWs)   bands (ev):

   -19.6766  -7.4543  -6.1727  -5.7754  -5.7716  -5.1044  -4.7733  -4.7609
    -4.7445  -4.7238  -4.4211  -4.3599  -4.3443  -4.2619  -4.2554  -4.2444
    -4.2256  -4.1885  -4.0948  -4.0895  -4.0678  -4.0264  -4.0260  -3.9579
    -3.9567  -3.9526  -3.9355  -3.9292  -3.9229  -3.9223  -3.8547  -3.8461
    -3.8214  -3.8193  -3.8092  -3.8055  -3.7858  -3.7826  -3.7617  -3.7548
    -3.7534  -3.7237  -3.6764  -3.6745  -3.6276  -3.6260  -3.5706  -3.5681
    -3.5153  -3.5137  -3.5132  -3.5079  -3.4774  -3.4420  -3.4408  -3.4324
    -3.4308  -3.4305  -3.4022  -3.3969  -3.3927  -3.3327  -3.3313  -3.3226
    -3.3025  -3.2954  -3.2250  -3.2211  -3.1926  -3.1914  -3.1641  -3.1629
    -3.1486  -3.1304  -3.0747  -3.0720  -3.0556  -3.0533  -3.0048  -3.0015
    -2.9987  -2.9597  -2.9301  -2.9298  -2.9201  -2.9170  -2.9092  -2.9064
    -2.9015  -2.8991  -2.8893  -2.8474  -2.8106  -2.8075  -2.7963  -2.7959
    -2.7691  -2.7607  -2.7600  -2.7343  -2.6928  -2.6901  -2.6843  -2.6457
    -2.6366  -2.6269  -2.6238  -2.5985  -2.5977  -2.5666  -2.5339  -2.5310
    -2.5096  -2.5001  -2.4900  -2.4874  -2.4375  -2.4359  -2.4037  -2.3825
    -2.3803  -2.3574  -2.3562  -2.3454  -2.3436  -2.3345  -2.3141  -2.3130
    -2.2669  -2.2657  -2.2651  -2.2499  -2.2484  -2.2413  -2.2366  -2.2335
    -2.2319  -2.2314  -2.2245  -2.2232  -2.2133  -2.2105  -2.1839  -2.1760
    -2.1747  -2.1739  -2.1719  -2.1698  -2.1666  -2.1439  -2.1399  -2.1275
    -2.1254  -2.1063  -2.1049  -2.1005  -2.0960  -2.0957  -2.0938  -2.0816
    -2.0761  -2.0748  -2.0688  -2.0549  -2.0315  -2.0267  -1.9885  -1.9860
    -1.9658  -1.9642  -1.9472  -1.9332  -1.9099  -1.9083  -1.8937  -1.8873
    -1.8782  -1.8557  -1.8418  -1.8352  -1.8321  -1.8258  -1.8216  -1.8169
    -1.7937  -1.7871  -1.7773  -1.7729  -1.7201  -1.7160  -1.7151  -1.7121
    -1.6962  -1.6574  -1.6559  -1.6463  -1.6276  -1.6112  -1.5701  -1.5689
    -1.5379  -1.5219  -1.5133  -1.4604  -1.4581  -1.4486  -1.4446  -1.4375
    -1.4348  -1.4313  -1.4245  -1.4205  -1.3709  -1.3620  -1.3558  -1.3538
    -1.3492  -1.3377  -1.3366  -1.3016  -1.2938  -1.2837  -1.2834  -1.2816
    -1.2743  -1.2674  -1.2627  -1.2489  -1.2408  -1.2371  -1.2039  -1.1910
    -1.1897  -1.1872  -1.1678  -1.1525  -1.1130  -1.1070  -1.0840  -1.0804
    -1.0737  -1.0497  -1.0007  -0.9983  -0.9977  -0.9954  -0.9917  -0.9833
    -0.9795  -0.9629  -0.9613  -0.9221  -0.9207  -0.8924  -0.8896  -0.8849
    -0.8837  -0.8780  -0.8619  -0.8615  -0.8599  -0.8568  -0.8557  -0.8235
    -0.8167  -0.8164  -0.8095  -0.7877  -0.7861  -0.7789  -0.7591  -0.7511
    -0.7440  -0.7044  -0.6985  -0.6909  -0.6612  -0.6540  -0.6425  -0.6418
    -0.6367  -0.6357  -0.6332  -0.6255  -0.6207  -0.6108  -0.5953  -0.5934
    -0.5898  -0.5892  -0.5836  -0.5507  -0.5502  -0.5445  -0.5362  -0.5219
    -0.5177  -0.5096  -0.5023  -0.4485  -0.4469  -0.4399  -0.4383  -0.4377
    -0.4352  -0.4281  -0.4137  -0.4077  -0.4030  -0.4022  -0.4014  -0.3895
    -0.3612  -0.3598  -0.3580  -0.3513  -0.3481  -0.3446  -0.3432  -0.3322
    -0.3252  -0.3244  -0.2999  -0.2825  -0.2792  -0.2733  -0.2691  -0.2644
    -0.1921  -0.1916  -0.1887  -0.1854  -0.1795  -0.1743  -0.1423  -0.1309
    -0.1297  -0.1072  -0.0978  -0.0618   0.0210   0.0304   0.1272   0.5418
     0.5424   0.5451   0.5460   0.5979   0.6281   0.9920   0.9946   1.0341
     1.0399   1.1490   1.2317   1.3298   1.3577   1.5446   1.5889   2.1855
     2.2019   2.3450   2.3678   2.4730   2.5116   2.5907   2.5920   2.7452
     2.9738   2.9826   3.1078   3.3214   3.3426   3.4110   3.4188   3.5109
     3.5308   3.6973   3.7110   3.7860   3.9870   3.9887   4.0424   4.0655
     4.3025   4.3056   4.3304   4.5580   4.5937   4.6043   4.6461   4.9700
     4.9767   5.0070   5.0176   5.1465   5.3173   5.3203   5.3234   5.4096
     5.7718   5.8474   6.0940   6.0999   6.1038   6.1303   6.1753   6.1802
     6.2243   6.2828   6.3117   6.3216   6.3359   6.3397   6.3425   6.3906
     6.3995   6.4181   6.4726   6.5997   6.6735   6.7550   6.9279   6.9702
     7.0334   7.0462   7.0578

          k = 0.5000 0.0000 0.1111 (136853 PWs)   bands (ev):

   -19.6766  -7.4543  -6.1727  -5.7763  -5.7707  -5.1043  -4.7734  -4.7619
    -4.7454  -4.7220  -4.4207  -4.3609  -4.3436  -4.2619  -4.2564  -4.2436
    -4.2255  -4.1883  -4.0938  -4.0906  -4.0678  -4.0263  -4.0261  -3.9578
    -3.9570  -3.9529  -3.9356  -3.9289  -3.9252  -3.9199  -3.8533  -3.8475
    -3.8224  -3.8186  -3.8093  -3.8053  -3.7856  -3.7827  -3.7617  -3.7545
    -3.7534  -3.7239  -3.6759  -3.6750  -3.6279  -3.6257  -3.5708  -3.5678
    -3.5148  -3.5134  -3.5132  -3.5084  -3.4774  -3.4422  -3.4405  -3.4323
    -3.4310  -3.4304  -3.4023  -3.3971  -3.3929  -3.3322  -3.3315  -3.3228
    -3.3026  -3.2953  -3.2255  -3.2209  -3.1932  -3.1911  -3.1637  -3.1630
    -3.1486  -3.1303  -3.0745  -3.0722  -3.0557  -3.0535  -3.0058  -3.0007
    -2.9988  -2.9594  -2.9309  -2.9299  -2.9193  -2.9180  -2.9089  -2.9058
    -2.9008  -2.8995  -2.8892  -2.8474  -2.8098  -2.8084  -2.7963  -2.7957
    -2.7689  -2.7609  -2.7601  -2.7344  -2.6919  -2.6912  -2.6849  -2.6455
    -2.6367  -2.6262  -2.6244  -2.6008  -2.5971  -2.5665  -2.5333  -2.5308
    -2.5095  -2.5001  -2.4889  -2.4871  -2.4375  -2.4362  -2.4038  -2.3817
    -2.3804  -2.3592  -2.3558  -2.3460  -2.3432  -2.3343  -2.3154  -2.3127
    -2.2663  -2.2658  -2.2649  -2.2499  -2.2485  -2.2413  -2.2358  -2.2337
    -2.2328  -2.2312  -2.2234  -2.2176  -2.2127  -2.2113  -2.1846  -2.1759
    -2.1746  -2.1739  -2.1723  -2.1700  -2.1673  -2.1464  -2.1400  -2.1291
    -2.1256  -2.1063  -2.1048  -2.1007  -2.0964  -2.0957  -2.0939  -2.0805
    -2.0749  -2.0746  -2.0702  -2.0546  -2.0313  -2.0268  -1.9884  -1.9860
    -1.9656  -1.9637  -1.9446  -1.9337  -1.9192  -1.9086  -1.8987  -1.8863
    -1.8714  -1.8573  -1.8398  -1.8347  -1.8315  -1.8273  -1.8227  -1.8196
    -1.7939  -1.7855  -1.7776  -1.7579  -1.7208  -1.7174  -1.7154  -1.7109
    -1.6921  -1.6578  -1.6564  -1.6524  -1.6279  -1.6190  -1.5705  -1.5689
    -1.5378  -1.5208  -1.5136  -1.4605  -1.4577  -1.4482  -1.4456  -1.4371
    -1.4361  -1.4314  -1.4240  -1.4205  -1.3679  -1.3631  -1.3567  -1.3545
    -1.3493  -1.3372  -1.3284  -1.3017  -1.2949  -1.2838  -1.2829  -1.2801
    -1.2744  -1.2679  -1.2618  -1.2545  -1.2412  -1.2388  -1.2017  -1.1940
    -1.1893  -1.1820  -1.1658  -1.1526  -1.1123  -1.1079  -1.0843  -1.0806
    -1.0774  -1.0495  -1.0003  -0.9980  -0.9971  -0.9948  -0.9910  -0.9859
    -0.9792  -0.9630  -0.9603  -0.9227  -0.9211  -0.8920  -0.8912  -0.8846
    -0.8830  -0.8789  -0.8619  -0.8613  -0.8592  -0.8574  -0.8548  -0.8221
    -0.8170  -0.8162  -0.8124  -0.7874  -0.7844  -0.7802  -0.7592  -0.7499
    -0.7451  -0.7038  -0.6975  -0.6911  -0.6612  -0.6533  -0.6429  -0.6421
    -0.6364  -0.6354  -0.6326  -0.6264  -0.6206  -0.6113  -0.5953  -0.5931
    -0.5899  -0.5891  -0.5836  -0.5507  -0.5501  -0.5424  -0.5372  -0.5226
    -0.5174  -0.5096  -0.5025  -0.4485  -0.4471  -0.4395  -0.4386  -0.4370
    -0.4356  -0.4284  -0.4132  -0.4077  -0.4034  -0.4026  -0.4011  -0.3894
    -0.3611  -0.3596  -0.3581  -0.3510  -0.3484  -0.3444  -0.3437  -0.3316
    -0.3255  -0.3242  -0.3004  -0.2820  -0.2797  -0.2733  -0.2691  -0.2648
    -0.1925  -0.1913  -0.1888  -0.1857  -0.1796  -0.1741  -0.1423  -0.1307
    -0.1297  -0.1050  -0.0980  -0.0640   0.0219   0.0283   0.1264   0.5420
     0.5426   0.5449   0.5458   0.6004   0.6263   0.9931   0.9949   1.0348
     1.0387   1.1476   1.2313   1.3323   1.3542   1.5480   1.5876   2.1874
     2.2005   2.3468   2.3647   2.4762   2.5085   2.5906   2.5920   2.7453
     2.9728   2.9830   3.1090   3.3236   3.3428   3.4112   3.4171   3.5121
     3.5307   3.7028   3.7081   3.7858   3.9872   3.9885   4.0436   4.0602
     4.3035   4.3054   4.3308   4.5577   4.5933   4.6041   4.6465   4.9693
     4.9803   4.9949   5.0164   5.1472   5.3171   5.3195   5.3388   5.4154
     5.7104   5.9062   6.0778   6.1005   6.1048   6.1261   6.1748   6.1793
     6.2177   6.2813   6.3100   6.3292   6.3332   6.3392   6.3463   6.3871
     6.3982   6.4528   6.4859   6.5865   6.6951   6.7359   6.9154   6.9799
     7.0361   7.0425   7.0591

          k =-0.5000 0.0000 0.1111 (136853 PWs)   bands (ev):

   -19.6766  -7.4543  -6.1727  -5.7763  -5.7707  -5.1043  -4.7734  -4.7619
    -4.7454  -4.7220  -4.4207  -4.3609  -4.3436  -4.2619  -4.2564  -4.2436
    -4.2255  -4.1883  -4.0938  -4.0906  -4.0678  -4.0263  -4.0261  -3.9578
    -3.9570  -3.9529  -3.9356  -3.9289  -3.9252  -3.9199  -3.8533  -3.8475
    -3.8224  -3.8186  -3.8093  -3.8053  -3.7856  -3.7827  -3.7617  -3.7545
    -3.7534  -3.7239  -3.6759  -3.6750  -3.6279  -3.6257  -3.5708  -3.5678
    -3.5148  -3.5134  -3.5132  -3.5084  -3.4774  -3.4422  -3.4405  -3.4323
    -3.4310  -3.4304  -3.4023  -3.3971  -3.3929  -3.3322  -3.3315  -3.3228
    -3.3026  -3.2953  -3.2255  -3.2209  -3.1932  -3.1911  -3.1637  -3.1630
    -3.1486  -3.1303  -3.0745  -3.0722  -3.0557  -3.0535  -3.0058  -3.0007
    -2.9988  -2.9594  -2.9309  -2.9299  -2.9193  -2.9180  -2.9089  -2.9058
    -2.9008  -2.8995  -2.8892  -2.8474  -2.8098  -2.8084  -2.7963  -2.7957
    -2.7689  -2.7609  -2.7601  -2.7344  -2.6919  -2.6912  -2.6849  -2.6455
    -2.6367  -2.6262  -2.6244  -2.6008  -2.5971  -2.5665  -2.5333  -2.5308
    -2.5095  -2.5001  -2.4889  -2.4871  -2.4375  -2.4362  -2.4038  -2.3817
    -2.3804  -2.3592  -2.3558  -2.3460  -2.3432  -2.3343  -2.3154  -2.3127
    -2.2663  -2.2658  -2.2649  -2.2499  -2.2485  -2.2413  -2.2358  -2.2337
    -2.2328  -2.2312  -2.2234  -2.2176  -2.2127  -2.2113  -2.1846  -2.1759
    -2.1746  -2.1739  -2.1723  -2.1700  -2.1673  -2.1464  -2.1400  -2.1291
    -2.1256  -2.1063  -2.1048  -2.1007  -2.0964  -2.0957  -2.0939  -2.0805
    -2.0749  -2.0746  -2.0702  -2.0546  -2.0313  -2.0268  -1.9884  -1.9860
    -1.9656  -1.9637  -1.9446  -1.9337  -1.9192  -1.9086  -1.8987  -1.8863
    -1.8714  -1.8573  -1.8398  -1.8347  -1.8315  -1.8273  -1.8227  -1.8196
    -1.7939  -1.7855  -1.7776  -1.7579  -1.7208  -1.7174  -1.7154  -1.7109
    -1.6921  -1.6578  -1.6564  -1.6524  -1.6279  -1.6190  -1.5705  -1.5689
    -1.5378  -1.5208  -1.5136  -1.4605  -1.4577  -1.4482  -1.4456  -1.4371
    -1.4361  -1.4314  -1.4240  -1.4205  -1.3679  -1.3631  -1.3567  -1.3545
    -1.3493  -1.3372  -1.3284  -1.3017  -1.2949  -1.2838  -1.2829  -1.2801
    -1.2744  -1.2679  -1.2618  -1.2545  -1.2412  -1.2388  -1.2017  -1.1940
    -1.1893  -1.1820  -1.1658  -1.1526  -1.1123  -1.1079  -1.0843  -1.0806
    -1.0774  -1.0495  -1.0003  -0.9980  -0.9971  -0.9948  -0.9910  -0.9859
    -0.9792  -0.9630  -0.9603  -0.9227  -0.9211  -0.8920  -0.8912  -0.8846
    -0.8830  -0.8789  -0.8619  -0.8613  -0.8592  -0.8574  -0.8548  -0.8221
    -0.8170  -0.8162  -0.8124  -0.7874  -0.7844  -0.7802  -0.7592  -0.7499
    -0.7451  -0.7038  -0.6975  -0.6911  -0.6612  -0.6533  -0.6429  -0.6421
    -0.6364  -0.6354  -0.6326  -0.6264  -0.6206  -0.6113  -0.5953  -0.5931
    -0.5899  -0.5891  -0.5836  -0.5507  -0.5501  -0.5424  -0.5372  -0.5226
    -0.5174  -0.5096  -0.5025  -0.4485  -0.4471  -0.4395  -0.4386  -0.4370
    -0.4356  -0.4284  -0.4132  -0.4077  -0.4034  -0.4026  -0.4011  -0.3894
    -0.3611  -0.3596  -0.3581  -0.3510  -0.3484  -0.3444  -0.3437  -0.3316
    -0.3255  -0.3242  -0.3004  -0.2820  -0.2797  -0.2733  -0.2691  -0.2648
    -0.1925  -0.1913  -0.1888  -0.1857  -0.1796  -0.1741  -0.1423  -0.1307
    -0.1297  -0.1050  -0.0980  -0.0640   0.0219   0.0283   0.1264   0.5420
     0.5426   0.5449   0.5458   0.6004   0.6263   0.9931   0.9949   1.0348
     1.0387   1.1476   1.2313   1.3323   1.3542   1.5480   1.5876   2.1874
     2.2005   2.3468   2.3647   2.4762   2.5085   2.5906   2.5920   2.7453
     2.9728   2.9830   3.1090   3.3236   3.3428   3.4112   3.4171   3.5121
     3.5307   3.7028   3.7081   3.7858   3.9872   3.9885   4.0436   4.0602
     4.3035   4.3054   4.3308   4.5577   4.5933   4.6041   4.6465   4.9693
     4.9803   4.9949   5.0163   5.1472   5.3171   5.3195   5.3388   5.4154
     5.7104   5.9062   6.0784   6.1005   6.1046   6.1258   6.1746   6.1793
     6.2176   6.2813   6.3101   6.3290   6.3332   6.3393   6.3463   6.3871
     6.3982   6.4519   6.4869   6.5852   6.6975   6.7346   6.9173   6.9793
     7.0356   7.0437   7.0579

          k =-0.2500 0.1443 0.1111 (136898 PWs)   bands (ev):

   -19.6766  -7.4543  -6.3826  -5.5910  -5.3066  -5.2419  -5.2398  -4.7087
    -4.7012  -4.6014  -4.5691  -4.4614  -4.4045  -4.3658  -4.3188  -4.2898
    -4.2610  -4.2541  -4.2137  -4.1251  -4.0837  -4.0832  -4.0216  -4.0041
    -3.9873  -3.9005  -3.8989  -3.8642  -3.8638  -3.8590  -3.8368  -3.8153
    -3.8126  -3.7117  -3.7085  -3.7061  -3.6876  -3.6711  -3.6674  -3.6591
    -3.6570  -3.6461  -3.6155  -3.6146  -3.6145  -3.6121  -3.5834  -3.5827
    -3.5643  -3.5624  -3.5525  -3.5104  -3.5078  -3.4748  -3.4631  -3.4589
    -3.4553  -3.4539  -3.3813  -3.3799  -3.3481  -3.3448  -3.3383  -3.2756
    -3.2751  -3.2606  -3.2551  -3.2308  -3.2302  -3.2293  -3.2253  -3.0749
    -3.0723  -3.0518  -3.0506  -3.0461  -3.0282  -3.0262  -3.0031  -3.0011
    -2.9525  -2.9508  -2.9363  -2.9357  -2.9147  -2.8689  -2.8677  -2.8488
    -2.8433  -2.8412  -2.8025  -2.8015  -2.7938  -2.7921  -2.7791  -2.7757
    -2.7392  -2.7383  -2.7175  -2.7171  -2.7138  -2.7114  -2.7077  -2.6354
    -2.6345  -2.6301  -2.6026  -2.5988  -2.5433  -2.5417  -2.5134  -2.5110
    -2.4989  -2.4976  -2.4908  -2.4640  -2.4630  -2.4519  -2.4365  -2.4163
    -2.4114  -2.4096  -2.3910  -2.3897  -2.3802  -2.3787  -2.3759  -2.3740
    -2.3641  -2.3183  -2.2885  -2.2879  -2.2717  -2.2583  -2.2522  -2.2511
    -2.2442  -2.2432  -2.2410  -2.2145  -2.2123  -2.2105  -2.2019  -2.1998
    -2.1864  -2.1613  -2.1584  -2.1575  -2.1562  -2.1520  -2.1090  -2.0821
    -2.0786  -2.0770  -2.0721  -2.0613  -2.0560  -2.0512  -2.0327  -2.0320
    -2.0051  -2.0012  -1.9984  -1.9885  -1.9805  -1.9795  -1.9623  -1.9469
    -1.9155  -1.9065  -1.9006  -1.8961  -1.8940  -1.8933  -1.8886  -1.8875
    -1.8850  -1.8807  -1.8791  -1.8658  -1.8624  -1.8049  -1.7365  -1.7297
    -1.7003  -1.6971  -1.6890  -1.6877  -1.6845  -1.6724  -1.6711  -1.6700
    -1.6635  -1.6499  -1.6425  -1.6397  -1.6310  -1.6250  -1.6228  -1.6032
    -1.5999  -1.5903  -1.5717  -1.5701  -1.5425  -1.5302  -1.5275  -1.5099
    -1.5033  -1.4997  -1.4966  -1.4826  -1.4683  -1.4671  -1.4617  -1.4584
    -1.4357  -1.4311  -1.4199  -1.4131  -1.3872  -1.3798  -1.3665  -1.3265
    -1.3237  -1.3131  -1.3078  -1.2945  -1.2845  -1.2816  -1.2510  -1.2502
    -1.2454  -1.2121  -1.2066  -1.2011  -1.1887  -1.1866  -1.1637  -1.1609
    -1.1520  -1.1305  -1.1296  -1.1275  -1.0663  -1.0655  -1.0546  -1.0532
    -1.0373  -1.0354  -1.0250  -1.0194  -1.0053  -0.9928  -0.9648  -0.9633
    -0.9511  -0.9222  -0.9156  -0.9114  -0.9020  -0.9016  -0.9009  -0.8978
    -0.8880  -0.8799  -0.8534  -0.8515  -0.8432  -0.8404  -0.8386  -0.8228
    -0.8165  -0.7990  -0.7881  -0.7763  -0.7597  -0.6827  -0.6693  -0.6637
    -0.6631  -0.6579  -0.6547  -0.6472  -0.6296  -0.6245  -0.6144  -0.6089
    -0.5989  -0.5934  -0.5904  -0.5703  -0.5688  -0.5591  -0.5586  -0.4843
    -0.4839  -0.4539  -0.4467  -0.4461  -0.4418  -0.4377  -0.4368  -0.4339
    -0.4266  -0.4189  -0.3981  -0.3814  -0.3654  -0.3500  -0.3483  -0.3389
    -0.3344  -0.3265  -0.3249  -0.3228  -0.3225  -0.3126  -0.3053  -0.3011
    -0.2908  -0.2700  -0.2685  -0.2606  -0.2545  -0.2495  -0.2352  -0.2042
    -0.2005  -0.1948  -0.1876  -0.1260  -0.1225  -0.0901  -0.0900  -0.0318
    -0.0316  -0.0310  -0.0049  -0.0048   0.2153   0.2506   0.5704   0.5708
     0.6532   0.6818   0.8504   0.8865   0.8997   1.0152   1.0229   1.4506
     1.4512   1.4682   1.7288   1.7606   1.7613   2.0236   2.0536   2.1140
     2.1163   2.1359   2.1653   2.3709   2.3723   2.4616   2.4629   2.5195
     2.5882   2.6267   2.7673   2.8673   3.2981   3.3020   3.3026   3.3222
     3.3586   3.3644   3.6540   3.6556   3.9256   3.9475   4.0154   4.3512
     4.3856   4.4008   4.5708   4.5776   4.6889   4.6989   4.7799   4.8979
     4.9114   5.0026   5.0186   5.0381   5.3223   5.3817   5.4048   5.5077
     5.5694   5.7688   5.7773   5.7899   5.8070   5.8109   5.8619   5.8650
     5.9307   6.0191   6.1625   6.2651   6.4450   6.4730   6.6052   6.6110
     6.6141   6.6194   6.6598   6.7414   6.8053   6.8601   6.8710   6.9843
     7.0159   7.0540   7.0734

          k =-0.2500-0.1443-0.1111 (136898 PWs)   bands (ev):

   -19.6766  -7.4543  -6.3826  -5.5910  -5.3066  -5.2420  -5.2397  -4.7087
    -4.7011  -4.6011  -4.5695  -4.4614  -4.4047  -4.3651  -4.3189  -4.2896
    -4.2609  -4.2543  -4.2144  -4.1250  -4.0837  -4.0833  -4.0213  -4.0040
    -3.9876  -3.9004  -3.8987  -3.8640  -3.8640  -3.8590  -3.8366  -3.8156
    -3.8124  -3.7113  -3.7085  -3.7063  -3.6873  -3.6711  -3.6676  -3.6592
    -3.6573  -3.6457  -3.6155  -3.6148  -3.6143  -3.6121  -3.5833  -3.5830
    -3.5643  -3.5623  -3.5521  -3.5101  -3.5085  -3.4747  -3.4631  -3.4595
    -3.4554  -3.4539  -3.3813  -3.3800  -3.3477  -3.3447  -3.3383  -3.2757
    -3.2752  -3.2603  -3.2551  -3.2306  -3.2303  -3.2297  -3.2256  -3.0747
    -3.0724  -3.0531  -3.0504  -3.0451  -3.0283  -3.0265  -3.0030  -3.0012
    -2.9525  -2.9509  -2.9362  -2.9353  -2.9145  -2.8696  -2.8680  -2.8481
    -2.8434  -2.8413  -2.8029  -2.8012  -2.7942  -2.7923  -2.7789  -2.7751
    -2.7389  -2.7381  -2.7182  -2.7178  -2.7137  -2.7115  -2.7074  -2.6348
    -2.6343  -2.6300  -2.6025  -2.5990  -2.5460  -2.5418  -2.5120  -2.5108
    -2.4989  -2.4974  -2.4908  -2.4644  -2.4631  -2.4520  -2.4355  -2.4148
    -2.4122  -2.4101  -2.3909  -2.3896  -2.3799  -2.3776  -2.3762  -2.3743
    -2.3641  -2.3182  -2.2901  -2.2880  -2.2707  -2.2580  -2.2528  -2.2509
    -2.2441  -2.2425  -2.2414  -2.2166  -2.2125  -2.2104  -2.2024  -2.1994
    -2.1860  -2.1589  -2.1583  -2.1571  -2.1566  -2.1519  -2.1096  -2.0810
    -2.0793  -2.0764  -2.0720  -2.0660  -2.0609  -2.0511  -2.0332  -2.0317
    -2.0015  -1.9991  -1.9980  -1.9952  -1.9804  -1.9797  -1.9521  -1.9467
    -1.9185  -1.9065  -1.9006  -1.8971  -1.8932  -1.8931  -1.8884  -1.8871
    -1.8839  -1.8827  -1.8776  -1.8670  -1.8616  -1.8082  -1.7364  -1.7240
    -1.7014  -1.6964  -1.6909  -1.6868  -1.6847  -1.6713  -1.6705  -1.6695
    -1.6635  -1.6601  -1.6424  -1.6393  -1.6278  -1.6249  -1.6152  -1.6125
    -1.5989  -1.5898  -1.5726  -1.5506  -1.5421  -1.5385  -1.5249  -1.5212
    -1.5020  -1.5005  -1.4970  -1.4825  -1.4677  -1.4663  -1.4608  -1.4565
    -1.4349  -1.4341  -1.4202  -1.4100  -1.3820  -1.3779  -1.3718  -1.3272
    -1.3219  -1.3136  -1.3066  -1.3026  -1.2846  -1.2813  -1.2509  -1.2465
    -1.2448  -1.2159  -1.2044  -1.2000  -1.1884  -1.1880  -1.1657  -1.1588
    -1.1564  -1.1300  -1.1292  -1.1254  -1.0659  -1.0639  -1.0539  -1.0514
    -1.0371  -1.0351  -1.0239  -1.0231  -1.0043  -0.9920  -0.9646  -0.9638
    -0.9522  -0.9245  -0.9138  -0.9123  -0.9024  -0.9017  -0.9014  -0.8950
    -0.8924  -0.8798  -0.8537  -0.8528  -0.8410  -0.8408  -0.8350  -0.8285
    -0.8152  -0.7938  -0.7903  -0.7746  -0.7597  -0.6839  -0.6687  -0.6637
    -0.6632  -0.6591  -0.6527  -0.6484  -0.6294  -0.6252  -0.6126  -0.6107
    -0.5986  -0.5949  -0.5896  -0.5689  -0.5672  -0.5629  -0.5584  -0.4848
    -0.4844  -0.4524  -0.4489  -0.4460  -0.4412  -0.4382  -0.4358  -0.4344
    -0.4257  -0.4182  -0.3993  -0.3813  -0.3656  -0.3493  -0.3491  -0.3388
    -0.3346  -0.3263  -0.3244  -0.3233  -0.3224  -0.3129  -0.3048  -0.3010
    -0.2910  -0.2698  -0.2688  -0.2603  -0.2545  -0.2494  -0.2351  -0.2039
    -0.2006  -0.1944  -0.1879  -0.1264  -0.1224  -0.0904  -0.0897  -0.0321
    -0.0313  -0.0308  -0.0058  -0.0048   0.2193   0.2472   0.5705   0.5706
     0.6569   0.6798   0.8464   0.8846   0.9013   1.0164   1.0218   1.4506
     1.4517   1.4668   1.7298   1.7607   1.7617   2.0284   2.0486   2.1152
     2.1158   2.1389   2.1617   2.3704   2.3741   2.4619   2.4622   2.5205
     2.5921   2.6204   2.7666   2.8704   3.2985   3.3007   3.3044   3.3191
     3.3624   3.3632   3.6547   3.6554   3.9288   3.9460   4.0192   4.3509
     4.3873   4.3996   4.5417   4.5901   4.6897   4.6953   4.7878   4.8973
     4.8995   5.0172   5.0198   5.0424   5.3217   5.3792   5.4041   5.5301
     5.5611   5.7474   5.7781   5.7830   5.8080   5.8115   5.8620   5.8642
     5.8924   5.9963   6.2392   6.3231   6.4354   6.4743   6.5935   6.6085
     6.6142   6.6220   6.6286   6.6895   6.8623   6.8664   6.8986   6.9598
     7.0001   7.0643   7.0714

          k = 0.2500 0.1443-0.1111 (136898 PWs)   bands (ev):

   -19.6766  -7.4543  -6.3826  -5.5910  -5.3066  -5.2420  -5.2397  -4.7087
    -4.7011  -4.6011  -4.5695  -4.4614  -4.4047  -4.3651  -4.3189  -4.2896
    -4.2609  -4.2543  -4.2144  -4.1250  -4.0837  -4.0833  -4.0213  -4.0040
    -3.9876  -3.9004  -3.8987  -3.8640  -3.8640  -3.8590  -3.8366  -3.8156
    -3.8124  -3.7113  -3.7085  -3.7063  -3.6873  -3.6711  -3.6676  -3.6592
    -3.6573  -3.6457  -3.6155  -3.6147  -3.6143  -3.6121  -3.5833  -3.5830
    -3.5643  -3.5623  -3.5521  -3.5101  -3.5085  -3.4747  -3.4631  -3.4595
    -3.4554  -3.4539  -3.3813  -3.3800  -3.3477  -3.3447  -3.3383  -3.2757
    -3.2752  -3.2603  -3.2551  -3.2306  -3.2303  -3.2297  -3.2256  -3.0747
    -3.0724  -3.0531  -3.0504  -3.0451  -3.0283  -3.0265  -3.0030  -3.0012
    -2.9525  -2.9509  -2.9362  -2.9353  -2.9145  -2.8696  -2.8680  -2.8480
    -2.8434  -2.8413  -2.8029  -2.8012  -2.7942  -2.7923  -2.7789  -2.7751
    -2.7390  -2.7381  -2.7182  -2.7178  -2.7137  -2.7115  -2.7074  -2.6348
    -2.6343  -2.6300  -2.6025  -2.5990  -2.5460  -2.5418  -2.5120  -2.5108
    -2.4989  -2.4974  -2.4908  -2.4644  -2.4631  -2.4520  -2.4355  -2.4148
    -2.4122  -2.4101  -2.3909  -2.3896  -2.3799  -2.3776  -2.3762  -2.3743
    -2.3641  -2.3182  -2.2901  -2.2880  -2.2707  -2.2580  -2.2528  -2.2509
    -2.2441  -2.2425  -2.2414  -2.2166  -2.2126  -2.2104  -2.2024  -2.1994
    -2.1860  -2.1589  -2.1583  -2.1571  -2.1566  -2.1519  -2.1096  -2.0810
    -2.0793  -2.0764  -2.0720  -2.0660  -2.0609  -2.0511  -2.0333  -2.0317
    -2.0015  -1.9991  -1.9980  -1.9952  -1.9804  -1.9797  -1.9521  -1.9467
    -1.9185  -1.9065  -1.9006  -1.8971  -1.8932  -1.8931  -1.8884  -1.8871
    -1.8838  -1.8827  -1.8776  -1.8670  -1.8616  -1.8082  -1.7364  -1.7240
    -1.7014  -1.6964  -1.6909  -1.6868  -1.6847  -1.6713  -1.6705  -1.6695
    -1.6635  -1.6601  -1.6424  -1.6393  -1.6278  -1.6249  -1.6152  -1.6125
    -1.5989  -1.5898  -1.5726  -1.5506  -1.5421  -1.5385  -1.5249  -1.5212
    -1.5020  -1.5005  -1.4970  -1.4825  -1.4677  -1.4663  -1.4608  -1.4565
    -1.4349  -1.4341  -1.4202  -1.4100  -1.3820  -1.3779  -1.3718  -1.3272
    -1.3219  -1.3136  -1.3066  -1.3026  -1.2846  -1.2813  -1.2509  -1.2465
    -1.2448  -1.2159  -1.2044  -1.2000  -1.1884  -1.1880  -1.1657  -1.1588
    -1.1564  -1.1300  -1.1292  -1.1254  -1.0659  -1.0639  -1.0539  -1.0514
    -1.0372  -1.0351  -1.0239  -1.0231  -1.0042  -0.9920  -0.9646  -0.9638
    -0.9522  -0.9245  -0.9138  -0.9123  -0.9024  -0.9017  -0.9014  -0.8950
    -0.8924  -0.8798  -0.8537  -0.8528  -0.8410  -0.8408  -0.8350  -0.8285
    -0.8152  -0.7938  -0.7903  -0.7746  -0.7597  -0.6839  -0.6687  -0.6637
    -0.6632  -0.6591  -0.6527  -0.6484  -0.6294  -0.6253  -0.6126  -0.6107
    -0.5986  -0.5949  -0.5896  -0.5689  -0.5672  -0.5629  -0.5583  -0.4848
    -0.4844  -0.4524  -0.4489  -0.4460  -0.4412  -0.4382  -0.4358  -0.4344
    -0.4257  -0.4182  -0.3993  -0.3813  -0.3656  -0.3493  -0.3491  -0.3388
    -0.3346  -0.3263  -0.3244  -0.3233  -0.3224  -0.3129  -0.3048  -0.3010
    -0.2911  -0.2698  -0.2688  -0.2603  -0.2545  -0.2494  -0.2351  -0.2039
    -0.2006  -0.1944  -0.1879  -0.1264  -0.1224  -0.0904  -0.0897  -0.0321
    -0.0313  -0.0308  -0.0058  -0.0048   0.2193   0.2472   0.5705   0.5706
     0.6569   0.6798   0.8464   0.8846   0.9013   1.0164   1.0218   1.4506
     1.4517   1.4668   1.7298   1.7607   1.7617   2.0284   2.0486   2.1151
     2.1158   2.1389   2.1617   2.3704   2.3741   2.4619   2.4622   2.5205
     2.5921   2.6204   2.7666   2.8704   3.2985   3.3007   3.3044   3.3191
     3.3624   3.3632   3.6547   3.6554   3.9288   3.9460   4.0192   4.3509
     4.3873   4.3996   4.5417   4.5901   4.6897   4.6953   4.7878   4.8973
     4.8995   5.0172   5.0198   5.0424   5.3217   5.3792   5.4041   5.5301
     5.5611   5.7474   5.7781   5.7827   5.8080   5.8115   5.8621   5.8643
     5.8926   5.9970   6.2391   6.3224   6.4327   6.4740   6.5922   6.6097
     6.6142   6.6219   6.6295   6.6884   6.8623   6.8663   6.9004   6.9613
     7.0058   7.0659   7.0726

          k = 0.0000-0.2887 0.1111 (136898 PWs)   bands (ev):

   -19.6766  -7.4543  -6.3826  -5.5910  -5.3067  -5.2419  -5.2398  -4.7086
    -4.7011  -4.6014  -4.5690  -4.4620  -4.4046  -4.3657  -4.3189  -4.2897
    -4.2608  -4.2541  -4.2136  -4.1250  -4.0838  -4.0832  -4.0215  -4.0041
    -3.9875  -3.9004  -3.8988  -3.8642  -3.8639  -3.8591  -3.8367  -3.8153
    -3.8126  -3.7115  -3.7086  -3.7061  -3.6875  -3.6712  -3.6675  -3.6592
    -3.6572  -3.6460  -3.6155  -3.6147  -3.6143  -3.6118  -3.5833  -3.5828
    -3.5643  -3.5623  -3.5523  -3.5105  -3.5080  -3.4749  -3.4631  -3.4590
    -3.4553  -3.4539  -3.3813  -3.3800  -3.3479  -3.3447  -3.3382  -3.2757
    -3.2752  -3.2605  -3.2550  -3.2307  -3.2301  -3.2296  -3.2255  -3.0749
    -3.0723  -3.0524  -3.0504  -3.0457  -3.0283  -3.0263  -3.0032  -3.0010
    -2.9525  -2.9508  -2.9363  -2.9356  -2.9145  -2.8693  -2.8676  -2.8486
    -2.8434  -2.8413  -2.8027  -2.8014  -2.7940  -2.7921  -2.7791  -2.7756
    -2.7390  -2.7380  -2.7179  -2.7172  -2.7137  -2.7113  -2.7076  -2.6352
    -2.6344  -2.6303  -2.6026  -2.5989  -2.5444  -2.5416  -2.5128  -2.5109
    -2.4988  -2.4974  -2.4908  -2.4642  -2.4629  -2.4520  -2.4361  -2.4158
    -2.4115  -2.4099  -2.3910  -2.3896  -2.3804  -2.3787  -2.3761  -2.3738
    -2.3641  -2.3182  -2.2891  -2.2880  -2.2713  -2.2584  -2.2524  -2.2511
    -2.2442  -2.2430  -2.2412  -2.2151  -2.2124  -2.2104  -2.2019  -2.1998
    -2.1861  -2.1606  -2.1584  -2.1573  -2.1562  -2.1523  -2.1093  -2.0819
    -2.0787  -2.0769  -2.0720  -2.0616  -2.0592  -2.0510  -2.0329  -2.0318
    -2.0035  -2.0010  -1.9982  -1.9908  -1.9805  -1.9796  -1.9587  -1.9467
    -1.9165  -1.9065  -1.9006  -1.8965  -1.8938  -1.8932  -1.8886  -1.8870
    -1.8853  -1.8811  -1.8784  -1.8663  -1.8621  -1.8063  -1.7362  -1.7278
    -1.7007  -1.6966  -1.6896  -1.6873  -1.6845  -1.6725  -1.6709  -1.6698
    -1.6636  -1.6536  -1.6424  -1.6392  -1.6298  -1.6247  -1.6207  -1.6063
    -1.5993  -1.5899  -1.5719  -1.5653  -1.5424  -1.5319  -1.5266  -1.5135
    -1.5027  -1.4997  -1.4970  -1.4825  -1.4679  -1.4670  -1.4613  -1.4579
    -1.4355  -1.4322  -1.4198  -1.4119  -1.3856  -1.3801  -1.3676  -1.3268
    -1.3231  -1.3130  -1.3079  -1.2969  -1.2847  -1.2814  -1.2510  -1.2490
    -1.2450  -1.2137  -1.2053  -1.2010  -1.1885  -1.1869  -1.1644  -1.1604
    -1.1535  -1.1302  -1.1295  -1.1269  -1.0663  -1.0649  -1.0538  -1.0533
    -1.0373  -1.0355  -1.0247  -1.0202  -1.0046  -0.9925  -0.9649  -0.9634
    -0.9515  -0.9231  -0.9148  -0.9116  -0.9024  -0.9017  -0.9011  -0.8972
    -0.8893  -0.8798  -0.8535  -0.8521  -0.8421  -0.8409  -0.8376  -0.8247
    -0.8159  -0.7973  -0.7887  -0.7757  -0.7597  -0.6830  -0.6691  -0.6636
    -0.6632  -0.6583  -0.6541  -0.6475  -0.6295  -0.6248  -0.6139  -0.6093
    -0.5988  -0.5940  -0.5901  -0.5697  -0.5687  -0.5601  -0.5586  -0.4844
    -0.4841  -0.4533  -0.4475  -0.4462  -0.4416  -0.4379  -0.4364  -0.4340
    -0.4265  -0.4186  -0.3985  -0.3813  -0.3656  -0.3498  -0.3486  -0.3389
    -0.3345  -0.3265  -0.3248  -0.3228  -0.3226  -0.3127  -0.3050  -0.3011
    -0.2909  -0.2699  -0.2685  -0.2605  -0.2544  -0.2495  -0.2352  -0.2041
    -0.2005  -0.1946  -0.1877  -0.1262  -0.1226  -0.0903  -0.0897  -0.0319
    -0.0315  -0.0310  -0.0054  -0.0048   0.2167   0.2497   0.5704   0.5708
     0.6545   0.6810   0.8491   0.8862   0.8998   1.0156   1.0225   1.4506
     1.4513   1.4679   1.7291   1.7607   1.7614   2.0252   2.0520   2.1144
     2.1161   2.1367   2.1642   2.3710   2.3725   2.4617   2.4627   2.5198
     2.5895   2.6244   2.7671   2.8685   3.2980   3.3020   3.3031   3.3213
     3.3599   3.3640   3.6542   3.6556   3.9262   3.9470   4.0171   4.3511
     4.3860   4.4006   4.5618   4.5803   4.6891   4.6975   4.7835   4.8973
     4.9076   5.0066   5.0200   5.0389   5.3220   5.3812   5.4045   5.5152
     5.5667   5.7652   5.7774   5.7869   5.8073   5.8117   5.8604   5.8651
     5.9120   6.0050   6.2186   6.2582   6.4439   6.4739   6.6045   6.6117
     6.6138   6.6205   6.6537   6.7222   6.8273   6.8612   6.8695   6.9786
     7.0063   7.0552   7.0811

          k = 0.0000 0.2887 0.1111 (136898 PWs)   bands (ev):

   -19.6766  -7.4543  -6.3826  -5.5910  -5.3067  -5.2419  -5.2398  -4.7086
    -4.7011  -4.6014  -4.5690  -4.4620  -4.4046  -4.3657  -4.3189  -4.2897
    -4.2608  -4.2541  -4.2136  -4.1250  -4.0838  -4.0832  -4.0215  -4.0041
    -3.9875  -3.9004  -3.8988  -3.8642  -3.8639  -3.8591  -3.8367  -3.8153
    -3.8126  -3.7115  -3.7086  -3.7061  -3.6875  -3.6712  -3.6675  -3.6592
    -3.6572  -3.6460  -3.6155  -3.6147  -3.6143  -3.6118  -3.5833  -3.5828
    -3.5643  -3.5623  -3.5523  -3.5105  -3.5080  -3.4749  -3.4631  -3.4590
    -3.4553  -3.4539  -3.3813  -3.3800  -3.3479  -3.3447  -3.3382  -3.2757
    -3.2752  -3.2605  -3.2550  -3.2307  -3.2301  -3.2296  -3.2255  -3.0749
    -3.0723  -3.0524  -3.0504  -3.0457  -3.0283  -3.0264  -3.0032  -3.0009
    -2.9525  -2.9508  -2.9363  -2.9356  -2.9145  -2.8693  -2.8676  -2.8486
    -2.8434  -2.8413  -2.8027  -2.8014  -2.7940  -2.7921  -2.7791  -2.7756
    -2.7390  -2.7380  -2.7178  -2.7172  -2.7137  -2.7113  -2.7076  -2.6352
    -2.6344  -2.6302  -2.6026  -2.5989  -2.5444  -2.5416  -2.5128  -2.5109
    -2.4988  -2.4974  -2.4908  -2.4642  -2.4629  -2.4520  -2.4361  -2.4158
    -2.4115  -2.4099  -2.3910  -2.3896  -2.3804  -2.3787  -2.3761  -2.3738
    -2.3641  -2.3182  -2.2891  -2.2880  -2.2712  -2.2584  -2.2524  -2.2511
    -2.2442  -2.2430  -2.2412  -2.2151  -2.2124  -2.2104  -2.2019  -2.1998
    -2.1861  -2.1606  -2.1584  -2.1573  -2.1562  -2.1523  -2.1093  -2.0819
    -2.0787  -2.0769  -2.0720  -2.0616  -2.0592  -2.0510  -2.0329  -2.0318
    -2.0035  -2.0010  -1.9982  -1.9908  -1.9805  -1.9796  -1.9587  -1.9467
    -1.9165  -1.9065  -1.9006  -1.8965  -1.8938  -1.8932  -1.8886  -1.8870
    -1.8853  -1.8811  -1.8783  -1.8663  -1.8621  -1.8063  -1.7362  -1.7278
    -1.7007  -1.6966  -1.6896  -1.6873  -1.6845  -1.6725  -1.6709  -1.6698
    -1.6636  -1.6536  -1.6424  -1.6392  -1.6298  -1.6247  -1.6207  -1.6063
    -1.5993  -1.5899  -1.5719  -1.5653  -1.5424  -1.5319  -1.5266  -1.5135
    -1.5027  -1.4997  -1.4970  -1.4825  -1.4679  -1.4670  -1.4613  -1.4579
    -1.4355  -1.4322  -1.4198  -1.4119  -1.3857  -1.3801  -1.3676  -1.3268
    -1.3231  -1.3130  -1.3079  -1.2969  -1.2847  -1.2814  -1.2510  -1.2490
    -1.2450  -1.2137  -1.2053  -1.2010  -1.1885  -1.1869  -1.1644  -1.1604
    -1.1535  -1.1302  -1.1295  -1.1269  -1.0663  -1.0649  -1.0538  -1.0533
    -1.0373  -1.0355  -1.0247  -1.0202  -1.0046  -0.9925  -0.9649  -0.9634
    -0.9515  -0.9231  -0.9148  -0.9116  -0.9024  -0.9017  -0.9011  -0.8972
    -0.8893  -0.8798  -0.8535  -0.8521  -0.8421  -0.8409  -0.8376  -0.8247
    -0.8159  -0.7973  -0.7887  -0.7757  -0.7597  -0.6830  -0.6691  -0.6636
    -0.6632  -0.6583  -0.6541  -0.6475  -0.6295  -0.6248  -0.6139  -0.6093
    -0.5988  -0.5940  -0.5901  -0.5697  -0.5687  -0.5601  -0.5586  -0.4844
    -0.4841  -0.4533  -0.4475  -0.4462  -0.4416  -0.4379  -0.4364  -0.4340
    -0.4265  -0.4186  -0.3985  -0.3813  -0.3656  -0.3498  -0.3486  -0.3389
    -0.3345  -0.3265  -0.3248  -0.3228  -0.3226  -0.3127  -0.3050  -0.3011
    -0.2910  -0.2699  -0.2685  -0.2605  -0.2544  -0.2495  -0.2352  -0.2041
    -0.2005  -0.1946  -0.1876  -0.1262  -0.1226  -0.0903  -0.0897  -0.0319
    -0.0315  -0.0310  -0.0054  -0.0048   0.2167   0.2497   0.5704   0.5708
     0.6545   0.6810   0.8491   0.8862   0.8998   1.0156   1.0225   1.4506
     1.4513   1.4679   1.7291   1.7607   1.7614   2.0252   2.0520   2.1144
     2.1161   2.1367   2.1642   2.3710   2.3725   2.4617   2.4627   2.5198
     2.5895   2.6244   2.7671   2.8685   3.2980   3.3020   3.3031   3.3213
     3.3599   3.3640   3.6542   3.6556   3.9262   3.9470   4.0171   4.3511
     4.3860   4.4006   4.5618   4.5803   4.6891   4.6975   4.7835   4.8973
     4.9076   5.0066   5.0200   5.0389   5.3220   5.3812   5.4045   5.5152
     5.5667   5.7654   5.7774   5.7867   5.8073   5.8117   5.8604   5.8652
     5.9122   6.0047   6.2190   6.2579   6.4441   6.4735   6.6028   6.6114
     6.6135   6.6206   6.6524   6.7211   6.8277   6.8613   6.8695   6.9825
     7.0107   7.0569   7.0836

     the Fermi energy is     1.5964 ev

!    total energy              =   -6604.43170145 Ry
     Harris-Foulkes estimate   =   -6604.43170144 Ry
     estimated scf accuracy    <          5.9E-09 Ry

     The total energy is the sum of the following terms:

     one-electron contribution =  -48777.17571042 Ry
     hartree contribution      =   24893.59648649 Ry
     xc contribution           =   -3204.99027532 Ry
     ewald contribution        =   20484.13505715 Ry
     smearing contrib. (-TS)   =       0.00274063 Ry

     convergence has been achieved in  23 iterations

     Writing output data file 8579018.save

     init_run     :    144.61s CPU    150.30s WALL (       1 calls)
     electrons    :   8149.54s CPU   8448.90s WALL (       1 calls)

     Called by init_run:
     wfcinit      :    114.95s CPU    120.14s WALL (       1 calls)
     potinit      :      9.06s CPU      9.39s WALL (       1 calls)

     Called by electrons:
     c_bands      :   6992.83s CPU   7238.32s WALL (      24 calls)
     sum_band     :    875.62s CPU    920.01s WALL (      24 calls)
     v_of_rho     :     87.56s CPU     94.74s WALL (      24 calls)
     newd         :    165.94s CPU    167.75s WALL (      24 calls)
     mix_rho      :     34.32s CPU     34.62s WALL (      24 calls)
     vdW_energy   :      5.04s CPU      5.48s WALL (      24 calls)
     vdW_ffts     :     46.52s CPU     50.07s WALL (      48 calls)
     vdW_v        :     10.58s CPU     11.17s WALL (      24 calls)

     Called by c_bands:
     init_us_2    :      9.86s CPU     10.17s WALL (     588 calls)
     cegterg      :   6749.61s CPU   6991.38s WALL (     288 calls)

     Called by *egterg:
     h_psi        :   2879.39s CPU   3083.83s WALL (    1709 calls)
     s_psi        :    394.56s CPU    396.38s WALL (    1709 calls)
     g_psi        :      5.72s CPU      5.66s WALL (    1409 calls)
     cdiaghg      :   2172.24s CPU   2176.88s WALL (    1685 calls)

     Called by h_psi:
     add_vuspsi   :    392.36s CPU    394.35s WALL (    1709 calls)

     General routines
     calbec       :    582.97s CPU    584.51s WALL (    1997 calls)
     fft          :    102.76s CPU    109.66s WALL (    1584 calls)
     ffts         :      1.16s CPU      1.32s WALL (      48 calls)
     fftw         :   2447.94s CPU   2677.39s WALL (  697078 calls)
     interpolate  :      2.99s CPU      3.47s WALL (      48 calls)
     davcio       :      0.00s CPU      0.17s WALL (      12 calls)

     Parallel routines
     fft_scatter  :   1858.66s CPU   2043.76s WALL (  698710 calls)

     PWSCF        :     2h18m CPU        2h23m WALL


   This run was terminated on:  14:50:29  23Jun2015            

=------------------------------------------------------------------------------=
   JOB DONE.
=------------------------------------------------------------------------------=
