
     Program PWSCF v.5.1.2 starts on 27Jun2015 at  8:30:46 

     This program is part of the open-source Quantum ESPRESSO suite
     for quantum simulation of materials; please cite
         "P. Giannozzi et al., J. Phys.:Condens. Matter 21 395502 (2009);
          URL http://www.quantum-espresso.org", 
     in publications or presentations arising from this work. More details at
     http://www.quantum-espresso.org/quote

     Parallel version (MPI), running on    32 processors
     R & G space division:  proc/nbgrp/npool/nimage =      32
     Reading input from top.O1.Au50.d.3.4.phi.45.psi.90.in
Warning: card &IONS ignored
Warning: card / ignored
Warning: card &CELL ignored
Warning: card / ignored

     Current dimensions of program PWSCF are:
     Max number of different atomic species (ntypx) = 10
     Max number of k-points (npk) =  40000
     Max angular momentum in pseudopotentials (lmaxx) =  3

     IMPORTANT: XC functional enforced from input :
     Exchange-correlation      = VDW-DF ( 1  4  4  0 1 0)
     Any further DFT definition will be discarded
     Please, verify this is what you really want


     Subspace diagonalization in iterative solution of the eigenvalue problem:
     a serial algorithm will be used


     Parallelization info
     --------------------
     sticks:   dense  smooth     PW     G-vecs:    dense   smooth      PW
     Min         445     223     58                96775    34191    4534
     Max         446     224     59                96790    34246    4540
     Sum       14269    7147   1867              3097177  1095093  145167


     Title: 
     top.O1.Au50.d.3.4.phi.45.psi.90                                            


     bravais-lattice index     =            4
     lattice parameter (alat)  =      22.7436  a.u.
     unit-cell volume          =   22924.1508 (a.u.)^3
     number of atoms/cell      =           67
     number of atomic types    =            3
     number of electrons       =       712.00
     number of Kohn-Sham states=          427
     kinetic-energy cutoff     =      50.0000  Ry
     charge density cutoff     =     400.0000  Ry
     convergence threshold     =      1.0E-08
     mixing beta               =       0.7000
     number of iterations used =            8  plain     mixing
     Exchange-correlation      = VDW-DF ( 1  4  4  0 1 0)

     celldm(1)=  22.743643  celldm(2)=   0.000000  celldm(3)=   2.250000
     celldm(4)=   0.000000  celldm(5)=   0.000000  celldm(6)=   0.000000

     crystal axes: (cart. coord. in units of alat)
               a(1) = (   1.000000   0.000000   0.000000 )  
               a(2) = (  -0.500000   0.866025   0.000000 )  
               a(3) = (   0.000000   0.000000   2.250000 )  

     reciprocal axes: (cart. coord. in units 2 pi/alat)
               b(1) = (  1.000000  0.577350 -0.000000 )  
               b(2) = (  0.000000  1.154701  0.000000 )  
               b(3) = (  0.000000 -0.000000  0.444444 )  


     PseudoPot. # 1 for Au read from file:
     /home/scc/andrejb/qe/pseudo/Au.pbe-nd-van.UPF
     MD5 check sum: 458681b50f36d87ef23c61b04bba420a
     Pseudo is Ultrasoft + core correction, Zval = 11.0
     Generated by new atomic code, or converted to UPF format
     Using radial grid of  985 points,  3 beta functions with: 
                l(1) =   1
                l(2) =   2
                l(3) =   2
     Q(r) pseudized with  8 coefficients,  rinner =    1.100   1.100   1.100
                                                       1.100   1.100

     PseudoPot. # 2 for H  read from file:
     /home/scc/andrejb/qe/pseudo/H.pbe-van_ak.UPF
     MD5 check sum: 403db7282739603aa925980fa9b8608d
     Pseudo is Ultrasoft, Zval =  1.0
     Generated by new atomic code, or converted to UPF format
     Using radial grid of  615 points,  1 beta functions with: 
                l(1) =   0
     Q(r) pseudized with  8 coefficients,  rinner =    0.800

     PseudoPot. # 3 for O  read from file:
     /home/scc/andrejb/qe/pseudo/O.pbe-van_ak.UPF
     MD5 check sum: 4b8c549914a63cae506c6ff22b5af4fe
     Pseudo is Ultrasoft, Zval =  6.0
     Generated by new atomic code, or converted to UPF format
     Using radial grid of  737 points,  4 beta functions with: 
                l(1) =   0
                l(2) =   0
                l(3) =   1
                l(4) =   1
     Q(r) pseudized with  8 coefficients,  rinner =    0.800   0.800   0.800


     vdW kernel table read from file vdW_kernel_table
     MD5 check sum: 48e77a2e26edf626eeb0eaa751ad5cac

     atomic species   valence    mass     pseudopotential
        Au            11.00   196.96657     Au( 1.00)
        H              1.00     1.01000     H ( 1.00)
        O              6.00    16.00000     O ( 1.00)

     No symmetry found



   Cartesian axes

     site n.     atom                  positions (alat units)
         1           O   tau(   1) = (   0.4790780   0.3968269   0.8954964  )
         2           H   tau(   2) = (   0.4731484   0.3485733   0.8308095  )
         3           H   tau(   3) = (   0.4848144   0.3460662   0.9582353  )
         4           Au  tau(   4) = (   0.3540481   0.6132292   0.0000000  )
         5           Au  tau(   5) = (   0.4790062   0.3967954   0.0000000  )
         6           Au  tau(   6) = (   0.6039644   0.1803616   0.0000000  )
         7           Au  tau(   7) = (   0.7289225  -0.0360723   0.0000000  )
         8           Au  tau(   8) = (   0.1041318   0.6132292   0.0000000  )
         9           Au  tau(   9) = (   0.2290899   0.3967954   0.0000000  )
        10           Au  tau(  10) = (   0.3540481   0.1803616   0.0000000  )
        11           Au  tau(  11) = (   0.4790062  -0.0360723   0.0000000  )
        12           Au  tau(  12) = (  -0.1457845   0.6132292   0.0000000  )
        13           Au  tau(  13) = (  -0.0208264   0.3967954   0.0000000  )
        14           Au  tau(  14) = (   0.1041318   0.1803616   0.0000000  )
        15           Au  tau(  15) = (   0.2290899  -0.0360723   0.0000000  )
        16           Au  tau(  16) = (  -0.3957008   0.6132292   0.0000000  )
        17           Au  tau(  17) = (  -0.2707426   0.3967954   0.0000000  )
        18           Au  tau(  18) = (  -0.1457845   0.1803616   0.0000000  )
        19           Au  tau(  19) = (  -0.0208264  -0.0360723   0.0000000  )
        20           Au  tau(  20) = (   0.4790062   0.6853738   0.2040557  )
        21           Au  tau(  21) = (   0.6039644   0.4689400   0.2040557  )
        22           Au  tau(  22) = (   0.7289225   0.2525062   0.2040557  )
        23           Au  tau(  23) = (   0.8538806   0.0360723   0.2040557  )
        24           Au  tau(  24) = (   0.2290899   0.6853738   0.2040557  )
        25           Au  tau(  25) = (   0.3540481   0.4689400   0.2040557  )
        26           Au  tau(  26) = (   0.4790062   0.2525062   0.2040557  )
        27           Au  tau(  27) = (   0.6039644   0.0360723   0.2040557  )
        28           Au  tau(  28) = (  -0.0208264   0.6853738   0.2040557  )
        29           Au  tau(  29) = (   0.1041318   0.4689400   0.2040557  )
        30           Au  tau(  30) = (   0.2290899   0.2525062   0.2040557  )
        31           Au  tau(  31) = (   0.3540481   0.0360723   0.2040557  )
        32           Au  tau(  32) = (  -0.2707426   0.6853738   0.2040557  )
        33           Au  tau(  33) = (  -0.1457845   0.4689400   0.2040557  )
        34           Au  tau(  34) = (  -0.0208264   0.2525062   0.2040557  )
        35           Au  tau(  35) = (   0.1041318   0.0360723   0.2040557  )
        36           Au  tau(  36) = (   0.3541162   0.7576593   0.4066483  )
        37           Au  tau(  37) = (   0.4791000   0.5411421   0.4066696  )
        38           Au  tau(  38) = (   0.6040570   0.3246862   0.4066618  )
        39           Au  tau(  39) = (   0.7290270   0.1081684   0.4066530  )
        40           Au  tau(  40) = (   0.1041162   0.7576236   0.4066247  )
        41           Au  tau(  41) = (   0.2291001   0.5411062   0.4066455  )
        42           Au  tau(  42) = (   0.3540567   0.3246505   0.4066380  )
        43           Au  tau(  43) = (   0.4790276   0.1081324   0.4066292  )
        44           Au  tau(  44) = (  -0.1458201   0.7576104   0.4066225  )
        45           Au  tau(  45) = (  -0.0208365   0.5410930   0.4066438  )
        46           Au  tau(  46) = (   0.1041202   0.3246372   0.4066359  )
        47           Au  tau(  47) = (   0.2290908   0.1081193   0.4066273  )
        48           Au  tau(  48) = (  -0.3958167   0.7575791   0.4065812  )
        49           Au  tau(  49) = (  -0.2708328   0.5410617   0.4066025  )
        50           Au  tau(  50) = (  -0.1458763   0.3246061   0.4065947  )
        51           Au  tau(  51) = (  -0.0209056   0.1080882   0.4065858  )
        52           Au  tau(  52) = (   0.3541084   0.6133344   0.6129762  )
        53           Au  tau(  53) = (   0.4790780   0.3968269   0.6129968  )
        54           Au  tau(  54) = (   0.6040356   0.1803811   0.6129859  )
        55           Au  tau(  55) = (   0.7290165  -0.0361221   0.6129385  )
        56           Au  tau(  56) = (   0.1041243   0.6133091   0.6130023  )
        57           Au  tau(  57) = (   0.2290941   0.3968013   0.6130241  )
        58           Au  tau(  58) = (   0.3540515   0.1803552   0.6130121  )
        59           Au  tau(  59) = (   0.4790323  -0.0361475   0.6129659  )
        60           Au  tau(  60) = (  -0.1458030   0.6133014   0.6129980  )
        61           Au  tau(  61) = (  -0.0208339   0.3967936   0.6130189  )
        62           Au  tau(  62) = (   0.1041239   0.1803477   0.6130083  )
        63           Au  tau(  63) = (   0.2291046  -0.0361554   0.6129607  )
        64           Au  tau(  64) = (  -0.3957908   0.6132739   0.6129471  )
        65           Au  tau(  65) = (  -0.2708208   0.3967658   0.6129688  )
        66           Au  tau(  66) = (  -0.1458636   0.1803200   0.6129569  )
        67           Au  tau(  67) = (  -0.0208823  -0.0361826   0.6129110  )

     number of k points=    12  Marzari-Vanderbilt smearing, width (Ry)=  0.0200
                       cart. coord. in units 2pi/alat
        k(    1) = (   0.2500000   0.4330127   0.1111111), wk =   0.1666667
        k(    2) = (   0.2500000  -0.1443376   0.1111111), wk =   0.1666667
        k(    3) = (  -0.2500000  -0.4330127   0.1111111), wk =   0.1666667
        k(    4) = (  -0.2500000   0.4330127  -0.1111111), wk =   0.1666667
        k(    5) = (   0.2500000  -0.4330127  -0.1111111), wk =   0.1666667
        k(    6) = (   0.5000000   0.0000000   0.1111111), wk =   0.1666667
        k(    7) = (  -0.5000000   0.0000000   0.1111111), wk =   0.1666667
        k(    8) = (  -0.2500000   0.1443376   0.1111111), wk =   0.1666667
        k(    9) = (  -0.2500000  -0.1443376  -0.1111111), wk =   0.1666667
        k(   10) = (   0.2500000   0.1443376  -0.1111111), wk =   0.1666667
        k(   11) = (   0.0000000  -0.2886751   0.1111111), wk =   0.1666667
        k(   12) = (   0.0000000   0.2886751   0.1111111), wk =   0.1666667

     Dense  grid:  3097177 G-vectors     FFT dimensions: ( 150, 150, 360)

     Smooth grid:  1095093 G-vectors     FFT dimensions: ( 108, 108, 240)

     Largest allocated arrays     est. size (Mb)     dimensions
        Kohn-Sham Wavefunctions        28.01 Mb     (    4299,  427)
        NL pseudopotentials            55.23 Mb     (    4299,  842)
        Each V/rho on FFT grid          4.12 Mb     (  270000)
        Each G-vector array             0.74 Mb     (   96788)
        G-vector shells                 0.16 Mb     (   21404)
     Largest temporary arrays     est. size (Mb)     dimensions
        Auxiliary wavefunctions       112.04 Mb     (    4299, 1708)
        Each subspace H/S matrix       44.51 Mb     (    1708, 1708)
        Each <psi_i|beta_j> matrix      5.49 Mb     (     842,  427)
        Arrays for rho mixing          32.96 Mb     (  270000,    8)

     Initial potential from superposition of free atoms
     Check: negative starting charge=   -1.730187

     starting charge  711.25682, renormalised to  712.00000

     negative rho (up, down):  1.732E+00 0.000E+00


     ************************************************************************
     *
     * You are using vdW-DF for exchange-correlation in this calculation.
     * Please cite the following three references that made this development
     * possible:
     *
     *   M. Dion, H. Rydberg, E. Schroder, D. C. Langreth, and
     *   B. I. Lundqvist, Phys. Rev. Lett. 92, 246401 (2004).
     *
     *   T. Thonhauser, V. R. Cooper, S. Li, A. Puzder, P. Hyldgaard, and
     *   D. C. Langreth, Phys. Rev. B 76, 125112 (2007).
     *
     *   G. Roman-Perez and J. M. Soler, Phys. Rev. Lett. 103, 096102 (2009).
     *
     *
     * If you are using vdW-DF2, please also cite:
     *
     *   K. Lee, E. D. Murray, L. Kong, B. I. Lundqvist, and
     *   D. C. Langreth, Phys. Rev. B 82, 081101(R) (2010).
     *
     *
     * If you are calculating the stress with vdW-DF, please also cite:
     *
     *   R. Sabatini, E. Kucukbenli, B. Kolb, T. Thonhauser, and
     *   S. de Gironcoli, J. Phys.: Condens. Matter 24, 424209 (2012).
     *
     ************************************************************************

     Carrying out vdW-DF run using the following parameters:

     Nqs =      20    Nr_points =    1024   r_max =   100.000
     q_mesh =
               0.00001000     0.04494208     0.09755937     0.15916263
               0.23128650     0.31572767     0.41458969     0.53033537
               0.66584808     0.82450364     1.01025438     1.22772762
               1.48234092     1.78043706     2.12944203     2.53805004
               3.01644009     3.57652955     4.23227104     5.00000000

     Gradients computed in reciprocal space

     ************************************************************************


     Starting wfc are  582 randomized atomic wfcs

     total cpu time spent up to now is      164.6 secs

     Self-consistent Calculation

     iteration #  1     ecut=    50.00 Ry     beta=0.70
     Davidson diagonalization with overlap
     ethr =  1.00E-02,  avg # of iterations =  3.0

     Threshold (ethr) on eigenvalues was too large:
     Diagonalizing with lowered threshold

     Davidson diagonalization with overlap
     ethr =  3.47E-04,  avg # of iterations =  4.8

     negative rho (up, down):  1.727E+00 0.000E+00

     total cpu time spent up to now is      812.7 secs

     total energy              =   -6602.79304169 Ry
     Harris-Foulkes estimate   =   -6605.03567016 Ry
     estimated scf accuracy    <       2.81124899 Ry

     iteration #  2     ecut=    50.00 Ry     beta=0.70
     Davidson diagonalization with overlap
     ethr =  3.95E-04,  avg # of iterations = 11.3

     negative rho (up, down):  1.727E+00 0.000E+00

     total cpu time spent up to now is     1767.5 secs

     total energy              =   -6596.86096952 Ry
     Harris-Foulkes estimate   =   -6610.09429504 Ry
     estimated scf accuracy    <      73.15252573 Ry

     iteration #  3     ecut=    50.00 Ry     beta=0.70
     Davidson diagonalization with overlap
     ethr =  3.95E-04,  avg # of iterations =  6.3

     negative rho (up, down):  1.737E+00 0.000E+00

     total cpu time spent up to now is     2405.0 secs

     total energy              =   -6603.14802410 Ry
     Harris-Foulkes estimate   =   -6605.00370466 Ry
     estimated scf accuracy    <       8.47919925 Ry

     iteration #  4     ecut=    50.00 Ry     beta=0.70
     Davidson diagonalization with overlap
     ethr =  3.95E-04,  avg # of iterations =  6.5

     negative rho (up, down):  1.738E+00 0.000E+00

     total cpu time spent up to now is     2796.0 secs

     total energy              =   -6603.64551196 Ry
     Harris-Foulkes estimate   =   -6605.03990871 Ry
     estimated scf accuracy    <      11.84534177 Ry

     iteration #  5     ecut=    50.00 Ry     beta=0.70
     Davidson diagonalization with overlap
     ethr =  3.95E-04,  avg # of iterations =  6.4

     negative rho (up, down):  1.748E+00 0.000E+00

     total cpu time spent up to now is     3174.3 secs

     total energy              =   -6604.28724318 Ry
     Harris-Foulkes estimate   =   -6604.66472502 Ry
     estimated scf accuracy    <       2.98895916 Ry

     iteration #  6     ecut=    50.00 Ry     beta=0.70
     Davidson diagonalization with overlap
     ethr =  3.95E-04,  avg # of iterations =  2.7

     negative rho (up, down):  1.752E+00 0.000E+00

     total cpu time spent up to now is     3469.9 secs

     total energy              =   -6604.42782971 Ry
     Harris-Foulkes estimate   =   -6604.46986416 Ry
     estimated scf accuracy    <       0.13026928 Ry

     iteration #  7     ecut=    50.00 Ry     beta=0.70
     Davidson diagonalization with overlap
     ethr =  1.83E-05,  avg # of iterations = 10.4

     negative rho (up, down):  1.755E+00 0.000E+00

     total cpu time spent up to now is     3957.1 secs

     total energy              =   -6604.43241162 Ry
     Harris-Foulkes estimate   =   -6604.45955821 Ry
     estimated scf accuracy    <       0.11834577 Ry

     iteration #  8     ecut=    50.00 Ry     beta=0.70
     Davidson diagonalization with overlap
     ethr =  1.66E-05,  avg # of iterations =  3.6

     negative rho (up, down):  1.756E+00 0.000E+00

     total cpu time spent up to now is     4271.7 secs

     total energy              =   -6604.43495869 Ry
     Harris-Foulkes estimate   =   -6604.44824689 Ry
     estimated scf accuracy    <       0.05093418 Ry

     iteration #  9     ecut=    50.00 Ry     beta=0.70
     Davidson diagonalization with overlap
     ethr =  7.15E-06,  avg # of iterations =  5.1

     negative rho (up, down):  1.756E+00 0.000E+00

     total cpu time spent up to now is     4619.8 secs

     total energy              =   -6604.43435796 Ry
     Harris-Foulkes estimate   =   -6604.44086733 Ry
     estimated scf accuracy    <       0.02352070 Ry

     iteration # 10     ecut=    50.00 Ry     beta=0.70
     Davidson diagonalization with overlap
     ethr =  3.30E-06,  avg # of iterations =  6.8

     negative rho (up, down):  1.757E+00 0.000E+00

     total cpu time spent up to now is     4990.0 secs

     total energy              =   -6604.43365412 Ry
     Harris-Foulkes estimate   =   -6604.43677479 Ry
     estimated scf accuracy    <       0.01098234 Ry

     iteration # 11     ecut=    50.00 Ry     beta=0.70
     Davidson diagonalization with overlap
     ethr =  1.54E-06,  avg # of iterations =  5.5

     negative rho (up, down):  1.758E+00 0.000E+00

     total cpu time spent up to now is     5341.8 secs

     total energy              =   -6604.43336573 Ry
     Harris-Foulkes estimate   =   -6604.43482190 Ry
     estimated scf accuracy    <       0.00584717 Ry

     iteration # 12     ecut=    50.00 Ry     beta=0.70
     Davidson diagonalization with overlap
     ethr =  8.21E-07,  avg # of iterations =  4.0

     negative rho (up, down):  1.758E+00 0.000E+00

     total cpu time spent up to now is     5654.4 secs

     total energy              =   -6604.43283993 Ry
     Harris-Foulkes estimate   =   -6604.43385086 Ry
     estimated scf accuracy    <       0.00166364 Ry

     iteration # 13     ecut=    50.00 Ry     beta=0.70
     Davidson diagonalization with overlap
     ethr =  2.34E-07,  avg # of iterations =  5.8

     negative rho (up, down):  1.758E+00 0.000E+00

     total cpu time spent up to now is     6030.0 secs

     total energy              =   -6604.43307737 Ry
     Harris-Foulkes estimate   =   -6604.43328412 Ry
     estimated scf accuracy    <       0.00057386 Ry

     iteration # 14     ecut=    50.00 Ry     beta=0.70
     Davidson diagonalization with overlap
     ethr =  8.06E-08,  avg # of iterations =  2.0

     negative rho (up, down):  1.758E+00 0.000E+00

     total cpu time spent up to now is     6320.0 secs

     total energy              =   -6604.43315268 Ry
     Harris-Foulkes estimate   =   -6604.43324484 Ry
     estimated scf accuracy    <       0.00036038 Ry

     iteration # 15     ecut=    50.00 Ry     beta=0.70
     Davidson diagonalization with overlap
     ethr =  5.06E-08,  avg # of iterations =  2.0

     negative rho (up, down):  1.758E+00 0.000E+00

     total cpu time spent up to now is     6607.0 secs

     total energy              =   -6604.43318474 Ry
     Harris-Foulkes estimate   =   -6604.43322219 Ry
     estimated scf accuracy    <       0.00013942 Ry

     iteration # 16     ecut=    50.00 Ry     beta=0.70
     Davidson diagonalization with overlap
     ethr =  1.96E-08,  avg # of iterations =  2.0

     negative rho (up, down):  1.758E+00 0.000E+00

     total cpu time spent up to now is     6888.8 secs

     total energy              =   -6604.43318383 Ry
     Harris-Foulkes estimate   =   -6604.43322318 Ry
     estimated scf accuracy    <       0.00037478 Ry

     iteration # 17     ecut=    50.00 Ry     beta=0.70
     Davidson diagonalization with overlap
     ethr =  1.96E-08,  avg # of iterations =  1.0

     negative rho (up, down):  1.758E+00 0.000E+00

     total cpu time spent up to now is     7155.1 secs

     total energy              =   -6604.43320435 Ry
     Harris-Foulkes estimate   =   -6604.43320850 Ry
     estimated scf accuracy    <       0.00002987 Ry

     iteration # 18     ecut=    50.00 Ry     beta=0.70
     Davidson diagonalization with overlap
     ethr =  4.20E-09,  avg # of iterations =  2.0

     negative rho (up, down):  1.758E+00 0.000E+00

     total cpu time spent up to now is     7437.1 secs

     total energy              =   -6604.43320521 Ry
     Harris-Foulkes estimate   =   -6604.43320820 Ry
     estimated scf accuracy    <       0.00001103 Ry

     iteration # 19     ecut=    50.00 Ry     beta=0.70
     Davidson diagonalization with overlap
     ethr =  1.55E-09,  avg # of iterations =  2.0

     negative rho (up, down):  1.758E+00 0.000E+00

     total cpu time spent up to now is     7719.0 secs

     total energy              =   -6604.43320677 Ry
     Harris-Foulkes estimate   =   -6604.43320722 Ry
     estimated scf accuracy    <       0.00000196 Ry

     iteration # 20     ecut=    50.00 Ry     beta=0.70
     Davidson diagonalization with overlap
     ethr =  2.76E-10,  avg # of iterations =  2.0

     negative rho (up, down):  1.758E+00 0.000E+00

     total cpu time spent up to now is     8001.8 secs

     total energy              =   -6604.43320714 Ry
     Harris-Foulkes estimate   =   -6604.43320714 Ry
     estimated scf accuracy    <       0.00000018 Ry

     iteration # 21     ecut=    50.00 Ry     beta=0.70
     Davidson diagonalization with overlap
     ethr =  2.56E-11,  avg # of iterations =  3.0

     negative rho (up, down):  1.758E+00 0.000E+00

     total cpu time spent up to now is     8384.3 secs

     total energy              =   -6604.43320718 Ry
     Harris-Foulkes estimate   =   -6604.43320721 Ry
     estimated scf accuracy    <       0.00000019 Ry

     iteration # 22     ecut=    50.00 Ry     beta=0.70
     Davidson diagonalization with overlap
     ethr =  2.56E-11,  avg # of iterations =  2.0

     negative rho (up, down):  1.758E+00 0.000E+00

     total cpu time spent up to now is     8667.1 secs

     total energy              =   -6604.43320721 Ry
     Harris-Foulkes estimate   =   -6604.43320721 Ry
     estimated scf accuracy    <       0.00000001 Ry

     iteration # 23     ecut=    50.00 Ry     beta=0.70
     Davidson diagonalization with overlap
     ethr =  1.95E-12,  avg # of iterations =  4.0

     negative rho (up, down):  1.758E+00 0.000E+00

     total cpu time spent up to now is     9077.1 secs

     total energy              =   -6604.43320721 Ry
     Harris-Foulkes estimate   =   -6604.43320722 Ry
     estimated scf accuracy    <       0.00000001 Ry

     iteration # 24     ecut=    50.00 Ry     beta=0.70
     Davidson diagonalization with overlap
     ethr =  1.73E-12,  avg # of iterations =  3.0

     negative rho (up, down):  1.758E+00 0.000E+00

     total cpu time spent up to now is     9426.1 secs

     total energy              =   -6604.43320722 Ry
     Harris-Foulkes estimate   =   -6604.43320722 Ry
     estimated scf accuracy    <       0.00000001 Ry

     iteration # 25     ecut=    50.00 Ry     beta=0.70
     Davidson diagonalization with overlap
     ethr =  1.73E-12,  avg # of iterations =  2.0

     negative rho (up, down):  1.758E+00 0.000E+00

     total cpu time spent up to now is     9708.6 secs

     End of self-consistent calculation

          k = 0.2500 0.4330 0.1111 (136853 PWs)   bands (ev):

   -18.6357  -6.5099  -6.3567  -5.9590  -5.9588  -5.2807  -4.9481  -4.9477
    -4.9087  -4.9075  -4.5477  -4.5475  -4.4490  -4.4490  -4.4350  -4.4129
    -4.3874  -4.2818  -4.2809  -4.2572  -4.2138  -4.2137  -4.1451  -4.1446
    -4.1379  -4.1373  -4.1166  -4.1107  -4.1103  -4.0393  -4.0366  -4.0085
    -4.0081  -3.9961  -3.9960  -3.9729  -3.9727  -3.9503  -3.9419  -3.9417
    -3.9150  -3.8629  -3.8628  -3.8150  -3.8146  -3.7557  -3.7553  -3.7010
    -3.7008  -3.7004  -3.7000  -3.6649  -3.6264  -3.6254  -3.6195  -3.6180
    -3.6177  -3.5880  -3.5865  -3.5787  -3.5171  -3.5166  -3.5077  -3.4908
    -3.4837  -3.4112  -3.4107  -3.3788  -3.3766  -3.3501  -3.3493  -3.3362
    -3.3194  -3.2598  -3.2590  -3.2422  -3.2415  -3.1902  -3.1859  -3.1847
    -3.1465  -3.1161  -3.1143  -3.1065  -3.1062  -3.0941  -3.0929  -3.0857
    -3.0847  -3.0753  -3.0345  -2.9968  -2.9960  -2.9823  -2.9815  -2.9557
    -2.9465  -2.9456  -2.9246  -2.8799  -2.8794  -2.8707  -2.8312  -2.8246
    -2.8132  -2.8129  -2.7857  -2.7831  -2.7545  -2.7272  -2.7167  -2.6979
    -2.6941  -2.6867  -2.6727  -2.6662  -2.6227  -2.6215  -2.5894  -2.5667
    -2.5660  -2.5426  -2.5418  -2.5310  -2.5306  -2.5202  -2.4975  -2.4970
    -2.4527  -2.4525  -2.4512  -2.4347  -2.4340  -2.4289  -2.4199  -2.4176
    -2.4173  -2.4161  -2.4108  -2.3990  -2.3976  -2.3873  -2.3624  -2.3609
    -2.3602  -2.3586  -2.3577  -2.3560  -2.3550  -2.3277  -2.3247  -2.3110
    -2.3099  -2.2925  -2.2924  -2.2826  -2.2825  -2.2810  -2.2799  -2.2614
    -2.2600  -2.2594  -2.2576  -2.2417  -2.2150  -2.2149  -2.1749  -2.1746
    -2.1497  -2.1490  -2.1221  -2.1216  -2.0947  -2.0933  -2.0764  -2.0722
    -2.0451  -2.0242  -2.0228  -2.0181  -2.0164  -2.0127  -2.0060  -2.0046
    -1.9793  -1.9732  -1.9636  -1.9060  -1.9026  -1.9012  -1.8995  -1.8980
    -1.8621  -1.8431  -1.8426  -1.8155  -1.8143  -1.7550  -1.7541  -1.7253
    -1.7075  -1.7062  -1.6460  -1.6454  -1.6346  -1.6329  -1.6230  -1.6218
    -1.6189  -1.6101  -1.6084  -1.5546  -1.5529  -1.5421  -1.5406  -1.5400
    -1.5227  -1.5199  -1.4857  -1.4852  -1.4690  -1.4680  -1.4673  -1.4611
    -1.4562  -1.4474  -1.4451  -1.4276  -1.4264  -1.3870  -1.3843  -1.3742
    -1.3721  -1.3529  -1.3391  -1.2970  -1.2952  -1.2698  -1.2651  -1.2645
    -1.2356  -1.1853  -1.1835  -1.1825  -1.1815  -1.1769  -1.1758  -1.1660
    -1.1483  -1.1468  -1.1083  -1.1062  -1.0773  -1.0756  -1.0716  -1.0705
    -1.0631  -1.0475  -1.0462  -1.0457  -1.0435  -1.0414  -1.0064  -1.0035
    -1.0029  -1.0021  -0.9728  -0.9712  -0.9677  -0.9438  -0.9368  -0.9348
    -0.8896  -0.8824  -0.8810  -0.8471  -0.8385  -0.8277  -0.8268  -0.8213
    -0.8189  -0.8180  -0.8168  -0.8070  -0.8049  -0.7801  -0.7796  -0.7763
    -0.7755  -0.7731  -0.7376  -0.7366  -0.7338  -0.7260  -0.7116  -0.7047
    -0.7019  -0.6909  -0.6511  -0.6350  -0.6328  -0.6245  -0.6238  -0.6230
    -0.6185  -0.6128  -0.5985  -0.5959  -0.5887  -0.5882  -0.5865  -0.5836
    -0.5473  -0.5448  -0.5441  -0.5367  -0.5354  -0.5305  -0.5289  -0.5181
    -0.5134  -0.5095  -0.5087  -0.4675  -0.4665  -0.4587  -0.4550  -0.4544
    -0.3782  -0.3764  -0.3747  -0.3742  -0.3653  -0.3648  -0.3287  -0.3162
    -0.3154  -0.2866  -0.2845  -0.2834  -0.1633  -0.1603  -0.0598   0.3555
     0.3560   0.3590   0.3593   0.4194   0.4225   0.8085   0.8094   0.8513
     0.8525   0.9619   1.0406   1.1499   1.1543   1.3730   1.3777   2.0049
     2.0075   2.1666   2.1704   2.2990   2.3037   2.4045   2.4047   2.5588
     2.7961   2.8060   2.9198   3.1429   3.1478   3.2276   3.2289   3.3286
     3.3438   3.5393   3.5518   3.6001   3.8003   3.8018   3.8609   3.8665
     4.1200   4.1269   4.1312   4.3709   4.4113   4.4146   4.4586   4.7923
     4.7964   4.8233   4.9565   5.1300   5.1328   5.1763   5.2094   5.4743
     5.7906   5.9157   5.9235   5.9288   5.9334   5.9923   5.9960   6.0724
     6.1039   6.1156   6.1295   6.1578   6.1606   6.1821   6.1901   6.2164
     6.2200   6.4123   6.5746   6.7006   6.7496   6.7934   6.8609   6.8713
     6.8768   6.9826   6.9894

          k = 0.2500-0.1443 0.1111 (136898 PWs)   bands (ev):

   -18.6357  -6.5738  -6.5025  -5.7764  -5.4844  -5.4262  -5.4261  -4.8879
    -4.8878  -4.7560  -4.7554  -4.6005  -4.5699  -4.5083  -4.4745  -4.4739
    -4.4412  -4.4412  -4.3127  -4.2709  -4.2709  -4.2109  -4.1897  -4.1895
    -4.0875  -4.0874  -4.0513  -4.0510  -4.0509  -4.0240  -4.0025  -4.0024
    -3.8973  -3.8953  -3.8952  -3.8746  -3.8577  -3.8575  -3.8454  -3.8450
    -3.8320  -3.8019  -3.8018  -3.8015  -3.8012  -3.7688  -3.7685  -3.7512
    -3.7509  -3.7371  -3.6943  -3.6927  -3.6628  -3.6480  -3.6468  -3.6427
    -3.6427  -3.5682  -3.5680  -3.5330  -3.5305  -3.5298  -3.4627  -3.4624
    -3.4472  -3.4468  -3.4165  -3.4161  -3.4149  -3.4147  -3.2617  -3.2610
    -3.2373  -3.2357  -3.2309  -3.2147  -3.2143  -3.1888  -3.1884  -3.1388
    -3.1385  -3.1227  -3.1220  -3.1019  -3.0548  -3.0530  -3.0339  -3.0290
    -3.0285  -2.9882  -2.9877  -2.9812  -2.9807  -2.9649  -2.9639  -2.9252
    -2.9248  -2.9045  -2.9026  -2.9001  -2.8996  -2.8963  -2.8204  -2.8194
    -2.8179  -2.7895  -2.7887  -2.7384  -2.7268  -2.7028  -2.6984  -2.6927
    -2.6844  -2.6817  -2.6781  -2.6493  -2.6474  -2.6394  -2.6217  -2.5964
    -2.5956  -2.5936  -2.5752  -2.5744  -2.5636  -2.5630  -2.5604  -2.5590
    -2.5518  -2.5060  -2.4737  -2.4731  -2.4580  -2.4440  -2.4377  -2.4369
    -2.4303  -2.4293  -2.4280  -2.3983  -2.3980  -2.3976  -2.3883  -2.3879
    -2.3710  -2.3440  -2.3428  -2.3424  -2.3418  -2.3416  -2.2962  -2.2651
    -2.2647  -2.2640  -2.2574  -2.2486  -2.2359  -2.2354  -2.2189  -2.2187
    -2.1861  -2.1838  -2.1835  -2.1650  -2.1642  -2.1630  -2.1312  -2.1299
    -2.0903  -2.0883  -2.0817  -2.0797  -2.0792  -2.0731  -2.0725  -2.0703
    -2.0697  -2.0642  -2.0619  -2.0469  -2.0456  -1.9202  -1.9180  -1.8868
    -1.8809  -1.8793  -1.8745  -1.8743  -1.8573  -1.8567  -1.8544  -1.8531
    -1.8515  -1.8290  -1.8222  -1.8201  -1.8163  -1.8096  -1.8077  -1.7857
    -1.7854  -1.7570  -1.7566  -1.7258  -1.7244  -1.7145  -1.7063  -1.6889
    -1.6880  -1.6853  -1.6672  -1.6544  -1.6544  -1.6471  -1.6469  -1.6208
    -1.6201  -1.6035  -1.6027  -1.5711  -1.5700  -1.5610  -1.5108  -1.5099
    -1.4981  -1.4964  -1.4959  -1.4713  -1.4688  -1.4358  -1.4350  -1.4343
    -1.4016  -1.3914  -1.3900  -1.3750  -1.3744  -1.3493  -1.3467  -1.3463
    -1.3170  -1.3143  -1.3139  -1.2521  -1.2508  -1.2390  -1.2371  -1.2223
    -1.2211  -1.2091  -1.2085  -1.1907  -1.1779  -1.1512  -1.1494  -1.1386
    -1.1113  -1.1008  -1.0995  -1.0885  -1.0882  -1.0863  -1.0814  -1.0804
    -1.0672  -1.0375  -1.0361  -1.0263  -1.0249  -1.0230  -1.0225  -1.0000
    -0.9826  -0.9800  -0.9610  -0.9588  -0.8675  -0.8537  -0.8484  -0.8481
    -0.8449  -0.8403  -0.8380  -0.8203  -0.8132  -0.7986  -0.7967  -0.7833
    -0.7826  -0.7738  -0.7552  -0.7534  -0.7508  -0.7429  -0.6736  -0.6704
    -0.6598  -0.6365  -0.6326  -0.6308  -0.6251  -0.6237  -0.6233  -0.6191
    -0.6109  -0.6061  -0.5924  -0.5692  -0.5540  -0.5353  -0.5343  -0.5241
    -0.5231  -0.5116  -0.5100  -0.5096  -0.5079  -0.5070  -0.4904  -0.4860
    -0.4857  -0.4554  -0.4542  -0.4530  -0.4414  -0.4412  -0.4219  -0.3901
    -0.3897  -0.3806  -0.3802  -0.3126  -0.3120  -0.2752  -0.2746  -0.2168
    -0.2164  -0.2151  -0.2034  -0.1878   0.0359   0.0398   0.3841   0.3842
     0.4744   0.4786   0.6700   0.6851   0.7019   0.8320   0.8335   1.2643
     1.2644   1.2828   1.5418   1.5743   1.5745   1.8501   1.8563   1.9299
     1.9311   1.9564   1.9609   2.1863   2.1876   2.2753   2.2759   2.3517
     2.4133   2.4192   2.5791   2.6772   3.1154   3.1188   3.1205   3.1229
     3.1750   3.1771   3.4681   3.4688   3.7475   3.7536   3.8588   4.1646
     4.2042   4.2095   4.4202   4.4463   4.5072   4.5088   4.5985   4.7161
     4.7193   4.8334   4.8356   5.1372   5.2042   5.2092   5.3205   5.3947
     5.4298   5.5946   5.5976   5.6215   5.6236   5.6827   5.6879   5.7277
     5.8226   6.0629   6.2716   6.2945   6.3607   6.4259   6.4295   6.4395
     6.4439   6.5081   6.6270   6.6799   6.6868   6.8437   6.9101   6.9282
     6.9375   7.0003   7.0802

          k =-0.2500-0.4330 0.1111 (136853 PWs)   bands (ev):

   -18.6357  -6.5099  -6.3567  -5.9590  -5.9588  -5.2807  -4.9481  -4.9477
    -4.9087  -4.9075  -4.5477  -4.5475  -4.4490  -4.4490  -4.4350  -4.4129
    -4.3874  -4.2818  -4.2809  -4.2572  -4.2138  -4.2137  -4.1451  -4.1446
    -4.1379  -4.1373  -4.1166  -4.1107  -4.1103  -4.0393  -4.0366  -4.0085
    -4.0081  -3.9961  -3.9960  -3.9729  -3.9727  -3.9503  -3.9419  -3.9417
    -3.9150  -3.8629  -3.8628  -3.8150  -3.8146  -3.7557  -3.7553  -3.7010
    -3.7008  -3.7004  -3.7000  -3.6649  -3.6264  -3.6254  -3.6195  -3.6180
    -3.6177  -3.5880  -3.5865  -3.5787  -3.5171  -3.5166  -3.5077  -3.4908
    -3.4837  -3.4112  -3.4107  -3.3788  -3.3766  -3.3501  -3.3493  -3.3362
    -3.3194  -3.2598  -3.2590  -3.2422  -3.2415  -3.1902  -3.1859  -3.1847
    -3.1465  -3.1161  -3.1143  -3.1065  -3.1062  -3.0941  -3.0929  -3.0857
    -3.0847  -3.0753  -3.0345  -2.9968  -2.9960  -2.9823  -2.9815  -2.9557
    -2.9465  -2.9456  -2.9246  -2.8799  -2.8794  -2.8707  -2.8312  -2.8246
    -2.8132  -2.8129  -2.7857  -2.7831  -2.7545  -2.7272  -2.7167  -2.6979
    -2.6941  -2.6867  -2.6727  -2.6662  -2.6227  -2.6215  -2.5894  -2.5667
    -2.5660  -2.5426  -2.5418  -2.5310  -2.5306  -2.5202  -2.4975  -2.4970
    -2.4527  -2.4525  -2.4512  -2.4347  -2.4340  -2.4289  -2.4199  -2.4176
    -2.4173  -2.4161  -2.4108  -2.3990  -2.3976  -2.3873  -2.3624  -2.3609
    -2.3602  -2.3586  -2.3577  -2.3560  -2.3550  -2.3277  -2.3247  -2.3110
    -2.3099  -2.2925  -2.2924  -2.2826  -2.2825  -2.2810  -2.2799  -2.2614
    -2.2600  -2.2594  -2.2576  -2.2417  -2.2150  -2.2149  -2.1749  -2.1746
    -2.1497  -2.1490  -2.1221  -2.1216  -2.0947  -2.0933  -2.0764  -2.0722
    -2.0451  -2.0242  -2.0228  -2.0181  -2.0164  -2.0127  -2.0060  -2.0046
    -1.9793  -1.9732  -1.9636  -1.9060  -1.9026  -1.9012  -1.8995  -1.8980
    -1.8621  -1.8431  -1.8426  -1.8155  -1.8143  -1.7550  -1.7541  -1.7253
    -1.7075  -1.7062  -1.6460  -1.6454  -1.6346  -1.6329  -1.6230  -1.6218
    -1.6189  -1.6101  -1.6084  -1.5546  -1.5529  -1.5421  -1.5406  -1.5400
    -1.5227  -1.5199  -1.4857  -1.4852  -1.4690  -1.4680  -1.4673  -1.4611
    -1.4562  -1.4474  -1.4451  -1.4276  -1.4264  -1.3870  -1.3843  -1.3742
    -1.3721  -1.3529  -1.3391  -1.2970  -1.2952  -1.2698  -1.2651  -1.2645
    -1.2356  -1.1853  -1.1835  -1.1825  -1.1815  -1.1769  -1.1758  -1.1660
    -1.1483  -1.1468  -1.1083  -1.1062  -1.0773  -1.0756  -1.0716  -1.0705
    -1.0631  -1.0475  -1.0462  -1.0457  -1.0435  -1.0414  -1.0064  -1.0035
    -1.0029  -1.0021  -0.9728  -0.9712  -0.9677  -0.9438  -0.9368  -0.9348
    -0.8896  -0.8824  -0.8810  -0.8471  -0.8385  -0.8277  -0.8268  -0.8213
    -0.8189  -0.8180  -0.8168  -0.8070  -0.8049  -0.7801  -0.7796  -0.7763
    -0.7755  -0.7731  -0.7376  -0.7366  -0.7338  -0.7260  -0.7116  -0.7047
    -0.7019  -0.6909  -0.6511  -0.6350  -0.6328  -0.6245  -0.6238  -0.6230
    -0.6185  -0.6128  -0.5985  -0.5959  -0.5887  -0.5882  -0.5865  -0.5835
    -0.5473  -0.5448  -0.5441  -0.5367  -0.5354  -0.5305  -0.5289  -0.5181
    -0.5134  -0.5095  -0.5087  -0.4675  -0.4665  -0.4587  -0.4550  -0.4544
    -0.3782  -0.3764  -0.3747  -0.3742  -0.3653  -0.3648  -0.3287  -0.3162
    -0.3154  -0.2866  -0.2845  -0.2834  -0.1633  -0.1603  -0.0598   0.3555
     0.3560   0.3590   0.3593   0.4194   0.4225   0.8085   0.8094   0.8513
     0.8525   0.9619   1.0406   1.1499   1.1543   1.3730   1.3777   2.0049
     2.0075   2.1666   2.1704   2.2990   2.3037   2.4045   2.4047   2.5588
     2.7961   2.8060   2.9198   3.1429   3.1478   3.2276   3.2289   3.3286
     3.3438   3.5393   3.5518   3.6001   3.8003   3.8018   3.8609   3.8665
     4.1200   4.1269   4.1312   4.3709   4.4113   4.4146   4.4586   4.7923
     4.7964   4.8233   4.9565   5.1300   5.1328   5.1763   5.2094   5.4744
     5.7894   5.9156   5.9235   5.9288   5.9334   5.9923   5.9960   6.0724
     6.1038   6.1197   6.1298   6.1578   6.1607   6.1814   6.1897   6.2164
     6.2201   6.4142   6.5756   6.6785   6.7512   6.7920   6.8607   6.8711
     6.8765   6.9867   7.0096

          k =-0.2500 0.4330-0.1111 (136853 PWs)   bands (ev):

   -18.6357  -6.5099  -6.3567  -5.9604  -5.9575  -5.2807  -4.9486  -4.9472
    -4.9099  -4.9063  -4.5483  -4.5469  -4.4492  -4.4488  -4.4348  -4.4129
    -4.3874  -4.2818  -4.2811  -4.2573  -4.2140  -4.2136  -4.1451  -4.1445
    -4.1381  -4.1372  -4.1166  -4.1121  -4.1089  -4.0402  -4.0358  -4.0090
    -4.0073  -3.9963  -3.9958  -3.9728  -3.9727  -3.9503  -3.9420  -3.9417
    -3.9152  -3.8632  -3.8626  -3.8158  -3.8138  -3.7556  -3.7553  -3.7011
    -3.7008  -3.7004  -3.6998  -3.6651  -3.6266  -3.6254  -3.6194  -3.6182
    -3.6176  -3.5883  -3.5862  -3.5785  -3.5171  -3.5167  -3.5076  -3.4907
    -3.4834  -3.4118  -3.4104  -3.3787  -3.3764  -3.3499  -3.3493  -3.3361
    -3.3196  -3.2602  -3.2590  -3.2419  -3.2414  -3.1903  -3.1859  -3.1847
    -3.1464  -3.1165  -3.1139  -3.1070  -3.1056  -3.0939  -3.0928  -3.0859
    -3.0847  -3.0753  -3.0344  -2.9974  -2.9955  -2.9820  -2.9816  -2.9558
    -2.9469  -2.9453  -2.9246  -2.8807  -2.8786  -2.8711  -2.8310  -2.8246
    -2.8135  -2.8125  -2.7864  -2.7832  -2.7546  -2.7264  -2.7166  -2.6976
    -2.6941  -2.6868  -2.6728  -2.6667  -2.6227  -2.6214  -2.5892  -2.5668
    -2.5662  -2.5427  -2.5419  -2.5309  -2.5305  -2.5203  -2.4978  -2.4968
    -2.4527  -2.4519  -2.4512  -2.4349  -2.4339  -2.4290  -2.4198  -2.4175
    -2.4171  -2.4165  -2.4107  -2.3983  -2.3979  -2.3876  -2.3625  -2.3608
    -2.3598  -2.3589  -2.3578  -2.3561  -2.3546  -2.3280  -2.3248  -2.3111
    -2.3097  -2.2928  -2.2922  -2.2827  -2.2823  -2.2812  -2.2799  -2.2614
    -2.2602  -2.2599  -2.2571  -2.2417  -2.2155  -2.2148  -2.1755  -2.1741
    -2.1500  -2.1488  -2.1219  -2.1213  -2.0948  -2.0931  -2.0765  -2.0720
    -2.0449  -2.0243  -2.0226  -2.0181  -2.0163  -2.0129  -2.0060  -2.0047
    -1.9792  -1.9728  -1.9636  -1.9061  -1.9029  -1.9014  -1.8994  -1.8983
    -1.8621  -1.8439  -1.8417  -1.8155  -1.8143  -1.7552  -1.7537  -1.7256
    -1.7073  -1.7062  -1.6460  -1.6454  -1.6347  -1.6327  -1.6227  -1.6220
    -1.6190  -1.6104  -1.6083  -1.5546  -1.5527  -1.5423  -1.5407  -1.5402
    -1.5226  -1.5198  -1.4858  -1.4852  -1.4691  -1.4683  -1.4670  -1.4607
    -1.4563  -1.4472  -1.4454  -1.4279  -1.4260  -1.3868  -1.3843  -1.3742
    -1.3720  -1.3528  -1.3391  -1.2966  -1.2956  -1.2700  -1.2654  -1.2644
    -1.2357  -1.1853  -1.1837  -1.1827  -1.1815  -1.1771  -1.1758  -1.1660
    -1.1482  -1.1466  -1.1082  -1.1062  -1.0773  -1.0757  -1.0718  -1.0703
    -1.0630  -1.0477  -1.0461  -1.0457  -1.0432  -1.0412  -1.0064  -1.0036
    -1.0028  -1.0022  -0.9728  -0.9711  -0.9674  -0.9441  -0.9368  -0.9346
    -0.8899  -0.8825  -0.8809  -0.8471  -0.8385  -0.8279  -0.8266  -0.8204
    -0.8192  -0.8182  -0.8167  -0.8068  -0.8049  -0.7804  -0.7795  -0.7764
    -0.7753  -0.7732  -0.7371  -0.7365  -0.7341  -0.7260  -0.7112  -0.7046
    -0.7021  -0.6906  -0.6522  -0.6346  -0.6337  -0.6245  -0.6236  -0.6225
    -0.6177  -0.6141  -0.5983  -0.5963  -0.5891  -0.5879  -0.5864  -0.5828
    -0.5472  -0.5450  -0.5441  -0.5362  -0.5358  -0.5301  -0.5289  -0.5183
    -0.5133  -0.5099  -0.5087  -0.4672  -0.4669  -0.4588  -0.4550  -0.4544
    -0.3784  -0.3763  -0.3746  -0.3743  -0.3652  -0.3649  -0.3286  -0.3163
    -0.3154  -0.2878  -0.2837  -0.2830  -0.1635  -0.1600  -0.0597   0.3556
     0.3560   0.3587   0.3594   0.4191   0.4227   0.8082   0.8097   0.8511
     0.8526   0.9619   1.0405   1.1495   1.1548   1.3716   1.3790   2.0048
     2.0075   2.1664   2.1708   2.2987   2.3041   2.4043   2.4050   2.5586
     2.7959   2.8064   2.9196   3.1417   3.1487   3.2272   3.2295   3.3283
     3.3439   3.5371   3.5540   3.6005   3.8003   3.8019   3.8610   3.8669
     4.1197   4.1263   4.1315   4.3715   4.4108   4.4149   4.4584   4.7924
     4.7964   4.8222   4.9572   5.1303   5.1328   5.1749   5.2108   5.4749
     5.7902   5.9162   5.9234   5.9286   5.9328   5.9922   5.9961   6.0725
     6.1047   6.1187   6.1297   6.1563   6.1623   6.1792   6.1908   6.2165
     6.2208   6.4151   6.5732   6.6792   6.7514   6.7917   6.8598   6.8715
     6.8765   6.9860   7.0129

          k = 0.2500-0.4330-0.1111 (136853 PWs)   bands (ev):

   -18.6357  -6.5099  -6.3567  -5.9604  -5.9575  -5.2807  -4.9486  -4.9472
    -4.9099  -4.9063  -4.5483  -4.5469  -4.4492  -4.4488  -4.4348  -4.4129
    -4.3874  -4.2818  -4.2811  -4.2573  -4.2140  -4.2136  -4.1451  -4.1445
    -4.1381  -4.1372  -4.1166  -4.1121  -4.1089  -4.0402  -4.0358  -4.0090
    -4.0073  -3.9963  -3.9958  -3.9728  -3.9727  -3.9503  -3.9420  -3.9417
    -3.9152  -3.8632  -3.8626  -3.8158  -3.8138  -3.7556  -3.7553  -3.7011
    -3.7008  -3.7004  -3.6998  -3.6651  -3.6266  -3.6254  -3.6194  -3.6182
    -3.6176  -3.5883  -3.5862  -3.5785  -3.5171  -3.5167  -3.5076  -3.4907
    -3.4834  -3.4118  -3.4104  -3.3787  -3.3764  -3.3499  -3.3493  -3.3361
    -3.3196  -3.2602  -3.2590  -3.2419  -3.2414  -3.1903  -3.1859  -3.1847
    -3.1464  -3.1165  -3.1139  -3.1070  -3.1056  -3.0939  -3.0928  -3.0859
    -3.0847  -3.0753  -3.0344  -2.9974  -2.9955  -2.9820  -2.9815  -2.9558
    -2.9469  -2.9453  -2.9246  -2.8807  -2.8786  -2.8711  -2.8310  -2.8246
    -2.8135  -2.8125  -2.7864  -2.7832  -2.7546  -2.7264  -2.7166  -2.6976
    -2.6941  -2.6868  -2.6728  -2.6667  -2.6227  -2.6214  -2.5892  -2.5668
    -2.5662  -2.5427  -2.5419  -2.5309  -2.5305  -2.5203  -2.4978  -2.4968
    -2.4527  -2.4519  -2.4512  -2.4349  -2.4339  -2.4290  -2.4198  -2.4175
    -2.4171  -2.4165  -2.4107  -2.3983  -2.3979  -2.3876  -2.3625  -2.3608
    -2.3598  -2.3589  -2.3578  -2.3561  -2.3546  -2.3280  -2.3248  -2.3111
    -2.3097  -2.2928  -2.2922  -2.2827  -2.2823  -2.2812  -2.2799  -2.2614
    -2.2602  -2.2599  -2.2571  -2.2417  -2.2155  -2.2148  -2.1755  -2.1741
    -2.1500  -2.1488  -2.1219  -2.1213  -2.0948  -2.0931  -2.0765  -2.0720
    -2.0449  -2.0243  -2.0226  -2.0181  -2.0163  -2.0129  -2.0060  -2.0047
    -1.9792  -1.9728  -1.9636  -1.9061  -1.9029  -1.9014  -1.8994  -1.8983
    -1.8621  -1.8439  -1.8417  -1.8155  -1.8143  -1.7552  -1.7537  -1.7256
    -1.7073  -1.7062  -1.6460  -1.6454  -1.6347  -1.6327  -1.6227  -1.6220
    -1.6190  -1.6104  -1.6083  -1.5546  -1.5527  -1.5423  -1.5407  -1.5402
    -1.5226  -1.5198  -1.4858  -1.4852  -1.4691  -1.4683  -1.4670  -1.4607
    -1.4563  -1.4472  -1.4454  -1.4279  -1.4260  -1.3868  -1.3843  -1.3742
    -1.3720  -1.3528  -1.3391  -1.2966  -1.2956  -1.2700  -1.2654  -1.2644
    -1.2357  -1.1853  -1.1837  -1.1827  -1.1815  -1.1771  -1.1758  -1.1660
    -1.1482  -1.1466  -1.1082  -1.1062  -1.0773  -1.0757  -1.0718  -1.0703
    -1.0630  -1.0477  -1.0461  -1.0457  -1.0432  -1.0412  -1.0064  -1.0036
    -1.0028  -1.0022  -0.9728  -0.9711  -0.9674  -0.9441  -0.9368  -0.9346
    -0.8899  -0.8825  -0.8809  -0.8471  -0.8385  -0.8279  -0.8266  -0.8204
    -0.8192  -0.8182  -0.8167  -0.8068  -0.8049  -0.7804  -0.7795  -0.7764
    -0.7753  -0.7732  -0.7371  -0.7365  -0.7341  -0.7260  -0.7112  -0.7046
    -0.7021  -0.6906  -0.6522  -0.6346  -0.6337  -0.6245  -0.6236  -0.6225
    -0.6177  -0.6141  -0.5983  -0.5963  -0.5891  -0.5879  -0.5864  -0.5828
    -0.5472  -0.5450  -0.5441  -0.5362  -0.5358  -0.5301  -0.5289  -0.5183
    -0.5133  -0.5099  -0.5087  -0.4672  -0.4669  -0.4588  -0.4550  -0.4544
    -0.3784  -0.3763  -0.3746  -0.3743  -0.3652  -0.3649  -0.3286  -0.3163
    -0.3154  -0.2878  -0.2837  -0.2830  -0.1635  -0.1600  -0.0597   0.3556
     0.3560   0.3587   0.3594   0.4191   0.4227   0.8082   0.8097   0.8511
     0.8526   0.9619   1.0405   1.1495   1.1548   1.3716   1.3790   2.0048
     2.0075   2.1664   2.1708   2.2987   2.3041   2.4043   2.4050   2.5586
     2.7959   2.8064   2.9196   3.1417   3.1487   3.2272   3.2295   3.3283
     3.3439   3.5371   3.5540   3.6005   3.8003   3.8019   3.8610   3.8669
     4.1197   4.1263   4.1315   4.3715   4.4108   4.4149   4.4584   4.7924
     4.7964   4.8222   4.9572   5.1303   5.1328   5.1749   5.2108   5.4748
     5.7911   5.9163   5.9235   5.9286   5.9329   5.9923   5.9961   6.0725
     6.1047   6.1151   6.1292   6.1564   6.1621   6.1797   6.1912   6.2165
     6.2207   6.4135   6.5723   6.6996   6.7495   6.7940   6.8600   6.8717
     6.8768   6.9836   6.9919

          k = 0.5000 0.0000 0.1111 (136853 PWs)   bands (ev):

   -18.6357  -6.5099  -6.3567  -5.9603  -5.9576  -5.2807  -4.9489  -4.9469
    -4.9102  -4.9060  -4.5484  -4.5467  -4.4492  -4.4489  -4.4347  -4.4129
    -4.3874  -4.2820  -4.2809  -4.2573  -4.2141  -4.2136  -4.1452  -4.1444
    -4.1383  -4.1370  -4.1165  -4.1123  -4.1087  -4.0410  -4.0350  -4.0093
    -4.0071  -3.9963  -3.9958  -3.9728  -3.9727  -3.9503  -3.9419  -3.9417
    -3.9152  -3.8631  -3.8627  -3.8160  -3.8136  -3.7557  -3.7554  -3.7010
    -3.7008  -3.7004  -3.6999  -3.6651  -3.6262  -3.6260  -3.6194  -3.6183
    -3.6176  -3.5879  -3.5862  -3.5787  -3.5171  -3.5168  -3.5074  -3.4906
    -3.4835  -3.4116  -3.4106  -3.3783  -3.3767  -3.3504  -3.3489  -3.3361
    -3.3195  -3.2603  -3.2590  -3.2423  -3.2411  -3.1910  -3.1853  -3.1847
    -3.1462  -3.1174  -3.1138  -3.1068  -3.1058  -3.0937  -3.0927  -3.0854
    -3.0844  -3.0755  -3.0343  -2.9974  -2.9955  -2.9820  -2.9815  -2.9556
    -2.9465  -2.9459  -2.9245  -2.8804  -2.8790  -2.8713  -2.8309  -2.8246
    -2.8134  -2.8126  -2.7880  -2.7833  -2.7543  -2.7239  -2.7166  -2.6950
    -2.6929  -2.6869  -2.6730  -2.6714  -2.6227  -2.6212  -2.5890  -2.5671
    -2.5664  -2.5423  -2.5416  -2.5308  -2.5302  -2.5204  -2.4973  -2.4968
    -2.4530  -2.4517  -2.4512  -2.4349  -2.4338  -2.4289  -2.4198  -2.4179
    -2.4170  -2.4159  -2.4109  -2.3991  -2.3972  -2.3893  -2.3625  -2.3608
    -2.3597  -2.3594  -2.3581  -2.3561  -2.3540  -2.3275  -2.3248  -2.3103
    -2.3100  -2.2927  -2.2922  -2.2828  -2.2823  -2.2815  -2.2792  -2.2618
    -2.2607  -2.2595  -2.2567  -2.2418  -2.2154  -2.2149  -2.1755  -2.1740
    -2.1499  -2.1491  -2.1219  -2.1216  -2.0944  -2.0931  -2.0763  -2.0721
    -2.0451  -2.0246  -2.0224  -2.0177  -2.0166  -2.0126  -2.0062  -2.0043
    -1.9794  -1.9728  -1.9635  -1.9063  -1.9037  -1.9015  -1.8993  -1.8977
    -1.8627  -1.8440  -1.8417  -1.8155  -1.8144  -1.7555  -1.7533  -1.7258
    -1.7069  -1.7062  -1.6463  -1.6450  -1.6346  -1.6328  -1.6231  -1.6217
    -1.6190  -1.6104  -1.6083  -1.5546  -1.5520  -1.5431  -1.5405  -1.5402
    -1.5225  -1.5193  -1.4864  -1.4854  -1.4685  -1.4682  -1.4671  -1.4608
    -1.4566  -1.4478  -1.4452  -1.4271  -1.4268  -1.3862  -1.3850  -1.3740
    -1.3715  -1.3528  -1.3391  -1.2975  -1.2949  -1.2701  -1.2656  -1.2647
    -1.2356  -1.1852  -1.1831  -1.1824  -1.1818  -1.1772  -1.1755  -1.1657
    -1.1485  -1.1464  -1.1087  -1.1058  -1.0779  -1.0759  -1.0714  -1.0704
    -1.0630  -1.0477  -1.0475  -1.0455  -1.0424  -1.0415  -1.0074  -1.0030
    -1.0024  -1.0019  -0.9717  -0.9708  -0.9671  -0.9447  -0.9369  -0.9339
    -0.8899  -0.8845  -0.8802  -0.8472  -0.8392  -0.8281  -0.8266  -0.8200
    -0.8187  -0.8180  -0.8166  -0.8074  -0.8053  -0.7803  -0.7796  -0.7763
    -0.7742  -0.7740  -0.7370  -0.7364  -0.7301  -0.7254  -0.7147  -0.7050
    -0.7026  -0.6907  -0.6493  -0.6344  -0.6325  -0.6252  -0.6234  -0.6225
    -0.6193  -0.6169  -0.5985  -0.5968  -0.5888  -0.5883  -0.5864  -0.5835
    -0.5476  -0.5447  -0.5440  -0.5369  -0.5354  -0.5305  -0.5286  -0.5169
    -0.5131  -0.5093  -0.5091  -0.4671  -0.4670  -0.4588  -0.4553  -0.4542
    -0.3782  -0.3764  -0.3743  -0.3742  -0.3652  -0.3649  -0.3285  -0.3159
    -0.3156  -0.2879  -0.2837  -0.2834  -0.1627  -0.1597  -0.0592   0.3555
     0.3560   0.3589   0.3594   0.4197   0.4213   0.8072   0.8101   0.8512
     0.8525   0.9622   1.0410   1.1487   1.1561   1.3697   1.3809   2.0048
     2.0072   2.1668   2.1704   2.2998   2.3031   2.4039   2.4054   2.5586
     2.7954   2.8069   2.9193   3.1401   3.1496   3.2271   3.2298   3.3275
     3.3439   3.5322   3.5586   3.5999   3.8002   3.8021   3.8645   3.8648
     4.1205   4.1258   4.1310   4.3713   4.4125   4.4146   4.4577   4.7900
     4.7976   4.8240   4.9593   5.1311   5.1331   5.1750   5.2118   5.4766
     5.7796   5.9166   5.9196   5.9301   5.9433   5.9906   5.9963   6.0686
     6.1047   6.1118   6.1302   6.1566   6.1616   6.1737   6.1962   6.2188
     6.2202   6.4119   6.5816   6.6871   6.7540   6.8043   6.8653   6.8709
     6.8723   6.9826   6.9995

          k =-0.5000 0.0000 0.1111 (136853 PWs)   bands (ev):

   -18.6357  -6.5099  -6.3567  -5.9603  -5.9576  -5.2807  -4.9489  -4.9469
    -4.9102  -4.9060  -4.5484  -4.5467  -4.4492  -4.4489  -4.4347  -4.4129
    -4.3874  -4.2820  -4.2809  -4.2573  -4.2141  -4.2136  -4.1452  -4.1444
    -4.1383  -4.1370  -4.1165  -4.1123  -4.1087  -4.0410  -4.0350  -4.0093
    -4.0071  -3.9963  -3.9958  -3.9728  -3.9727  -3.9503  -3.9419  -3.9417
    -3.9152  -3.8631  -3.8627  -3.8160  -3.8136  -3.7557  -3.7554  -3.7010
    -3.7008  -3.7004  -3.6999  -3.6651  -3.6262  -3.6260  -3.6194  -3.6183
    -3.6176  -3.5879  -3.5862  -3.5787  -3.5171  -3.5168  -3.5074  -3.4906
    -3.4835  -3.4116  -3.4106  -3.3783  -3.3767  -3.3504  -3.3489  -3.3361
    -3.3195  -3.2603  -3.2590  -3.2423  -3.2411  -3.1910  -3.1853  -3.1847
    -3.1462  -3.1174  -3.1138  -3.1068  -3.1058  -3.0937  -3.0927  -3.0854
    -3.0844  -3.0755  -3.0343  -2.9974  -2.9955  -2.9820  -2.9815  -2.9556
    -2.9465  -2.9459  -2.9245  -2.8804  -2.8790  -2.8713  -2.8309  -2.8246
    -2.8134  -2.8126  -2.7880  -2.7833  -2.7543  -2.7239  -2.7166  -2.6950
    -2.6929  -2.6869  -2.6730  -2.6714  -2.6227  -2.6212  -2.5890  -2.5671
    -2.5664  -2.5423  -2.5416  -2.5308  -2.5302  -2.5204  -2.4973  -2.4968
    -2.4530  -2.4517  -2.4512  -2.4349  -2.4338  -2.4289  -2.4198  -2.4179
    -2.4170  -2.4159  -2.4109  -2.3991  -2.3972  -2.3893  -2.3625  -2.3608
    -2.3597  -2.3594  -2.3581  -2.3561  -2.3540  -2.3275  -2.3248  -2.3102
    -2.3100  -2.2927  -2.2922  -2.2828  -2.2823  -2.2815  -2.2792  -2.2618
    -2.2607  -2.2595  -2.2567  -2.2418  -2.2154  -2.2149  -2.1755  -2.1740
    -2.1499  -2.1491  -2.1219  -2.1216  -2.0944  -2.0931  -2.0763  -2.0721
    -2.0451  -2.0246  -2.0224  -2.0177  -2.0166  -2.0126  -2.0062  -2.0043
    -1.9794  -1.9728  -1.9635  -1.9063  -1.9037  -1.9015  -1.8993  -1.8977
    -1.8627  -1.8440  -1.8417  -1.8155  -1.8144  -1.7555  -1.7533  -1.7258
    -1.7069  -1.7062  -1.6463  -1.6450  -1.6346  -1.6328  -1.6231  -1.6217
    -1.6190  -1.6104  -1.6083  -1.5546  -1.5520  -1.5431  -1.5405  -1.5402
    -1.5225  -1.5193  -1.4864  -1.4854  -1.4685  -1.4682  -1.4671  -1.4608
    -1.4566  -1.4478  -1.4452  -1.4271  -1.4268  -1.3862  -1.3850  -1.3740
    -1.3715  -1.3528  -1.3391  -1.2975  -1.2949  -1.2701  -1.2656  -1.2647
    -1.2356  -1.1852  -1.1831  -1.1824  -1.1818  -1.1772  -1.1755  -1.1657
    -1.1485  -1.1464  -1.1087  -1.1058  -1.0779  -1.0759  -1.0714  -1.0704
    -1.0630  -1.0477  -1.0475  -1.0455  -1.0424  -1.0415  -1.0074  -1.0030
    -1.0024  -1.0019  -0.9717  -0.9708  -0.9671  -0.9447  -0.9369  -0.9339
    -0.8899  -0.8845  -0.8802  -0.8472  -0.8392  -0.8281  -0.8266  -0.8200
    -0.8187  -0.8180  -0.8166  -0.8074  -0.8053  -0.7803  -0.7796  -0.7763
    -0.7742  -0.7740  -0.7370  -0.7364  -0.7301  -0.7254  -0.7147  -0.7050
    -0.7026  -0.6907  -0.6493  -0.6344  -0.6325  -0.6252  -0.6234  -0.6225
    -0.6193  -0.6169  -0.5985  -0.5968  -0.5888  -0.5883  -0.5863  -0.5835
    -0.5476  -0.5447  -0.5440  -0.5369  -0.5354  -0.5305  -0.5286  -0.5169
    -0.5131  -0.5093  -0.5091  -0.4671  -0.4670  -0.4588  -0.4553  -0.4542
    -0.3782  -0.3764  -0.3743  -0.3742  -0.3652  -0.3649  -0.3285  -0.3159
    -0.3156  -0.2879  -0.2837  -0.2834  -0.1627  -0.1597  -0.0592   0.3555
     0.3560   0.3589   0.3594   0.4197   0.4213   0.8072   0.8101   0.8512
     0.8525   0.9622   1.0410   1.1487   1.1561   1.3697   1.3809   2.0048
     2.0072   2.1668   2.1704   2.2998   2.3031   2.4039   2.4054   2.5586
     2.7954   2.8069   2.9193   3.1401   3.1496   3.2271   3.2298   3.3275
     3.3439   3.5322   3.5586   3.5999   3.8002   3.8021   3.8645   3.8648
     4.1205   4.1258   4.1310   4.3713   4.4125   4.4146   4.4577   4.7900
     4.7976   4.8240   4.9593   5.1311   5.1331   5.1750   5.2118   5.4767
     5.7794   5.9166   5.9196   5.9301   5.9433   5.9906   5.9963   6.0686
     6.1046   6.1124   6.1302   6.1565   6.1616   6.1735   6.1962   6.2188
     6.2202   6.4123   6.5816   6.6849   6.7545   6.8051   6.8655   6.8709
     6.8723   6.9830   7.0004

          k =-0.2500 0.1443 0.1111 (136898 PWs)   bands (ev):

   -18.6357  -6.5738  -6.5025  -5.7764  -5.4844  -5.4262  -5.4261  -4.8879
    -4.8878  -4.7560  -4.7554  -4.6005  -4.5699  -4.5083  -4.4745  -4.4739
    -4.4412  -4.4412  -4.3127  -4.2709  -4.2709  -4.2109  -4.1897  -4.1895
    -4.0875  -4.0874  -4.0513  -4.0510  -4.0509  -4.0240  -4.0025  -4.0024
    -3.8973  -3.8953  -3.8952  -3.8746  -3.8577  -3.8575  -3.8454  -3.8450
    -3.8320  -3.8019  -3.8018  -3.8015  -3.8012  -3.7688  -3.7685  -3.7511
    -3.7509  -3.7371  -3.6943  -3.6927  -3.6628  -3.6480  -3.6468  -3.6427
    -3.6427  -3.5682  -3.5680  -3.5330  -3.5305  -3.5298  -3.4627  -3.4624
    -3.4472  -3.4468  -3.4165  -3.4161  -3.4149  -3.4147  -3.2617  -3.2610
    -3.2373  -3.2357  -3.2309  -3.2147  -3.2143  -3.1888  -3.1884  -3.1388
    -3.1385  -3.1227  -3.1220  -3.1019  -3.0548  -3.0530  -3.0339  -3.0290
    -3.0285  -2.9882  -2.9877  -2.9812  -2.9807  -2.9649  -2.9639  -2.9252
    -2.9248  -2.9045  -2.9026  -2.9001  -2.8996  -2.8963  -2.8204  -2.8194
    -2.8179  -2.7895  -2.7887  -2.7384  -2.7268  -2.7028  -2.6985  -2.6927
    -2.6844  -2.6817  -2.6781  -2.6493  -2.6474  -2.6394  -2.6217  -2.5964
    -2.5956  -2.5936  -2.5752  -2.5744  -2.5636  -2.5629  -2.5604  -2.5590
    -2.5518  -2.5060  -2.4737  -2.4731  -2.4580  -2.4440  -2.4377  -2.4369
    -2.4303  -2.4293  -2.4280  -2.3983  -2.3980  -2.3976  -2.3883  -2.3879
    -2.3710  -2.3440  -2.3428  -2.3424  -2.3418  -2.3416  -2.2962  -2.2651
    -2.2647  -2.2640  -2.2574  -2.2486  -2.2359  -2.2354  -2.2189  -2.2187
    -2.1861  -2.1839  -2.1835  -2.1650  -2.1642  -2.1630  -2.1312  -2.1299
    -2.0903  -2.0883  -2.0817  -2.0797  -2.0792  -2.0731  -2.0725  -2.0703
    -2.0698  -2.0642  -2.0619  -2.0469  -2.0456  -1.9202  -1.9180  -1.8868
    -1.8809  -1.8793  -1.8745  -1.8743  -1.8573  -1.8567  -1.8544  -1.8531
    -1.8515  -1.8290  -1.8222  -1.8201  -1.8163  -1.8096  -1.8077  -1.7857
    -1.7854  -1.7570  -1.7566  -1.7258  -1.7244  -1.7146  -1.7063  -1.6889
    -1.6880  -1.6853  -1.6672  -1.6544  -1.6544  -1.6471  -1.6469  -1.6208
    -1.6201  -1.6035  -1.6027  -1.5711  -1.5700  -1.5609  -1.5108  -1.5099
    -1.4981  -1.4964  -1.4959  -1.4713  -1.4688  -1.4358  -1.4350  -1.4343
    -1.4015  -1.3914  -1.3900  -1.3750  -1.3744  -1.3493  -1.3467  -1.3463
    -1.3170  -1.3143  -1.3139  -1.2521  -1.2508  -1.2390  -1.2371  -1.2223
    -1.2211  -1.2091  -1.2085  -1.1907  -1.1779  -1.1512  -1.1494  -1.1386
    -1.1113  -1.1007  -1.0995  -1.0885  -1.0882  -1.0863  -1.0814  -1.0804
    -1.0672  -1.0375  -1.0361  -1.0263  -1.0249  -1.0230  -1.0225  -1.0000
    -0.9826  -0.9800  -0.9610  -0.9588  -0.8675  -0.8537  -0.8484  -0.8481
    -0.8449  -0.8403  -0.8380  -0.8203  -0.8132  -0.7986  -0.7967  -0.7833
    -0.7826  -0.7738  -0.7552  -0.7534  -0.7508  -0.7429  -0.6736  -0.6704
    -0.6598  -0.6364  -0.6326  -0.6308  -0.6251  -0.6237  -0.6233  -0.6191
    -0.6109  -0.6061  -0.5924  -0.5692  -0.5540  -0.5353  -0.5343  -0.5241
    -0.5231  -0.5116  -0.5100  -0.5096  -0.5079  -0.5070  -0.4904  -0.4860
    -0.4857  -0.4554  -0.4542  -0.4530  -0.4414  -0.4412  -0.4219  -0.3901
    -0.3897  -0.3807  -0.3802  -0.3126  -0.3120  -0.2752  -0.2746  -0.2168
    -0.2164  -0.2151  -0.2034  -0.1878   0.0359   0.0398   0.3841   0.3842
     0.4744   0.4786   0.6700   0.6851   0.7019   0.8320   0.8335   1.2643
     1.2644   1.2828   1.5418   1.5743   1.5745   1.8501   1.8563   1.9299
     1.9311   1.9564   1.9609   2.1863   2.1876   2.2753   2.2759   2.3517
     2.4133   2.4192   2.5792   2.6772   3.1154   3.1188   3.1205   3.1229
     3.1750   3.1771   3.4681   3.4688   3.7475   3.7536   3.8588   4.1646
     4.2042   4.2095   4.4202   4.4463   4.5072   4.5088   4.5985   4.7161
     4.7193   4.8334   4.8356   5.1372   5.2042   5.2092   5.3206   5.3947
     5.4297   5.5946   5.5976   5.6215   5.6236   5.6827   5.6879   5.7274
     5.8238   6.0603   6.2709   6.2942   6.3602   6.4258   6.4295   6.4395
     6.4438   6.5145   6.6328   6.6806   6.6867   6.8410   6.9079   6.9284
     6.9361   6.9992   7.0763

          k =-0.2500-0.1443-0.1111 (136898 PWs)   bands (ev):

   -18.6357  -6.5738  -6.5025  -5.7764  -5.4844  -5.4262  -5.4261  -4.8879
    -4.8878  -4.7563  -4.7552  -4.6005  -4.5699  -4.5084  -4.4745  -4.4739
    -4.4413  -4.4410  -4.3127  -4.2711  -4.2707  -4.2108  -4.1898  -4.1895
    -4.0874  -4.0873  -4.0513  -4.0511  -4.0508  -4.0239  -4.0027  -4.0021
    -3.8972  -3.8955  -3.8951  -3.8745  -3.8578  -3.8575  -3.8455  -3.8451
    -3.8319  -3.8019  -3.8017  -3.8014  -3.8011  -3.7689  -3.7686  -3.7511
    -3.7508  -3.7369  -3.6945  -3.6927  -3.6629  -3.6480  -3.6468  -3.6427
    -3.6426  -3.5682  -3.5680  -3.5328  -3.5304  -3.5297  -3.4629  -3.4626
    -3.4471  -3.4467  -3.4165  -3.4158  -3.4153  -3.4151  -3.2618  -3.2611
    -3.2373  -3.2357  -3.2309  -3.2147  -3.2143  -3.1887  -3.1882  -3.1388
    -3.1385  -3.1228  -3.1220  -3.1018  -3.0549  -3.0528  -3.0340  -3.0291
    -3.0286  -2.9884  -2.9877  -2.9812  -2.9808  -2.9650  -2.9639  -2.9250
    -2.9246  -2.9042  -2.9027  -2.9000  -2.8996  -2.8963  -2.8206  -2.8194
    -2.8181  -2.7895  -2.7887  -2.7376  -2.7267  -2.7039  -2.6984  -2.6923
    -2.6842  -2.6815  -2.6781  -2.6491  -2.6475  -2.6395  -2.6216  -2.5967
    -2.5956  -2.5935  -2.5751  -2.5743  -2.5639  -2.5630  -2.5604  -2.5590
    -2.5519  -2.5059  -2.4738  -2.4732  -2.4579  -2.4442  -2.4377  -2.4369
    -2.4303  -2.4294  -2.4282  -2.3985  -2.3979  -2.3976  -2.3882  -2.3879
    -2.3709  -2.3443  -2.3433  -2.3426  -2.3415  -2.3411  -2.2963  -2.2652
    -2.2647  -2.2640  -2.2574  -2.2487  -2.2359  -2.2352  -2.2187  -2.2185
    -2.1860  -2.1838  -2.1834  -2.1651  -2.1642  -2.1631  -2.1312  -2.1299
    -2.0902  -2.0883  -2.0816  -2.0797  -2.0791  -2.0732  -2.0725  -2.0704
    -2.0699  -2.0640  -2.0618  -2.0470  -2.0457  -1.9201  -1.9181  -1.8867
    -1.8809  -1.8793  -1.8743  -1.8741  -1.8577  -1.8572  -1.8543  -1.8531
    -1.8511  -1.8290  -1.8219  -1.8201  -1.8164  -1.8094  -1.8074  -1.7859
    -1.7856  -1.7571  -1.7567  -1.7257  -1.7245  -1.7144  -1.7063  -1.6888
    -1.6879  -1.6850  -1.6672  -1.6546  -1.6545  -1.6472  -1.6469  -1.6206
    -1.6200  -1.6038  -1.6025  -1.5713  -1.5702  -1.5610  -1.5110  -1.5097
    -1.4981  -1.4965  -1.4959  -1.4715  -1.4686  -1.4357  -1.4349  -1.4342
    -1.4016  -1.3912  -1.3899  -1.3750  -1.3743  -1.3494  -1.3468  -1.3463
    -1.3170  -1.3143  -1.3138  -1.2523  -1.2509  -1.2390  -1.2371  -1.2224
    -1.2211  -1.2088  -1.2083  -1.1902  -1.1777  -1.1511  -1.1496  -1.1387
    -1.1110  -1.1008  -1.0994  -1.0886  -1.0884  -1.0868  -1.0814  -1.0805
    -1.0671  -1.0376  -1.0362  -1.0268  -1.0248  -1.0229  -1.0224  -1.0000
    -0.9830  -0.9800  -0.9610  -0.9586  -0.8674  -0.8537  -0.8483  -0.8480
    -0.8455  -0.8397  -0.8381  -0.8198  -0.8132  -0.7986  -0.7966  -0.7836
    -0.7826  -0.7740  -0.7552  -0.7534  -0.7507  -0.7430  -0.6741  -0.6705
    -0.6596  -0.6359  -0.6327  -0.6302  -0.6247  -0.6237  -0.6235  -0.6182
    -0.6116  -0.6065  -0.5925  -0.5691  -0.5551  -0.5349  -0.5344  -0.5242
    -0.5231  -0.5113  -0.5102  -0.5096  -0.5079  -0.5071  -0.4904  -0.4861
    -0.4857  -0.4553  -0.4541  -0.4530  -0.4413  -0.4412  -0.4220  -0.3902
    -0.3897  -0.3806  -0.3802  -0.3125  -0.3122  -0.2753  -0.2746  -0.2169
    -0.2163  -0.2151  -0.2034  -0.1877   0.0364   0.0394   0.3841   0.3842
     0.4749   0.4783   0.6695   0.6853   0.7021   0.8321   0.8334   1.2642
     1.2645   1.2829   1.5420   1.5742   1.5746   1.8504   1.8558   1.9299
     1.9310   1.9567   1.9606   2.1864   2.1874   2.2753   2.2759   2.3518
     2.4135   2.4187   2.5790   2.6774   3.1151   3.1187   3.1209   3.1228
     3.1752   3.1772   3.4681   3.4688   3.7478   3.7534   3.8589   4.1646
     4.2044   4.2092   4.4210   4.4452   4.5075   4.5089   4.5986   4.7160
     4.7190   4.8334   4.8360   5.1371   5.2039   5.2092   5.3217   5.3935
     5.4297   5.5949   5.5973   5.6212   5.6236   5.6815   5.6887   5.7274
     5.8247   6.0592   6.2715   6.2938   6.3615   6.4264   6.4299   6.4391
     6.4441   6.5137   6.6322   6.6804   6.6863   6.8404   6.9079   6.9300
     6.9370   6.9979   7.0783

          k = 0.2500 0.1443-0.1111 (136898 PWs)   bands (ev):

   -18.6357  -6.5738  -6.5025  -5.7764  -5.4844  -5.4262  -5.4261  -4.8879
    -4.8878  -4.7563  -4.7552  -4.6005  -4.5699  -4.5084  -4.4745  -4.4739
    -4.4413  -4.4410  -4.3127  -4.2711  -4.2707  -4.2108  -4.1898  -4.1895
    -4.0874  -4.0873  -4.0513  -4.0511  -4.0508  -4.0239  -4.0027  -4.0021
    -3.8972  -3.8955  -3.8951  -3.8745  -3.8578  -3.8575  -3.8455  -3.8451
    -3.8319  -3.8019  -3.8017  -3.8014  -3.8011  -3.7689  -3.7686  -3.7511
    -3.7508  -3.7369  -3.6945  -3.6927  -3.6629  -3.6480  -3.6468  -3.6427
    -3.6426  -3.5682  -3.5680  -3.5328  -3.5304  -3.5297  -3.4629  -3.4626
    -3.4471  -3.4467  -3.4165  -3.4158  -3.4153  -3.4151  -3.2618  -3.2611
    -3.2373  -3.2357  -3.2309  -3.2147  -3.2143  -3.1887  -3.1882  -3.1388
    -3.1385  -3.1228  -3.1220  -3.1018  -3.0549  -3.0528  -3.0339  -3.0291
    -3.0286  -2.9884  -2.9877  -2.9812  -2.9808  -2.9650  -2.9639  -2.9250
    -2.9246  -2.9042  -2.9027  -2.9000  -2.8996  -2.8963  -2.8207  -2.8194
    -2.8181  -2.7895  -2.7887  -2.7376  -2.7267  -2.7039  -2.6984  -2.6923
    -2.6842  -2.6815  -2.6781  -2.6491  -2.6475  -2.6395  -2.6216  -2.5967
    -2.5956  -2.5935  -2.5751  -2.5743  -2.5639  -2.5630  -2.5604  -2.5590
    -2.5519  -2.5059  -2.4738  -2.4732  -2.4579  -2.4442  -2.4377  -2.4369
    -2.4303  -2.4294  -2.4282  -2.3984  -2.3979  -2.3976  -2.3882  -2.3879
    -2.3709  -2.3443  -2.3433  -2.3425  -2.3415  -2.3411  -2.2963  -2.2652
    -2.2647  -2.2640  -2.2574  -2.2487  -2.2359  -2.2352  -2.2187  -2.2185
    -2.1860  -2.1838  -2.1834  -2.1651  -2.1642  -2.1631  -2.1312  -2.1299
    -2.0902  -2.0883  -2.0816  -2.0797  -2.0791  -2.0732  -2.0725  -2.0704
    -2.0699  -2.0640  -2.0618  -2.0470  -2.0457  -1.9201  -1.9181  -1.8867
    -1.8809  -1.8793  -1.8743  -1.8741  -1.8577  -1.8572  -1.8543  -1.8531
    -1.8511  -1.8290  -1.8219  -1.8201  -1.8164  -1.8094  -1.8074  -1.7859
    -1.7856  -1.7571  -1.7567  -1.7257  -1.7245  -1.7144  -1.7063  -1.6888
    -1.6879  -1.6850  -1.6672  -1.6546  -1.6545  -1.6472  -1.6469  -1.6206
    -1.6200  -1.6038  -1.6025  -1.5713  -1.5702  -1.5610  -1.5110  -1.5097
    -1.4981  -1.4965  -1.4959  -1.4715  -1.4686  -1.4357  -1.4349  -1.4342
    -1.4016  -1.3912  -1.3899  -1.3750  -1.3743  -1.3494  -1.3468  -1.3463
    -1.3170  -1.3143  -1.3138  -1.2522  -1.2509  -1.2390  -1.2371  -1.2224
    -1.2211  -1.2088  -1.2083  -1.1902  -1.1777  -1.1511  -1.1496  -1.1387
    -1.1110  -1.1008  -1.0994  -1.0886  -1.0884  -1.0868  -1.0814  -1.0805
    -1.0671  -1.0376  -1.0362  -1.0268  -1.0248  -1.0229  -1.0224  -1.0000
    -0.9830  -0.9800  -0.9610  -0.9586  -0.8674  -0.8537  -0.8483  -0.8480
    -0.8455  -0.8397  -0.8381  -0.8198  -0.8131  -0.7986  -0.7966  -0.7836
    -0.7826  -0.7740  -0.7552  -0.7534  -0.7507  -0.7430  -0.6741  -0.6705
    -0.6596  -0.6359  -0.6327  -0.6302  -0.6247  -0.6237  -0.6235  -0.6182
    -0.6116  -0.6065  -0.5925  -0.5691  -0.5551  -0.5349  -0.5344  -0.5242
    -0.5231  -0.5113  -0.5102  -0.5096  -0.5079  -0.5071  -0.4904  -0.4861
    -0.4857  -0.4553  -0.4541  -0.4530  -0.4413  -0.4411  -0.4220  -0.3902
    -0.3897  -0.3806  -0.3802  -0.3125  -0.3122  -0.2753  -0.2746  -0.2169
    -0.2163  -0.2151  -0.2034  -0.1878   0.0364   0.0394   0.3841   0.3842
     0.4749   0.4783   0.6695   0.6853   0.7021   0.8321   0.8334   1.2642
     1.2645   1.2829   1.5420   1.5742   1.5746   1.8504   1.8558   1.9299
     1.9310   1.9567   1.9606   2.1864   2.1874   2.2753   2.2759   2.3518
     2.4135   2.4187   2.5790   2.6774   3.1151   3.1187   3.1209   3.1228
     3.1752   3.1772   3.4681   3.4688   3.7478   3.7534   3.8589   4.1646
     4.2044   4.2092   4.4210   4.4452   4.5075   4.5089   4.5986   4.7160
     4.7190   4.8334   4.8360   5.1371   5.2039   5.2092   5.3216   5.3935
     5.4298   5.5949   5.5973   5.6212   5.6236   5.6815   5.6887   5.7277
     5.8229   6.0626   6.2728   6.2941   6.3616   6.4264   6.4299   6.4390
     6.4442   6.5072   6.6253   6.6794   6.6863   6.8435   6.9108   6.9297
     6.9380   6.9992   7.0831

          k = 0.0000-0.2887 0.1111 (136898 PWs)   bands (ev):

   -18.6357  -6.5738  -6.5025  -5.7764  -5.4844  -5.4262  -5.4261  -4.8879
    -4.8877  -4.7561  -4.7554  -4.6005  -4.5699  -4.5084  -4.4745  -4.4740
    -4.4413  -4.4410  -4.3127  -4.2712  -4.2707  -4.2108  -4.1899  -4.1895
    -4.0875  -4.0872  -4.0514  -4.0509  -4.0509  -4.0239  -4.0025  -4.0023
    -3.8972  -3.8955  -3.8950  -3.8745  -3.8578  -3.8575  -3.8455  -3.8450
    -3.8319  -3.8021  -3.8017  -3.8014  -3.8010  -3.7690  -3.7685  -3.7512
    -3.7508  -3.7369  -3.6938  -3.6935  -3.6629  -3.6480  -3.6468  -3.6427
    -3.6426  -3.5682  -3.5680  -3.5328  -3.5302  -3.5299  -3.4630  -3.4625
    -3.4473  -3.4466  -3.4164  -3.4158  -3.4155  -3.4149  -3.2617  -3.2611
    -3.2364  -3.2361  -3.2314  -3.2147  -3.2143  -3.1888  -3.1882  -3.1387
    -3.1386  -3.1228  -3.1220  -3.1019  -3.0536  -3.0533  -3.0346  -3.0291
    -3.0284  -2.9881  -2.9877  -2.9810  -2.9809  -2.9663  -2.9637  -2.9249
    -2.9245  -2.9037  -2.9027  -2.8999  -2.8995  -2.8965  -2.8214  -2.8194
    -2.8182  -2.7894  -2.7886  -2.7327  -2.7277  -2.7099  -2.6985  -2.6893
    -2.6839  -2.6828  -2.6782  -2.6494  -2.6478  -2.6395  -2.6211  -2.5962
    -2.5961  -2.5932  -2.5750  -2.5745  -2.5637  -2.5622  -2.5599  -2.5595
    -2.5519  -2.5059  -2.4738  -2.4735  -2.4576  -2.4441  -2.4378  -2.4369
    -2.4303  -2.4293  -2.4282  -2.3985  -2.3983  -2.3975  -2.3885  -2.3876
    -2.3709  -2.3439  -2.3432  -2.3426  -2.3415  -2.3411  -2.2963  -2.2655
    -2.2645  -2.2640  -2.2574  -2.2487  -2.2369  -2.2349  -2.2187  -2.2186
    -2.1860  -2.1837  -2.1834  -2.1651  -2.1639  -2.1635  -2.1307  -2.1303
    -2.0903  -2.0882  -2.0815  -2.0797  -2.0790  -2.0735  -2.0725  -2.0709
    -2.0697  -2.0633  -2.0624  -2.0462  -2.0461  -1.9192  -1.9188  -1.8859
    -1.8803  -1.8799  -1.8743  -1.8743  -1.8581  -1.8574  -1.8536  -1.8532
    -1.8510  -1.8290  -1.8214  -1.8206  -1.8166  -1.8089  -1.8078  -1.7862
    -1.7858  -1.7575  -1.7569  -1.7249  -1.7247  -1.7144  -1.7060  -1.6886
    -1.6879  -1.6850  -1.6671  -1.6548  -1.6545  -1.6472  -1.6469  -1.6201
    -1.6201  -1.6038  -1.6028  -1.5713  -1.5711  -1.5605  -1.5111  -1.5099
    -1.4976  -1.4964  -1.4963  -1.4716  -1.4686  -1.4357  -1.4355  -1.4340
    -1.4006  -1.3909  -1.3907  -1.3749  -1.3743  -1.3490  -1.3470  -1.3463
    -1.3172  -1.3143  -1.3137  -1.2525  -1.2508  -1.2387  -1.2375  -1.2225
    -1.2212  -1.2090  -1.2082  -1.1903  -1.1778  -1.1503  -1.1498  -1.1386
    -1.1099  -1.1005  -1.1000  -1.0884  -1.0883  -1.0864  -1.0809  -1.0807
    -1.0671  -1.0378  -1.0364  -1.0279  -1.0257  -1.0232  -1.0226  -1.0000
    -0.9816  -0.9812  -0.9608  -0.9586  -0.8673  -0.8539  -0.8483  -0.8482
    -0.8446  -0.8400  -0.8385  -0.8170  -0.8133  -0.7985  -0.7975  -0.7831
    -0.7828  -0.7739  -0.7554  -0.7533  -0.7515  -0.7430  -0.6718  -0.6712
    -0.6603  -0.6377  -0.6329  -0.6312  -0.6264  -0.6241  -0.6235  -0.6190
    -0.6106  -0.6019  -0.5939  -0.5691  -0.5552  -0.5360  -0.5336  -0.5241
    -0.5230  -0.5111  -0.5103  -0.5090  -0.5082  -0.5068  -0.4902  -0.4863
    -0.4857  -0.4552  -0.4541  -0.4529  -0.4417  -0.4409  -0.4220  -0.3900
    -0.3895  -0.3806  -0.3802  -0.3135  -0.3116  -0.2752  -0.2746  -0.2170
    -0.2164  -0.2150  -0.2044  -0.1877   0.0366   0.0406   0.3840   0.3842
     0.4746   0.4786   0.6679   0.6861   0.7019   0.8321   0.8332   1.2642
     1.2647   1.2825   1.5421   1.5745   1.5746   1.8502   1.8559   1.9301
     1.9313   1.9570   1.9603   2.1866   2.1877   2.2751   2.2759   2.3521
     2.4138   2.4180   2.5787   2.6778   3.1149   3.1186   3.1210   3.1229
     3.1763   3.1769   3.4686   3.4689   3.7483   3.7534   3.8592   4.1641
     4.2044   4.2092   4.4215   4.4421   4.5046   4.5103   4.6001   4.7136
     4.7198   4.8349   4.8359   5.1389   5.1966   5.2113   5.3278   5.3911
     5.4249   5.5917   5.5976   5.6227   5.6232   5.6854   5.6862   5.7337
     5.8226   6.0740   6.2686   6.2925   6.3494   6.4262   6.4309   6.4411
     6.4439   6.5046   6.6315   6.6766   6.6855   6.8543   6.9082   6.9252
     6.9384   6.9943   7.0730

          k = 0.0000 0.2887 0.1111 (136898 PWs)   bands (ev):

   -18.6357  -6.5738  -6.5025  -5.7764  -5.4844  -5.4262  -5.4261  -4.8879
    -4.8877  -4.7561  -4.7554  -4.6005  -4.5699  -4.5084  -4.4745  -4.4740
    -4.4413  -4.4410  -4.3127  -4.2712  -4.2707  -4.2108  -4.1899  -4.1895
    -4.0875  -4.0872  -4.0514  -4.0509  -4.0509  -4.0239  -4.0025  -4.0023
    -3.8972  -3.8955  -3.8950  -3.8745  -3.8578  -3.8575  -3.8455  -3.8450
    -3.8319  -3.8021  -3.8017  -3.8014  -3.8010  -3.7690  -3.7685  -3.7512
    -3.7508  -3.7369  -3.6938  -3.6935  -3.6629  -3.6480  -3.6468  -3.6427
    -3.6426  -3.5682  -3.5680  -3.5328  -3.5303  -3.5299  -3.4630  -3.4625
    -3.4473  -3.4466  -3.4164  -3.4158  -3.4155  -3.4149  -3.2617  -3.2611
    -3.2364  -3.2361  -3.2314  -3.2147  -3.2143  -3.1888  -3.1882  -3.1387
    -3.1386  -3.1228  -3.1220  -3.1019  -3.0536  -3.0533  -3.0346  -3.0291
    -3.0284  -2.9881  -2.9877  -2.9810  -2.9809  -2.9663  -2.9637  -2.9249
    -2.9245  -2.9037  -2.9027  -2.8999  -2.8995  -2.8965  -2.8214  -2.8194
    -2.8182  -2.7894  -2.7886  -2.7327  -2.7277  -2.7099  -2.6985  -2.6893
    -2.6839  -2.6828  -2.6782  -2.6494  -2.6478  -2.6395  -2.6211  -2.5962
    -2.5961  -2.5932  -2.5750  -2.5745  -2.5637  -2.5622  -2.5599  -2.5595
    -2.5519  -2.5059  -2.4738  -2.4735  -2.4576  -2.4441  -2.4378  -2.4369
    -2.4303  -2.4293  -2.4282  -2.3985  -2.3983  -2.3975  -2.3885  -2.3876
    -2.3709  -2.3439  -2.3432  -2.3426  -2.3415  -2.3411  -2.2963  -2.2655
    -2.2645  -2.2640  -2.2574  -2.2487  -2.2369  -2.2349  -2.2187  -2.2186
    -2.1860  -2.1837  -2.1834  -2.1651  -2.1639  -2.1635  -2.1307  -2.1303
    -2.0903  -2.0882  -2.0815  -2.0797  -2.0790  -2.0735  -2.0725  -2.0709
    -2.0697  -2.0633  -2.0624  -2.0462  -2.0461  -1.9192  -1.9188  -1.8859
    -1.8803  -1.8799  -1.8743  -1.8743  -1.8581  -1.8574  -1.8536  -1.8532
    -1.8510  -1.8290  -1.8214  -1.8206  -1.8166  -1.8089  -1.8078  -1.7862
    -1.7858  -1.7574  -1.7569  -1.7249  -1.7247  -1.7144  -1.7060  -1.6886
    -1.6879  -1.6850  -1.6671  -1.6548  -1.6545  -1.6472  -1.6469  -1.6201
    -1.6201  -1.6038  -1.6028  -1.5713  -1.5711  -1.5605  -1.5111  -1.5099
    -1.4976  -1.4964  -1.4963  -1.4716  -1.4686  -1.4357  -1.4355  -1.4340
    -1.4006  -1.3909  -1.3907  -1.3749  -1.3743  -1.3490  -1.3470  -1.3463
    -1.3172  -1.3143  -1.3137  -1.2525  -1.2508  -1.2387  -1.2375  -1.2225
    -1.2212  -1.2090  -1.2082  -1.1903  -1.1778  -1.1503  -1.1498  -1.1386
    -1.1099  -1.1005  -1.1000  -1.0884  -1.0883  -1.0864  -1.0809  -1.0807
    -1.0671  -1.0378  -1.0364  -1.0279  -1.0257  -1.0232  -1.0226  -1.0000
    -0.9816  -0.9812  -0.9608  -0.9586  -0.8673  -0.8539  -0.8483  -0.8482
    -0.8446  -0.8400  -0.8385  -0.8170  -0.8132  -0.7985  -0.7975  -0.7831
    -0.7828  -0.7739  -0.7554  -0.7533  -0.7515  -0.7430  -0.6718  -0.6712
    -0.6603  -0.6377  -0.6329  -0.6312  -0.6264  -0.6241  -0.6235  -0.6190
    -0.6106  -0.6019  -0.5939  -0.5691  -0.5552  -0.5360  -0.5336  -0.5241
    -0.5230  -0.5111  -0.5103  -0.5090  -0.5082  -0.5068  -0.4902  -0.4863
    -0.4857  -0.4552  -0.4541  -0.4529  -0.4417  -0.4409  -0.4220  -0.3900
    -0.3895  -0.3805  -0.3802  -0.3135  -0.3116  -0.2752  -0.2746  -0.2170
    -0.2164  -0.2150  -0.2044  -0.1877   0.0366   0.0406   0.3840   0.3842
     0.4746   0.4786   0.6679   0.6861   0.7020   0.8321   0.8332   1.2642
     1.2647   1.2825   1.5421   1.5745   1.5746   1.8502   1.8558   1.9301
     1.9312   1.9570   1.9603   2.1866   2.1877   2.2751   2.2759   2.3521
     2.4138   2.4180   2.5787   2.6778   3.1149   3.1186   3.1210   3.1229
     3.1763   3.1769   3.4686   3.4689   3.7483   3.7534   3.8592   4.1641
     4.2044   4.2092   4.4215   4.4421   4.5046   4.5103   4.6001   4.7136
     4.7198   4.8349   4.8359   5.1389   5.1966   5.2113   5.3279   5.3911
     5.4246   5.5917   5.5976   5.6227   5.6232   5.6854   5.6862   5.7331
     5.8259   6.0689   6.2640   6.2924   6.3490   6.4261   6.4309   6.4410
     6.4439   6.5171   6.6353   6.6781   6.6855   6.8455   6.9082   6.9211
     6.9382   7.0040   7.0807

     the Fermi energy is     1.4075 ev

!    total energy              =   -6604.43320722 Ry
     Harris-Foulkes estimate   =   -6604.43320722 Ry
     estimated scf accuracy    <          2.6E-09 Ry

     The total energy is the sum of the following terms:

     one-electron contribution =  -48576.03248667 Ry
     hartree contribution      =   24788.53416706 Ry
     xc contribution           =   -3204.97025146 Ry
     ewald contribution        =   20388.03245950 Ry
     smearing contrib. (-TS)   =       0.00290435 Ry

     convergence has been achieved in  25 iterations

     Writing output data file 7365838.save

     init_run     :    149.54s CPU    163.60s WALL (       1 calls)
     electrons    :   8868.03s CPU   9544.55s WALL (       1 calls)

     Called by init_run:
     wfcinit      :    113.60s CPU    126.32s WALL (       1 calls)
     potinit      :      9.86s CPU     10.39s WALL (       1 calls)

     Called by electrons:
     c_bands      :   7191.37s CPU   7734.37s WALL (      26 calls)
     sum_band     :   1224.53s CPU   1338.47s WALL (      26 calls)
     v_of_rho     :    121.99s CPU    135.05s WALL (      26 calls)
     newd         :    342.07s CPU    347.77s WALL (      26 calls)
     mix_rho      :      3.27s CPU      3.67s WALL (      26 calls)
     vdW_energy   :     10.26s CPU     12.00s WALL (      26 calls)
     vdW_ffts     :     61.02s CPU     67.52s WALL (      52 calls)
     vdW_v        :     16.02s CPU     17.04s WALL (      26 calls)

     Called by c_bands:
     init_us_2    :     27.02s CPU     27.78s WALL (     636 calls)
     cegterg      :   7112.63s CPU   7653.84s WALL (     312 calls)

     Called by *egterg:
     h_psi        :   3295.55s CPU   3793.16s WALL (    1635 calls)
     s_psi        :    446.91s CPU    449.57s WALL (    1635 calls)
     g_psi        :      6.23s CPU      6.23s WALL (    1311 calls)
     cdiaghg      :   2013.09s CPU   2019.13s WALL (    1611 calls)

     Called by h_psi:
     add_vuspsi   :    447.28s CPU    450.25s WALL (    1635 calls)

     General routines
     calbec       :    644.12s CPU    647.21s WALL (    1947 calls)
     fft          :    139.30s CPU    150.64s WALL (    1716 calls)
     ffts         :      1.62s CPU      1.88s WALL (      52 calls)
     fftw         :   2144.06s CPU   2585.24s WALL (  754748 calls)
     interpolate  :      4.69s CPU      5.46s WALL (      52 calls)
     davcio       :      0.00s CPU      0.54s WALL (      12 calls)

     Parallel routines
     fft_scatter  :   1439.06s CPU   1739.24s WALL (  756516 calls)

     PWSCF        :     2h30m CPU        2h42m WALL


   This run was terminated on:  11:13: 0  27Jun2015            

=------------------------------------------------------------------------------=
   JOB DONE.
=------------------------------------------------------------------------------=
