Setting SGE environment for SCC

     Program PWSCF v.5.1.2 starts on 24Jun2015 at 18:59:32 

     This program is part of the open-source Quantum ESPRESSO suite
     for quantum simulation of materials; please cite
         "P. Giannozzi et al., J. Phys.:Condens. Matter 21 395502 (2009);
          URL http://www.quantum-espresso.org", 
     in publications or presentations arising from this work. More details at
     http://www.quantum-espresso.org/quote

     Parallel version (MPI), running on    32 processors
     R & G space division:  proc/nbgrp/npool/nimage =      32
     Reading input from top.O1.Au50.d.3.0.phi.25.psi.0.in
Warning: card &IONS ignored
Warning: card / ignored
Warning: card &CELL ignored
Warning: card / ignored

     Current dimensions of program PWSCF are:
     Max number of different atomic species (ntypx) = 10
     Max number of k-points (npk) =  40000
     Max angular momentum in pseudopotentials (lmaxx) =  3

     IMPORTANT: XC functional enforced from input :
     Exchange-correlation      = VDW-DF ( 1  4  4  0 1 0)
     Any further DFT definition will be discarded
     Please, verify this is what you really want


     Subspace diagonalization in iterative solution of the eigenvalue problem:
     a serial algorithm will be used


     Parallelization info
     --------------------
     sticks:   dense  smooth     PW     G-vecs:    dense   smooth      PW
     Min         445     223     58                96775    34191    4534
     Max         446     224     59                96790    34246    4540
     Sum       14269    7147   1867              3097177  1095093  145167


     Title: 
     top.O1.Au50.d.3.0.phi.25.psi.0                                             


     bravais-lattice index     =            4
     lattice parameter (alat)  =      22.7436  a.u.
     unit-cell volume          =   22924.1508 (a.u.)^3
     number of atoms/cell      =           67
     number of atomic types    =            3
     number of electrons       =       712.00
     number of Kohn-Sham states=          427
     kinetic-energy cutoff     =      50.0000  Ry
     charge density cutoff     =     400.0000  Ry
     convergence threshold     =      1.0E-08
     mixing beta               =       0.7000
     number of iterations used =            8  plain     mixing
     Exchange-correlation      = VDW-DF ( 1  4  4  0 1 0)

     celldm(1)=  22.743643  celldm(2)=   0.000000  celldm(3)=   2.250000
     celldm(4)=   0.000000  celldm(5)=   0.000000  celldm(6)=   0.000000

     crystal axes: (cart. coord. in units of alat)
               a(1) = (   1.000000   0.000000   0.000000 )  
               a(2) = (  -0.500000   0.866025   0.000000 )  
               a(3) = (   0.000000   0.000000   2.250000 )  

     reciprocal axes: (cart. coord. in units 2 pi/alat)
               b(1) = (  1.000000  0.577350 -0.000000 )  
               b(2) = (  0.000000  1.154701  0.000000 )  
               b(3) = (  0.000000 -0.000000  0.444444 )  


     PseudoPot. # 1 for Au read from file:
     /home/scc/andrejb/qe/pseudo/Au.pbe-nd-van.UPF
     MD5 check sum: 458681b50f36d87ef23c61b04bba420a
     Pseudo is Ultrasoft + core correction, Zval = 11.0
     Generated by new atomic code, or converted to UPF format
     Using radial grid of  985 points,  3 beta functions with: 
                l(1) =   1
                l(2) =   2
                l(3) =   2
     Q(r) pseudized with  8 coefficients,  rinner =    1.100   1.100   1.100
                                                       1.100   1.100

     PseudoPot. # 2 for H  read from file:
     /home/scc/andrejb/qe/pseudo/H.pbe-van_ak.UPF
     MD5 check sum: 403db7282739603aa925980fa9b8608d
     Pseudo is Ultrasoft, Zval =  1.0
     Generated by new atomic code, or converted to UPF format
     Using radial grid of  615 points,  1 beta functions with: 
                l(1) =   0
     Q(r) pseudized with  8 coefficients,  rinner =    0.800

     PseudoPot. # 3 for O  read from file:
     /home/scc/andrejb/qe/pseudo/O.pbe-van_ak.UPF
     MD5 check sum: 4b8c549914a63cae506c6ff22b5af4fe
     Pseudo is Ultrasoft, Zval =  6.0
     Generated by new atomic code, or converted to UPF format
     Using radial grid of  737 points,  4 beta functions with: 
                l(1) =   0
                l(2) =   0
                l(3) =   1
                l(4) =   1
     Q(r) pseudized with  8 coefficients,  rinner =    0.800   0.800   0.800


     vdW kernel table read from file vdW_kernel_table
     MD5 check sum: 48e77a2e26edf626eeb0eaa751ad5cac

     atomic species   valence    mass     pseudopotential
        Au            11.00   196.96657     Au( 1.00)
        H              1.00     1.01000     H ( 1.00)
        O              6.00    16.00000     O ( 1.00)

     No symmetry found



   Cartesian axes

     site n.     atom                  positions (alat units)
         1           O   tau(   1) = (   0.4790780   0.3968269   0.8622611  )
         2           H   tau(   2) = (   0.4518956   0.3378297   0.9105147  )
         3           H   tau(   3) = (   0.5054281   0.4540523   0.9130218  )
         4           Au  tau(   4) = (   0.3540481   0.6132292   0.0000000  )
         5           Au  tau(   5) = (   0.4790062   0.3967954   0.0000000  )
         6           Au  tau(   6) = (   0.6039644   0.1803616   0.0000000  )
         7           Au  tau(   7) = (   0.7289225  -0.0360723   0.0000000  )
         8           Au  tau(   8) = (   0.1041318   0.6132292   0.0000000  )
         9           Au  tau(   9) = (   0.2290899   0.3967954   0.0000000  )
        10           Au  tau(  10) = (   0.3540481   0.1803616   0.0000000  )
        11           Au  tau(  11) = (   0.4790062  -0.0360723   0.0000000  )
        12           Au  tau(  12) = (  -0.1457845   0.6132292   0.0000000  )
        13           Au  tau(  13) = (  -0.0208264   0.3967954   0.0000000  )
        14           Au  tau(  14) = (   0.1041318   0.1803616   0.0000000  )
        15           Au  tau(  15) = (   0.2290899  -0.0360723   0.0000000  )
        16           Au  tau(  16) = (  -0.3957008   0.6132292   0.0000000  )
        17           Au  tau(  17) = (  -0.2707426   0.3967954   0.0000000  )
        18           Au  tau(  18) = (  -0.1457845   0.1803616   0.0000000  )
        19           Au  tau(  19) = (  -0.0208264  -0.0360723   0.0000000  )
        20           Au  tau(  20) = (   0.4790062   0.6853738   0.2040557  )
        21           Au  tau(  21) = (   0.6039644   0.4689400   0.2040557  )
        22           Au  tau(  22) = (   0.7289225   0.2525062   0.2040557  )
        23           Au  tau(  23) = (   0.8538806   0.0360723   0.2040557  )
        24           Au  tau(  24) = (   0.2290899   0.6853738   0.2040557  )
        25           Au  tau(  25) = (   0.3540481   0.4689400   0.2040557  )
        26           Au  tau(  26) = (   0.4790062   0.2525062   0.2040557  )
        27           Au  tau(  27) = (   0.6039644   0.0360723   0.2040557  )
        28           Au  tau(  28) = (  -0.0208264   0.6853738   0.2040557  )
        29           Au  tau(  29) = (   0.1041318   0.4689400   0.2040557  )
        30           Au  tau(  30) = (   0.2290899   0.2525062   0.2040557  )
        31           Au  tau(  31) = (   0.3540481   0.0360723   0.2040557  )
        32           Au  tau(  32) = (  -0.2707426   0.6853738   0.2040557  )
        33           Au  tau(  33) = (  -0.1457845   0.4689400   0.2040557  )
        34           Au  tau(  34) = (  -0.0208264   0.2525062   0.2040557  )
        35           Au  tau(  35) = (   0.1041318   0.0360723   0.2040557  )
        36           Au  tau(  36) = (   0.3541162   0.7576593   0.4066483  )
        37           Au  tau(  37) = (   0.4791000   0.5411421   0.4066696  )
        38           Au  tau(  38) = (   0.6040570   0.3246862   0.4066618  )
        39           Au  tau(  39) = (   0.7290270   0.1081684   0.4066530  )
        40           Au  tau(  40) = (   0.1041162   0.7576236   0.4066247  )
        41           Au  tau(  41) = (   0.2291001   0.5411062   0.4066455  )
        42           Au  tau(  42) = (   0.3540567   0.3246505   0.4066380  )
        43           Au  tau(  43) = (   0.4790276   0.1081324   0.4066292  )
        44           Au  tau(  44) = (  -0.1458201   0.7576104   0.4066225  )
        45           Au  tau(  45) = (  -0.0208365   0.5410930   0.4066438  )
        46           Au  tau(  46) = (   0.1041202   0.3246372   0.4066359  )
        47           Au  tau(  47) = (   0.2290908   0.1081193   0.4066273  )
        48           Au  tau(  48) = (  -0.3958167   0.7575791   0.4065812  )
        49           Au  tau(  49) = (  -0.2708328   0.5410617   0.4066025  )
        50           Au  tau(  50) = (  -0.1458763   0.3246061   0.4065947  )
        51           Au  tau(  51) = (  -0.0209056   0.1080882   0.4065858  )
        52           Au  tau(  52) = (   0.3541084   0.6133344   0.6129762  )
        53           Au  tau(  53) = (   0.4790780   0.3968269   0.6129968  )
        54           Au  tau(  54) = (   0.6040356   0.1803811   0.6129859  )
        55           Au  tau(  55) = (   0.7290165  -0.0361221   0.6129385  )
        56           Au  tau(  56) = (   0.1041243   0.6133091   0.6130023  )
        57           Au  tau(  57) = (   0.2290941   0.3968013   0.6130241  )
        58           Au  tau(  58) = (   0.3540515   0.1803552   0.6130121  )
        59           Au  tau(  59) = (   0.4790323  -0.0361475   0.6129659  )
        60           Au  tau(  60) = (  -0.1458030   0.6133014   0.6129980  )
        61           Au  tau(  61) = (  -0.0208339   0.3967936   0.6130189  )
        62           Au  tau(  62) = (   0.1041239   0.1803477   0.6130083  )
        63           Au  tau(  63) = (   0.2291046  -0.0361554   0.6129607  )
        64           Au  tau(  64) = (  -0.3957908   0.6132739   0.6129471  )
        65           Au  tau(  65) = (  -0.2708208   0.3967658   0.6129688  )
        66           Au  tau(  66) = (  -0.1458636   0.1803200   0.6129569  )
        67           Au  tau(  67) = (  -0.0208823  -0.0361826   0.6129110  )

     number of k points=    12  Marzari-Vanderbilt smearing, width (Ry)=  0.0200
                       cart. coord. in units 2pi/alat
        k(    1) = (   0.2500000   0.4330127   0.1111111), wk =   0.1666667
        k(    2) = (   0.2500000  -0.1443376   0.1111111), wk =   0.1666667
        k(    3) = (  -0.2500000  -0.4330127   0.1111111), wk =   0.1666667
        k(    4) = (  -0.2500000   0.4330127  -0.1111111), wk =   0.1666667
        k(    5) = (   0.2500000  -0.4330127  -0.1111111), wk =   0.1666667
        k(    6) = (   0.5000000   0.0000000   0.1111111), wk =   0.1666667
        k(    7) = (  -0.5000000   0.0000000   0.1111111), wk =   0.1666667
        k(    8) = (  -0.2500000   0.1443376   0.1111111), wk =   0.1666667
        k(    9) = (  -0.2500000  -0.1443376  -0.1111111), wk =   0.1666667
        k(   10) = (   0.2500000   0.1443376  -0.1111111), wk =   0.1666667
        k(   11) = (   0.0000000  -0.2886751   0.1111111), wk =   0.1666667
        k(   12) = (   0.0000000   0.2886751   0.1111111), wk =   0.1666667

     Dense  grid:  3097177 G-vectors     FFT dimensions: ( 150, 150, 360)

     Smooth grid:  1095093 G-vectors     FFT dimensions: ( 108, 108, 240)

     Largest allocated arrays     est. size (Mb)     dimensions
        Kohn-Sham Wavefunctions        28.01 Mb     (    4299,  427)
        NL pseudopotentials            55.23 Mb     (    4299,  842)
        Each V/rho on FFT grid          4.12 Mb     (  270000)
        Each G-vector array             0.74 Mb     (   96788)
        G-vector shells                 0.16 Mb     (   21404)
     Largest temporary arrays     est. size (Mb)     dimensions
        Auxiliary wavefunctions       112.04 Mb     (    4299, 1708)
        Each subspace H/S matrix       44.51 Mb     (    1708, 1708)
        Each <psi_i|beta_j> matrix      5.49 Mb     (     842,  427)
        Arrays for rho mixing          32.96 Mb     (  270000,    8)

     Initial potential from superposition of free atoms
     Check: negative starting charge=   -1.730194

     starting charge  711.25682, renormalised to  712.00000

     negative rho (up, down):  1.732E+00 0.000E+00


     ************************************************************************
     *
     * You are using vdW-DF for exchange-correlation in this calculation.
     * Please cite the following three references that made this development
     * possible:
     *
     *   M. Dion, H. Rydberg, E. Schroder, D. C. Langreth, and
     *   B. I. Lundqvist, Phys. Rev. Lett. 92, 246401 (2004).
     *
     *   T. Thonhauser, V. R. Cooper, S. Li, A. Puzder, P. Hyldgaard, and
     *   D. C. Langreth, Phys. Rev. B 76, 125112 (2007).
     *
     *   G. Roman-Perez and J. M. Soler, Phys. Rev. Lett. 103, 096102 (2009).
     *
     *
     * If you are using vdW-DF2, please also cite:
     *
     *   K. Lee, E. D. Murray, L. Kong, B. I. Lundqvist, and
     *   D. C. Langreth, Phys. Rev. B 82, 081101(R) (2010).
     *
     *
     * If you are calculating the stress with vdW-DF, please also cite:
     *
     *   R. Sabatini, E. Kucukbenli, B. Kolb, T. Thonhauser, and
     *   S. de Gironcoli, J. Phys.: Condens. Matter 24, 424209 (2012).
     *
     ************************************************************************

     Carrying out vdW-DF run using the following parameters:

     Nqs =      20    Nr_points =    1024   r_max =   100.000
     q_mesh =
               0.00001000     0.04494208     0.09755937     0.15916263
               0.23128650     0.31572767     0.41458969     0.53033537
               0.66584808     0.82450364     1.01025438     1.22772762
               1.48234092     1.78043706     2.12944203     2.53805004
               3.01644009     3.57652955     4.23227104     5.00000000

     Gradients computed in reciprocal space

     ************************************************************************


     Starting wfc are  582 randomized atomic wfcs

     total cpu time spent up to now is      132.0 secs

     Self-consistent Calculation

     iteration #  1     ecut=    50.00 Ry     beta=0.70
     Davidson diagonalization with overlap
     ethr =  1.00E-02,  avg # of iterations =  3.0

     Threshold (ethr) on eigenvalues was too large:
     Diagonalizing with lowered threshold

     Davidson diagonalization with overlap
     ethr =  3.56E-04,  avg # of iterations =  5.3

     negative rho (up, down):  1.728E+00 0.000E+00

     total cpu time spent up to now is      672.7 secs

     total energy              =   -6602.76169056 Ry
     Harris-Foulkes estimate   =   -6605.05464322 Ry
     estimated scf accuracy    <       2.86805632 Ry

     iteration #  2     ecut=    50.00 Ry     beta=0.70
     Davidson diagonalization with overlap
     ethr =  4.03E-04,  avg # of iterations = 11.6

     negative rho (up, down):  1.725E+00 0.000E+00

     total cpu time spent up to now is     1638.9 secs

     total energy              =   -6596.08726860 Ry
     Harris-Foulkes estimate   =   -6610.30181684 Ry
     estimated scf accuracy    <      81.37167232 Ry

     iteration #  3     ecut=    50.00 Ry     beta=0.70
     Davidson diagonalization with overlap
     ethr =  4.03E-04,  avg # of iterations =  6.0

     negative rho (up, down):  1.734E+00 0.000E+00

     total cpu time spent up to now is     2199.3 secs

     total energy              =   -6603.02765673 Ry
     Harris-Foulkes estimate   =   -6605.02449330 Ry
     estimated scf accuracy    <       9.56350780 Ry

     iteration #  4     ecut=    50.00 Ry     beta=0.70
     Davidson diagonalization with overlap
     ethr =  4.03E-04,  avg # of iterations =  6.2

     negative rho (up, down):  1.736E+00 0.000E+00

     total cpu time spent up to now is     2524.9 secs

     total energy              =   -6603.38333168 Ry
     Harris-Foulkes estimate   =   -6605.28048494 Ry
     estimated scf accuracy    <      18.39226832 Ry

     iteration #  5     ecut=    50.00 Ry     beta=0.70
     Davidson diagonalization with overlap
     ethr =  4.03E-04,  avg # of iterations =  5.6

     negative rho (up, down):  1.746E+00 0.000E+00

     total cpu time spent up to now is     2831.5 secs

     total energy              =   -6604.32192648 Ry
     Harris-Foulkes estimate   =   -6604.63052205 Ry
     estimated scf accuracy    <       2.10554658 Ry

     iteration #  6     ecut=    50.00 Ry     beta=0.70
     Davidson diagonalization with overlap
     ethr =  2.96E-04,  avg # of iterations =  2.5

     negative rho (up, down):  1.750E+00 0.000E+00

     total cpu time spent up to now is     3059.0 secs

     total energy              =   -6604.41922136 Ry
     Harris-Foulkes estimate   =   -6604.47547258 Ry
     estimated scf accuracy    <       0.17283137 Ry

     iteration #  7     ecut=    50.00 Ry     beta=0.70
     Davidson diagonalization with overlap
     ethr =  2.43E-05,  avg # of iterations = 11.7

     negative rho (up, down):  1.753E+00 0.000E+00

     total cpu time spent up to now is     3495.8 secs

     total energy              =   -6604.43080460 Ry
     Harris-Foulkes estimate   =   -6604.45981029 Ry
     estimated scf accuracy    <       0.12208039 Ry

     iteration #  8     ecut=    50.00 Ry     beta=0.70
     Davidson diagonalization with overlap
     c_bands:  1 eigenvalues not converged
     c_bands:  1 eigenvalues not converged
     c_bands:  1 eigenvalues not converged
     ethr =  1.71E-05,  avg # of iterations =  7.3

     negative rho (up, down):  1.754E+00 0.000E+00

     total cpu time spent up to now is     3814.6 secs

     total energy              =   -6604.43432491 Ry
     Harris-Foulkes estimate   =   -6604.44854285 Ry
     estimated scf accuracy    <       0.05119253 Ry

     iteration #  9     ecut=    50.00 Ry     beta=0.70
     Davidson diagonalization with overlap
     ethr =  7.19E-06,  avg # of iterations =  6.7

     negative rho (up, down):  1.755E+00 0.000E+00

     total cpu time spent up to now is     4126.1 secs

     total energy              =   -6604.43532692 Ry
     Harris-Foulkes estimate   =   -6604.44187251 Ry
     estimated scf accuracy    <       0.02107322 Ry

     iteration # 10     ecut=    50.00 Ry     beta=0.70
     Davidson diagonalization with overlap
     ethr =  2.96E-06,  avg # of iterations =  9.3

     negative rho (up, down):  1.756E+00 0.000E+00

     total cpu time spent up to now is     4486.6 secs

     total energy              =   -6604.43606912 Ry
     Harris-Foulkes estimate   =   -6604.43827888 Ry
     estimated scf accuracy    <       0.00815847 Ry

     iteration # 11     ecut=    50.00 Ry     beta=0.70
     Davidson diagonalization with overlap
     ethr =  1.15E-06,  avg # of iterations =  7.3

     negative rho (up, down):  1.757E+00 0.000E+00

     total cpu time spent up to now is     4803.4 secs

     total energy              =   -6604.43617372 Ry
     Harris-Foulkes estimate   =   -6604.43719515 Ry
     estimated scf accuracy    <       0.00463329 Ry

     iteration # 12     ecut=    50.00 Ry     beta=0.70
     Davidson diagonalization with overlap
     ethr =  6.51E-07,  avg # of iterations =  5.1

     negative rho (up, down):  1.758E+00 0.000E+00

     total cpu time spent up to now is     5066.8 secs

     total energy              =   -6604.43584948 Ry
     Harris-Foulkes estimate   =   -6604.43658166 Ry
     estimated scf accuracy    <       0.00125880 Ry

     iteration # 13     ecut=    50.00 Ry     beta=0.70
     Davidson diagonalization with overlap
     ethr =  1.77E-07,  avg # of iterations = 10.3

     negative rho (up, down):  1.758E+00 0.000E+00

     total cpu time spent up to now is     5472.3 secs

     total energy              =   -6604.43604643 Ry
     Harris-Foulkes estimate   =   -6604.43619709 Ry
     estimated scf accuracy    <       0.00043342 Ry

     iteration # 14     ecut=    50.00 Ry     beta=0.70
     Davidson diagonalization with overlap
     ethr =  6.09E-08,  avg # of iterations =  3.0

     negative rho (up, down):  1.757E+00 0.000E+00

     total cpu time spent up to now is     5714.9 secs

     total energy              =   -6604.43611629 Ry
     Harris-Foulkes estimate   =   -6604.43614893 Ry
     estimated scf accuracy    <       0.00010506 Ry

     iteration # 15     ecut=    50.00 Ry     beta=0.70
     Davidson diagonalization with overlap
     ethr =  1.48E-08,  avg # of iterations =  2.0

     negative rho (up, down):  1.757E+00 0.000E+00

     total cpu time spent up to now is     5954.4 secs

     total energy              =   -6604.43612405 Ry
     Harris-Foulkes estimate   =   -6604.43614742 Ry
     estimated scf accuracy    <       0.00010777 Ry

     iteration # 16     ecut=    50.00 Ry     beta=0.70
     Davidson diagonalization with overlap
     ethr =  1.48E-08,  avg # of iterations =  2.0

     negative rho (up, down):  1.757E+00 0.000E+00

     total cpu time spent up to now is     6170.6 secs

     total energy              =   -6604.43613385 Ry
     Harris-Foulkes estimate   =   -6604.43613978 Ry
     estimated scf accuracy    <       0.00001830 Ry

     iteration # 17     ecut=    50.00 Ry     beta=0.70
     Davidson diagonalization with overlap
     ethr =  2.57E-09,  avg # of iterations =  2.0

     negative rho (up, down):  1.757E+00 0.000E+00

     total cpu time spent up to now is     6409.7 secs

     total energy              =   -6604.43613458 Ry
     Harris-Foulkes estimate   =   -6604.43613992 Ry
     estimated scf accuracy    <       0.00002842 Ry

     iteration # 18     ecut=    50.00 Ry     beta=0.70
     Davidson diagonalization with overlap
     ethr =  2.57E-09,  avg # of iterations =  2.0

     negative rho (up, down):  1.757E+00 0.000E+00

     total cpu time spent up to now is     6627.3 secs

     total energy              =   -6604.43613642 Ry
     Harris-Foulkes estimate   =   -6604.43613897 Ry
     estimated scf accuracy    <       0.00001741 Ry

     iteration # 19     ecut=    50.00 Ry     beta=0.70
     Davidson diagonalization with overlap
     ethr =  2.45E-09,  avg # of iterations =  1.0

     negative rho (up, down):  1.757E+00 0.000E+00

     total cpu time spent up to now is     6829.6 secs

     total energy              =   -6604.43613755 Ry
     Harris-Foulkes estimate   =   -6604.43613822 Ry
     estimated scf accuracy    <       0.00000465 Ry

     iteration # 20     ecut=    50.00 Ry     beta=0.70
     Davidson diagonalization with overlap
     ethr =  6.53E-10,  avg # of iterations =  1.5

     negative rho (up, down):  1.757E+00 0.000E+00

     total cpu time spent up to now is     7036.8 secs

     total energy              =   -6604.43613802 Ry
     Harris-Foulkes estimate   =   -6604.43613813 Ry
     estimated scf accuracy    <       0.00000122 Ry

     iteration # 21     ecut=    50.00 Ry     beta=0.70
     Davidson diagonalization with overlap
     ethr =  1.71E-10,  avg # of iterations =  2.0

     negative rho (up, down):  1.757E+00 0.000E+00

     total cpu time spent up to now is     7251.4 secs

     total energy              =   -6604.43613819 Ry
     Harris-Foulkes estimate   =   -6604.43613819 Ry
     estimated scf accuracy    <       0.00000028 Ry

     iteration # 22     ecut=    50.00 Ry     beta=0.70
     Davidson diagonalization with overlap
     ethr =  3.97E-11,  avg # of iterations =  2.0

     negative rho (up, down):  1.757E+00 0.000E+00

     total cpu time spent up to now is     7468.5 secs

     total energy              =   -6604.43613822 Ry
     Harris-Foulkes estimate   =   -6604.43613825 Ry
     estimated scf accuracy    <       0.00000005 Ry

     iteration # 23     ecut=    50.00 Ry     beta=0.70
     Davidson diagonalization with overlap
     ethr =  6.94E-12,  avg # of iterations =  3.0

     negative rho (up, down):  1.757E+00 0.000E+00

     total cpu time spent up to now is     7748.9 secs

     total energy              =   -6604.43613824 Ry
     Harris-Foulkes estimate   =   -6604.43613824 Ry
     estimated scf accuracy    <       0.00000004 Ry

     iteration # 24     ecut=    50.00 Ry     beta=0.70
     Davidson diagonalization with overlap
     ethr =  5.31E-12,  avg # of iterations =  2.0

     negative rho (up, down):  1.757E+00 0.000E+00

     total cpu time spent up to now is     7984.5 secs

     total energy              =   -6604.43613826 Ry
     Harris-Foulkes estimate   =   -6604.43613824 Ry
     estimated scf accuracy    <       0.00000002 Ry

     iteration # 25     ecut=    50.00 Ry     beta=0.70
     Davidson diagonalization with overlap
     ethr =  2.19E-12,  avg # of iterations =  2.0

     negative rho (up, down):  1.757E+00 0.000E+00

     total cpu time spent up to now is     8205.6 secs

     End of self-consistent calculation

          k = 0.2500 0.4330 0.1111 (136853 PWs)   bands (ev):

   -19.2172  -7.0172  -6.1981  -5.7990  -5.7985  -5.1223  -4.7874  -4.7873
    -4.7507  -4.7485  -4.3871  -4.3868  -4.2885  -4.2881  -4.2743  -4.2528
    -4.2298  -4.1211  -4.1204  -4.0966  -4.0529  -4.0527  -3.9856  -3.9840
    -3.9810  -3.9776  -3.9558  -3.9509  -3.9499  -3.8842  -3.8782  -3.8477
    -3.8475  -3.8359  -3.8353  -3.8127  -3.8119  -3.7898  -3.7815  -3.7808
    -3.7569  -3.7029  -3.7019  -3.6552  -3.6536  -3.6017  -3.5953  -3.5602
    -3.5400  -3.5398  -3.5397  -3.5063  -3.4916  -3.4655  -3.4605  -3.4582
    -3.4570  -3.4518  -3.4270  -3.4190  -3.4122  -3.3563  -3.3544  -3.3447
    -3.3276  -3.3213  -3.2504  -3.2446  -3.2174  -3.2152  -3.1890  -3.1882
    -3.1752  -3.1565  -3.0990  -3.0970  -3.0812  -3.0799  -3.0294  -3.0244
    -3.0237  -2.9858  -2.9547  -2.9542  -2.9455  -2.9438  -2.9324  -2.9314
    -2.9247  -2.9242  -2.9140  -2.8732  -2.8357  -2.8346  -2.8212  -2.8209
    -2.7950  -2.7855  -2.7851  -2.7615  -2.7187  -2.7171  -2.7096  -2.6705
    -2.6632  -2.6522  -2.6511  -2.6232  -2.6227  -2.5929  -2.5563  -2.5559
    -2.5338  -2.5261  -2.5126  -2.5119  -2.4620  -2.4613  -2.4289  -2.4060
    -2.4058  -2.3821  -2.3814  -2.3704  -2.3698  -2.3594  -2.3375  -2.3371
    -2.2920  -2.2915  -2.2905  -2.2739  -2.2738  -2.2680  -2.2591  -2.2581
    -2.2566  -2.2561  -2.2497  -2.2378  -2.2370  -2.2289  -2.2011  -2.2010
    -2.1994  -2.1987  -2.1973  -2.1954  -2.1939  -2.1678  -2.1643  -2.1505
    -2.1501  -2.1317  -2.1312  -2.1218  -2.1216  -2.1206  -2.1196  -2.1005
    -2.0993  -2.0988  -2.0970  -2.0800  -2.0547  -2.0534  -2.0140  -2.0134
    -1.9888  -1.9886  -1.9616  -1.9602  -1.9342  -1.9333  -1.9172  -1.9115
    -1.8848  -1.8647  -1.8627  -1.8576  -1.8556  -1.8523  -1.8456  -1.8431
    -1.8181  -1.8116  -1.8023  -1.7466  -1.7426  -1.7406  -1.7397  -1.7369
    -1.7024  -1.6824  -1.6821  -1.6549  -1.6532  -1.5940  -1.5938  -1.5643
    -1.5475  -1.5435  -1.4870  -1.4850  -1.4738  -1.4727  -1.4626  -1.4616
    -1.4578  -1.4504  -1.4490  -1.4075  -1.3913  -1.3819  -1.3808  -1.3790
    -1.3704  -1.3615  -1.3288  -1.3252  -1.3114  -1.3080  -1.3076  -1.3004
    -1.2962  -1.2888  -1.2866  -1.2689  -1.2664  -1.2529  -1.2218  -1.2203
    -1.2132  -1.1975  -1.1810  -1.1721  -1.1359  -1.1304  -1.1089  -1.1045
    -1.1030  -1.0744  -1.0239  -1.0223  -1.0213  -1.0196  -1.0154  -1.0131
    -1.0041  -0.9867  -0.9855  -0.9466  -0.9465  -0.9161  -0.9158  -0.9100
    -0.9087  -0.9029  -0.8863  -0.8861  -0.8845  -0.8821  -0.8799  -0.8456
    -0.8421  -0.8411  -0.8402  -0.8108  -0.8089  -0.8054  -0.7827  -0.7746
    -0.7729  -0.7279  -0.7215  -0.7185  -0.6859  -0.6775  -0.6670  -0.6669
    -0.6597  -0.6588  -0.6572  -0.6536  -0.6454  -0.6420  -0.6191  -0.6184
    -0.6155  -0.6138  -0.6116  -0.5762  -0.5757  -0.5648  -0.5636  -0.5489
    -0.5427  -0.5386  -0.5296  -0.4745  -0.4724  -0.4638  -0.4636  -0.4618
    -0.4612  -0.4554  -0.4378  -0.4346  -0.4284  -0.4280  -0.4262  -0.4220
    -0.3863  -0.3845  -0.3836  -0.3760  -0.3745  -0.3700  -0.3680  -0.3568
    -0.3518  -0.3491  -0.3426  -0.3067  -0.3060  -0.2980  -0.2943  -0.2933
    -0.2171  -0.2164  -0.2140  -0.2128  -0.2046  -0.2028  -0.1678  -0.1554
    -0.1547  -0.1288  -0.1232  -0.1133  -0.0025  -0.0000   0.1007   0.5165
     0.5170   0.5195   0.5198   0.5788   0.5883   0.9693   0.9697   1.0119
     1.0123   1.1213   1.2026   1.3086   1.3194   1.5272   1.5482   2.1654
     2.1695   2.3262   2.3325   2.4571   2.4693   2.5654   2.5655   2.7196
     2.9552   2.9571   3.0815   3.3007   3.3123   3.3882   3.3895   3.4886
     3.5047   3.6878   3.6954   3.7607   3.9617   3.9621   4.0221   4.0275
     4.2810   4.2849   4.2965   4.5319   4.5721   4.5758   4.6201   4.9531
     4.9575   4.9837   5.0410   5.1217   5.2922   5.2929   5.3392   5.3835
     5.6991   5.9485   6.0548   6.0781   6.0826   6.0959   6.1529   6.1548
     6.2086   6.2614   6.2875   6.3097   6.3151   6.3235   6.3251   6.3647
     6.3758   6.4025   6.5136   6.5797   6.7036   6.7890   6.9021   6.9863
     7.0175   7.0214   7.0355

          k = 0.2500-0.1443 0.1111 (136898 PWs)   bands (ev):

   -19.2172  -7.0172  -6.4081  -5.6160  -5.3261  -5.2658  -5.2655  -4.7273
    -4.7272  -4.5971  -4.5951  -4.4415  -4.4111  -4.3476  -4.3167  -4.3148
    -4.2807  -4.2804  -4.1517  -4.1100  -4.1098  -4.0509  -4.0314  -4.0295
    -3.9267  -3.9266  -3.8912  -3.8904  -3.8901  -3.8643  -3.8423  -3.8415
    -3.7421  -3.7347  -3.7345  -3.7150  -3.6994  -3.6970  -3.6864  -3.6848
    -3.6726  -3.6443  -3.6412  -3.6407  -3.6404  -3.6099  -3.6084  -3.5929
    -3.5904  -3.5800  -3.5493  -3.5331  -3.5212  -3.4966  -3.4877  -3.4819
    -3.4817  -3.4508  -3.4073  -3.4050  -3.3724  -3.3700  -3.3545  -3.3018
    -3.3012  -3.2866  -3.2799  -3.2554  -3.2551  -3.2544  -3.2502  -3.1010
    -3.0987  -3.0755  -3.0749  -3.0701  -3.0539  -3.0520  -3.0281  -3.0267
    -2.9780  -2.9767  -2.9618  -2.9608  -2.9406  -2.8930  -2.8926  -2.8730
    -2.8684  -2.8669  -2.8273  -2.8265  -2.8202  -2.8185  -2.8043  -2.8014
    -2.7644  -2.7637  -2.7424  -2.7423  -2.7391  -2.7377  -2.7346  -2.6592
    -2.6586  -2.6562  -2.6284  -2.6262  -2.5666  -2.5665  -2.5374  -2.5370
    -2.5240  -2.5230  -2.5174  -2.4886  -2.4885  -2.4783  -2.4612  -2.4364
    -2.4358  -2.4350  -2.4148  -2.4145  -2.4035  -2.4025  -2.4006  -2.3989
    -2.3909  -2.3448  -2.3131  -2.3129  -2.2968  -2.2832  -2.2768  -2.2766
    -2.2696  -2.2683  -2.2671  -2.2379  -2.2375  -2.2365  -2.2275  -2.2265
    -2.2106  -2.1834  -2.1826  -2.1822  -2.1814  -2.1787  -2.1352  -2.1041
    -2.1041  -2.1027  -2.0972  -2.0877  -2.0756  -2.0755  -2.0580  -2.0579
    -2.0251  -2.0235  -2.0231  -2.0048  -2.0039  -2.0038  -1.9709  -1.9707
    -1.9295  -1.9273  -1.9215  -1.9191  -1.9185  -1.9127  -1.9122  -1.9099
    -1.9090  -1.9040  -1.9025  -1.8865  -1.8859  -1.7599  -1.7596  -1.7271
    -1.7212  -1.7203  -1.7139  -1.7132  -1.6970  -1.6965  -1.6955  -1.6939
    -1.6903  -1.6682  -1.6624  -1.6620  -1.6541  -1.6486  -1.6449  -1.6255
    -1.6248  -1.5967  -1.5965  -1.5688  -1.5653  -1.5540  -1.5468  -1.5283
    -1.5267  -1.5247  -1.5067  -1.4939  -1.4932  -1.4866  -1.4864  -1.4618
    -1.4599  -1.4449  -1.4434  -1.4117  -1.4101  -1.4047  -1.3541  -1.3501
    -1.3429  -1.3377  -1.3331  -1.3105  -1.3078  -1.2780  -1.2753  -1.2746
    -1.2608  -1.2318  -1.2310  -1.2195  -1.2143  -1.2093  -1.1870  -1.1856
    -1.1660  -1.1560  -1.1535  -1.1505  -1.0910  -1.0903  -1.0787  -1.0765
    -1.0614  -1.0601  -1.0489  -1.0444  -1.0301  -1.0175  -0.9897  -0.9886
    -0.9767  -0.9466  -0.9405  -0.9370  -0.9275  -0.9272  -0.9256  -0.9215
    -0.9150  -0.9062  -0.8768  -0.8755  -0.8673  -0.8643  -0.8639  -0.8527
    -0.8398  -0.8229  -0.8151  -0.8009  -0.7932  -0.7063  -0.6935  -0.6880
    -0.6875  -0.6830  -0.6789  -0.6752  -0.6527  -0.6525  -0.6385  -0.6347
    -0.6228  -0.6199  -0.6134  -0.5942  -0.5913  -0.5881  -0.5825  -0.5100
    -0.5096  -0.4780  -0.4727  -0.4717  -0.4662  -0.4635  -0.4629  -0.4608
    -0.4512  -0.4466  -0.4305  -0.4082  -0.3932  -0.3751  -0.3732  -0.3638
    -0.3611  -0.3510  -0.3495  -0.3484  -0.3476  -0.3440  -0.3299  -0.3260
    -0.3225  -0.2948  -0.2936  -0.2906  -0.2805  -0.2796  -0.2611  -0.2295
    -0.2279  -0.2202  -0.2179  -0.1518  -0.1504  -0.1148  -0.1145  -0.0569
    -0.0553  -0.0551  -0.0393  -0.0270   0.1922   0.2097   0.5448   0.5450
     0.6307   0.6461   0.8276   0.8544   0.8633   0.9915   0.9953   1.4251
     1.4252   1.4432   1.7023   1.7349   1.7353   2.0033   2.0231   2.0900
     2.0916   2.1137   2.1285   2.3469   2.3475   2.4359   2.4369   2.5015
     2.5671   2.5907   2.7404   2.8391   3.2758   3.2781   3.2791   3.2888
     3.3351   3.3373   3.6288   3.6297   3.9043   3.9174   4.0025   4.3253
     4.3634   4.3726   4.5613   4.5792   4.6664   4.6722   4.7580   4.8753
     4.8837   4.9937   4.9969   5.0353   5.2988   5.3628   5.3740   5.5001
     5.5439   5.7538   5.7547   5.7671   5.7822   5.7842   5.8421   5.8450
     5.9033   6.0448   6.1853   6.2688   6.4449   6.4532   6.5845   6.5878
     6.5920   6.5975   6.6250   6.7525   6.8071   6.8385   6.8468   6.9873
     7.0237   7.0463   7.0711

          k =-0.2500-0.4330 0.1111 (136853 PWs)   bands (ev):

   -19.2172  -7.0172  -6.1981  -5.7990  -5.7985  -5.1223  -4.7874  -4.7873
    -4.7507  -4.7485  -4.3871  -4.3868  -4.2885  -4.2881  -4.2743  -4.2528
    -4.2298  -4.1211  -4.1204  -4.0966  -4.0529  -4.0527  -3.9856  -3.9840
    -3.9810  -3.9776  -3.9558  -3.9509  -3.9499  -3.8842  -3.8782  -3.8477
    -3.8475  -3.8359  -3.8353  -3.8127  -3.8119  -3.7898  -3.7815  -3.7808
    -3.7569  -3.7029  -3.7019  -3.6552  -3.6536  -3.6017  -3.5953  -3.5602
    -3.5400  -3.5398  -3.5397  -3.5063  -3.4916  -3.4655  -3.4605  -3.4582
    -3.4570  -3.4518  -3.4270  -3.4189  -3.4122  -3.3563  -3.3544  -3.3447
    -3.3276  -3.3213  -3.2504  -3.2446  -3.2174  -3.2152  -3.1890  -3.1882
    -3.1752  -3.1565  -3.0990  -3.0970  -3.0812  -3.0799  -3.0294  -3.0244
    -3.0237  -2.9858  -2.9547  -2.9542  -2.9455  -2.9438  -2.9324  -2.9314
    -2.9247  -2.9242  -2.9140  -2.8732  -2.8357  -2.8346  -2.8212  -2.8209
    -2.7950  -2.7855  -2.7851  -2.7615  -2.7187  -2.7171  -2.7096  -2.6705
    -2.6632  -2.6522  -2.6511  -2.6232  -2.6227  -2.5929  -2.5563  -2.5559
    -2.5338  -2.5261  -2.5126  -2.5119  -2.4620  -2.4613  -2.4289  -2.4060
    -2.4058  -2.3821  -2.3814  -2.3704  -2.3698  -2.3594  -2.3375  -2.3371
    -2.2920  -2.2915  -2.2905  -2.2739  -2.2738  -2.2680  -2.2591  -2.2581
    -2.2566  -2.2561  -2.2497  -2.2378  -2.2370  -2.2289  -2.2011  -2.2010
    -2.1994  -2.1987  -2.1973  -2.1954  -2.1939  -2.1678  -2.1643  -2.1505
    -2.1501  -2.1317  -2.1312  -2.1218  -2.1216  -2.1206  -2.1196  -2.1005
    -2.0993  -2.0988  -2.0970  -2.0800  -2.0547  -2.0534  -2.0140  -2.0134
    -1.9888  -1.9886  -1.9616  -1.9602  -1.9342  -1.9333  -1.9172  -1.9115
    -1.8848  -1.8647  -1.8627  -1.8576  -1.8556  -1.8523  -1.8456  -1.8431
    -1.8181  -1.8116  -1.8023  -1.7466  -1.7426  -1.7406  -1.7397  -1.7369
    -1.7024  -1.6824  -1.6821  -1.6549  -1.6532  -1.5940  -1.5938  -1.5643
    -1.5475  -1.5435  -1.4870  -1.4850  -1.4738  -1.4727  -1.4626  -1.4616
    -1.4578  -1.4504  -1.4490  -1.4075  -1.3913  -1.3819  -1.3808  -1.3790
    -1.3704  -1.3615  -1.3288  -1.3252  -1.3114  -1.3080  -1.3076  -1.3004
    -1.2962  -1.2888  -1.2866  -1.2689  -1.2664  -1.2529  -1.2218  -1.2203
    -1.2132  -1.1975  -1.1810  -1.1721  -1.1359  -1.1304  -1.1089  -1.1045
    -1.1030  -1.0744  -1.0239  -1.0223  -1.0213  -1.0196  -1.0154  -1.0131
    -1.0041  -0.9867  -0.9855  -0.9466  -0.9465  -0.9161  -0.9158  -0.9100
    -0.9087  -0.9029  -0.8863  -0.8861  -0.8845  -0.8821  -0.8799  -0.8456
    -0.8421  -0.8411  -0.8402  -0.8108  -0.8089  -0.8054  -0.7827  -0.7746
    -0.7729  -0.7279  -0.7215  -0.7185  -0.6859  -0.6775  -0.6670  -0.6669
    -0.6597  -0.6588  -0.6572  -0.6536  -0.6454  -0.6420  -0.6191  -0.6184
    -0.6155  -0.6138  -0.6116  -0.5762  -0.5757  -0.5648  -0.5636  -0.5489
    -0.5427  -0.5386  -0.5296  -0.4745  -0.4724  -0.4638  -0.4636  -0.4618
    -0.4612  -0.4554  -0.4378  -0.4346  -0.4284  -0.4280  -0.4262  -0.4220
    -0.3863  -0.3845  -0.3836  -0.3760  -0.3745  -0.3700  -0.3680  -0.3568
    -0.3518  -0.3491  -0.3426  -0.3067  -0.3060  -0.2980  -0.2943  -0.2933
    -0.2171  -0.2164  -0.2140  -0.2128  -0.2046  -0.2028  -0.1678  -0.1554
    -0.1547  -0.1288  -0.1232  -0.1133  -0.0025  -0.0000   0.1007   0.5165
     0.5170   0.5195   0.5198   0.5788   0.5883   0.9693   0.9697   1.0119
     1.0123   1.1213   1.2026   1.3086   1.3194   1.5272   1.5482   2.1654
     2.1695   2.3262   2.3325   2.4571   2.4693   2.5654   2.5655   2.7196
     2.9552   2.9571   3.0815   3.3007   3.3123   3.3882   3.3895   3.4886
     3.5047   3.6878   3.6954   3.7607   3.9617   3.9621   4.0221   4.0275
     4.2810   4.2849   4.2965   4.5319   4.5721   4.5758   4.6201   4.9531
     4.9575   4.9837   5.0410   5.1217   5.2922   5.2929   5.3392   5.3835
     5.6990   5.9485   6.0550   6.0781   6.0826   6.0960   6.1529   6.1548
     6.2086   6.2614   6.2875   6.3098   6.3151   6.3235   6.3250   6.3647
     6.3758   6.4023   6.5136   6.5781   6.7044   6.7890   6.9044   6.9866
     7.0175   7.0214   7.0354

          k =-0.2500 0.4330-0.1111 (136853 PWs)   bands (ev):

   -19.2172  -7.0172  -6.1981  -5.8002  -5.7973  -5.1223  -4.7878  -4.7869
    -4.7510  -4.7482  -4.3877  -4.3861  -4.2885  -4.2882  -4.2741  -4.2528
    -4.2299  -4.1215  -4.1203  -4.0966  -4.0529  -4.0528  -3.9854  -3.9840
    -3.9810  -3.9776  -3.9557  -3.9520  -3.9488  -3.8836  -3.8789  -3.8484
    -3.8465  -3.8359  -3.8352  -3.8125  -3.8120  -3.7898  -3.7815  -3.7808
    -3.7571  -3.7028  -3.7022  -3.6559  -3.6529  -3.6017  -3.5952  -3.5600
    -3.5404  -3.5399  -3.5395  -3.5064  -3.4917  -3.4655  -3.4606  -3.4582
    -3.4570  -3.4520  -3.4272  -3.4185  -3.4123  -3.3565  -3.3545  -3.3445
    -3.3274  -3.3211  -3.2505  -3.2447  -3.2174  -3.2148  -3.1892  -3.1877
    -3.1751  -3.1566  -3.0992  -3.0971  -3.0812  -3.0795  -3.0292  -3.0244
    -3.0238  -2.9857  -2.9546  -2.9543  -2.9458  -2.9433  -2.9326  -2.9318
    -2.9245  -2.9238  -2.9142  -2.8731  -2.8365  -2.8340  -2.8214  -2.8206
    -2.7950  -2.7855  -2.7850  -2.7615  -2.7192  -2.7165  -2.7098  -2.6703
    -2.6631  -2.6528  -2.6504  -2.6233  -2.6228  -2.5929  -2.5561  -2.5557
    -2.5339  -2.5261  -2.5129  -2.5120  -2.4620  -2.4611  -2.4288  -2.4062
    -2.4059  -2.3820  -2.3817  -2.3702  -2.3696  -2.3596  -2.3378  -2.3368
    -2.2917  -2.2912  -2.2907  -2.2747  -2.2731  -2.2680  -2.2590  -2.2581
    -2.2567  -2.2561  -2.2496  -2.2383  -2.2362  -2.2299  -2.2011  -2.2010
    -2.1995  -2.1989  -2.1973  -2.1954  -2.1934  -2.1677  -2.1644  -2.1503
    -2.1499  -2.1321  -2.1309  -2.1219  -2.1214  -2.1205  -2.1196  -2.1015
    -2.0994  -2.0985  -2.0963  -2.0802  -2.0550  -2.0535  -2.0149  -2.0126
    -1.9894  -1.9881  -1.9617  -1.9599  -1.9338  -1.9331  -1.9170  -1.9114
    -1.8847  -1.8643  -1.8630  -1.8582  -1.8556  -1.8519  -1.8460  -1.8424
    -1.8182  -1.8110  -1.8022  -1.7470  -1.7433  -1.7407  -1.7389  -1.7376
    -1.7038  -1.6831  -1.6813  -1.6553  -1.6530  -1.5946  -1.5931  -1.5647
    -1.5474  -1.5431  -1.4864  -1.4847  -1.4744  -1.4730  -1.4629  -1.4614
    -1.4579  -1.4499  -1.4492  -1.4012  -1.3920  -1.3831  -1.3809  -1.3790
    -1.3650  -1.3619  -1.3363  -1.3256  -1.3100  -1.3082  -1.3074  -1.3016
    -1.3000  -1.2902  -1.2872  -1.2679  -1.2662  -1.2440  -1.2249  -1.2158
    -1.2135  -1.1993  -1.1865  -1.1765  -1.1367  -1.1289  -1.1088  -1.1046
    -1.0976  -1.0746  -1.0243  -1.0223  -1.0218  -1.0202  -1.0165  -1.0117
    -1.0042  -0.9869  -0.9856  -0.9471  -0.9454  -0.9166  -0.9148  -0.9102
    -0.9093  -0.9024  -0.8867  -0.8854  -0.8845  -0.8820  -0.8801  -0.8470
    -0.8423  -0.8413  -0.8375  -0.8113  -0.8100  -0.8051  -0.7828  -0.7754
    -0.7719  -0.7285  -0.7222  -0.7176  -0.6860  -0.6775  -0.6669  -0.6668
    -0.6594  -0.6590  -0.6578  -0.6532  -0.6457  -0.6413  -0.6195  -0.6182
    -0.6154  -0.6143  -0.6115  -0.5762  -0.5756  -0.5667  -0.5626  -0.5485
    -0.5430  -0.5383  -0.5293  -0.4745  -0.4722  -0.4640  -0.4633  -0.4625
    -0.4608  -0.4553  -0.4382  -0.4346  -0.4282  -0.4277  -0.4264  -0.4220
    -0.3864  -0.3847  -0.3832  -0.3765  -0.3741  -0.3695  -0.3683  -0.3572
    -0.3515  -0.3494  -0.3421  -0.3072  -0.3055  -0.2982  -0.2944  -0.2932
    -0.2172  -0.2164  -0.2140  -0.2124  -0.2046  -0.2029  -0.1677  -0.1555
    -0.1546  -0.1306  -0.1231  -0.1117  -0.0033   0.0015   0.1012   0.5164
     0.5170   0.5194   0.5199   0.5766   0.5896   0.9690   0.9693   1.0109
     1.0134   1.1222   1.2028   1.3068   1.3222   1.5244   1.5501   2.1639
     2.1707   2.3243   2.3351   2.4540   2.4720   2.5650   2.5658   2.7194
     2.9559   2.9571   3.0809   3.2989   3.3134   3.3878   3.3905   3.4878
     3.5048   3.6818   3.6998   3.7610   3.9611   3.9628   4.0206   4.0312
     4.2804   4.2828   4.2979   4.5325   4.5716   4.5759   4.6198   4.9518
     4.9582   4.9839   5.0522   5.1198   5.2922   5.2936   5.3255   5.3761
     5.7496   5.8971   6.0747   6.0791   6.0815   6.1021   6.1529   6.1552
     6.2129   6.2617   6.2883   6.3119   6.3132   6.3180   6.3280   6.3669
     6.3760   6.4080   6.4576   6.5985   6.7156   6.7547   6.9263   6.9732
     7.0166   7.0234   7.0351

          k = 0.2500-0.4330-0.1111 (136853 PWs)   bands (ev):

   -19.2172  -7.0172  -6.1981  -5.8002  -5.7973  -5.1223  -4.7878  -4.7869
    -4.7510  -4.7482  -4.3877  -4.3861  -4.2885  -4.2882  -4.2741  -4.2528
    -4.2299  -4.1215  -4.1203  -4.0966  -4.0529  -4.0528  -3.9854  -3.9840
    -3.9810  -3.9776  -3.9557  -3.9520  -3.9488  -3.8836  -3.8789  -3.8484
    -3.8465  -3.8359  -3.8352  -3.8125  -3.8120  -3.7898  -3.7815  -3.7808
    -3.7571  -3.7028  -3.7022  -3.6559  -3.6529  -3.6017  -3.5952  -3.5600
    -3.5404  -3.5399  -3.5395  -3.5064  -3.4917  -3.4655  -3.4606  -3.4582
    -3.4570  -3.4520  -3.4272  -3.4185  -3.4123  -3.3565  -3.3545  -3.3445
    -3.3274  -3.3211  -3.2505  -3.2447  -3.2174  -3.2148  -3.1892  -3.1877
    -3.1751  -3.1566  -3.0992  -3.0971  -3.0812  -3.0795  -3.0292  -3.0244
    -3.0238  -2.9857  -2.9546  -2.9543  -2.9458  -2.9433  -2.9326  -2.9318
    -2.9245  -2.9238  -2.9142  -2.8731  -2.8365  -2.8340  -2.8214  -2.8206
    -2.7950  -2.7855  -2.7850  -2.7615  -2.7192  -2.7165  -2.7098  -2.6703
    -2.6631  -2.6528  -2.6504  -2.6233  -2.6227  -2.5929  -2.5561  -2.5557
    -2.5339  -2.5261  -2.5129  -2.5120  -2.4620  -2.4611  -2.4288  -2.4062
    -2.4059  -2.3820  -2.3817  -2.3702  -2.3696  -2.3596  -2.3378  -2.3368
    -2.2917  -2.2912  -2.2907  -2.2747  -2.2731  -2.2680  -2.2590  -2.2581
    -2.2567  -2.2561  -2.2496  -2.2383  -2.2362  -2.2299  -2.2011  -2.2010
    -2.1995  -2.1989  -2.1973  -2.1954  -2.1934  -2.1677  -2.1644  -2.1503
    -2.1499  -2.1321  -2.1309  -2.1219  -2.1214  -2.1205  -2.1196  -2.1015
    -2.0995  -2.0985  -2.0963  -2.0802  -2.0550  -2.0535  -2.0149  -2.0126
    -1.9894  -1.9881  -1.9617  -1.9599  -1.9338  -1.9331  -1.9170  -1.9114
    -1.8847  -1.8643  -1.8630  -1.8582  -1.8556  -1.8519  -1.8460  -1.8424
    -1.8182  -1.8110  -1.8022  -1.7470  -1.7433  -1.7407  -1.7389  -1.7376
    -1.7038  -1.6831  -1.6813  -1.6553  -1.6530  -1.5946  -1.5931  -1.5647
    -1.5474  -1.5431  -1.4864  -1.4847  -1.4744  -1.4730  -1.4629  -1.4614
    -1.4579  -1.4499  -1.4492  -1.4012  -1.3920  -1.3831  -1.3809  -1.3790
    -1.3650  -1.3619  -1.3363  -1.3256  -1.3100  -1.3082  -1.3074  -1.3016
    -1.3000  -1.2902  -1.2872  -1.2679  -1.2662  -1.2440  -1.2249  -1.2158
    -1.2135  -1.1993  -1.1865  -1.1765  -1.1367  -1.1289  -1.1088  -1.1046
    -1.0976  -1.0746  -1.0243  -1.0223  -1.0218  -1.0202  -1.0165  -1.0117
    -1.0042  -0.9869  -0.9856  -0.9471  -0.9454  -0.9166  -0.9148  -0.9102
    -0.9093  -0.9024  -0.8867  -0.8854  -0.8845  -0.8820  -0.8801  -0.8470
    -0.8423  -0.8413  -0.8375  -0.8113  -0.8100  -0.8051  -0.7828  -0.7754
    -0.7719  -0.7285  -0.7222  -0.7176  -0.6860  -0.6775  -0.6669  -0.6668
    -0.6594  -0.6590  -0.6578  -0.6532  -0.6457  -0.6413  -0.6195  -0.6182
    -0.6154  -0.6143  -0.6115  -0.5762  -0.5756  -0.5667  -0.5626  -0.5485
    -0.5430  -0.5383  -0.5293  -0.4745  -0.4722  -0.4640  -0.4633  -0.4625
    -0.4608  -0.4553  -0.4382  -0.4346  -0.4282  -0.4277  -0.4264  -0.4220
    -0.3864  -0.3847  -0.3832  -0.3765  -0.3741  -0.3695  -0.3683  -0.3572
    -0.3515  -0.3494  -0.3421  -0.3072  -0.3055  -0.2982  -0.2944  -0.2932
    -0.2172  -0.2164  -0.2140  -0.2124  -0.2046  -0.2029  -0.1677  -0.1555
    -0.1546  -0.1306  -0.1231  -0.1117  -0.0033   0.0015   0.1012   0.5164
     0.5170   0.5194   0.5199   0.5766   0.5896   0.9690   0.9693   1.0109
     1.0134   1.1222   1.2028   1.3068   1.3222   1.5244   1.5501   2.1639
     2.1707   2.3243   2.3351   2.4540   2.4720   2.5650   2.5658   2.7194
     2.9559   2.9571   3.0809   3.2989   3.3134   3.3878   3.3905   3.4878
     3.5048   3.6818   3.6998   3.7610   3.9611   3.9628   4.0206   4.0312
     4.2804   4.2828   4.2979   4.5325   4.5716   4.5759   4.6198   4.9518
     4.9582   4.9839   5.0522   5.1198   5.2922   5.2936   5.3255   5.3761
     5.7497   5.8971   6.0749   6.0793   6.0813   6.1018   6.1528   6.1552
     6.2128   6.2617   6.2884   6.3119   6.3131   6.3182   6.3280   6.3669
     6.3761   6.4076   6.4585   6.5995   6.7144   6.7548   6.9261   6.9730
     7.0162   7.0242   7.0344

          k = 0.5000 0.0000 0.1111 (136853 PWs)   bands (ev):

   -19.2172  -7.0172  -6.1981  -5.8003  -5.7972  -5.1223  -4.7882  -4.7865
    -4.7516  -4.7476  -4.3876  -4.3862  -4.2886  -4.2881  -4.2741  -4.2528
    -4.2299  -4.1215  -4.1202  -4.0967  -4.0530  -4.0528  -3.9852  -3.9840
    -3.9808  -3.9781  -3.9557  -3.9521  -3.9487  -3.8844  -3.8780  -3.8484
    -3.8465  -3.8358  -3.8354  -3.8126  -3.8119  -3.7898  -3.7817  -3.7806
    -3.7570  -3.7032  -3.7018  -3.6561  -3.6527  -3.6019  -3.5952  -3.5601
    -3.5404  -3.5396  -3.5392  -3.5066  -3.4917  -3.4655  -3.4608  -3.4581
    -3.4574  -3.4516  -3.4278  -3.4191  -3.4113  -3.3563  -3.3546  -3.3445
    -3.3276  -3.3208  -3.2511  -3.2441  -3.2179  -3.2143  -3.1886  -3.1883
    -3.1751  -3.1566  -3.0988  -3.0974  -3.0810  -3.0797  -3.0293  -3.0244
    -3.0238  -2.9856  -2.9555  -2.9534  -2.9451  -2.9440  -2.9324  -2.9313
    -2.9246  -2.9244  -2.9142  -2.8731  -2.8357  -2.8348  -2.8215  -2.8205
    -2.7950  -2.7855  -2.7850  -2.7615  -2.7181  -2.7177  -2.7098  -2.6704
    -2.6632  -2.6523  -2.6508  -2.6233  -2.6227  -2.5929  -2.5563  -2.5556
    -2.5338  -2.5261  -2.5129  -2.5121  -2.4618  -2.4613  -2.4287  -2.4062
    -2.4060  -2.3820  -2.3816  -2.3705  -2.3694  -2.3595  -2.3378  -2.3368
    -2.2921  -2.2910  -2.2905  -2.2746  -2.2731  -2.2680  -2.2590  -2.2581
    -2.2569  -2.2559  -2.2497  -2.2379  -2.2366  -2.2301  -2.2014  -2.2007
    -2.1995  -2.1988  -2.1974  -2.1952  -2.1935  -2.1677  -2.1643  -2.1503
    -2.1499  -2.1321  -2.1309  -2.1218  -2.1214  -2.1211  -2.1191  -2.1008
    -2.1000  -2.0980  -2.0971  -2.0801  -2.0547  -2.0538  -2.0150  -2.0125
    -1.9895  -1.9881  -1.9618  -1.9599  -1.9339  -1.9330  -1.9170  -1.9114
    -1.8848  -1.8643  -1.8631  -1.8584  -1.8553  -1.8522  -1.8459  -1.8420
    -1.8183  -1.8110  -1.8022  -1.7472  -1.7437  -1.7404  -1.7387  -1.7376
    -1.7041  -1.6830  -1.6814  -1.6553  -1.6531  -1.5943  -1.5934  -1.5647
    -1.5473  -1.5430  -1.4861  -1.4848  -1.4743  -1.4734  -1.4625  -1.4618
    -1.4579  -1.4496  -1.4493  -1.3992  -1.3926  -1.3835  -1.3811  -1.3789
    -1.3634  -1.3618  -1.3388  -1.3259  -1.3094  -1.3083  -1.3075  -1.3028
    -1.2998  -1.2904  -1.2868  -1.2676  -1.2666  -1.2415  -1.2257  -1.2146
    -1.2135  -1.2008  -1.1882  -1.1769  -1.1360  -1.1289  -1.1087  -1.1050
    -1.0965  -1.0746  -1.0243  -1.0222  -1.0220  -1.0202  -1.0163  -1.0116
    -1.0044  -0.9869  -0.9858  -0.9471  -0.9454  -0.9166  -0.9146  -0.9103
    -0.9094  -0.9022  -0.8865  -0.8853  -0.8844  -0.8821  -0.8805  -0.8472
    -0.8424  -0.8413  -0.8369  -0.8113  -0.8101  -0.8054  -0.7828  -0.7751
    -0.7722  -0.7286  -0.7225  -0.7172  -0.6859  -0.6776  -0.6668  -0.6667
    -0.6598  -0.6588  -0.6581  -0.6530  -0.6459  -0.6409  -0.6196  -0.6181
    -0.6154  -0.6146  -0.6112  -0.5763  -0.5755  -0.5672  -0.5624  -0.5484
    -0.5430  -0.5381  -0.5294  -0.4743  -0.4723  -0.4641  -0.4634  -0.4626
    -0.4606  -0.4554  -0.4384  -0.4344  -0.4283  -0.4276  -0.4264  -0.4221
    -0.3864  -0.3845  -0.3833  -0.3763  -0.3742  -0.3695  -0.3684  -0.3574
    -0.3513  -0.3493  -0.3421  -0.3072  -0.3056  -0.2982  -0.2944  -0.2932
    -0.2173  -0.2162  -0.2141  -0.2123  -0.2047  -0.2028  -0.1677  -0.1556
    -0.1546  -0.1302  -0.1231  -0.1120  -0.0034   0.0019   0.1013   0.5163
     0.5170   0.5194   0.5200   0.5758   0.5903   0.9687   0.9695   1.0105
     1.0139   1.1223   1.2029   1.3075   1.3218   1.5244   1.5499   2.1630
     2.1713   2.3237   2.3359   2.4531   2.4727   2.5648   2.5661   2.7194
     2.9560   2.9571   3.0809   3.2993   3.3130   3.3871   3.3912   3.4877
     3.5048   3.6816   3.6998   3.7609   3.9617   3.9623   4.0194   4.0327
     4.2806   4.2818   4.2987   4.5324   4.5708   4.5769   4.6199   4.9528
     4.9571   4.9839   5.0537   5.1203   5.2916   5.2942   5.3218   5.3753
     5.7635   5.8836   6.0764   6.0794   6.0825   6.1038   6.1527   6.1553
     6.2149   6.2619   6.2886   6.3111   6.3140   6.3172   6.3278   6.3684
     6.3756   6.4105   6.4432   6.6017   6.7082   6.7623   6.9281   6.9709
     7.0162   7.0245   7.0346

          k =-0.5000 0.0000 0.1111 (136853 PWs)   bands (ev):

   -19.2172  -7.0172  -6.1981  -5.8003  -5.7972  -5.1223  -4.7882  -4.7865
    -4.7516  -4.7476  -4.3876  -4.3862  -4.2886  -4.2881  -4.2741  -4.2528
    -4.2299  -4.1215  -4.1202  -4.0967  -4.0530  -4.0528  -3.9852  -3.9840
    -3.9808  -3.9781  -3.9557  -3.9521  -3.9487  -3.8844  -3.8780  -3.8484
    -3.8465  -3.8358  -3.8354  -3.8126  -3.8119  -3.7898  -3.7817  -3.7806
    -3.7570  -3.7032  -3.7018  -3.6561  -3.6527  -3.6019  -3.5952  -3.5601
    -3.5404  -3.5396  -3.5392  -3.5066  -3.4917  -3.4655  -3.4608  -3.4581
    -3.4574  -3.4516  -3.4278  -3.4191  -3.4113  -3.3563  -3.3546  -3.3445
    -3.3276  -3.3208  -3.2511  -3.2441  -3.2179  -3.2143  -3.1886  -3.1883
    -3.1751  -3.1566  -3.0988  -3.0974  -3.0810  -3.0797  -3.0293  -3.0244
    -3.0238  -2.9856  -2.9555  -2.9534  -2.9451  -2.9440  -2.9324  -2.9313
    -2.9246  -2.9244  -2.9142  -2.8731  -2.8357  -2.8348  -2.8215  -2.8205
    -2.7950  -2.7855  -2.7850  -2.7615  -2.7181  -2.7177  -2.7098  -2.6704
    -2.6632  -2.6523  -2.6508  -2.6233  -2.6227  -2.5929  -2.5563  -2.5556
    -2.5338  -2.5261  -2.5129  -2.5121  -2.4618  -2.4613  -2.4287  -2.4062
    -2.4060  -2.3820  -2.3816  -2.3705  -2.3694  -2.3595  -2.3378  -2.3368
    -2.2921  -2.2910  -2.2905  -2.2746  -2.2731  -2.2680  -2.2590  -2.2581
    -2.2569  -2.2559  -2.2497  -2.2379  -2.2366  -2.2301  -2.2014  -2.2007
    -2.1995  -2.1988  -2.1974  -2.1952  -2.1935  -2.1677  -2.1643  -2.1503
    -2.1499  -2.1321  -2.1309  -2.1218  -2.1214  -2.1211  -2.1191  -2.1008
    -2.1000  -2.0980  -2.0971  -2.0801  -2.0547  -2.0538  -2.0150  -2.0125
    -1.9895  -1.9881  -1.9618  -1.9599  -1.9339  -1.9330  -1.9170  -1.9114
    -1.8848  -1.8643  -1.8631  -1.8584  -1.8553  -1.8522  -1.8459  -1.8420
    -1.8183  -1.8110  -1.8022  -1.7472  -1.7437  -1.7404  -1.7387  -1.7376
    -1.7041  -1.6830  -1.6814  -1.6553  -1.6531  -1.5943  -1.5934  -1.5647
    -1.5473  -1.5430  -1.4861  -1.4848  -1.4743  -1.4734  -1.4625  -1.4618
    -1.4579  -1.4496  -1.4493  -1.3992  -1.3926  -1.3835  -1.3811  -1.3789
    -1.3634  -1.3618  -1.3388  -1.3259  -1.3094  -1.3083  -1.3075  -1.3028
    -1.2998  -1.2904  -1.2868  -1.2676  -1.2666  -1.2415  -1.2257  -1.2146
    -1.2135  -1.2008  -1.1882  -1.1769  -1.1360  -1.1289  -1.1087  -1.1050
    -1.0965  -1.0746  -1.0243  -1.0222  -1.0220  -1.0202  -1.0163  -1.0116
    -1.0044  -0.9869  -0.9858  -0.9471  -0.9454  -0.9166  -0.9146  -0.9103
    -0.9094  -0.9022  -0.8865  -0.8853  -0.8844  -0.8821  -0.8805  -0.8472
    -0.8424  -0.8413  -0.8369  -0.8113  -0.8101  -0.8054  -0.7828  -0.7751
    -0.7722  -0.7286  -0.7225  -0.7172  -0.6859  -0.6776  -0.6668  -0.6667
    -0.6598  -0.6588  -0.6581  -0.6530  -0.6459  -0.6409  -0.6196  -0.6181
    -0.6154  -0.6146  -0.6112  -0.5763  -0.5755  -0.5673  -0.5624  -0.5484
    -0.5430  -0.5381  -0.5294  -0.4743  -0.4723  -0.4641  -0.4634  -0.4626
    -0.4606  -0.4554  -0.4384  -0.4344  -0.4283  -0.4276  -0.4264  -0.4221
    -0.3864  -0.3845  -0.3833  -0.3763  -0.3742  -0.3695  -0.3684  -0.3574
    -0.3513  -0.3493  -0.3421  -0.3072  -0.3056  -0.2982  -0.2944  -0.2932
    -0.2173  -0.2162  -0.2141  -0.2123  -0.2047  -0.2028  -0.1677  -0.1556
    -0.1546  -0.1302  -0.1231  -0.1120  -0.0034   0.0019   0.1013   0.5163
     0.5170   0.5194   0.5200   0.5758   0.5903   0.9687   0.9695   1.0105
     1.0139   1.1223   1.2029   1.3075   1.3218   1.5244   1.5499   2.1630
     2.1713   2.3237   2.3359   2.4531   2.4727   2.5648   2.5661   2.7194
     2.9560   2.9571   3.0809   3.2993   3.3130   3.3871   3.3912   3.4877
     3.5048   3.6816   3.6998   3.7609   3.9617   3.9623   4.0194   4.0327
     4.2806   4.2818   4.2987   4.5324   4.5708   4.5769   4.6199   4.9528
     4.9571   4.9839   5.0537   5.1203   5.2916   5.2942   5.3218   5.3753
     5.7635   5.8836   6.0766   6.0798   6.0823   6.1037   6.1526   6.1554
     6.2149   6.2619   6.2887   6.3110   6.3139   6.3173   6.3278   6.3683
     6.3757   6.4098   6.4441   6.6010   6.7092   6.7617   6.9294   6.9704
     7.0160   7.0249   7.0341

          k =-0.2500 0.1443 0.1111 (136898 PWs)   bands (ev):

   -19.2172  -7.0172  -6.4081  -5.6160  -5.3261  -5.2658  -5.2655  -4.7273
    -4.7272  -4.5971  -4.5951  -4.4415  -4.4111  -4.3476  -4.3167  -4.3148
    -4.2807  -4.2804  -4.1517  -4.1100  -4.1098  -4.0509  -4.0314  -4.0295
    -3.9267  -3.9266  -3.8912  -3.8904  -3.8901  -3.8643  -3.8423  -3.8415
    -3.7421  -3.7347  -3.7345  -3.7150  -3.6994  -3.6970  -3.6864  -3.6849
    -3.6726  -3.6443  -3.6412  -3.6407  -3.6404  -3.6099  -3.6084  -3.5929
    -3.5904  -3.5800  -3.5493  -3.5331  -3.5212  -3.4966  -3.4877  -3.4819
    -3.4817  -3.4508  -3.4073  -3.4050  -3.3724  -3.3700  -3.3545  -3.3018
    -3.3012  -3.2866  -3.2799  -3.2554  -3.2551  -3.2544  -3.2502  -3.1010
    -3.0987  -3.0755  -3.0749  -3.0701  -3.0539  -3.0520  -3.0281  -3.0267
    -2.9780  -2.9767  -2.9618  -2.9608  -2.9406  -2.8930  -2.8926  -2.8730
    -2.8684  -2.8669  -2.8273  -2.8265  -2.8202  -2.8185  -2.8043  -2.8014
    -2.7644  -2.7637  -2.7424  -2.7423  -2.7391  -2.7377  -2.7346  -2.6592
    -2.6586  -2.6562  -2.6284  -2.6262  -2.5666  -2.5665  -2.5374  -2.5370
    -2.5240  -2.5230  -2.5174  -2.4886  -2.4885  -2.4783  -2.4612  -2.4364
    -2.4358  -2.4350  -2.4148  -2.4145  -2.4035  -2.4025  -2.4006  -2.3989
    -2.3909  -2.3448  -2.3131  -2.3128  -2.2968  -2.2832  -2.2768  -2.2766
    -2.2696  -2.2683  -2.2672  -2.2379  -2.2375  -2.2365  -2.2275  -2.2265
    -2.2106  -2.1834  -2.1826  -2.1822  -2.1814  -2.1787  -2.1352  -2.1041
    -2.1041  -2.1027  -2.0972  -2.0877  -2.0756  -2.0755  -2.0580  -2.0579
    -2.0251  -2.0235  -2.0231  -2.0048  -2.0039  -2.0038  -1.9709  -1.9707
    -1.9295  -1.9273  -1.9215  -1.9191  -1.9185  -1.9127  -1.9122  -1.9099
    -1.9090  -1.9040  -1.9025  -1.8865  -1.8859  -1.7599  -1.7596  -1.7270
    -1.7212  -1.7203  -1.7139  -1.7132  -1.6970  -1.6965  -1.6955  -1.6939
    -1.6903  -1.6682  -1.6624  -1.6620  -1.6542  -1.6486  -1.6449  -1.6255
    -1.6248  -1.5967  -1.5965  -1.5688  -1.5653  -1.5540  -1.5468  -1.5283
    -1.5267  -1.5247  -1.5067  -1.4939  -1.4932  -1.4866  -1.4864  -1.4618
    -1.4599  -1.4449  -1.4434  -1.4117  -1.4101  -1.4047  -1.3541  -1.3501
    -1.3429  -1.3377  -1.3331  -1.3105  -1.3079  -1.2781  -1.2753  -1.2746
    -1.2608  -1.2318  -1.2310  -1.2195  -1.2143  -1.2093  -1.1870  -1.1856
    -1.1660  -1.1559  -1.1535  -1.1505  -1.0910  -1.0903  -1.0787  -1.0766
    -1.0614  -1.0601  -1.0489  -1.0444  -1.0301  -1.0175  -0.9897  -0.9886
    -0.9767  -0.9466  -0.9405  -0.9370  -0.9275  -0.9272  -0.9256  -0.9215
    -0.9150  -0.9062  -0.8768  -0.8755  -0.8673  -0.8643  -0.8639  -0.8527
    -0.8398  -0.8229  -0.8152  -0.8009  -0.7932  -0.7063  -0.6935  -0.6880
    -0.6875  -0.6830  -0.6789  -0.6752  -0.6527  -0.6525  -0.6385  -0.6347
    -0.6228  -0.6199  -0.6134  -0.5942  -0.5913  -0.5881  -0.5826  -0.5101
    -0.5096  -0.4780  -0.4727  -0.4717  -0.4662  -0.4635  -0.4629  -0.4608
    -0.4512  -0.4466  -0.4305  -0.4082  -0.3932  -0.3751  -0.3732  -0.3638
    -0.3611  -0.3510  -0.3495  -0.3484  -0.3476  -0.3440  -0.3299  -0.3260
    -0.3225  -0.2948  -0.2936  -0.2906  -0.2805  -0.2796  -0.2611  -0.2295
    -0.2279  -0.2202  -0.2179  -0.1518  -0.1504  -0.1148  -0.1145  -0.0570
    -0.0553  -0.0551  -0.0393  -0.0270   0.1922   0.2097   0.5448   0.5450
     0.6307   0.6461   0.8276   0.8544   0.8633   0.9915   0.9953   1.4251
     1.4252   1.4432   1.7023   1.7349   1.7353   2.0033   2.0231   2.0900
     2.0916   2.1137   2.1285   2.3469   2.3475   2.4359   2.4369   2.5015
     2.5671   2.5907   2.7404   2.8391   3.2758   3.2781   3.2791   3.2888
     3.3351   3.3373   3.6288   3.6297   3.9043   3.9174   4.0025   4.3253
     4.3634   4.3726   4.5613   4.5792   4.6664   4.6722   4.7580   4.8753
     4.8837   4.9937   4.9969   5.0353   5.2988   5.3628   5.3740   5.5001
     5.5439   5.7538   5.7546   5.7672   5.7822   5.7843   5.8421   5.8450
     5.9032   6.0443   6.1859   6.2690   6.4449   6.4537   6.5860   6.5878
     6.5929   6.5975   6.6260   6.7505   6.8084   6.8385   6.8469   6.9843
     7.0188   7.0454   7.0691

          k =-0.2500-0.1443-0.1111 (136898 PWs)   bands (ev):

   -19.2172  -7.0172  -6.4081  -5.6160  -5.3261  -5.2658  -5.2656  -4.7272
    -4.7272  -4.5970  -4.5953  -4.4415  -4.4111  -4.3477  -4.3169  -4.3146
    -4.2806  -4.2804  -4.1517  -4.1100  -4.1098  -4.0508  -4.0316  -4.0295
    -3.9267  -3.9266  -3.8913  -3.8903  -3.8902  -3.8642  -3.8421  -3.8418
    -3.7421  -3.7347  -3.7344  -3.7149  -3.6994  -3.6970  -3.6866  -3.6848
    -3.6725  -3.6442  -3.6412  -3.6406  -3.6404  -3.6101  -3.6084  -3.5929
    -3.5903  -3.5798  -3.5496  -3.5330  -3.5213  -3.4967  -3.4875  -3.4819
    -3.4817  -3.4512  -3.4073  -3.4049  -3.3722  -3.3698  -3.3545  -3.3019
    -3.3013  -3.2864  -3.2799  -3.2553  -3.2550  -3.2547  -3.2505  -3.1009
    -3.0988  -3.0755  -3.0751  -3.0700  -3.0539  -3.0522  -3.0279  -3.0266
    -2.9781  -2.9768  -2.9618  -2.9608  -2.9405  -2.8929  -2.8926  -2.8729
    -2.8684  -2.8671  -2.8274  -2.8265  -2.8202  -2.8188  -2.8042  -2.8015
    -2.7641  -2.7635  -2.7427  -2.7420  -2.7390  -2.7378  -2.7345  -2.6591
    -2.6587  -2.6563  -2.6283  -2.6263  -2.5667  -2.5665  -2.5375  -2.5368
    -2.5238  -2.5229  -2.5174  -2.4886  -2.4883  -2.4784  -2.4610  -2.4364
    -2.4357  -2.4353  -2.4148  -2.4144  -2.4038  -2.4027  -2.4004  -2.3990
    -2.3909  -2.3447  -2.3132  -2.3130  -2.2967  -2.2833  -2.2769  -2.2765
    -2.2696  -2.2684  -2.2673  -2.2377  -2.2376  -2.2366  -2.2276  -2.2263
    -2.2105  -2.1836  -2.1825  -2.1817  -2.1815  -2.1789  -2.1354  -2.1043
    -2.1040  -2.1027  -2.0971  -2.0877  -2.0759  -2.0753  -2.0579  -2.0577
    -2.0250  -2.0234  -2.0230  -2.0048  -2.0043  -2.0038  -1.9709  -1.9703
    -1.9296  -1.9271  -1.9212  -1.9190  -1.9183  -1.9130  -1.9126  -1.9108
    -1.9084  -1.9041  -1.9021  -1.8867  -1.8858  -1.7608  -1.7590  -1.7262
    -1.7221  -1.7196  -1.7140  -1.7130  -1.6984  -1.6962  -1.6946  -1.6936
    -1.6899  -1.6682  -1.6645  -1.6614  -1.6533  -1.6488  -1.6441  -1.6265
    -1.6249  -1.5980  -1.5970  -1.5664  -1.5651  -1.5540  -1.5462  -1.5282
    -1.5266  -1.5245  -1.5067  -1.4948  -1.4933  -1.4875  -1.4862  -1.4606
    -1.4596  -1.4474  -1.4432  -1.4159  -1.4082  -1.4021  -1.3552  -1.3501
    -1.3410  -1.3374  -1.3324  -1.3108  -1.3076  -1.2839  -1.2751  -1.2729
    -1.2535  -1.2373  -1.2291  -1.2163  -1.2140  -1.2089  -1.1880  -1.1848
    -1.1737  -1.1560  -1.1538  -1.1480  -1.0912  -1.0892  -1.0770  -1.0764
    -1.0611  -1.0598  -1.0485  -1.0462  -1.0295  -1.0170  -0.9898  -0.9885
    -0.9773  -0.9485  -0.9393  -0.9376  -0.9276  -0.9273  -0.9261  -0.9205
    -0.9170  -0.9061  -0.8767  -0.8759  -0.8656  -0.8649  -0.8615  -0.8551
    -0.8394  -0.8203  -0.8163  -0.8000  -0.7936  -0.7065  -0.6934  -0.6878
    -0.6876  -0.6832  -0.6784  -0.6754  -0.6535  -0.6526  -0.6377  -0.6354
    -0.6226  -0.6206  -0.6135  -0.5933  -0.5912  -0.5892  -0.5825  -0.5101
    -0.5097  -0.4772  -0.4740  -0.4716  -0.4659  -0.4638  -0.4625  -0.4611
    -0.4511  -0.4459  -0.4310  -0.4081  -0.3934  -0.3747  -0.3736  -0.3636
    -0.3613  -0.3511  -0.3494  -0.3483  -0.3475  -0.3441  -0.3297  -0.3260
    -0.3227  -0.2946  -0.2939  -0.2901  -0.2806  -0.2795  -0.2611  -0.2294
    -0.2279  -0.2200  -0.2180  -0.1520  -0.1504  -0.1150  -0.1143  -0.0569
    -0.0557  -0.0546  -0.0400  -0.0270   0.1944   0.2082   0.5448   0.5450
     0.6326   0.6450   0.8253   0.8546   0.8638   0.9921   0.9947   1.4251
     1.4253   1.4429   1.7025   1.7350   1.7354   2.0060   2.0203   2.0905
     2.0914   2.1152   2.1269   2.3468   2.3479   2.4361   2.4366   2.5020
     2.5694   2.5876   2.7400   2.8399   3.2754   3.2782   3.2799   3.2879
     3.3364   3.3371   3.6289   3.6298   3.9057   3.9163   4.0043   4.3252
     4.3642   4.3715   4.5609   4.5711   4.6666   4.6708   4.7608   4.8747
     4.8815   4.9940   4.9978   5.0443   5.2986   5.3619   5.3743   5.5125
     5.5392   5.7508   5.7544   5.7607   5.7825   5.7850   5.8419   5.8469
     5.8811   5.9984   6.2498   6.2971   6.4400   6.4568   6.5842   6.5889
     6.5912   6.5990   6.6192   6.7116   6.8395   6.8444   6.8670   6.9741
     6.9975   7.0493   7.0683

          k = 0.2500 0.1443-0.1111 (136898 PWs)   bands (ev):

   -19.2172  -7.0172  -6.4081  -5.6160  -5.3261  -5.2658  -5.2656  -4.7272
    -4.7272  -4.5970  -4.5953  -4.4415  -4.4111  -4.3477  -4.3169  -4.3146
    -4.2806  -4.2804  -4.1517  -4.1100  -4.1098  -4.0508  -4.0316  -4.0295
    -3.9267  -3.9266  -3.8913  -3.8903  -3.8902  -3.8642  -3.8421  -3.8417
    -3.7421  -3.7347  -3.7344  -3.7149  -3.6994  -3.6970  -3.6866  -3.6848
    -3.6725  -3.6442  -3.6412  -3.6406  -3.6404  -3.6101  -3.6084  -3.5929
    -3.5903  -3.5798  -3.5496  -3.5330  -3.5213  -3.4967  -3.4875  -3.4819
    -3.4817  -3.4512  -3.4073  -3.4049  -3.3722  -3.3698  -3.3545  -3.3019
    -3.3013  -3.2864  -3.2799  -3.2553  -3.2550  -3.2547  -3.2505  -3.1009
    -3.0988  -3.0755  -3.0751  -3.0700  -3.0539  -3.0522  -3.0279  -3.0266
    -2.9781  -2.9768  -2.9618  -2.9608  -2.9405  -2.8929  -2.8926  -2.8729
    -2.8684  -2.8671  -2.8274  -2.8266  -2.8202  -2.8188  -2.8042  -2.8015
    -2.7641  -2.7635  -2.7427  -2.7420  -2.7390  -2.7378  -2.7345  -2.6591
    -2.6587  -2.6563  -2.6283  -2.6263  -2.5667  -2.5665  -2.5375  -2.5368
    -2.5238  -2.5229  -2.5174  -2.4886  -2.4883  -2.4784  -2.4610  -2.4364
    -2.4357  -2.4353  -2.4148  -2.4144  -2.4038  -2.4027  -2.4004  -2.3990
    -2.3909  -2.3447  -2.3132  -2.3130  -2.2967  -2.2833  -2.2769  -2.2765
    -2.2696  -2.2684  -2.2673  -2.2377  -2.2376  -2.2366  -2.2276  -2.2263
    -2.2105  -2.1836  -2.1825  -2.1817  -2.1815  -2.1789  -2.1354  -2.1043
    -2.1040  -2.1027  -2.0971  -2.0877  -2.0759  -2.0753  -2.0579  -2.0577
    -2.0250  -2.0233  -2.0230  -2.0048  -2.0043  -2.0038  -1.9709  -1.9703
    -1.9297  -1.9271  -1.9212  -1.9190  -1.9183  -1.9130  -1.9126  -1.9108
    -1.9084  -1.9041  -1.9021  -1.8867  -1.8858  -1.7608  -1.7590  -1.7262
    -1.7221  -1.7196  -1.7140  -1.7130  -1.6984  -1.6962  -1.6946  -1.6936
    -1.6900  -1.6682  -1.6645  -1.6614  -1.6533  -1.6488  -1.6441  -1.6265
    -1.6249  -1.5980  -1.5970  -1.5664  -1.5651  -1.5540  -1.5462  -1.5282
    -1.5266  -1.5245  -1.5067  -1.4948  -1.4933  -1.4875  -1.4862  -1.4606
    -1.4596  -1.4474  -1.4432  -1.4160  -1.4082  -1.4021  -1.3552  -1.3501
    -1.3410  -1.3374  -1.3324  -1.3108  -1.3076  -1.2839  -1.2751  -1.2729
    -1.2535  -1.2373  -1.2291  -1.2163  -1.2140  -1.2089  -1.1880  -1.1848
    -1.1737  -1.1560  -1.1538  -1.1480  -1.0912  -1.0892  -1.0770  -1.0764
    -1.0611  -1.0598  -1.0485  -1.0462  -1.0295  -1.0170  -0.9898  -0.9885
    -0.9773  -0.9485  -0.9393  -0.9376  -0.9276  -0.9273  -0.9261  -0.9205
    -0.9170  -0.9061  -0.8767  -0.8759  -0.8656  -0.8650  -0.8615  -0.8551
    -0.8394  -0.8203  -0.8163  -0.8000  -0.7936  -0.7065  -0.6934  -0.6878
    -0.6876  -0.6833  -0.6784  -0.6754  -0.6535  -0.6526  -0.6377  -0.6354
    -0.6226  -0.6206  -0.6135  -0.5933  -0.5912  -0.5892  -0.5825  -0.5101
    -0.5097  -0.4772  -0.4740  -0.4716  -0.4659  -0.4638  -0.4625  -0.4611
    -0.4511  -0.4459  -0.4310  -0.4081  -0.3934  -0.3747  -0.3736  -0.3636
    -0.3613  -0.3511  -0.3494  -0.3483  -0.3475  -0.3441  -0.3297  -0.3260
    -0.3227  -0.2946  -0.2939  -0.2901  -0.2806  -0.2795  -0.2611  -0.2294
    -0.2279  -0.2200  -0.2180  -0.1520  -0.1504  -0.1150  -0.1143  -0.0569
    -0.0557  -0.0546  -0.0400  -0.0270   0.1944   0.2082   0.5448   0.5450
     0.6326   0.6450   0.8253   0.8546   0.8638   0.9921   0.9947   1.4251
     1.4253   1.4429   1.7025   1.7350   1.7354   2.0060   2.0203   2.0905
     2.0914   2.1152   2.1269   2.3468   2.3479   2.4361   2.4366   2.5020
     2.5694   2.5876   2.7400   2.8399   3.2754   3.2782   3.2799   3.2879
     3.3364   3.3371   3.6289   3.6298   3.9057   3.9163   4.0043   4.3252
     4.3642   4.3715   4.5609   4.5711   4.6666   4.6708   4.7608   4.8747
     4.8815   4.9940   4.9978   5.0443   5.2986   5.3619   5.3743   5.5125
     5.5392   5.7509   5.7544   5.7603   5.7825   5.7850   5.8419   5.8469
     5.8812   5.9991   6.2497   6.2963   6.4396   6.4557   6.5832   6.5887
     6.5902   6.5990   6.6182   6.7134   6.8396   6.8444   6.8678   6.9773
     7.0019   7.0502   7.0705

          k = 0.0000-0.2887 0.1111 (136898 PWs)   bands (ev):

   -19.2172  -7.0172  -6.4081  -5.6160  -5.3261  -5.2657  -5.2656  -4.7272
    -4.7272  -4.5972  -4.5951  -4.4415  -4.4111  -4.3477  -4.3170  -4.3146
    -4.2806  -4.2804  -4.1517  -4.1100  -4.1098  -4.0508  -4.0316  -4.0294
    -3.9267  -3.9266  -3.8912  -3.8903  -3.8902  -3.8643  -3.8423  -3.8416
    -3.7420  -3.7347  -3.7345  -3.7149  -3.6995  -3.6970  -3.6866  -3.6848
    -3.6725  -3.6444  -3.6412  -3.6406  -3.6404  -3.6101  -3.6083  -3.5930
    -3.5903  -3.5796  -3.5497  -3.5329  -3.5213  -3.4969  -3.4875  -3.4818
    -3.4817  -3.4509  -3.4073  -3.4051  -3.3722  -3.3698  -3.3546  -3.3019
    -3.3013  -3.2864  -3.2798  -3.2553  -3.2550  -3.2546  -3.2505  -3.1009
    -3.0988  -3.0754  -3.0752  -3.0700  -3.0539  -3.0522  -3.0280  -3.0266
    -2.9781  -2.9768  -2.9617  -2.9608  -2.9404  -2.8929  -2.8926  -2.8730
    -2.8684  -2.8671  -2.8273  -2.8266  -2.8202  -2.8186  -2.8042  -2.8017
    -2.7642  -2.7635  -2.7427  -2.7420  -2.7390  -2.7377  -2.7345  -2.6591
    -2.6586  -2.6564  -2.6283  -2.6263  -2.5668  -2.5665  -2.5374  -2.5368
    -2.5238  -2.5229  -2.5174  -2.4886  -2.4883  -2.4784  -2.4609  -2.4364
    -2.4357  -2.4354  -2.4148  -2.4144  -2.4037  -2.4027  -2.4003  -2.3991
    -2.3909  -2.3447  -2.3133  -2.3130  -2.2967  -2.2833  -2.2770  -2.2766
    -2.2695  -2.2684  -2.2673  -2.2378  -2.2375  -2.2365  -2.2273  -2.2266
    -2.2105  -2.1831  -2.1828  -2.1823  -2.1812  -2.1789  -2.1354  -2.1042
    -2.1040  -2.1027  -2.0972  -2.0877  -2.0759  -2.0755  -2.0580  -2.0577
    -2.0250  -2.0234  -2.0230  -2.0048  -2.0043  -2.0038  -1.9709  -1.9702
    -1.9295  -1.9272  -1.9212  -1.9190  -1.9184  -1.9131  -1.9126  -1.9105
    -1.9085  -1.9040  -1.9021  -1.8867  -1.8857  -1.7609  -1.7590  -1.7260
    -1.7222  -1.7194  -1.7140  -1.7131  -1.6987  -1.6958  -1.6945  -1.6935
    -1.6899  -1.6682  -1.6648  -1.6612  -1.6535  -1.6488  -1.6440  -1.6267
    -1.6248  -1.5986  -1.5967  -1.5659  -1.5650  -1.5540  -1.5461  -1.5283
    -1.5266  -1.5246  -1.5067  -1.4950  -1.4934  -1.4875  -1.4861  -1.4603
    -1.4596  -1.4480  -1.4432  -1.4164  -1.4082  -1.4015  -1.3554  -1.3500
    -1.3406  -1.3374  -1.3320  -1.3108  -1.3076  -1.2849  -1.2752  -1.2729
    -1.2516  -1.2385  -1.2291  -1.2157  -1.2138  -1.2085  -1.1883  -1.1846
    -1.1757  -1.1558  -1.1538  -1.1479  -1.0911  -1.0889  -1.0770  -1.0757
    -1.0612  -1.0597  -1.0484  -1.0466  -1.0295  -1.0170  -0.9897  -0.9886
    -0.9775  -0.9488  -0.9390  -0.9377  -0.9277  -0.9273  -0.9262  -0.9200
    -0.9175  -0.9061  -0.8766  -0.8761  -0.8656  -0.8648  -0.8608  -0.8557
    -0.8394  -0.8195  -0.8163  -0.7998  -0.7938  -0.7066  -0.6934  -0.6878
    -0.6877  -0.6834  -0.6782  -0.6753  -0.6540  -0.6526  -0.6375  -0.6355
    -0.6225  -0.6208  -0.6135  -0.5931  -0.5910  -0.5896  -0.5825  -0.5101
    -0.5098  -0.4770  -0.4743  -0.4716  -0.4658  -0.4637  -0.4624  -0.4611
    -0.4512  -0.4458  -0.4311  -0.4081  -0.3934  -0.3746  -0.3737  -0.3636
    -0.3613  -0.3511  -0.3493  -0.3484  -0.3476  -0.3441  -0.3297  -0.3260
    -0.3227  -0.2946  -0.2938  -0.2902  -0.2805  -0.2796  -0.2611  -0.2294
    -0.2279  -0.2200  -0.2180  -0.1521  -0.1503  -0.1150  -0.1143  -0.0569
    -0.0558  -0.0545  -0.0402  -0.0269   0.1950   0.2080   0.5449   0.5450
     0.6331   0.6445   0.8250   0.8551   0.8633   0.9922   0.9945   1.4251
     1.4253   1.4428   1.7025   1.7351   1.7354   2.0067   2.0198   2.0906
     2.0913   2.1155   2.1265   2.3465   2.3483   2.4361   2.4366   2.5022
     2.5699   2.5867   2.7400   2.8400   3.2756   3.2778   3.2801   3.2879
     3.3364   3.3372   3.6292   3.6296   3.9062   3.9160   4.0045   4.3252
     4.3645   4.3712   4.5570   4.5731   4.6666   4.6706   4.7612   4.8746
     4.8807   4.9943   4.9978   5.0475   5.2987   5.3614   5.3743   5.5153
     5.5376   5.7482   5.7544   5.7593   5.7827   5.7854   5.8413   5.8479
     5.8772   5.9944   6.2456   6.3202   6.4371   6.4570   6.5834   6.5890
     6.5903   6.5992   6.6163   6.7012   6.8401   6.8439   6.8872   6.9709
     6.9941   7.0516   7.0653

          k = 0.0000 0.2887 0.1111 (136898 PWs)   bands (ev):

   -19.2172  -7.0172  -6.4081  -5.6160  -5.3261  -5.2657  -5.2656  -4.7272
    -4.7272  -4.5972  -4.5951  -4.4415  -4.4111  -4.3477  -4.3170  -4.3146
    -4.2806  -4.2804  -4.1517  -4.1100  -4.1098  -4.0508  -4.0316  -4.0294
    -3.9267  -3.9266  -3.8912  -3.8903  -3.8902  -3.8643  -3.8423  -3.8416
    -3.7420  -3.7347  -3.7345  -3.7149  -3.6995  -3.6970  -3.6866  -3.6848
    -3.6725  -3.6444  -3.6412  -3.6406  -3.6404  -3.6101  -3.6083  -3.5930
    -3.5903  -3.5796  -3.5497  -3.5329  -3.5213  -3.4969  -3.4875  -3.4818
    -3.4817  -3.4509  -3.4073  -3.4051  -3.3722  -3.3698  -3.3546  -3.3019
    -3.3013  -3.2864  -3.2798  -3.2553  -3.2550  -3.2546  -3.2505  -3.1009
    -3.0988  -3.0754  -3.0752  -3.0700  -3.0539  -3.0523  -3.0280  -3.0266
    -2.9781  -2.9768  -2.9617  -2.9608  -2.9404  -2.8929  -2.8926  -2.8729
    -2.8684  -2.8671  -2.8273  -2.8266  -2.8203  -2.8187  -2.8042  -2.8017
    -2.7642  -2.7635  -2.7427  -2.7420  -2.7390  -2.7377  -2.7345  -2.6591
    -2.6586  -2.6564  -2.6283  -2.6263  -2.5668  -2.5665  -2.5374  -2.5368
    -2.5238  -2.5229  -2.5174  -2.4886  -2.4883  -2.4784  -2.4609  -2.4364
    -2.4356  -2.4354  -2.4148  -2.4144  -2.4037  -2.4027  -2.4003  -2.3991
    -2.3909  -2.3447  -2.3133  -2.3130  -2.2967  -2.2833  -2.2770  -2.2765
    -2.2695  -2.2684  -2.2673  -2.2378  -2.2375  -2.2365  -2.2273  -2.2266
    -2.2105  -2.1831  -2.1828  -2.1823  -2.1812  -2.1789  -2.1354  -2.1042
    -2.1040  -2.1027  -2.0972  -2.0877  -2.0759  -2.0755  -2.0580  -2.0577
    -2.0250  -2.0234  -2.0230  -2.0048  -2.0043  -2.0038  -1.9709  -1.9702
    -1.9295  -1.9272  -1.9212  -1.9190  -1.9184  -1.9131  -1.9126  -1.9105
    -1.9085  -1.9040  -1.9021  -1.8867  -1.8857  -1.7609  -1.7590  -1.7260
    -1.7222  -1.7194  -1.7140  -1.7131  -1.6987  -1.6958  -1.6945  -1.6935
    -1.6899  -1.6682  -1.6648  -1.6612  -1.6535  -1.6488  -1.6440  -1.6267
    -1.6248  -1.5986  -1.5967  -1.5659  -1.5650  -1.5540  -1.5461  -1.5283
    -1.5266  -1.5246  -1.5067  -1.4950  -1.4934  -1.4875  -1.4861  -1.4603
    -1.4596  -1.4480  -1.4432  -1.4164  -1.4082  -1.4015  -1.3554  -1.3500
    -1.3406  -1.3374  -1.3320  -1.3108  -1.3076  -1.2849  -1.2752  -1.2729
    -1.2516  -1.2385  -1.2291  -1.2157  -1.2138  -1.2085  -1.1883  -1.1846
    -1.1757  -1.1558  -1.1538  -1.1479  -1.0911  -1.0888  -1.0770  -1.0757
    -1.0612  -1.0597  -1.0484  -1.0466  -1.0295  -1.0170  -0.9897  -0.9886
    -0.9775  -0.9488  -0.9390  -0.9377  -0.9277  -0.9273  -0.9262  -0.9200
    -0.9175  -0.9061  -0.8766  -0.8761  -0.8656  -0.8648  -0.8608  -0.8557
    -0.8394  -0.8195  -0.8163  -0.7998  -0.7938  -0.7066  -0.6934  -0.6878
    -0.6877  -0.6835  -0.6782  -0.6753  -0.6540  -0.6526  -0.6375  -0.6355
    -0.6225  -0.6208  -0.6135  -0.5931  -0.5910  -0.5896  -0.5824  -0.5101
    -0.5098  -0.4770  -0.4743  -0.4716  -0.4658  -0.4637  -0.4624  -0.4611
    -0.4512  -0.4458  -0.4311  -0.4081  -0.3934  -0.3746  -0.3737  -0.3636
    -0.3613  -0.3511  -0.3493  -0.3484  -0.3475  -0.3441  -0.3297  -0.3260
    -0.3227  -0.2946  -0.2938  -0.2902  -0.2805  -0.2796  -0.2611  -0.2294
    -0.2279  -0.2200  -0.2180  -0.1521  -0.1503  -0.1150  -0.1143  -0.0569
    -0.0558  -0.0545  -0.0402  -0.0270   0.1950   0.2080   0.5449   0.5450
     0.6331   0.6445   0.8250   0.8551   0.8633   0.9922   0.9945   1.4251
     1.4253   1.4428   1.7025   1.7351   1.7354   2.0067   2.0198   2.0906
     2.0913   2.1155   2.1265   2.3465   2.3483   2.4361   2.4366   2.5022
     2.5699   2.5867   2.7400   2.8400   3.2756   3.2778   3.2801   3.2879
     3.3364   3.3372   3.6292   3.6296   3.9062   3.9160   4.0045   4.3252
     4.3645   4.3712   4.5570   4.5731   4.6666   4.6706   4.7612   4.8746
     4.8807   4.9943   4.9978   5.0475   5.2987   5.3614   5.3743   5.5153
     5.5376   5.7486   5.7544   5.7590   5.7827   5.7855   5.8413   5.8479
     5.8772   5.9943   6.2454   6.3199   6.4380   6.4562   6.5824   6.5887
     6.5897   6.5992   6.6157   6.6995   6.8401   6.8439   6.8885   6.9737
     6.9994   7.0522   7.0668

     the Fermi energy is     1.5688 ev

!    total energy              =   -6604.43613827 Ry
     Harris-Foulkes estimate   =   -6604.43613826 Ry
     estimated scf accuracy    <          2.9E-09 Ry

     The total energy is the sum of the following terms:

     one-electron contribution =  -48654.23045534 Ry
     hartree contribution      =   24831.60932875 Ry
     xc contribution           =   -3204.96896990 Ry
     ewald contribution        =   20423.15111428 Ry
     smearing contrib. (-TS)   =       0.00284394 Ry

     convergence has been achieved in  25 iterations

     Writing output data file 8468861.save

     init_run     :    120.54s CPU    131.23s WALL (       1 calls)
     electrons    :   7543.94s CPU   8074.33s WALL (       1 calls)

     Called by init_run:
     wfcinit      :     96.86s CPU    105.90s WALL (       1 calls)
     potinit      :      7.25s CPU      7.64s WALL (       1 calls)

     Called by electrons:
     c_bands      :   6626.91s CPU   7050.82s WALL (      26 calls)
     sum_band     :    719.58s CPU    812.64s WALL (      26 calls)
     v_of_rho     :     61.08s CPU     69.95s WALL (      26 calls)
     newd         :    134.41s CPU    137.44s WALL (      26 calls)
     mix_rho      :      1.59s CPU      1.96s WALL (      26 calls)
     vdW_energy   :      7.62s CPU      8.11s WALL (      26 calls)
     vdW_ffts     :     26.25s CPU     30.76s WALL (      52 calls)
     vdW_v        :      7.51s CPU      8.26s WALL (      26 calls)

     Called by c_bands:
     init_us_2    :     12.04s CPU     12.35s WALL (     636 calls)
     cegterg      :   6540.38s CPU   6959.20s WALL (     312 calls)

     Called by *egterg:
     h_psi        :   2397.91s CPU   2780.26s WALL (    1791 calls)
     s_psi        :    436.82s CPU    439.41s WALL (    1791 calls)
     g_psi        :      6.17s CPU      6.17s WALL (    1467 calls)
     cdiaghg      :   2396.97s CPU   2404.21s WALL (    1767 calls)

     Called by h_psi:
     add_vuspsi   :    437.80s CPU    440.18s WALL (    1791 calls)

     General routines
     calbec       :    601.23s CPU    603.69s WALL (    2103 calls)
     fft          :     50.60s CPU     59.28s WALL (    1716 calls)
     ffts         :      0.74s CPU      0.98s WALL (      52 calls)
     fftw         :   1672.98s CPU   2093.34s WALL (  750856 calls)
     interpolate  :      2.17s CPU      2.81s WALL (      52 calls)
     davcio       :      0.00s CPU      0.17s WALL (      12 calls)

     Parallel routines
     fft_scatter  :    973.95s CPU   1240.26s WALL (  752624 calls)

     PWSCF        :     2h 8m CPU        2h17m WALL


   This run was terminated on:  21:17:27  24Jun2015            

=------------------------------------------------------------------------------=
   JOB DONE.
=------------------------------------------------------------------------------=
