Setting SGE environment for SCC

     Program PWSCF v.5.1.2 starts on 24Jun2015 at 23: 6:43 

     This program is part of the open-source Quantum ESPRESSO suite
     for quantum simulation of materials; please cite
         "P. Giannozzi et al., J. Phys.:Condens. Matter 21 395502 (2009);
          URL http://www.quantum-espresso.org", 
     in publications or presentations arising from this work. More details at
     http://www.quantum-espresso.org/quote

     Parallel version (MPI), running on    32 processors
     R & G space division:  proc/nbgrp/npool/nimage =      32
     Reading input from top.O1.Au50.d.3.0.phi.0.psi.180.in
Warning: card &IONS ignored
Warning: card / ignored
Warning: card &CELL ignored
Warning: card / ignored

     Current dimensions of program PWSCF are:
     Max number of different atomic species (ntypx) = 10
     Max number of k-points (npk) =  40000
     Max angular momentum in pseudopotentials (lmaxx) =  3

     IMPORTANT: XC functional enforced from input :
     Exchange-correlation      = VDW-DF ( 1  4  4  0 1 0)
     Any further DFT definition will be discarded
     Please, verify this is what you really want


     Subspace diagonalization in iterative solution of the eigenvalue problem:
     a serial algorithm will be used


     Parallelization info
     --------------------
     sticks:   dense  smooth     PW     G-vecs:    dense   smooth      PW
     Min         445     223     58                96775    34191    4534
     Max         446     224     59                96790    34246    4540
     Sum       14269    7147   1867              3097177  1095093  145167


     Title: 
     top.O1.Au50.d.3.0.phi.0.psi.180                                            


     bravais-lattice index     =            4
     lattice parameter (alat)  =      22.7436  a.u.
     unit-cell volume          =   22924.1508 (a.u.)^3
     number of atoms/cell      =           67
     number of atomic types    =            3
     number of electrons       =       712.00
     number of Kohn-Sham states=          427
     kinetic-energy cutoff     =      50.0000  Ry
     charge density cutoff     =     400.0000  Ry
     convergence threshold     =      1.0E-08
     mixing beta               =       0.7000
     number of iterations used =            8  plain     mixing
     Exchange-correlation      = VDW-DF ( 1  4  4  0 1 0)

     celldm(1)=  22.743643  celldm(2)=   0.000000  celldm(3)=   2.250000
     celldm(4)=   0.000000  celldm(5)=   0.000000  celldm(6)=   0.000000

     crystal axes: (cart. coord. in units of alat)
               a(1) = (   1.000000   0.000000   0.000000 )  
               a(2) = (  -0.500000   0.866025   0.000000 )  
               a(3) = (   0.000000   0.000000   2.250000 )  

     reciprocal axes: (cart. coord. in units 2 pi/alat)
               b(1) = (  1.000000  0.577350 -0.000000 )  
               b(2) = (  0.000000  1.154701  0.000000 )  
               b(3) = (  0.000000 -0.000000  0.444444 )  


     PseudoPot. # 1 for Au read from file:
     /home/scc/andrejb/qe/pseudo/Au.pbe-nd-van.UPF
     MD5 check sum: 458681b50f36d87ef23c61b04bba420a
     Pseudo is Ultrasoft + core correction, Zval = 11.0
     Generated by new atomic code, or converted to UPF format
     Using radial grid of  985 points,  3 beta functions with: 
                l(1) =   1
                l(2) =   2
                l(3) =   2
     Q(r) pseudized with  8 coefficients,  rinner =    1.100   1.100   1.100
                                                       1.100   1.100

     PseudoPot. # 2 for H  read from file:
     /home/scc/andrejb/qe/pseudo/H.pbe-van_ak.UPF
     MD5 check sum: 403db7282739603aa925980fa9b8608d
     Pseudo is Ultrasoft, Zval =  1.0
     Generated by new atomic code, or converted to UPF format
     Using radial grid of  615 points,  1 beta functions with: 
                l(1) =   0
     Q(r) pseudized with  8 coefficients,  rinner =    0.800

     PseudoPot. # 3 for O  read from file:
     /home/scc/andrejb/qe/pseudo/O.pbe-van_ak.UPF
     MD5 check sum: 4b8c549914a63cae506c6ff22b5af4fe
     Pseudo is Ultrasoft, Zval =  6.0
     Generated by new atomic code, or converted to UPF format
     Using radial grid of  737 points,  4 beta functions with: 
                l(1) =   0
                l(2) =   0
                l(3) =   1
                l(4) =   1
     Q(r) pseudized with  8 coefficients,  rinner =    0.800   0.800   0.800


     vdW kernel table read from file vdW_kernel_table
     MD5 check sum: 48e77a2e26edf626eeb0eaa751ad5cac

     atomic species   valence    mass     pseudopotential
        Au            11.00   196.96657     Au( 1.00)
        H              1.00     1.01000     H ( 1.00)
        O              6.00    16.00000     O ( 1.00)

     No symmetry found



   Cartesian axes

     site n.     atom                  positions (alat units)
         1           O   tau(   1) = (   0.4790780   0.3968269   0.8622611  )
         2           H   tau(   2) = (   0.4291446   0.4383745   0.8140075  )
         3           H   tau(   3) = (   0.5274974   0.3565200   0.8115004  )
         4           Au  tau(   4) = (   0.3540481   0.6132292   0.0000000  )
         5           Au  tau(   5) = (   0.4790062   0.3967954   0.0000000  )
         6           Au  tau(   6) = (   0.6039644   0.1803616   0.0000000  )
         7           Au  tau(   7) = (   0.7289225  -0.0360723   0.0000000  )
         8           Au  tau(   8) = (   0.1041318   0.6132292   0.0000000  )
         9           Au  tau(   9) = (   0.2290899   0.3967954   0.0000000  )
        10           Au  tau(  10) = (   0.3540481   0.1803616   0.0000000  )
        11           Au  tau(  11) = (   0.4790062  -0.0360723   0.0000000  )
        12           Au  tau(  12) = (  -0.1457845   0.6132292   0.0000000  )
        13           Au  tau(  13) = (  -0.0208264   0.3967954   0.0000000  )
        14           Au  tau(  14) = (   0.1041318   0.1803616   0.0000000  )
        15           Au  tau(  15) = (   0.2290899  -0.0360723   0.0000000  )
        16           Au  tau(  16) = (  -0.3957008   0.6132292   0.0000000  )
        17           Au  tau(  17) = (  -0.2707426   0.3967954   0.0000000  )
        18           Au  tau(  18) = (  -0.1457845   0.1803616   0.0000000  )
        19           Au  tau(  19) = (  -0.0208264  -0.0360723   0.0000000  )
        20           Au  tau(  20) = (   0.4790062   0.6853738   0.2040557  )
        21           Au  tau(  21) = (   0.6039644   0.4689400   0.2040557  )
        22           Au  tau(  22) = (   0.7289225   0.2525062   0.2040557  )
        23           Au  tau(  23) = (   0.8538806   0.0360723   0.2040557  )
        24           Au  tau(  24) = (   0.2290899   0.6853738   0.2040557  )
        25           Au  tau(  25) = (   0.3540481   0.4689400   0.2040557  )
        26           Au  tau(  26) = (   0.4790062   0.2525062   0.2040557  )
        27           Au  tau(  27) = (   0.6039644   0.0360723   0.2040557  )
        28           Au  tau(  28) = (  -0.0208264   0.6853738   0.2040557  )
        29           Au  tau(  29) = (   0.1041318   0.4689400   0.2040557  )
        30           Au  tau(  30) = (   0.2290899   0.2525062   0.2040557  )
        31           Au  tau(  31) = (   0.3540481   0.0360723   0.2040557  )
        32           Au  tau(  32) = (  -0.2707426   0.6853738   0.2040557  )
        33           Au  tau(  33) = (  -0.1457845   0.4689400   0.2040557  )
        34           Au  tau(  34) = (  -0.0208264   0.2525062   0.2040557  )
        35           Au  tau(  35) = (   0.1041318   0.0360723   0.2040557  )
        36           Au  tau(  36) = (   0.3541162   0.7576593   0.4066483  )
        37           Au  tau(  37) = (   0.4791000   0.5411421   0.4066696  )
        38           Au  tau(  38) = (   0.6040570   0.3246862   0.4066618  )
        39           Au  tau(  39) = (   0.7290270   0.1081684   0.4066530  )
        40           Au  tau(  40) = (   0.1041162   0.7576236   0.4066247  )
        41           Au  tau(  41) = (   0.2291001   0.5411062   0.4066455  )
        42           Au  tau(  42) = (   0.3540567   0.3246505   0.4066380  )
        43           Au  tau(  43) = (   0.4790276   0.1081324   0.4066292  )
        44           Au  tau(  44) = (  -0.1458201   0.7576104   0.4066225  )
        45           Au  tau(  45) = (  -0.0208365   0.5410930   0.4066438  )
        46           Au  tau(  46) = (   0.1041202   0.3246372   0.4066359  )
        47           Au  tau(  47) = (   0.2290908   0.1081193   0.4066273  )
        48           Au  tau(  48) = (  -0.3958167   0.7575791   0.4065812  )
        49           Au  tau(  49) = (  -0.2708328   0.5410617   0.4066025  )
        50           Au  tau(  50) = (  -0.1458763   0.3246061   0.4065947  )
        51           Au  tau(  51) = (  -0.0209056   0.1080882   0.4065858  )
        52           Au  tau(  52) = (   0.3541084   0.6133344   0.6129762  )
        53           Au  tau(  53) = (   0.4790780   0.3968269   0.6129968  )
        54           Au  tau(  54) = (   0.6040356   0.1803811   0.6129859  )
        55           Au  tau(  55) = (   0.7290165  -0.0361221   0.6129385  )
        56           Au  tau(  56) = (   0.1041243   0.6133091   0.6130023  )
        57           Au  tau(  57) = (   0.2290941   0.3968013   0.6130241  )
        58           Au  tau(  58) = (   0.3540515   0.1803552   0.6130121  )
        59           Au  tau(  59) = (   0.4790323  -0.0361475   0.6129659  )
        60           Au  tau(  60) = (  -0.1458030   0.6133014   0.6129980  )
        61           Au  tau(  61) = (  -0.0208339   0.3967936   0.6130189  )
        62           Au  tau(  62) = (   0.1041239   0.1803477   0.6130083  )
        63           Au  tau(  63) = (   0.2291046  -0.0361554   0.6129607  )
        64           Au  tau(  64) = (  -0.3957908   0.6132739   0.6129471  )
        65           Au  tau(  65) = (  -0.2708208   0.3967658   0.6129688  )
        66           Au  tau(  66) = (  -0.1458636   0.1803200   0.6129569  )
        67           Au  tau(  67) = (  -0.0208823  -0.0361826   0.6129110  )

     number of k points=    12  Marzari-Vanderbilt smearing, width (Ry)=  0.0200
                       cart. coord. in units 2pi/alat
        k(    1) = (   0.2500000   0.4330127   0.1111111), wk =   0.1666667
        k(    2) = (   0.2500000  -0.1443376   0.1111111), wk =   0.1666667
        k(    3) = (  -0.2500000  -0.4330127   0.1111111), wk =   0.1666667
        k(    4) = (  -0.2500000   0.4330127  -0.1111111), wk =   0.1666667
        k(    5) = (   0.2500000  -0.4330127  -0.1111111), wk =   0.1666667
        k(    6) = (   0.5000000   0.0000000   0.1111111), wk =   0.1666667
        k(    7) = (  -0.5000000   0.0000000   0.1111111), wk =   0.1666667
        k(    8) = (  -0.2500000   0.1443376   0.1111111), wk =   0.1666667
        k(    9) = (  -0.2500000  -0.1443376  -0.1111111), wk =   0.1666667
        k(   10) = (   0.2500000   0.1443376  -0.1111111), wk =   0.1666667
        k(   11) = (   0.0000000  -0.2886751   0.1111111), wk =   0.1666667
        k(   12) = (   0.0000000   0.2886751   0.1111111), wk =   0.1666667

     Dense  grid:  3097177 G-vectors     FFT dimensions: ( 150, 150, 360)

     Smooth grid:  1095093 G-vectors     FFT dimensions: ( 108, 108, 240)

     Largest allocated arrays     est. size (Mb)     dimensions
        Kohn-Sham Wavefunctions        28.01 Mb     (    4299,  427)
        NL pseudopotentials            55.23 Mb     (    4299,  842)
        Each V/rho on FFT grid          4.12 Mb     (  270000)
        Each G-vector array             0.74 Mb     (   96788)
        G-vector shells                 0.16 Mb     (   21404)
     Largest temporary arrays     est. size (Mb)     dimensions
        Auxiliary wavefunctions       112.04 Mb     (    4299, 1708)
        Each subspace H/S matrix       44.51 Mb     (    1708, 1708)
        Each <psi_i|beta_j> matrix      5.49 Mb     (     842,  427)
        Arrays for rho mixing          32.96 Mb     (  270000,    8)

     Initial potential from superposition of free atoms
     Check: negative starting charge=   -1.730401

     starting charge  711.25682, renormalised to  712.00000

     negative rho (up, down):  1.732E+00 0.000E+00


     ************************************************************************
     *
     * You are using vdW-DF for exchange-correlation in this calculation.
     * Please cite the following three references that made this development
     * possible:
     *
     *   M. Dion, H. Rydberg, E. Schroder, D. C. Langreth, and
     *   B. I. Lundqvist, Phys. Rev. Lett. 92, 246401 (2004).
     *
     *   T. Thonhauser, V. R. Cooper, S. Li, A. Puzder, P. Hyldgaard, and
     *   D. C. Langreth, Phys. Rev. B 76, 125112 (2007).
     *
     *   G. Roman-Perez and J. M. Soler, Phys. Rev. Lett. 103, 096102 (2009).
     *
     *
     * If you are using vdW-DF2, please also cite:
     *
     *   K. Lee, E. D. Murray, L. Kong, B. I. Lundqvist, and
     *   D. C. Langreth, Phys. Rev. B 82, 081101(R) (2010).
     *
     *
     * If you are calculating the stress with vdW-DF, please also cite:
     *
     *   R. Sabatini, E. Kucukbenli, B. Kolb, T. Thonhauser, and
     *   S. de Gironcoli, J. Phys.: Condens. Matter 24, 424209 (2012).
     *
     ************************************************************************

     Carrying out vdW-DF run using the following parameters:

     Nqs =      20    Nr_points =    1024   r_max =   100.000
     q_mesh =
               0.00001000     0.04494208     0.09755937     0.15916263
               0.23128650     0.31572767     0.41458969     0.53033537
               0.66584808     0.82450364     1.01025438     1.22772762
               1.48234092     1.78043706     2.12944203     2.53805004
               3.01644009     3.57652955     4.23227104     5.00000000

     Gradients computed in reciprocal space

     ************************************************************************


     Starting wfc are  582 randomized atomic wfcs

     total cpu time spent up to now is      144.4 secs

     Self-consistent Calculation

     iteration #  1     ecut=    50.00 Ry     beta=0.70
     Davidson diagonalization with overlap
     ethr =  1.00E-02,  avg # of iterations =  3.0

     Threshold (ethr) on eigenvalues was too large:
     Diagonalizing with lowered threshold

     Davidson diagonalization with overlap
     ethr =  3.37E-04,  avg # of iterations =  3.3

     negative rho (up, down):  1.727E+00 0.000E+00

     total cpu time spent up to now is      676.0 secs

     total energy              =   -6602.81889466 Ry
     Harris-Foulkes estimate   =   -6605.00864209 Ry
     estimated scf accuracy    <       2.75057953 Ry

     iteration #  2     ecut=    50.00 Ry     beta=0.70
     Davidson diagonalization with overlap
     ethr =  3.86E-04,  avg # of iterations = 11.6

     negative rho (up, down):  1.727E+00 0.000E+00

     total cpu time spent up to now is     1567.3 secs

     total energy              =   -6597.14290290 Ry
     Harris-Foulkes estimate   =   -6609.94031361 Ry
     estimated scf accuracy    <      70.31081090 Ry

     iteration #  3     ecut=    50.00 Ry     beta=0.70
     Davidson diagonalization with overlap
     ethr =  3.86E-04,  avg # of iterations =  6.0

     negative rho (up, down):  1.737E+00 0.000E+00

     total cpu time spent up to now is     2119.0 secs

     total energy              =   -6603.05237294 Ry
     Harris-Foulkes estimate   =   -6605.03472885 Ry
     estimated scf accuracy    <       9.38287255 Ry

     iteration #  4     ecut=    50.00 Ry     beta=0.70
     Davidson diagonalization with overlap
     ethr =  3.86E-04,  avg # of iterations =  5.9

     negative rho (up, down):  1.738E+00 0.000E+00

     total cpu time spent up to now is     2452.3 secs

     total energy              =   -6603.46884760 Ry
     Harris-Foulkes estimate   =   -6605.20388597 Ry
     estimated scf accuracy    <      16.23706051 Ry

     iteration #  5     ecut=    50.00 Ry     beta=0.70
     Davidson diagonalization with overlap
     ethr =  3.86E-04,  avg # of iterations =  7.8

     negative rho (up, down):  1.747E+00 0.000E+00

     total cpu time spent up to now is     2806.0 secs

     total energy              =   -6604.30331540 Ry
     Harris-Foulkes estimate   =   -6604.63859952 Ry
     estimated scf accuracy    <       2.30472010 Ry

     iteration #  6     ecut=    50.00 Ry     beta=0.70
     Davidson diagonalization with overlap
     ethr =  3.24E-04,  avg # of iterations =  2.8

     negative rho (up, down):  1.752E+00 0.000E+00

     total cpu time spent up to now is     3049.0 secs

     total energy              =   -6604.41775216 Ry
     Harris-Foulkes estimate   =   -6604.46299379 Ry
     estimated scf accuracy    <       0.14659852 Ry

     iteration #  7     ecut=    50.00 Ry     beta=0.70
     Davidson diagonalization with overlap
     c_bands:  1 eigenvalues not converged
     ethr =  2.06E-05,  avg # of iterations = 11.3

     negative rho (up, down):  1.754E+00 0.000E+00

     total cpu time spent up to now is     3477.0 secs

     total energy              =   -6604.42313272 Ry
     Harris-Foulkes estimate   =   -6604.45184860 Ry
     estimated scf accuracy    <       0.13108019 Ry

     iteration #  8     ecut=    50.00 Ry     beta=0.70
     Davidson diagonalization with overlap
     ethr =  1.84E-05,  avg # of iterations =  3.3

     negative rho (up, down):  1.755E+00 0.000E+00

     total cpu time spent up to now is     3743.9 secs

     total energy              =   -6604.42588534 Ry
     Harris-Foulkes estimate   =   -6604.43963998 Ry
     estimated scf accuracy    <       0.05452092 Ry

     iteration #  9     ecut=    50.00 Ry     beta=0.70
     Davidson diagonalization with overlap
     ethr =  7.66E-06,  avg # of iterations =  5.6

     negative rho (up, down):  1.756E+00 0.000E+00

     total cpu time spent up to now is     4053.5 secs

     total energy              =   -6604.42555870 Ry
     Harris-Foulkes estimate   =   -6604.43185264 Ry
     estimated scf accuracy    <       0.02403176 Ry

     iteration # 10     ecut=    50.00 Ry     beta=0.70
     Davidson diagonalization with overlap
     ethr =  3.38E-06,  avg # of iterations =  5.3

     negative rho (up, down):  1.757E+00 0.000E+00

     total cpu time spent up to now is     4362.5 secs

     total energy              =   -6604.42497062 Ry
     Harris-Foulkes estimate   =   -6604.42788052 Ry
     estimated scf accuracy    <       0.01106220 Ry

     iteration # 11     ecut=    50.00 Ry     beta=0.70
     Davidson diagonalization with overlap
     ethr =  1.55E-06,  avg # of iterations =  5.8

     negative rho (up, down):  1.757E+00 0.000E+00

     total cpu time spent up to now is     4673.5 secs

     total energy              =   -6604.42467897 Ry
     Harris-Foulkes estimate   =   -6604.42615615 Ry
     estimated scf accuracy    <       0.00596972 Ry

     iteration # 12     ecut=    50.00 Ry     beta=0.70
     Davidson diagonalization with overlap
     ethr =  8.38E-07,  avg # of iterations =  5.3

     negative rho (up, down):  1.758E+00 0.000E+00

     total cpu time spent up to now is     4964.8 secs

     total energy              =   -6604.42450971 Ry
     Harris-Foulkes estimate   =   -6604.42520832 Ry
     estimated scf accuracy    <       0.00132187 Ry

     iteration # 13     ecut=    50.00 Ry     beta=0.70
     Davidson diagonalization with overlap
     ethr =  1.86E-07,  avg # of iterations =  6.1

     negative rho (up, down):  1.757E+00 0.000E+00

     total cpu time spent up to now is     5295.0 secs

     total energy              =   -6604.42474930 Ry
     Harris-Foulkes estimate   =   -6604.42485214 Ry
     estimated scf accuracy    <       0.00026517 Ry

     iteration # 14     ecut=    50.00 Ry     beta=0.70
     Davidson diagonalization with overlap
     ethr =  3.72E-08,  avg # of iterations =  2.0

     negative rho (up, down):  1.757E+00 0.000E+00

     total cpu time spent up to now is     5557.1 secs

     total energy              =   -6604.42478071 Ry
     Harris-Foulkes estimate   =   -6604.42483280 Ry
     estimated scf accuracy    <       0.00021306 Ry

     iteration # 15     ecut=    50.00 Ry     beta=0.70
     Davidson diagonalization with overlap
     ethr =  2.99E-08,  avg # of iterations =  2.0

     negative rho (up, down):  1.757E+00 0.000E+00

     total cpu time spent up to now is     5803.4 secs

     total energy              =   -6604.42479354 Ry
     Harris-Foulkes estimate   =   -6604.42482699 Ry
     estimated scf accuracy    <       0.00028350 Ry

     iteration # 16     ecut=    50.00 Ry     beta=0.70
     Davidson diagonalization with overlap
     ethr =  2.99E-08,  avg # of iterations =  2.0

     negative rho (up, down):  1.757E+00 0.000E+00

     total cpu time spent up to now is     6049.4 secs

     total energy              =   -6604.42480876 Ry
     Harris-Foulkes estimate   =   -6604.42481386 Ry
     estimated scf accuracy    <       0.00002155 Ry

     iteration # 17     ecut=    50.00 Ry     beta=0.70
     Davidson diagonalization with overlap
     ethr =  3.03E-09,  avg # of iterations =  3.0

     negative rho (up, down):  1.757E+00 0.000E+00

     total cpu time spent up to now is     6315.9 secs

     total energy              =   -6604.42480972 Ry
     Harris-Foulkes estimate   =   -6604.42481521 Ry
     estimated scf accuracy    <       0.00002827 Ry

     iteration # 18     ecut=    50.00 Ry     beta=0.70
     Davidson diagonalization with overlap
     ethr =  3.03E-09,  avg # of iterations =  2.0

     negative rho (up, down):  1.757E+00 0.000E+00

     total cpu time spent up to now is     6555.2 secs

     total energy              =   -6604.42481204 Ry
     Harris-Foulkes estimate   =   -6604.42481309 Ry
     estimated scf accuracy    <       0.00000341 Ry

     iteration # 19     ecut=    50.00 Ry     beta=0.70
     Davidson diagonalization with overlap
     ethr =  4.79E-10,  avg # of iterations =  2.0

     negative rho (up, down):  1.757E+00 0.000E+00

     total cpu time spent up to now is     6805.8 secs

     total energy              =   -6604.42481254 Ry
     Harris-Foulkes estimate   =   -6604.42481284 Ry
     estimated scf accuracy    <       0.00000129 Ry

     iteration # 20     ecut=    50.00 Ry     beta=0.70
     Davidson diagonalization with overlap
     ethr =  1.82E-10,  avg # of iterations =  2.0

     negative rho (up, down):  1.757E+00 0.000E+00

     total cpu time spent up to now is     7045.5 secs

     total energy              =   -6604.42481271 Ry
     Harris-Foulkes estimate   =   -6604.42481277 Ry
     estimated scf accuracy    <       0.00000034 Ry

     iteration # 21     ecut=    50.00 Ry     beta=0.70
     Davidson diagonalization with overlap
     ethr =  4.71E-11,  avg # of iterations =  2.0

     negative rho (up, down):  1.757E+00 0.000E+00

     total cpu time spent up to now is     7299.4 secs

     total energy              =   -6604.42481277 Ry
     Harris-Foulkes estimate   =   -6604.42481278 Ry
     estimated scf accuracy    <       0.00000014 Ry

     iteration # 22     ecut=    50.00 Ry     beta=0.70
     Davidson diagonalization with overlap
     ethr =  1.95E-11,  avg # of iterations =  2.0

     negative rho (up, down):  1.757E+00 0.000E+00

     total cpu time spent up to now is     7537.9 secs

     total energy              =   -6604.42481278 Ry
     Harris-Foulkes estimate   =   -6604.42481279 Ry
     estimated scf accuracy    <       0.00000001 Ry

     iteration # 23     ecut=    50.00 Ry     beta=0.70
     Davidson diagonalization with overlap
     ethr =  1.92E-12,  avg # of iterations =  3.0

     negative rho (up, down):  1.757E+00 0.000E+00

     total cpu time spent up to now is     7870.5 secs

     total energy              =   -6604.42481279 Ry
     Harris-Foulkes estimate   =   -6604.42481279 Ry
     estimated scf accuracy    <       0.00000002 Ry

     iteration # 24     ecut=    50.00 Ry     beta=0.70
     Davidson diagonalization with overlap
     ethr =  1.92E-12,  avg # of iterations =  3.0

     negative rho (up, down):  1.757E+00 0.000E+00

     total cpu time spent up to now is     8151.0 secs

     End of self-consistent calculation

          k = 0.2500 0.4330 0.1111 (136853 PWs)   bands (ev):

   -18.7192  -6.5577  -6.4588  -6.0607  -6.0579  -5.3849  -5.0485  -5.0475
    -5.0156  -5.0074  -4.6481  -4.6468  -4.5493  -4.5484  -4.5348  -4.5110
    -4.4963  -4.3822  -4.3800  -4.3567  -4.3134  -4.3130  -4.2485  -4.2442
    -4.2402  -4.2380  -4.2160  -4.2120  -4.2091  -4.1488  -4.1376  -4.1084
    -4.1075  -4.0965  -4.0955  -4.0729  -4.0721  -4.0499  -4.0415  -4.0413
    -4.0167  -3.9634  -3.9625  -3.9153  -3.9134  -3.8596  -3.8573  -3.8066
    -3.8013  -3.8003  -3.7998  -3.7646  -3.7306  -3.7292  -3.7190  -3.7181
    -3.7172  -3.6923  -3.6871  -3.6784  -3.6208  -3.6190  -3.6113  -3.5922
    -3.5837  -3.5164  -3.5110  -3.4812  -3.4781  -3.4530  -3.4500  -3.4353
    -3.4229  -3.3665  -3.3611  -3.3445  -3.3419  -3.2936  -3.2899  -3.2874
    -3.2470  -3.2277  -3.2160  -3.2132  -3.2063  -3.1979  -3.1959  -3.1870
    -3.1861  -3.1771  -3.1408  -3.1118  -3.0959  -3.0843  -3.0824  -3.0751
    -3.0544  -3.0473  -3.0443  -3.0063  -2.9786  -2.9726  -2.9600  -2.9318
    -2.9202  -2.9127  -2.9024  -2.8860  -2.8775  -2.8510  -2.8185  -2.8161
    -2.7961  -2.7866  -2.7743  -2.7715  -2.7239  -2.7208  -2.6900  -2.6677
    -2.6661  -2.6450  -2.6395  -2.6320  -2.6281  -2.6204  -2.5998  -2.5992
    -2.5527  -2.5515  -2.5511  -2.5362  -2.5352  -2.5276  -2.5221  -2.5205
    -2.5178  -2.5148  -2.5103  -2.5059  -2.4985  -2.4919  -2.4664  -2.4635
    -2.4606  -2.4579  -2.4568  -2.4551  -2.4510  -2.4296  -2.4262  -2.4124
    -2.4115  -2.3922  -2.3908  -2.3844  -2.3814  -2.3809  -2.3790  -2.3644
    -2.3595  -2.3587  -2.3533  -2.3395  -2.3159  -2.3126  -2.2738  -2.2736
    -2.2518  -2.2498  -2.2237  -2.2194  -2.1957  -2.1933  -2.1788  -2.1718
    -2.1459  -2.1301  -2.1255  -2.1180  -2.1149  -2.1113  -2.1059  -2.1035
    -2.0769  -2.0717  -2.0642  -2.0096  -2.0041  -2.0020  -1.9990  -1.9944
    -1.9693  -1.9436  -1.9424  -1.9164  -1.9126  -1.8578  -1.8555  -1.8246
    -1.8075  -1.8025  -1.7487  -1.7462  -1.7377  -1.7333  -1.7243  -1.7226
    -1.7181  -1.7132  -1.7088  -1.6576  -1.6520  -1.6431  -1.6407  -1.6400
    -1.6256  -1.6205  -1.5917  -1.5866  -1.5707  -1.5690  -1.5686  -1.5607
    -1.5572  -1.5506  -1.5459  -1.5272  -1.5267  -1.4899  -1.4818  -1.4769
    -1.4741  -1.4564  -1.4387  -1.4028  -1.3971  -1.3727  -1.3677  -1.3662
    -1.3374  -1.2906  -1.2841  -1.2824  -1.2801  -1.2780  -1.2747  -1.2665
    -1.2519  -1.2476  -1.2124  -1.2065  -1.1803  -1.1781  -1.1727  -1.1705
    -1.1654  -1.1514  -1.1476  -1.1463  -1.1435  -1.1415  -1.1060  -1.1039
    -1.1029  -1.1007  -1.0744  -1.0703  -1.0680  -1.0426  -1.0381  -1.0324
    -0.9910  -0.9851  -0.9813  -0.9462  -0.9414  -0.9301  -0.9278  -0.9204
    -0.9201  -0.9173  -0.9164  -0.9068  -0.9045  -0.8816  -0.8805  -0.8764
    -0.8743  -0.8735  -0.8374  -0.8370  -0.8321  -0.8275  -0.8130  -0.8041
    -0.8019  -0.7907  -0.7377  -0.7331  -0.7290  -0.7255  -0.7231  -0.7213
    -0.7177  -0.7023  -0.6972  -0.6964  -0.6889  -0.6874  -0.6860  -0.6618
    -0.6476  -0.6449  -0.6435  -0.6359  -0.6348  -0.6299  -0.6239  -0.6151
    -0.6101  -0.6075  -0.6020  -0.5682  -0.5670  -0.5599  -0.5551  -0.5524
    -0.4798  -0.4754  -0.4745  -0.4735  -0.4656  -0.4641  -0.4290  -0.4167
    -0.4164  -0.3858  -0.3839  -0.3723  -0.2618  -0.2588  -0.1586   0.2540
     0.2550   0.2597   0.2603   0.3184   0.3300   0.7038   0.7090   0.7495
     0.7528   0.8693   0.9438   1.0531   1.0568   1.2756   1.2848   1.9020
     1.9095   2.0648   2.0725   2.1983   2.2102   2.3043   2.3048   2.4586
     2.6954   2.7106   2.8214   3.0462   3.0470   3.1246   3.1278   3.2241
     3.2438   3.4496   3.4517   3.4977   3.6999   3.7023   3.7628   3.7687
     4.0193   4.0261   4.0328   4.2706   4.3085   4.3141   4.3577   4.6899
     4.6959   4.7194   4.8585   5.0313   5.0334   5.0996   5.1229   5.5814
     5.8115   5.8190   5.8276   5.8561   5.8705   5.8920   5.8937   5.9900
     6.0104   6.0268   6.0544   6.0633   6.0871   6.0905   6.1135   6.1208
     6.2315   6.5857   6.5907   6.7113   6.7417   6.7662   6.7692   6.7774
     6.8075   6.8811   6.9757

          k = 0.2500-0.1443 0.1111 (136898 PWs)   bands (ev):

   -18.7192  -6.6689  -6.5575  -5.8765  -5.5886  -5.5270  -5.5255  -4.9885
    -4.9871  -4.8590  -4.8553  -4.7021  -4.6754  -4.6078  -4.5810  -4.5741
    -4.5411  -4.5406  -4.4120  -4.3704  -4.3701  -4.3119  -4.2931  -4.2894
    -4.1874  -4.1868  -4.1518  -4.1503  -4.1502  -4.1247  -4.1026  -4.1019
    -4.0021  -3.9951  -3.9949  -3.9753  -3.9590  -3.9571  -3.9474  -3.9447
    -3.9330  -3.9038  -3.9018  -3.9014  -3.9006  -3.8699  -3.8695  -3.8517
    -3.8504  -3.8404  -3.8013  -3.7980  -3.7653  -3.7539  -3.7474  -3.7421
    -3.7419  -3.6689  -3.6677  -3.6377  -3.6345  -3.6303  -3.5629  -3.5618
    -3.5524  -3.5462  -3.5192  -3.5177  -3.5169  -3.5151  -3.3683  -3.3602
    -3.3401  -3.3386  -3.3344  -3.3190  -3.3142  -3.2934  -3.2898  -3.2463
    -3.2386  -3.2259  -3.2220  -3.2059  -3.1689  -3.1563  -3.1468  -3.1329
    -3.1286  -3.1113  -3.0885  -3.0854  -3.0800  -3.0729  -3.0638  -3.0389
    -3.0253  -3.0215  -3.0051  -3.0027  -2.9996  -2.9964  -2.9687  -2.9213
    -2.9205  -2.9104  -2.8881  -2.8746  -2.8297  -2.8256  -2.7984  -2.7954
    -2.7849  -2.7844  -2.7751  -2.7501  -2.7497  -2.7385  -2.7219  -2.6993
    -2.6985  -2.6918  -2.6764  -2.6757  -2.6661  -2.6644  -2.6603  -2.6575
    -2.6507  -2.6052  -2.5752  -2.5745  -2.5562  -2.5438  -2.5397  -2.5359
    -2.5293  -2.5287  -2.5276  -2.4995  -2.4990  -2.4941  -2.4882  -2.4855
    -2.4727  -2.4446  -2.4441  -2.4425  -2.4418  -2.4386  -2.3957  -2.3662
    -2.3640  -2.3627  -2.3574  -2.3480  -2.3397  -2.3369  -2.3187  -2.3187
    -2.2884  -2.2850  -2.2839  -2.2670  -2.2667  -2.2655  -2.2348  -2.2318
    -2.1950  -2.1873  -2.1842  -2.1806  -2.1805  -2.1755  -2.1747  -2.1710
    -2.1703  -2.1643  -2.1638  -2.1475  -2.1473  -2.0237  -2.0231  -1.9891
    -1.9827  -1.9820  -1.9742  -1.9733  -1.9604  -1.9580  -1.9542  -1.9532
    -1.9492  -1.9297  -1.9260  -1.9245  -1.9111  -1.9091  -1.9019  -1.8880
    -1.8840  -1.8593  -1.8577  -1.8293  -1.8279  -1.8160  -1.8075  -1.7884
    -1.7879  -1.7859  -1.7692  -1.7560  -1.7543  -1.7479  -1.7469  -1.7229
    -1.7223  -1.7064  -1.7059  -1.6735  -1.6666  -1.6623  -1.6148  -1.6134
    -1.5980  -1.5972  -1.5912  -1.5711  -1.5681  -1.5389  -1.5360  -1.5333
    -1.5002  -1.4936  -1.4914  -1.4756  -1.4742  -1.4518  -1.4494  -1.4440
    -1.4204  -1.4153  -1.4143  -1.3557  -1.3510  -1.3420  -1.3390  -1.3252
    -1.3240  -1.3097  -1.3095  -1.2916  -1.2787  -1.2512  -1.2509  -1.2383
    -1.2069  -1.2018  -1.1994  -1.1890  -1.1888  -1.1866  -1.1831  -1.1809
    -1.1666  -1.1409  -1.1399  -1.1319  -1.1238  -1.1222  -1.1169  -1.1023
    -1.0833  -1.0763  -1.0589  -1.0574  -0.9692  -0.9579  -0.9501  -0.9495
    -0.9443  -0.9423  -0.9365  -0.9169  -0.9138  -0.9006  -0.8995  -0.8848
    -0.8839  -0.8769  -0.8598  -0.8524  -0.8521  -0.8445  -0.7720  -0.7712
    -0.7485  -0.7346  -0.7331  -0.7283  -0.7252  -0.7236  -0.7226  -0.7169
    -0.7079  -0.6916  -0.6683  -0.6594  -0.6535  -0.6367  -0.6288  -0.6235
    -0.6229  -0.6112  -0.6091  -0.6077  -0.6076  -0.5999  -0.5897  -0.5859
    -0.5851  -0.5557  -0.5532  -0.5527  -0.5409  -0.5407  -0.5212  -0.4895
    -0.4893  -0.4799  -0.4798  -0.4120  -0.4119  -0.3766  -0.3759  -0.3185
    -0.3182  -0.3159  -0.2983  -0.2923  -0.0559  -0.0546   0.2837   0.2842
     0.3803   0.3816   0.5715   0.5939   0.6015   0.7303   0.7322   1.1641
     1.1650   1.1800   1.4464   1.4739   1.4750   1.7562   1.7580   1.8286
     1.8305   1.8571   1.8603   2.0844   2.0872   2.1746   2.1762   2.2575
     2.3171   2.3194   2.4769   2.5799   3.0148   3.0171   3.0184   3.0215
     3.0731   3.0765   3.3675   3.3687   3.6505   3.6542   3.7659   4.0639
     4.1037   4.1091   4.3260   4.3520   4.4059   4.4067   4.4997   4.6170
     4.6181   4.7328   4.7358   5.0362   5.1038   5.1075   5.2790   5.3014
     5.4574   5.4911   5.4974   5.5221   5.5238   5.5828   5.5844   5.6499
     6.0034   6.0456   6.1887   6.2567   6.3145   6.3245   6.3304   6.3415
     6.3449   6.5643   6.5843   6.6380   6.7662   6.8107   6.8258   6.8551
     6.8935   7.1063   7.1420

          k =-0.2500-0.4330 0.1111 (136853 PWs)   bands (ev):

   -18.7192  -6.5577  -6.4588  -6.0607  -6.0579  -5.3849  -5.0485  -5.0475
    -5.0156  -5.0074  -4.6481  -4.6468  -4.5493  -4.5484  -4.5348  -4.5110
    -4.4963  -4.3822  -4.3800  -4.3567  -4.3134  -4.3130  -4.2485  -4.2442
    -4.2402  -4.2380  -4.2160  -4.2120  -4.2091  -4.1488  -4.1376  -4.1084
    -4.1075  -4.0965  -4.0955  -4.0729  -4.0721  -4.0499  -4.0415  -4.0413
    -4.0167  -3.9634  -3.9625  -3.9153  -3.9134  -3.8596  -3.8573  -3.8066
    -3.8013  -3.8003  -3.7998  -3.7646  -3.7306  -3.7292  -3.7190  -3.7181
    -3.7172  -3.6923  -3.6871  -3.6784  -3.6208  -3.6190  -3.6113  -3.5922
    -3.5837  -3.5164  -3.5110  -3.4812  -3.4781  -3.4530  -3.4500  -3.4353
    -3.4229  -3.3665  -3.3611  -3.3445  -3.3419  -3.2936  -3.2899  -3.2874
    -3.2470  -3.2277  -3.2160  -3.2132  -3.2063  -3.1979  -3.1959  -3.1870
    -3.1861  -3.1771  -3.1408  -3.1118  -3.0959  -3.0843  -3.0824  -3.0751
    -3.0544  -3.0473  -3.0443  -3.0063  -2.9786  -2.9726  -2.9600  -2.9318
    -2.9202  -2.9127  -2.9024  -2.8860  -2.8775  -2.8510  -2.8185  -2.8161
    -2.7961  -2.7866  -2.7743  -2.7715  -2.7239  -2.7208  -2.6900  -2.6677
    -2.6661  -2.6450  -2.6395  -2.6320  -2.6281  -2.6204  -2.5998  -2.5992
    -2.5527  -2.5515  -2.5511  -2.5362  -2.5352  -2.5276  -2.5221  -2.5205
    -2.5178  -2.5148  -2.5103  -2.5059  -2.4985  -2.4919  -2.4664  -2.4635
    -2.4606  -2.4579  -2.4568  -2.4551  -2.4510  -2.4296  -2.4262  -2.4124
    -2.4115  -2.3922  -2.3908  -2.3844  -2.3814  -2.3809  -2.3790  -2.3644
    -2.3595  -2.3587  -2.3533  -2.3395  -2.3159  -2.3126  -2.2738  -2.2736
    -2.2518  -2.2498  -2.2237  -2.2194  -2.1957  -2.1933  -2.1788  -2.1718
    -2.1459  -2.1301  -2.1255  -2.1180  -2.1149  -2.1113  -2.1059  -2.1035
    -2.0769  -2.0717  -2.0642  -2.0096  -2.0041  -2.0020  -1.9990  -1.9944
    -1.9693  -1.9436  -1.9424  -1.9164  -1.9126  -1.8578  -1.8555  -1.8246
    -1.8075  -1.8025  -1.7487  -1.7462  -1.7377  -1.7333  -1.7243  -1.7226
    -1.7181  -1.7132  -1.7088  -1.6576  -1.6520  -1.6431  -1.6407  -1.6400
    -1.6256  -1.6205  -1.5917  -1.5866  -1.5707  -1.5690  -1.5686  -1.5607
    -1.5572  -1.5506  -1.5459  -1.5272  -1.5267  -1.4899  -1.4818  -1.4769
    -1.4741  -1.4564  -1.4387  -1.4028  -1.3971  -1.3727  -1.3677  -1.3662
    -1.3374  -1.2906  -1.2841  -1.2824  -1.2801  -1.2780  -1.2747  -1.2665
    -1.2519  -1.2476  -1.2124  -1.2065  -1.1803  -1.1781  -1.1727  -1.1705
    -1.1654  -1.1514  -1.1476  -1.1463  -1.1435  -1.1415  -1.1060  -1.1039
    -1.1029  -1.1007  -1.0744  -1.0703  -1.0680  -1.0426  -1.0381  -1.0324
    -0.9910  -0.9851  -0.9813  -0.9462  -0.9414  -0.9301  -0.9278  -0.9204
    -0.9201  -0.9173  -0.9164  -0.9068  -0.9045  -0.8816  -0.8805  -0.8764
    -0.8743  -0.8735  -0.8374  -0.8370  -0.8321  -0.8275  -0.8130  -0.8041
    -0.8019  -0.7907  -0.7377  -0.7331  -0.7290  -0.7255  -0.7231  -0.7213
    -0.7177  -0.7023  -0.6972  -0.6964  -0.6889  -0.6874  -0.6860  -0.6618
    -0.6476  -0.6449  -0.6435  -0.6359  -0.6348  -0.6299  -0.6239  -0.6151
    -0.6101  -0.6075  -0.6020  -0.5682  -0.5670  -0.5599  -0.5551  -0.5524
    -0.4798  -0.4754  -0.4745  -0.4735  -0.4656  -0.4641  -0.4290  -0.4167
    -0.4164  -0.3858  -0.3839  -0.3723  -0.2618  -0.2588  -0.1586   0.2540
     0.2550   0.2597   0.2603   0.3184   0.3300   0.7038   0.7090   0.7495
     0.7528   0.8693   0.9438   1.0531   1.0568   1.2756   1.2848   1.9020
     1.9095   2.0648   2.0725   2.1983   2.2102   2.3043   2.3048   2.4586
     2.6954   2.7106   2.8214   3.0462   3.0470   3.1246   3.1278   3.2241
     3.2438   3.4496   3.4517   3.4977   3.6999   3.7023   3.7628   3.7687
     4.0193   4.0261   4.0328   4.2706   4.3085   4.3141   4.3577   4.6899
     4.6959   4.7194   4.8585   5.0313   5.0334   5.0996   5.1229   5.5814
     5.8114   5.8190   5.8276   5.8561   5.8705   5.8920   5.8937   5.9900
     6.0104   6.0268   6.0544   6.0633   6.0871   6.0905   6.1135   6.1208
     6.2315   6.5859   6.5905   6.7113   6.7417   6.7662   6.7692   6.7774
     6.8074   6.8811   6.9747

          k =-0.2500 0.4330-0.1111 (136853 PWs)   bands (ev):

   -18.7192  -6.5581  -6.4584  -6.0613  -6.0573  -5.3846  -5.0497  -5.0466
    -5.0164  -5.0068  -4.6486  -4.6460  -4.5493  -4.5483  -4.5343  -4.5111
    -4.4959  -4.3828  -4.3802  -4.3570  -4.3134  -4.3130  -4.2489  -4.2438
    -4.2423  -4.2369  -4.2160  -4.2133  -4.2078  -4.1499  -4.1366  -4.1090
    -4.1066  -4.0966  -4.0951  -4.0730  -4.0720  -4.0499  -4.0417  -4.0412
    -4.0167  -3.9632  -3.9626  -3.9158  -3.9128  -3.8583  -3.8569  -3.8055
    -3.8014  -3.8002  -3.7995  -3.7648  -3.7305  -3.7282  -3.7201  -3.7188
    -3.7169  -3.6965  -3.6859  -3.6783  -3.6206  -3.6183  -3.6134  -3.5916
    -3.5834  -3.5190  -3.5104  -3.4842  -3.4767  -3.4522  -3.4494  -3.4352
    -3.4224  -3.3649  -3.3614  -3.3440  -3.3426  -3.2936  -3.2897  -3.2876
    -3.2464  -3.2286  -3.2186  -3.2119  -3.2071  -3.1978  -3.1962  -3.1864
    -3.1859  -3.1770  -3.1406  -3.1128  -3.0963  -3.0849  -3.0826  -3.0718
    -3.0548  -3.0488  -3.0425  -3.0052  -2.9789  -2.9729  -2.9594  -2.9316
    -2.9198  -2.9133  -2.9033  -2.8875  -2.8753  -2.8510  -2.8180  -2.8155
    -2.7961  -2.7866  -2.7742  -2.7717  -2.7251  -2.7201  -2.6898  -2.6681
    -2.6654  -2.6456  -2.6402  -2.6325  -2.6278  -2.6205  -2.6004  -2.5987
    -2.5523  -2.5514  -2.5506  -2.5371  -2.5347  -2.5278  -2.5221  -2.5196
    -2.5183  -2.5149  -2.5102  -2.5035  -2.4986  -2.4923  -2.4668  -2.4628
    -2.4601  -2.4580  -2.4576  -2.4547  -2.4509  -2.4305  -2.4263  -2.4136
    -2.4104  -2.3926  -2.3904  -2.3845  -2.3824  -2.3810  -2.3784  -2.3653
    -2.3593  -2.3574  -2.3544  -2.3394  -2.3160  -2.3124  -2.2745  -2.2728
    -2.2525  -2.2494  -2.2231  -2.2189  -2.1971  -2.1926  -2.1790  -2.1719
    -2.1457  -2.1303  -2.1254  -2.1164  -2.1162  -2.1108  -2.1058  -2.1040
    -2.0763  -2.0722  -2.0635  -2.0083  -2.0042  -2.0018  -2.0001  -1.9950
    -1.9686  -1.9440  -1.9418  -1.9167  -1.9128  -1.8579  -1.8550  -1.8251
    -1.8069  -1.8025  -1.7492  -1.7463  -1.7378  -1.7327  -1.7249  -1.7219
    -1.7181  -1.7140  -1.7083  -1.6612  -1.6511  -1.6419  -1.6409  -1.6398
    -1.6282  -1.6194  -1.5902  -1.5864  -1.5716  -1.5692  -1.5679  -1.5605
    -1.5559  -1.5516  -1.5449  -1.5287  -1.5253  -1.4920  -1.4811  -1.4785
    -1.4728  -1.4560  -1.4386  -1.4021  -1.3971  -1.3716  -1.3678  -1.3656
    -1.3373  -1.2919  -1.2839  -1.2827  -1.2794  -1.2774  -1.2745  -1.2674
    -1.2522  -1.2473  -1.2133  -1.2055  -1.1812  -1.1768  -1.1745  -1.1696
    -1.1649  -1.1530  -1.1475  -1.1460  -1.1421  -1.1411  -1.1059  -1.1036
    -1.1021  -1.1013  -1.0784  -1.0709  -1.0668  -1.0418  -1.0392  -1.0328
    -0.9933  -0.9836  -0.9798  -0.9467  -0.9397  -0.9305  -0.9265  -0.9220
    -0.9213  -0.9171  -0.9160  -0.9056  -0.9043  -0.8826  -0.8801  -0.8760
    -0.8753  -0.8729  -0.8412  -0.8372  -0.8366  -0.8236  -0.8088  -0.8036
    -0.8015  -0.7907  -0.7397  -0.7339  -0.7324  -0.7262  -0.7235  -0.7209
    -0.7174  -0.7002  -0.6975  -0.6942  -0.6884  -0.6873  -0.6850  -0.6567
    -0.6467  -0.6443  -0.6392  -0.6357  -0.6339  -0.6296  -0.6227  -0.6140
    -0.6104  -0.6101  -0.6052  -0.5686  -0.5666  -0.5599  -0.5551  -0.5538
    -0.4813  -0.4753  -0.4744  -0.4738  -0.4656  -0.4635  -0.4288  -0.4174
    -0.4160  -0.3841  -0.3814  -0.3760  -0.2673  -0.2587  -0.1614   0.2545
     0.2557   0.2591   0.2599   0.3248   0.3261   0.7071   0.7091   0.7488
     0.7519   0.8683   0.9425   1.0512   1.0560   1.2802   1.2809   1.9061
     1.9076   2.0661   2.0700   2.2027   2.2057   2.3040   2.3051   2.4587
     2.6966   2.7110   2.8220   3.0439   3.0500   3.1241   3.1281   3.2266
     3.2437   3.4432   3.4584   3.4985   3.6991   3.7028   3.7607   3.7687
     4.0193   4.0282   4.0312   4.2709   4.3078   4.3131   4.3577   4.6893
     4.6958   4.7212   4.8554   5.0300   5.0337   5.0930   5.1195   5.5896
     5.8067   5.8140   5.8276   5.8453   5.8873   5.8911   5.8966   5.9965
     6.0040   6.0283   6.0577   6.0601   6.0880   6.0966   6.1157   6.1190
     6.2302   6.5612   6.6101   6.6920   6.7460   6.7604   6.7721   6.7772
     6.8069   6.8858   6.9822

          k = 0.2500-0.4330-0.1111 (136853 PWs)   bands (ev):

   -18.7192  -6.5581  -6.4584  -6.0613  -6.0573  -5.3846  -5.0497  -5.0466
    -5.0164  -5.0068  -4.6486  -4.6460  -4.5493  -4.5483  -4.5343  -4.5111
    -4.4959  -4.3828  -4.3802  -4.3570  -4.3134  -4.3130  -4.2489  -4.2438
    -4.2423  -4.2369  -4.2160  -4.2133  -4.2078  -4.1499  -4.1366  -4.1090
    -4.1066  -4.0966  -4.0951  -4.0730  -4.0720  -4.0499  -4.0417  -4.0412
    -4.0167  -3.9632  -3.9626  -3.9158  -3.9128  -3.8583  -3.8569  -3.8055
    -3.8014  -3.8002  -3.7995  -3.7648  -3.7305  -3.7282  -3.7201  -3.7188
    -3.7169  -3.6965  -3.6859  -3.6783  -3.6206  -3.6183  -3.6134  -3.5916
    -3.5834  -3.5190  -3.5104  -3.4842  -3.4767  -3.4522  -3.4494  -3.4352
    -3.4224  -3.3649  -3.3614  -3.3440  -3.3426  -3.2936  -3.2897  -3.2876
    -3.2464  -3.2286  -3.2186  -3.2119  -3.2071  -3.1978  -3.1962  -3.1864
    -3.1859  -3.1770  -3.1406  -3.1128  -3.0963  -3.0849  -3.0826  -3.0718
    -3.0548  -3.0488  -3.0425  -3.0052  -2.9789  -2.9729  -2.9594  -2.9316
    -2.9198  -2.9133  -2.9033  -2.8875  -2.8753  -2.8510  -2.8180  -2.8155
    -2.7961  -2.7866  -2.7742  -2.7717  -2.7251  -2.7201  -2.6898  -2.6681
    -2.6654  -2.6456  -2.6402  -2.6325  -2.6278  -2.6205  -2.6004  -2.5987
    -2.5523  -2.5514  -2.5506  -2.5371  -2.5347  -2.5278  -2.5221  -2.5196
    -2.5183  -2.5149  -2.5102  -2.5035  -2.4986  -2.4923  -2.4668  -2.4628
    -2.4601  -2.4580  -2.4576  -2.4547  -2.4509  -2.4305  -2.4263  -2.4136
    -2.4104  -2.3926  -2.3904  -2.3845  -2.3824  -2.3810  -2.3784  -2.3653
    -2.3593  -2.3574  -2.3544  -2.3394  -2.3160  -2.3124  -2.2745  -2.2728
    -2.2525  -2.2494  -2.2231  -2.2189  -2.1971  -2.1926  -2.1790  -2.1719
    -2.1457  -2.1303  -2.1254  -2.1164  -2.1162  -2.1108  -2.1058  -2.1040
    -2.0763  -2.0722  -2.0635  -2.0083  -2.0042  -2.0018  -2.0001  -1.9950
    -1.9686  -1.9440  -1.9418  -1.9167  -1.9128  -1.8579  -1.8550  -1.8251
    -1.8069  -1.8025  -1.7492  -1.7463  -1.7378  -1.7327  -1.7249  -1.7219
    -1.7181  -1.7140  -1.7083  -1.6612  -1.6511  -1.6419  -1.6409  -1.6398
    -1.6282  -1.6194  -1.5902  -1.5864  -1.5716  -1.5692  -1.5679  -1.5605
    -1.5559  -1.5516  -1.5449  -1.5287  -1.5253  -1.4920  -1.4811  -1.4785
    -1.4728  -1.4560  -1.4386  -1.4021  -1.3971  -1.3716  -1.3678  -1.3656
    -1.3373  -1.2919  -1.2839  -1.2827  -1.2794  -1.2774  -1.2745  -1.2674
    -1.2522  -1.2473  -1.2133  -1.2055  -1.1812  -1.1768  -1.1745  -1.1696
    -1.1649  -1.1530  -1.1475  -1.1460  -1.1421  -1.1411  -1.1059  -1.1036
    -1.1021  -1.1013  -1.0784  -1.0709  -1.0668  -1.0418  -1.0392  -1.0328
    -0.9933  -0.9836  -0.9798  -0.9467  -0.9397  -0.9305  -0.9265  -0.9220
    -0.9213  -0.9171  -0.9160  -0.9056  -0.9043  -0.8826  -0.8801  -0.8760
    -0.8753  -0.8729  -0.8412  -0.8372  -0.8366  -0.8236  -0.8088  -0.8036
    -0.8015  -0.7907  -0.7397  -0.7339  -0.7324  -0.7262  -0.7235  -0.7209
    -0.7174  -0.7002  -0.6975  -0.6942  -0.6884  -0.6873  -0.6850  -0.6567
    -0.6467  -0.6443  -0.6392  -0.6357  -0.6339  -0.6296  -0.6228  -0.6140
    -0.6104  -0.6101  -0.6052  -0.5686  -0.5666  -0.5599  -0.5551  -0.5538
    -0.4813  -0.4753  -0.4744  -0.4738  -0.4656  -0.4635  -0.4288  -0.4174
    -0.4160  -0.3841  -0.3814  -0.3760  -0.2673  -0.2587  -0.1614   0.2545
     0.2557   0.2591   0.2599   0.3248   0.3261   0.7071   0.7091   0.7488
     0.7519   0.8683   0.9425   1.0512   1.0560   1.2802   1.2809   1.9061
     1.9076   2.0661   2.0700   2.2027   2.2057   2.3040   2.3051   2.4587
     2.6966   2.7110   2.8220   3.0439   3.0500   3.1241   3.1281   3.2266
     3.2437   3.4432   3.4584   3.4985   3.6991   3.7028   3.7607   3.7687
     4.0193   4.0282   4.0312   4.2709   4.3078   4.3131   4.3577   4.6893
     4.6958   4.7212   4.8554   5.0300   5.0337   5.0930   5.1194   5.5896
     5.8067   5.8140   5.8276   5.8453   5.8873   5.8911   5.8966   5.9965
     6.0040   6.0283   6.0577   6.0601   6.0880   6.0966   6.1157   6.1190
     6.2302   6.5611   6.6102   6.6921   6.7459   6.7604   6.7721   6.7772
     6.8066   6.8858   6.9822

          k = 0.5000 0.0000 0.1111 (136853 PWs)   bands (ev):

   -18.7192  -6.5579  -6.4585  -6.0623  -6.0563  -5.3846  -5.0487  -5.0476
    -5.0174  -5.0056  -4.6483  -4.6463  -4.5493  -4.5484  -4.5344  -4.5110
    -4.4960  -4.3832  -4.3794  -4.3570  -4.3135  -4.3129  -4.2484  -4.2439
    -4.2416  -4.2377  -4.2160  -4.2127  -4.2085  -4.1501  -4.1362  -4.1092
    -4.1065  -4.0963  -4.0955  -4.0729  -4.0720  -4.0499  -4.0417  -4.0413
    -4.0166  -3.9635  -3.9623  -3.9162  -3.9125  -3.8589  -3.8572  -3.8062
    -3.8009  -3.8000  -3.7997  -3.7648  -3.7308  -3.7286  -3.7191  -3.7186
    -3.7173  -3.6940  -3.6867  -3.6791  -3.6209  -3.6184  -3.6123  -3.5917
    -3.5835  -3.5176  -3.5112  -3.4828  -3.4774  -3.4530  -3.4489  -3.4353
    -3.4227  -3.3659  -3.3610  -3.3444  -3.3419  -3.2934  -3.2899  -3.2875
    -3.2465  -3.2283  -3.2173  -3.2131  -3.2061  -3.1986  -3.1971  -3.1858
    -3.1850  -3.1773  -3.1407  -3.1128  -3.0954  -3.0850  -3.0824  -3.0734
    -3.0546  -3.0483  -3.0432  -3.0059  -2.9779  -2.9730  -2.9603  -2.9316
    -2.9202  -2.9122  -2.9034  -2.8872  -2.8761  -2.8510  -2.8183  -2.8154
    -2.7959  -2.7867  -2.7744  -2.7716  -2.7244  -2.7205  -2.6899  -2.6680
    -2.6658  -2.6455  -2.6399  -2.6327  -2.6274  -2.6205  -2.6002  -2.5990
    -2.5524  -2.5515  -2.5507  -2.5368  -2.5348  -2.5277  -2.5220  -2.5202
    -2.5179  -2.5149  -2.5103  -2.5047  -2.4976  -2.4928  -2.4665  -2.4631
    -2.4604  -2.4580  -2.4571  -2.4548  -2.4509  -2.4303  -2.4264  -2.4130
    -2.4108  -2.3925  -2.3906  -2.3848  -2.3823  -2.3809  -2.3782  -2.3645
    -2.3586  -2.3581  -2.3548  -2.3393  -2.3159  -2.3128  -2.2745  -2.2727
    -2.2522  -2.2497  -2.2232  -2.2190  -2.1966  -2.1931  -2.1789  -2.1718
    -2.1457  -2.1303  -2.1254  -2.1171  -2.1156  -2.1111  -2.1060  -2.1036
    -2.0766  -2.0719  -2.0637  -2.0087  -2.0040  -2.0020  -1.9997  -1.9948
    -1.9688  -1.9443  -1.9415  -1.9163  -1.9130  -1.8584  -1.8545  -1.8250
    -1.8072  -1.8024  -1.7493  -1.7459  -1.7376  -1.7328  -1.7250  -1.7221
    -1.7182  -1.7139  -1.7084  -1.6597  -1.6517  -1.6423  -1.6410  -1.6400
    -1.6275  -1.6197  -1.5907  -1.5867  -1.5711  -1.5688  -1.5684  -1.5608
    -1.5562  -1.5515  -1.5448  -1.5276  -1.5264  -1.4912  -1.4813  -1.4780
    -1.4734  -1.4561  -1.4386  -1.4032  -1.3964  -1.3718  -1.3676  -1.3661
    -1.3374  -1.2914  -1.2840  -1.2826  -1.2796  -1.2780  -1.2746  -1.2668
    -1.2525  -1.2470  -1.2131  -1.2055  -1.1809  -1.1773  -1.1737  -1.1703
    -1.1651  -1.1525  -1.1478  -1.1460  -1.1422  -1.1415  -1.1060  -1.1035
    -1.1026  -1.1012  -1.0770  -1.0706  -1.0672  -1.0421  -1.0388  -1.0325
    -0.9926  -0.9841  -0.9802  -0.9465  -0.9404  -0.9304  -0.9270  -0.9219
    -0.9207  -0.9172  -0.9162  -0.9063  -0.9042  -0.8823  -0.8801  -0.8761
    -0.8746  -0.8736  -0.8389  -0.8371  -0.8368  -0.8241  -0.8103  -0.8039
    -0.8014  -0.7906  -0.7392  -0.7335  -0.7315  -0.7257  -0.7238  -0.7208
    -0.7175  -0.7009  -0.6973  -0.6948  -0.6886  -0.6873  -0.6854  -0.6583
    -0.6471  -0.6442  -0.6412  -0.6354  -0.6349  -0.6297  -0.6237  -0.6145
    -0.6100  -0.6085  -0.6044  -0.5683  -0.5668  -0.5599  -0.5552  -0.5532
    -0.4807  -0.4753  -0.4746  -0.4736  -0.4657  -0.4635  -0.4289  -0.4170
    -0.4162  -0.3840  -0.3826  -0.3751  -0.2647  -0.2592  -0.1604   0.2542
     0.2557   0.2593   0.2599   0.3223   0.3278   0.7055   0.7094   0.7496
     0.7518   0.8686   0.9429   1.0523   1.0559   1.2795   1.2814   1.9047
     1.9083   2.0673   2.0691   2.2027   2.2059   2.3036   2.3055   2.4586
     2.6962   2.7109   2.8216   3.0442   3.0493   3.1244   3.1278   3.2254
     3.2438   3.4453   3.4563   3.4983   3.6987   3.7033   3.7646   3.7660
     4.0192   4.0280   4.0307   4.2710   4.3087   4.3128   4.3575   4.6884
     4.6966   4.7207   4.8581   5.0313   5.0328   5.1038   5.1120   5.5867
     5.8084   5.8179   5.8264   5.8494   5.8821   5.8916   5.8949   5.9962
     6.0061   6.0268   6.0547   6.0605   6.0881   6.0948   6.1157   6.1182
     6.2308   6.5672   6.6043   6.7093   6.7363   6.7620   6.7711   6.7756
     6.8068   6.8833   6.9733

          k =-0.5000 0.0000 0.1111 (136853 PWs)   bands (ev):

   -18.7192  -6.5579  -6.4585  -6.0623  -6.0563  -5.3846  -5.0487  -5.0476
    -5.0174  -5.0056  -4.6483  -4.6463  -4.5493  -4.5484  -4.5344  -4.5110
    -4.4960  -4.3832  -4.3794  -4.3570  -4.3135  -4.3129  -4.2484  -4.2439
    -4.2416  -4.2377  -4.2160  -4.2127  -4.2085  -4.1501  -4.1362  -4.1092
    -4.1065  -4.0963  -4.0955  -4.0729  -4.0720  -4.0499  -4.0417  -4.0413
    -4.0166  -3.9635  -3.9623  -3.9162  -3.9125  -3.8589  -3.8572  -3.8062
    -3.8009  -3.8000  -3.7997  -3.7648  -3.7308  -3.7286  -3.7191  -3.7186
    -3.7173  -3.6940  -3.6867  -3.6791  -3.6209  -3.6184  -3.6123  -3.5917
    -3.5835  -3.5176  -3.5112  -3.4828  -3.4774  -3.4530  -3.4489  -3.4353
    -3.4227  -3.3659  -3.3610  -3.3444  -3.3419  -3.2934  -3.2899  -3.2875
    -3.2465  -3.2283  -3.2173  -3.2131  -3.2061  -3.1986  -3.1971  -3.1858
    -3.1850  -3.1773  -3.1407  -3.1128  -3.0954  -3.0850  -3.0824  -3.0734
    -3.0546  -3.0483  -3.0432  -3.0059  -2.9779  -2.9730  -2.9603  -2.9316
    -2.9202  -2.9122  -2.9034  -2.8872  -2.8761  -2.8510  -2.8183  -2.8154
    -2.7959  -2.7867  -2.7744  -2.7716  -2.7244  -2.7205  -2.6899  -2.6680
    -2.6658  -2.6455  -2.6399  -2.6327  -2.6274  -2.6205  -2.6002  -2.5990
    -2.5524  -2.5515  -2.5507  -2.5368  -2.5348  -2.5277  -2.5220  -2.5202
    -2.5179  -2.5149  -2.5103  -2.5047  -2.4976  -2.4928  -2.4665  -2.4631
    -2.4604  -2.4580  -2.4571  -2.4548  -2.4509  -2.4303  -2.4264  -2.4130
    -2.4108  -2.3925  -2.3906  -2.3848  -2.3823  -2.3809  -2.3782  -2.3645
    -2.3586  -2.3581  -2.3548  -2.3393  -2.3159  -2.3128  -2.2745  -2.2727
    -2.2522  -2.2497  -2.2232  -2.2190  -2.1966  -2.1931  -2.1789  -2.1718
    -2.1457  -2.1303  -2.1254  -2.1171  -2.1156  -2.1111  -2.1060  -2.1036
    -2.0766  -2.0719  -2.0637  -2.0087  -2.0040  -2.0020  -1.9997  -1.9948
    -1.9688  -1.9443  -1.9415  -1.9163  -1.9130  -1.8584  -1.8545  -1.8250
    -1.8072  -1.8024  -1.7493  -1.7459  -1.7376  -1.7328  -1.7250  -1.7221
    -1.7182  -1.7139  -1.7084  -1.6597  -1.6517  -1.6423  -1.6410  -1.6400
    -1.6275  -1.6197  -1.5907  -1.5867  -1.5711  -1.5688  -1.5684  -1.5608
    -1.5562  -1.5515  -1.5448  -1.5276  -1.5264  -1.4912  -1.4813  -1.4780
    -1.4734  -1.4561  -1.4386  -1.4032  -1.3964  -1.3718  -1.3676  -1.3661
    -1.3374  -1.2914  -1.2840  -1.2826  -1.2796  -1.2780  -1.2746  -1.2668
    -1.2525  -1.2470  -1.2131  -1.2055  -1.1809  -1.1773  -1.1737  -1.1703
    -1.1651  -1.1525  -1.1478  -1.1460  -1.1422  -1.1415  -1.1060  -1.1035
    -1.1026  -1.1012  -1.0770  -1.0706  -1.0672  -1.0421  -1.0388  -1.0325
    -0.9926  -0.9841  -0.9802  -0.9465  -0.9404  -0.9304  -0.9270  -0.9219
    -0.9207  -0.9172  -0.9162  -0.9062  -0.9042  -0.8823  -0.8801  -0.8761
    -0.8746  -0.8736  -0.8389  -0.8371  -0.8368  -0.8241  -0.8103  -0.8039
    -0.8014  -0.7906  -0.7392  -0.7335  -0.7315  -0.7257  -0.7238  -0.7208
    -0.7175  -0.7009  -0.6973  -0.6948  -0.6886  -0.6873  -0.6854  -0.6583
    -0.6471  -0.6442  -0.6412  -0.6354  -0.6349  -0.6297  -0.6237  -0.6145
    -0.6100  -0.6085  -0.6044  -0.5683  -0.5668  -0.5599  -0.5552  -0.5532
    -0.4807  -0.4753  -0.4746  -0.4736  -0.4657  -0.4635  -0.4289  -0.4170
    -0.4162  -0.3840  -0.3826  -0.3751  -0.2647  -0.2592  -0.1604   0.2542
     0.2557   0.2593   0.2599   0.3223   0.3278   0.7055   0.7094   0.7496
     0.7518   0.8686   0.9429   1.0523   1.0559   1.2795   1.2814   1.9047
     1.9083   2.0673   2.0691   2.2027   2.2059   2.3036   2.3055   2.4586
     2.6962   2.7109   2.8216   3.0442   3.0493   3.1244   3.1278   3.2254
     3.2438   3.4453   3.4563   3.4983   3.6987   3.7033   3.7646   3.7660
     4.0192   4.0280   4.0307   4.2710   4.3087   4.3128   4.3575   4.6884
     4.6966   4.7207   4.8581   5.0313   5.0328   5.1038   5.1120   5.5867
     5.8084   5.8179   5.8264   5.8494   5.8821   5.8917   5.8949   5.9962
     6.0061   6.0268   6.0547   6.0605   6.0881   6.0948   6.1157   6.1183
     6.2307   6.5671   6.6045   6.7093   6.7363   6.7621   6.7711   6.7758
     6.8065   6.8834   6.9736

          k =-0.2500 0.1443 0.1111 (136898 PWs)   bands (ev):

   -18.7192  -6.6689  -6.5575  -5.8765  -5.5886  -5.5270  -5.5255  -4.9885
    -4.9871  -4.8590  -4.8553  -4.7021  -4.6754  -4.6078  -4.5810  -4.5741
    -4.5411  -4.5406  -4.4120  -4.3704  -4.3701  -4.3119  -4.2931  -4.2894
    -4.1874  -4.1868  -4.1518  -4.1503  -4.1502  -4.1247  -4.1026  -4.1019
    -4.0021  -3.9951  -3.9949  -3.9753  -3.9590  -3.9571  -3.9474  -3.9448
    -3.9330  -3.9038  -3.9018  -3.9014  -3.9006  -3.8699  -3.8695  -3.8516
    -3.8504  -3.8404  -3.8013  -3.7980  -3.7653  -3.7539  -3.7474  -3.7421
    -3.7419  -3.6689  -3.6677  -3.6377  -3.6345  -3.6303  -3.5629  -3.5618
    -3.5524  -3.5462  -3.5192  -3.5177  -3.5169  -3.5151  -3.3683  -3.3602
    -3.3401  -3.3386  -3.3344  -3.3190  -3.3142  -3.2934  -3.2898  -3.2463
    -3.2386  -3.2259  -3.2220  -3.2059  -3.1689  -3.1563  -3.1468  -3.1329
    -3.1286  -3.1113  -3.0885  -3.0853  -3.0800  -3.0729  -3.0638  -3.0389
    -3.0253  -3.0215  -3.0051  -3.0027  -2.9996  -2.9964  -2.9687  -2.9213
    -2.9205  -2.9104  -2.8881  -2.8746  -2.8297  -2.8256  -2.7984  -2.7954
    -2.7849  -2.7844  -2.7751  -2.7501  -2.7497  -2.7385  -2.7219  -2.6993
    -2.6985  -2.6918  -2.6764  -2.6757  -2.6661  -2.6644  -2.6603  -2.6575
    -2.6507  -2.6052  -2.5752  -2.5745  -2.5562  -2.5438  -2.5397  -2.5359
    -2.5293  -2.5287  -2.5276  -2.4995  -2.4990  -2.4941  -2.4882  -2.4855
    -2.4727  -2.4446  -2.4441  -2.4425  -2.4418  -2.4386  -2.3957  -2.3662
    -2.3640  -2.3627  -2.3574  -2.3480  -2.3397  -2.3369  -2.3187  -2.3187
    -2.2884  -2.2850  -2.2839  -2.2670  -2.2667  -2.2655  -2.2348  -2.2318
    -2.1950  -2.1873  -2.1842  -2.1806  -2.1805  -2.1755  -2.1747  -2.1710
    -2.1703  -2.1643  -2.1638  -2.1475  -2.1473  -2.0237  -2.0231  -1.9891
    -1.9827  -1.9820  -1.9742  -1.9733  -1.9604  -1.9580  -1.9542  -1.9532
    -1.9492  -1.9297  -1.9259  -1.9245  -1.9111  -1.9091  -1.9019  -1.8880
    -1.8840  -1.8593  -1.8577  -1.8293  -1.8279  -1.8160  -1.8075  -1.7884
    -1.7879  -1.7859  -1.7692  -1.7560  -1.7543  -1.7479  -1.7469  -1.7229
    -1.7223  -1.7064  -1.7059  -1.6735  -1.6666  -1.6623  -1.6148  -1.6134
    -1.5980  -1.5972  -1.5912  -1.5711  -1.5681  -1.5389  -1.5360  -1.5333
    -1.5002  -1.4936  -1.4914  -1.4756  -1.4742  -1.4518  -1.4494  -1.4440
    -1.4204  -1.4153  -1.4143  -1.3557  -1.3510  -1.3420  -1.3390  -1.3252
    -1.3240  -1.3097  -1.3095  -1.2916  -1.2787  -1.2512  -1.2509  -1.2383
    -1.2069  -1.2018  -1.1994  -1.1890  -1.1888  -1.1866  -1.1831  -1.1809
    -1.1666  -1.1409  -1.1399  -1.1319  -1.1238  -1.1222  -1.1169  -1.1023
    -1.0833  -1.0763  -1.0589  -1.0574  -0.9692  -0.9579  -0.9501  -0.9495
    -0.9443  -0.9423  -0.9365  -0.9169  -0.9138  -0.9006  -0.8995  -0.8848
    -0.8839  -0.8769  -0.8598  -0.8524  -0.8521  -0.8445  -0.7720  -0.7712
    -0.7485  -0.7346  -0.7331  -0.7283  -0.7252  -0.7236  -0.7226  -0.7169
    -0.7079  -0.6916  -0.6683  -0.6594  -0.6535  -0.6367  -0.6288  -0.6235
    -0.6229  -0.6112  -0.6090  -0.6077  -0.6076  -0.5999  -0.5897  -0.5859
    -0.5851  -0.5557  -0.5532  -0.5527  -0.5409  -0.5407  -0.5212  -0.4895
    -0.4893  -0.4799  -0.4798  -0.4120  -0.4119  -0.3766  -0.3759  -0.3185
    -0.3182  -0.3159  -0.2983  -0.2923  -0.0559  -0.0546   0.2837   0.2842
     0.3803   0.3816   0.5715   0.5939   0.6015   0.7303   0.7322   1.1641
     1.1650   1.1800   1.4464   1.4739   1.4750   1.7562   1.7580   1.8286
     1.8305   1.8571   1.8603   2.0844   2.0872   2.1746   2.1762   2.2575
     2.3171   2.3194   2.4769   2.5799   3.0148   3.0171   3.0184   3.0215
     3.0731   3.0765   3.3675   3.3687   3.6505   3.6542   3.7659   4.0639
     4.1037   4.1091   4.3260   4.3520   4.4059   4.4067   4.4997   4.6170
     4.6181   4.7328   4.7358   5.0362   5.1038   5.1075   5.2790   5.3014
     5.4574   5.4911   5.4974   5.5221   5.5238   5.5828   5.5844   5.6499
     6.0032   6.0455   6.1887   6.2569   6.3147   6.3245   6.3304   6.3415
     6.3449   6.5643   6.5843   6.6385   6.7697   6.8105   6.8258   6.8548
     6.8931   7.1025   7.1360

          k =-0.2500-0.1443-0.1111 (136898 PWs)   bands (ev):

   -18.7192  -6.6688  -6.5576  -5.8768  -5.5886  -5.5267  -5.5256  -4.9883
    -4.9872  -4.8602  -4.8552  -4.7020  -4.6755  -4.6082  -4.5795  -4.5745
    -4.5410  -4.5405  -4.4120  -4.3703  -4.3701  -4.3122  -4.2925  -4.2897
    -4.1872  -4.1867  -4.1518  -4.1505  -4.1500  -4.1251  -4.1023  -4.1020
    -4.0038  -3.9952  -3.9949  -3.9758  -3.9590  -3.9572  -3.9464  -3.9450
    -3.9335  -3.9029  -3.9019  -3.9013  -3.9005  -3.8703  -3.8688  -3.8518
    -3.8503  -3.8420  -3.7997  -3.7971  -3.7669  -3.7519  -3.7480  -3.7420
    -3.7419  -3.6687  -3.6677  -3.6374  -3.6340  -3.6304  -3.5633  -3.5621
    -3.5520  -3.5464  -3.5186  -3.5176  -3.5170  -3.5155  -3.3683  -3.3606
    -3.3394  -3.3390  -3.3343  -3.3186  -3.3144  -3.2917  -3.2900  -3.2455
    -3.2387  -3.2270  -3.2223  -3.2053  -3.1687  -3.1568  -3.1468  -3.1337
    -3.1291  -3.1099  -3.0886  -3.0851  -3.0801  -3.0731  -3.0643  -3.0397
    -3.0254  -3.0196  -3.0059  -3.0020  -2.9998  -2.9968  -2.9694  -2.9214
    -2.9207  -2.9106  -2.8884  -2.8750  -2.8301  -2.8248  -2.7987  -2.7958
    -2.7849  -2.7826  -2.7746  -2.7503  -2.7487  -2.7385  -2.7220  -2.6999
    -2.6991  -2.6930  -2.6763  -2.6756  -2.6661  -2.6647  -2.6612  -2.6558
    -2.6507  -2.6052  -2.5749  -2.5746  -2.5561  -2.5443  -2.5392  -2.5359
    -2.5298  -2.5286  -2.5278  -2.4999  -2.4980  -2.4947  -2.4879  -2.4850
    -2.4726  -2.4452  -2.4447  -2.4425  -2.4417  -2.4381  -2.3958  -2.3658
    -2.3643  -2.3636  -2.3570  -2.3481  -2.3403  -2.3356  -2.3186  -2.3185
    -2.2889  -2.2846  -2.2841  -2.2673  -2.2668  -2.2655  -2.2346  -2.2321
    -2.1946  -2.1873  -2.1837  -2.1814  -2.1806  -2.1756  -2.1751  -2.1707
    -2.1703  -2.1650  -2.1636  -2.1479  -2.1475  -2.0237  -2.0230  -1.9896
    -1.9829  -1.9819  -1.9740  -1.9730  -1.9600  -1.9590  -1.9552  -1.9544
    -1.9475  -1.9298  -1.9251  -1.9240  -1.9127  -1.9074  -1.9017  -1.8877
    -1.8842  -1.8589  -1.8571  -1.8308  -1.8284  -1.8164  -1.8074  -1.7890
    -1.7879  -1.7856  -1.7691  -1.7555  -1.7541  -1.7480  -1.7473  -1.7227
    -1.7221  -1.7061  -1.7051  -1.6729  -1.6675  -1.6631  -1.6152  -1.6120
    -1.5989  -1.5972  -1.5911  -1.5714  -1.5678  -1.5378  -1.5355  -1.5343
    -1.5017  -1.4933  -1.4908  -1.4750  -1.4744  -1.4530  -1.4492  -1.4437
    -1.4193  -1.4157  -1.4146  -1.3544  -1.3521  -1.3413  -1.3399  -1.3261
    -1.3226  -1.3102  -1.3097  -1.2917  -1.2783  -1.2524  -1.2499  -1.2383
    -1.2097  -1.2012  -1.1989  -1.1890  -1.1885  -1.1863  -1.1829  -1.1814
    -1.1665  -1.1421  -1.1383  -1.1266  -1.1245  -1.1226  -1.1167  -1.1030
    -1.0828  -1.0755  -1.0595  -1.0569  -0.9700  -0.9565  -0.9508  -0.9494
    -0.9470  -0.9394  -0.9377  -0.9191  -0.9166  -0.8998  -0.8985  -0.8850
    -0.8846  -0.8781  -0.8576  -0.8548  -0.8520  -0.8440  -0.7753  -0.7700
    -0.7464  -0.7369  -0.7326  -0.7255  -0.7247  -0.7233  -0.7225  -0.7112
    -0.7101  -0.6948  -0.6681  -0.6660  -0.6424  -0.6353  -0.6296  -0.6238
    -0.6223  -0.6128  -0.6100  -0.6090  -0.6075  -0.6012  -0.5908  -0.5862
    -0.5846  -0.5559  -0.5537  -0.5527  -0.5406  -0.5401  -0.5217  -0.4899
    -0.4889  -0.4805  -0.4790  -0.4128  -0.4115  -0.3770  -0.3755  -0.3197
    -0.3171  -0.3158  -0.2952  -0.2923  -0.0627  -0.0515   0.2840   0.2841
     0.3752   0.3862   0.5745   0.5938   0.6022   0.7303   0.7331   1.1639
     1.1645   1.1821   1.4466   1.4737   1.4745   1.7511   1.7624   1.8276
     1.8287   1.8566   1.8621   2.0824   2.0868   2.1755   2.1758   2.2574
     2.3142   2.3229   2.4783   2.5792   3.0128   3.0179   3.0196   3.0211
     3.0702   3.0777   3.3669   3.3688   3.6494   3.6549   3.7637   4.0647
     4.1054   4.1062   4.3361   4.3481   4.4059   4.4069   4.4982   4.6183
     4.6187   4.7350   4.7353   5.0361   5.1064   5.1079   5.2828   5.3013
     5.4539   5.4933   5.4951   5.5207   5.5247   5.5828   5.5872   5.6421
     5.9898   6.0596   6.1871   6.2839   6.2986   6.3197   6.3297   6.3425
     6.3436   6.5783   6.5810   6.6382   6.7604   6.8118   6.8230   6.8635
     6.8903   7.1080   7.1269

          k = 0.2500 0.1443-0.1111 (136898 PWs)   bands (ev):

   -18.7192  -6.6688  -6.5576  -5.8768  -5.5886  -5.5267  -5.5256  -4.9883
    -4.9872  -4.8602  -4.8552  -4.7020  -4.6755  -4.6082  -4.5794  -4.5745
    -4.5410  -4.5405  -4.4120  -4.3703  -4.3701  -4.3122  -4.2925  -4.2897
    -4.1872  -4.1867  -4.1518  -4.1505  -4.1500  -4.1251  -4.1023  -4.1020
    -4.0038  -3.9952  -3.9949  -3.9758  -3.9590  -3.9572  -3.9464  -3.9450
    -3.9335  -3.9029  -3.9019  -3.9013  -3.9005  -3.8703  -3.8688  -3.8518
    -3.8503  -3.8420  -3.7997  -3.7971  -3.7669  -3.7519  -3.7480  -3.7420
    -3.7419  -3.6687  -3.6677  -3.6374  -3.6340  -3.6304  -3.5633  -3.5621
    -3.5520  -3.5464  -3.5186  -3.5176  -3.5170  -3.5155  -3.3683  -3.3606
    -3.3394  -3.3390  -3.3343  -3.3186  -3.3144  -3.2917  -3.2900  -3.2455
    -3.2387  -3.2270  -3.2223  -3.2053  -3.1687  -3.1568  -3.1468  -3.1337
    -3.1291  -3.1099  -3.0886  -3.0851  -3.0801  -3.0731  -3.0643  -3.0397
    -3.0254  -3.0196  -3.0059  -3.0020  -2.9998  -2.9968  -2.9694  -2.9214
    -2.9207  -2.9106  -2.8884  -2.8750  -2.8301  -2.8248  -2.7987  -2.7958
    -2.7849  -2.7826  -2.7746  -2.7503  -2.7487  -2.7385  -2.7220  -2.6999
    -2.6991  -2.6930  -2.6764  -2.6756  -2.6661  -2.6647  -2.6612  -2.6558
    -2.6507  -2.6052  -2.5749  -2.5746  -2.5561  -2.5443  -2.5392  -2.5359
    -2.5298  -2.5286  -2.5278  -2.4999  -2.4980  -2.4947  -2.4879  -2.4850
    -2.4726  -2.4452  -2.4447  -2.4425  -2.4417  -2.4381  -2.3959  -2.3658
    -2.3643  -2.3636  -2.3570  -2.3481  -2.3403  -2.3356  -2.3186  -2.3185
    -2.2889  -2.2846  -2.2841  -2.2673  -2.2668  -2.2655  -2.2346  -2.2322
    -2.1946  -2.1873  -2.1837  -2.1814  -2.1806  -2.1756  -2.1751  -2.1707
    -2.1703  -2.1650  -2.1636  -2.1479  -2.1475  -2.0237  -2.0230  -1.9896
    -1.9829  -1.9819  -1.9740  -1.9730  -1.9600  -1.9590  -1.9552  -1.9544
    -1.9475  -1.9298  -1.9251  -1.9240  -1.9127  -1.9074  -1.9017  -1.8878
    -1.8842  -1.8589  -1.8571  -1.8308  -1.8284  -1.8164  -1.8074  -1.7890
    -1.7879  -1.7856  -1.7691  -1.7555  -1.7541  -1.7480  -1.7473  -1.7227
    -1.7221  -1.7061  -1.7051  -1.6729  -1.6675  -1.6631  -1.6152  -1.6120
    -1.5989  -1.5972  -1.5911  -1.5714  -1.5677  -1.5378  -1.5355  -1.5343
    -1.5017  -1.4933  -1.4908  -1.4750  -1.4744  -1.4530  -1.4492  -1.4437
    -1.4193  -1.4157  -1.4146  -1.3544  -1.3521  -1.3413  -1.3399  -1.3261
    -1.3226  -1.3102  -1.3097  -1.2917  -1.2783  -1.2524  -1.2499  -1.2383
    -1.2097  -1.2012  -1.1989  -1.1890  -1.1885  -1.1863  -1.1829  -1.1814
    -1.1665  -1.1421  -1.1383  -1.1266  -1.1245  -1.1226  -1.1167  -1.1030
    -1.0828  -1.0754  -1.0595  -1.0569  -0.9700  -0.9565  -0.9508  -0.9494
    -0.9470  -0.9394  -0.9377  -0.9192  -0.9166  -0.8998  -0.8985  -0.8850
    -0.8846  -0.8781  -0.8576  -0.8548  -0.8520  -0.8440  -0.7753  -0.7700
    -0.7464  -0.7369  -0.7326  -0.7255  -0.7247  -0.7233  -0.7225  -0.7112
    -0.7101  -0.6948  -0.6681  -0.6660  -0.6424  -0.6353  -0.6296  -0.6238
    -0.6223  -0.6128  -0.6100  -0.6090  -0.6075  -0.6012  -0.5908  -0.5862
    -0.5846  -0.5559  -0.5537  -0.5527  -0.5406  -0.5401  -0.5217  -0.4899
    -0.4889  -0.4805  -0.4790  -0.4128  -0.4115  -0.3770  -0.3755  -0.3197
    -0.3171  -0.3158  -0.2952  -0.2923  -0.0627  -0.0515   0.2839   0.2841
     0.3752   0.3862   0.5745   0.5938   0.6022   0.7303   0.7331   1.1639
     1.1645   1.1821   1.4466   1.4737   1.4745   1.7511   1.7624   1.8276
     1.8287   1.8566   1.8621   2.0824   2.0868   2.1755   2.1758   2.2574
     2.3142   2.3229   2.4783   2.5792   3.0128   3.0179   3.0196   3.0211
     3.0702   3.0777   3.3669   3.3688   3.6494   3.6549   3.7637   4.0647
     4.1054   4.1062   4.3361   4.3481   4.4059   4.4069   4.4982   4.6183
     4.6187   4.7350   4.7353   5.0361   5.1064   5.1079   5.2828   5.3012
     5.4539   5.4933   5.4951   5.5207   5.5247   5.5828   5.5872   5.6421
     5.9900   6.0597   6.1871   6.2837   6.2984   6.3197   6.3297   6.3425
     6.3435   6.5784   6.5810   6.6376   6.7575   6.8115   6.8230   6.8638
     6.8906   7.1110   7.1296

          k = 0.0000-0.2887 0.1111 (136898 PWs)   bands (ev):

   -18.7192  -6.6688  -6.5576  -5.8767  -5.5887  -5.5268  -5.5255  -4.9883
    -4.9872  -4.8601  -4.8549  -4.7021  -4.6755  -4.6081  -4.5801  -4.5744
    -4.5410  -4.5405  -4.4120  -4.3704  -4.3700  -4.3119  -4.2928  -4.2896
    -4.1873  -4.1867  -4.1518  -4.1505  -4.1501  -4.1249  -4.1025  -4.1019
    -4.0029  -3.9951  -3.9950  -3.9755  -3.9591  -3.9572  -3.9468  -3.9449
    -3.9334  -3.9035  -3.9019  -3.9013  -3.9005  -3.8701  -3.8691  -3.8518
    -3.8503  -3.8411  -3.8003  -3.7976  -3.7663  -3.7526  -3.7478  -3.7421
    -3.7418  -3.6687  -3.6677  -3.6374  -3.6343  -3.6303  -3.5632  -3.5620
    -3.5523  -3.5462  -3.5188  -3.5177  -3.5171  -3.5153  -3.3683  -3.3605
    -3.3397  -3.3387  -3.3343  -3.3187  -3.3144  -3.2923  -3.2900  -3.2458
    -3.2387  -3.2264  -3.2222  -3.2056  -3.1684  -3.1567  -3.1468  -3.1335
    -3.1289  -3.1108  -3.0886  -3.0852  -3.0801  -3.0729  -3.0642  -3.0398
    -3.0252  -3.0199  -3.0057  -3.0022  -2.9997  -2.9965  -2.9691  -2.9213
    -2.9206  -2.9106  -2.8883  -2.8748  -2.8302  -2.8249  -2.7985  -2.7957
    -2.7849  -2.7831  -2.7748  -2.7502  -2.7490  -2.7385  -2.7221  -2.6993
    -2.6988  -2.6926  -2.6763  -2.6757  -2.6669  -2.6644  -2.6610  -2.6560
    -2.6507  -2.6052  -2.5751  -2.5746  -2.5560  -2.5442  -2.5393  -2.5361
    -2.5296  -2.5286  -2.5278  -2.4998  -2.4983  -2.4945  -2.4878  -2.4854
    -2.4725  -2.4452  -2.4442  -2.4423  -2.4418  -2.4387  -2.3958  -2.3660
    -2.3641  -2.3633  -2.3571  -2.3481  -2.3400  -2.3361  -2.3186  -2.3185
    -2.2887  -2.2847  -2.2840  -2.2672  -2.2668  -2.2655  -2.2348  -2.2321
    -2.1949  -2.1873  -2.1838  -2.1810  -2.1804  -2.1753  -2.1752  -2.1705
    -2.1704  -2.1646  -2.1638  -2.1480  -2.1475  -2.0240  -2.0227  -1.9896
    -1.9831  -1.9817  -1.9740  -1.9732  -1.9604  -1.9583  -1.9548  -1.9540
    -1.9480  -1.9298  -1.9255  -1.9241  -1.9124  -1.9078  -1.9019  -1.8880
    -1.8841  -1.8593  -1.8570  -1.8303  -1.8282  -1.8164  -1.8074  -1.7887
    -1.7879  -1.7855  -1.7691  -1.7559  -1.7542  -1.7480  -1.7471  -1.7227
    -1.7221  -1.7063  -1.7054  -1.6732  -1.6671  -1.6630  -1.6151  -1.6125
    -1.5987  -1.5971  -1.5912  -1.5715  -1.5678  -1.5381  -1.5357  -1.5339
    -1.5012  -1.4934  -1.4909  -1.4752  -1.4743  -1.4527  -1.4491  -1.4439
    -1.4199  -1.4156  -1.4142  -1.3550  -1.3517  -1.3416  -1.3396  -1.3259
    -1.3228  -1.3102  -1.3096  -1.2915  -1.2784  -1.2520  -1.2503  -1.2383
    -1.2087  -1.2015  -1.1991  -1.1892  -1.1885  -1.1865  -1.1831  -1.1811
    -1.1665  -1.1419  -1.1387  -1.1283  -1.1244  -1.1224  -1.1167  -1.1028
    -1.0832  -1.0756  -1.0593  -1.0571  -0.9696  -0.9569  -0.9509  -0.9492
    -0.9462  -0.9401  -0.9373  -0.9178  -0.9164  -0.9004  -0.8986  -0.8850
    -0.8842  -0.8776  -0.8587  -0.8538  -0.8520  -0.8441  -0.7744  -0.7703
    -0.7474  -0.7360  -0.7326  -0.7263  -0.7247  -0.7233  -0.7226  -0.7136
    -0.7093  -0.6934  -0.6681  -0.6647  -0.6455  -0.6357  -0.6293  -0.6236
    -0.6225  -0.6123  -0.6099  -0.6083  -0.6074  -0.6006  -0.5905  -0.5861
    -0.5848  -0.5558  -0.5533  -0.5529  -0.5407  -0.5403  -0.5215  -0.4897
    -0.4890  -0.4803  -0.4792  -0.4125  -0.4117  -0.3768  -0.3756  -0.3193
    -0.3175  -0.3159  -0.2964  -0.2923  -0.0604  -0.0524   0.2838   0.2842
     0.3768   0.3847   0.5736   0.5940   0.6017   0.7305   0.7326   1.1640
     1.1646   1.1813   1.4466   1.4739   1.4746   1.7534   1.7602   1.8282
     1.8291   1.8576   1.8607   2.0837   2.0864   2.1752   2.1759   2.2574
     2.3160   2.3209   2.4777   2.5796   3.0124   3.0178   3.0199   3.0213
     3.0721   3.0768   3.3674   3.3685   3.6506   3.6535   3.7648   4.0644
     4.1054   4.1067   4.3390   4.3424   4.4059   4.4067   4.4994   4.6175
     4.6187   4.7346   4.7354   5.0368   5.1021   5.1087   5.2843   5.2967
     5.4568   5.4917   5.4962   5.5216   5.5237   5.5817   5.5874   5.6463
     5.9952   6.0539   6.1894   6.2809   6.2966   6.3220   6.3284   6.3427
     6.3440   6.5738   6.5801   6.6383   6.7578   6.8124   6.8244   6.8744
     6.8820   7.1116   7.1255

          k = 0.0000 0.2887 0.1111 (136898 PWs)   bands (ev):

   -18.7192  -6.6688  -6.5576  -5.8767  -5.5887  -5.5268  -5.5255  -4.9883
    -4.9872  -4.8601  -4.8549  -4.7021  -4.6755  -4.6081  -4.5801  -4.5744
    -4.5410  -4.5405  -4.4120  -4.3704  -4.3700  -4.3119  -4.2928  -4.2896
    -4.1873  -4.1867  -4.1518  -4.1505  -4.1501  -4.1249  -4.1025  -4.1019
    -4.0029  -3.9951  -3.9950  -3.9755  -3.9591  -3.9572  -3.9468  -3.9449
    -3.9334  -3.9035  -3.9019  -3.9013  -3.9005  -3.8700  -3.8691  -3.8518
    -3.8503  -3.8411  -3.8003  -3.7976  -3.7663  -3.7526  -3.7478  -3.7421
    -3.7418  -3.6687  -3.6677  -3.6374  -3.6343  -3.6303  -3.5632  -3.5620
    -3.5523  -3.5462  -3.5188  -3.5177  -3.5171  -3.5153  -3.3683  -3.3605
    -3.3397  -3.3387  -3.3343  -3.3187  -3.3144  -3.2923  -3.2900  -3.2458
    -3.2387  -3.2264  -3.2222  -3.2056  -3.1684  -3.1567  -3.1468  -3.1335
    -3.1289  -3.1108  -3.0886  -3.0852  -3.0801  -3.0729  -3.0642  -3.0398
    -3.0253  -3.0199  -3.0057  -3.0022  -2.9997  -2.9965  -2.9691  -2.9213
    -2.9206  -2.9106  -2.8883  -2.8748  -2.8302  -2.8249  -2.7985  -2.7957
    -2.7849  -2.7831  -2.7748  -2.7502  -2.7490  -2.7385  -2.7221  -2.6993
    -2.6988  -2.6926  -2.6763  -2.6757  -2.6669  -2.6644  -2.6610  -2.6560
    -2.6507  -2.6052  -2.5751  -2.5746  -2.5560  -2.5442  -2.5393  -2.5361
    -2.5296  -2.5286  -2.5278  -2.4998  -2.4983  -2.4945  -2.4878  -2.4854
    -2.4725  -2.4452  -2.4442  -2.4423  -2.4418  -2.4387  -2.3958  -2.3660
    -2.3641  -2.3633  -2.3571  -2.3481  -2.3400  -2.3361  -2.3186  -2.3185
    -2.2887  -2.2847  -2.2840  -2.2672  -2.2668  -2.2655  -2.2348  -2.2321
    -2.1949  -2.1873  -2.1838  -2.1810  -2.1804  -2.1753  -2.1753  -2.1705
    -2.1704  -2.1646  -2.1638  -2.1480  -2.1475  -2.0240  -2.0227  -1.9896
    -1.9831  -1.9817  -1.9740  -1.9732  -1.9604  -1.9583  -1.9548  -1.9540
    -1.9480  -1.9298  -1.9255  -1.9241  -1.9124  -1.9078  -1.9018  -1.8880
    -1.8841  -1.8593  -1.8570  -1.8303  -1.8282  -1.8164  -1.8074  -1.7887
    -1.7879  -1.7855  -1.7691  -1.7559  -1.7542  -1.7480  -1.7471  -1.7227
    -1.7221  -1.7063  -1.7054  -1.6732  -1.6672  -1.6630  -1.6151  -1.6125
    -1.5987  -1.5971  -1.5912  -1.5715  -1.5678  -1.5381  -1.5357  -1.5339
    -1.5012  -1.4934  -1.4909  -1.4752  -1.4743  -1.4527  -1.4491  -1.4439
    -1.4199  -1.4156  -1.4142  -1.3550  -1.3517  -1.3416  -1.3396  -1.3259
    -1.3228  -1.3102  -1.3096  -1.2915  -1.2784  -1.2520  -1.2503  -1.2383
    -1.2087  -1.2015  -1.1991  -1.1892  -1.1885  -1.1865  -1.1831  -1.1811
    -1.1665  -1.1419  -1.1387  -1.1283  -1.1244  -1.1225  -1.1167  -1.1028
    -1.0832  -1.0756  -1.0593  -1.0571  -0.9696  -0.9569  -0.9509  -0.9492
    -0.9462  -0.9401  -0.9374  -0.9178  -0.9164  -0.9004  -0.8986  -0.8850
    -0.8842  -0.8776  -0.8587  -0.8538  -0.8520  -0.8441  -0.7744  -0.7703
    -0.7474  -0.7360  -0.7326  -0.7263  -0.7247  -0.7233  -0.7226  -0.7136
    -0.7093  -0.6934  -0.6681  -0.6647  -0.6455  -0.6357  -0.6293  -0.6236
    -0.6225  -0.6123  -0.6099  -0.6083  -0.6074  -0.6006  -0.5905  -0.5861
    -0.5848  -0.5558  -0.5533  -0.5529  -0.5407  -0.5403  -0.5215  -0.4897
    -0.4890  -0.4803  -0.4792  -0.4125  -0.4117  -0.3768  -0.3756  -0.3193
    -0.3175  -0.3159  -0.2963  -0.2923  -0.0604  -0.0524   0.2838   0.2842
     0.3768   0.3847   0.5736   0.5940   0.6017   0.7305   0.7326   1.1640
     1.1646   1.1813   1.4466   1.4739   1.4746   1.7534   1.7602   1.8282
     1.8291   1.8576   1.8607   2.0837   2.0864   2.1752   2.1759   2.2574
     2.3160   2.3209   2.4777   2.5796   3.0124   3.0178   3.0199   3.0213
     3.0721   3.0768   3.3674   3.3685   3.6506   3.6535   3.7648   4.0644
     4.1054   4.1067   4.3390   4.3424   4.4059   4.4067   4.4994   4.6175
     4.6187   4.7346   4.7354   5.0368   5.1021   5.1087   5.2843   5.2967
     5.4568   5.4917   5.4962   5.5215   5.5237   5.5817   5.5874   5.6463
     5.9954   6.0540   6.1894   6.2807   6.2964   6.3220   6.3284   6.3427
     6.3439   6.5739   6.5800   6.6378   6.7551   6.8119   6.8244   6.8745
     6.8823   7.1151   7.1299

     the Fermi energy is     1.3094 ev

!    total energy              =   -6604.42481279 Ry
     Harris-Foulkes estimate   =   -6604.42481279 Ry
     estimated scf accuracy    <          6.7E-09 Ry

     The total energy is the sum of the following terms:

     one-electron contribution =  -48730.96843576 Ry
     hartree contribution      =   24863.38697345 Ry
     xc contribution           =   -3204.99757988 Ry
     ewald contribution        =   20468.15135226 Ry
     smearing contrib. (-TS)   =       0.00287714 Ry

     convergence has been achieved in  24 iterations

     Writing output data file 3656497.save

     init_run     :    135.86s CPU    143.76s WALL (       1 calls)
     electrons    :   7615.99s CPU   8007.47s WALL (       1 calls)

     Called by init_run:
     wfcinit      :    106.35s CPU    113.01s WALL (       1 calls)
     potinit      :      8.88s CPU      9.57s WALL (       1 calls)

     Called by electrons:
     c_bands      :   6451.46s CPU   6758.74s WALL (      25 calls)
     sum_band     :    830.60s CPU    899.53s WALL (      25 calls)
     v_of_rho     :    100.93s CPU    112.50s WALL (      25 calls)
     newd         :    240.09s CPU    242.87s WALL (      25 calls)
     mix_rho      :      3.06s CPU      3.47s WALL (      25 calls)
     vdW_energy   :      6.37s CPU      6.91s WALL (      25 calls)
     vdW_ffts     :     51.53s CPU     57.78s WALL (      50 calls)
     vdW_v        :     13.27s CPU     14.24s WALL (      25 calls)

     Called by c_bands:
     init_us_2    :     13.44s CPU     13.81s WALL (     612 calls)
     cegterg      :   6372.57s CPU   6677.26s WALL (     300 calls)

     Called by *egterg:
     h_psi        :   2731.43s CPU   3000.59s WALL (    1608 calls)
     s_psi        :    410.04s CPU    412.38s WALL (    1608 calls)
     g_psi        :      5.82s CPU      5.81s WALL (    1296 calls)
     cdiaghg      :   1951.22s CPU   1956.75s WALL (    1584 calls)

     Called by h_psi:
     add_vuspsi   :    411.39s CPU    413.52s WALL (    1608 calls)

     General routines
     calbec       :    618.72s CPU    620.93s WALL (    1908 calls)
     fft          :    118.54s CPU    129.75s WALL (    1650 calls)
     ffts         :      1.59s CPU      1.85s WALL (      50 calls)
     fftw         :   2092.01s CPU   2390.79s WALL (  720686 calls)
     interpolate  :      4.06s CPU      4.79s WALL (      50 calls)
     davcio       :      0.01s CPU      0.25s WALL (      12 calls)

     Parallel routines
     fft_scatter  :   1490.39s CPU   1722.02s WALL (  722386 calls)

     PWSCF        :     2h 9m CPU        2h16m WALL


   This run was terminated on:   1:22:53  25Jun2015            

=------------------------------------------------------------------------------=
   JOB DONE.
=------------------------------------------------------------------------------=
