Setting SGE environment for SCC

     Program PWSCF v.5.1.2 starts on 29Aug2015 at 16:34:51 

     This program is part of the open-source Quantum ESPRESSO suite
     for quantum simulation of materials; please cite
         "P. Giannozzi et al., J. Phys.:Condens. Matter 21 395502 (2009);
          URL http://www.quantum-espresso.org", 
     in publications or presentations arising from this work. More details at
     http://www.quantum-espresso.org/quote

     Parallel version (MPI), running on    32 processors
     R & G space division:  proc/nbgrp/npool/nimage =      32
     Reading input from top.O1.Au50.d.4.0.phi.0.psi.0.in
Warning: card &IONS ignored
Warning: card / ignored
Warning: card &CELL ignored
Warning: card / ignored

     Current dimensions of program PWSCF are:
     Max number of different atomic species (ntypx) = 10
     Max number of k-points (npk) =  40000
     Max angular momentum in pseudopotentials (lmaxx) =  3

     IMPORTANT: XC functional enforced from input :
     Exchange-correlation      = VDW-DF ( 1  4  4  0 1 0)
     Any further DFT definition will be discarded
     Please, verify this is what you really want


     Subspace diagonalization in iterative solution of the eigenvalue problem:
     a serial algorithm will be used


     Parallelization info
     --------------------
     sticks:   dense  smooth     PW     G-vecs:    dense   smooth      PW
     Min         445     223     58                96775    34191    4534
     Max         446     224     59                96790    34246    4540
     Sum       14269    7147   1867              3097177  1095093  145167


     Title: 
     top.O1.Au50.d.4.0.phi.0.psi.0                                              


     bravais-lattice index     =            4
     lattice parameter (alat)  =      22.7436  a.u.
     unit-cell volume          =   22924.1508 (a.u.)^3
     number of atoms/cell      =           67
     number of atomic types    =            3
     number of electrons       =       712.00
     number of Kohn-Sham states=          427
     kinetic-energy cutoff     =      50.0000  Ry
     charge density cutoff     =     400.0000  Ry
     convergence threshold     =      1.0E-08
     mixing beta               =       0.7000
     number of iterations used =            8  plain     mixing
     Exchange-correlation      = VDW-DF ( 1  4  4  0 1 0)

     celldm(1)=  22.743643  celldm(2)=   0.000000  celldm(3)=   2.250000
     celldm(4)=   0.000000  celldm(5)=   0.000000  celldm(6)=   0.000000

     crystal axes: (cart. coord. in units of alat)
               a(1) = (   1.000000   0.000000   0.000000 )  
               a(2) = (  -0.500000   0.866025   0.000000 )  
               a(3) = (   0.000000   0.000000   2.250000 )  

     reciprocal axes: (cart. coord. in units 2 pi/alat)
               b(1) = (  1.000000  0.577350 -0.000000 )  
               b(2) = (  0.000000  1.154701  0.000000 )  
               b(3) = (  0.000000 -0.000000  0.444444 )  


     PseudoPot. # 1 for Au read from file:
     /home/scc/andrejb/qe/pseudo/Au.pbe-nd-van.UPF
     MD5 check sum: 458681b50f36d87ef23c61b04bba420a
     Pseudo is Ultrasoft + core correction, Zval = 11.0
     Generated by new atomic code, or converted to UPF format
     Using radial grid of  985 points,  3 beta functions with: 
                l(1) =   1
                l(2) =   2
                l(3) =   2
     Q(r) pseudized with  8 coefficients,  rinner =    1.100   1.100   1.100
                                                       1.100   1.100

     PseudoPot. # 2 for H  read from file:
     /home/scc/andrejb/qe/pseudo/H.pbe-van_ak.UPF
     MD5 check sum: 403db7282739603aa925980fa9b8608d
     Pseudo is Ultrasoft, Zval =  1.0
     Generated by new atomic code, or converted to UPF format
     Using radial grid of  615 points,  1 beta functions with: 
                l(1) =   0
     Q(r) pseudized with  8 coefficients,  rinner =    0.800

     PseudoPot. # 3 for O  read from file:
     /home/scc/andrejb/qe/pseudo/O.pbe-van_ak.UPF
     MD5 check sum: 4b8c549914a63cae506c6ff22b5af4fe
     Pseudo is Ultrasoft, Zval =  6.0
     Generated by new atomic code, or converted to UPF format
     Using radial grid of  737 points,  4 beta functions with: 
                l(1) =   0
                l(2) =   0
                l(3) =   1
                l(4) =   1
     Q(r) pseudized with  8 coefficients,  rinner =    0.800   0.800   0.800


     vdW kernel table read from file vdW_kernel_table
     MD5 check sum: 48e77a2e26edf626eeb0eaa751ad5cac

     atomic species   valence    mass     pseudopotential
        Au            11.00   196.96657     Au( 1.00)
        H              1.00     1.01000     H ( 1.00)
        O              6.00    16.00000     O ( 1.00)

     No symmetry found



   Cartesian axes

     site n.     atom                  positions (alat units)
         1           O   tau(   1) = (   0.4790780   0.3968269   0.9453492  )
         2           H   tau(   2) = (   0.4291446   0.3552792   0.9936027  )
         3           H   tau(   3) = (   0.5274974   0.4371337   0.9961099  )
         4           Au  tau(   4) = (   0.3540481   0.6132292   0.0000000  )
         5           Au  tau(   5) = (   0.4790062   0.3967954   0.0000000  )
         6           Au  tau(   6) = (   0.6039644   0.1803616   0.0000000  )
         7           Au  tau(   7) = (   0.7289225  -0.0360723   0.0000000  )
         8           Au  tau(   8) = (   0.1041318   0.6132292   0.0000000  )
         9           Au  tau(   9) = (   0.2290899   0.3967954   0.0000000  )
        10           Au  tau(  10) = (   0.3540481   0.1803616   0.0000000  )
        11           Au  tau(  11) = (   0.4790062  -0.0360723   0.0000000  )
        12           Au  tau(  12) = (  -0.1457845   0.6132292   0.0000000  )
        13           Au  tau(  13) = (  -0.0208264   0.3967954   0.0000000  )
        14           Au  tau(  14) = (   0.1041318   0.1803616   0.0000000  )
        15           Au  tau(  15) = (   0.2290899  -0.0360723   0.0000000  )
        16           Au  tau(  16) = (  -0.3957008   0.6132292   0.0000000  )
        17           Au  tau(  17) = (  -0.2707426   0.3967954   0.0000000  )
        18           Au  tau(  18) = (  -0.1457845   0.1803616   0.0000000  )
        19           Au  tau(  19) = (  -0.0208264  -0.0360723   0.0000000  )
        20           Au  tau(  20) = (   0.4790062   0.6853738   0.2040557  )
        21           Au  tau(  21) = (   0.6039644   0.4689400   0.2040557  )
        22           Au  tau(  22) = (   0.7289225   0.2525061   0.2040557  )
        23           Au  tau(  23) = (   0.8538806   0.0360723   0.2040557  )
        24           Au  tau(  24) = (   0.2290899   0.6853738   0.2040557  )
        25           Au  tau(  25) = (   0.3540481   0.4689400   0.2040557  )
        26           Au  tau(  26) = (   0.4790062   0.2525061   0.2040557  )
        27           Au  tau(  27) = (   0.6039644   0.0360723   0.2040557  )
        28           Au  tau(  28) = (  -0.0208264   0.6853738   0.2040557  )
        29           Au  tau(  29) = (   0.1041318   0.4689400   0.2040557  )
        30           Au  tau(  30) = (   0.2290899   0.2525061   0.2040557  )
        31           Au  tau(  31) = (   0.3540481   0.0360723   0.2040557  )
        32           Au  tau(  32) = (  -0.2707426   0.6853738   0.2040557  )
        33           Au  tau(  33) = (  -0.1457845   0.4689400   0.2040557  )
        34           Au  tau(  34) = (  -0.0208264   0.2525061   0.2040557  )
        35           Au  tau(  35) = (   0.1041318   0.0360723   0.2040557  )
        36           Au  tau(  36) = (   0.3541162   0.7576593   0.4066483  )
        37           Au  tau(  37) = (   0.4791000   0.5411421   0.4066695  )
        38           Au  tau(  38) = (   0.6040570   0.3246862   0.4066617  )
        39           Au  tau(  39) = (   0.7290270   0.1081684   0.4066529  )
        40           Au  tau(  40) = (   0.1041162   0.7576236   0.4066247  )
        41           Au  tau(  41) = (   0.2291001   0.5411063   0.4066455  )
        42           Au  tau(  42) = (   0.3540567   0.3246505   0.4066380  )
        43           Au  tau(  43) = (   0.4790276   0.1081324   0.4066292  )
        44           Au  tau(  44) = (  -0.1458201   0.7576104   0.4066224  )
        45           Au  tau(  45) = (  -0.0208365   0.5410930   0.4066438  )
        46           Au  tau(  46) = (   0.1041202   0.3246372   0.4066359  )
        47           Au  tau(  47) = (   0.2290908   0.1081193   0.4066273  )
        48           Au  tau(  48) = (  -0.3958167   0.7575791   0.4065812  )
        49           Au  tau(  49) = (  -0.2708328   0.5410617   0.4066025  )
        50           Au  tau(  50) = (  -0.1458763   0.3246061   0.4065947  )
        51           Au  tau(  51) = (  -0.0209056   0.1080882   0.4065858  )
        52           Au  tau(  52) = (   0.3541085   0.6133344   0.6129762  )
        53           Au  tau(  53) = (   0.4790780   0.3968269   0.6129968  )
        54           Au  tau(  54) = (   0.6040356   0.1803811   0.6129859  )
        55           Au  tau(  55) = (   0.7290165  -0.0361221   0.6129385  )
        56           Au  tau(  56) = (   0.1041243   0.6133091   0.6130022  )
        57           Au  tau(  57) = (   0.2290941   0.3968013   0.6130241  )
        58           Au  tau(  58) = (   0.3540515   0.1803552   0.6130121  )
        59           Au  tau(  59) = (   0.4790323  -0.0361475   0.6129659  )
        60           Au  tau(  60) = (  -0.1458030   0.6133014   0.6129980  )
        61           Au  tau(  61) = (  -0.0208339   0.3967936   0.6130188  )
        62           Au  tau(  62) = (   0.1041239   0.1803477   0.6130083  )
        63           Au  tau(  63) = (   0.2291046  -0.0361554   0.6129607  )
        64           Au  tau(  64) = (  -0.3957908   0.6132739   0.6129471  )
        65           Au  tau(  65) = (  -0.2708208   0.3967658   0.6129688  )
        66           Au  tau(  66) = (  -0.1458636   0.1803200   0.6129569  )
        67           Au  tau(  67) = (  -0.0208823  -0.0361826   0.6129110  )

     number of k points=    12  Marzari-Vanderbilt smearing, width (Ry)=  0.0200
                       cart. coord. in units 2pi/alat
        k(    1) = (   0.2500000   0.4330127   0.1111111), wk =   0.1666667
        k(    2) = (   0.2500000  -0.1443376   0.1111111), wk =   0.1666667
        k(    3) = (  -0.2500000  -0.4330127   0.1111111), wk =   0.1666667
        k(    4) = (  -0.2500000   0.4330127  -0.1111111), wk =   0.1666667
        k(    5) = (   0.2500000  -0.4330127  -0.1111111), wk =   0.1666667
        k(    6) = (   0.5000000   0.0000000   0.1111111), wk =   0.1666667
        k(    7) = (  -0.5000000   0.0000000   0.1111111), wk =   0.1666667
        k(    8) = (  -0.2500000   0.1443376   0.1111111), wk =   0.1666667
        k(    9) = (  -0.2500000  -0.1443376  -0.1111111), wk =   0.1666667
        k(   10) = (   0.2500000   0.1443376  -0.1111111), wk =   0.1666667
        k(   11) = (   0.0000000  -0.2886751   0.1111111), wk =   0.1666667
        k(   12) = (   0.0000000   0.2886751   0.1111111), wk =   0.1666667

     Dense  grid:  3097177 G-vectors     FFT dimensions: ( 150, 150, 360)

     Smooth grid:  1095093 G-vectors     FFT dimensions: ( 108, 108, 240)

     Largest allocated arrays     est. size (Mb)     dimensions
        Kohn-Sham Wavefunctions        28.01 Mb     (    4299,  427)
        NL pseudopotentials            55.23 Mb     (    4299,  842)
        Each V/rho on FFT grid          4.12 Mb     (  270000)
        Each G-vector array             0.74 Mb     (   96788)
        G-vector shells                 0.16 Mb     (   21404)
     Largest temporary arrays     est. size (Mb)     dimensions
        Auxiliary wavefunctions       112.04 Mb     (    4299, 1708)
        Each subspace H/S matrix       44.51 Mb     (    1708, 1708)
        Each <psi_i|beta_j> matrix      5.49 Mb     (     842,  427)
        Arrays for rho mixing          32.96 Mb     (  270000,    8)

     Initial potential from superposition of free atoms
     Check: negative starting charge=   -1.730000

     starting charge  711.25682, renormalised to  712.00000

     negative rho (up, down):  1.732E+00 0.000E+00


     ************************************************************************
     *
     * You are using vdW-DF for exchange-correlation in this calculation.
     * Please cite the following three references that made this development
     * possible:
     *
     *   M. Dion, H. Rydberg, E. Schroder, D. C. Langreth, and
     *   B. I. Lundqvist, Phys. Rev. Lett. 92, 246401 (2004).
     *
     *   T. Thonhauser, V. R. Cooper, S. Li, A. Puzder, P. Hyldgaard, and
     *   D. C. Langreth, Phys. Rev. B 76, 125112 (2007).
     *
     *   G. Roman-Perez and J. M. Soler, Phys. Rev. Lett. 103, 096102 (2009).
     *
     *
     * If you are using vdW-DF2, please also cite:
     *
     *   K. Lee, E. D. Murray, L. Kong, B. I. Lundqvist, and
     *   D. C. Langreth, Phys. Rev. B 82, 081101(R) (2010).
     *
     *
     * If you are calculating the stress with vdW-DF, please also cite:
     *
     *   R. Sabatini, E. Kucukbenli, B. Kolb, T. Thonhauser, and
     *   S. de Gironcoli, J. Phys.: Condens. Matter 24, 424209 (2012).
     *
     ************************************************************************

     Carrying out vdW-DF run using the following parameters:

     Nqs =      20    Nr_points =    1024   r_max =   100.000
     q_mesh =
               0.00001000     0.04494208     0.09755937     0.15916263
               0.23128650     0.31572767     0.41458969     0.53033537
               0.66584808     0.82450364     1.01025438     1.22772762
               1.48234092     1.78043706     2.12944203     2.53805004
               3.01644009     3.57652955     4.23227104     5.00000000

     Gradients computed in reciprocal space

     ************************************************************************


     Starting wfc are  582 randomized atomic wfcs

     total cpu time spent up to now is      145.1 secs

     Self-consistent Calculation

     iteration #  1     ecut=    50.00 Ry     beta=0.70
     Davidson diagonalization with overlap
     ethr =  1.00E-02,  avg # of iterations =  3.0

     Threshold (ethr) on eigenvalues was too large:
     Diagonalizing with lowered threshold

     Davidson diagonalization with overlap
     ethr =  3.54E-04,  avg # of iterations =  4.6

     negative rho (up, down):  1.728E+00 0.000E+00

     total cpu time spent up to now is      724.8 secs

     total energy              =   -6602.76538713 Ry
     Harris-Foulkes estimate   =   -6605.05209670 Ry
     estimated scf accuracy    <       2.85952701 Ry

     iteration #  2     ecut=    50.00 Ry     beta=0.70
     Davidson diagonalization with overlap
     ethr =  4.02E-04,  avg # of iterations = 11.3

     negative rho (up, down):  1.725E+00 0.000E+00

     total cpu time spent up to now is     1581.6 secs

     total energy              =   -6596.36916931 Ry
     Harris-Foulkes estimate   =   -6610.21922961 Ry
     estimated scf accuracy    <      78.03070103 Ry

     iteration #  3     ecut=    50.00 Ry     beta=0.70
     Davidson diagonalization with overlap
     ethr =  4.02E-04,  avg # of iterations =  6.2

     negative rho (up, down):  1.735E+00 0.000E+00

     total cpu time spent up to now is     2178.5 secs

     total energy              =   -6603.17331032 Ry
     Harris-Foulkes estimate   =   -6605.00576953 Ry
     estimated scf accuracy    <       8.36024600 Ry

     iteration #  4     ecut=    50.00 Ry     beta=0.70
     Davidson diagonalization with overlap
     ethr =  4.02E-04,  avg # of iterations =  6.2

     negative rho (up, down):  1.737E+00 0.000E+00

     total cpu time spent up to now is     2563.8 secs

     total energy              =   -6603.79466332 Ry
     Harris-Foulkes estimate   =   -6604.88143937 Ry
     estimated scf accuracy    <       7.99073585 Ry

     iteration #  5     ecut=    50.00 Ry     beta=0.70
     Davidson diagonalization with overlap
     ethr =  4.02E-04,  avg # of iterations =  6.0

     negative rho (up, down):  1.747E+00 0.000E+00

     total cpu time spent up to now is     2928.4 secs

     total energy              =   -6604.22770094 Ry
     Harris-Foulkes estimate   =   -6604.71084774 Ry
     estimated scf accuracy    <       4.41305481 Ry

     iteration #  6     ecut=    50.00 Ry     beta=0.70
     Davidson diagonalization with overlap
     ethr =  4.02E-04,  avg # of iterations =  3.0

     negative rho (up, down):  1.751E+00 0.000E+00

     total cpu time spent up to now is     3228.2 secs

     total energy              =   -6604.42601582 Ry
     Harris-Foulkes estimate   =   -6604.46599735 Ry
     estimated scf accuracy    <       0.12020657 Ry

     iteration #  7     ecut=    50.00 Ry     beta=0.70
     Davidson diagonalization with overlap
     ethr =  1.69E-05,  avg # of iterations = 11.6

     negative rho (up, down):  1.753E+00 0.000E+00

     total cpu time spent up to now is     3783.7 secs

     total energy              =   -6604.42998005 Ry
     Harris-Foulkes estimate   =   -6604.45611389 Ry
     estimated scf accuracy    <       0.10847197 Ry

     iteration #  8     ecut=    50.00 Ry     beta=0.70
     Davidson diagonalization with overlap
     ethr =  1.52E-05,  avg # of iterations =  3.4

     negative rho (up, down):  1.755E+00 0.000E+00

     total cpu time spent up to now is     4111.1 secs

     total energy              =   -6604.43295646 Ry
     Harris-Foulkes estimate   =   -6604.44596907 Ry
     estimated scf accuracy    <       0.04810770 Ry

     iteration #  9     ecut=    50.00 Ry     beta=0.70
     Davidson diagonalization with overlap
     ethr =  6.76E-06,  avg # of iterations = 11.3

     negative rho (up, down):  1.756E+00 0.000E+00

     total cpu time spent up to now is     4563.9 secs

     total energy              =   -6604.43295335 Ry
     Harris-Foulkes estimate   =   -6604.43917946 Ry
     estimated scf accuracy    <       0.02147286 Ry

     iteration # 10     ecut=    50.00 Ry     beta=0.70
     Davidson diagonalization with overlap
     ethr =  3.02E-06,  avg # of iterations =  9.8

     negative rho (up, down):  1.757E+00 0.000E+00

     total cpu time spent up to now is     4990.6 secs

     total energy              =   -6604.43276154 Ry
     Harris-Foulkes estimate   =   -6604.43555981 Ry
     estimated scf accuracy    <       0.00959667 Ry

     iteration # 11     ecut=    50.00 Ry     beta=0.70
     Davidson diagonalization with overlap
     c_bands:  1 eigenvalues not converged
     c_bands:  1 eigenvalues not converged
     ethr =  1.35E-06,  avg # of iterations = 15.3

     negative rho (up, down):  1.757E+00 0.000E+00

     total cpu time spent up to now is     5531.5 secs

     total energy              =   -6604.43263007 Ry
     Harris-Foulkes estimate   =   -6604.43384853 Ry
     estimated scf accuracy    <       0.00526126 Ry

     iteration # 12     ecut=    50.00 Ry     beta=0.70
     Davidson diagonalization with overlap
     ethr =  7.39E-07,  avg # of iterations =  3.9

     negative rho (up, down):  1.758E+00 0.000E+00

     total cpu time spent up to now is     5856.8 secs

     total energy              =   -6604.43178401 Ry
     Harris-Foulkes estimate   =   -6604.43305148 Ry
     estimated scf accuracy    <       0.00188321 Ry

     iteration # 13     ecut=    50.00 Ry     beta=0.70
     Davidson diagonalization with overlap
     ethr =  2.64E-07,  avg # of iterations = 12.8

     negative rho (up, down):  1.758E+00 0.000E+00

     total cpu time spent up to now is     6366.9 secs

     total energy              =   -6604.43207380 Ry
     Harris-Foulkes estimate   =   -6604.43221086 Ry
     estimated scf accuracy    <       0.00029849 Ry

     iteration # 14     ecut=    50.00 Ry     beta=0.70
     Davidson diagonalization with overlap
     ethr =  4.19E-08,  avg # of iterations =  3.0

     negative rho (up, down):  1.758E+00 0.000E+00

     total cpu time spent up to now is     6745.6 secs

     total energy              =   -6604.43212068 Ry
     Harris-Foulkes estimate   =   -6604.43219016 Ry
     estimated scf accuracy    <       0.00022745 Ry

     iteration # 15     ecut=    50.00 Ry     beta=0.70
     Davidson diagonalization with overlap
     ethr =  3.19E-08,  avg # of iterations =  2.0

     negative rho (up, down):  1.758E+00 0.000E+00

     total cpu time spent up to now is     7056.1 secs

     total energy              =   -6604.43213814 Ry
     Harris-Foulkes estimate   =   -6604.43218016 Ry
     estimated scf accuracy    <       0.00017267 Ry

     iteration # 16     ecut=    50.00 Ry     beta=0.70
     Davidson diagonalization with overlap
     ethr =  2.43E-08,  avg # of iterations =  2.0

     negative rho (up, down):  1.758E+00 0.000E+00

     total cpu time spent up to now is     7341.5 secs

     total energy              =   -6604.43215314 Ry
     Harris-Foulkes estimate   =   -6604.43216674 Ry
     estimated scf accuracy    <       0.00004990 Ry

     iteration # 17     ecut=    50.00 Ry     beta=0.70
     Davidson diagonalization with overlap
     ethr =  7.01E-09,  avg # of iterations =  2.0

     negative rho (up, down):  1.758E+00 0.000E+00

     total cpu time spent up to now is     7632.4 secs

     total energy              =   -6604.43215145 Ry
     Harris-Foulkes estimate   =   -6604.43217197 Ry
     estimated scf accuracy    <       0.00020419 Ry

     iteration # 18     ecut=    50.00 Ry     beta=0.70
     Davidson diagonalization with overlap
     ethr =  7.01E-09,  avg # of iterations =  1.0

     negative rho (up, down):  1.758E+00 0.000E+00

     total cpu time spent up to now is     7911.1 secs

     total energy              =   -6604.43216115 Ry
     Harris-Foulkes estimate   =   -6604.43216399 Ry
     estimated scf accuracy    <       0.00001580 Ry

     iteration # 19     ecut=    50.00 Ry     beta=0.70
     Davidson diagonalization with overlap
     ethr =  2.22E-09,  avg # of iterations =  2.0

     negative rho (up, down):  1.758E+00 0.000E+00

     total cpu time spent up to now is     8212.2 secs

     total energy              =   -6604.43216272 Ry
     Harris-Foulkes estimate   =   -6604.43216320 Ry
     estimated scf accuracy    <       0.00000210 Ry

     iteration # 20     ecut=    50.00 Ry     beta=0.70
     Davidson diagonalization with overlap
     ethr =  2.94E-10,  avg # of iterations =  2.0

     negative rho (up, down):  1.758E+00 0.000E+00

     total cpu time spent up to now is     8556.1 secs

     total energy              =   -6604.43216306 Ry
     Harris-Foulkes estimate   =   -6604.43216335 Ry
     estimated scf accuracy    <       0.00000185 Ry

     iteration # 21     ecut=    50.00 Ry     beta=0.70
     Davidson diagonalization with overlap
     ethr =  2.60E-10,  avg # of iterations =  2.0

     negative rho (up, down):  1.758E+00 0.000E+00

     total cpu time spent up to now is     8856.5 secs

     total energy              =   -6604.43216339 Ry
     Harris-Foulkes estimate   =   -6604.43216335 Ry
     estimated scf accuracy    <       0.00000029 Ry

     iteration # 22     ecut=    50.00 Ry     beta=0.70
     Davidson diagonalization with overlap
     ethr =  4.11E-11,  avg # of iterations =  2.0

     negative rho (up, down):  1.758E+00 0.000E+00

     total cpu time spent up to now is     9155.2 secs

     End of self-consistent calculation

          k = 0.2500 0.4330 0.1111 (136853 PWs)   bands (ev):

   -18.8445  -6.6580  -6.2336  -5.8343  -5.8340  -5.1559  -4.8228  -4.8227
    -4.7835  -4.7826  -4.4225  -4.4224  -4.3238  -4.3238  -4.3097  -4.2886
    -4.2607  -4.1563  -4.1560  -4.1320  -4.0885  -4.0885  -4.0196  -4.0194
    -4.0124  -4.0122  -3.9914  -3.9856  -3.9854  -3.9125  -3.9112  -3.8831
    -3.8830  -3.8710  -3.8708  -3.8476  -3.8476  -3.8251  -3.8166  -3.8165
    -3.7897  -3.7376  -3.7375  -3.6897  -3.6896  -3.6300  -3.6299  -3.5757
    -3.5756  -3.5748  -3.5747  -3.5397  -3.4996  -3.4995  -3.4941  -3.4928
    -3.4926  -3.4620  -3.4611  -3.4534  -3.3910  -3.3907  -3.3810  -3.3655
    -3.3585  -3.2856  -3.2855  -3.2523  -3.2511  -3.2243  -3.2239  -3.2110
    -3.1943  -3.1338  -3.1335  -3.1165  -3.1163  -3.0641  -3.0591  -3.0590
    -3.0215  -2.9898  -2.9887  -2.9814  -2.9809  -2.9673  -2.9671  -2.9594
    -2.9590  -2.9492  -2.9092  -2.8923  -2.8711  -2.8701  -2.8562  -2.8559
    -2.8306  -2.8203  -2.8200  -2.7982  -2.7544  -2.7537  -2.7447  -2.7054
    -2.6992  -2.6877  -2.6874  -2.6582  -2.6576  -2.6289  -2.5910  -2.5909
    -2.5684  -2.5617  -2.5476  -2.5471  -2.4967  -2.4966  -2.4640  -2.4412
    -2.4411  -2.4170  -2.4165  -2.4057  -2.4054  -2.3947  -2.3717  -2.3716
    -2.3274  -2.3271  -2.3259  -2.3088  -2.3085  -2.3039  -2.2938  -2.2936
    -2.2909  -2.2908  -2.2855  -2.2724  -2.2721  -2.2609  -2.2361  -2.2359
    -2.2344  -2.2335  -2.2328  -2.2305  -2.2297  -2.2018  -2.1990  -2.1848
    -2.1846  -2.1672  -2.1670  -2.1569  -2.1567  -2.1553  -2.1547  -2.1355
    -2.1343  -2.1336  -2.1323  -2.1156  -2.0894  -2.0894  -2.0497  -2.0495
    -2.0235  -2.0233  -1.9963  -1.9961  -1.9683  -1.9682  -1.9512  -1.9467
    -1.9199  -1.8968  -1.8963  -1.8918  -1.8912  -1.8872  -1.8801  -1.8790
    -1.8542  -1.8475  -1.8365  -1.7811  -1.7768  -1.7758  -1.7733  -1.7729
    -1.7346  -1.7177  -1.7174  -1.6893  -1.6890  -1.6285  -1.6280  -1.5996
    -1.5814  -1.5809  -1.5200  -1.5199  -1.5083  -1.5074  -1.4971  -1.4964
    -1.4936  -1.4838  -1.4830  -1.4279  -1.4274  -1.4155  -1.4154  -1.4147
    -1.3959  -1.3946  -1.3598  -1.3594  -1.3424  -1.3423  -1.3420  -1.3357
    -1.3304  -1.3212  -1.3199  -1.3017  -1.3015  -1.2600  -1.2587  -1.2474
    -1.2463  -1.2265  -1.2138  -1.1702  -1.1692  -1.1439  -1.1390  -1.1386
    -1.1098  -1.0583  -1.0576  -1.0567  -1.0560  -1.0509  -1.0499  -1.0399
    -1.0216  -1.0210  -0.9817  -0.9808  -0.9505  -0.9502  -0.9456  -0.9454
    -0.9370  -0.9210  -0.9206  -0.9199  -0.9169  -0.9165  -0.8819  -0.8776
    -0.8772  -0.8768  -0.8550  -0.8450  -0.8438  -0.8387  -0.8177  -0.8098
    -0.8088  -0.7629  -0.7561  -0.7549  -0.7207  -0.7125  -0.7017  -0.7016
    -0.6933  -0.6930  -0.6923  -0.6911  -0.6801  -0.6796  -0.6536  -0.6535
    -0.6508  -0.6486  -0.6481  -0.6114  -0.6111  -0.6002  -0.5999  -0.5848
    -0.5775  -0.5764  -0.5653  -0.5099  -0.5072  -0.4984  -0.4983  -0.4972
    -0.4968  -0.4917  -0.4724  -0.4713  -0.4633  -0.4631  -0.4612  -0.4608
    -0.4216  -0.4192  -0.4187  -0.4109  -0.4101  -0.4051  -0.4033  -0.3937
    -0.3876  -0.3840  -0.3836  -0.3415  -0.3413  -0.3328  -0.3295  -0.3290
    -0.2520  -0.2512  -0.2490  -0.2487  -0.2396  -0.2394  -0.2029  -0.1901
    -0.1899  -0.1630  -0.1596  -0.1578  -0.0370  -0.0351   0.0660   0.4812
     0.4815   0.4844   0.4844   0.5448   0.5465   0.9344   0.9349   0.9774
     0.9777   1.0851   1.1658   1.2753   1.2795   1.4953   1.5027   2.1314
     2.1324   2.2935   2.2950   2.4245   2.4272   2.5300   2.5301   2.6842
     2.9216   2.9258   3.0445   3.2680   3.2728   3.3541   3.3546   3.4542
     3.4693   3.6594   3.6685   3.7260   3.9262   3.9268   3.9884   3.9907
     4.2465   4.2532   4.2557   4.4969   4.5391   4.5399   4.5847   4.9201
     4.9221   4.9506   5.0849   5.1161   5.2573   5.2576   5.3135   5.3340
     5.7289   5.9499   6.0334   6.0450   6.0508   6.0557   6.1203   6.1207
     6.1929   6.2306   6.2553   6.2790   6.2830   6.2952   6.2953   6.3142
     6.3432   6.3455   6.4978   6.5706   6.7420   6.7951   6.8818   6.9663
     6.9889   6.9911   7.0014

          k = 0.2500-0.1443 0.1111 (136898 PWs)   bands (ev):

   -18.8445  -6.6580  -6.4435  -5.6514  -5.3598  -5.3012  -5.3010  -4.7628
    -4.7626  -4.6307  -4.6303  -4.4760  -4.4435  -4.3831  -4.3492  -4.3486
    -4.3161  -4.3160  -4.1875  -4.1457  -4.1457  -4.0856  -4.0644  -4.0641
    -3.9622  -3.9622  -3.9260  -3.9258  -3.9257  -3.8987  -3.8772  -3.8772
    -3.7713  -3.7700  -3.7700  -3.7492  -3.7324  -3.7322  -3.7200  -3.7198
    -3.7066  -3.6765  -3.6764  -3.6763  -3.6761  -3.6435  -3.6434  -3.6258
    -3.6257  -3.6104  -3.5668  -3.5666  -3.5373  -3.5219  -3.5214  -3.5175
    -3.5175  -3.4428  -3.4427  -3.4071  -3.4048  -3.4047  -3.3373  -3.3372
    -3.3218  -3.3216  -3.2904  -3.2903  -3.2895  -3.2893  -3.1363  -3.1360
    -3.1102  -3.1100  -3.1050  -3.0891  -3.0891  -3.0631  -3.0630  -3.0132
    -3.0132  -2.9969  -2.9967  -2.9767  -2.9280  -2.9275  -2.9091  -2.9041
    -2.9032  -2.8918  -2.8621  -2.8615  -2.8559  -2.8542  -2.8390  -2.8379
    -2.7993  -2.7991  -2.7774  -2.7773  -2.7742  -2.7737  -2.7711  -2.6937
    -2.6935  -2.6921  -2.6636  -2.6631  -2.6015  -2.6013  -2.5732  -2.5719
    -2.5588  -2.5585  -2.5535  -2.5237  -2.5236  -2.5141  -2.4964  -2.4706
    -2.4704  -2.4702  -2.4496  -2.4494  -2.4382  -2.4379  -2.4348  -2.4341
    -2.4269  -2.3807  -2.3480  -2.3478  -2.3324  -2.3183  -2.3119  -2.3117
    -2.3044  -2.3040  -2.3028  -2.2729  -2.2726  -2.2723  -2.2628  -2.2626
    -2.2453  -2.2179  -2.2173  -2.2168  -2.2160  -2.2155  -2.1709  -2.1391
    -2.1391  -2.1387  -2.1322  -2.1234  -2.1101  -2.1099  -2.0935  -2.0934
    -2.0591  -2.0584  -2.0582  -2.0398  -2.0379  -2.0377  -2.0048  -2.0043
    -1.9633  -1.9631  -1.9557  -1.9538  -1.9536  -1.9471  -1.9466  -1.9445
    -1.9442  -1.9375  -1.9367  -1.9204  -1.9198  -1.7931  -1.7925  -1.7606
    -1.7550  -1.7541  -1.7493  -1.7491  -1.7311  -1.7308  -1.7282  -1.7280
    -1.7261  -1.7035  -1.6948  -1.6944  -1.6909  -1.6831  -1.6825  -1.6599
    -1.6598  -1.6313  -1.6312  -1.5987  -1.5985  -1.5887  -1.5805  -1.5628
    -1.5623  -1.5597  -1.5412  -1.5289  -1.5288  -1.5214  -1.5213  -1.4944
    -1.4943  -1.4773  -1.4772  -1.4454  -1.4445  -1.4350  -1.3839  -1.3838
    -1.3717  -1.3710  -1.3702  -1.3460  -1.3435  -1.3096  -1.3090  -1.3087
    -1.2752  -1.2653  -1.2646  -1.2494  -1.2491  -1.2224  -1.2211  -1.2206
    -1.1913  -1.1885  -1.1881  -1.1257  -1.1252  -1.1123  -1.1114  -1.0957
    -1.0955  -1.0831  -1.0828  -1.0650  -1.0522  -1.0244  -1.0241  -1.0129
    -0.9855  -0.9747  -0.9738  -0.9629  -0.9628  -0.9604  -0.9552  -0.9546
    -0.9420  -0.9106  -0.9104  -0.9004  -0.8992  -0.8983  -0.8965  -0.8737
    -0.8592  -0.8553  -0.8464  -0.8345  -0.8323  -0.7410  -0.7281  -0.7224
    -0.7222  -0.7183  -0.7128  -0.7123  -0.6913  -0.6865  -0.6719  -0.6707
    -0.6567  -0.6562  -0.6474  -0.6276  -0.6263  -0.6251  -0.6169  -0.5453
    -0.5451  -0.5114  -0.5101  -0.5068  -0.4999  -0.4990  -0.4984  -0.4981
    -0.4853  -0.4844  -0.4692  -0.4442  -0.4295  -0.4096  -0.4090  -0.3981
    -0.3975  -0.3853  -0.3847  -0.3840  -0.3824  -0.3820  -0.3647  -0.3606
    -0.3601  -0.3297  -0.3283  -0.3278  -0.3160  -0.3159  -0.2966  -0.2645
    -0.2642  -0.2552  -0.2548  -0.1869  -0.1867  -0.1495  -0.1493  -0.0922
    -0.0895  -0.0892  -0.0794  -0.0602   0.1607   0.1643   0.5096   0.5096
     0.5996   0.6031   0.7943   0.8088   0.8273   0.9580   0.9588   1.3898
     1.3898   1.4084   1.6658   1.6998   1.6998   1.9744   1.9802   2.0563
     2.0566   2.0825   2.0858   2.3129   2.3130   2.4008   2.4011   2.4721
     2.5376   2.5438   2.7050   2.8023   3.2433   3.2440   3.2462   3.2482
     3.3020   3.3021   3.5941   3.5942   3.8742   3.8780   3.9767   4.2898
     4.3321   4.3347   4.5438   4.5553   4.6337   4.6347   4.7250   4.8426
     4.8441   4.9599   4.9610   5.0809   5.2649   5.3331   5.3356   5.4891
     5.5062   5.7199   5.7213   5.7243   5.7479   5.7483   5.8113   5.8125
     5.8581   6.0526   6.2551   6.2735   6.4185   6.4390   6.5490   6.5546
     6.5559   6.5666   6.5716   6.7396   6.8077   6.8101   6.8139   6.9770
     7.0081   7.0275   7.0437

          k =-0.2500-0.4330 0.1111 (136853 PWs)   bands (ev):

   -18.8445  -6.6580  -6.2336  -5.8343  -5.8340  -5.1559  -4.8228  -4.8227
    -4.7835  -4.7826  -4.4225  -4.4224  -4.3238  -4.3238  -4.3097  -4.2886
    -4.2607  -4.1563  -4.1560  -4.1320  -4.0885  -4.0885  -4.0196  -4.0194
    -4.0124  -4.0122  -3.9914  -3.9856  -3.9854  -3.9125  -3.9112  -3.8831
    -3.8830  -3.8710  -3.8708  -3.8476  -3.8476  -3.8251  -3.8166  -3.8165
    -3.7897  -3.7376  -3.7375  -3.6897  -3.6896  -3.6300  -3.6299  -3.5757
    -3.5756  -3.5748  -3.5747  -3.5397  -3.4996  -3.4995  -3.4941  -3.4928
    -3.4926  -3.4620  -3.4611  -3.4534  -3.3910  -3.3907  -3.3810  -3.3655
    -3.3585  -3.2856  -3.2855  -3.2523  -3.2511  -3.2243  -3.2239  -3.2110
    -3.1943  -3.1338  -3.1335  -3.1165  -3.1163  -3.0641  -3.0591  -3.0590
    -3.0215  -2.9898  -2.9887  -2.9814  -2.9809  -2.9673  -2.9671  -2.9594
    -2.9590  -2.9492  -2.9092  -2.8923  -2.8711  -2.8701  -2.8562  -2.8559
    -2.8306  -2.8203  -2.8200  -2.7982  -2.7544  -2.7537  -2.7447  -2.7054
    -2.6992  -2.6877  -2.6874  -2.6582  -2.6576  -2.6289  -2.5910  -2.5909
    -2.5684  -2.5617  -2.5476  -2.5471  -2.4967  -2.4966  -2.4640  -2.4412
    -2.4411  -2.4170  -2.4165  -2.4057  -2.4054  -2.3947  -2.3717  -2.3716
    -2.3274  -2.3271  -2.3259  -2.3088  -2.3085  -2.3039  -2.2938  -2.2936
    -2.2909  -2.2908  -2.2855  -2.2724  -2.2721  -2.2609  -2.2361  -2.2359
    -2.2344  -2.2335  -2.2328  -2.2305  -2.2297  -2.2018  -2.1990  -2.1848
    -2.1846  -2.1672  -2.1670  -2.1569  -2.1567  -2.1553  -2.1547  -2.1355
    -2.1343  -2.1336  -2.1323  -2.1156  -2.0894  -2.0894  -2.0497  -2.0495
    -2.0235  -2.0233  -1.9963  -1.9961  -1.9683  -1.9682  -1.9512  -1.9467
    -1.9199  -1.8968  -1.8963  -1.8918  -1.8912  -1.8872  -1.8801  -1.8790
    -1.8542  -1.8475  -1.8365  -1.7811  -1.7768  -1.7758  -1.7733  -1.7729
    -1.7346  -1.7177  -1.7174  -1.6893  -1.6890  -1.6285  -1.6280  -1.5996
    -1.5814  -1.5809  -1.5200  -1.5199  -1.5083  -1.5074  -1.4971  -1.4964
    -1.4936  -1.4838  -1.4830  -1.4279  -1.4274  -1.4155  -1.4154  -1.4147
    -1.3959  -1.3946  -1.3598  -1.3594  -1.3424  -1.3423  -1.3420  -1.3357
    -1.3304  -1.3212  -1.3199  -1.3017  -1.3015  -1.2600  -1.2587  -1.2474
    -1.2463  -1.2265  -1.2138  -1.1702  -1.1692  -1.1439  -1.1390  -1.1386
    -1.1098  -1.0583  -1.0576  -1.0567  -1.0560  -1.0509  -1.0499  -1.0399
    -1.0216  -1.0210  -0.9817  -0.9808  -0.9505  -0.9502  -0.9456  -0.9454
    -0.9370  -0.9210  -0.9206  -0.9199  -0.9169  -0.9165  -0.8819  -0.8776
    -0.8772  -0.8768  -0.8550  -0.8450  -0.8438  -0.8387  -0.8177  -0.8098
    -0.8088  -0.7629  -0.7561  -0.7549  -0.7207  -0.7125  -0.7017  -0.7016
    -0.6933  -0.6930  -0.6923  -0.6911  -0.6801  -0.6796  -0.6536  -0.6535
    -0.6508  -0.6486  -0.6481  -0.6114  -0.6111  -0.6002  -0.5999  -0.5848
    -0.5775  -0.5764  -0.5653  -0.5099  -0.5072  -0.4984  -0.4983  -0.4972
    -0.4968  -0.4917  -0.4724  -0.4713  -0.4633  -0.4631  -0.4612  -0.4608
    -0.4216  -0.4192  -0.4187  -0.4109  -0.4101  -0.4051  -0.4033  -0.3937
    -0.3876  -0.3840  -0.3836  -0.3415  -0.3413  -0.3328  -0.3295  -0.3290
    -0.2520  -0.2512  -0.2490  -0.2487  -0.2396  -0.2394  -0.2029  -0.1901
    -0.1899  -0.1630  -0.1596  -0.1578  -0.0370  -0.0351   0.0660   0.4812
     0.4815   0.4844   0.4844   0.5448   0.5465   0.9344   0.9349   0.9774
     0.9777   1.0851   1.1658   1.2753   1.2795   1.4953   1.5027   2.1314
     2.1324   2.2935   2.2950   2.4245   2.4272   2.5300   2.5301   2.6842
     2.9216   2.9258   3.0445   3.2680   3.2728   3.3541   3.3546   3.4542
     3.4693   3.6594   3.6685   3.7260   3.9262   3.9268   3.9884   3.9907
     4.2465   4.2532   4.2557   4.4969   4.5391   4.5399   4.5847   4.9201
     4.9221   4.9506   5.0849   5.1161   5.2573   5.2576   5.3135   5.3340
     5.7287   5.9500   6.0339   6.0450   6.0508   6.0557   6.1203   6.1207
     6.1929   6.2306   6.2553   6.2790   6.2830   6.2949   6.2956   6.3140
     6.3432   6.3455   6.4977   6.5683   6.7428   6.7951   6.8852   6.9658
     6.9888   6.9913   7.0014

          k =-0.2500 0.4330-0.1111 (136853 PWs)   bands (ev):

   -18.8445  -6.6580  -6.2336  -5.8356  -5.8327  -5.1559  -4.8232  -4.8223
    -4.7847  -4.7814  -4.4230  -4.4218  -4.3240  -4.3236  -4.3096  -4.2887
    -4.2607  -4.1569  -4.1556  -4.1321  -4.0887  -4.0884  -4.0197  -4.0193
    -4.0124  -4.0122  -3.9913  -3.9868  -3.9843  -3.9135  -3.9102  -3.8837
    -3.8821  -3.8710  -3.8706  -3.8477  -3.8475  -3.8251  -3.8168  -3.8164
    -3.7898  -3.7379  -3.7373  -3.6906  -3.6887  -3.6300  -3.6298  -3.5758
    -3.5756  -3.5750  -3.5744  -3.5399  -3.4998  -3.4995  -3.4940  -3.4928
    -3.4927  -3.4620  -3.4611  -3.4534  -3.3912  -3.3906  -3.3809  -3.3653
    -3.3582  -3.2862  -3.2853  -3.2524  -3.2508  -3.2245  -3.2234  -3.2110
    -3.1944  -3.1341  -3.1337  -3.1168  -3.1157  -3.0641  -3.0593  -3.0590
    -3.0214  -2.9897  -2.9889  -2.9817  -2.9804  -2.9676  -2.9672  -2.9593
    -2.9587  -2.9493  -2.9091  -2.8923  -2.8719  -2.8695  -2.8563  -2.8556
    -2.8307  -2.8205  -2.8199  -2.7982  -2.7550  -2.7531  -2.7450  -2.7052
    -2.6991  -2.6883  -2.6866  -2.6586  -2.6575  -2.6289  -2.5909  -2.5905
    -2.5684  -2.5617  -2.5478  -2.5469  -2.4970  -2.4963  -2.4639  -2.4414
    -2.4412  -2.4172  -2.4165  -2.4059  -2.4049  -2.3948  -2.3722  -2.3713
    -2.3272  -2.3268  -2.3259  -2.3094  -2.3079  -2.3040  -2.2938  -2.2935
    -2.2913  -2.2905  -2.2854  -2.2730  -2.2712  -2.2610  -2.2360  -2.2357
    -2.2344  -2.2336  -2.2327  -2.2305  -2.2295  -2.2020  -2.1991  -2.1848
    -2.1845  -2.1675  -2.1667  -2.1569  -2.1565  -2.1558  -2.1545  -2.1364
    -2.1337  -2.1336  -2.1320  -2.1156  -2.0900  -2.0892  -2.0507  -2.0486
    -2.0241  -2.0227  -1.9961  -1.9957  -1.9684  -1.9680  -1.9512  -1.9466
    -1.9197  -1.8969  -1.8962  -1.8920  -1.8910  -1.8872  -1.8806  -1.8788
    -1.8541  -1.8470  -1.8365  -1.7812  -1.7771  -1.7758  -1.7737  -1.7728
    -1.7346  -1.7184  -1.7166  -1.6894  -1.6890  -1.6290  -1.6273  -1.6000
    -1.5816  -1.5805  -1.5204  -1.5194  -1.5086  -1.5071  -1.4975  -1.4960
    -1.4937  -1.4843  -1.4827  -1.4279  -1.4270  -1.4155  -1.4154  -1.4150
    -1.3962  -1.3941  -1.3599  -1.3596  -1.3427  -1.3422  -1.3419  -1.3355
    -1.3305  -1.3217  -1.3194  -1.3017  -1.3013  -1.2600  -1.2585  -1.2475
    -1.2459  -1.2264  -1.2139  -1.1709  -1.1686  -1.1441  -1.1390  -1.1389
    -1.1099  -1.0585  -1.0576  -1.0570  -1.0559  -1.0514  -1.0496  -1.0399
    -1.0220  -1.0204  -0.9820  -0.9804  -0.9507  -0.9501  -0.9456  -0.9452
    -0.9370  -0.9212  -0.9209  -0.9198  -0.9170  -0.9158  -0.8811  -0.8788
    -0.8774  -0.8765  -0.8508  -0.8456  -0.8446  -0.8414  -0.8172  -0.8104
    -0.8083  -0.7632  -0.7563  -0.7541  -0.7208  -0.7123  -0.7017  -0.7014
    -0.6934  -0.6927  -0.6925  -0.6911  -0.6803  -0.6795  -0.6540  -0.6532
    -0.6509  -0.6488  -0.6481  -0.6113  -0.6109  -0.6006  -0.5997  -0.5847
    -0.5778  -0.5761  -0.5651  -0.5099  -0.5070  -0.4984  -0.4982  -0.4974
    -0.4966  -0.4917  -0.4726  -0.4713  -0.4632  -0.4631  -0.4611  -0.4606
    -0.4217  -0.4194  -0.4184  -0.4113  -0.4097  -0.4051  -0.4034  -0.3936
    -0.3876  -0.3844  -0.3833  -0.3419  -0.3410  -0.3329  -0.3297  -0.3289
    -0.2521  -0.2512  -0.2490  -0.2486  -0.2397  -0.2393  -0.2029  -0.1902
    -0.1898  -0.1642  -0.1585  -0.1577  -0.0374  -0.0346   0.0661   0.4811
     0.4817   0.4841   0.4846   0.5441   0.5469   0.9343   0.9351   0.9771
     0.9779   1.0853   1.1659   1.2740   1.2811   1.4933   1.5045   2.1310
     2.1326   2.2927   2.2960   2.4233   2.4283   2.5296   2.5304   2.6840
     2.9218   2.9261   3.0445   3.2667   3.2740   3.3538   3.3551   3.4540
     3.4693   3.6550   3.6727   3.7262   3.9258   3.9274   3.9880   3.9914
     4.2460   4.2524   4.2565   4.4975   4.5390   4.5399   4.5844   4.9190
     4.9231   4.9499   5.0837   5.1192   5.2572   5.2578   5.3065   5.3283
     5.7733   5.9017   6.0447   6.0495   6.0537   6.0673   6.1202   6.1208
     6.1995   6.2307   6.2555   6.2815   6.2836   6.2897   6.3020   6.3370
     6.3435   6.3518   6.4118   6.5855   6.7426   6.7866   6.9138   6.9419
     6.9878   6.9939   7.0011

          k = 0.2500-0.4330-0.1111 (136853 PWs)   bands (ev):

   -18.8445  -6.6580  -6.2336  -5.8356  -5.8327  -5.1559  -4.8232  -4.8223
    -4.7847  -4.7814  -4.4230  -4.4218  -4.3240  -4.3236  -4.3096  -4.2887
    -4.2607  -4.1569  -4.1556  -4.1321  -4.0887  -4.0884  -4.0197  -4.0193
    -4.0124  -4.0122  -3.9913  -3.9868  -3.9843  -3.9135  -3.9102  -3.8837
    -3.8821  -3.8710  -3.8706  -3.8477  -3.8475  -3.8251  -3.8168  -3.8164
    -3.7898  -3.7379  -3.7373  -3.6906  -3.6887  -3.6300  -3.6298  -3.5758
    -3.5756  -3.5750  -3.5744  -3.5399  -3.4998  -3.4995  -3.4940  -3.4928
    -3.4927  -3.4620  -3.4611  -3.4534  -3.3912  -3.3906  -3.3809  -3.3653
    -3.3582  -3.2862  -3.2853  -3.2524  -3.2508  -3.2245  -3.2234  -3.2110
    -3.1944  -3.1341  -3.1337  -3.1168  -3.1157  -3.0641  -3.0593  -3.0590
    -3.0214  -2.9897  -2.9889  -2.9817  -2.9804  -2.9676  -2.9672  -2.9593
    -2.9587  -2.9493  -2.9091  -2.8923  -2.8719  -2.8695  -2.8563  -2.8556
    -2.8307  -2.8205  -2.8199  -2.7982  -2.7550  -2.7531  -2.7450  -2.7052
    -2.6991  -2.6883  -2.6866  -2.6586  -2.6575  -2.6289  -2.5909  -2.5905
    -2.5684  -2.5617  -2.5478  -2.5469  -2.4970  -2.4963  -2.4639  -2.4414
    -2.4412  -2.4172  -2.4165  -2.4059  -2.4049  -2.3948  -2.3722  -2.3713
    -2.3272  -2.3268  -2.3259  -2.3094  -2.3079  -2.3040  -2.2938  -2.2935
    -2.2913  -2.2905  -2.2854  -2.2730  -2.2712  -2.2610  -2.2360  -2.2357
    -2.2344  -2.2336  -2.2327  -2.2305  -2.2295  -2.2020  -2.1991  -2.1848
    -2.1845  -2.1675  -2.1667  -2.1569  -2.1565  -2.1558  -2.1545  -2.1364
    -2.1337  -2.1336  -2.1320  -2.1156  -2.0900  -2.0892  -2.0507  -2.0486
    -2.0241  -2.0227  -1.9961  -1.9957  -1.9684  -1.9680  -1.9512  -1.9466
    -1.9197  -1.8969  -1.8962  -1.8920  -1.8910  -1.8872  -1.8806  -1.8788
    -1.8541  -1.8470  -1.8365  -1.7812  -1.7771  -1.7758  -1.7737  -1.7728
    -1.7346  -1.7184  -1.7166  -1.6894  -1.6890  -1.6290  -1.6273  -1.6000
    -1.5816  -1.5805  -1.5204  -1.5194  -1.5086  -1.5071  -1.4975  -1.4960
    -1.4937  -1.4843  -1.4827  -1.4279  -1.4270  -1.4155  -1.4154  -1.4150
    -1.3962  -1.3941  -1.3599  -1.3596  -1.3427  -1.3422  -1.3419  -1.3355
    -1.3305  -1.3217  -1.3194  -1.3017  -1.3013  -1.2600  -1.2585  -1.2475
    -1.2459  -1.2264  -1.2139  -1.1709  -1.1686  -1.1441  -1.1390  -1.1389
    -1.1099  -1.0585  -1.0576  -1.0570  -1.0559  -1.0514  -1.0497  -1.0399
    -1.0220  -1.0204  -0.9820  -0.9804  -0.9507  -0.9501  -0.9456  -0.9452
    -0.9370  -0.9212  -0.9209  -0.9198  -0.9170  -0.9158  -0.8811  -0.8788
    -0.8774  -0.8765  -0.8508  -0.8456  -0.8446  -0.8414  -0.8172  -0.8104
    -0.8083  -0.7632  -0.7563  -0.7541  -0.7208  -0.7123  -0.7017  -0.7014
    -0.6934  -0.6927  -0.6925  -0.6911  -0.6803  -0.6795  -0.6540  -0.6532
    -0.6509  -0.6488  -0.6481  -0.6113  -0.6109  -0.6006  -0.5997  -0.5847
    -0.5778  -0.5761  -0.5651  -0.5099  -0.5070  -0.4984  -0.4982  -0.4974
    -0.4966  -0.4917  -0.4726  -0.4713  -0.4632  -0.4631  -0.4611  -0.4606
    -0.4217  -0.4194  -0.4184  -0.4113  -0.4097  -0.4051  -0.4034  -0.3936
    -0.3876  -0.3844  -0.3833  -0.3419  -0.3410  -0.3329  -0.3297  -0.3289
    -0.2521  -0.2512  -0.2490  -0.2486  -0.2397  -0.2393  -0.2029  -0.1902
    -0.1898  -0.1642  -0.1585  -0.1577  -0.0374  -0.0346   0.0661   0.4811
     0.4817   0.4841   0.4846   0.5441   0.5469   0.9343   0.9351   0.9771
     0.9779   1.0853   1.1659   1.2740   1.2811   1.4933   1.5045   2.1310
     2.1326   2.2927   2.2960   2.4233   2.4283   2.5296   2.5304   2.6840
     2.9218   2.9261   3.0445   3.2667   3.2740   3.3538   3.3551   3.4540
     3.4693   3.6550   3.6727   3.7262   3.9258   3.9274   3.9880   3.9914
     4.2460   4.2524   4.2565   4.4975   4.5390   4.5399   4.5844   4.9190
     4.9231   4.9499   5.0837   5.1192   5.2572   5.2578   5.3065   5.3283
     5.7734   5.9017   6.0447   6.0495   6.0537   6.0672   6.1201   6.1208
     6.1994   6.2307   6.2555   6.2815   6.2837   6.2897   6.3020   6.3368
     6.3435   6.3516   6.4124   6.5858   6.7423   6.7867   6.9142   6.9413
     6.9877   6.9940   7.0010

          k = 0.5000 0.0000 0.1111 (136853 PWs)   bands (ev):

   -18.8445  -6.6580  -6.2336  -5.8355  -5.8329  -5.1559  -4.8236  -4.8219
    -4.7840  -4.7820  -4.4231  -4.4217  -4.3239  -4.3237  -4.3096  -4.2886
    -4.2607  -4.1567  -4.1559  -4.1321  -4.0886  -4.0885  -4.0197  -4.0193
    -4.0129  -4.0117  -3.9913  -3.9871  -3.9839  -3.9129  -3.9108  -3.8839
    -3.8819  -3.8711  -3.8705  -3.8476  -3.8476  -3.8251  -3.8168  -3.8164
    -3.7899  -3.7378  -3.7374  -3.6907  -3.6886  -3.6300  -3.6298  -3.5759
    -3.5757  -3.5747  -3.5744  -3.5399  -3.4998  -3.4995  -3.4940  -3.4931
    -3.4924  -3.4624  -3.4607  -3.4533  -3.3910  -3.3907  -3.3809  -3.3654
    -3.3582  -3.2861  -3.2853  -3.2525  -3.2508  -3.2243  -3.2236  -3.2110
    -3.1944  -3.1341  -3.1336  -3.1165  -3.1160  -3.0641  -3.0593  -3.0589
    -3.0214  -2.9903  -2.9883  -2.9818  -2.9804  -2.9673  -2.9670  -2.9594
    -2.9590  -2.9493  -2.9092  -2.8923  -2.8713  -2.8700  -2.8563  -2.8556
    -2.8307  -2.8203  -2.8201  -2.7982  -2.7544  -2.7537  -2.7450  -2.7053
    -2.6991  -2.6881  -2.6867  -2.6584  -2.6577  -2.6289  -2.5910  -2.5904
    -2.5684  -2.5617  -2.5477  -2.5472  -2.4969  -2.4963  -2.4639  -2.4415
    -2.4412  -2.4171  -2.4166  -2.4057  -2.4051  -2.3948  -2.3721  -2.3713
    -2.3275  -2.3265  -2.3259  -2.3094  -2.3078  -2.3040  -2.2938  -2.2935
    -2.2912  -2.2906  -2.2855  -2.2727  -2.2716  -2.2610  -2.2361  -2.2357
    -2.2343  -2.2335  -2.2329  -2.2306  -2.2294  -2.2021  -2.1990  -2.1848
    -2.1846  -2.1675  -2.1667  -2.1569  -2.1566  -2.1557  -2.1545  -2.1355
    -2.1345  -2.1338  -2.1320  -2.1156  -2.0898  -2.0894  -2.0507  -2.0486
    -2.0242  -2.0227  -1.9962  -1.9957  -1.9684  -1.9679  -1.9513  -1.9466
    -1.9198  -1.8969  -1.8961  -1.8920  -1.8911  -1.8873  -1.8804  -1.8789
    -1.8542  -1.8471  -1.8364  -1.7811  -1.7773  -1.7756  -1.7735  -1.7729
    -1.7346  -1.7183  -1.7168  -1.6894  -1.6889  -1.6286  -1.6278  -1.5999
    -1.5814  -1.5807  -1.5202  -1.5196  -1.5082  -1.5075  -1.4971  -1.4964
    -1.4937  -1.4839  -1.4831  -1.4278  -1.4272  -1.4158  -1.4154  -1.4147
    -1.3958  -1.3945  -1.3601  -1.3593  -1.3428  -1.3422  -1.3419  -1.3353
    -1.3305  -1.3212  -1.3200  -1.3021  -1.3010  -1.2601  -1.2585  -1.2474
    -1.2461  -1.2264  -1.2139  -1.1700  -1.1695  -1.1441  -1.1393  -1.1385
    -1.1099  -1.0584  -1.0578  -1.0567  -1.0560  -1.0510  -1.0501  -1.0400
    -1.0214  -1.0210  -0.9816  -0.9808  -0.9506  -0.9502  -0.9457  -0.9452
    -0.9369  -0.9211  -0.9207  -0.9197  -0.9168  -0.9163  -0.8817  -0.8780
    -0.8774  -0.8765  -0.8538  -0.8452  -0.8437  -0.8397  -0.8177  -0.8096
    -0.8088  -0.7630  -0.7562  -0.7545  -0.7208  -0.7124  -0.7018  -0.7013
    -0.6934  -0.6927  -0.6924  -0.6910  -0.6803  -0.6795  -0.6539  -0.6532
    -0.6509  -0.6489  -0.6480  -0.6114  -0.6109  -0.6005  -0.5998  -0.5848
    -0.5775  -0.5764  -0.5651  -0.5098  -0.5072  -0.4985  -0.4983  -0.4973
    -0.4966  -0.4917  -0.4725  -0.4713  -0.4633  -0.4630  -0.4610  -0.4607
    -0.4217  -0.4191  -0.4187  -0.4109  -0.4101  -0.4052  -0.4034  -0.3936
    -0.3876  -0.3842  -0.3835  -0.3417  -0.3411  -0.3329  -0.3296  -0.3290
    -0.2521  -0.2512  -0.2491  -0.2486  -0.2397  -0.2393  -0.2029  -0.1902
    -0.1898  -0.1630  -0.1596  -0.1579  -0.0371  -0.0350   0.0661   0.4811
     0.4816   0.4841   0.4847   0.5443   0.5468   0.9343   0.9350   0.9769
     0.9782   1.0851   1.1659   1.2756   1.2795   1.4951   1.5028   2.1307
     2.1329   2.2929   2.2958   2.4239   2.4278   2.5293   2.5307   2.6840
     2.9218   2.9259   3.0445   3.2682   3.2726   3.3533   3.3554   3.4540
     3.4693   3.6587   3.6692   3.7262   3.9263   3.9268   3.9878   3.9915
     4.2461   4.2525   4.2564   4.4973   4.5384   4.5404   4.5845   4.9203
     4.9217   4.9501   5.0851   5.1166   5.2570   5.2580   5.3107   5.3321
     5.7437   5.9331   6.0431   6.0459   6.0510   6.0570   6.1200   6.1209
     6.1946   6.2305   6.2553   6.2809   6.2824   6.2938   6.2981   6.3185
     6.3432   6.3466   6.4711   6.5771   6.7531   6.7784   6.8936   6.9579
     6.9890   6.9918   7.0011

          k =-0.5000 0.0000 0.1111 (136853 PWs)   bands (ev):

   -18.8445  -6.6580  -6.2336  -5.8355  -5.8329  -5.1559  -4.8236  -4.8219
    -4.7840  -4.7820  -4.4231  -4.4217  -4.3239  -4.3237  -4.3096  -4.2886
    -4.2607  -4.1567  -4.1559  -4.1321  -4.0886  -4.0885  -4.0197  -4.0193
    -4.0129  -4.0117  -3.9913  -3.9871  -3.9839  -3.9129  -3.9108  -3.8839
    -3.8819  -3.8711  -3.8705  -3.8476  -3.8476  -3.8251  -3.8168  -3.8164
    -3.7899  -3.7378  -3.7374  -3.6907  -3.6886  -3.6300  -3.6298  -3.5759
    -3.5757  -3.5747  -3.5744  -3.5399  -3.4998  -3.4995  -3.4940  -3.4931
    -3.4924  -3.4624  -3.4607  -3.4533  -3.3910  -3.3907  -3.3809  -3.3654
    -3.3582  -3.2861  -3.2853  -3.2525  -3.2508  -3.2243  -3.2236  -3.2110
    -3.1944  -3.1341  -3.1336  -3.1165  -3.1160  -3.0641  -3.0593  -3.0589
    -3.0214  -2.9903  -2.9883  -2.9818  -2.9804  -2.9673  -2.9670  -2.9594
    -2.9590  -2.9493  -2.9092  -2.8923  -2.8713  -2.8700  -2.8563  -2.8556
    -2.8307  -2.8203  -2.8201  -2.7982  -2.7544  -2.7537  -2.7450  -2.7053
    -2.6991  -2.6881  -2.6867  -2.6584  -2.6577  -2.6289  -2.5910  -2.5904
    -2.5684  -2.5617  -2.5477  -2.5472  -2.4969  -2.4963  -2.4639  -2.4415
    -2.4412  -2.4171  -2.4166  -2.4057  -2.4051  -2.3948  -2.3721  -2.3713
    -2.3275  -2.3265  -2.3259  -2.3094  -2.3078  -2.3040  -2.2938  -2.2935
    -2.2912  -2.2906  -2.2855  -2.2727  -2.2716  -2.2610  -2.2361  -2.2357
    -2.2343  -2.2335  -2.2329  -2.2306  -2.2294  -2.2021  -2.1990  -2.1848
    -2.1846  -2.1675  -2.1667  -2.1569  -2.1566  -2.1557  -2.1545  -2.1355
    -2.1345  -2.1338  -2.1320  -2.1156  -2.0898  -2.0894  -2.0507  -2.0486
    -2.0242  -2.0227  -1.9962  -1.9957  -1.9684  -1.9679  -1.9513  -1.9466
    -1.9198  -1.8969  -1.8961  -1.8920  -1.8911  -1.8873  -1.8804  -1.8789
    -1.8542  -1.8471  -1.8364  -1.7811  -1.7773  -1.7756  -1.7735  -1.7729
    -1.7346  -1.7183  -1.7168  -1.6894  -1.6889  -1.6286  -1.6278  -1.5999
    -1.5815  -1.5807  -1.5202  -1.5196  -1.5082  -1.5075  -1.4971  -1.4964
    -1.4937  -1.4839  -1.4831  -1.4278  -1.4272  -1.4158  -1.4154  -1.4147
    -1.3958  -1.3945  -1.3601  -1.3593  -1.3428  -1.3422  -1.3419  -1.3353
    -1.3305  -1.3212  -1.3200  -1.3021  -1.3010  -1.2601  -1.2585  -1.2474
    -1.2461  -1.2264  -1.2139  -1.1700  -1.1695  -1.1441  -1.1393  -1.1385
    -1.1099  -1.0584  -1.0578  -1.0567  -1.0560  -1.0510  -1.0501  -1.0400
    -1.0214  -1.0210  -0.9816  -0.9808  -0.9506  -0.9502  -0.9457  -0.9452
    -0.9369  -0.9211  -0.9207  -0.9197  -0.9168  -0.9163  -0.8817  -0.8780
    -0.8774  -0.8765  -0.8538  -0.8452  -0.8437  -0.8397  -0.8177  -0.8096
    -0.8088  -0.7630  -0.7562  -0.7545  -0.7208  -0.7124  -0.7018  -0.7013
    -0.6934  -0.6927  -0.6924  -0.6910  -0.6803  -0.6795  -0.6539  -0.6532
    -0.6509  -0.6489  -0.6480  -0.6114  -0.6109  -0.6005  -0.5998  -0.5848
    -0.5775  -0.5764  -0.5651  -0.5098  -0.5072  -0.4985  -0.4983  -0.4973
    -0.4966  -0.4917  -0.4725  -0.4713  -0.4633  -0.4630  -0.4610  -0.4607
    -0.4217  -0.4191  -0.4187  -0.4109  -0.4101  -0.4052  -0.4034  -0.3936
    -0.3876  -0.3842  -0.3835  -0.3417  -0.3411  -0.3329  -0.3296  -0.3290
    -0.2521  -0.2512  -0.2491  -0.2486  -0.2397  -0.2393  -0.2029  -0.1902
    -0.1898  -0.1630  -0.1596  -0.1579  -0.0371  -0.0350   0.0661   0.4811
     0.4816   0.4841   0.4847   0.5443   0.5468   0.9343   0.9350   0.9769
     0.9782   1.0851   1.1659   1.2756   1.2795   1.4951   1.5028   2.1307
     2.1329   2.2929   2.2958   2.4239   2.4278   2.5293   2.5307   2.6840
     2.9218   2.9259   3.0445   3.2682   3.2726   3.3533   3.3554   3.4540
     3.4693   3.6587   3.6692   3.7262   3.9263   3.9268   3.9878   3.9915
     4.2461   4.2525   4.2564   4.4973   4.5384   4.5404   4.5845   4.9203
     4.9217   4.9501   5.0851   5.1166   5.2570   5.2580   5.3107   5.3321
     5.7436   5.9332   6.0434   6.0461   6.0510   6.0570   6.1200   6.1209
     6.1946   6.2305   6.2553   6.2809   6.2824   6.2937   6.2982   6.3182
     6.3432   6.3466   6.4710   6.5754   6.7546   6.7779   6.8966   6.9569
     6.9888   6.9919   7.0010

          k =-0.2500 0.1443 0.1111 (136898 PWs)   bands (ev):

   -18.8445  -6.6580  -6.4435  -5.6514  -5.3598  -5.3012  -5.3010  -4.7628
    -4.7626  -4.6307  -4.6303  -4.4760  -4.4435  -4.3831  -4.3492  -4.3486
    -4.3161  -4.3160  -4.1875  -4.1457  -4.1457  -4.0856  -4.0644  -4.0641
    -3.9622  -3.9622  -3.9260  -3.9258  -3.9257  -3.8987  -3.8772  -3.8772
    -3.7713  -3.7700  -3.7700  -3.7492  -3.7324  -3.7322  -3.7200  -3.7198
    -3.7066  -3.6765  -3.6764  -3.6763  -3.6761  -3.6435  -3.6434  -3.6258
    -3.6257  -3.6104  -3.5668  -3.5666  -3.5373  -3.5219  -3.5214  -3.5175
    -3.5175  -3.4428  -3.4427  -3.4071  -3.4048  -3.4047  -3.3373  -3.3372
    -3.3218  -3.3216  -3.2904  -3.2903  -3.2895  -3.2893  -3.1363  -3.1360
    -3.1102  -3.1100  -3.1050  -3.0891  -3.0891  -3.0631  -3.0630  -3.0132
    -3.0132  -2.9969  -2.9967  -2.9767  -2.9280  -2.9275  -2.9091  -2.9041
    -2.9032  -2.8918  -2.8621  -2.8615  -2.8559  -2.8542  -2.8390  -2.8379
    -2.7993  -2.7991  -2.7774  -2.7773  -2.7742  -2.7737  -2.7711  -2.6937
    -2.6935  -2.6921  -2.6636  -2.6631  -2.6015  -2.6013  -2.5732  -2.5719
    -2.5588  -2.5585  -2.5534  -2.5237  -2.5236  -2.5141  -2.4964  -2.4706
    -2.4704  -2.4702  -2.4496  -2.4494  -2.4382  -2.4379  -2.4348  -2.4341
    -2.4269  -2.3807  -2.3480  -2.3478  -2.3324  -2.3183  -2.3119  -2.3117
    -2.3044  -2.3040  -2.3028  -2.2728  -2.2726  -2.2723  -2.2628  -2.2626
    -2.2453  -2.2179  -2.2173  -2.2168  -2.2160  -2.2155  -2.1709  -2.1391
    -2.1391  -2.1387  -2.1322  -2.1234  -2.1101  -2.1099  -2.0934  -2.0934
    -2.0591  -2.0584  -2.0582  -2.0398  -2.0379  -2.0377  -2.0048  -2.0043
    -1.9633  -1.9631  -1.9557  -1.9538  -1.9536  -1.9471  -1.9466  -1.9446
    -1.9442  -1.9375  -1.9367  -1.9204  -1.9198  -1.7931  -1.7925  -1.7606
    -1.7550  -1.7541  -1.7493  -1.7491  -1.7311  -1.7308  -1.7282  -1.7280
    -1.7261  -1.7035  -1.6948  -1.6944  -1.6909  -1.6831  -1.6825  -1.6599
    -1.6598  -1.6313  -1.6313  -1.5987  -1.5985  -1.5887  -1.5805  -1.5628
    -1.5623  -1.5597  -1.5412  -1.5289  -1.5288  -1.5214  -1.5213  -1.4944
    -1.4943  -1.4773  -1.4772  -1.4454  -1.4445  -1.4349  -1.3839  -1.3838
    -1.3717  -1.3710  -1.3702  -1.3460  -1.3435  -1.3096  -1.3089  -1.3087
    -1.2752  -1.2653  -1.2646  -1.2494  -1.2491  -1.2224  -1.2210  -1.2206
    -1.1913  -1.1885  -1.1881  -1.1257  -1.1252  -1.1123  -1.1114  -1.0957
    -1.0955  -1.0831  -1.0828  -1.0650  -1.0522  -1.0244  -1.0241  -1.0129
    -0.9855  -0.9747  -0.9738  -0.9629  -0.9628  -0.9604  -0.9552  -0.9546
    -0.9419  -0.9106  -0.9104  -0.9004  -0.8992  -0.8983  -0.8965  -0.8737
    -0.8592  -0.8553  -0.8464  -0.8345  -0.8323  -0.7410  -0.7281  -0.7224
    -0.7222  -0.7183  -0.7128  -0.7123  -0.6913  -0.6865  -0.6719  -0.6707
    -0.6567  -0.6562  -0.6474  -0.6276  -0.6263  -0.6251  -0.6169  -0.5453
    -0.5451  -0.5114  -0.5101  -0.5068  -0.4999  -0.4990  -0.4984  -0.4981
    -0.4853  -0.4844  -0.4693  -0.4442  -0.4295  -0.4096  -0.4090  -0.3981
    -0.3975  -0.3853  -0.3847  -0.3840  -0.3824  -0.3820  -0.3647  -0.3606
    -0.3601  -0.3297  -0.3283  -0.3278  -0.3160  -0.3159  -0.2966  -0.2645
    -0.2642  -0.2552  -0.2548  -0.1869  -0.1867  -0.1495  -0.1493  -0.0922
    -0.0895  -0.0892  -0.0794  -0.0602   0.1607   0.1643   0.5096   0.5096
     0.5996   0.6031   0.7943   0.8088   0.8273   0.9580   0.9588   1.3898
     1.3898   1.4084   1.6658   1.6998   1.6998   1.9744   1.9802   2.0563
     2.0566   2.0825   2.0858   2.3129   2.3130   2.4008   2.4011   2.4721
     2.5376   2.5438   2.7050   2.8023   3.2433   3.2440   3.2462   3.2482
     3.3020   3.3020   3.5941   3.5942   3.8742   3.8780   3.9767   4.2898
     4.3321   4.3347   4.5438   4.5553   4.6337   4.6347   4.7250   4.8426
     4.8441   4.9599   4.9610   5.0809   5.2649   5.3331   5.3356   5.4891
     5.5062   5.7197   5.7213   5.7243   5.7479   5.7483   5.8113   5.8125
     5.8581   6.0527   6.2554   6.2737   6.4185   6.4393   6.5503   6.5546
     6.5565   6.5666   6.5716   6.7389   6.8076   6.8101   6.8142   6.9739
     7.0040   7.0271   7.0421

          k =-0.2500-0.1443-0.1111 (136898 PWs)   bands (ev):

   -18.8445  -6.6580  -6.4435  -5.6515  -5.3598  -5.3012  -5.3010  -4.7627
    -4.7626  -4.6311  -4.6300  -4.4760  -4.4435  -4.3832  -4.3491  -4.3488
    -4.3162  -4.3158  -4.1874  -4.1459  -4.1456  -4.0854  -4.0644  -4.0642
    -3.9622  -3.9621  -3.9261  -3.9258  -3.9257  -3.8987  -3.8774  -3.8770
    -3.7712  -3.7702  -3.7699  -3.7491  -3.7325  -3.7322  -3.7200  -3.7199
    -3.7065  -3.6765  -3.6764  -3.6762  -3.6760  -3.6436  -3.6434  -3.6257
    -3.6257  -3.6103  -3.5670  -3.5666  -3.5375  -3.5217  -3.5216  -3.5176
    -3.5174  -3.4429  -3.4427  -3.4069  -3.4047  -3.4046  -3.3375  -3.3374
    -3.3217  -3.3215  -3.2903  -3.2901  -3.2898  -3.2896  -3.1363  -3.1361
    -3.1103  -3.1100  -3.1050  -3.0892  -3.0891  -3.0631  -3.0628  -3.0133
    -3.0132  -2.9969  -2.9967  -2.9766  -2.9279  -2.9274  -2.9092  -2.9043
    -2.9033  -2.8918  -2.8622  -2.8615  -2.8559  -2.8544  -2.8390  -2.8381
    -2.7991  -2.7989  -2.7776  -2.7771  -2.7741  -2.7737  -2.7710  -2.6937
    -2.6935  -2.6923  -2.6636  -2.6632  -2.6015  -2.6010  -2.5732  -2.5720
    -2.5586  -2.5584  -2.5535  -2.5237  -2.5234  -2.5142  -2.4963  -2.4708
    -2.4705  -2.4703  -2.4495  -2.4494  -2.4385  -2.4382  -2.4346  -2.4341
    -2.4269  -2.3806  -2.3480  -2.3479  -2.3323  -2.3185  -2.3118  -2.3118
    -2.3044  -2.3041  -2.3030  -2.2727  -2.2726  -2.2724  -2.2628  -2.2624
    -2.2451  -2.2182  -2.2174  -2.2165  -2.2160  -2.2156  -2.1711  -2.1393
    -2.1391  -2.1388  -2.1321  -2.1235  -2.1100  -2.1097  -2.0933  -2.0933
    -2.0591  -2.0583  -2.0581  -2.0399  -2.0379  -2.0378  -2.0047  -2.0044
    -1.9638  -1.9626  -1.9555  -1.9537  -1.9535  -1.9471  -1.9468  -1.9453
    -1.9440  -1.9372  -1.9367  -1.9204  -1.9201  -1.7929  -1.7926  -1.7605
    -1.7548  -1.7543  -1.7492  -1.7490  -1.7316  -1.7314  -1.7281  -1.7279
    -1.7256  -1.7035  -1.6946  -1.6944  -1.6909  -1.6831  -1.6821  -1.6601
    -1.6600  -1.6318  -1.6310  -1.5986  -1.5985  -1.5886  -1.5805  -1.5627
    -1.5623  -1.5594  -1.5411  -1.5290  -1.5289  -1.5215  -1.5214  -1.4942
    -1.4941  -1.4776  -1.4769  -1.4455  -1.4449  -1.4350  -1.3842  -1.3836
    -1.3715  -1.3714  -1.3703  -1.3462  -1.3432  -1.3095  -1.3089  -1.3084
    -1.2751  -1.2651  -1.2647  -1.2493  -1.2490  -1.2223  -1.2211  -1.2207
    -1.1913  -1.1884  -1.1881  -1.1258  -1.1256  -1.1122  -1.1116  -1.0958
    -1.0955  -1.0828  -1.0826  -1.0646  -1.0520  -1.0246  -1.0239  -1.0129
    -0.9847  -0.9748  -0.9740  -0.9630  -0.9629  -0.9607  -0.9553  -0.9546
    -0.9419  -0.9108  -0.9103  -0.9020  -0.8991  -0.8986  -0.8968  -0.8739
    -0.8610  -0.8547  -0.8431  -0.8336  -0.8332  -0.7409  -0.7281  -0.7223
    -0.7222  -0.7182  -0.7130  -0.7124  -0.6916  -0.6865  -0.6716  -0.6710
    -0.6567  -0.6564  -0.6476  -0.6271  -0.6265  -0.6253  -0.6169  -0.5453
    -0.5451  -0.5110  -0.5104  -0.5069  -0.4997  -0.4992  -0.4983  -0.4982
    -0.4854  -0.4840  -0.4694  -0.4441  -0.4297  -0.4095  -0.4091  -0.3981
    -0.3976  -0.3854  -0.3844  -0.3840  -0.3824  -0.3822  -0.3646  -0.3607
    -0.3603  -0.3296  -0.3284  -0.3274  -0.3160  -0.3158  -0.2967  -0.2644
    -0.2642  -0.2551  -0.2548  -0.1871  -0.1867  -0.1497  -0.1491  -0.0922
    -0.0896  -0.0890  -0.0797  -0.0602   0.1616   0.1638   0.5096   0.5096
     0.6004   0.6025   0.7931   0.8095   0.8273   0.9582   0.9586   1.3897
     1.3899   1.4085   1.6658   1.6998   1.7000   1.9757   1.9789   2.0563
     2.0566   2.0833   2.0852   2.3126   2.3131   2.4009   2.4011   2.4723
     2.5387   2.5424   2.7047   2.8023   3.2430   3.2443   3.2466   3.2479
     3.3020   3.3024   3.5939   3.5945   3.8751   3.8773   3.9771   4.2898
     4.3324   4.3339   4.5466   4.5496   4.6339   4.6345   4.7251   4.8424
     4.8440   4.9604   4.9611   5.0896   5.2650   5.3326   5.3359   5.4959
     5.5025   5.7134   5.7212   5.7224   5.7479   5.7484   5.8113   5.8135
     5.8515   6.0076   6.2424   6.3632   6.4150   6.4297   6.5423   6.5548
     6.5550   6.5673   6.5703   6.7049   6.8086   6.8098   6.9203   6.9552
     6.9827   7.0343   7.0598

          k = 0.2500 0.1443-0.1111 (136898 PWs)   bands (ev):

   -18.8445  -6.6580  -6.4435  -5.6515  -5.3598  -5.3012  -5.3010  -4.7627
    -4.7626  -4.6311  -4.6300  -4.4760  -4.4435  -4.3832  -4.3491  -4.3488
    -4.3162  -4.3158  -4.1874  -4.1459  -4.1456  -4.0854  -4.0644  -4.0642
    -3.9622  -3.9621  -3.9261  -3.9258  -3.9257  -3.8987  -3.8774  -3.8770
    -3.7712  -3.7702  -3.7699  -3.7491  -3.7325  -3.7322  -3.7200  -3.7199
    -3.7065  -3.6765  -3.6764  -3.6762  -3.6760  -3.6436  -3.6434  -3.6257
    -3.6257  -3.6103  -3.5670  -3.5666  -3.5375  -3.5217  -3.5216  -3.5176
    -3.5174  -3.4429  -3.4427  -3.4069  -3.4047  -3.4046  -3.3375  -3.3374
    -3.3217  -3.3215  -3.2903  -3.2901  -3.2898  -3.2896  -3.1363  -3.1361
    -3.1103  -3.1100  -3.1050  -3.0892  -3.0891  -3.0631  -3.0628  -3.0133
    -3.0132  -2.9968  -2.9967  -2.9766  -2.9279  -2.9274  -2.9092  -2.9043
    -2.9033  -2.8918  -2.8622  -2.8615  -2.8559  -2.8544  -2.8390  -2.8381
    -2.7991  -2.7989  -2.7776  -2.7771  -2.7741  -2.7737  -2.7710  -2.6937
    -2.6935  -2.6923  -2.6636  -2.6632  -2.6015  -2.6010  -2.5731  -2.5720
    -2.5586  -2.5584  -2.5535  -2.5237  -2.5234  -2.5142  -2.4963  -2.4708
    -2.4705  -2.4703  -2.4495  -2.4494  -2.4385  -2.4382  -2.4346  -2.4341
    -2.4269  -2.3806  -2.3480  -2.3479  -2.3323  -2.3185  -2.3118  -2.3118
    -2.3044  -2.3041  -2.3030  -2.2727  -2.2726  -2.2724  -2.2628  -2.2624
    -2.2451  -2.2182  -2.2174  -2.2165  -2.2160  -2.2156  -2.1711  -2.1393
    -2.1391  -2.1387  -2.1321  -2.1235  -2.1100  -2.1098  -2.0933  -2.0933
    -2.0591  -2.0583  -2.0581  -2.0399  -2.0379  -2.0378  -2.0047  -2.0045
    -1.9638  -1.9626  -1.9555  -1.9537  -1.9535  -1.9471  -1.9468  -1.9453
    -1.9440  -1.9372  -1.9367  -1.9204  -1.9201  -1.7929  -1.7926  -1.7605
    -1.7548  -1.7543  -1.7492  -1.7490  -1.7316  -1.7314  -1.7281  -1.7279
    -1.7256  -1.7035  -1.6946  -1.6944  -1.6909  -1.6831  -1.6821  -1.6601
    -1.6600  -1.6318  -1.6310  -1.5986  -1.5985  -1.5886  -1.5805  -1.5627
    -1.5623  -1.5594  -1.5411  -1.5290  -1.5289  -1.5215  -1.5214  -1.4942
    -1.4941  -1.4776  -1.4769  -1.4455  -1.4449  -1.4350  -1.3842  -1.3836
    -1.3715  -1.3714  -1.3703  -1.3462  -1.3432  -1.3095  -1.3089  -1.3084
    -1.2751  -1.2651  -1.2646  -1.2493  -1.2490  -1.2223  -1.2211  -1.2207
    -1.1913  -1.1884  -1.1881  -1.1258  -1.1256  -1.1122  -1.1116  -1.0958
    -1.0955  -1.0828  -1.0826  -1.0646  -1.0520  -1.0246  -1.0239  -1.0129
    -0.9847  -0.9748  -0.9740  -0.9630  -0.9629  -0.9607  -0.9553  -0.9546
    -0.9419  -0.9108  -0.9103  -0.9020  -0.8991  -0.8986  -0.8968  -0.8739
    -0.8610  -0.8547  -0.8431  -0.8336  -0.8332  -0.7409  -0.7281  -0.7223
    -0.7222  -0.7182  -0.7130  -0.7124  -0.6916  -0.6865  -0.6716  -0.6710
    -0.6567  -0.6564  -0.6476  -0.6271  -0.6264  -0.6253  -0.6169  -0.5453
    -0.5451  -0.5110  -0.5104  -0.5069  -0.4997  -0.4992  -0.4983  -0.4982
    -0.4854  -0.4840  -0.4693  -0.4441  -0.4297  -0.4095  -0.4091  -0.3981
    -0.3976  -0.3854  -0.3844  -0.3840  -0.3824  -0.3822  -0.3646  -0.3607
    -0.3603  -0.3296  -0.3284  -0.3274  -0.3160  -0.3158  -0.2967  -0.2644
    -0.2642  -0.2551  -0.2548  -0.1871  -0.1867  -0.1497  -0.1491  -0.0922
    -0.0896  -0.0890  -0.0797  -0.0602   0.1616   0.1638   0.5096   0.5096
     0.6004   0.6025   0.7931   0.8095   0.8273   0.9582   0.9586   1.3897
     1.3899   1.4085   1.6658   1.6998   1.7000   1.9757   1.9789   2.0563
     2.0566   2.0833   2.0852   2.3126   2.3131   2.4009   2.4011   2.4723
     2.5387   2.5424   2.7047   2.8023   3.2430   3.2443   3.2466   3.2479
     3.3020   3.3024   3.5939   3.5945   3.8751   3.8773   3.9771   4.2898
     4.3324   4.3339   4.5466   4.5496   4.6339   4.6345   4.7251   4.8424
     4.8441   4.9604   4.9611   5.0896   5.2650   5.3326   5.3359   5.4959
     5.5025   5.7133   5.7212   5.7223   5.7479   5.7485   5.8113   5.8135
     5.8515   6.0089   6.2425   6.3622   6.4142   6.4273   6.5391   6.5546
     6.5550   6.5673   6.5703   6.7076   6.8086   6.8098   6.9243   6.9586
     6.9875   7.0360   7.0644

          k = 0.0000-0.2887 0.1111 (136898 PWs)   bands (ev):

   -18.8445  -6.6580  -6.4435  -5.6515  -5.3598  -5.3012  -5.3010  -4.7627
    -4.7626  -4.6310  -4.6301  -4.4760  -4.4435  -4.3832  -4.3492  -4.3487
    -4.3161  -4.3159  -4.1874  -4.1457  -4.1457  -4.0854  -4.0645  -4.0642
    -3.9622  -3.9621  -3.9260  -3.9258  -3.9257  -3.8987  -3.8773  -3.8771
    -3.7712  -3.7701  -3.7700  -3.7491  -3.7325  -3.7322  -3.7200  -3.7199
    -3.7065  -3.6765  -3.6764  -3.6762  -3.6759  -3.6437  -3.6434  -3.6257
    -3.6256  -3.6103  -3.5669  -3.5667  -3.5375  -3.5218  -3.5215  -3.5175
    -3.5174  -3.4429  -3.4427  -3.4069  -3.4048  -3.4046  -3.3375  -3.3373
    -3.3217  -3.3215  -3.2904  -3.2901  -3.2898  -3.2895  -3.1363  -3.1361
    -3.1104  -3.1099  -3.1050  -3.0892  -3.0891  -3.0631  -3.0627  -3.0133
    -3.0132  -2.9969  -2.9967  -2.9766  -2.9277  -2.9276  -2.9092  -2.9042
    -2.9033  -2.8919  -2.8622  -2.8614  -2.8559  -2.8543  -2.8390  -2.8380
    -2.7991  -2.7989  -2.7775  -2.7772  -2.7741  -2.7737  -2.7710  -2.6938
    -2.6935  -2.6923  -2.6636  -2.6632  -2.6016  -2.6011  -2.5731  -2.5719
    -2.5586  -2.5584  -2.5535  -2.5236  -2.5235  -2.5142  -2.4963  -2.4707
    -2.4705  -2.4703  -2.4495  -2.4494  -2.4385  -2.4381  -2.4347  -2.4341
    -2.4269  -2.3806  -2.3481  -2.3479  -2.3323  -2.3184  -2.3119  -2.3117
    -2.3045  -2.3041  -2.3029  -2.2728  -2.2725  -2.2723  -2.2628  -2.2624
    -2.2451  -2.2180  -2.2175  -2.2171  -2.2159  -2.2154  -2.1711  -2.1393
    -2.1391  -2.1387  -2.1322  -2.1235  -2.1100  -2.1098  -2.0933  -2.0932
    -2.0591  -2.0584  -2.0581  -2.0399  -2.0379  -2.0378  -2.0047  -2.0044
    -1.9634  -1.9629  -1.9555  -1.9538  -1.9534  -1.9471  -1.9468  -1.9448
    -1.9442  -1.9373  -1.9367  -1.9204  -1.9200  -1.7930  -1.7925  -1.7605
    -1.7549  -1.7541  -1.7492  -1.7491  -1.7318  -1.7311  -1.7281  -1.7279
    -1.7256  -1.7035  -1.6947  -1.6942  -1.6911  -1.6829  -1.6823  -1.6601
    -1.6600  -1.6316  -1.6311  -1.5987  -1.5985  -1.5885  -1.5804  -1.5628
    -1.5623  -1.5595  -1.5412  -1.5290  -1.5289  -1.5215  -1.5213  -1.4942
    -1.4941  -1.4775  -1.4769  -1.4455  -1.4448  -1.4350  -1.3841  -1.3836
    -1.3716  -1.3713  -1.3703  -1.3463  -1.3432  -1.3096  -1.3089  -1.3085
    -1.2752  -1.2652  -1.2646  -1.2493  -1.2490  -1.2223  -1.2211  -1.2207
    -1.1913  -1.1884  -1.1881  -1.1259  -1.1254  -1.1122  -1.1115  -1.0959
    -1.0955  -1.0829  -1.0826  -1.0646  -1.0521  -1.0246  -1.0240  -1.0129
    -0.9851  -0.9747  -0.9738  -0.9630  -0.9629  -0.9607  -0.9553  -0.9547
    -0.9419  -0.9107  -0.9104  -0.9010  -0.8991  -0.8985  -0.8965  -0.8738
    -0.8602  -0.8549  -0.8453  -0.8342  -0.8325  -0.7409  -0.7282  -0.7223
    -0.7222  -0.7181  -0.7130  -0.7124  -0.6913  -0.6865  -0.6719  -0.6708
    -0.6567  -0.6563  -0.6476  -0.6274  -0.6263  -0.6252  -0.6170  -0.5453
    -0.5451  -0.5112  -0.5102  -0.5069  -0.4999  -0.4990  -0.4984  -0.4982
    -0.4854  -0.4842  -0.4693  -0.4440  -0.4296  -0.4096  -0.4090  -0.3981
    -0.3976  -0.3853  -0.3846  -0.3840  -0.3824  -0.3821  -0.3647  -0.3607
    -0.3602  -0.3296  -0.3281  -0.3277  -0.3159  -0.3159  -0.2967  -0.2645
    -0.2642  -0.2551  -0.2548  -0.1870  -0.1867  -0.1497  -0.1491  -0.0922
    -0.0896  -0.0891  -0.0796  -0.0602   0.1611   0.1642   0.5096   0.5096
     0.5999   0.6029   0.7939   0.8090   0.8272   0.9581   0.9588   1.3898
     1.3898   1.4085   1.6658   1.6998   1.6999   1.9749   1.9798   2.0562
     2.0566   2.0828   2.0856   2.3126   2.3131   2.4009   2.4011   2.4722
     2.5380   2.5433   2.7048   2.8023   3.2433   3.2441   3.2463   3.2482
     3.3019   3.3022   3.5941   3.5943   3.8745   3.8778   3.9768   4.2898
     4.3321   4.3343   4.5456   4.5525   4.6339   4.6346   4.7251   4.8424
     4.8442   4.9603   4.9613   5.0837   5.2650   5.3331   5.3355   5.4918
     5.5051   5.7181   5.7211   5.7233   5.7479   5.7485   5.8110   5.8132
     5.8554   6.0322   6.2513   6.3056   6.4175   6.4359   6.5480   6.5546
     6.5558   6.5670   6.5711   6.7308   6.8081   6.8103   6.8436   6.9693
     6.9960   7.0280   7.0405

          k = 0.0000 0.2887 0.1111 (136898 PWs)   bands (ev):

   -18.8445  -6.6580  -6.4435  -5.6515  -5.3598  -5.3012  -5.3010  -4.7627
    -4.7626  -4.6310  -4.6301  -4.4760  -4.4435  -4.3832  -4.3492  -4.3487
    -4.3161  -4.3159  -4.1874  -4.1457  -4.1457  -4.0854  -4.0645  -4.0642
    -3.9622  -3.9621  -3.9261  -3.9258  -3.9257  -3.8987  -3.8773  -3.8771
    -3.7712  -3.7701  -3.7700  -3.7491  -3.7325  -3.7322  -3.7200  -3.7199
    -3.7065  -3.6765  -3.6764  -3.6762  -3.6759  -3.6437  -3.6434  -3.6257
    -3.6256  -3.6103  -3.5669  -3.5667  -3.5375  -3.5218  -3.5215  -3.5175
    -3.5174  -3.4429  -3.4427  -3.4069  -3.4048  -3.4046  -3.3375  -3.3373
    -3.3217  -3.3215  -3.2904  -3.2901  -3.2898  -3.2895  -3.1363  -3.1361
    -3.1104  -3.1099  -3.1050  -3.0892  -3.0891  -3.0631  -3.0627  -3.0133
    -3.0132  -2.9969  -2.9967  -2.9766  -2.9277  -2.9276  -2.9091  -2.9042
    -2.9033  -2.8919  -2.8622  -2.8614  -2.8559  -2.8543  -2.8390  -2.8380
    -2.7991  -2.7989  -2.7775  -2.7772  -2.7741  -2.7737  -2.7710  -2.6938
    -2.6935  -2.6923  -2.6636  -2.6632  -2.6016  -2.6011  -2.5731  -2.5719
    -2.5586  -2.5584  -2.5535  -2.5236  -2.5235  -2.5142  -2.4963  -2.4707
    -2.4705  -2.4703  -2.4495  -2.4494  -2.4385  -2.4381  -2.4347  -2.4341
    -2.4269  -2.3806  -2.3481  -2.3479  -2.3323  -2.3184  -2.3119  -2.3117
    -2.3045  -2.3041  -2.3029  -2.2728  -2.2725  -2.2723  -2.2628  -2.2624
    -2.2451  -2.2180  -2.2175  -2.2171  -2.2159  -2.2154  -2.1711  -2.1393
    -2.1391  -2.1387  -2.1322  -2.1235  -2.1100  -2.1098  -2.0933  -2.0933
    -2.0591  -2.0584  -2.0581  -2.0399  -2.0379  -2.0378  -2.0047  -2.0044
    -1.9634  -1.9629  -1.9555  -1.9538  -1.9534  -1.9471  -1.9468  -1.9448
    -1.9442  -1.9373  -1.9367  -1.9204  -1.9200  -1.7930  -1.7925  -1.7605
    -1.7549  -1.7541  -1.7492  -1.7491  -1.7318  -1.7311  -1.7281  -1.7279
    -1.7257  -1.7036  -1.6947  -1.6942  -1.6911  -1.6829  -1.6823  -1.6601
    -1.6600  -1.6316  -1.6311  -1.5987  -1.5985  -1.5885  -1.5805  -1.5628
    -1.5623  -1.5595  -1.5411  -1.5290  -1.5289  -1.5215  -1.5213  -1.4942
    -1.4941  -1.4775  -1.4769  -1.4455  -1.4448  -1.4350  -1.3841  -1.3836
    -1.3716  -1.3713  -1.3703  -1.3463  -1.3432  -1.3096  -1.3089  -1.3085
    -1.2752  -1.2652  -1.2646  -1.2493  -1.2490  -1.2223  -1.2211  -1.2207
    -1.1913  -1.1884  -1.1881  -1.1259  -1.1254  -1.1122  -1.1115  -1.0959
    -1.0955  -1.0829  -1.0826  -1.0646  -1.0521  -1.0246  -1.0240  -1.0129
    -0.9851  -0.9747  -0.9738  -0.9630  -0.9629  -0.9607  -0.9553  -0.9547
    -0.9419  -0.9107  -0.9104  -0.9010  -0.8991  -0.8985  -0.8965  -0.8738
    -0.8602  -0.8549  -0.8453  -0.8342  -0.8325  -0.7409  -0.7282  -0.7223
    -0.7222  -0.7181  -0.7130  -0.7124  -0.6913  -0.6865  -0.6718  -0.6708
    -0.6567  -0.6563  -0.6476  -0.6274  -0.6263  -0.6252  -0.6170  -0.5453
    -0.5451  -0.5113  -0.5102  -0.5069  -0.4999  -0.4990  -0.4984  -0.4982
    -0.4854  -0.4842  -0.4693  -0.4440  -0.4296  -0.4096  -0.4090  -0.3981
    -0.3975  -0.3853  -0.3846  -0.3840  -0.3824  -0.3821  -0.3647  -0.3607
    -0.3602  -0.3296  -0.3281  -0.3277  -0.3159  -0.3159  -0.2967  -0.2645
    -0.2642  -0.2551  -0.2548  -0.1870  -0.1867  -0.1497  -0.1491  -0.0922
    -0.0896  -0.0891  -0.0796  -0.0602   0.1611   0.1642   0.5096   0.5096
     0.5999   0.6029   0.7939   0.8090   0.8272   0.9581   0.9588   1.3898
     1.3898   1.4085   1.6658   1.6998   1.6999   1.9749   1.9798   2.0562
     2.0566   2.0828   2.0856   2.3126   2.3131   2.4009   2.4011   2.4722
     2.5380   2.5433   2.7048   2.8023   3.2433   3.2441   3.2463   3.2482
     3.3019   3.3022   3.5941   3.5943   3.8745   3.8778   3.9768   4.2898
     4.3321   4.3343   4.5456   4.5526   4.6339   4.6346   4.7251   4.8424
     4.8442   4.9603   4.9613   5.0837   5.2650   5.3331   5.3355   5.4917
     5.5051   5.7184   5.7211   5.7232   5.7479   5.7485   5.8110   5.8132
     5.8555   6.0318   6.2508   6.3058   6.4176   6.4358   6.5465   6.5545
     6.5555   6.5670   6.5711   6.7293   6.8081   6.8103   6.8448   6.9729
     7.0000   7.0284   7.0420

     the Fermi energy is     1.5322 ev

!    total energy              =   -6604.43216347 Ry
     Harris-Foulkes estimate   =   -6604.43216344 Ry
     estimated scf accuracy    <          9.0E-09 Ry

     The total energy is the sum of the following terms:

     one-electron contribution =  -48379.27972046 Ry
     hartree contribution      =   24693.34136051 Ry
     xc contribution           =   -3204.95176328 Ry
     ewald contribution        =   20286.45506619 Ry
     smearing contrib. (-TS)   =       0.00289357 Ry

     convergence has been achieved in  22 iterations

     Writing output data file 3902379.save

     init_run     :    136.47s CPU    144.12s WALL (       1 calls)
     electrons    :   8578.51s CPU   9010.55s WALL (       1 calls)

     Called by init_run:
     wfcinit      :    111.52s CPU    118.52s WALL (       1 calls)
     potinit      :      7.67s CPU      8.06s WALL (       1 calls)

     Called by electrons:
     c_bands      :   7380.56s CPU   7728.48s WALL (      23 calls)
     sum_band     :    942.12s CPU   1014.68s WALL (      23 calls)
     v_of_rho     :     87.48s CPU     95.38s WALL (      23 calls)
     newd         :    171.65s CPU    175.03s WALL (      23 calls)
     mix_rho      :      2.64s CPU      2.92s WALL (      23 calls)
     vdW_energy   :      5.35s CPU      5.78s WALL (      23 calls)
     vdW_ffts     :     48.20s CPU     52.27s WALL (      46 calls)
     vdW_v        :     10.75s CPU     11.37s WALL (      23 calls)

     Called by c_bands:
     init_us_2    :     11.48s CPU     11.79s WALL (     564 calls)
     cegterg      :   7172.95s CPU   7505.06s WALL (     276 calls)

     Called by *egterg:
     h_psi        :   2992.67s CPU   3291.49s WALL (    1802 calls)
     s_psi        :    254.13s CPU    255.85s WALL (    1802 calls)
     g_psi        :      6.02s CPU      6.05s WALL (    1514 calls)
     cdiaghg      :   1885.89s CPU   1890.90s WALL (    1778 calls)

     Called by h_psi:
     add_vuspsi   :    254.90s CPU    256.71s WALL (    1802 calls)

     General routines
     calbec       :    663.95s CPU    666.46s WALL (    2078 calls)
     fft          :    138.82s CPU    146.29s WALL (    1518 calls)
     ffts         :      1.38s CPU      1.54s WALL (      46 calls)
     fftw         :   2494.23s CPU   2825.80s WALL (  669998 calls)
     interpolate  :      3.40s CPU      3.84s WALL (      46 calls)
     davcio       :      0.00s CPU      0.16s WALL (      12 calls)

     Parallel routines
     fft_scatter  :   1984.85s CPU   2254.47s WALL (  671562 calls)

     PWSCF        :     2h25m CPU        2h32m WALL


   This run was terminated on:  19: 7:42  29Aug2015            

=------------------------------------------------------------------------------=
   JOB DONE.
=------------------------------------------------------------------------------=
