Setting SGE environment for SCC

     Program PWSCF v.5.1.2 starts on 26Jun2015 at  7:14: 3 

     This program is part of the open-source Quantum ESPRESSO suite
     for quantum simulation of materials; please cite
         "P. Giannozzi et al., J. Phys.:Condens. Matter 21 395502 (2009);
          URL http://www.quantum-espresso.org", 
     in publications or presentations arising from this work. More details at
     http://www.quantum-espresso.org/quote

     Parallel version (MPI), running on    32 processors
     R & G space division:  proc/nbgrp/npool/nimage =      32
     Reading input from top.O1.Au50.d.3.4.phi.45.psi.0.in
Warning: card &IONS ignored
Warning: card / ignored
Warning: card &CELL ignored
Warning: card / ignored

     Current dimensions of program PWSCF are:
     Max number of different atomic species (ntypx) = 10
     Max number of k-points (npk) =  40000
     Max angular momentum in pseudopotentials (lmaxx) =  3

     IMPORTANT: XC functional enforced from input :
     Exchange-correlation      = VDW-DF ( 1  4  4  0 1 0)
     Any further DFT definition will be discarded
     Please, verify this is what you really want


     Subspace diagonalization in iterative solution of the eigenvalue problem:
     a serial algorithm will be used


     Parallelization info
     --------------------
     sticks:   dense  smooth     PW     G-vecs:    dense   smooth      PW
     Min         445     223     58                96775    34191    4534
     Max         446     224     59                96790    34246    4540
     Sum       14269    7147   1867              3097177  1095093  145167


     Title: 
     top.O1.Au50.d.3.4.phi.45.psi.0                                             


     bravais-lattice index     =            4
     lattice parameter (alat)  =      22.7436  a.u.
     unit-cell volume          =   22924.1508 (a.u.)^3
     number of atoms/cell      =           67
     number of atomic types    =            3
     number of electrons       =       712.00
     number of Kohn-Sham states=          427
     kinetic-energy cutoff     =      50.0000  Ry
     charge density cutoff     =     400.0000  Ry
     convergence threshold     =      1.0E-08
     mixing beta               =       0.7000
     number of iterations used =            8  plain     mixing
     Exchange-correlation      = VDW-DF ( 1  4  4  0 1 0)

     celldm(1)=  22.743643  celldm(2)=   0.000000  celldm(3)=   2.250000
     celldm(4)=   0.000000  celldm(5)=   0.000000  celldm(6)=   0.000000

     crystal axes: (cart. coord. in units of alat)
               a(1) = (   1.000000   0.000000   0.000000 )  
               a(2) = (  -0.500000   0.866025   0.000000 )  
               a(3) = (   0.000000   0.000000   2.250000 )  

     reciprocal axes: (cart. coord. in units 2 pi/alat)
               b(1) = (  1.000000  0.577350 -0.000000 )  
               b(2) = (  0.000000  1.154701  0.000000 )  
               b(3) = (  0.000000 -0.000000  0.444444 )  


     PseudoPot. # 1 for Au read from file:
     /home/scc/andrejb/qe/pseudo/Au.pbe-nd-van.UPF
     MD5 check sum: 458681b50f36d87ef23c61b04bba420a
     Pseudo is Ultrasoft + core correction, Zval = 11.0
     Generated by new atomic code, or converted to UPF format
     Using radial grid of  985 points,  3 beta functions with: 
                l(1) =   1
                l(2) =   2
                l(3) =   2
     Q(r) pseudized with  8 coefficients,  rinner =    1.100   1.100   1.100
                                                       1.100   1.100

     PseudoPot. # 2 for H  read from file:
     /home/scc/andrejb/qe/pseudo/H.pbe-van_ak.UPF
     MD5 check sum: 403db7282739603aa925980fa9b8608d
     Pseudo is Ultrasoft, Zval =  1.0
     Generated by new atomic code, or converted to UPF format
     Using radial grid of  615 points,  1 beta functions with: 
                l(1) =   0
     Q(r) pseudized with  8 coefficients,  rinner =    0.800

     PseudoPot. # 3 for O  read from file:
     /home/scc/andrejb/qe/pseudo/O.pbe-van_ak.UPF
     MD5 check sum: 4b8c549914a63cae506c6ff22b5af4fe
     Pseudo is Ultrasoft, Zval =  6.0
     Generated by new atomic code, or converted to UPF format
     Using radial grid of  737 points,  4 beta functions with: 
                l(1) =   0
                l(2) =   0
                l(3) =   1
                l(4) =   1
     Q(r) pseudized with  8 coefficients,  rinner =    0.800   0.800   0.800


     vdW kernel table read from file vdW_kernel_table
     MD5 check sum: 48e77a2e26edf626eeb0eaa751ad5cac

     atomic species   valence    mass     pseudopotential
        Au            11.00   196.96657     Au( 1.00)
        H              1.00     1.01000     H ( 1.00)
        O              6.00    16.00000     O ( 1.00)

     No symmetry found



   Cartesian axes

     site n.     atom                  positions (alat units)
         1           O   tau(   1) = (   0.4790780   0.3968269   0.8954964  )
         2           H   tau(   2) = (   0.4731484   0.3321400   0.9437499  )
         3           H   tau(   3) = (   0.4848144   0.4595658   0.9462571  )
         4           Au  tau(   4) = (   0.3540481   0.6132292   0.0000000  )
         5           Au  tau(   5) = (   0.4790062   0.3967954   0.0000000  )
         6           Au  tau(   6) = (   0.6039644   0.1803616   0.0000000  )
         7           Au  tau(   7) = (   0.7289225  -0.0360723   0.0000000  )
         8           Au  tau(   8) = (   0.1041318   0.6132292   0.0000000  )
         9           Au  tau(   9) = (   0.2290899   0.3967954   0.0000000  )
        10           Au  tau(  10) = (   0.3540481   0.1803616   0.0000000  )
        11           Au  tau(  11) = (   0.4790062  -0.0360723   0.0000000  )
        12           Au  tau(  12) = (  -0.1457845   0.6132292   0.0000000  )
        13           Au  tau(  13) = (  -0.0208264   0.3967954   0.0000000  )
        14           Au  tau(  14) = (   0.1041318   0.1803616   0.0000000  )
        15           Au  tau(  15) = (   0.2290899  -0.0360723   0.0000000  )
        16           Au  tau(  16) = (  -0.3957008   0.6132292   0.0000000  )
        17           Au  tau(  17) = (  -0.2707426   0.3967954   0.0000000  )
        18           Au  tau(  18) = (  -0.1457845   0.1803616   0.0000000  )
        19           Au  tau(  19) = (  -0.0208264  -0.0360723   0.0000000  )
        20           Au  tau(  20) = (   0.4790062   0.6853738   0.2040557  )
        21           Au  tau(  21) = (   0.6039644   0.4689400   0.2040557  )
        22           Au  tau(  22) = (   0.7289225   0.2525062   0.2040557  )
        23           Au  tau(  23) = (   0.8538806   0.0360723   0.2040557  )
        24           Au  tau(  24) = (   0.2290899   0.6853738   0.2040557  )
        25           Au  tau(  25) = (   0.3540481   0.4689400   0.2040557  )
        26           Au  tau(  26) = (   0.4790062   0.2525062   0.2040557  )
        27           Au  tau(  27) = (   0.6039644   0.0360723   0.2040557  )
        28           Au  tau(  28) = (  -0.0208264   0.6853738   0.2040557  )
        29           Au  tau(  29) = (   0.1041318   0.4689400   0.2040557  )
        30           Au  tau(  30) = (   0.2290899   0.2525062   0.2040557  )
        31           Au  tau(  31) = (   0.3540481   0.0360723   0.2040557  )
        32           Au  tau(  32) = (  -0.2707426   0.6853738   0.2040557  )
        33           Au  tau(  33) = (  -0.1457845   0.4689400   0.2040557  )
        34           Au  tau(  34) = (  -0.0208264   0.2525062   0.2040557  )
        35           Au  tau(  35) = (   0.1041318   0.0360723   0.2040557  )
        36           Au  tau(  36) = (   0.3541162   0.7576593   0.4066483  )
        37           Au  tau(  37) = (   0.4791000   0.5411421   0.4066696  )
        38           Au  tau(  38) = (   0.6040570   0.3246862   0.4066618  )
        39           Au  tau(  39) = (   0.7290270   0.1081684   0.4066530  )
        40           Au  tau(  40) = (   0.1041162   0.7576236   0.4066247  )
        41           Au  tau(  41) = (   0.2291001   0.5411062   0.4066455  )
        42           Au  tau(  42) = (   0.3540567   0.3246505   0.4066380  )
        43           Au  tau(  43) = (   0.4790276   0.1081324   0.4066292  )
        44           Au  tau(  44) = (  -0.1458201   0.7576104   0.4066225  )
        45           Au  tau(  45) = (  -0.0208365   0.5410930   0.4066438  )
        46           Au  tau(  46) = (   0.1041202   0.3246372   0.4066359  )
        47           Au  tau(  47) = (   0.2290908   0.1081193   0.4066273  )
        48           Au  tau(  48) = (  -0.3958167   0.7575791   0.4065812  )
        49           Au  tau(  49) = (  -0.2708328   0.5410617   0.4066025  )
        50           Au  tau(  50) = (  -0.1458763   0.3246061   0.4065947  )
        51           Au  tau(  51) = (  -0.0209056   0.1080882   0.4065858  )
        52           Au  tau(  52) = (   0.3541084   0.6133344   0.6129762  )
        53           Au  tau(  53) = (   0.4790780   0.3968269   0.6129968  )
        54           Au  tau(  54) = (   0.6040356   0.1803811   0.6129859  )
        55           Au  tau(  55) = (   0.7290165  -0.0361221   0.6129385  )
        56           Au  tau(  56) = (   0.1041243   0.6133091   0.6130023  )
        57           Au  tau(  57) = (   0.2290941   0.3968013   0.6130241  )
        58           Au  tau(  58) = (   0.3540515   0.1803552   0.6130121  )
        59           Au  tau(  59) = (   0.4790323  -0.0361475   0.6129659  )
        60           Au  tau(  60) = (  -0.1458030   0.6133014   0.6129980  )
        61           Au  tau(  61) = (  -0.0208339   0.3967936   0.6130189  )
        62           Au  tau(  62) = (   0.1041239   0.1803477   0.6130083  )
        63           Au  tau(  63) = (   0.2291046  -0.0361554   0.6129607  )
        64           Au  tau(  64) = (  -0.3957908   0.6132739   0.6129471  )
        65           Au  tau(  65) = (  -0.2708208   0.3967658   0.6129688  )
        66           Au  tau(  66) = (  -0.1458636   0.1803200   0.6129569  )
        67           Au  tau(  67) = (  -0.0208823  -0.0361826   0.6129110  )

     number of k points=    12  Marzari-Vanderbilt smearing, width (Ry)=  0.0200
                       cart. coord. in units 2pi/alat
        k(    1) = (   0.2500000   0.4330127   0.1111111), wk =   0.1666667
        k(    2) = (   0.2500000  -0.1443376   0.1111111), wk =   0.1666667
        k(    3) = (  -0.2500000  -0.4330127   0.1111111), wk =   0.1666667
        k(    4) = (  -0.2500000   0.4330127  -0.1111111), wk =   0.1666667
        k(    5) = (   0.2500000  -0.4330127  -0.1111111), wk =   0.1666667
        k(    6) = (   0.5000000   0.0000000   0.1111111), wk =   0.1666667
        k(    7) = (  -0.5000000   0.0000000   0.1111111), wk =   0.1666667
        k(    8) = (  -0.2500000   0.1443376   0.1111111), wk =   0.1666667
        k(    9) = (  -0.2500000  -0.1443376  -0.1111111), wk =   0.1666667
        k(   10) = (   0.2500000   0.1443376  -0.1111111), wk =   0.1666667
        k(   11) = (   0.0000000  -0.2886751   0.1111111), wk =   0.1666667
        k(   12) = (   0.0000000   0.2886751   0.1111111), wk =   0.1666667

     Dense  grid:  3097177 G-vectors     FFT dimensions: ( 150, 150, 360)

     Smooth grid:  1095093 G-vectors     FFT dimensions: ( 108, 108, 240)

     Largest allocated arrays     est. size (Mb)     dimensions
        Kohn-Sham Wavefunctions        28.01 Mb     (    4299,  427)
        NL pseudopotentials            55.23 Mb     (    4299,  842)
        Each V/rho on FFT grid          4.12 Mb     (  270000)
        Each G-vector array             0.74 Mb     (   96788)
        G-vector shells                 0.16 Mb     (   21404)
     Largest temporary arrays     est. size (Mb)     dimensions
        Auxiliary wavefunctions       112.04 Mb     (    4299, 1708)
        Each subspace H/S matrix       44.51 Mb     (    1708, 1708)
        Each <psi_i|beta_j> matrix      5.49 Mb     (     842,  427)
        Arrays for rho mixing          32.96 Mb     (  270000,    8)

     Initial potential from superposition of free atoms
     Check: negative starting charge=   -1.730113

     starting charge  711.25682, renormalised to  712.00000

     negative rho (up, down):  1.732E+00 0.000E+00


     ************************************************************************
     *
     * You are using vdW-DF for exchange-correlation in this calculation.
     * Please cite the following three references that made this development
     * possible:
     *
     *   M. Dion, H. Rydberg, E. Schroder, D. C. Langreth, and
     *   B. I. Lundqvist, Phys. Rev. Lett. 92, 246401 (2004).
     *
     *   T. Thonhauser, V. R. Cooper, S. Li, A. Puzder, P. Hyldgaard, and
     *   D. C. Langreth, Phys. Rev. B 76, 125112 (2007).
     *
     *   G. Roman-Perez and J. M. Soler, Phys. Rev. Lett. 103, 096102 (2009).
     *
     *
     * If you are using vdW-DF2, please also cite:
     *
     *   K. Lee, E. D. Murray, L. Kong, B. I. Lundqvist, and
     *   D. C. Langreth, Phys. Rev. B 82, 081101(R) (2010).
     *
     *
     * If you are calculating the stress with vdW-DF, please also cite:
     *
     *   R. Sabatini, E. Kucukbenli, B. Kolb, T. Thonhauser, and
     *   S. de Gironcoli, J. Phys.: Condens. Matter 24, 424209 (2012).
     *
     ************************************************************************

     Carrying out vdW-DF run using the following parameters:

     Nqs =      20    Nr_points =    1024   r_max =   100.000
     q_mesh =
               0.00001000     0.04494208     0.09755937     0.15916263
               0.23128650     0.31572767     0.41458969     0.53033537
               0.66584808     0.82450364     1.01025438     1.22772762
               1.48234092     1.78043706     2.12944203     2.53805004
               3.01644009     3.57652955     4.23227104     5.00000000

     Gradients computed in reciprocal space

     ************************************************************************


     Starting wfc are  582 randomized atomic wfcs

     total cpu time spent up to now is      160.0 secs

     Self-consistent Calculation

     iteration #  1     ecut=    50.00 Ry     beta=0.70
     Davidson diagonalization with overlap
     ethr =  1.00E-02,  avg # of iterations =  3.0

     Threshold (ethr) on eigenvalues was too large:
     Diagonalizing with lowered threshold

     Davidson diagonalization with overlap
     ethr =  3.55E-04,  avg # of iterations =  5.7

     negative rho (up, down):  1.728E+00 0.000E+00

     total cpu time spent up to now is      728.9 secs

     total energy              =   -6602.76614078 Ry
     Harris-Foulkes estimate   =   -6605.05454500 Ry
     estimated scf accuracy    <       2.86239769 Ry

     iteration #  2     ecut=    50.00 Ry     beta=0.70
     Davidson diagonalization with overlap
     ethr =  4.02E-04,  avg # of iterations = 11.3

     negative rho (up, down):  1.725E+00 0.000E+00

     total cpu time spent up to now is     1668.3 secs

     total energy              =   -6596.27052574 Ry
     Harris-Foulkes estimate   =   -6610.24350260 Ry
     estimated scf accuracy    <      79.14929676 Ry

     iteration #  3     ecut=    50.00 Ry     beta=0.70
     Davidson diagonalization with overlap
     ethr =  4.02E-04,  avg # of iterations =  6.0

     negative rho (up, down):  1.735E+00 0.000E+00

     total cpu time spent up to now is     2257.2 secs

     total energy              =   -6603.11618549 Ry
     Harris-Foulkes estimate   =   -6605.01362771 Ry
     estimated scf accuracy    <       8.82228354 Ry

     iteration #  4     ecut=    50.00 Ry     beta=0.70
     Davidson diagonalization with overlap
     ethr =  4.02E-04,  avg # of iterations =  6.5

     negative rho (up, down):  1.737E+00 0.000E+00

     total cpu time spent up to now is     2619.8 secs

     total energy              =   -6603.61710347 Ry
     Harris-Foulkes estimate   =   -6605.06205005 Ry
     estimated scf accuracy    <      12.43696417 Ry

     iteration #  5     ecut=    50.00 Ry     beta=0.70
     Davidson diagonalization with overlap
     ethr =  4.02E-04,  avg # of iterations =  6.0

     negative rho (up, down):  1.746E+00 0.000E+00

     total cpu time spent up to now is     2969.2 secs

     total energy              =   -6604.28813688 Ry
     Harris-Foulkes estimate   =   -6604.66166986 Ry
     estimated scf accuracy    <       2.97388715 Ry

     iteration #  6     ecut=    50.00 Ry     beta=0.70
     Davidson diagonalization with overlap
     ethr =  4.02E-04,  avg # of iterations =  2.3

     negative rho (up, down):  1.751E+00 0.000E+00

     total cpu time spent up to now is     3214.2 secs

     total energy              =   -6604.42374579 Ry
     Harris-Foulkes estimate   =   -6604.47166610 Ry
     estimated scf accuracy    <       0.14438001 Ry

     iteration #  7     ecut=    50.00 Ry     beta=0.70
     Davidson diagonalization with overlap
     ethr =  2.03E-05,  avg # of iterations = 11.8

     negative rho (up, down):  1.753E+00 0.000E+00

     total cpu time spent up to now is     3711.0 secs

     total energy              =   -6604.43108726 Ry
     Harris-Foulkes estimate   =   -6604.45996933 Ry
     estimated scf accuracy    <       0.12182884 Ry

     iteration #  8     ecut=    50.00 Ry     beta=0.70
     Davidson diagonalization with overlap
     ethr =  1.71E-05,  avg # of iterations =  3.3

     negative rho (up, down):  1.755E+00 0.000E+00

     total cpu time spent up to now is     3977.3 secs

     total energy              =   -6604.43500089 Ry
     Harris-Foulkes estimate   =   -6604.44843714 Ry
     estimated scf accuracy    <       0.04900676 Ry

     iteration #  9     ecut=    50.00 Ry     beta=0.70
     Davidson diagonalization with overlap
     ethr =  6.88E-06,  avg # of iterations =  9.4

     negative rho (up, down):  1.755E+00 0.000E+00

     total cpu time spent up to now is     4370.1 secs

     total energy              =   -6604.43532118 Ry
     Harris-Foulkes estimate   =   -6604.44189864 Ry
     estimated scf accuracy    <       0.02200324 Ry

     iteration # 10     ecut=    50.00 Ry     beta=0.70
     Davidson diagonalization with overlap
     ethr =  3.09E-06,  avg # of iterations = 10.5

     negative rho (up, down):  1.757E+00 0.000E+00

     total cpu time spent up to now is     4775.4 secs

     total energy              =   -6604.43561685 Ry
     Harris-Foulkes estimate   =   -6604.43810712 Ry
     estimated scf accuracy    <       0.00896071 Ry

     iteration # 11     ecut=    50.00 Ry     beta=0.70
     Davidson diagonalization with overlap
     ethr =  1.26E-06,  avg # of iterations =  9.8

     negative rho (up, down):  1.757E+00 0.000E+00

     total cpu time spent up to now is     5164.0 secs

     total energy              =   -6604.43555647 Ry
     Harris-Foulkes estimate   =   -6604.43672624 Ry
     estimated scf accuracy    <       0.00507523 Ry

     iteration # 12     ecut=    50.00 Ry     beta=0.70
     Davidson diagonalization with overlap
     ethr =  7.13E-07,  avg # of iterations =  4.1

     negative rho (up, down):  1.758E+00 0.000E+00

     total cpu time spent up to now is     5450.6 secs

     total energy              =   -6604.43496460 Ry
     Harris-Foulkes estimate   =   -6604.43597690 Ry
     estimated scf accuracy    <       0.00160271 Ry

     iteration # 13     ecut=    50.00 Ry     beta=0.70
     Davidson diagonalization with overlap
     c_bands:  1 eigenvalues not converged
     ethr =  2.25E-07,  avg # of iterations = 12.1

     negative rho (up, down):  1.758E+00 0.000E+00

     total cpu time spent up to now is     5925.7 secs

     total energy              =   -6604.43521692 Ry
     Harris-Foulkes estimate   =   -6604.43537005 Ry
     estimated scf accuracy    <       0.00038112 Ry

     iteration # 14     ecut=    50.00 Ry     beta=0.70
     Davidson diagonalization with overlap
     ethr =  5.35E-08,  avg # of iterations =  3.0

     negative rho (up, down):  1.758E+00 0.000E+00

     total cpu time spent up to now is     6210.6 secs

     total energy              =   -6604.43527927 Ry
     Harris-Foulkes estimate   =   -6604.43533283 Ry
     estimated scf accuracy    <       0.00017079 Ry

     iteration # 15     ecut=    50.00 Ry     beta=0.70
     Davidson diagonalization with overlap
     ethr =  2.40E-08,  avg # of iterations =  2.1

     negative rho (up, down):  1.758E+00 0.000E+00

     total cpu time spent up to now is     6478.4 secs

     total energy              =   -6604.43528938 Ry
     Harris-Foulkes estimate   =   -6604.43532997 Ry
     estimated scf accuracy    <       0.00016761 Ry

     iteration # 16     ecut=    50.00 Ry     beta=0.70
     Davidson diagonalization with overlap
     ethr =  2.35E-08,  avg # of iterations =  2.0

     negative rho (up, down):  1.758E+00 0.000E+00

     total cpu time spent up to now is     6735.1 secs

     total energy              =   -6604.43529771 Ry
     Harris-Foulkes estimate   =   -6604.43532084 Ry
     estimated scf accuracy    <       0.00016443 Ry

     iteration # 17     ecut=    50.00 Ry     beta=0.70
     Davidson diagonalization with overlap
     ethr =  2.31E-08,  avg # of iterations =  1.0

     negative rho (up, down):  1.757E+00 0.000E+00

     total cpu time spent up to now is     6961.5 secs

     total energy              =   -6604.43530679 Ry
     Harris-Foulkes estimate   =   -6604.43531768 Ry
     estimated scf accuracy    <       0.00009074 Ry

     iteration # 18     ecut=    50.00 Ry     beta=0.70
     Davidson diagonalization with overlap
     ethr =  1.27E-08,  avg # of iterations =  1.0

     negative rho (up, down):  1.757E+00 0.000E+00

     total cpu time spent up to now is     7197.5 secs

     total energy              =   -6604.43531155 Ry
     Harris-Foulkes estimate   =   -6604.43531397 Ry
     estimated scf accuracy    <       0.00001099 Ry

     iteration # 19     ecut=    50.00 Ry     beta=0.70
     Davidson diagonalization with overlap
     ethr =  1.54E-09,  avg # of iterations =  2.0

     negative rho (up, down):  1.757E+00 0.000E+00

     total cpu time spent up to now is     7471.0 secs

     total energy              =   -6604.43531292 Ry
     Harris-Foulkes estimate   =   -6604.43531328 Ry
     estimated scf accuracy    <       0.00000160 Ry

     iteration # 20     ecut=    50.00 Ry     beta=0.70
     Davidson diagonalization with overlap
     ethr =  2.25E-10,  avg # of iterations =  2.0

     negative rho (up, down):  1.757E+00 0.000E+00

     total cpu time spent up to now is     7726.7 secs

     total energy              =   -6604.43531329 Ry
     Harris-Foulkes estimate   =   -6604.43531342 Ry
     estimated scf accuracy    <       0.00000128 Ry

     iteration # 21     ecut=    50.00 Ry     beta=0.70
     Davidson diagonalization with overlap
     ethr =  1.80E-10,  avg # of iterations =  2.0

     negative rho (up, down):  1.757E+00 0.000E+00

     total cpu time spent up to now is     7979.2 secs

     total energy              =   -6604.43531351 Ry
     Harris-Foulkes estimate   =   -6604.43531348 Ry
     estimated scf accuracy    <       0.00000017 Ry

     iteration # 22     ecut=    50.00 Ry     beta=0.70
     Davidson diagonalization with overlap
     ethr =  2.43E-11,  avg # of iterations =  2.5

     negative rho (up, down):  1.757E+00 0.000E+00

     total cpu time spent up to now is     8245.1 secs

     total energy              =   -6604.43531352 Ry
     Harris-Foulkes estimate   =   -6604.43531355 Ry
     estimated scf accuracy    <       0.00000002 Ry

     iteration # 23     ecut=    50.00 Ry     beta=0.70
     Davidson diagonalization with overlap
     ethr =  3.35E-12,  avg # of iterations =  3.0

     negative rho (up, down):  1.757E+00 0.000E+00

     total cpu time spent up to now is     8614.8 secs

     total energy              =   -6604.43531354 Ry
     Harris-Foulkes estimate   =   -6604.43531354 Ry
     estimated scf accuracy    <       0.00000004 Ry

     iteration # 24     ecut=    50.00 Ry     beta=0.70
     Davidson diagonalization with overlap
     ethr =  3.35E-12,  avg # of iterations =  3.0

     negative rho (up, down):  1.757E+00 0.000E+00

     total cpu time spent up to now is     8894.5 secs

     total energy              =   -6604.43531356 Ry
     Harris-Foulkes estimate   =   -6604.43531355 Ry
     estimated scf accuracy    <       0.00000001 Ry

     iteration # 25     ecut=    50.00 Ry     beta=0.70
     Davidson diagonalization with overlap
     ethr =  1.69E-12,  avg # of iterations =  2.0

     negative rho (up, down):  1.757E+00 0.000E+00

     total cpu time spent up to now is     9143.0 secs

     End of self-consistent calculation

          k = 0.2500 0.4330 0.1111 (136853 PWs)   bands (ev):

   -18.9916  -6.8007  -6.2158  -5.8165  -5.8164  -5.1387  -4.8051  -4.8049
    -4.7661  -4.7656  -4.4048  -4.4046  -4.3060  -4.3060  -4.2920  -4.2708
    -4.2442  -4.1386  -4.1382  -4.1142  -4.0707  -4.0707  -4.0018  -4.0016
    -3.9951  -3.9950  -3.9736  -3.9680  -3.9677  -3.8954  -3.8950  -3.8654
    -3.8652  -3.8532  -3.8530  -3.8298  -3.8298  -3.8073  -3.7989  -3.7987
    -3.7723  -3.7199  -3.7198  -3.6720  -3.6717  -3.6127  -3.6125  -3.5581
    -3.5579  -3.5577  -3.5573  -3.5219  -3.4828  -3.4822  -3.4763  -3.4750
    -3.4750  -3.4447  -3.4440  -3.4358  -3.3741  -3.3733  -3.3642  -3.3482
    -3.3408  -3.2706  -3.2680  -3.2355  -3.2341  -3.2072  -3.2064  -3.1932
    -3.1787  -3.1270  -3.1161  -3.1059  -3.0987  -3.0909  -3.0463  -3.0415
    -3.0403  -3.0037  -2.9720  -2.9711  -2.9632  -2.9614  -2.9496  -2.9488
    -2.9418  -2.9413  -2.9315  -2.8909  -2.8535  -2.8526  -2.8387  -2.8382
    -2.8128  -2.8027  -2.8024  -2.7800  -2.7366  -2.7354  -2.7271  -2.6878
    -2.6813  -2.6700  -2.6693  -2.6405  -2.6400  -2.6109  -2.5735  -2.5733
    -2.5510  -2.5439  -2.5301  -2.5293  -2.4791  -2.4789  -2.4464  -2.4235
    -2.4235  -2.3993  -2.3990  -2.3879  -2.3877  -2.3770  -2.3543  -2.3542
    -2.3097  -2.3093  -2.3082  -2.2913  -2.2909  -2.2860  -2.2763  -2.2759
    -2.2735  -2.2733  -2.2676  -2.2550  -2.2545  -2.2442  -2.2186  -2.2183
    -2.2169  -2.2160  -2.2148  -2.2129  -2.2118  -2.1845  -2.1815  -2.1673
    -2.1671  -2.1495  -2.1491  -2.1393  -2.1391  -2.1378  -2.1371  -2.1181
    -2.1165  -2.1158  -2.1148  -2.0978  -2.0719  -2.0715  -2.0319  -2.0315
    -2.0060  -2.0058  -1.9788  -1.9783  -1.9508  -1.9507  -1.9339  -1.9291
    -1.9023  -1.8798  -1.8794  -1.8747  -1.8732  -1.8696  -1.8628  -1.8607
    -1.8362  -1.8297  -1.8192  -1.7637  -1.7596  -1.7580  -1.7558  -1.7549
    -1.7180  -1.7000  -1.6997  -1.6720  -1.6711  -1.6111  -1.6107  -1.5819
    -1.5642  -1.5624  -1.5026  -1.5023  -1.4910  -1.4898  -1.4797  -1.4788
    -1.4757  -1.4664  -1.4656  -1.4116  -1.4093  -1.3984  -1.3979  -1.3965
    -1.3787  -1.3782  -1.3428  -1.3421  -1.3251  -1.3249  -1.3247  -1.3180
    -1.3128  -1.3040  -1.3027  -1.2842  -1.2837  -1.2439  -1.2403  -1.2303
    -1.2298  -1.2094  -1.1963  -1.1536  -1.1523  -1.1264  -1.1222  -1.1215
    -1.0924  -1.0457  -1.0405  -1.0394  -1.0382  -1.0347  -1.0319  -1.0242
    -1.0091  -1.0040  -0.9949  -0.9640  -0.9629  -0.9332  -0.9326  -0.9277
    -0.9262  -0.9196  -0.9036  -0.9030  -0.9021  -0.8994  -0.8975  -0.8626
    -0.8597  -0.8590  -0.8578  -0.8277  -0.8270  -0.8233  -0.7999  -0.7922
    -0.7910  -0.7453  -0.7389  -0.7366  -0.7032  -0.6949  -0.6842  -0.6840
    -0.6761  -0.6758  -0.6748  -0.6724  -0.6627  -0.6612  -0.6362  -0.6359
    -0.6331  -0.6312  -0.6300  -0.5938  -0.5934  -0.5827  -0.5815  -0.5668
    -0.5601  -0.5579  -0.5475  -0.4922  -0.4897  -0.4810  -0.4807  -0.4796
    -0.4789  -0.4737  -0.4551  -0.4531  -0.4457  -0.4454  -0.4436  -0.4422
    -0.4039  -0.4018  -0.4010  -0.3935  -0.3923  -0.3874  -0.3856  -0.3753
    -0.3698  -0.3665  -0.3648  -0.3240  -0.3236  -0.3153  -0.3119  -0.3112
    -0.2345  -0.2336  -0.2315  -0.2308  -0.2220  -0.2214  -0.1853  -0.1726
    -0.1722  -0.1461  -0.1407  -0.1379  -0.0198  -0.0173   0.0835   0.4989
     0.4993   0.5020   0.5021   0.5616   0.5666   0.9519   0.9524   0.9947
     0.9953   1.1033   1.1839   1.2918   1.2991   1.5110   1.5247   2.1483
     2.1508   2.3099   2.3137   2.4406   2.4477   2.5477   2.5478   2.7019
     2.9393   2.9414   3.0627   3.2841   3.2924   3.3712   3.3722   3.4714
     3.4870   3.6728   3.6845   3.7434   3.9439   3.9446   4.0051   4.0095
     4.2638   4.2689   4.2756   4.5144   4.5558   4.5578   4.6023   4.9367
     4.9399   4.9677   5.0804   5.1028   5.2748   5.2754   5.3248   5.3573
     5.7208   5.9396   6.0508   6.0621   6.0668   6.0764   6.1369   6.1380
     6.2019   6.2466   6.2718   6.2955   6.2993   6.3080   6.3125   6.3447
     6.3598   6.3704   6.4960   6.5860   6.7235   6.7794   6.9043   6.9758
     7.0035   7.0068   7.0186

          k = 0.2500-0.1443 0.1111 (136898 PWs)   bands (ev):

   -18.9916  -6.8007  -6.4258  -5.6337  -5.3426  -5.2835  -5.2832  -4.7451
    -4.7448  -4.6132  -4.6129  -4.4585  -4.4267  -4.3653  -4.3319  -4.3315
    -4.2983  -4.2983  -4.1697  -4.1279  -4.1278  -4.0680  -4.0469  -4.0467
    -3.9445  -3.9444  -3.9083  -3.9080  -3.9079  -3.8812  -3.8595  -3.8594
    -3.7545  -3.7523  -3.7522  -3.7316  -3.7147  -3.7146  -3.7024  -3.7023
    -3.6891  -3.6589  -3.6588  -3.6585  -3.6583  -3.6260  -3.6258  -3.6081
    -3.6080  -3.5934  -3.5502  -3.5495  -3.5203  -3.5051  -3.5047  -3.4997
    -3.4997  -3.4251  -3.4251  -3.3899  -3.3888  -3.3874  -3.3196  -3.3195
    -3.3050  -3.3042  -3.2737  -3.2727  -3.2722  -3.2717  -3.1294  -3.1186
    -3.1090  -3.0926  -3.0909  -3.0862  -3.0715  -3.0671  -3.0454  -3.0433
    -2.9956  -2.9942  -2.9793  -2.9784  -2.9582  -2.9100  -2.9099  -2.8902
    -2.8857  -2.8847  -2.8446  -2.8441  -2.8381  -2.8367  -2.8216  -2.8198
    -2.7818  -2.7814  -2.7599  -2.7597  -2.7566  -2.7557  -2.7530  -2.6763
    -2.6758  -2.6742  -2.6460  -2.6448  -2.5840  -2.5837  -2.5554  -2.5544
    -2.5413  -2.5407  -2.5355  -2.5061  -2.5060  -2.4963  -2.4787  -2.4531
    -2.4529  -2.4526  -2.4321  -2.4318  -2.4208  -2.4200  -2.4176  -2.4164
    -2.4090  -2.3628  -2.3305  -2.3302  -2.3146  -2.3007  -2.2943  -2.2942
    -2.2870  -2.2861  -2.2850  -2.2553  -2.2550  -2.2545  -2.2451  -2.2447
    -2.2278  -2.2005  -2.1998  -2.1993  -2.1986  -2.1972  -2.1531  -2.1216
    -2.1215  -2.1207  -2.1146  -2.1056  -2.0927  -2.0925  -2.0757  -2.0757
    -2.0418  -2.0409  -2.0405  -2.0222  -2.0207  -2.0204  -1.9876  -1.9870
    -1.9461  -1.9453  -1.9384  -1.9364  -1.9359  -1.9297  -1.9292  -1.9272
    -1.9264  -1.9205  -1.9191  -1.9032  -1.9024  -1.7761  -1.7753  -1.7433
    -1.7379  -1.7364  -1.7316  -1.7312  -1.7138  -1.7132  -1.7109  -1.7107
    -1.7084  -1.6858  -1.6782  -1.6775  -1.6721  -1.6658  -1.6640  -1.6426
    -1.6422  -1.6139  -1.6138  -1.5818  -1.5816  -1.5712  -1.5631  -1.5455
    -1.5444  -1.5421  -1.5238  -1.5113  -1.5110  -1.5039  -1.5036  -1.4770
    -1.4770  -1.4602  -1.4600  -1.4283  -1.4262  -1.4181  -1.3669  -1.3666
    -1.3547  -1.3541  -1.3516  -1.3283  -1.3257  -1.2923  -1.2918  -1.2910
    -1.2584  -1.2483  -1.2467  -1.2318  -1.2314  -1.2062  -1.2039  -1.2029
    -1.1736  -1.1712  -1.1706  -1.1085  -1.1078  -1.0956  -1.0938  -1.0787
    -1.0782  -1.0669  -1.0658  -1.0475  -1.0348  -1.0165  -1.0069  -1.0048
    -0.9930  -0.9624  -0.9569  -0.9547  -0.9451  -0.9448  -0.9428  -0.9379
    -0.9332  -0.9241  -0.8935  -0.8927  -0.8832  -0.8816  -0.8802  -0.8748
    -0.8564  -0.8386  -0.8346  -0.8175  -0.8140  -0.7235  -0.7107  -0.7050
    -0.7047  -0.7006  -0.6956  -0.6940  -0.6725  -0.6693  -0.6550  -0.6527
    -0.6395  -0.6382  -0.6301  -0.6107  -0.6079  -0.6075  -0.5995  -0.5277
    -0.5273  -0.4944  -0.4916  -0.4892  -0.4829  -0.4812  -0.4806  -0.4796
    -0.4681  -0.4658  -0.4506  -0.4262  -0.4116  -0.3922  -0.3910  -0.3808
    -0.3794  -0.3680  -0.3667  -0.3665  -0.3648  -0.3637  -0.3472  -0.3432
    -0.3418  -0.3121  -0.3109  -0.3095  -0.2983  -0.2979  -0.2788  -0.2470
    -0.2462  -0.2376  -0.2367  -0.1694  -0.1687  -0.1320  -0.1318  -0.0745
    -0.0723  -0.0718  -0.0602  -0.0432   0.1769   0.1854   0.5272   0.5273
     0.6156   0.6235   0.8109   0.8304   0.8450   0.9750   0.9769   1.4075
     1.4075   1.4258   1.6840   1.7174   1.7175   1.9896   2.0010   2.0734
     2.0742   2.0986   2.1059   2.3301   2.3304   2.4184   2.4190   2.4876
     2.5530   2.5660   2.7225   2.8205   3.2598   3.2613   3.2630   3.2676
     3.3191   3.3195   3.6116   3.6119   3.8897   3.8973   3.9909   4.3075
     4.3481   4.3534   4.5541   4.5680   4.6503   4.6532   4.7423   4.8591
     4.8633   4.9768   4.9792   5.0559   5.2820   5.3484   5.3545   5.4972
     5.5243   5.7377   5.7391   5.7477   5.7652   5.7664   5.8271   5.8295
     5.8767   6.0346   6.2468   6.2612   6.4333   6.4455   6.5683   6.5716
     6.5751   6.5826   6.5968   6.7449   6.8190   6.8244   6.8293   6.9774
     7.0137   7.0374   7.0603

          k =-0.2500-0.4330 0.1111 (136853 PWs)   bands (ev):

   -18.9916  -6.8007  -6.2158  -5.8165  -5.8164  -5.1387  -4.8051  -4.8049
    -4.7661  -4.7656  -4.4048  -4.4046  -4.3060  -4.3060  -4.2920  -4.2708
    -4.2442  -4.1386  -4.1382  -4.1142  -4.0707  -4.0707  -4.0018  -4.0016
    -3.9951  -3.9950  -3.9736  -3.9680  -3.9677  -3.8954  -3.8950  -3.8654
    -3.8652  -3.8532  -3.8530  -3.8298  -3.8298  -3.8073  -3.7989  -3.7987
    -3.7723  -3.7199  -3.7198  -3.6720  -3.6717  -3.6127  -3.6125  -3.5581
    -3.5579  -3.5577  -3.5573  -3.5219  -3.4828  -3.4822  -3.4763  -3.4750
    -3.4750  -3.4447  -3.4440  -3.4358  -3.3741  -3.3733  -3.3642  -3.3482
    -3.3408  -3.2706  -3.2680  -3.2355  -3.2341  -3.2072  -3.2064  -3.1932
    -3.1787  -3.1270  -3.1161  -3.1059  -3.0987  -3.0909  -3.0463  -3.0415
    -3.0403  -3.0037  -2.9720  -2.9711  -2.9632  -2.9614  -2.9496  -2.9488
    -2.9418  -2.9413  -2.9315  -2.8909  -2.8535  -2.8526  -2.8387  -2.8382
    -2.8128  -2.8027  -2.8024  -2.7800  -2.7366  -2.7354  -2.7271  -2.6878
    -2.6813  -2.6700  -2.6693  -2.6405  -2.6400  -2.6109  -2.5735  -2.5733
    -2.5510  -2.5439  -2.5301  -2.5293  -2.4791  -2.4789  -2.4464  -2.4235
    -2.4235  -2.3993  -2.3990  -2.3879  -2.3877  -2.3770  -2.3543  -2.3542
    -2.3097  -2.3093  -2.3082  -2.2913  -2.2909  -2.2860  -2.2763  -2.2759
    -2.2735  -2.2733  -2.2676  -2.2550  -2.2545  -2.2442  -2.2186  -2.2183
    -2.2169  -2.2160  -2.2148  -2.2129  -2.2118  -2.1845  -2.1815  -2.1673
    -2.1671  -2.1495  -2.1491  -2.1393  -2.1391  -2.1378  -2.1370  -2.1181
    -2.1165  -2.1158  -2.1148  -2.0978  -2.0719  -2.0715  -2.0319  -2.0315
    -2.0060  -2.0058  -1.9788  -1.9783  -1.9508  -1.9507  -1.9339  -1.9291
    -1.9023  -1.8798  -1.8794  -1.8747  -1.8732  -1.8696  -1.8628  -1.8607
    -1.8362  -1.8297  -1.8192  -1.7637  -1.7596  -1.7580  -1.7558  -1.7549
    -1.7180  -1.7000  -1.6997  -1.6720  -1.6711  -1.6111  -1.6107  -1.5819
    -1.5642  -1.5624  -1.5026  -1.5023  -1.4910  -1.4898  -1.4797  -1.4788
    -1.4757  -1.4664  -1.4656  -1.4116  -1.4093  -1.3984  -1.3979  -1.3965
    -1.3787  -1.3782  -1.3428  -1.3421  -1.3251  -1.3249  -1.3247  -1.3180
    -1.3128  -1.3040  -1.3027  -1.2842  -1.2837  -1.2439  -1.2403  -1.2303
    -1.2298  -1.2094  -1.1963  -1.1536  -1.1523  -1.1264  -1.1222  -1.1215
    -1.0924  -1.0457  -1.0405  -1.0394  -1.0382  -1.0347  -1.0319  -1.0242
    -1.0091  -1.0040  -0.9949  -0.9640  -0.9629  -0.9332  -0.9326  -0.9277
    -0.9262  -0.9196  -0.9036  -0.9030  -0.9021  -0.8994  -0.8975  -0.8626
    -0.8597  -0.8590  -0.8578  -0.8277  -0.8270  -0.8233  -0.7999  -0.7922
    -0.7910  -0.7453  -0.7389  -0.7366  -0.7032  -0.6949  -0.6842  -0.6840
    -0.6761  -0.6758  -0.6748  -0.6724  -0.6627  -0.6612  -0.6362  -0.6359
    -0.6331  -0.6312  -0.6300  -0.5938  -0.5934  -0.5827  -0.5815  -0.5668
    -0.5601  -0.5579  -0.5475  -0.4922  -0.4897  -0.4810  -0.4808  -0.4796
    -0.4789  -0.4737  -0.4551  -0.4531  -0.4457  -0.4454  -0.4436  -0.4422
    -0.4039  -0.4018  -0.4010  -0.3935  -0.3923  -0.3874  -0.3856  -0.3753
    -0.3698  -0.3665  -0.3648  -0.3240  -0.3236  -0.3153  -0.3119  -0.3112
    -0.2345  -0.2336  -0.2315  -0.2308  -0.2220  -0.2214  -0.1853  -0.1726
    -0.1722  -0.1461  -0.1407  -0.1379  -0.0198  -0.0173   0.0835   0.4989
     0.4993   0.5020   0.5021   0.5616   0.5666   0.9519   0.9524   0.9947
     0.9953   1.1033   1.1839   1.2918   1.2991   1.5110   1.5247   2.1483
     2.1508   2.3099   2.3137   2.4406   2.4477   2.5477   2.5478   2.7019
     2.9393   2.9414   3.0627   3.2841   3.2924   3.3712   3.3722   3.4714
     3.4870   3.6728   3.6845   3.7434   3.9439   3.9446   4.0051   4.0095
     4.2638   4.2689   4.2756   4.5144   4.5558   4.5578   4.6023   4.9367
     4.9399   4.9677   5.0804   5.1028   5.2748   5.2754   5.3248   5.3573
     5.7207   5.9396   6.0511   6.0621   6.0668   6.0766   6.1369   6.1380
     6.2020   6.2466   6.2718   6.2955   6.2993   6.3080   6.3124   6.3448
     6.3597   6.3703   6.4957   6.5837   6.7243   6.7798   6.9057   6.9765
     7.0038   7.0066   7.0187

          k =-0.2500 0.4330-0.1111 (136853 PWs)   bands (ev):

   -18.9916  -6.8007  -6.2158  -5.8179  -5.8150  -5.1387  -4.8055  -4.8046
    -4.7673  -4.7644  -4.4052  -4.4040  -4.3062  -4.3059  -4.2918  -4.2708
    -4.2442  -4.1391  -4.1379  -4.1143  -4.0709  -4.0706  -4.0019  -4.0016
    -3.9953  -3.9948  -3.9735  -3.9692  -3.9665  -3.8963  -3.8942  -3.8660
    -3.8643  -3.8533  -3.8529  -3.8299  -3.8297  -3.8073  -3.7990  -3.7986
    -3.7724  -3.7202  -3.7196  -3.6728  -3.6708  -3.6128  -3.6124  -3.5580
    -3.5579  -3.5576  -3.5573  -3.5221  -3.4829  -3.4823  -3.4763  -3.4751
    -3.4749  -3.4445  -3.4442  -3.4358  -3.3741  -3.3734  -3.3641  -3.3480
    -3.3405  -3.2710  -3.2679  -3.2355  -3.2339  -3.2073  -3.2060  -3.1931
    -3.1788  -3.1270  -3.1164  -3.1060  -3.0985  -3.0908  -3.0462  -3.0415
    -3.0404  -3.0035  -2.9716  -2.9715  -2.9635  -2.9610  -2.9497  -2.9491
    -2.9417  -2.9410  -2.9316  -2.8908  -2.8542  -2.8521  -2.8388  -2.8380
    -2.8129  -2.8030  -2.8023  -2.7800  -2.7372  -2.7348  -2.7273  -2.6877
    -2.6812  -2.6705  -2.6685  -2.6408  -2.6401  -2.6110  -2.5734  -2.5730
    -2.5510  -2.5440  -2.5302  -2.5293  -2.4794  -2.4786  -2.4463  -2.4238
    -2.4235  -2.3995  -2.3991  -2.3881  -2.3873  -2.3771  -2.3548  -2.3539
    -2.3094  -2.3091  -2.3082  -2.2919  -2.2904  -2.2861  -2.2763  -2.2758
    -2.2739  -2.2731  -2.2676  -2.2555  -2.2537  -2.2443  -2.2185  -2.2182
    -2.2169  -2.2159  -2.2149  -2.2128  -2.2116  -2.1847  -2.1816  -2.1673
    -2.1671  -2.1498  -2.1488  -2.1393  -2.1389  -2.1380  -2.1370  -2.1188
    -2.1163  -2.1154  -2.1148  -2.0979  -2.0723  -2.0715  -2.0328  -2.0307
    -2.0066  -2.0053  -1.9786  -1.9780  -1.9510  -1.9504  -1.9339  -1.9290
    -1.9021  -1.8799  -1.8793  -1.8748  -1.8733  -1.8696  -1.8631  -1.8607
    -1.8361  -1.8292  -1.8192  -1.7638  -1.7597  -1.7583  -1.7559  -1.7552
    -1.7180  -1.7007  -1.6989  -1.6719  -1.6712  -1.6116  -1.6100  -1.5822
    -1.5642  -1.5622  -1.5030  -1.5019  -1.4911  -1.4896  -1.4800  -1.4785
    -1.4759  -1.4668  -1.4654  -1.4114  -1.4091  -1.3983  -1.3982  -1.3969
    -1.3787  -1.3778  -1.3428  -1.3424  -1.3253  -1.3250  -1.3244  -1.3178
    -1.3129  -1.3044  -1.3025  -1.2841  -1.2837  -1.2437  -1.2403  -1.2302
    -1.2296  -1.2092  -1.1964  -1.1542  -1.1520  -1.1267  -1.1225  -1.1215
    -1.0925  -1.0455  -1.0406  -1.0395  -1.0384  -1.0350  -1.0319  -1.0242
    -1.0089  -1.0040  -0.9950  -0.9642  -0.9625  -0.9333  -0.9324  -0.9276
    -0.9265  -0.9195  -0.9037  -0.9029  -0.9020  -0.8992  -0.8973  -0.8629
    -0.8598  -0.8588  -0.8575  -0.8279  -0.8270  -0.8231  -0.8002  -0.7925
    -0.7905  -0.7455  -0.7388  -0.7364  -0.7033  -0.6947  -0.6843  -0.6839
    -0.6759  -0.6758  -0.6749  -0.6724  -0.6627  -0.6612  -0.6365  -0.6356
    -0.6332  -0.6313  -0.6301  -0.5937  -0.5932  -0.5828  -0.5815  -0.5669
    -0.5602  -0.5578  -0.5473  -0.4922  -0.4896  -0.4811  -0.4807  -0.4797
    -0.4788  -0.4737  -0.4551  -0.4532  -0.4456  -0.4454  -0.4436  -0.4421
    -0.4040  -0.4019  -0.4008  -0.3937  -0.3921  -0.3874  -0.3856  -0.3751
    -0.3698  -0.3668  -0.3645  -0.3244  -0.3233  -0.3155  -0.3120  -0.3112
    -0.2345  -0.2337  -0.2314  -0.2307  -0.2221  -0.2214  -0.1852  -0.1727
    -0.1722  -0.1467  -0.1406  -0.1374  -0.0199  -0.0171   0.0836   0.4988
     0.4994   0.5018   0.5023   0.5614   0.5666   0.9518   0.9524   0.9945
     0.9954   1.1034   1.1840   1.2912   1.3000   1.5103   1.5253   2.1482
     2.1507   2.3095   2.3143   2.4402   2.4481   2.5474   2.5481   2.7017
     2.9395   2.9415   3.0626   3.2837   3.2928   3.3711   3.3724   3.4712
     3.4870   3.6714   3.6857   3.7436   3.9435   3.9450   4.0053   4.0096
     4.2634   4.2687   4.2758   4.5150   4.5560   4.5573   4.6020   4.9360
     4.9405   4.9671   5.0823   5.1024   5.2749   5.2754   5.3228   5.3554
     5.7313   5.9284   6.0563   6.0625   6.0661   6.0784   6.1369   6.1380
     6.2029   6.2465   6.2718   6.2957   6.2995   6.3067   6.3134   6.3462
     6.3601   6.3712   6.4820   6.5876   6.7310   6.7687   6.9110   6.9728
     7.0033   7.0075   7.0184

          k = 0.2500-0.4330-0.1111 (136853 PWs)   bands (ev):

   -18.9916  -6.8007  -6.2158  -5.8179  -5.8150  -5.1387  -4.8055  -4.8046
    -4.7673  -4.7644  -4.4052  -4.4040  -4.3062  -4.3059  -4.2918  -4.2708
    -4.2442  -4.1391  -4.1379  -4.1143  -4.0709  -4.0706  -4.0019  -4.0016
    -3.9953  -3.9948  -3.9735  -3.9692  -3.9665  -3.8963  -3.8942  -3.8660
    -3.8643  -3.8533  -3.8529  -3.8299  -3.8297  -3.8073  -3.7990  -3.7986
    -3.7724  -3.7202  -3.7196  -3.6728  -3.6708  -3.6128  -3.6124  -3.5580
    -3.5579  -3.5576  -3.5573  -3.5221  -3.4829  -3.4823  -3.4763  -3.4751
    -3.4749  -3.4445  -3.4442  -3.4358  -3.3741  -3.3734  -3.3641  -3.3480
    -3.3405  -3.2710  -3.2679  -3.2355  -3.2339  -3.2073  -3.2060  -3.1931
    -3.1788  -3.1270  -3.1164  -3.1060  -3.0985  -3.0908  -3.0462  -3.0415
    -3.0404  -3.0035  -2.9716  -2.9715  -2.9635  -2.9610  -2.9497  -2.9491
    -2.9417  -2.9410  -2.9316  -2.8908  -2.8542  -2.8521  -2.8388  -2.8380
    -2.8129  -2.8030  -2.8023  -2.7800  -2.7372  -2.7348  -2.7273  -2.6877
    -2.6812  -2.6705  -2.6685  -2.6408  -2.6401  -2.6110  -2.5734  -2.5730
    -2.5510  -2.5440  -2.5302  -2.5293  -2.4794  -2.4786  -2.4463  -2.4238
    -2.4235  -2.3995  -2.3991  -2.3881  -2.3873  -2.3771  -2.3548  -2.3539
    -2.3094  -2.3091  -2.3082  -2.2919  -2.2904  -2.2861  -2.2763  -2.2758
    -2.2739  -2.2731  -2.2676  -2.2555  -2.2537  -2.2443  -2.2185  -2.2182
    -2.2169  -2.2159  -2.2149  -2.2128  -2.2116  -2.1847  -2.1816  -2.1673
    -2.1671  -2.1498  -2.1488  -2.1393  -2.1389  -2.1380  -2.1370  -2.1188
    -2.1163  -2.1154  -2.1148  -2.0979  -2.0723  -2.0715  -2.0328  -2.0307
    -2.0066  -2.0053  -1.9786  -1.9780  -1.9510  -1.9504  -1.9339  -1.9290
    -1.9021  -1.8799  -1.8793  -1.8748  -1.8733  -1.8696  -1.8631  -1.8607
    -1.8361  -1.8292  -1.8192  -1.7638  -1.7597  -1.7583  -1.7559  -1.7552
    -1.7180  -1.7007  -1.6989  -1.6719  -1.6712  -1.6116  -1.6100  -1.5822
    -1.5642  -1.5622  -1.5030  -1.5019  -1.4911  -1.4896  -1.4800  -1.4785
    -1.4759  -1.4668  -1.4654  -1.4114  -1.4091  -1.3983  -1.3982  -1.3969
    -1.3787  -1.3778  -1.3428  -1.3424  -1.3253  -1.3250  -1.3244  -1.3178
    -1.3129  -1.3044  -1.3025  -1.2841  -1.2837  -1.2437  -1.2403  -1.2302
    -1.2296  -1.2092  -1.1964  -1.1542  -1.1520  -1.1267  -1.1225  -1.1215
    -1.0925  -1.0455  -1.0406  -1.0395  -1.0384  -1.0350  -1.0319  -1.0242
    -1.0089  -1.0040  -0.9950  -0.9642  -0.9625  -0.9333  -0.9324  -0.9276
    -0.9265  -0.9195  -0.9037  -0.9029  -0.9020  -0.8992  -0.8973  -0.8629
    -0.8598  -0.8588  -0.8575  -0.8279  -0.8270  -0.8231  -0.8002  -0.7925
    -0.7905  -0.7455  -0.7388  -0.7364  -0.7033  -0.6947  -0.6843  -0.6839
    -0.6759  -0.6758  -0.6749  -0.6724  -0.6627  -0.6612  -0.6365  -0.6356
    -0.6332  -0.6313  -0.6301  -0.5937  -0.5932  -0.5828  -0.5815  -0.5669
    -0.5602  -0.5578  -0.5473  -0.4922  -0.4896  -0.4811  -0.4807  -0.4797
    -0.4788  -0.4737  -0.4551  -0.4532  -0.4456  -0.4454  -0.4436  -0.4421
    -0.4040  -0.4019  -0.4008  -0.3937  -0.3921  -0.3874  -0.3856  -0.3751
    -0.3698  -0.3668  -0.3645  -0.3244  -0.3233  -0.3155  -0.3120  -0.3112
    -0.2345  -0.2337  -0.2314  -0.2307  -0.2221  -0.2214  -0.1852  -0.1727
    -0.1722  -0.1467  -0.1406  -0.1374  -0.0199  -0.0171   0.0836   0.4988
     0.4994   0.5018   0.5023   0.5614   0.5666   0.9518   0.9524   0.9945
     0.9954   1.1034   1.1840   1.2912   1.3000   1.5103   1.5253   2.1482
     2.1507   2.3095   2.3143   2.4402   2.4481   2.5474   2.5481   2.7017
     2.9395   2.9415   3.0626   3.2837   3.2928   3.3711   3.3724   3.4712
     3.4870   3.6714   3.6857   3.7436   3.9435   3.9450   4.0053   4.0096
     4.2634   4.2687   4.2758   4.5150   4.5560   4.5573   4.6020   4.9360
     4.9405   4.9671   5.0823   5.1024   5.2749   5.2754   5.3228   5.3553
     5.7315   5.9284   6.0562   6.0625   6.0661   6.0781   6.1368   6.1380
     6.2028   6.2465   6.2719   6.2956   6.2996   6.3068   6.3134   6.3460
     6.3601   6.3713   6.4826   6.5896   6.7302   6.7683   6.9104   6.9718
     7.0030   7.0079   7.0182

          k = 0.5000 0.0000 0.1111 (136853 PWs)   bands (ev):

   -18.9916  -6.8007  -6.2158  -5.8177  -5.8152  -5.1387  -4.8060  -4.8041
    -4.7668  -4.7649  -4.4054  -4.4039  -4.3061  -4.3059  -4.2918  -4.2708
    -4.2442  -4.1389  -4.1381  -4.1143  -4.0708  -4.0707  -4.0019  -4.0016
    -3.9957  -3.9944  -3.9735  -3.9696  -3.9662  -3.8964  -3.8941  -3.8662
    -3.8641  -3.8534  -3.8527  -3.8298  -3.8298  -3.8073  -3.7991  -3.7985
    -3.7725  -3.7202  -3.7196  -3.6730  -3.6707  -3.6128  -3.6123  -3.5585
    -3.5581  -3.5574  -3.5568  -3.5221  -3.4831  -3.4822  -3.4763  -3.4754
    -3.4748  -3.4453  -3.4434  -3.4357  -3.3742  -3.3732  -3.3641  -3.3480
    -3.3406  -3.2702  -3.2686  -3.2358  -3.2336  -3.2073  -3.2060  -3.1931
    -3.1788  -3.1272  -3.1161  -3.1060  -3.0986  -3.0908  -3.0463  -3.0415
    -3.0404  -3.0035  -2.9727  -2.9705  -2.9630  -2.9615  -2.9495  -2.9487
    -2.9418  -2.9414  -2.9316  -2.8908  -2.8535  -2.8527  -2.8389  -2.8379
    -2.8129  -2.8028  -2.8024  -2.7800  -2.7361  -2.7358  -2.7273  -2.6877
    -2.6812  -2.6702  -2.6688  -2.6409  -2.6400  -2.6110  -2.5735  -2.5729
    -2.5510  -2.5440  -2.5303  -2.5294  -2.4793  -2.4787  -2.4462  -2.4239
    -2.4235  -2.3995  -2.3990  -2.3880  -2.3873  -2.3771  -2.3547  -2.3538
    -2.3098  -2.3087  -2.3082  -2.2919  -2.2903  -2.2861  -2.2762  -2.2758
    -2.2739  -2.2731  -2.2677  -2.2552  -2.2541  -2.2445  -2.2186  -2.2180
    -2.2169  -2.2159  -2.2149  -2.2130  -2.2114  -2.1847  -2.1815  -2.1675
    -2.1670  -2.1498  -2.1488  -2.1392  -2.1389  -2.1383  -2.1367  -2.1182
    -2.1169  -2.1158  -2.1143  -2.0978  -2.0721  -2.0718  -2.0329  -2.0306
    -2.0067  -2.0052  -1.9787  -1.9779  -1.9510  -1.9503  -1.9339  -1.9289
    -1.9022  -1.8802  -1.8791  -1.8750  -1.8727  -1.8697  -1.8632  -1.8604
    -1.8362  -1.8292  -1.8191  -1.7637  -1.7604  -1.7577  -1.7559  -1.7551
    -1.7183  -1.7006  -1.6991  -1.6721  -1.6710  -1.6111  -1.6105  -1.5822
    -1.5643  -1.5620  -1.5026  -1.5021  -1.4910  -1.4898  -1.4798  -1.4786
    -1.4759  -1.4667  -1.4654  -1.4105  -1.4094  -1.3988  -1.3979  -1.3967
    -1.3789  -1.3768  -1.3429  -1.3428  -1.3254  -1.3248  -1.3243  -1.3176
    -1.3135  -1.3044  -1.3028  -1.2847  -1.2831  -1.2433  -1.2406  -1.2305
    -1.2284  -1.2091  -1.1964  -1.1541  -1.1527  -1.1270  -1.1230  -1.1221
    -1.0925  -1.0439  -1.0409  -1.0394  -1.0382  -1.0341  -1.0330  -1.0236
    -1.0082  -1.0040  -0.9966  -0.9644  -0.9621  -0.9336  -0.9315  -0.9278
    -0.9272  -0.9192  -0.9036  -0.9023  -0.9018  -0.8991  -0.8979  -0.8641
    -0.8599  -0.8587  -0.8556  -0.8284  -0.8275  -0.8237  -0.7998  -0.7925
    -0.7908  -0.7457  -0.7395  -0.7355  -0.7033  -0.6948  -0.6841  -0.6839
    -0.6765  -0.6755  -0.6752  -0.6722  -0.6632  -0.6605  -0.6367  -0.6355
    -0.6330  -0.6318  -0.6297  -0.5939  -0.5931  -0.5840  -0.5810  -0.5666
    -0.5604  -0.5575  -0.5474  -0.4921  -0.4897  -0.4812  -0.4807  -0.4800
    -0.4784  -0.4738  -0.4555  -0.4529  -0.4457  -0.4452  -0.4437  -0.4421
    -0.4040  -0.4018  -0.4008  -0.3937  -0.3920  -0.3873  -0.3858  -0.3754
    -0.3695  -0.3667  -0.3646  -0.3244  -0.3233  -0.3154  -0.3120  -0.3111
    -0.2348  -0.2334  -0.2315  -0.2305  -0.2222  -0.2213  -0.1853  -0.1728
    -0.1720  -0.1470  -0.1405  -0.1372  -0.0205  -0.0162   0.0838   0.4987
     0.4994   0.5017   0.5024   0.5597   0.5678   0.9517   0.9522   0.9938
     0.9961   1.1039   1.1842   1.2911   1.3005   1.5089   1.5263   2.1469
     2.1518   2.3082   2.3158   2.4380   2.4499   2.5470   2.5484   2.7017
     2.9394   2.9420   3.0625   3.2832   3.2932   3.3704   3.3733   3.4710
     3.4870   3.6679   3.6886   3.7436   3.9440   3.9445   4.0033   4.0122
     4.2634   4.2671   4.2775   4.5149   4.5549   4.5586   4.6021   4.9367
     4.9399   4.9669   5.0821   5.1073   5.2741   5.2763   5.3130   5.3507
     5.7794   5.8802   6.0614   6.0663   6.0686   6.0888   6.1367   6.1383
     6.2099   6.2470   6.2724   6.2986   6.2990   6.3007   6.3158   6.3557
     6.3597   6.3869   6.4137   6.5983   6.7193   6.7787   6.9277   6.9578
     7.0022   7.0103   7.0179

          k =-0.5000 0.0000 0.1111 (136853 PWs)   bands (ev):

   -18.9916  -6.8007  -6.2158  -5.8177  -5.8152  -5.1387  -4.8060  -4.8041
    -4.7668  -4.7649  -4.4054  -4.4039  -4.3062  -4.3059  -4.2918  -4.2708
    -4.2442  -4.1389  -4.1381  -4.1143  -4.0708  -4.0707  -4.0019  -4.0016
    -3.9957  -3.9944  -3.9735  -3.9696  -3.9662  -3.8964  -3.8941  -3.8662
    -3.8641  -3.8534  -3.8527  -3.8298  -3.8298  -3.8073  -3.7991  -3.7985
    -3.7725  -3.7202  -3.7196  -3.6730  -3.6707  -3.6128  -3.6123  -3.5585
    -3.5581  -3.5574  -3.5568  -3.5221  -3.4831  -3.4822  -3.4763  -3.4754
    -3.4748  -3.4453  -3.4434  -3.4357  -3.3742  -3.3732  -3.3641  -3.3480
    -3.3406  -3.2702  -3.2686  -3.2358  -3.2336  -3.2073  -3.2060  -3.1931
    -3.1788  -3.1272  -3.1161  -3.1060  -3.0986  -3.0908  -3.0463  -3.0415
    -3.0404  -3.0035  -2.9727  -2.9705  -2.9630  -2.9615  -2.9495  -2.9487
    -2.9418  -2.9414  -2.9316  -2.8908  -2.8535  -2.8527  -2.8389  -2.8379
    -2.8129  -2.8028  -2.8024  -2.7800  -2.7361  -2.7358  -2.7273  -2.6877
    -2.6812  -2.6702  -2.6688  -2.6409  -2.6400  -2.6110  -2.5735  -2.5729
    -2.5510  -2.5440  -2.5303  -2.5294  -2.4793  -2.4787  -2.4462  -2.4239
    -2.4235  -2.3995  -2.3990  -2.3880  -2.3873  -2.3771  -2.3547  -2.3538
    -2.3098  -2.3087  -2.3082  -2.2919  -2.2903  -2.2861  -2.2762  -2.2758
    -2.2739  -2.2731  -2.2677  -2.2552  -2.2541  -2.2445  -2.2186  -2.2180
    -2.2169  -2.2159  -2.2149  -2.2130  -2.2114  -2.1847  -2.1815  -2.1675
    -2.1670  -2.1498  -2.1488  -2.1392  -2.1389  -2.1383  -2.1367  -2.1182
    -2.1169  -2.1158  -2.1143  -2.0978  -2.0721  -2.0718  -2.0329  -2.0306
    -2.0067  -2.0052  -1.9787  -1.9779  -1.9510  -1.9503  -1.9339  -1.9289
    -1.9022  -1.8802  -1.8791  -1.8750  -1.8728  -1.8697  -1.8632  -1.8604
    -1.8362  -1.8292  -1.8191  -1.7637  -1.7604  -1.7577  -1.7559  -1.7551
    -1.7183  -1.7006  -1.6991  -1.6721  -1.6710  -1.6111  -1.6105  -1.5822
    -1.5643  -1.5620  -1.5026  -1.5021  -1.4910  -1.4898  -1.4798  -1.4786
    -1.4759  -1.4667  -1.4654  -1.4105  -1.4094  -1.3988  -1.3979  -1.3967
    -1.3789  -1.3768  -1.3429  -1.3428  -1.3254  -1.3248  -1.3243  -1.3176
    -1.3135  -1.3044  -1.3028  -1.2847  -1.2831  -1.2433  -1.2406  -1.2305
    -1.2284  -1.2091  -1.1964  -1.1541  -1.1527  -1.1270  -1.1230  -1.1221
    -1.0925  -1.0439  -1.0409  -1.0394  -1.0382  -1.0341  -1.0330  -1.0236
    -1.0082  -1.0040  -0.9966  -0.9644  -0.9621  -0.9336  -0.9315  -0.9278
    -0.9272  -0.9192  -0.9036  -0.9023  -0.9018  -0.8991  -0.8979  -0.8641
    -0.8599  -0.8587  -0.8556  -0.8284  -0.8275  -0.8237  -0.7998  -0.7925
    -0.7908  -0.7457  -0.7395  -0.7355  -0.7033  -0.6948  -0.6841  -0.6839
    -0.6765  -0.6755  -0.6752  -0.6722  -0.6632  -0.6605  -0.6367  -0.6355
    -0.6330  -0.6318  -0.6297  -0.5939  -0.5931  -0.5840  -0.5810  -0.5666
    -0.5604  -0.5575  -0.5474  -0.4921  -0.4897  -0.4812  -0.4807  -0.4800
    -0.4784  -0.4738  -0.4555  -0.4529  -0.4457  -0.4452  -0.4437  -0.4421
    -0.4040  -0.4018  -0.4008  -0.3937  -0.3920  -0.3873  -0.3858  -0.3754
    -0.3695  -0.3667  -0.3646  -0.3244  -0.3233  -0.3154  -0.3120  -0.3111
    -0.2348  -0.2334  -0.2315  -0.2305  -0.2222  -0.2213  -0.1853  -0.1728
    -0.1720  -0.1470  -0.1405  -0.1372  -0.0205  -0.0162   0.0838   0.4987
     0.4994   0.5017   0.5024   0.5597   0.5678   0.9517   0.9522   0.9938
     0.9961   1.1039   1.1842   1.2911   1.3005   1.5089   1.5263   2.1469
     2.1518   2.3082   2.3158   2.4380   2.4499   2.5470   2.5484   2.7017
     2.9394   2.9420   3.0625   3.2832   3.2932   3.3704   3.3733   3.4710
     3.4870   3.6679   3.6886   3.7436   3.9440   3.9445   4.0033   4.0122
     4.2634   4.2671   4.2775   4.5149   4.5549   4.5586   4.6021   4.9367
     4.9399   4.9669   5.0821   5.1073   5.2741   5.2763   5.3130   5.3507
     5.7793   5.8802   6.0614   6.0663   6.0686   6.0888   6.1366   6.1383
     6.2099   6.2470   6.2724   6.2986   6.2990   6.3007   6.3158   6.3557
     6.3597   6.3866   6.4139   6.5980   6.7195   6.7787   6.9283   6.9576
     7.0021   7.0103   7.0179

          k =-0.2500 0.1443 0.1111 (136898 PWs)   bands (ev):

   -18.9916  -6.8007  -6.4258  -5.6337  -5.3426  -5.2835  -5.2832  -4.7451
    -4.7448  -4.6132  -4.6129  -4.4585  -4.4267  -4.3653  -4.3319  -4.3315
    -4.2983  -4.2983  -4.1697  -4.1279  -4.1278  -4.0680  -4.0469  -4.0468
    -3.9445  -3.9443  -3.9083  -3.9080  -3.9079  -3.8812  -3.8595  -3.8594
    -3.7545  -3.7523  -3.7522  -3.7316  -3.7147  -3.7146  -3.7024  -3.7023
    -3.6891  -3.6589  -3.6588  -3.6585  -3.6583  -3.6260  -3.6258  -3.6081
    -3.6080  -3.5934  -3.5502  -3.5495  -3.5203  -3.5051  -3.5047  -3.4997
    -3.4997  -3.4251  -3.4251  -3.3899  -3.3888  -3.3874  -3.3196  -3.3195
    -3.3050  -3.3042  -3.2737  -3.2727  -3.2722  -3.2717  -3.1294  -3.1186
    -3.1090  -3.0926  -3.0909  -3.0862  -3.0715  -3.0671  -3.0454  -3.0433
    -2.9956  -2.9942  -2.9793  -2.9784  -2.9582  -2.9100  -2.9099  -2.8902
    -2.8857  -2.8847  -2.8446  -2.8441  -2.8381  -2.8367  -2.8216  -2.8198
    -2.7818  -2.7814  -2.7599  -2.7597  -2.7566  -2.7557  -2.7530  -2.6763
    -2.6758  -2.6742  -2.6460  -2.6448  -2.5840  -2.5837  -2.5554  -2.5544
    -2.5413  -2.5407  -2.5355  -2.5061  -2.5060  -2.4963  -2.4787  -2.4531
    -2.4529  -2.4526  -2.4321  -2.4318  -2.4208  -2.4200  -2.4176  -2.4164
    -2.4090  -2.3628  -2.3305  -2.3302  -2.3146  -2.3007  -2.2943  -2.2942
    -2.2870  -2.2861  -2.2850  -2.2553  -2.2550  -2.2545  -2.2451  -2.2447
    -2.2278  -2.2005  -2.1998  -2.1993  -2.1986  -2.1972  -2.1531  -2.1216
    -2.1215  -2.1207  -2.1146  -2.1056  -2.0927  -2.0925  -2.0757  -2.0757
    -2.0418  -2.0409  -2.0405  -2.0222  -2.0207  -2.0204  -1.9876  -1.9870
    -1.9460  -1.9453  -1.9384  -1.9364  -1.9359  -1.9297  -1.9292  -1.9272
    -1.9264  -1.9205  -1.9191  -1.9032  -1.9024  -1.7761  -1.7753  -1.7433
    -1.7379  -1.7364  -1.7316  -1.7312  -1.7138  -1.7132  -1.7109  -1.7107
    -1.7084  -1.6858  -1.6782  -1.6775  -1.6721  -1.6658  -1.6640  -1.6426
    -1.6422  -1.6139  -1.6138  -1.5818  -1.5816  -1.5712  -1.5631  -1.5455
    -1.5444  -1.5421  -1.5238  -1.5113  -1.5110  -1.5039  -1.5036  -1.4770
    -1.4770  -1.4602  -1.4600  -1.4283  -1.4262  -1.4181  -1.3669  -1.3666
    -1.3547  -1.3541  -1.3516  -1.3283  -1.3257  -1.2923  -1.2918  -1.2910
    -1.2584  -1.2483  -1.2467  -1.2318  -1.2314  -1.2062  -1.2039  -1.2029
    -1.1736  -1.1712  -1.1706  -1.1085  -1.1078  -1.0956  -1.0938  -1.0787
    -1.0782  -1.0669  -1.0658  -1.0475  -1.0348  -1.0165  -1.0069  -1.0048
    -0.9930  -0.9624  -0.9569  -0.9547  -0.9451  -0.9448  -0.9428  -0.9379
    -0.9332  -0.9241  -0.8935  -0.8927  -0.8831  -0.8816  -0.8802  -0.8748
    -0.8564  -0.8386  -0.8346  -0.8175  -0.8140  -0.7235  -0.7107  -0.7050
    -0.7047  -0.7006  -0.6956  -0.6940  -0.6724  -0.6693  -0.6550  -0.6527
    -0.6395  -0.6382  -0.6301  -0.6107  -0.6079  -0.6075  -0.5995  -0.5277
    -0.5274  -0.4944  -0.4916  -0.4892  -0.4829  -0.4812  -0.4806  -0.4796
    -0.4681  -0.4658  -0.4507  -0.4262  -0.4116  -0.3922  -0.3911  -0.3809
    -0.3794  -0.3680  -0.3667  -0.3665  -0.3648  -0.3637  -0.3472  -0.3432
    -0.3418  -0.3121  -0.3109  -0.3095  -0.2983  -0.2979  -0.2788  -0.2470
    -0.2462  -0.2376  -0.2367  -0.1694  -0.1687  -0.1320  -0.1317  -0.0745
    -0.0723  -0.0718  -0.0602  -0.0432   0.1769   0.1854   0.5272   0.5273
     0.6156   0.6235   0.8109   0.8304   0.8450   0.9750   0.9769   1.4075
     1.4075   1.4258   1.6840   1.7174   1.7175   1.9896   2.0010   2.0734
     2.0742   2.0986   2.1059   2.3301   2.3304   2.4184   2.4190   2.4876
     2.5530   2.5660   2.7225   2.8205   3.2598   3.2613   3.2630   3.2676
     3.3191   3.3195   3.6116   3.6119   3.8897   3.8972   3.9909   4.3075
     4.3481   4.3534   4.5541   4.5679   4.6503   4.6532   4.7423   4.8591
     4.8633   4.9768   4.9792   5.0559   5.2820   5.3484   5.3545   5.4972
     5.5243   5.7377   5.7390   5.7479   5.7652   5.7664   5.8271   5.8295
     5.8766   6.0336   6.2484   6.2610   6.4332   6.4464   6.5693   6.5716
     6.5765   6.5825   6.5976   6.7419   6.8195   6.8245   6.8294   6.9743
     7.0097   7.0367   7.0584

          k =-0.2500-0.1443-0.1111 (136898 PWs)   bands (ev):

   -18.9916  -6.8007  -6.4258  -5.6337  -5.3426  -5.2835  -5.2832  -4.7450
    -4.7448  -4.6135  -4.6126  -4.4585  -4.4267  -4.3654  -4.3319  -4.3316
    -4.2984  -4.2981  -4.1696  -4.1280  -4.1277  -4.0678  -4.0470  -4.0468
    -3.9444  -3.9443  -3.9083  -3.9080  -3.9079  -3.8812  -3.8596  -3.8592
    -3.7545  -3.7524  -3.7522  -3.7315  -3.7148  -3.7146  -3.7025  -3.7024
    -3.6891  -3.6589  -3.6588  -3.6584  -3.6582  -3.6261  -3.6258  -3.6080
    -3.6079  -3.5933  -3.5502  -3.5496  -3.5205  -3.5051  -3.5046  -3.4997
    -3.4996  -3.4252  -3.4250  -3.3898  -3.3887  -3.3872  -3.3198  -3.3196
    -3.3049  -3.3041  -3.2735  -3.2727  -3.2723  -3.2721  -3.1295  -3.1187
    -3.1090  -3.0926  -3.0910  -3.0862  -3.0715  -3.0671  -3.0453  -3.0431
    -2.9956  -2.9943  -2.9793  -2.9784  -2.9581  -2.9101  -2.9097  -2.8903
    -2.8858  -2.8848  -2.8447  -2.8440  -2.8381  -2.8369  -2.8216  -2.8198
    -2.7816  -2.7812  -2.7600  -2.7595  -2.7565  -2.7557  -2.7528  -2.6763
    -2.6759  -2.6744  -2.6460  -2.6448  -2.5840  -2.5836  -2.5553  -2.5544
    -2.5411  -2.5405  -2.5355  -2.5061  -2.5058  -2.4964  -2.4786  -2.4533
    -2.4529  -2.4528  -2.4321  -2.4318  -2.4211  -2.4204  -2.4175  -2.4162
    -2.4090  -2.3627  -2.3305  -2.3303  -2.3145  -2.3008  -2.2942  -2.2941
    -2.2871  -2.2862  -2.2852  -2.2551  -2.2549  -2.2546  -2.2451  -2.2445
    -2.2276  -2.2009  -2.1999  -2.1988  -2.1987  -2.1975  -2.1533  -2.1217
    -2.1215  -2.1208  -2.1145  -2.1057  -2.0926  -2.0923  -2.0756  -2.0755
    -2.0418  -2.0408  -2.0404  -2.0223  -2.0207  -2.0205  -1.9876  -1.9870
    -1.9464  -1.9450  -1.9381  -1.9363  -1.9358  -1.9297  -1.9294  -1.9278
    -1.9262  -1.9204  -1.9190  -1.9033  -1.9026  -1.7761  -1.7754  -1.7432
    -1.7378  -1.7365  -1.7315  -1.7310  -1.7143  -1.7138  -1.7109  -1.7105
    -1.7079  -1.6858  -1.6781  -1.6775  -1.6720  -1.6657  -1.6638  -1.6428
    -1.6424  -1.6143  -1.6136  -1.5817  -1.5815  -1.5711  -1.5631  -1.5454
    -1.5444  -1.5418  -1.5237  -1.5115  -1.5111  -1.5041  -1.5037  -1.4768
    -1.4767  -1.4605  -1.4597  -1.4286  -1.4264  -1.4181  -1.3672  -1.3665
    -1.3547  -1.3542  -1.3516  -1.3285  -1.3254  -1.2922  -1.2917  -1.2908
    -1.2583  -1.2483  -1.2466  -1.2317  -1.2313  -1.2060  -1.2040  -1.2029
    -1.1738  -1.1712  -1.1706  -1.1086  -1.1081  -1.0957  -1.0939  -1.0789
    -1.0782  -1.0664  -1.0656  -1.0471  -1.0346  -1.0160  -1.0068  -1.0047
    -0.9934  -0.9632  -0.9565  -0.9548  -0.9453  -0.9449  -0.9431  -0.9378
    -0.9338  -0.9240  -0.8934  -0.8928  -0.8827  -0.8817  -0.8797  -0.8750
    -0.8565  -0.8384  -0.8350  -0.8173  -0.8140  -0.7233  -0.7107  -0.7050
    -0.7047  -0.7004  -0.6958  -0.6942  -0.6724  -0.6693  -0.6549  -0.6528
    -0.6395  -0.6383  -0.6303  -0.6104  -0.6080  -0.6076  -0.5995  -0.5277
    -0.5273  -0.4943  -0.4917  -0.4892  -0.4829  -0.4814  -0.4805  -0.4797
    -0.4682  -0.4655  -0.4507  -0.4262  -0.4117  -0.3922  -0.3911  -0.3809
    -0.3795  -0.3680  -0.3667  -0.3664  -0.3648  -0.3637  -0.3471  -0.3433
    -0.3419  -0.3121  -0.3109  -0.3093  -0.2983  -0.2979  -0.2789  -0.2469
    -0.2462  -0.2376  -0.2367  -0.1695  -0.1688  -0.1322  -0.1316  -0.0745
    -0.0724  -0.0717  -0.0605  -0.0432   0.1773   0.1853   0.5272   0.5273
     0.6160   0.6234   0.8102   0.8305   0.8451   0.9751   0.9768   1.4074
     1.4076   1.4259   1.6841   1.7174   1.7176   1.9900   2.0005   2.0734
     2.0742   2.0988   2.1057   2.3300   2.3303   2.4184   2.4189   2.4877
     2.5533   2.5655   2.7223   2.8206   3.2596   3.2616   3.2631   3.2675
     3.3191   3.3197   3.6113   3.6122   3.8899   3.8970   3.9912   4.3075
     4.3481   4.3530   4.5555   4.5653   4.6506   4.6528   4.7426   4.8590
     4.8631   4.9772   4.9795   5.0577   5.2820   5.3484   5.3544   5.4995
     5.5236   5.7374   5.7386   5.7463   5.7652   5.7664   5.8273   5.8299
     5.8735   6.0209   6.2574   6.2716   6.4322   6.4462   6.5691   6.5718
     6.5761   6.5829   6.5968   6.7345   6.8235   6.8276   6.8368   6.9717
     7.0044   7.0374   7.0575

          k = 0.2500 0.1443-0.1111 (136898 PWs)   bands (ev):

   -18.9916  -6.8007  -6.4258  -5.6337  -5.3426  -5.2835  -5.2832  -4.7450
    -4.7448  -4.6135  -4.6126  -4.4585  -4.4267  -4.3654  -4.3319  -4.3316
    -4.2984  -4.2981  -4.1696  -4.1280  -4.1277  -4.0678  -4.0470  -4.0468
    -3.9444  -3.9443  -3.9083  -3.9080  -3.9079  -3.8812  -3.8596  -3.8592
    -3.7545  -3.7524  -3.7522  -3.7315  -3.7148  -3.7146  -3.7025  -3.7024
    -3.6891  -3.6589  -3.6588  -3.6584  -3.6582  -3.6261  -3.6258  -3.6080
    -3.6079  -3.5933  -3.5502  -3.5496  -3.5205  -3.5051  -3.5046  -3.4998
    -3.4996  -3.4252  -3.4250  -3.3898  -3.3887  -3.3872  -3.3198  -3.3196
    -3.3049  -3.3041  -3.2735  -3.2727  -3.2723  -3.2721  -3.1295  -3.1187
    -3.1090  -3.0926  -3.0910  -3.0862  -3.0715  -3.0671  -3.0453  -3.0431
    -2.9956  -2.9943  -2.9793  -2.9784  -2.9581  -2.9101  -2.9097  -2.8903
    -2.8858  -2.8848  -2.8447  -2.8440  -2.8381  -2.8369  -2.8216  -2.8198
    -2.7816  -2.7812  -2.7600  -2.7595  -2.7565  -2.7557  -2.7528  -2.6764
    -2.6759  -2.6744  -2.6460  -2.6448  -2.5840  -2.5836  -2.5553  -2.5544
    -2.5412  -2.5405  -2.5355  -2.5061  -2.5058  -2.4964  -2.4786  -2.4533
    -2.4529  -2.4528  -2.4321  -2.4318  -2.4211  -2.4204  -2.4175  -2.4162
    -2.4090  -2.3627  -2.3305  -2.3303  -2.3145  -2.3008  -2.2942  -2.2941
    -2.2871  -2.2862  -2.2852  -2.2551  -2.2549  -2.2546  -2.2451  -2.2445
    -2.2276  -2.2009  -2.1999  -2.1988  -2.1986  -2.1975  -2.1533  -2.1217
    -2.1215  -2.1208  -2.1145  -2.1057  -2.0926  -2.0923  -2.0756  -2.0755
    -2.0418  -2.0408  -2.0404  -2.0223  -2.0207  -2.0205  -1.9876  -1.9870
    -1.9464  -1.9450  -1.9381  -1.9363  -1.9358  -1.9297  -1.9294  -1.9278
    -1.9262  -1.9204  -1.9190  -1.9033  -1.9026  -1.7761  -1.7754  -1.7432
    -1.7378  -1.7365  -1.7315  -1.7310  -1.7143  -1.7138  -1.7109  -1.7105
    -1.7079  -1.6858  -1.6781  -1.6775  -1.6720  -1.6657  -1.6638  -1.6428
    -1.6424  -1.6143  -1.6136  -1.5817  -1.5815  -1.5711  -1.5631  -1.5454
    -1.5444  -1.5418  -1.5237  -1.5115  -1.5111  -1.5041  -1.5037  -1.4768
    -1.4767  -1.4605  -1.4597  -1.4286  -1.4264  -1.4181  -1.3672  -1.3665
    -1.3547  -1.3542  -1.3516  -1.3285  -1.3254  -1.2922  -1.2917  -1.2908
    -1.2583  -1.2483  -1.2466  -1.2317  -1.2312  -1.2060  -1.2040  -1.2029
    -1.1738  -1.1712  -1.1706  -1.1086  -1.1081  -1.0957  -1.0939  -1.0789
    -1.0782  -1.0664  -1.0656  -1.0471  -1.0346  -1.0160  -1.0068  -1.0047
    -0.9934  -0.9632  -0.9565  -0.9548  -0.9453  -0.9449  -0.9431  -0.9378
    -0.9338  -0.9241  -0.8934  -0.8928  -0.8827  -0.8817  -0.8797  -0.8750
    -0.8565  -0.8384  -0.8350  -0.8173  -0.8140  -0.7233  -0.7107  -0.7050
    -0.7047  -0.7004  -0.6958  -0.6942  -0.6724  -0.6693  -0.6549  -0.6528
    -0.6395  -0.6383  -0.6303  -0.6104  -0.6080  -0.6076  -0.5995  -0.5277
    -0.5273  -0.4943  -0.4917  -0.4892  -0.4829  -0.4814  -0.4805  -0.4797
    -0.4682  -0.4655  -0.4507  -0.4261  -0.4117  -0.3922  -0.3911  -0.3809
    -0.3795  -0.3681  -0.3667  -0.3664  -0.3648  -0.3637  -0.3471  -0.3433
    -0.3419  -0.3121  -0.3109  -0.3093  -0.2983  -0.2979  -0.2789  -0.2469
    -0.2462  -0.2376  -0.2366  -0.1695  -0.1688  -0.1322  -0.1316  -0.0745
    -0.0724  -0.0717  -0.0605  -0.0432   0.1773   0.1853   0.5272   0.5273
     0.6160   0.6234   0.8102   0.8306   0.8451   0.9751   0.9768   1.4074
     1.4076   1.4259   1.6841   1.7174   1.7176   1.9900   2.0005   2.0734
     2.0742   2.0988   2.1057   2.3300   2.3303   2.4184   2.4189   2.4877
     2.5533   2.5655   2.7223   2.8206   3.2596   3.2616   3.2631   3.2675
     3.3191   3.3197   3.6113   3.6122   3.8899   3.8970   3.9912   4.3075
     4.3481   4.3530   4.5555   4.5653   4.6506   4.6528   4.7426   4.8590
     4.8631   4.9772   4.9795   5.0577   5.2820   5.3484   5.3544   5.4995
     5.5236   5.7374   5.7387   5.7461   5.7652   5.7664   5.8273   5.8299
     5.8735   6.0220   6.2568   6.2708   6.4323   6.4449   6.5680   6.5718
     6.5746   6.5830   6.5961   6.7374   6.8236   6.8277   6.8369   6.9750
     7.0083   7.0380   7.0596

          k = 0.0000-0.2887 0.1111 (136898 PWs)   bands (ev):

   -18.9916  -6.8007  -6.4258  -5.6337  -5.3426  -5.2835  -5.2832  -4.7450
    -4.7448  -4.6133  -4.6128  -4.4585  -4.4267  -4.3654  -4.3317  -4.3317
    -4.2983  -4.2981  -4.1696  -4.1279  -4.1278  -4.0678  -4.0470  -4.0468
    -3.9444  -3.9443  -3.9083  -3.9081  -3.9079  -3.8812  -3.8595  -3.8594
    -3.7544  -3.7524  -3.7522  -3.7316  -3.7148  -3.7146  -3.7025  -3.7024
    -3.6891  -3.6590  -3.6588  -3.6584  -3.6582  -3.6262  -3.6257  -3.6080
    -3.6079  -3.5933  -3.5504  -3.5494  -3.5204  -3.5054  -3.5044  -3.4997
    -3.4996  -3.4252  -3.4251  -3.3897  -3.3888  -3.3872  -3.3198  -3.3196
    -3.3051  -3.3040  -3.2737  -3.2725  -3.2723  -3.2719  -3.1296  -3.1186
    -3.1090  -3.0923  -3.0912  -3.0862  -3.0715  -3.0673  -3.0454  -3.0431
    -2.9956  -2.9943  -2.9792  -2.9784  -2.9581  -2.9100  -2.9098  -2.8903
    -2.8857  -2.8849  -2.8446  -2.8441  -2.8381  -2.8368  -2.8215  -2.8200
    -2.7816  -2.7812  -2.7601  -2.7594  -2.7565  -2.7557  -2.7529  -2.6763
    -2.6759  -2.6744  -2.6460  -2.6449  -2.5841  -2.5836  -2.5553  -2.5543
    -2.5411  -2.5406  -2.5356  -2.5061  -2.5058  -2.4964  -2.4786  -2.4534
    -2.4530  -2.4527  -2.4320  -2.4318  -2.4210  -2.4204  -2.4173  -2.4166
    -2.4090  -2.3628  -2.3305  -2.3304  -2.3145  -2.3008  -2.2943  -2.2942
    -2.2869  -2.2863  -2.2851  -2.2552  -2.2548  -2.2545  -2.2449  -2.2448
    -2.2277  -2.2005  -2.1999  -2.1996  -2.1984  -2.1973  -2.1533  -2.1217
    -2.1215  -2.1208  -2.1146  -2.1057  -2.0927  -2.0924  -2.0756  -2.0755
    -2.0418  -2.0408  -2.0405  -2.0223  -2.0207  -2.0206  -1.9875  -1.9870
    -1.9462  -1.9452  -1.9381  -1.9363  -1.9358  -1.9297  -1.9295  -1.9276
    -1.9262  -1.9202  -1.9193  -1.9032  -1.9026  -1.7760  -1.7755  -1.7430
    -1.7378  -1.7365  -1.7316  -1.7311  -1.7147  -1.7132  -1.7108  -1.7106
    -1.7079  -1.6859  -1.6781  -1.6773  -1.6721  -1.6658  -1.6638  -1.6429
    -1.6424  -1.6143  -1.6138  -1.5815  -1.5814  -1.5710  -1.5630  -1.5453
    -1.5445  -1.5419  -1.5238  -1.5115  -1.5111  -1.5041  -1.5037  -1.4768
    -1.4767  -1.4607  -1.4598  -1.4289  -1.4266  -1.4177  -1.3674  -1.3665
    -1.3546  -1.3543  -1.3513  -1.3285  -1.3254  -1.2923  -1.2921  -1.2906
    -1.2575  -1.2487  -1.2468  -1.2317  -1.2312  -1.2052  -1.2043  -1.2026
    -1.1736  -1.1712  -1.1709  -1.1088  -1.1084  -1.0964  -1.0941  -1.0791
    -1.0783  -1.0657  -1.0650  -1.0472  -1.0348  -1.0141  -1.0062  -1.0034
    -0.9952  -0.9668  -0.9559  -0.9550  -0.9452  -0.9449  -0.9432  -0.9365
    -0.9360  -0.9241  -0.8934  -0.8930  -0.8822  -0.8817  -0.8770  -0.8762
    -0.8563  -0.8361  -0.8358  -0.8167  -0.8146  -0.7235  -0.7107  -0.7049
    -0.7048  -0.7008  -0.6954  -0.6941  -0.6734  -0.6693  -0.6543  -0.6532
    -0.6393  -0.6386  -0.6303  -0.6099  -0.6084  -0.6077  -0.5994  -0.5277
    -0.5274  -0.4938  -0.4925  -0.4892  -0.4826  -0.4814  -0.4804  -0.4799
    -0.4683  -0.4652  -0.4509  -0.4261  -0.4118  -0.3920  -0.3913  -0.3807
    -0.3796  -0.3681  -0.3665  -0.3663  -0.3648  -0.3639  -0.3470  -0.3432
    -0.3420  -0.3120  -0.3110  -0.3092  -0.2983  -0.2979  -0.2789  -0.2469
    -0.2462  -0.2375  -0.2367  -0.1696  -0.1686  -0.1322  -0.1315  -0.0745
    -0.0726  -0.0714  -0.0609  -0.0432   0.1787   0.1844   0.5272   0.5273
     0.6172   0.6223   0.8091   0.8313   0.8449   0.9754   0.9764   1.4075
     1.4075   1.4257   1.6840   1.7175   1.7176   1.9919   1.9987   2.0736
     2.0741   2.0999   2.1047   2.3296   2.3309   2.4185   2.4188   2.4881
     2.5549   2.5633   2.7223   2.8208   3.2598   3.2611   3.2636   3.2672
     3.3191   3.3199   3.6117   3.6119   3.8912   3.8961   3.9918   4.3075
     4.3489   4.3522   4.5526   4.5634   4.6505   4.6525   4.7431   4.8587
     4.8624   4.9776   4.9793   5.0675   5.2822   5.3472   5.3548   5.5079
     5.5188   5.7335   5.7381   5.7408   5.7654   5.7669   5.8265   5.8319
     5.8630   5.9937   6.2425   6.3565   6.4256   6.4436   6.5654   6.5722
     6.5726   6.5837   6.5920   6.6964   6.8248   6.8269   6.9223   6.9566
     6.9867   7.0478   7.0776

          k = 0.0000 0.2887 0.1111 (136898 PWs)   bands (ev):

   -18.9916  -6.8007  -6.4258  -5.6337  -5.3426  -5.2835  -5.2832  -4.7450
    -4.7448  -4.6133  -4.6128  -4.4585  -4.4267  -4.3654  -4.3317  -4.3317
    -4.2983  -4.2981  -4.1696  -4.1279  -4.1278  -4.0678  -4.0470  -4.0468
    -3.9444  -3.9443  -3.9083  -3.9081  -3.9079  -3.8812  -3.8595  -3.8593
    -3.7544  -3.7524  -3.7522  -3.7316  -3.7148  -3.7146  -3.7025  -3.7024
    -3.6891  -3.6590  -3.6588  -3.6584  -3.6582  -3.6262  -3.6257  -3.6080
    -3.6079  -3.5933  -3.5504  -3.5494  -3.5204  -3.5054  -3.5044  -3.4997
    -3.4996  -3.4252  -3.4251  -3.3897  -3.3888  -3.3872  -3.3198  -3.3196
    -3.3051  -3.3040  -3.2737  -3.2725  -3.2723  -3.2719  -3.1296  -3.1186
    -3.1090  -3.0923  -3.0912  -3.0862  -3.0715  -3.0673  -3.0454  -3.0431
    -2.9956  -2.9943  -2.9792  -2.9784  -2.9581  -2.9100  -2.9098  -2.8903
    -2.8857  -2.8849  -2.8446  -2.8441  -2.8381  -2.8368  -2.8215  -2.8200
    -2.7816  -2.7812  -2.7601  -2.7594  -2.7565  -2.7557  -2.7529  -2.6763
    -2.6759  -2.6744  -2.6460  -2.6449  -2.5841  -2.5836  -2.5552  -2.5543
    -2.5411  -2.5406  -2.5356  -2.5061  -2.5058  -2.4964  -2.4786  -2.4534
    -2.4530  -2.4527  -2.4320  -2.4318  -2.4210  -2.4204  -2.4173  -2.4166
    -2.4090  -2.3627  -2.3305  -2.3304  -2.3145  -2.3008  -2.2942  -2.2942
    -2.2869  -2.2863  -2.2851  -2.2552  -2.2548  -2.2545  -2.2449  -2.2448
    -2.2277  -2.2005  -2.1999  -2.1996  -2.1984  -2.1973  -2.1533  -2.1217
    -2.1215  -2.1208  -2.1146  -2.1057  -2.0927  -2.0924  -2.0756  -2.0755
    -2.0418  -2.0408  -2.0404  -2.0223  -2.0207  -2.0206  -1.9875  -1.9870
    -1.9462  -1.9452  -1.9381  -1.9363  -1.9358  -1.9297  -1.9295  -1.9276
    -1.9262  -1.9202  -1.9193  -1.9032  -1.9026  -1.7760  -1.7755  -1.7430
    -1.7378  -1.7365  -1.7316  -1.7311  -1.7147  -1.7132  -1.7108  -1.7106
    -1.7079  -1.6859  -1.6781  -1.6773  -1.6721  -1.6658  -1.6638  -1.6429
    -1.6424  -1.6143  -1.6138  -1.5815  -1.5815  -1.5710  -1.5630  -1.5453
    -1.5445  -1.5419  -1.5237  -1.5115  -1.5111  -1.5041  -1.5037  -1.4768
    -1.4767  -1.4607  -1.4598  -1.4290  -1.4266  -1.4177  -1.3674  -1.3665
    -1.3546  -1.3543  -1.3513  -1.3285  -1.3254  -1.2923  -1.2921  -1.2906
    -1.2575  -1.2487  -1.2468  -1.2316  -1.2312  -1.2052  -1.2043  -1.2026
    -1.1736  -1.1712  -1.1709  -1.1088  -1.1084  -1.0964  -1.0941  -1.0791
    -1.0783  -1.0657  -1.0650  -1.0472  -1.0348  -1.0141  -1.0062  -1.0034
    -0.9952  -0.9668  -0.9559  -0.9550  -0.9452  -0.9449  -0.9432  -0.9365
    -0.9360  -0.9241  -0.8934  -0.8930  -0.8822  -0.8817  -0.8770  -0.8762
    -0.8563  -0.8361  -0.8358  -0.8167  -0.8146  -0.7235  -0.7107  -0.7049
    -0.7048  -0.7008  -0.6954  -0.6941  -0.6734  -0.6693  -0.6543  -0.6532
    -0.6393  -0.6386  -0.6303  -0.6099  -0.6084  -0.6077  -0.5994  -0.5277
    -0.5274  -0.4938  -0.4925  -0.4892  -0.4826  -0.4814  -0.4804  -0.4799
    -0.4683  -0.4652  -0.4509  -0.4261  -0.4118  -0.3920  -0.3913  -0.3807
    -0.3796  -0.3682  -0.3665  -0.3663  -0.3648  -0.3639  -0.3470  -0.3432
    -0.3420  -0.3120  -0.3110  -0.3092  -0.2983  -0.2979  -0.2789  -0.2469
    -0.2462  -0.2375  -0.2367  -0.1696  -0.1686  -0.1322  -0.1315  -0.0745
    -0.0726  -0.0714  -0.0609  -0.0432   0.1787   0.1844   0.5272   0.5273
     0.6172   0.6223   0.8091   0.8313   0.8449   0.9754   0.9764   1.4075
     1.4075   1.4257   1.6840   1.7175   1.7176   1.9919   1.9987   2.0736
     2.0741   2.0999   2.1047   2.3296   2.3309   2.4185   2.4188   2.4881
     2.5549   2.5633   2.7223   2.8208   3.2598   3.2611   3.2636   3.2672
     3.3191   3.3199   3.6117   3.6119   3.8912   3.8961   3.9918   4.3075
     4.3489   4.3522   4.5526   4.5634   4.6505   4.6525   4.7431   4.8587
     4.8624   4.9776   4.9793   5.0675   5.2822   5.3472   5.3548   5.5079
     5.5187   5.7340   5.7381   5.7405   5.7654   5.7670   5.8265   5.8319
     5.8630   5.9933   6.2421   6.3559   6.4270   6.4436   6.5638   6.5717
     6.5725   6.5837   6.5919   6.6941   6.8248   6.8269   6.9249   6.9590
     6.9924   7.0446   7.0490

     the Fermi energy is     1.5503 ev

!    total energy              =   -6604.43531357 Ry
     Harris-Foulkes estimate   =   -6604.43531356 Ry
     estimated scf accuracy    <          1.8E-09 Ry

     The total energy is the sum of the following terms:

     one-electron contribution =  -48538.78297299 Ry
     hartree contribution      =   24773.50346815 Ry
     xc contribution           =   -3204.95870485 Ry
     ewald contribution        =   20365.80001383 Ry
     smearing contrib. (-TS)   =       0.00288228 Ry

     convergence has been achieved in  25 iterations

     Writing output data file 7387632.save

     init_run     :    143.13s CPU    155.43s WALL (       1 calls)
     electrons    :   8430.48s CPU   8983.70s WALL (       1 calls)

     Called by init_run:
     wfcinit      :    114.09s CPU    124.99s WALL (       1 calls)
     potinit      :      9.46s CPU      9.97s WALL (       1 calls)

     Called by electrons:
     c_bands      :   7250.54s CPU   7695.99s WALL (      26 calls)
     sum_band     :    891.06s CPU    983.32s WALL (      26 calls)
     v_of_rho     :    105.90s CPU    117.44s WALL (      26 calls)
     newd         :    185.67s CPU    188.97s WALL (      26 calls)
     mix_rho      :      3.28s CPU      3.71s WALL (      26 calls)
     vdW_energy   :      7.40s CPU      8.06s WALL (      26 calls)
     vdW_ffts     :     55.61s CPU     61.61s WALL (      52 calls)
     vdW_v        :     14.03s CPU     14.90s WALL (      26 calls)

     Called by c_bands:
     init_us_2    :     18.89s CPU     19.34s WALL (     636 calls)
     cegterg      :   7067.92s CPU   7508.41s WALL (     312 calls)

     Called by *egterg:
     h_psi        :   2786.18s CPU   3187.59s WALL (    1850 calls)
     s_psi        :    467.68s CPU    470.27s WALL (    1850 calls)
     g_psi        :      6.26s CPU      6.38s WALL (    1526 calls)
     cdiaghg      :   2380.70s CPU   2387.14s WALL (    1826 calls)

     Called by h_psi:
     add_vuspsi   :    468.46s CPU    471.11s WALL (    1850 calls)

     General routines
     calbec       :    682.83s CPU    685.42s WALL (    2162 calls)
     fft          :    135.61s CPU    146.57s WALL (    1716 calls)
     ffts         :      1.64s CPU      1.91s WALL (      52 calls)
     fftw         :   1903.24s CPU   2317.21s WALL (  758046 calls)
     interpolate  :      4.23s CPU      4.96s WALL (      52 calls)
     davcio       :      0.02s CPU      0.22s WALL (      12 calls)

     Parallel routines
     fft_scatter  :   1245.18s CPU   1513.37s WALL (  759814 calls)

     PWSCF        :     2h23m CPU        2h32m WALL


   This run was terminated on:   9:47: 1  26Jun2015            

=------------------------------------------------------------------------------=
   JOB DONE.
=------------------------------------------------------------------------------=
