Setting SGE environment for SCC

     Program PWSCF v.5.1.2 starts on 25Jun2015 at  1:23:21 

     This program is part of the open-source Quantum ESPRESSO suite
     for quantum simulation of materials; please cite
         "P. Giannozzi et al., J. Phys.:Condens. Matter 21 395502 (2009);
          URL http://www.quantum-espresso.org", 
     in publications or presentations arising from this work. More details at
     http://www.quantum-espresso.org/quote

     Parallel version (MPI), running on    32 processors
     R & G space division:  proc/nbgrp/npool/nimage =      32
     Reading input from top.O1.Au50.d.2.6.phi.25.psi.90.in
Warning: card &IONS ignored
Warning: card / ignored
Warning: card &CELL ignored
Warning: card / ignored

     Current dimensions of program PWSCF are:
     Max number of different atomic species (ntypx) = 10
     Max number of k-points (npk) =  40000
     Max angular momentum in pseudopotentials (lmaxx) =  3

     IMPORTANT: XC functional enforced from input :
     Exchange-correlation      = VDW-DF ( 1  4  4  0 1 0)
     Any further DFT definition will be discarded
     Please, verify this is what you really want


     Subspace diagonalization in iterative solution of the eigenvalue problem:
     a serial algorithm will be used


     Parallelization info
     --------------------
     sticks:   dense  smooth     PW     G-vecs:    dense   smooth      PW
     Min         445     223     58                96775    34191    4534
     Max         446     224     59                96790    34246    4540
     Sum       14269    7147   1867              3097177  1095093  145167


     Title: 
     top.O1.Au50.d.2.6.phi.25.psi.90                                            


     bravais-lattice index     =            4
     lattice parameter (alat)  =      22.7436  a.u.
     unit-cell volume          =   22924.1508 (a.u.)^3
     number of atoms/cell      =           67
     number of atomic types    =            3
     number of electrons       =       712.00
     number of Kohn-Sham states=          427
     kinetic-energy cutoff     =      50.0000  Ry
     charge density cutoff     =     400.0000  Ry
     convergence threshold     =      1.0E-08
     mixing beta               =       0.7000
     number of iterations used =            8  plain     mixing
     Exchange-correlation      = VDW-DF ( 1  4  4  0 1 0)

     celldm(1)=  22.743643  celldm(2)=   0.000000  celldm(3)=   2.250000
     celldm(4)=   0.000000  celldm(5)=   0.000000  celldm(6)=   0.000000

     crystal axes: (cart. coord. in units of alat)
               a(1) = (   1.000000   0.000000   0.000000 )  
               a(2) = (  -0.500000   0.866025   0.000000 )  
               a(3) = (   0.000000   0.000000   2.250000 )  

     reciprocal axes: (cart. coord. in units 2 pi/alat)
               b(1) = (  1.000000  0.577350 -0.000000 )  
               b(2) = (  0.000000  1.154701  0.000000 )  
               b(3) = (  0.000000 -0.000000  0.444444 )  


     PseudoPot. # 1 for Au read from file:
     /home/scc/andrejb/qe/pseudo/Au.pbe-nd-van.UPF
     MD5 check sum: 458681b50f36d87ef23c61b04bba420a
     Pseudo is Ultrasoft + core correction, Zval = 11.0
     Generated by new atomic code, or converted to UPF format
     Using radial grid of  985 points,  3 beta functions with: 
                l(1) =   1
                l(2) =   2
                l(3) =   2
     Q(r) pseudized with  8 coefficients,  rinner =    1.100   1.100   1.100
                                                       1.100   1.100

     PseudoPot. # 2 for H  read from file:
     /home/scc/andrejb/qe/pseudo/H.pbe-van_ak.UPF
     MD5 check sum: 403db7282739603aa925980fa9b8608d
     Pseudo is Ultrasoft, Zval =  1.0
     Generated by new atomic code, or converted to UPF format
     Using radial grid of  615 points,  1 beta functions with: 
                l(1) =   0
     Q(r) pseudized with  8 coefficients,  rinner =    0.800

     PseudoPot. # 3 for O  read from file:
     /home/scc/andrejb/qe/pseudo/O.pbe-van_ak.UPF
     MD5 check sum: 4b8c549914a63cae506c6ff22b5af4fe
     Pseudo is Ultrasoft, Zval =  6.0
     Generated by new atomic code, or converted to UPF format
     Using radial grid of  737 points,  4 beta functions with: 
                l(1) =   0
                l(2) =   0
                l(3) =   1
                l(4) =   1
     Q(r) pseudized with  8 coefficients,  rinner =    0.800   0.800   0.800


     vdW kernel table read from file vdW_kernel_table
     MD5 check sum: 48e77a2e26edf626eeb0eaa751ad5cac

     atomic species   valence    mass     pseudopotential
        Au            11.00   196.96657     Au( 1.00)
        H              1.00     1.01000     H ( 1.00)
        O              6.00    16.00000     O ( 1.00)

     No symmetry found



   Cartesian axes

     site n.     atom                  positions (alat units)
         1           O   tau(   1) = (   0.4790780   0.3968269   0.8290259  )
         2           H   tau(   2) = (   0.4518956   0.3485733   0.7700287  )
         3           H   tau(   3) = (   0.5054281   0.3460662   0.8862514  )
         4           Au  tau(   4) = (   0.3540481   0.6132292   0.0000000  )
         5           Au  tau(   5) = (   0.4790062   0.3967954   0.0000000  )
         6           Au  tau(   6) = (   0.6039644   0.1803616   0.0000000  )
         7           Au  tau(   7) = (   0.7289225  -0.0360723   0.0000000  )
         8           Au  tau(   8) = (   0.1041318   0.6132292   0.0000000  )
         9           Au  tau(   9) = (   0.2290899   0.3967954   0.0000000  )
        10           Au  tau(  10) = (   0.3540481   0.1803616   0.0000000  )
        11           Au  tau(  11) = (   0.4790062  -0.0360723   0.0000000  )
        12           Au  tau(  12) = (  -0.1457845   0.6132292   0.0000000  )
        13           Au  tau(  13) = (  -0.0208264   0.3967954   0.0000000  )
        14           Au  tau(  14) = (   0.1041318   0.1803616   0.0000000  )
        15           Au  tau(  15) = (   0.2290899  -0.0360723   0.0000000  )
        16           Au  tau(  16) = (  -0.3957008   0.6132292   0.0000000  )
        17           Au  tau(  17) = (  -0.2707426   0.3967954   0.0000000  )
        18           Au  tau(  18) = (  -0.1457845   0.1803616   0.0000000  )
        19           Au  tau(  19) = (  -0.0208264  -0.0360723   0.0000000  )
        20           Au  tau(  20) = (   0.4790062   0.6853738   0.2040557  )
        21           Au  tau(  21) = (   0.6039644   0.4689400   0.2040557  )
        22           Au  tau(  22) = (   0.7289225   0.2525062   0.2040557  )
        23           Au  tau(  23) = (   0.8538806   0.0360723   0.2040557  )
        24           Au  tau(  24) = (   0.2290899   0.6853738   0.2040557  )
        25           Au  tau(  25) = (   0.3540481   0.4689400   0.2040557  )
        26           Au  tau(  26) = (   0.4790062   0.2525062   0.2040557  )
        27           Au  tau(  27) = (   0.6039644   0.0360723   0.2040557  )
        28           Au  tau(  28) = (  -0.0208264   0.6853738   0.2040557  )
        29           Au  tau(  29) = (   0.1041318   0.4689400   0.2040557  )
        30           Au  tau(  30) = (   0.2290899   0.2525062   0.2040557  )
        31           Au  tau(  31) = (   0.3540481   0.0360723   0.2040557  )
        32           Au  tau(  32) = (  -0.2707426   0.6853738   0.2040557  )
        33           Au  tau(  33) = (  -0.1457845   0.4689400   0.2040557  )
        34           Au  tau(  34) = (  -0.0208264   0.2525062   0.2040557  )
        35           Au  tau(  35) = (   0.1041318   0.0360723   0.2040557  )
        36           Au  tau(  36) = (   0.3541162   0.7576593   0.4066483  )
        37           Au  tau(  37) = (   0.4791000   0.5411421   0.4066696  )
        38           Au  tau(  38) = (   0.6040570   0.3246862   0.4066618  )
        39           Au  tau(  39) = (   0.7290270   0.1081684   0.4066530  )
        40           Au  tau(  40) = (   0.1041162   0.7576236   0.4066247  )
        41           Au  tau(  41) = (   0.2291001   0.5411062   0.4066455  )
        42           Au  tau(  42) = (   0.3540567   0.3246505   0.4066380  )
        43           Au  tau(  43) = (   0.4790276   0.1081324   0.4066292  )
        44           Au  tau(  44) = (  -0.1458201   0.7576104   0.4066225  )
        45           Au  tau(  45) = (  -0.0208365   0.5410930   0.4066438  )
        46           Au  tau(  46) = (   0.1041202   0.3246372   0.4066359  )
        47           Au  tau(  47) = (   0.2290908   0.1081193   0.4066273  )
        48           Au  tau(  48) = (  -0.3958167   0.7575791   0.4065812  )
        49           Au  tau(  49) = (  -0.2708328   0.5410617   0.4066025  )
        50           Au  tau(  50) = (  -0.1458763   0.3246061   0.4065947  )
        51           Au  tau(  51) = (  -0.0209056   0.1080882   0.4065858  )
        52           Au  tau(  52) = (   0.3541084   0.6133344   0.6129762  )
        53           Au  tau(  53) = (   0.4790780   0.3968269   0.6129968  )
        54           Au  tau(  54) = (   0.6040356   0.1803811   0.6129859  )
        55           Au  tau(  55) = (   0.7290165  -0.0361221   0.6129385  )
        56           Au  tau(  56) = (   0.1041243   0.6133091   0.6130023  )
        57           Au  tau(  57) = (   0.2290941   0.3968013   0.6130241  )
        58           Au  tau(  58) = (   0.3540515   0.1803552   0.6130121  )
        59           Au  tau(  59) = (   0.4790323  -0.0361475   0.6129659  )
        60           Au  tau(  60) = (  -0.1458030   0.6133014   0.6129980  )
        61           Au  tau(  61) = (  -0.0208339   0.3967936   0.6130189  )
        62           Au  tau(  62) = (   0.1041239   0.1803477   0.6130083  )
        63           Au  tau(  63) = (   0.2291046  -0.0361554   0.6129607  )
        64           Au  tau(  64) = (  -0.3957908   0.6132739   0.6129471  )
        65           Au  tau(  65) = (  -0.2708208   0.3967658   0.6129688  )
        66           Au  tau(  66) = (  -0.1458636   0.1803200   0.6129569  )
        67           Au  tau(  67) = (  -0.0208823  -0.0361826   0.6129110  )

     number of k points=    12  Marzari-Vanderbilt smearing, width (Ry)=  0.0200
                       cart. coord. in units 2pi/alat
        k(    1) = (   0.2500000   0.4330127   0.1111111), wk =   0.1666667
        k(    2) = (   0.2500000  -0.1443376   0.1111111), wk =   0.1666667
        k(    3) = (  -0.2500000  -0.4330127   0.1111111), wk =   0.1666667
        k(    4) = (  -0.2500000   0.4330127  -0.1111111), wk =   0.1666667
        k(    5) = (   0.2500000  -0.4330127  -0.1111111), wk =   0.1666667
        k(    6) = (   0.5000000   0.0000000   0.1111111), wk =   0.1666667
        k(    7) = (  -0.5000000   0.0000000   0.1111111), wk =   0.1666667
        k(    8) = (  -0.2500000   0.1443376   0.1111111), wk =   0.1666667
        k(    9) = (  -0.2500000  -0.1443376  -0.1111111), wk =   0.1666667
        k(   10) = (   0.2500000   0.1443376  -0.1111111), wk =   0.1666667
        k(   11) = (   0.0000000  -0.2886751   0.1111111), wk =   0.1666667
        k(   12) = (   0.0000000   0.2886751   0.1111111), wk =   0.1666667

     Dense  grid:  3097177 G-vectors     FFT dimensions: ( 150, 150, 360)

     Smooth grid:  1095093 G-vectors     FFT dimensions: ( 108, 108, 240)

     Largest allocated arrays     est. size (Mb)     dimensions
        Kohn-Sham Wavefunctions        28.01 Mb     (    4299,  427)
        NL pseudopotentials            55.23 Mb     (    4299,  842)
        Each V/rho on FFT grid          4.12 Mb     (  270000)
        Each G-vector array             0.74 Mb     (   96788)
        G-vector shells                 0.16 Mb     (   21404)
     Largest temporary arrays     est. size (Mb)     dimensions
        Auxiliary wavefunctions       112.04 Mb     (    4299, 1708)
        Each subspace H/S matrix       44.51 Mb     (    1708, 1708)
        Each <psi_i|beta_j> matrix      5.49 Mb     (     842,  427)
        Arrays for rho mixing          32.96 Mb     (  270000,    8)

     Initial potential from superposition of free atoms
     Check: negative starting charge=   -1.730258

     starting charge  711.25682, renormalised to  712.00000

     negative rho (up, down):  1.732E+00 0.000E+00


     ************************************************************************
     *
     * You are using vdW-DF for exchange-correlation in this calculation.
     * Please cite the following three references that made this development
     * possible:
     *
     *   M. Dion, H. Rydberg, E. Schroder, D. C. Langreth, and
     *   B. I. Lundqvist, Phys. Rev. Lett. 92, 246401 (2004).
     *
     *   T. Thonhauser, V. R. Cooper, S. Li, A. Puzder, P. Hyldgaard, and
     *   D. C. Langreth, Phys. Rev. B 76, 125112 (2007).
     *
     *   G. Roman-Perez and J. M. Soler, Phys. Rev. Lett. 103, 096102 (2009).
     *
     *
     * If you are using vdW-DF2, please also cite:
     *
     *   K. Lee, E. D. Murray, L. Kong, B. I. Lundqvist, and
     *   D. C. Langreth, Phys. Rev. B 82, 081101(R) (2010).
     *
     *
     * If you are calculating the stress with vdW-DF, please also cite:
     *
     *   R. Sabatini, E. Kucukbenli, B. Kolb, T. Thonhauser, and
     *   S. de Gironcoli, J. Phys.: Condens. Matter 24, 424209 (2012).
     *
     ************************************************************************

     Carrying out vdW-DF run using the following parameters:

     Nqs =      20    Nr_points =    1024   r_max =   100.000
     q_mesh =
               0.00001000     0.04494208     0.09755937     0.15916263
               0.23128650     0.31572767     0.41458969     0.53033537
               0.66584808     0.82450364     1.01025438     1.22772762
               1.48234092     1.78043706     2.12944203     2.53805004
               3.01644009     3.57652955     4.23227104     5.00000000

     Gradients computed in reciprocal space

     ************************************************************************


     Starting wfc are  582 randomized atomic wfcs

     total cpu time spent up to now is      147.1 secs

     Self-consistent Calculation

     iteration #  1     ecut=    50.00 Ry     beta=0.70
     Davidson diagonalization with overlap
     ethr =  1.00E-02,  avg # of iterations =  3.0

     Threshold (ethr) on eigenvalues was too large:
     Diagonalizing with lowered threshold

     Davidson diagonalization with overlap
     ethr =  3.42E-04,  avg # of iterations =  3.7

     negative rho (up, down):  1.727E+00 0.000E+00

     total cpu time spent up to now is      694.5 secs

     total energy              =   -6602.78223252 Ry
     Harris-Foulkes estimate   =   -6604.99604338 Ry
     estimated scf accuracy    <       2.77416908 Ry

     iteration #  2     ecut=    50.00 Ry     beta=0.70
     Davidson diagonalization with overlap
     ethr =  3.90E-04,  avg # of iterations = 11.3

     negative rho (up, down):  1.726E+00 0.000E+00

     total cpu time spent up to now is     1601.2 secs

     total energy              =   -6596.93551417 Ry
     Harris-Foulkes estimate   =   -6609.98439868 Ry
     estimated scf accuracy    <      72.06685614 Ry

     iteration #  3     ecut=    50.00 Ry     beta=0.70
     Davidson diagonalization with overlap
     ethr =  3.90E-04,  avg # of iterations =  6.4

     negative rho (up, down):  1.737E+00 0.000E+00

     total cpu time spent up to now is     2172.7 secs

     total energy              =   -6603.25764887 Ry
     Harris-Foulkes estimate   =   -6604.94150448 Ry
     estimated scf accuracy    <       7.28373921 Ry

     iteration #  4     ecut=    50.00 Ry     beta=0.70
     Davidson diagonalization with overlap
     ethr =  3.90E-04,  avg # of iterations =  6.5

     negative rho (up, down):  1.739E+00 0.000E+00

     total cpu time spent up to now is     2518.3 secs

     total energy              =   -6603.57503111 Ry
     Harris-Foulkes estimate   =   -6605.08252274 Ry
     estimated scf accuracy    <      14.01979814 Ry

     iteration #  5     ecut=    50.00 Ry     beta=0.70
     Davidson diagonalization with overlap
     ethr =  3.90E-04,  avg # of iterations =  6.3

     negative rho (up, down):  1.748E+00 0.000E+00

     total cpu time spent up to now is     2848.0 secs

     total energy              =   -6604.28892996 Ry
     Harris-Foulkes estimate   =   -6604.58154747 Ry
     estimated scf accuracy    <       1.97644160 Ry

     iteration #  6     ecut=    50.00 Ry     beta=0.70
     Davidson diagonalization with overlap
     ethr =  2.78E-04,  avg # of iterations =  2.5

     negative rho (up, down):  1.752E+00 0.000E+00

     total cpu time spent up to now is     3095.0 secs

     total energy              =   -6604.38534395 Ry
     Harris-Foulkes estimate   =   -6604.43448507 Ry
     estimated scf accuracy    <       0.15256915 Ry

     iteration #  7     ecut=    50.00 Ry     beta=0.70
     Davidson diagonalization with overlap
     ethr =  2.14E-05,  avg # of iterations = 13.0

     negative rho (up, down):  1.754E+00 0.000E+00

     total cpu time spent up to now is     3552.4 secs

     total energy              =   -6604.39616602 Ry
     Harris-Foulkes estimate   =   -6604.42162014 Ry
     estimated scf accuracy    <       0.10717714 Ry

     iteration #  8     ecut=    50.00 Ry     beta=0.70
     Davidson diagonalization with overlap
     ethr =  1.51E-05,  avg # of iterations =  3.5

     negative rho (up, down):  1.755E+00 0.000E+00

     total cpu time spent up to now is     3824.1 secs

     total energy              =   -6604.39926523 Ry
     Harris-Foulkes estimate   =   -6604.41191443 Ry
     estimated scf accuracy    <       0.04587150 Ry

     iteration #  9     ecut=    50.00 Ry     beta=0.70
     Davidson diagonalization with overlap
     ethr =  6.44E-06,  avg # of iterations =  6.7

     negative rho (up, down):  1.756E+00 0.000E+00

     total cpu time spent up to now is     4151.4 secs

     total energy              =   -6604.40066545 Ry
     Harris-Foulkes estimate   =   -6604.40579816 Ry
     estimated scf accuracy    <       0.01584965 Ry

     iteration # 10     ecut=    50.00 Ry     beta=0.70
     Davidson diagonalization with overlap
     ethr =  2.23E-06,  avg # of iterations =  5.9

     negative rho (up, down):  1.757E+00 0.000E+00

     total cpu time spent up to now is     4483.7 secs

     total energy              =   -6604.40150348 Ry
     Harris-Foulkes estimate   =   -6604.40324800 Ry
     estimated scf accuracy    <       0.00556977 Ry

     iteration # 11     ecut=    50.00 Ry     beta=0.70
     Davidson diagonalization with overlap
     ethr =  7.82E-07,  avg # of iterations =  3.0

     negative rho (up, down):  1.757E+00 0.000E+00

     total cpu time spent up to now is     4746.7 secs

     total energy              =   -6604.40184828 Ry
     Harris-Foulkes estimate   =   -6604.40253883 Ry
     estimated scf accuracy    <       0.00245810 Ry

     iteration # 12     ecut=    50.00 Ry     beta=0.70
     Davidson diagonalization with overlap
     ethr =  3.45E-07,  avg # of iterations =  2.0

     negative rho (up, down):  1.758E+00 0.000E+00

     total cpu time spent up to now is     4986.8 secs

     total energy              =   -6604.40199211 Ry
     Harris-Foulkes estimate   =   -6604.40218904 Ry
     estimated scf accuracy    <       0.00041112 Ry

     iteration # 13     ecut=    50.00 Ry     beta=0.70
     Davidson diagonalization with overlap
     ethr =  5.77E-08,  avg # of iterations =  4.0

     negative rho (up, down):  1.757E+00 0.000E+00

     total cpu time spent up to now is     5310.2 secs

     total energy              =   -6604.40201638 Ry
     Harris-Foulkes estimate   =   -6604.40215272 Ry
     estimated scf accuracy    <       0.00052478 Ry

     iteration # 14     ecut=    50.00 Ry     beta=0.70
     Davidson diagonalization with overlap
     ethr =  5.77E-08,  avg # of iterations =  2.0

     negative rho (up, down):  1.757E+00 0.000E+00

     total cpu time spent up to now is     5555.8 secs

     total energy              =   -6604.40207969 Ry
     Harris-Foulkes estimate   =   -6604.40209954 Ry
     estimated scf accuracy    <       0.00007388 Ry

     iteration # 15     ecut=    50.00 Ry     beta=0.70
     Davidson diagonalization with overlap
     ethr =  1.04E-08,  avg # of iterations =  2.0

     negative rho (up, down):  1.757E+00 0.000E+00

     total cpu time spent up to now is     5804.4 secs

     total energy              =   -6604.40208728 Ry
     Harris-Foulkes estimate   =   -6604.40209709 Ry
     estimated scf accuracy    <       0.00005241 Ry

     iteration # 16     ecut=    50.00 Ry     beta=0.70
     Davidson diagonalization with overlap
     ethr =  7.36E-09,  avg # of iterations =  2.0

     negative rho (up, down):  1.757E+00 0.000E+00

     total cpu time spent up to now is     6044.4 secs

     total energy              =   -6604.40209060 Ry
     Harris-Foulkes estimate   =   -6604.40209375 Ry
     estimated scf accuracy    <       0.00001949 Ry

     iteration # 17     ecut=    50.00 Ry     beta=0.70
     Davidson diagonalization with overlap
     ethr =  2.74E-09,  avg # of iterations =  1.5

     negative rho (up, down):  1.757E+00 0.000E+00

     total cpu time spent up to now is     6273.9 secs

     total energy              =   -6604.40209200 Ry
     Harris-Foulkes estimate   =   -6604.40209341 Ry
     estimated scf accuracy    <       0.00000949 Ry

     iteration # 18     ecut=    50.00 Ry     beta=0.70
     Davidson diagonalization with overlap
     ethr =  1.33E-09,  avg # of iterations =  1.7

     negative rho (up, down):  1.757E+00 0.000E+00

     total cpu time spent up to now is     6505.9 secs

     total energy              =   -6604.40209246 Ry
     Harris-Foulkes estimate   =   -6604.40209305 Ry
     estimated scf accuracy    <       0.00000221 Ry

     iteration # 19     ecut=    50.00 Ry     beta=0.70
     Davidson diagonalization with overlap
     ethr =  3.11E-10,  avg # of iterations =  2.0

     negative rho (up, down):  1.757E+00 0.000E+00

     total cpu time spent up to now is     6751.4 secs

     total energy              =   -6604.40209276 Ry
     Harris-Foulkes estimate   =   -6604.40209285 Ry
     estimated scf accuracy    <       0.00000040 Ry

     iteration # 20     ecut=    50.00 Ry     beta=0.70
     Davidson diagonalization with overlap
     ethr =  5.55E-11,  avg # of iterations =  2.5

     negative rho (up, down):  1.757E+00 0.000E+00

     total cpu time spent up to now is     7000.8 secs

     total energy              =   -6604.40209282 Ry
     Harris-Foulkes estimate   =   -6604.40209283 Ry
     estimated scf accuracy    <       0.00000005 Ry

     iteration # 21     ecut=    50.00 Ry     beta=0.70
     Davidson diagonalization with overlap
     ethr =  7.65E-12,  avg # of iterations =  2.2

     negative rho (up, down):  1.757E+00 0.000E+00

     total cpu time spent up to now is     7294.4 secs

     total energy              =   -6604.40209283 Ry
     Harris-Foulkes estimate   =   -6604.40209285 Ry
     estimated scf accuracy    <       0.00000010 Ry

     iteration # 22     ecut=    50.00 Ry     beta=0.70
     Davidson diagonalization with overlap
     ethr =  7.65E-12,  avg # of iterations =  2.0

     negative rho (up, down):  1.757E+00 0.000E+00

     total cpu time spent up to now is     7532.6 secs

     End of self-consistent calculation

          k = 0.2500 0.4330 0.1111 (136853 PWs)   bands (ev):

   -19.1713  -7.3517  -6.3152  -5.9172  -5.9163  -5.2397  -4.9069  -4.9060
    -4.8686  -4.8665  -4.5071  -4.5056  -4.4083  -4.4072  -4.3938  -4.3706
    -4.3558  -4.2418  -4.2389  -4.2158  -4.1737  -4.1722  -4.1046  -4.1037
    -4.0982  -4.0966  -4.0758  -4.0728  -4.0686  -4.0098  -3.9981  -3.9688
    -3.9660  -3.9560  -3.9543  -3.9326  -3.9315  -3.9086  -3.9027  -3.9007
    -3.8746  -3.8231  -3.8221  -3.7747  -3.7723  -3.7203  -3.7172  -3.6639
    -3.6620  -3.6592  -3.6589  -3.6241  -3.5964  -3.5902  -3.5832  -3.5781
    -3.5763  -3.5552  -3.5471  -3.5397  -3.4905  -3.4813  -3.4778  -3.4504
    -3.4435  -3.4188  -3.3710  -3.3669  -3.3418  -3.3363  -3.3116  -3.3000
    -3.2943  -3.2759  -3.2207  -3.2188  -3.2033  -3.2004  -3.1551  -3.1478
    -3.1313  -3.1036  -3.0798  -3.0755  -3.0679  -3.0645  -3.0574  -3.0485
    -3.0466  -3.0403  -3.0285  -2.9940  -2.9579  -2.9546  -2.9439  -2.9405
    -2.9131  -2.9095  -2.9059  -2.8852  -2.8387  -2.8367  -2.8334  -2.7934
    -2.7842  -2.7728  -2.7724  -2.7518  -2.7420  -2.7122  -2.6801  -2.6737
    -2.6587  -2.6463  -2.6338  -2.6308  -2.5878  -2.5829  -2.5510  -2.5280
    -2.5262  -2.5084  -2.5019  -2.4926  -2.4895  -2.4813  -2.4629  -2.4613
    -2.4134  -2.4134  -2.4109  -2.3996  -2.3963  -2.3873  -2.3845  -2.3826
    -2.3792  -2.3754  -2.3700  -2.3674  -2.3605  -2.3507  -2.3375  -2.3219
    -2.3202  -2.3186  -2.3169  -2.3144  -2.3142  -2.2938  -2.2887  -2.2758
    -2.2712  -2.2543  -2.2521  -2.2490  -2.2426  -2.2415  -2.2396  -2.2248
    -2.2228  -2.2190  -2.2177  -2.2049  -2.1771  -2.1753  -2.1338  -2.1329
    -2.1145  -2.1115  -2.0854  -2.0823  -2.0680  -2.0545  -2.0446  -2.0340
    -2.0101  -2.0041  -1.9859  -1.9815  -1.9758  -1.9748  -1.9687  -1.9651
    -1.9401  -1.9344  -1.9314  -1.8716  -1.8656  -1.8633  -1.8603  -1.8581
    -1.8290  -1.8050  -1.8025  -1.7785  -1.7761  -1.7208  -1.7191  -1.6887
    -1.6837  -1.6666  -1.6271  -1.6089  -1.6026  -1.5942  -1.5868  -1.5833
    -1.5779  -1.5770  -1.5690  -1.5447  -1.5141  -1.5063  -1.5016  -1.5004
    -1.4951  -1.4822  -1.4624  -1.4467  -1.4412  -1.4314  -1.4294  -1.4214
    -1.4198  -1.4127  -1.4061  -1.3907  -1.3858  -1.3699  -1.3476  -1.3394
    -1.3355  -1.3198  -1.2994  -1.2902  -1.2605  -1.2432  -1.2333  -1.2272
    -1.2133  -1.1927  -1.1504  -1.1450  -1.1436  -1.1397  -1.1381  -1.1308
    -1.1178  -1.1123  -1.0855  -1.0738  -1.0661  -1.0427  -1.0387  -1.0315
    -1.0295  -1.0266  -1.0132  -1.0069  -1.0067  -1.0023  -0.9949  -0.9672
    -0.9639  -0.9618  -0.9537  -0.9390  -0.9288  -0.9226  -0.9019  -0.8989
    -0.8822  -0.8518  -0.8441  -0.8364  -0.8050  -0.8019  -0.7932  -0.7883
    -0.7831  -0.7816  -0.7782  -0.7723  -0.7649  -0.7517  -0.7435  -0.7412
    -0.7358  -0.7334  -0.7274  -0.6975  -0.6971  -0.6889  -0.6809  -0.6664
    -0.6623  -0.6521  -0.6441  -0.5958  -0.5916  -0.5880  -0.5861  -0.5835
    -0.5807  -0.5701  -0.5588  -0.5543  -0.5504  -0.5480  -0.5474  -0.5334
    -0.5094  -0.5064  -0.5040  -0.4970  -0.4943  -0.4914  -0.4892  -0.4751
    -0.4715  -0.4699  -0.4438  -0.4301  -0.4272  -0.4201  -0.4159  -0.4126
    -0.3434  -0.3363  -0.3346  -0.3319  -0.3268  -0.3197  -0.2892  -0.2779
    -0.2765  -0.2462  -0.2446  -0.2158  -0.1241  -0.1204  -0.0212   0.3932
     0.3948   0.3996   0.4005   0.4608   0.4758   0.8456   0.8486   0.8891
     0.8903   1.0092   1.0860   1.1924   1.2026   1.4132   1.4362   2.0443
     2.0511   2.2066   2.2118   2.3403   2.3535   2.4443   2.4452   2.5988
     2.8367   2.8478   2.9647   3.1852   3.1933   3.2632   3.2667   3.3659
     3.3837   3.5794   3.5957   3.6368   3.8385   3.8433   3.9036   3.9079
     4.1587   4.1676   4.1762   4.4090   4.4460   4.4553   4.4974   4.8261
     4.8358   4.8629   4.9940   5.1683   5.1734   5.2183   5.2435   5.5023
     5.8051   5.9410   5.9471   5.9609   5.9686   6.0253   6.0336   6.1030
     6.1344   6.1571   6.1682   6.1978   6.2010   6.2183   6.2374   6.2531
     6.2656   6.4437   6.5752   6.7000   6.7575   6.8037   6.8973   6.9036
     6.9160   7.0063   7.0266

          k = 0.2500-0.1443 0.1111 (136898 PWs)   bands (ev):

   -19.1713  -7.3521  -6.5243  -5.7342  -5.4431  -5.3853  -5.3834  -4.8469
    -4.8459  -4.7154  -4.7141  -4.5610  -4.5350  -4.4670  -4.4359  -4.4324
    -4.4004  -4.3993  -4.2716  -4.2309  -4.2292  -4.1702  -4.1500  -4.1484
    -4.0469  -4.0463  -4.0105  -4.0101  -4.0093  -3.9851  -3.9623  -3.9610
    -3.8639  -3.8566  -3.8539  -3.8358  -3.8175  -3.8168  -3.8068  -3.8057
    -3.7951  -3.7627  -3.7624  -3.7603  -3.7601  -3.7320  -3.7295  -3.7120
    -3.7103  -3.7053  -3.6661  -3.6577  -3.6244  -3.6154  -3.6105  -3.6018
    -3.6007  -3.5288  -3.5274  -3.5029  -3.4943  -3.4900  -3.4314  -3.4218
    -3.4141  -3.4058  -3.4048  -3.3795  -3.3782  -3.3749  -3.3558  -3.2223
    -3.2199  -3.2006  -3.1935  -3.1775  -3.1748  -3.1662  -3.1496  -3.1484
    -3.0997  -3.0984  -3.0847  -3.0813  -3.0616  -3.0161  -3.0102  -2.9960
    -2.9902  -2.9881  -2.9507  -2.9474  -2.9390  -2.9373  -2.9257  -2.9231
    -2.8875  -2.8859  -2.8639  -2.8625  -2.8604  -2.8578  -2.8544  -2.7849
    -2.7807  -2.7774  -2.7494  -2.7478  -2.6889  -2.6828  -2.6626  -2.6578
    -2.6474  -2.6448  -2.6372  -2.6111  -2.6084  -2.5988  -2.5858  -2.5644
    -2.5565  -2.5550  -2.5376  -2.5356  -2.5284  -2.5238  -2.5224  -2.5185
    -2.5097  -2.4644  -2.4374  -2.4334  -2.4184  -2.4061  -2.4017  -2.3978
    -2.3930  -2.3896  -2.3869  -2.3627  -2.3592  -2.3561  -2.3500  -2.3472
    -2.3346  -2.3127  -2.3069  -2.3052  -2.3024  -2.3017  -2.2552  -2.2307
    -2.2269  -2.2236  -2.2195  -2.2074  -2.2032  -2.1961  -2.1790  -2.1783
    -2.1542  -2.1470  -2.1450  -2.1347  -2.1269  -2.1240  -2.1009  -2.0923
    -2.0589  -2.0514  -2.0464  -2.0436  -2.0425  -2.0394  -2.0353  -2.0336
    -2.0309  -2.0293  -2.0225  -2.0129  -2.0067  -1.9031  -1.8813  -1.8750
    -1.8458  -1.8406  -1.8343  -1.8331  -1.8252  -1.8185  -1.8170  -1.8153
    -1.8118  -1.7922  -1.7894  -1.7830  -1.7794  -1.7747  -1.7680  -1.7484
    -1.7469  -1.7189  -1.7181  -1.7005  -1.6908  -1.6783  -1.6716  -1.6549
    -1.6495  -1.6463  -1.6310  -1.6202  -1.6147  -1.6101  -1.6078  -1.5926
    -1.5834  -1.5727  -1.5638  -1.5408  -1.5316  -1.5270  -1.4943  -1.4721
    -1.4690  -1.4575  -1.4565  -1.4312  -1.4289  -1.4038  -1.3990  -1.3955
    -1.3836  -1.3561  -1.3537  -1.3378  -1.3347  -1.3194  -1.3111  -1.3097
    -1.2847  -1.2783  -1.2748  -1.2350  -1.2153  -1.2120  -1.2059  -1.1995
    -1.1844  -1.1820  -1.1712  -1.1669  -1.1529  -1.1394  -1.1102  -1.1058
    -1.0971  -1.0679  -1.0616  -1.0566  -1.0488  -1.0474  -1.0462  -1.0440
    -1.0262  -1.0226  -1.0044  -0.9997  -0.9868  -0.9846  -0.9832  -0.9663
    -0.9634  -0.9430  -0.9291  -0.9203  -0.8856  -0.8303  -0.8200  -0.8119
    -0.8107  -0.8052  -0.7994  -0.7914  -0.7794  -0.7673  -0.7600  -0.7490
    -0.7462  -0.7415  -0.7355  -0.7188  -0.7138  -0.7059  -0.6997  -0.6322
    -0.6298  -0.5987  -0.5936  -0.5919  -0.5864  -0.5833  -0.5825  -0.5782
    -0.5701  -0.5636  -0.5413  -0.5272  -0.5060  -0.4978  -0.4955  -0.4847
    -0.4795  -0.4757  -0.4710  -0.4696  -0.4673  -0.4565  -0.4519  -0.4468
    -0.4384  -0.4170  -0.4132  -0.4076  -0.4003  -0.3983  -0.3813  -0.3504
    -0.3470  -0.3406  -0.3335  -0.2725  -0.2713  -0.2392  -0.2370  -0.1819
    -0.1793  -0.1766  -0.1553  -0.1505   0.0761   0.1023   0.4237   0.4239
     0.5133   0.5338   0.7119   0.7413   0.7464   0.8682   0.8745   1.3032
     1.3050   1.3215   1.5867   1.6139   1.6153   1.8879   1.9077   1.9657
     1.9691   1.9932   2.0111   2.2218   2.2257   2.3151   2.3161   2.3934
     2.4515   2.4751   2.6193   2.7214   3.1513   3.1556   3.1597   3.1659
     3.2100   3.2183   3.5068   3.5091   3.7854   3.7996   3.9011   4.2048
     4.2403   4.2504   4.4557   4.4901   4.5423   4.5495   4.6398   4.7565
     4.7624   4.8739   4.8771   5.1742   5.2398   5.2513   5.3484   5.4347
     5.4577   5.6281   5.6353   5.6606   5.6652   5.7179   5.7274   5.7673
     5.8779   6.0705   6.2807   6.3238   6.3630   6.4561   6.4655   6.4790
     6.4840   6.5317   6.6546   6.7146   6.7256   6.8519   6.9315   6.9461
     6.9747   7.0436   7.0773

          k =-0.2500-0.4330 0.1111 (136853 PWs)   bands (ev):

   -19.1713  -7.3517  -6.3152  -5.9172  -5.9163  -5.2397  -4.9069  -4.9060
    -4.8686  -4.8665  -4.5071  -4.5056  -4.4083  -4.4072  -4.3938  -4.3706
    -4.3558  -4.2418  -4.2389  -4.2158  -4.1737  -4.1722  -4.1046  -4.1037
    -4.0982  -4.0966  -4.0758  -4.0728  -4.0686  -4.0098  -3.9981  -3.9688
    -3.9660  -3.9560  -3.9543  -3.9326  -3.9315  -3.9086  -3.9027  -3.9007
    -3.8746  -3.8231  -3.8221  -3.7747  -3.7723  -3.7203  -3.7172  -3.6639
    -3.6620  -3.6592  -3.6589  -3.6241  -3.5964  -3.5902  -3.5832  -3.5781
    -3.5763  -3.5552  -3.5471  -3.5397  -3.4905  -3.4813  -3.4778  -3.4504
    -3.4435  -3.4188  -3.3710  -3.3669  -3.3418  -3.3363  -3.3116  -3.3000
    -3.2943  -3.2759  -3.2207  -3.2188  -3.2033  -3.2004  -3.1551  -3.1478
    -3.1313  -3.1036  -3.0798  -3.0755  -3.0679  -3.0645  -3.0574  -3.0485
    -3.0466  -3.0403  -3.0285  -2.9940  -2.9579  -2.9546  -2.9439  -2.9405
    -2.9131  -2.9095  -2.9059  -2.8852  -2.8387  -2.8367  -2.8334  -2.7934
    -2.7842  -2.7728  -2.7724  -2.7518  -2.7420  -2.7122  -2.6801  -2.6737
    -2.6587  -2.6463  -2.6338  -2.6308  -2.5878  -2.5829  -2.5510  -2.5280
    -2.5262  -2.5084  -2.5019  -2.4926  -2.4895  -2.4813  -2.4629  -2.4613
    -2.4134  -2.4134  -2.4109  -2.3996  -2.3963  -2.3873  -2.3845  -2.3826
    -2.3792  -2.3754  -2.3700  -2.3674  -2.3605  -2.3507  -2.3375  -2.3219
    -2.3202  -2.3186  -2.3169  -2.3144  -2.3142  -2.2938  -2.2887  -2.2758
    -2.2712  -2.2543  -2.2521  -2.2490  -2.2426  -2.2415  -2.2396  -2.2248
    -2.2228  -2.2190  -2.2177  -2.2049  -2.1771  -2.1753  -2.1338  -2.1329
    -2.1145  -2.1115  -2.0854  -2.0823  -2.0680  -2.0545  -2.0446  -2.0340
    -2.0101  -2.0041  -1.9859  -1.9815  -1.9758  -1.9748  -1.9687  -1.9651
    -1.9401  -1.9344  -1.9314  -1.8716  -1.8656  -1.8633  -1.8603  -1.8581
    -1.8290  -1.8050  -1.8025  -1.7784  -1.7761  -1.7208  -1.7191  -1.6887
    -1.6837  -1.6666  -1.6271  -1.6089  -1.6026  -1.5942  -1.5868  -1.5833
    -1.5779  -1.5770  -1.5690  -1.5447  -1.5141  -1.5063  -1.5016  -1.5004
    -1.4951  -1.4822  -1.4624  -1.4467  -1.4412  -1.4314  -1.4294  -1.4214
    -1.4198  -1.4127  -1.4061  -1.3907  -1.3858  -1.3698  -1.3476  -1.3394
    -1.3355  -1.3198  -1.2994  -1.2902  -1.2605  -1.2432  -1.2333  -1.2272
    -1.2133  -1.1927  -1.1504  -1.1450  -1.1436  -1.1397  -1.1381  -1.1308
    -1.1178  -1.1123  -1.0855  -1.0738  -1.0661  -1.0427  -1.0387  -1.0315
    -1.0295  -1.0266  -1.0132  -1.0069  -1.0067  -1.0023  -0.9949  -0.9672
    -0.9639  -0.9618  -0.9537  -0.9390  -0.9288  -0.9226  -0.9019  -0.8989
    -0.8822  -0.8518  -0.8441  -0.8364  -0.8050  -0.8019  -0.7932  -0.7883
    -0.7831  -0.7816  -0.7782  -0.7722  -0.7649  -0.7517  -0.7435  -0.7412
    -0.7358  -0.7334  -0.7274  -0.6975  -0.6971  -0.6889  -0.6809  -0.6664
    -0.6623  -0.6521  -0.6441  -0.5958  -0.5916  -0.5880  -0.5861  -0.5835
    -0.5807  -0.5701  -0.5588  -0.5543  -0.5504  -0.5480  -0.5474  -0.5334
    -0.5094  -0.5064  -0.5040  -0.4970  -0.4943  -0.4914  -0.4892  -0.4751
    -0.4715  -0.4699  -0.4438  -0.4301  -0.4272  -0.4201  -0.4159  -0.4126
    -0.3434  -0.3363  -0.3346  -0.3319  -0.3268  -0.3197  -0.2892  -0.2779
    -0.2765  -0.2462  -0.2446  -0.2158  -0.1241  -0.1204  -0.0212   0.3932
     0.3948   0.3996   0.4005   0.4608   0.4758   0.8456   0.8486   0.8891
     0.8903   1.0092   1.0860   1.1924   1.2026   1.4132   1.4362   2.0443
     2.0511   2.2066   2.2118   2.3403   2.3535   2.4443   2.4452   2.5988
     2.8367   2.8478   2.9647   3.1852   3.1933   3.2632   3.2667   3.3659
     3.3837   3.5794   3.5957   3.6368   3.8385   3.8433   3.9036   3.9079
     4.1587   4.1676   4.1762   4.4090   4.4460   4.4553   4.4974   4.8261
     4.8358   4.8629   4.9940   5.1683   5.1734   5.2183   5.2435   5.5024
     5.8045   5.9410   5.9470   5.9609   5.9686   6.0253   6.0335   6.1029
     6.1347   6.1594   6.1692   6.1980   6.2009   6.2182   6.2366   6.2533
     6.2659   6.4434   6.5760   6.6878   6.7579   6.8032   6.8970   6.9036
     6.9154   7.0228   7.0264

          k =-0.2500 0.4330-0.1111 (136853 PWs)   bands (ev):

   -19.1713  -7.3518  -6.3152  -5.9181  -5.9153  -5.2397  -4.9072  -4.9057
    -4.8695  -4.8657  -4.5070  -4.5057  -4.4087  -4.4070  -4.3936  -4.3706
    -4.3558  -4.2415  -4.2390  -4.2157  -4.1731  -4.1726  -4.1042  -4.1038
    -4.0984  -4.0968  -4.0764  -4.0734  -4.0677  -4.0100  -3.9983  -3.9695
    -3.9658  -3.9560  -3.9545  -3.9324  -3.9310  -3.9089  -3.9022  -3.9005
    -3.8747  -3.8235  -3.8220  -3.7752  -3.7720  -3.7208  -3.7175  -3.6649
    -3.6616  -3.6591  -3.6589  -3.6244  -3.5987  -3.5902  -3.5805  -3.5787
    -3.5763  -3.5533  -3.5473  -3.5395  -3.4889  -3.4809  -3.4754  -3.4510
    -3.4435  -3.4178  -3.3712  -3.3656  -3.3438  -3.3363  -3.3118  -3.3029
    -3.2945  -3.2765  -3.2212  -3.2191  -3.2028  -3.2010  -3.1546  -3.1467
    -3.1311  -3.1041  -3.0797  -3.0753  -3.0675  -3.0634  -3.0557  -3.0494
    -3.0470  -3.0400  -3.0304  -2.9945  -2.9583  -2.9543  -2.9446  -2.9409
    -2.9140  -2.9095  -2.9061  -2.8846  -2.8387  -2.8366  -2.8300  -2.7934
    -2.7841  -2.7730  -2.7716  -2.7483  -2.7418  -2.7124  -2.6829  -2.6735
    -2.6588  -2.6464  -2.6357  -2.6319  -2.5867  -2.5825  -2.5507  -2.5304
    -2.5262  -2.5058  -2.5025  -2.4929  -2.4904  -2.4817  -2.4627  -2.4599
    -2.4180  -2.4132  -2.4109  -2.3989  -2.3971  -2.3888  -2.3860  -2.3828
    -2.3793  -2.3756  -2.3699  -2.3674  -2.3595  -2.3551  -2.3353  -2.3214
    -2.3198  -2.3186  -2.3175  -2.3145  -2.3136  -2.2912  -2.2890  -2.2749
    -2.2703  -2.2530  -2.2516  -2.2461  -2.2434  -2.2411  -2.2398  -2.2294
    -2.2208  -2.2197  -2.2174  -2.2052  -2.1766  -2.1759  -2.1342  -2.1333
    -2.1140  -2.1118  -2.0876  -2.0818  -2.0580  -2.0546  -2.0425  -2.0341
    -2.0079  -1.9968  -1.9850  -1.9794  -1.9773  -1.9741  -1.9670  -1.9649
    -1.9426  -1.9373  -1.9310  -1.8863  -1.8659  -1.8627  -1.8604  -1.8584
    -1.8307  -1.8053  -1.8020  -1.7828  -1.7753  -1.7213  -1.7177  -1.6950
    -1.6719  -1.6671  -1.6278  -1.6066  -1.6036  -1.5949  -1.5913  -1.5850
    -1.5805  -1.5766  -1.5694  -1.5526  -1.5136  -1.5095  -1.5024  -1.5008
    -1.4892  -1.4832  -1.4537  -1.4475  -1.4356  -1.4332  -1.4290  -1.4235
    -1.4196  -1.4137  -1.4070  -1.3893  -1.3856  -1.3725  -1.3500  -1.3439
    -1.3354  -1.3196  -1.2990  -1.2729  -1.2586  -1.2456  -1.2300  -1.2271
    -1.2093  -1.1956  -1.1522  -1.1455  -1.1431  -1.1400  -1.1367  -1.1299
    -1.1220  -1.1119  -1.1020  -1.0722  -1.0649  -1.0403  -1.0361  -1.0315
    -1.0276  -1.0248  -1.0118  -1.0077  -1.0059  -1.0025  -0.9997  -0.9669
    -0.9635  -0.9628  -0.9536  -0.9363  -0.9331  -0.9239  -0.9041  -0.8953
    -0.8823  -0.8509  -0.8439  -0.8297  -0.8078  -0.7983  -0.7903  -0.7887
    -0.7830  -0.7821  -0.7772  -0.7717  -0.7651  -0.7534  -0.7432  -0.7407
    -0.7361  -0.7334  -0.7297  -0.6981  -0.6971  -0.6885  -0.6797  -0.6663
    -0.6630  -0.6541  -0.6479  -0.5953  -0.5926  -0.5871  -0.5857  -0.5821
    -0.5795  -0.5725  -0.5579  -0.5545  -0.5514  -0.5482  -0.5475  -0.5315
    -0.5095  -0.5064  -0.5047  -0.4971  -0.4942  -0.4907  -0.4879  -0.4747
    -0.4716  -0.4693  -0.4498  -0.4290  -0.4271  -0.4209  -0.4156  -0.4079
    -0.3431  -0.3363  -0.3349  -0.3321  -0.3266  -0.3216  -0.2893  -0.2782
    -0.2770  -0.2482  -0.2448  -0.2122  -0.1268  -0.1165  -0.0209   0.3932
     0.3944   0.3994   0.4007   0.4588   0.4794   0.8429   0.8496   0.8881
     0.8920   1.0102   1.0853   1.1891   1.2047   1.4109   1.4372   2.0424
     2.0539   2.2028   2.2165   2.3388   2.3551   2.4444   2.4449   2.5984
     2.8336   2.8503   2.9640   3.1817   3.1937   3.2631   3.2692   3.3646
     3.3839   3.5752   3.5976   3.6413   3.8387   3.8433   3.9039   3.9103
     4.1570   4.1645   4.1780   4.4105   4.4462   4.4533   4.4989   4.8255
     4.8387   4.8555   4.9970   5.1706   5.1736   5.2157   5.2459   5.5001
     5.8169   5.9340   5.9498   5.9580   5.9714   6.0236   6.0357   6.1053
     6.1339   6.1632   6.1698   6.1949   6.2063   6.2150   6.2408   6.2514
     6.2626   6.4457   6.5644   6.6893   6.7610   6.7911   6.8886   6.9077
     6.9148   7.0192   7.0380

          k = 0.2500-0.4330-0.1111 (136853 PWs)   bands (ev):

   -19.1713  -7.3518  -6.3152  -5.9181  -5.9153  -5.2397  -4.9072  -4.9057
    -4.8695  -4.8657  -4.5070  -4.5057  -4.4087  -4.4070  -4.3936  -4.3706
    -4.3558  -4.2415  -4.2390  -4.2157  -4.1731  -4.1726  -4.1042  -4.1038
    -4.0984  -4.0968  -4.0764  -4.0734  -4.0677  -4.0100  -3.9983  -3.9695
    -3.9658  -3.9560  -3.9545  -3.9324  -3.9310  -3.9089  -3.9022  -3.9005
    -3.8747  -3.8235  -3.8220  -3.7752  -3.7720  -3.7208  -3.7175  -3.6649
    -3.6616  -3.6591  -3.6589  -3.6244  -3.5987  -3.5902  -3.5805  -3.5787
    -3.5763  -3.5533  -3.5473  -3.5395  -3.4889  -3.4809  -3.4754  -3.4510
    -3.4435  -3.4178  -3.3712  -3.3656  -3.3438  -3.3363  -3.3118  -3.3029
    -3.2945  -3.2765  -3.2212  -3.2191  -3.2028  -3.2010  -3.1546  -3.1467
    -3.1311  -3.1041  -3.0797  -3.0753  -3.0675  -3.0634  -3.0557  -3.0494
    -3.0470  -3.0400  -3.0304  -2.9945  -2.9583  -2.9543  -2.9446  -2.9409
    -2.9140  -2.9095  -2.9061  -2.8846  -2.8387  -2.8366  -2.8300  -2.7934
    -2.7841  -2.7730  -2.7716  -2.7483  -2.7418  -2.7124  -2.6829  -2.6735
    -2.6588  -2.6464  -2.6357  -2.6319  -2.5867  -2.5825  -2.5507  -2.5304
    -2.5262  -2.5058  -2.5025  -2.4929  -2.4904  -2.4817  -2.4627  -2.4599
    -2.4180  -2.4132  -2.4109  -2.3989  -2.3971  -2.3888  -2.3860  -2.3828
    -2.3793  -2.3756  -2.3699  -2.3674  -2.3595  -2.3551  -2.3353  -2.3214
    -2.3198  -2.3186  -2.3175  -2.3145  -2.3136  -2.2912  -2.2890  -2.2749
    -2.2703  -2.2530  -2.2516  -2.2461  -2.2434  -2.2411  -2.2399  -2.2294
    -2.2208  -2.2197  -2.2174  -2.2052  -2.1766  -2.1759  -2.1342  -2.1333
    -2.1140  -2.1118  -2.0876  -2.0818  -2.0580  -2.0546  -2.0425  -2.0341
    -2.0079  -1.9968  -1.9850  -1.9794  -1.9773  -1.9741  -1.9670  -1.9649
    -1.9426  -1.9373  -1.9310  -1.8863  -1.8659  -1.8627  -1.8604  -1.8584
    -1.8307  -1.8053  -1.8020  -1.7828  -1.7753  -1.7213  -1.7177  -1.6950
    -1.6719  -1.6671  -1.6278  -1.6066  -1.6036  -1.5949  -1.5913  -1.5850
    -1.5805  -1.5766  -1.5694  -1.5526  -1.5136  -1.5095  -1.5024  -1.5008
    -1.4892  -1.4832  -1.4537  -1.4475  -1.4356  -1.4332  -1.4290  -1.4235
    -1.4196  -1.4137  -1.4070  -1.3893  -1.3856  -1.3725  -1.3500  -1.3439
    -1.3354  -1.3196  -1.2990  -1.2729  -1.2586  -1.2456  -1.2300  -1.2271
    -1.2093  -1.1956  -1.1522  -1.1455  -1.1431  -1.1400  -1.1367  -1.1299
    -1.1220  -1.1119  -1.1020  -1.0722  -1.0649  -1.0403  -1.0361  -1.0315
    -1.0276  -1.0248  -1.0118  -1.0077  -1.0059  -1.0025  -0.9997  -0.9669
    -0.9635  -0.9628  -0.9536  -0.9363  -0.9331  -0.9239  -0.9041  -0.8953
    -0.8823  -0.8509  -0.8439  -0.8297  -0.8078  -0.7983  -0.7903  -0.7887
    -0.7830  -0.7821  -0.7772  -0.7717  -0.7651  -0.7534  -0.7432  -0.7407
    -0.7361  -0.7334  -0.7297  -0.6981  -0.6971  -0.6885  -0.6797  -0.6663
    -0.6630  -0.6541  -0.6479  -0.5953  -0.5926  -0.5872  -0.5857  -0.5821
    -0.5795  -0.5725  -0.5579  -0.5545  -0.5514  -0.5482  -0.5475  -0.5315
    -0.5095  -0.5064  -0.5046  -0.4971  -0.4942  -0.4907  -0.4879  -0.4747
    -0.4716  -0.4693  -0.4498  -0.4290  -0.4271  -0.4209  -0.4156  -0.4079
    -0.3431  -0.3363  -0.3349  -0.3321  -0.3266  -0.3216  -0.2893  -0.2782
    -0.2770  -0.2482  -0.2448  -0.2122  -0.1268  -0.1165  -0.0209   0.3932
     0.3944   0.3994   0.4007   0.4588   0.4794   0.8429   0.8496   0.8881
     0.8920   1.0102   1.0853   1.1891   1.2047   1.4109   1.4372   2.0424
     2.0539   2.2028   2.2165   2.3388   2.3551   2.4444   2.4449   2.5984
     2.8336   2.8503   2.9640   3.1817   3.1937   3.2631   3.2692   3.3646
     3.3839   3.5752   3.5976   3.6413   3.8387   3.8433   3.9039   3.9103
     4.1570   4.1645   4.1780   4.4105   4.4462   4.4533   4.4989   4.8255
     4.8387   4.8555   4.9970   5.1706   5.1736   5.2157   5.2459   5.5000
     5.8175   5.9341   5.9499   5.9580   5.9714   6.0237   6.0358   6.1056
     6.1335   6.1632   6.1670   6.1949   6.2054   6.2151   6.2415   6.2514
     6.2624   6.4455   6.5639   6.7042   6.7603   6.7924   6.8887   6.9079
     6.9158   7.0119   7.0227

          k = 0.5000 0.0000 0.1111 (136853 PWs)   bands (ev):

   -19.1713  -7.3518  -6.3152  -5.9179  -5.9156  -5.2396  -4.9080  -4.9049
    -4.8700  -4.8652  -4.5077  -4.5048  -4.4080  -4.4077  -4.3933  -4.3706
    -4.3557  -4.2421  -4.2392  -4.2161  -4.1735  -4.1721  -4.1045  -4.1036
    -4.0993  -4.0958  -4.0767  -4.0737  -4.0674  -4.0103  -3.9980  -3.9705
    -3.9651  -3.9557  -3.9543  -3.9320  -3.9313  -3.9089  -3.9017  -3.9009
    -3.8747  -3.8229  -3.8225  -3.7759  -3.7718  -3.7208  -3.7178  -3.6632
    -3.6622  -3.6591  -3.6589  -3.6249  -3.5961  -3.5914  -3.5797  -3.5776
    -3.5772  -3.5520  -3.5470  -3.5402  -3.4914  -3.4811  -3.4763  -3.4499
    -3.4447  -3.4205  -3.3705  -3.3603  -3.3433  -3.3366  -3.3113  -3.3079
    -3.2944  -3.2779  -3.2217  -3.2183  -3.2029  -3.2004  -3.1518  -3.1476
    -3.1308  -3.1052  -3.0761  -3.0734  -3.0655  -3.0624  -3.0587  -3.0514
    -3.0470  -3.0408  -3.0329  -2.9951  -2.9584  -2.9544  -2.9453  -2.9416
    -2.9150  -2.9096  -2.9052  -2.8847  -2.8388  -2.8362  -2.8270  -2.7939
    -2.7841  -2.7727  -2.7720  -2.7446  -2.7387  -2.7129  -2.6842  -2.6743
    -2.6586  -2.6466  -2.6387  -2.6334  -2.5863  -2.5828  -2.5499  -2.5315
    -2.5269  -2.5037  -2.5022  -2.4928  -2.4895  -2.4821  -2.4611  -2.4599
    -2.4167  -2.4134  -2.4116  -2.3989  -2.3969  -2.3877  -2.3867  -2.3836
    -2.3787  -2.3763  -2.3727  -2.3695  -2.3591  -2.3570  -2.3342  -2.3209
    -2.3199  -2.3189  -2.3178  -2.3153  -2.3120  -2.2895  -2.2883  -2.2729
    -2.2693  -2.2529  -2.2523  -2.2484  -2.2435  -2.2419  -2.2381  -2.2291
    -2.2226  -2.2193  -2.2161  -2.2054  -2.1769  -2.1756  -2.1339  -2.1330
    -2.1150  -2.1121  -2.0897  -2.0824  -2.0567  -2.0543  -2.0383  -2.0345
    -2.0121  -1.9980  -1.9857  -1.9809  -1.9773  -1.9734  -1.9677  -1.9649
    -1.9415  -1.9344  -1.9313  -1.8854  -1.8663  -1.8641  -1.8600  -1.8579
    -1.8354  -1.8057  -1.8017  -1.7814  -1.7753  -1.7209  -1.7176  -1.6923
    -1.6733  -1.6672  -1.6262  -1.6058  -1.6021  -1.5954  -1.5877  -1.5840
    -1.5794  -1.5766  -1.5692  -1.5461  -1.5146  -1.5115  -1.5019  -1.5003
    -1.4859  -1.4825  -1.4692  -1.4482  -1.4360  -1.4317  -1.4305  -1.4246
    -1.4205  -1.4138  -1.4064  -1.3889  -1.3865  -1.3628  -1.3513  -1.3388
    -1.3353  -1.3195  -1.3006  -1.2888  -1.2582  -1.2491  -1.2312  -1.2280
    -1.2042  -1.1929  -1.1516  -1.1456  -1.1435  -1.1408  -1.1370  -1.1307
    -1.1193  -1.1123  -1.0981  -1.0729  -1.0648  -1.0418  -1.0352  -1.0320
    -1.0280  -1.0251  -1.0123  -1.0078  -1.0062  -1.0031  -0.9952  -0.9658
    -0.9647  -0.9621  -0.9524  -0.9354  -0.9292  -0.9269  -0.9040  -0.8953
    -0.8849  -0.8511  -0.8440  -0.8319  -0.8066  -0.8000  -0.7934  -0.7879
    -0.7826  -0.7816  -0.7774  -0.7731  -0.7659  -0.7512  -0.7439  -0.7399
    -0.7357  -0.7347  -0.7272  -0.6980  -0.6967  -0.6883  -0.6819  -0.6671
    -0.6632  -0.6528  -0.6459  -0.5953  -0.5923  -0.5880  -0.5849  -0.5828
    -0.5800  -0.5727  -0.5581  -0.5548  -0.5504  -0.5488  -0.5469  -0.5330
    -0.5112  -0.5059  -0.5041  -0.4966  -0.4940  -0.4913  -0.4881  -0.4765
    -0.4715  -0.4696  -0.4463  -0.4291  -0.4278  -0.4209  -0.4148  -0.4110
    -0.3423  -0.3364  -0.3351  -0.3317  -0.3260  -0.3212  -0.2890  -0.2779
    -0.2772  -0.2468  -0.2446  -0.2155  -0.1219  -0.1182  -0.0190   0.3933
     0.3942   0.3997   0.4004   0.4590   0.4768   0.8425   0.8489   0.8881
     0.8921   1.0105   1.0864   1.1901   1.2063   1.4094   1.4387   2.0421
     2.0526   2.2031   2.2166   2.3366   2.3573   2.4437   2.4456   2.5985
     2.8341   2.8508   2.9632   3.1807   3.1945   3.2625   3.2691   3.3629
     3.3840   3.5686   3.6046   3.6359   3.8390   3.8434   3.9027   3.9140
     4.1576   4.1644   4.1783   4.4098   4.4467   4.4568   4.4960   4.8259
     4.8349   4.8619   4.9986   5.1708   5.1738   5.2075   5.2590   5.5053
     5.7976   5.9461   5.9551   5.9586   5.9669   6.0252   6.0323   6.1018
     6.1384   6.1460   6.1710   6.1957   6.2030   6.2105   6.2356   6.2535
     6.2715   6.4437   6.5773   6.6904   6.7578   6.8127   6.8957   6.9027
     6.9133   7.0145   7.0264

          k =-0.5000 0.0000 0.1111 (136853 PWs)   bands (ev):

   -19.1713  -7.3518  -6.3152  -5.9179  -5.9156  -5.2396  -4.9080  -4.9049
    -4.8700  -4.8652  -4.5077  -4.5048  -4.4080  -4.4077  -4.3933  -4.3706
    -4.3557  -4.2421  -4.2392  -4.2161  -4.1735  -4.1721  -4.1045  -4.1036
    -4.0993  -4.0958  -4.0767  -4.0737  -4.0674  -4.0103  -3.9980  -3.9705
    -3.9651  -3.9557  -3.9543  -3.9320  -3.9313  -3.9089  -3.9017  -3.9008
    -3.8747  -3.8229  -3.8225  -3.7759  -3.7718  -3.7208  -3.7178  -3.6631
    -3.6622  -3.6591  -3.6589  -3.6249  -3.5961  -3.5914  -3.5797  -3.5776
    -3.5772  -3.5520  -3.5470  -3.5402  -3.4914  -3.4811  -3.4763  -3.4499
    -3.4447  -3.4205  -3.3705  -3.3603  -3.3433  -3.3366  -3.3113  -3.3079
    -3.2944  -3.2779  -3.2217  -3.2183  -3.2029  -3.2004  -3.1518  -3.1476
    -3.1308  -3.1052  -3.0761  -3.0734  -3.0655  -3.0624  -3.0587  -3.0514
    -3.0470  -3.0408  -3.0329  -2.9951  -2.9584  -2.9544  -2.9453  -2.9416
    -2.9150  -2.9096  -2.9052  -2.8847  -2.8388  -2.8362  -2.8271  -2.7939
    -2.7841  -2.7727  -2.7720  -2.7446  -2.7387  -2.7129  -2.6842  -2.6743
    -2.6586  -2.6466  -2.6387  -2.6334  -2.5863  -2.5828  -2.5499  -2.5315
    -2.5269  -2.5037  -2.5022  -2.4928  -2.4895  -2.4821  -2.4611  -2.4599
    -2.4167  -2.4134  -2.4116  -2.3989  -2.3969  -2.3877  -2.3867  -2.3836
    -2.3787  -2.3763  -2.3727  -2.3695  -2.3591  -2.3570  -2.3342  -2.3209
    -2.3199  -2.3189  -2.3178  -2.3153  -2.3120  -2.2895  -2.2883  -2.2729
    -2.2693  -2.2529  -2.2523  -2.2484  -2.2435  -2.2419  -2.2381  -2.2291
    -2.2226  -2.2193  -2.2161  -2.2054  -2.1769  -2.1756  -2.1339  -2.1330
    -2.1150  -2.1121  -2.0897  -2.0824  -2.0567  -2.0543  -2.0383  -2.0345
    -2.0121  -1.9980  -1.9857  -1.9809  -1.9773  -1.9734  -1.9677  -1.9649
    -1.9415  -1.9344  -1.9313  -1.8854  -1.8663  -1.8641  -1.8600  -1.8579
    -1.8354  -1.8057  -1.8017  -1.7814  -1.7753  -1.7209  -1.7176  -1.6923
    -1.6733  -1.6672  -1.6262  -1.6058  -1.6021  -1.5954  -1.5876  -1.5840
    -1.5794  -1.5766  -1.5692  -1.5461  -1.5146  -1.5115  -1.5019  -1.5003
    -1.4859  -1.4825  -1.4692  -1.4482  -1.4360  -1.4317  -1.4305  -1.4246
    -1.4205  -1.4138  -1.4064  -1.3889  -1.3865  -1.3628  -1.3513  -1.3388
    -1.3353  -1.3195  -1.3006  -1.2888  -1.2582  -1.2491  -1.2312  -1.2280
    -1.2042  -1.1929  -1.1516  -1.1456  -1.1435  -1.1408  -1.1370  -1.1307
    -1.1193  -1.1123  -1.0981  -1.0729  -1.0648  -1.0418  -1.0352  -1.0320
    -1.0280  -1.0251  -1.0123  -1.0078  -1.0062  -1.0031  -0.9952  -0.9658
    -0.9647  -0.9621  -0.9524  -0.9354  -0.9292  -0.9269  -0.9040  -0.8953
    -0.8849  -0.8511  -0.8440  -0.8319  -0.8066  -0.8000  -0.7934  -0.7880
    -0.7826  -0.7816  -0.7774  -0.7731  -0.7659  -0.7512  -0.7439  -0.7399
    -0.7357  -0.7347  -0.7272  -0.6980  -0.6967  -0.6883  -0.6819  -0.6671
    -0.6632  -0.6528  -0.6459  -0.5953  -0.5923  -0.5880  -0.5849  -0.5828
    -0.5800  -0.5727  -0.5581  -0.5548  -0.5504  -0.5488  -0.5469  -0.5330
    -0.5112  -0.5059  -0.5041  -0.4966  -0.4940  -0.4913  -0.4881  -0.4765
    -0.4715  -0.4696  -0.4463  -0.4291  -0.4278  -0.4209  -0.4148  -0.4110
    -0.3423  -0.3364  -0.3351  -0.3317  -0.3260  -0.3212  -0.2890  -0.2779
    -0.2772  -0.2468  -0.2446  -0.2155  -0.1219  -0.1182  -0.0190   0.3933
     0.3942   0.3997   0.4004   0.4590   0.4768   0.8425   0.8489   0.8881
     0.8921   1.0105   1.0864   1.1901   1.2063   1.4094   1.4387   2.0421
     2.0526   2.2031   2.2166   2.3366   2.3573   2.4437   2.4456   2.5985
     2.8341   2.8508   2.9632   3.1807   3.1945   3.2625   3.2691   3.3629
     3.3840   3.5686   3.6046   3.6359   3.8390   3.8434   3.9027   3.9140
     4.1576   4.1644   4.1783   4.4098   4.4467   4.4568   4.4960   4.8259
     4.8349   4.8619   4.9986   5.1708   5.1738   5.2075   5.2590   5.5053
     5.7976   5.9462   5.9551   5.9585   5.9668   6.0253   6.0323   6.1017
     6.1385   6.1464   6.1708   6.1956   6.2028   6.2102   6.2358   6.2535
     6.2715   6.4437   6.5769   6.6905   6.7588   6.8150   6.8960   6.9037
     6.9137   7.0146   7.0251

          k =-0.2500 0.1443 0.1111 (136898 PWs)   bands (ev):

   -19.1713  -7.3521  -6.5243  -5.7342  -5.4431  -5.3853  -5.3834  -4.8469
    -4.8459  -4.7154  -4.7141  -4.5610  -4.5350  -4.4670  -4.4359  -4.4324
    -4.4004  -4.3993  -4.2716  -4.2309  -4.2292  -4.1702  -4.1500  -4.1484
    -4.0469  -4.0463  -4.0105  -4.0101  -4.0093  -3.9851  -3.9623  -3.9610
    -3.8639  -3.8566  -3.8539  -3.8358  -3.8175  -3.8168  -3.8068  -3.8057
    -3.7951  -3.7627  -3.7624  -3.7603  -3.7601  -3.7320  -3.7296  -3.7120
    -3.7103  -3.7053  -3.6661  -3.6577  -3.6245  -3.6154  -3.6105  -3.6018
    -3.6007  -3.5288  -3.5274  -3.5029  -3.4943  -3.4900  -3.4314  -3.4218
    -3.4141  -3.4058  -3.4048  -3.3795  -3.3782  -3.3749  -3.3558  -3.2223
    -3.2199  -3.2006  -3.1935  -3.1775  -3.1748  -3.1662  -3.1496  -3.1484
    -3.0997  -3.0984  -3.0847  -3.0813  -3.0616  -3.0161  -3.0102  -2.9960
    -2.9902  -2.9881  -2.9507  -2.9474  -2.9390  -2.9373  -2.9257  -2.9231
    -2.8875  -2.8859  -2.8639  -2.8625  -2.8604  -2.8578  -2.8544  -2.7849
    -2.7807  -2.7774  -2.7494  -2.7478  -2.6889  -2.6828  -2.6626  -2.6578
    -2.6474  -2.6448  -2.6372  -2.6111  -2.6084  -2.5988  -2.5858  -2.5644
    -2.5565  -2.5550  -2.5376  -2.5356  -2.5284  -2.5238  -2.5224  -2.5184
    -2.5097  -2.4644  -2.4374  -2.4334  -2.4184  -2.4061  -2.4017  -2.3978
    -2.3930  -2.3896  -2.3869  -2.3627  -2.3592  -2.3561  -2.3500  -2.3472
    -2.3346  -2.3127  -2.3069  -2.3053  -2.3024  -2.3017  -2.2551  -2.2307
    -2.2269  -2.2236  -2.2195  -2.2074  -2.2032  -2.1961  -2.1790  -2.1783
    -2.1542  -2.1470  -2.1450  -2.1347  -2.1269  -2.1240  -2.1009  -2.0923
    -2.0589  -2.0514  -2.0464  -2.0436  -2.0425  -2.0394  -2.0353  -2.0336
    -2.0309  -2.0293  -2.0225  -2.0129  -2.0067  -1.9031  -1.8813  -1.8750
    -1.8458  -1.8406  -1.8343  -1.8331  -1.8252  -1.8185  -1.8170  -1.8153
    -1.8118  -1.7922  -1.7894  -1.7830  -1.7794  -1.7747  -1.7680  -1.7484
    -1.7469  -1.7189  -1.7181  -1.7005  -1.6908  -1.6783  -1.6716  -1.6549
    -1.6495  -1.6463  -1.6310  -1.6202  -1.6147  -1.6101  -1.6078  -1.5926
    -1.5834  -1.5727  -1.5638  -1.5408  -1.5316  -1.5270  -1.4943  -1.4721
    -1.4690  -1.4575  -1.4565  -1.4312  -1.4289  -1.4038  -1.3990  -1.3955
    -1.3836  -1.3561  -1.3537  -1.3379  -1.3347  -1.3194  -1.3111  -1.3097
    -1.2847  -1.2783  -1.2748  -1.2350  -1.2153  -1.2120  -1.2059  -1.1995
    -1.1844  -1.1820  -1.1712  -1.1669  -1.1529  -1.1394  -1.1102  -1.1058
    -1.0971  -1.0679  -1.0615  -1.0566  -1.0488  -1.0474  -1.0462  -1.0440
    -1.0262  -1.0226  -1.0044  -0.9997  -0.9868  -0.9846  -0.9832  -0.9663
    -0.9634  -0.9431  -0.9291  -0.9203  -0.8856  -0.8303  -0.8200  -0.8119
    -0.8107  -0.8052  -0.7994  -0.7914  -0.7794  -0.7673  -0.7600  -0.7490
    -0.7462  -0.7415  -0.7355  -0.7188  -0.7138  -0.7059  -0.6997  -0.6322
    -0.6299  -0.5987  -0.5936  -0.5919  -0.5864  -0.5833  -0.5825  -0.5782
    -0.5701  -0.5637  -0.5413  -0.5272  -0.5061  -0.4978  -0.4955  -0.4847
    -0.4795  -0.4757  -0.4710  -0.4696  -0.4673  -0.4565  -0.4519  -0.4468
    -0.4384  -0.4170  -0.4132  -0.4076  -0.4003  -0.3983  -0.3813  -0.3504
    -0.3470  -0.3406  -0.3335  -0.2725  -0.2713  -0.2392  -0.2370  -0.1819
    -0.1793  -0.1766  -0.1553  -0.1505   0.0761   0.1023   0.4237   0.4239
     0.5133   0.5338   0.7119   0.7413   0.7464   0.8682   0.8745   1.3032
     1.3050   1.3215   1.5867   1.6139   1.6153   1.8879   1.9077   1.9657
     1.9691   1.9932   2.0111   2.2218   2.2257   2.3151   2.3161   2.3934
     2.4515   2.4751   2.6193   2.7214   3.1513   3.1556   3.1597   3.1659
     3.2100   3.2183   3.5068   3.5091   3.7854   3.7996   3.9011   4.2049
     4.2403   4.2504   4.4557   4.4900   4.5423   4.5495   4.6398   4.7565
     4.7624   4.8739   4.8771   5.1742   5.2398   5.2513   5.3485   5.4349
     5.4575   5.6281   5.6353   5.6606   5.6653   5.7179   5.7275   5.7669
     5.8792   6.0681   6.2797   6.3239   6.3623   6.4558   6.4655   6.4792
     6.4846   6.5384   6.6601   6.7148   6.7253   6.8493   6.9296   6.9454
     6.9762   7.0413   7.0741

          k =-0.2500-0.1443-0.1111 (136898 PWs)   bands (ev):

   -19.1713  -7.3521  -6.5244  -5.7343  -5.4431  -5.3853  -5.3833  -4.8469
    -4.8459  -4.7158  -4.7138  -4.5610  -4.5350  -4.4668  -4.4359  -4.4323
    -4.4008  -4.3991  -4.2717  -4.2302  -4.2297  -4.1702  -4.1500  -4.1484
    -4.0470  -4.0464  -4.0107  -4.0100  -4.0092  -3.9850  -3.9627  -3.9606
    -3.8631  -3.8557  -3.8544  -3.8353  -3.8174  -3.8169  -3.8073  -3.8054
    -3.7946  -3.7637  -3.7622  -3.7607  -3.7599  -3.7317  -3.7306  -3.7119
    -3.7102  -3.7031  -3.6690  -3.6582  -3.6249  -3.6150  -3.6101  -3.6016
    -3.6008  -3.5287  -3.5274  -3.5010  -3.4950  -3.4899  -3.4369  -3.4217
    -3.4101  -3.4060  -3.4038  -3.3792  -3.3780  -3.3758  -3.3581  -3.2201
    -3.2196  -3.2007  -3.1952  -3.1772  -3.1746  -3.1655  -3.1500  -3.1484
    -3.0992  -3.0983  -3.0833  -3.0805  -3.0617  -3.0157  -3.0133  -2.9954
    -2.9898  -2.9879  -2.9496  -2.9472  -2.9398  -2.9382  -2.9264  -2.9225
    -2.8869  -2.8856  -2.8652  -2.8623  -2.8600  -2.8594  -2.8539  -2.7841
    -2.7805  -2.7770  -2.7492  -2.7478  -2.6933  -2.6838  -2.6588  -2.6581
    -2.6465  -2.6449  -2.6370  -2.6126  -2.6082  -2.5986  -2.5832  -2.5644
    -2.5569  -2.5543  -2.5382  -2.5353  -2.5282  -2.5243  -2.5225  -2.5189
    -2.5098  -2.4644  -2.4377  -2.4348  -2.4204  -2.4066  -2.4016  -2.3976
    -2.3922  -2.3898  -2.3872  -2.3634  -2.3582  -2.3565  -2.3481  -2.3479
    -2.3347  -2.3083  -2.3073  -2.3058  -2.3024  -2.3016  -2.2555  -2.2306
    -2.2279  -2.2239  -2.2199  -2.2077  -2.2033  -2.1963  -2.1787  -2.1784
    -2.1547  -2.1477  -2.1450  -2.1358  -2.1274  -2.1248  -2.1018  -2.0919
    -2.0590  -2.0537  -2.0464  -2.0447  -2.0416  -2.0388  -2.0354  -2.0331
    -2.0306  -2.0279  -2.0221  -2.0108  -2.0071  -1.9019  -1.8817  -1.8632
    -1.8474  -1.8411  -1.8359  -1.8333  -1.8309  -1.8189  -1.8163  -1.8144
    -1.8119  -1.7929  -1.7890  -1.7852  -1.7774  -1.7730  -1.7682  -1.7501
    -1.7472  -1.7213  -1.7186  -1.6975  -1.6912  -1.6777  -1.6703  -1.6516
    -1.6496  -1.6460  -1.6312  -1.6186  -1.6158  -1.6100  -1.6077  -1.5915
    -1.5831  -1.5718  -1.5655  -1.5465  -1.5308  -1.5260  -1.4836  -1.4746
    -1.4676  -1.4577  -1.4562  -1.4320  -1.4305  -1.4180  -1.3997  -1.3954
    -1.3745  -1.3582  -1.3526  -1.3391  -1.3346  -1.3313  -1.3105  -1.3085
    -1.2832  -1.2768  -1.2747  -1.2428  -1.2133  -1.2089  -1.2018  -1.1973
    -1.1846  -1.1777  -1.1710  -1.1576  -1.1509  -1.1388  -1.1142  -1.1102
    -1.0955  -1.0686  -1.0601  -1.0547  -1.0499  -1.0482  -1.0456  -1.0429
    -1.0377  -1.0261  -1.0021  -0.9996  -0.9867  -0.9845  -0.9821  -0.9663
    -0.9620  -0.9417  -0.9317  -0.9197  -0.8884  -0.8307  -0.8180  -0.8119
    -0.8107  -0.8020  -0.7995  -0.7911  -0.7793  -0.7670  -0.7600  -0.7556
    -0.7459  -0.7413  -0.7369  -0.7194  -0.7126  -0.7053  -0.6965  -0.6312
    -0.6303  -0.5974  -0.5933  -0.5909  -0.5859  -0.5833  -0.5827  -0.5774
    -0.5712  -0.5640  -0.5389  -0.5271  -0.5132  -0.4971  -0.4951  -0.4848
    -0.4798  -0.4747  -0.4708  -0.4700  -0.4674  -0.4575  -0.4516  -0.4468
    -0.4370  -0.4169  -0.4135  -0.4094  -0.4007  -0.3949  -0.3812  -0.3505
    -0.3476  -0.3403  -0.3378  -0.2727  -0.2683  -0.2389  -0.2372  -0.1810
    -0.1800  -0.1767  -0.1553  -0.1480   0.0778   0.0968   0.4234   0.4240
     0.5152   0.5322   0.7097   0.7352   0.7558   0.8691   0.8739   1.3037
     1.3050   1.3204   1.5887   1.6134   1.6151   1.8892   1.9059   1.9666
     1.9690   1.9955   2.0091   2.2235   2.2253   2.3145   2.3161   2.3937
     2.4529   2.4718   2.6200   2.7230   3.1498   3.1561   3.1592   3.1648
     3.2131   3.2165   3.5067   3.5084   3.7876   3.7976   3.9007   4.2050
     4.2435   4.2492   4.4568   4.4871   4.5426   4.5534   4.6393   4.7552
     4.7641   4.8712   4.8752   5.1725   5.2371   5.2547   5.3473   5.4357
     5.4588   5.6318   5.6352   5.6613   5.6641   5.7187   5.7248   5.7620
     5.8784   6.0594   6.2825   6.3264   6.3761   6.4626   6.4677   6.4763
     6.4811   6.5354   6.6544   6.7105   6.7223   6.8395   6.9330   6.9581
     6.9703   7.0408   7.0799

          k = 0.2500 0.1443-0.1111 (136898 PWs)   bands (ev):

   -19.1713  -7.3521  -6.5244  -5.7343  -5.4431  -5.3853  -5.3833  -4.8469
    -4.8459  -4.7158  -4.7138  -4.5610  -4.5350  -4.4668  -4.4359  -4.4323
    -4.4008  -4.3991  -4.2717  -4.2302  -4.2297  -4.1702  -4.1500  -4.1484
    -4.0470  -4.0464  -4.0107  -4.0100  -4.0092  -3.9850  -3.9627  -3.9606
    -3.8631  -3.8557  -3.8544  -3.8353  -3.8174  -3.8169  -3.8073  -3.8054
    -3.7946  -3.7637  -3.7622  -3.7607  -3.7599  -3.7317  -3.7306  -3.7119
    -3.7102  -3.7031  -3.6690  -3.6582  -3.6249  -3.6150  -3.6101  -3.6016
    -3.6008  -3.5287  -3.5274  -3.5010  -3.4950  -3.4899  -3.4369  -3.4217
    -3.4101  -3.4060  -3.4038  -3.3792  -3.3780  -3.3758  -3.3581  -3.2201
    -3.2196  -3.2007  -3.1952  -3.1772  -3.1746  -3.1655  -3.1500  -3.1484
    -3.0992  -3.0983  -3.0833  -3.0805  -3.0617  -3.0157  -3.0133  -2.9954
    -2.9898  -2.9879  -2.9496  -2.9472  -2.9398  -2.9382  -2.9264  -2.9224
    -2.8869  -2.8856  -2.8652  -2.8623  -2.8600  -2.8594  -2.8539  -2.7841
    -2.7805  -2.7770  -2.7492  -2.7478  -2.6933  -2.6838  -2.6588  -2.6582
    -2.6465  -2.6449  -2.6370  -2.6126  -2.6082  -2.5986  -2.5832  -2.5644
    -2.5569  -2.5543  -2.5382  -2.5353  -2.5282  -2.5243  -2.5225  -2.5189
    -2.5098  -2.4644  -2.4378  -2.4348  -2.4204  -2.4066  -2.4016  -2.3976
    -2.3922  -2.3898  -2.3872  -2.3634  -2.3582  -2.3565  -2.3481  -2.3479
    -2.3347  -2.3083  -2.3073  -2.3058  -2.3024  -2.3016  -2.2555  -2.2305
    -2.2279  -2.2239  -2.2199  -2.2077  -2.2033  -2.1963  -2.1787  -2.1784
    -2.1547  -2.1476  -2.1450  -2.1358  -2.1274  -2.1248  -2.1018  -2.0919
    -2.0590  -2.0537  -2.0464  -2.0447  -2.0416  -2.0388  -2.0354  -2.0331
    -2.0306  -2.0279  -2.0221  -2.0108  -2.0071  -1.9019  -1.8817  -1.8632
    -1.8474  -1.8411  -1.8359  -1.8333  -1.8309  -1.8189  -1.8163  -1.8144
    -1.8119  -1.7929  -1.7890  -1.7852  -1.7774  -1.7730  -1.7682  -1.7501
    -1.7472  -1.7213  -1.7186  -1.6975  -1.6912  -1.6777  -1.6703  -1.6516
    -1.6496  -1.6460  -1.6312  -1.6186  -1.6158  -1.6100  -1.6077  -1.5915
    -1.5831  -1.5718  -1.5655  -1.5465  -1.5309  -1.5260  -1.4836  -1.4746
    -1.4676  -1.4577  -1.4562  -1.4320  -1.4305  -1.4180  -1.3997  -1.3954
    -1.3745  -1.3582  -1.3526  -1.3391  -1.3346  -1.3313  -1.3105  -1.3085
    -1.2832  -1.2768  -1.2747  -1.2428  -1.2133  -1.2089  -1.2018  -1.1973
    -1.1846  -1.1777  -1.1710  -1.1576  -1.1509  -1.1388  -1.1142  -1.1102
    -1.0955  -1.0686  -1.0601  -1.0547  -1.0499  -1.0482  -1.0456  -1.0429
    -1.0377  -1.0261  -1.0021  -0.9996  -0.9867  -0.9845  -0.9821  -0.9663
    -0.9620  -0.9417  -0.9317  -0.9197  -0.8884  -0.8307  -0.8180  -0.8119
    -0.8107  -0.8020  -0.7995  -0.7911  -0.7793  -0.7670  -0.7600  -0.7556
    -0.7459  -0.7413  -0.7369  -0.7194  -0.7126  -0.7053  -0.6965  -0.6312
    -0.6303  -0.5974  -0.5933  -0.5909  -0.5859  -0.5833  -0.5827  -0.5774
    -0.5712  -0.5640  -0.5388  -0.5271  -0.5132  -0.4971  -0.4951  -0.4848
    -0.4798  -0.4746  -0.4708  -0.4700  -0.4674  -0.4576  -0.4516  -0.4468
    -0.4370  -0.4169  -0.4135  -0.4094  -0.4007  -0.3949  -0.3812  -0.3505
    -0.3476  -0.3403  -0.3378  -0.2727  -0.2683  -0.2389  -0.2372  -0.1810
    -0.1800  -0.1767  -0.1553  -0.1480   0.0778   0.0968   0.4234   0.4240
     0.5152   0.5322   0.7097   0.7352   0.7558   0.8691   0.8739   1.3037
     1.3050   1.3204   1.5887   1.6134   1.6151   1.8892   1.9059   1.9666
     1.9690   1.9955   2.0091   2.2235   2.2253   2.3145   2.3161   2.3937
     2.4529   2.4718   2.6200   2.7230   3.1498   3.1561   3.1592   3.1648
     3.2131   3.2165   3.5067   3.5084   3.7876   3.7976   3.9007   4.2050
     4.2435   4.2492   4.4568   4.4871   4.5426   4.5534   4.6393   4.7552
     4.7641   4.8712   4.8752   5.1725   5.2371   5.2547   5.3473   5.4356
     5.4590   5.6318   5.6352   5.6613   5.6641   5.7187   5.7248   5.7624
     5.8770   6.0617   6.2830   6.3266   6.3757   6.4627   6.4680   6.4756
     6.4812   6.5316   6.6514   6.7092   6.7221   6.8414   6.9343   6.9579
     6.9699   7.0449   7.0854

          k = 0.0000-0.2887 0.1111 (136898 PWs)   bands (ev):

   -19.1713  -7.3521  -6.5244  -5.7344  -5.4431  -5.3851  -5.3835  -4.8467
    -4.8460  -4.7158  -4.7141  -4.5610  -4.5350  -4.4673  -4.4351  -4.4329
    -4.3999  -4.3996  -4.2717  -4.2307  -4.2292  -4.1699  -4.1499  -4.1488
    -4.0471  -4.0462  -4.0108  -4.0100  -4.0092  -3.9851  -3.9614  -3.9612
    -3.8642  -3.8554  -3.8538  -3.8353  -3.8176  -3.8171  -3.8069  -3.8052
    -3.7945  -3.7638  -3.7625  -3.7616  -3.7598  -3.7324  -3.7304  -3.7133
    -3.7099  -3.7038  -3.6639  -3.6606  -3.6256  -3.6130  -3.6090  -3.6015
    -3.6007  -3.5285  -3.5275  -3.5034  -3.4937  -3.4912  -3.4425  -3.4215
    -3.4080  -3.4059  -3.3974  -3.3789  -3.3782  -3.3761  -3.3611  -3.2201
    -3.2185  -3.2026  -3.1954  -3.1757  -3.1746  -3.1669  -3.1510  -3.1491
    -3.0993  -3.0981  -3.0826  -3.0783  -3.0607  -3.0192  -3.0147  -2.9926
    -2.9894  -2.9877  -2.9502  -2.9478  -2.9402  -2.9387  -2.9243  -2.9194
    -2.8865  -2.8859  -2.8697  -2.8632  -2.8600  -2.8598  -2.8537  -2.7827
    -2.7805  -2.7750  -2.7492  -2.7480  -2.6970  -2.6856  -2.6588  -2.6555
    -2.6461  -2.6457  -2.6369  -2.6129  -2.6086  -2.5984  -2.5818  -2.5632
    -2.5578  -2.5533  -2.5371  -2.5363  -2.5267  -2.5240  -2.5222  -2.5188
    -2.5098  -2.4645  -2.4381  -2.4362  -2.4180  -2.4066  -2.4021  -2.3977
    -2.3922  -2.3893  -2.3878  -2.3650  -2.3593  -2.3570  -2.3489  -2.3475
    -2.3341  -2.3085  -2.3067  -2.3037  -2.3028  -2.3016  -2.2560  -2.2319
    -2.2257  -2.2243  -2.2193  -2.2117  -2.2066  -2.1964  -2.1788  -2.1785
    -2.1538  -2.1458  -2.1448  -2.1361  -2.1271  -2.1269  -2.0966  -2.0924
    -2.0587  -2.0526  -2.0464  -2.0453  -2.0419  -2.0381  -2.0352  -2.0331
    -2.0303  -2.0268  -2.0254  -2.0101  -2.0075  -1.9058  -1.8835  -1.8573
    -1.8471  -1.8427  -1.8355  -1.8336  -1.8295  -1.8194  -1.8156  -1.8130
    -1.8111  -1.7980  -1.7887  -1.7851  -1.7769  -1.7720  -1.7691  -1.7518
    -1.7475  -1.7237  -1.7196  -1.6923  -1.6864  -1.6790  -1.6682  -1.6540
    -1.6494  -1.6464  -1.6311  -1.6237  -1.6155  -1.6098  -1.6079  -1.5872
    -1.5821  -1.5748  -1.5672  -1.5453  -1.5319  -1.5225  -1.4853  -1.4775
    -1.4660  -1.4582  -1.4566  -1.4318  -1.4294  -1.4153  -1.3995  -1.3961
    -1.3725  -1.3598  -1.3547  -1.3367  -1.3346  -1.3259  -1.3122  -1.3081
    -1.2870  -1.2762  -1.2746  -1.2435  -1.2141  -1.2085  -1.2040  -1.1929
    -1.1861  -1.1759  -1.1708  -1.1622  -1.1513  -1.1389  -1.1122  -1.1093
    -1.0964  -1.0676  -1.0622  -1.0553  -1.0510  -1.0478  -1.0471  -1.0438
    -1.0342  -1.0260  -1.0042  -0.9995  -0.9864  -0.9845  -0.9822  -0.9670
    -0.9588  -0.9431  -0.9307  -0.9197  -0.8848  -0.8307  -0.8192  -0.8116
    -0.8108  -0.8033  -0.8001  -0.7893  -0.7791  -0.7682  -0.7617  -0.7528
    -0.7460  -0.7419  -0.7359  -0.7183  -0.7137  -0.7059  -0.6977  -0.6322
    -0.6298  -0.5984  -0.5933  -0.5913  -0.5858  -0.5840  -0.5826  -0.5779
    -0.5711  -0.5627  -0.5404  -0.5271  -0.5108  -0.4983  -0.4945  -0.4846
    -0.4808  -0.4750  -0.4703  -0.4694  -0.4668  -0.4569  -0.4515  -0.4469
    -0.4379  -0.4169  -0.4133  -0.4074  -0.4002  -0.3975  -0.3811  -0.3500
    -0.3473  -0.3405  -0.3358  -0.2718  -0.2709  -0.2389  -0.2372  -0.1815
    -0.1797  -0.1765  -0.1551  -0.1509   0.0777   0.1010   0.4234   0.4239
     0.5154   0.5326   0.7084   0.7411   0.7484   0.8689   0.8731   1.3033
     1.3056   1.3198   1.5879   1.6140   1.6153   1.8905   1.9042   1.9661
     1.9703   1.9956   2.0087   2.2230   2.2265   2.3144   2.3162   2.3946
     2.4534   2.4706   2.6185   2.7234   3.1490   3.1565   3.1599   3.1655
     3.2128   3.2186   3.5076   3.5093   3.7889   3.7975   3.9018   4.2040
     4.2437   4.2480   4.4675   4.4744   4.5408   4.5480   4.6434   4.7542
     4.7595   4.8744   4.8781   5.1746   5.2412   5.2444   5.3596   5.4188
     5.4586   5.6248   5.6356   5.6615   5.6649   5.7160   5.7287   5.7715
     5.8812   6.0767   6.2809   6.3261   6.3529   6.4582   6.4689   6.4791
     6.4833   6.5297   6.6568   6.7081   6.7213   6.8606   6.9184   6.9628
     6.9696   7.0428   7.0717

          k = 0.0000 0.2887 0.1111 (136898 PWs)   bands (ev):

   -19.1713  -7.3521  -6.5244  -5.7344  -5.4431  -5.3851  -5.3835  -4.8467
    -4.8460  -4.7158  -4.7141  -4.5610  -4.5350  -4.4673  -4.4351  -4.4329
    -4.3999  -4.3996  -4.2717  -4.2307  -4.2292  -4.1699  -4.1499  -4.1488
    -4.0471  -4.0462  -4.0108  -4.0100  -4.0092  -3.9851  -3.9614  -3.9612
    -3.8642  -3.8554  -3.8538  -3.8353  -3.8176  -3.8171  -3.8069  -3.8052
    -3.7945  -3.7638  -3.7625  -3.7616  -3.7598  -3.7324  -3.7304  -3.7133
    -3.7099  -3.7038  -3.6639  -3.6606  -3.6256  -3.6130  -3.6090  -3.6015
    -3.6007  -3.5285  -3.5275  -3.5034  -3.4937  -3.4912  -3.4425  -3.4215
    -3.4080  -3.4059  -3.3974  -3.3789  -3.3782  -3.3761  -3.3611  -3.2201
    -3.2185  -3.2026  -3.1954  -3.1757  -3.1746  -3.1669  -3.1510  -3.1491
    -3.0993  -3.0981  -3.0826  -3.0783  -3.0607  -3.0192  -3.0147  -2.9926
    -2.9894  -2.9877  -2.9502  -2.9478  -2.9402  -2.9387  -2.9243  -2.9194
    -2.8865  -2.8859  -2.8697  -2.8632  -2.8600  -2.8598  -2.8537  -2.7827
    -2.7805  -2.7750  -2.7492  -2.7480  -2.6970  -2.6856  -2.6588  -2.6555
    -2.6461  -2.6457  -2.6370  -2.6129  -2.6086  -2.5984  -2.5818  -2.5632
    -2.5578  -2.5533  -2.5371  -2.5363  -2.5267  -2.5240  -2.5222  -2.5188
    -2.5098  -2.4645  -2.4381  -2.4362  -2.4180  -2.4066  -2.4021  -2.3977
    -2.3922  -2.3893  -2.3878  -2.3650  -2.3593  -2.3570  -2.3489  -2.3475
    -2.3341  -2.3085  -2.3067  -2.3037  -2.3028  -2.3016  -2.2560  -2.2319
    -2.2257  -2.2243  -2.2193  -2.2117  -2.2066  -2.1964  -2.1788  -2.1785
    -2.1538  -2.1458  -2.1448  -2.1361  -2.1271  -2.1269  -2.0966  -2.0924
    -2.0587  -2.0526  -2.0464  -2.0453  -2.0419  -2.0381  -2.0352  -2.0331
    -2.0303  -2.0268  -2.0254  -2.0101  -2.0075  -1.9058  -1.8835  -1.8573
    -1.8471  -1.8427  -1.8356  -1.8336  -1.8295  -1.8194  -1.8156  -1.8130
    -1.8111  -1.7980  -1.7887  -1.7851  -1.7769  -1.7720  -1.7691  -1.7518
    -1.7475  -1.7237  -1.7196  -1.6923  -1.6864  -1.6790  -1.6682  -1.6540
    -1.6494  -1.6464  -1.6311  -1.6237  -1.6155  -1.6098  -1.6079  -1.5872
    -1.5821  -1.5748  -1.5672  -1.5453  -1.5319  -1.5225  -1.4853  -1.4775
    -1.4660  -1.4582  -1.4566  -1.4318  -1.4294  -1.4153  -1.3995  -1.3961
    -1.3725  -1.3598  -1.3547  -1.3367  -1.3346  -1.3259  -1.3122  -1.3081
    -1.2870  -1.2762  -1.2746  -1.2435  -1.2141  -1.2085  -1.2040  -1.1929
    -1.1861  -1.1759  -1.1708  -1.1622  -1.1513  -1.1389  -1.1122  -1.1093
    -1.0964  -1.0676  -1.0622  -1.0553  -1.0510  -1.0478  -1.0471  -1.0438
    -1.0342  -1.0260  -1.0042  -0.9995  -0.9864  -0.9845  -0.9822  -0.9671
    -0.9588  -0.9431  -0.9307  -0.9197  -0.8848  -0.8307  -0.8192  -0.8116
    -0.8108  -0.8033  -0.8001  -0.7893  -0.7791  -0.7682  -0.7617  -0.7528
    -0.7460  -0.7419  -0.7359  -0.7183  -0.7137  -0.7059  -0.6977  -0.6322
    -0.6298  -0.5984  -0.5933  -0.5913  -0.5858  -0.5840  -0.5826  -0.5779
    -0.5711  -0.5627  -0.5404  -0.5271  -0.5108  -0.4982  -0.4945  -0.4846
    -0.4808  -0.4750  -0.4703  -0.4694  -0.4668  -0.4569  -0.4515  -0.4469
    -0.4379  -0.4169  -0.4133  -0.4074  -0.4002  -0.3975  -0.3811  -0.3500
    -0.3473  -0.3405  -0.3358  -0.2718  -0.2709  -0.2389  -0.2372  -0.1815
    -0.1797  -0.1765  -0.1552  -0.1509   0.0777   0.1010   0.4234   0.4239
     0.5154   0.5326   0.7084   0.7411   0.7484   0.8689   0.8731   1.3033
     1.3056   1.3198   1.5879   1.6140   1.6153   1.8905   1.9042   1.9661
     1.9703   1.9956   2.0087   2.2230   2.2265   2.3144   2.3162   2.3946
     2.4534   2.4706   2.6185   2.7234   3.1490   3.1565   3.1599   3.1655
     3.2128   3.2186   3.5076   3.5093   3.7889   3.7975   3.9018   4.2040
     4.2437   4.2480   4.4676   4.4744   4.5408   4.5480   4.6434   4.7542
     4.7595   4.8744   4.8781   5.1746   5.2412   5.2444   5.3597   5.4188
     5.4584   5.6248   5.6356   5.6615   5.6648   5.7160   5.7288   5.7707
     5.8844   6.0727   6.2778   6.3261   6.3525   6.4581   6.4688   6.4788
     6.4830   6.5396   6.6576   6.7088   6.7213   6.8529   6.9186   6.9628
     6.9700   7.0498   7.0799

     the Fermi energy is     1.4512 ev

!    total energy              =   -6604.40209284 Ry
     Harris-Foulkes estimate   =   -6604.40209284 Ry
     estimated scf accuracy    <          5.6E-09 Ry

     The total energy is the sum of the following terms:

     one-electron contribution =  -48819.12123070 Ry
     hartree contribution      =   24910.93676766 Ry
     xc contribution           =   -3205.04058692 Ry
     ewald contribution        =   20508.82019158 Ry
     smearing contrib. (-TS)   =       0.00276553 Ry

     convergence has been achieved in  22 iterations

     Writing output data file 2368623.save

     init_run     :    137.91s CPU    146.20s WALL (       1 calls)
     electrons    :   7015.02s CPU   7387.01s WALL (       1 calls)

     Called by init_run:
     wfcinit      :    109.18s CPU    116.55s WALL (       1 calls)
     potinit      :      8.26s CPU      8.63s WALL (       1 calls)

     Called by electrons:
     c_bands      :   5954.45s CPU   6242.92s WALL (      23 calls)
     sum_band     :    756.33s CPU    824.70s WALL (      23 calls)
     v_of_rho     :     91.09s CPU    101.64s WALL (      23 calls)
     newd         :    219.48s CPU    222.11s WALL (      23 calls)
     mix_rho      :      2.80s CPU      3.16s WALL (      23 calls)
     vdW_energy   :      5.90s CPU      6.43s WALL (      23 calls)
     vdW_ffts     :     47.06s CPU     52.79s WALL (      46 calls)
     vdW_v        :     12.21s CPU     13.11s WALL (      23 calls)

     Called by c_bands:
     init_us_2    :     11.46s CPU     11.76s WALL (     564 calls)
     cegterg      :   5883.14s CPU   6170.16s WALL (     276 calls)

     Called by *egterg:
     h_psi        :   2504.67s CPU   2759.62s WALL (    1436 calls)
     s_psi        :    381.50s CPU    383.55s WALL (    1436 calls)
     g_psi        :      5.42s CPU      5.43s WALL (    1148 calls)
     cdiaghg      :   1822.73s CPU   1827.71s WALL (    1412 calls)

     Called by h_psi:
     add_vuspsi   :    382.87s CPU    384.96s WALL (    1436 calls)

     General routines
     calbec       :    569.44s CPU    571.53s WALL (    1712 calls)
     fft          :    107.59s CPU    117.80s WALL (    1518 calls)
     ffts         :      1.34s CPU      1.63s WALL (      46 calls)
     fftw         :   1912.15s CPU   2200.39s WALL (  667864 calls)
     interpolate  :      3.50s CPU      4.21s WALL (      46 calls)
     davcio       :      0.01s CPU      0.27s WALL (      12 calls)

     Parallel routines
     fft_scatter  :   1354.36s CPU   1571.38s WALL (  669428 calls)

     PWSCF        :     1h59m CPU        2h 6m WALL


   This run was terminated on:   3:29:37  25Jun2015            

=------------------------------------------------------------------------------=
   JOB DONE.
=------------------------------------------------------------------------------=
