Setting SGE environment for SCC

     Program PWSCF v.5.1.2 starts on 29Aug2015 at 22:31:51 

     This program is part of the open-source Quantum ESPRESSO suite
     for quantum simulation of materials; please cite
         "P. Giannozzi et al., J. Phys.:Condens. Matter 21 395502 (2009);
          URL http://www.quantum-espresso.org", 
     in publications or presentations arising from this work. More details at
     http://www.quantum-espresso.org/quote

     Parallel version (MPI), running on    32 processors
     R & G space division:  proc/nbgrp/npool/nimage =      32
     Reading input from top.O1.Au50.d.4.0.phi.0.psi.90.in
Warning: card &IONS ignored
Warning: card / ignored
Warning: card &CELL ignored
Warning: card / ignored

     Current dimensions of program PWSCF are:
     Max number of different atomic species (ntypx) = 10
     Max number of k-points (npk) =  40000
     Max angular momentum in pseudopotentials (lmaxx) =  3

     IMPORTANT: XC functional enforced from input :
     Exchange-correlation      = VDW-DF ( 1  4  4  0 1 0)
     Any further DFT definition will be discarded
     Please, verify this is what you really want


     Subspace diagonalization in iterative solution of the eigenvalue problem:
     a serial algorithm will be used


     Parallelization info
     --------------------
     sticks:   dense  smooth     PW     G-vecs:    dense   smooth      PW
     Min         445     223     58                96775    34191    4534
     Max         446     224     59                96790    34246    4540
     Sum       14269    7147   1867              3097177  1095093  145167


     Title: 
     top.O1.Au50.d.4.0.phi.0.psi.90                                             


     bravais-lattice index     =            4
     lattice parameter (alat)  =      22.7436  a.u.
     unit-cell volume          =   22924.1508 (a.u.)^3
     number of atoms/cell      =           67
     number of atomic types    =            3
     number of electrons       =       712.00
     number of Kohn-Sham states=          427
     kinetic-energy cutoff     =      50.0000  Ry
     charge density cutoff     =     400.0000  Ry
     convergence threshold     =      1.0E-08
     mixing beta               =       0.7000
     number of iterations used =            8  plain     mixing
     Exchange-correlation      = VDW-DF ( 1  4  4  0 1 0)

     celldm(1)=  22.743643  celldm(2)=   0.000000  celldm(3)=   2.250000
     celldm(4)=   0.000000  celldm(5)=   0.000000  celldm(6)=   0.000000

     crystal axes: (cart. coord. in units of alat)
               a(1) = (   1.000000   0.000000   0.000000 )  
               a(2) = (  -0.500000   0.866025   0.000000 )  
               a(3) = (   0.000000   0.000000   2.250000 )  

     reciprocal axes: (cart. coord. in units 2 pi/alat)
               b(1) = (  1.000000  0.577350 -0.000000 )  
               b(2) = (  0.000000  1.154701  0.000000 )  
               b(3) = (  0.000000 -0.000000  0.444444 )  


     PseudoPot. # 1 for Au read from file:
     /home/scc/andrejb/qe/pseudo/Au.pbe-nd-van.UPF
     MD5 check sum: 458681b50f36d87ef23c61b04bba420a
     Pseudo is Ultrasoft + core correction, Zval = 11.0
     Generated by new atomic code, or converted to UPF format
     Using radial grid of  985 points,  3 beta functions with: 
                l(1) =   1
                l(2) =   2
                l(3) =   2
     Q(r) pseudized with  8 coefficients,  rinner =    1.100   1.100   1.100
                                                       1.100   1.100

     PseudoPot. # 2 for H  read from file:
     /home/scc/andrejb/qe/pseudo/H.pbe-van_ak.UPF
     MD5 check sum: 403db7282739603aa925980fa9b8608d
     Pseudo is Ultrasoft, Zval =  1.0
     Generated by new atomic code, or converted to UPF format
     Using radial grid of  615 points,  1 beta functions with: 
                l(1) =   0
     Q(r) pseudized with  8 coefficients,  rinner =    0.800

     PseudoPot. # 3 for O  read from file:
     /home/scc/andrejb/qe/pseudo/O.pbe-van_ak.UPF
     MD5 check sum: 4b8c549914a63cae506c6ff22b5af4fe
     Pseudo is Ultrasoft, Zval =  6.0
     Generated by new atomic code, or converted to UPF format
     Using radial grid of  737 points,  4 beta functions with: 
                l(1) =   0
                l(2) =   0
                l(3) =   1
                l(4) =   1
     Q(r) pseudized with  8 coefficients,  rinner =    0.800   0.800   0.800


     vdW kernel table read from file vdW_kernel_table
     MD5 check sum: 48e77a2e26edf626eeb0eaa751ad5cac

     atomic species   valence    mass     pseudopotential
        Au            11.00   196.96657     Au( 1.00)
        H              1.00     1.01000     H ( 1.00)
        O              6.00    16.00000     O ( 1.00)

     No symmetry found



   Cartesian axes

     site n.     atom                  positions (alat units)
         1           O   tau(   1) = (   0.4790780   0.3968269   0.9453492  )
         2           H   tau(   2) = (   0.4291446   0.3485733   0.9038015  )
         3           H   tau(   3) = (   0.5274974   0.3460662   0.9856561  )
         4           Au  tau(   4) = (   0.3540481   0.6132292   0.0000000  )
         5           Au  tau(   5) = (   0.4790062   0.3967954   0.0000000  )
         6           Au  tau(   6) = (   0.6039644   0.1803616   0.0000000  )
         7           Au  tau(   7) = (   0.7289225  -0.0360723   0.0000000  )
         8           Au  tau(   8) = (   0.1041318   0.6132292   0.0000000  )
         9           Au  tau(   9) = (   0.2290899   0.3967954   0.0000000  )
        10           Au  tau(  10) = (   0.3540481   0.1803616   0.0000000  )
        11           Au  tau(  11) = (   0.4790062  -0.0360723   0.0000000  )
        12           Au  tau(  12) = (  -0.1457845   0.6132292   0.0000000  )
        13           Au  tau(  13) = (  -0.0208264   0.3967954   0.0000000  )
        14           Au  tau(  14) = (   0.1041318   0.1803616   0.0000000  )
        15           Au  tau(  15) = (   0.2290899  -0.0360723   0.0000000  )
        16           Au  tau(  16) = (  -0.3957008   0.6132292   0.0000000  )
        17           Au  tau(  17) = (  -0.2707426   0.3967954   0.0000000  )
        18           Au  tau(  18) = (  -0.1457845   0.1803616   0.0000000  )
        19           Au  tau(  19) = (  -0.0208264  -0.0360723   0.0000000  )
        20           Au  tau(  20) = (   0.4790062   0.6853738   0.2040557  )
        21           Au  tau(  21) = (   0.6039644   0.4689400   0.2040557  )
        22           Au  tau(  22) = (   0.7289225   0.2525061   0.2040557  )
        23           Au  tau(  23) = (   0.8538806   0.0360723   0.2040557  )
        24           Au  tau(  24) = (   0.2290899   0.6853738   0.2040557  )
        25           Au  tau(  25) = (   0.3540481   0.4689400   0.2040557  )
        26           Au  tau(  26) = (   0.4790062   0.2525061   0.2040557  )
        27           Au  tau(  27) = (   0.6039644   0.0360723   0.2040557  )
        28           Au  tau(  28) = (  -0.0208264   0.6853738   0.2040557  )
        29           Au  tau(  29) = (   0.1041318   0.4689400   0.2040557  )
        30           Au  tau(  30) = (   0.2290899   0.2525061   0.2040557  )
        31           Au  tau(  31) = (   0.3540481   0.0360723   0.2040557  )
        32           Au  tau(  32) = (  -0.2707426   0.6853738   0.2040557  )
        33           Au  tau(  33) = (  -0.1457845   0.4689400   0.2040557  )
        34           Au  tau(  34) = (  -0.0208264   0.2525061   0.2040557  )
        35           Au  tau(  35) = (   0.1041318   0.0360723   0.2040557  )
        36           Au  tau(  36) = (   0.3541162   0.7576593   0.4066483  )
        37           Au  tau(  37) = (   0.4791000   0.5411421   0.4066695  )
        38           Au  tau(  38) = (   0.6040570   0.3246862   0.4066617  )
        39           Au  tau(  39) = (   0.7290270   0.1081684   0.4066529  )
        40           Au  tau(  40) = (   0.1041162   0.7576236   0.4066247  )
        41           Au  tau(  41) = (   0.2291001   0.5411063   0.4066455  )
        42           Au  tau(  42) = (   0.3540567   0.3246505   0.4066380  )
        43           Au  tau(  43) = (   0.4790276   0.1081324   0.4066292  )
        44           Au  tau(  44) = (  -0.1458201   0.7576104   0.4066224  )
        45           Au  tau(  45) = (  -0.0208365   0.5410930   0.4066438  )
        46           Au  tau(  46) = (   0.1041202   0.3246372   0.4066359  )
        47           Au  tau(  47) = (   0.2290908   0.1081193   0.4066273  )
        48           Au  tau(  48) = (  -0.3958167   0.7575791   0.4065812  )
        49           Au  tau(  49) = (  -0.2708328   0.5410617   0.4066025  )
        50           Au  tau(  50) = (  -0.1458763   0.3246061   0.4065947  )
        51           Au  tau(  51) = (  -0.0209056   0.1080882   0.4065858  )
        52           Au  tau(  52) = (   0.3541085   0.6133344   0.6129762  )
        53           Au  tau(  53) = (   0.4790780   0.3968269   0.6129968  )
        54           Au  tau(  54) = (   0.6040356   0.1803811   0.6129859  )
        55           Au  tau(  55) = (   0.7290165  -0.0361221   0.6129385  )
        56           Au  tau(  56) = (   0.1041243   0.6133091   0.6130022  )
        57           Au  tau(  57) = (   0.2290941   0.3968013   0.6130241  )
        58           Au  tau(  58) = (   0.3540515   0.1803552   0.6130121  )
        59           Au  tau(  59) = (   0.4790323  -0.0361475   0.6129659  )
        60           Au  tau(  60) = (  -0.1458030   0.6133014   0.6129980  )
        61           Au  tau(  61) = (  -0.0208339   0.3967936   0.6130188  )
        62           Au  tau(  62) = (   0.1041239   0.1803477   0.6130083  )
        63           Au  tau(  63) = (   0.2291046  -0.0361554   0.6129607  )
        64           Au  tau(  64) = (  -0.3957908   0.6132739   0.6129471  )
        65           Au  tau(  65) = (  -0.2708208   0.3967658   0.6129688  )
        66           Au  tau(  66) = (  -0.1458636   0.1803200   0.6129569  )
        67           Au  tau(  67) = (  -0.0208823  -0.0361826   0.6129110  )

     number of k points=    12  Marzari-Vanderbilt smearing, width (Ry)=  0.0200
                       cart. coord. in units 2pi/alat
        k(    1) = (   0.2500000   0.4330127   0.1111111), wk =   0.1666667
        k(    2) = (   0.2500000  -0.1443376   0.1111111), wk =   0.1666667
        k(    3) = (  -0.2500000  -0.4330127   0.1111111), wk =   0.1666667
        k(    4) = (  -0.2500000   0.4330127  -0.1111111), wk =   0.1666667
        k(    5) = (   0.2500000  -0.4330127  -0.1111111), wk =   0.1666667
        k(    6) = (   0.5000000   0.0000000   0.1111111), wk =   0.1666667
        k(    7) = (  -0.5000000   0.0000000   0.1111111), wk =   0.1666667
        k(    8) = (  -0.2500000   0.1443376   0.1111111), wk =   0.1666667
        k(    9) = (  -0.2500000  -0.1443376  -0.1111111), wk =   0.1666667
        k(   10) = (   0.2500000   0.1443376  -0.1111111), wk =   0.1666667
        k(   11) = (   0.0000000  -0.2886751   0.1111111), wk =   0.1666667
        k(   12) = (   0.0000000   0.2886751   0.1111111), wk =   0.1666667

     Dense  grid:  3097177 G-vectors     FFT dimensions: ( 150, 150, 360)

     Smooth grid:  1095093 G-vectors     FFT dimensions: ( 108, 108, 240)

     Largest allocated arrays     est. size (Mb)     dimensions
        Kohn-Sham Wavefunctions        28.01 Mb     (    4299,  427)
        NL pseudopotentials            55.23 Mb     (    4299,  842)
        Each V/rho on FFT grid          4.12 Mb     (  270000)
        Each G-vector array             0.74 Mb     (   96788)
        G-vector shells                 0.16 Mb     (   21404)
     Largest temporary arrays     est. size (Mb)     dimensions
        Auxiliary wavefunctions       112.04 Mb     (    4299, 1708)
        Each subspace H/S matrix       44.51 Mb     (    1708, 1708)
        Each <psi_i|beta_j> matrix      5.49 Mb     (     842,  427)
        Arrays for rho mixing          32.96 Mb     (  270000,    8)

     Initial potential from superposition of free atoms
     Check: negative starting charge=   -1.730138

     starting charge  711.25682, renormalised to  712.00000

     negative rho (up, down):  1.732E+00 0.000E+00


     ************************************************************************
     *
     * You are using vdW-DF for exchange-correlation in this calculation.
     * Please cite the following three references that made this development
     * possible:
     *
     *   M. Dion, H. Rydberg, E. Schroder, D. C. Langreth, and
     *   B. I. Lundqvist, Phys. Rev. Lett. 92, 246401 (2004).
     *
     *   T. Thonhauser, V. R. Cooper, S. Li, A. Puzder, P. Hyldgaard, and
     *   D. C. Langreth, Phys. Rev. B 76, 125112 (2007).
     *
     *   G. Roman-Perez and J. M. Soler, Phys. Rev. Lett. 103, 096102 (2009).
     *
     *
     * If you are using vdW-DF2, please also cite:
     *
     *   K. Lee, E. D. Murray, L. Kong, B. I. Lundqvist, and
     *   D. C. Langreth, Phys. Rev. B 82, 081101(R) (2010).
     *
     *
     * If you are calculating the stress with vdW-DF, please also cite:
     *
     *   R. Sabatini, E. Kucukbenli, B. Kolb, T. Thonhauser, and
     *   S. de Gironcoli, J. Phys.: Condens. Matter 24, 424209 (2012).
     *
     ************************************************************************

     Carrying out vdW-DF run using the following parameters:

     Nqs =      20    Nr_points =    1024   r_max =   100.000
     q_mesh =
               0.00001000     0.04494208     0.09755937     0.15916263
               0.23128650     0.31572767     0.41458969     0.53033537
               0.66584808     0.82450364     1.01025438     1.22772762
               1.48234092     1.78043706     2.12944203     2.53805004
               3.01644009     3.57652955     4.23227104     5.00000000

     Gradients computed in reciprocal space

     ************************************************************************


     Starting wfc are  582 randomized atomic wfcs

     total cpu time spent up to now is      184.4 secs

     Self-consistent Calculation

     iteration #  1     ecut=    50.00 Ry     beta=0.70
     Davidson diagonalization with overlap
     ethr =  1.00E-02,  avg # of iterations =  3.0

     Threshold (ethr) on eigenvalues was too large:
     Diagonalizing with lowered threshold

     Davidson diagonalization with overlap
     ethr =  3.53E-04,  avg # of iterations =  5.9

     negative rho (up, down):  1.728E+00 0.000E+00

     total cpu time spent up to now is      892.1 secs

     total energy              =   -6602.77201408 Ry
     Harris-Foulkes estimate   =   -6605.04692405 Ry
     estimated scf accuracy    <       2.84774714 Ry

     iteration #  2     ecut=    50.00 Ry     beta=0.70
     Davidson diagonalization with overlap
     ethr =  4.00E-04,  avg # of iterations = 11.3

     negative rho (up, down):  1.726E+00 0.000E+00

     total cpu time spent up to now is     1898.5 secs

     total energy              =   -6596.62108206 Ry
     Harris-Foulkes estimate   =   -6610.19579668 Ry
     estimated scf accuracy    <      75.72848016 Ry

     iteration #  3     ecut=    50.00 Ry     beta=0.70
     Davidson diagonalization with overlap
     ethr =  4.00E-04,  avg # of iterations =  6.5

     negative rho (up, down):  1.737E+00 0.000E+00

     total cpu time spent up to now is     2566.4 secs

     total energy              =   -6603.09149184 Ry
     Harris-Foulkes estimate   =   -6605.03468870 Ry
     estimated scf accuracy    <       9.07928258 Ry

     iteration #  4     ecut=    50.00 Ry     beta=0.70
     Davidson diagonalization with overlap
     ethr =  4.00E-04,  avg # of iterations =  7.0

     negative rho (up, down):  1.738E+00 0.000E+00

     total cpu time spent up to now is     2994.6 secs

     total energy              =   -6603.51841660 Ry
     Harris-Foulkes estimate   =   -6605.14503426 Ry
     estimated scf accuracy    <      14.78148934 Ry

     iteration #  5     ecut=    50.00 Ry     beta=0.70
     Davidson diagonalization with overlap
     ethr =  4.00E-04,  avg # of iterations =  6.1

     negative rho (up, down):  1.748E+00 0.000E+00

     total cpu time spent up to now is     3396.7 secs

     total energy              =   -6604.31700892 Ry
     Harris-Foulkes estimate   =   -6604.63826120 Ry
     estimated scf accuracy    <       2.41477143 Ry

     iteration #  6     ecut=    50.00 Ry     beta=0.70
     Davidson diagonalization with overlap
     ethr =  3.39E-04,  avg # of iterations =  2.3

     negative rho (up, down):  1.753E+00 0.000E+00

     total cpu time spent up to now is     3715.6 secs

     total energy              =   -6604.43058668 Ry
     Harris-Foulkes estimate   =   -6604.46677944 Ry
     estimated scf accuracy    <       0.10773285 Ry

     iteration #  7     ecut=    50.00 Ry     beta=0.70
     Davidson diagonalization with overlap
     ethr =  1.51E-05,  avg # of iterations = 11.9

     negative rho (up, down):  1.754E+00 0.000E+00

     total cpu time spent up to now is     4301.4 secs

     total energy              =   -6604.43267489 Ry
     Harris-Foulkes estimate   =   -6604.45758066 Ry
     estimated scf accuracy    <       0.10294653 Ry

     iteration #  8     ecut=    50.00 Ry     beta=0.70
     Davidson diagonalization with overlap
     ethr =  1.45E-05,  avg # of iterations =  3.1

     negative rho (up, down):  1.755E+00 0.000E+00

     total cpu time spent up to now is     4637.9 secs

     total energy              =   -6604.43469823 Ry
     Harris-Foulkes estimate   =   -6604.44745595 Ry
     estimated scf accuracy    <       0.04684768 Ry

     iteration #  9     ecut=    50.00 Ry     beta=0.70
     Davidson diagonalization with overlap
     ethr =  6.58E-06,  avg # of iterations =  7.1

     negative rho (up, down):  1.756E+00 0.000E+00

     total cpu time spent up to now is     5038.5 secs

     total energy              =   -6604.43434423 Ry
     Harris-Foulkes estimate   =   -6604.44042909 Ry
     estimated scf accuracy    <       0.02167840 Ry

     iteration # 10     ecut=    50.00 Ry     beta=0.70
     Davidson diagonalization with overlap
     ethr =  3.04E-06,  avg # of iterations =  7.0

     negative rho (up, down):  1.757E+00 0.000E+00

     total cpu time spent up to now is     5440.5 secs

     total energy              =   -6604.43369328 Ry
     Harris-Foulkes estimate   =   -6604.43674208 Ry
     estimated scf accuracy    <       0.01079214 Ry

     iteration # 11     ecut=    50.00 Ry     beta=0.70
     Davidson diagonalization with overlap
     ethr =  1.52E-06,  avg # of iterations =  5.9

     negative rho (up, down):  1.758E+00 0.000E+00

     total cpu time spent up to now is     5811.9 secs

     total energy              =   -6604.43349869 Ry
     Harris-Foulkes estimate   =   -6604.43479530 Ry
     estimated scf accuracy    <       0.00560298 Ry

     iteration # 12     ecut=    50.00 Ry     beta=0.70
     Davidson diagonalization with overlap
     ethr =  7.87E-07,  avg # of iterations =  4.0

     negative rho (up, down):  1.758E+00 0.000E+00

     total cpu time spent up to now is     6146.3 secs

     total energy              =   -6604.43279099 Ry
     Harris-Foulkes estimate   =   -6604.43394266 Ry
     estimated scf accuracy    <       0.00183428 Ry

     iteration # 13     ecut=    50.00 Ry     beta=0.70
     Davidson diagonalization with overlap
     c_bands:  2 eigenvalues not converged
     ethr =  2.58E-07,  avg # of iterations =  8.3

     negative rho (up, down):  1.758E+00 0.000E+00

     total cpu time spent up to now is     6581.1 secs

     total energy              =   -6604.43307169 Ry
     Harris-Foulkes estimate   =   -6604.43321228 Ry
     estimated scf accuracy    <       0.00032269 Ry

     iteration # 14     ecut=    50.00 Ry     beta=0.70
     Davidson diagonalization with overlap
     ethr =  4.53E-08,  avg # of iterations =  3.4

     negative rho (up, down):  1.758E+00 0.000E+00

     total cpu time spent up to now is     6963.6 secs

     total energy              =   -6604.43310834 Ry
     Harris-Foulkes estimate   =   -6604.43319965 Ry
     estimated scf accuracy    <       0.00034870 Ry

     iteration # 15     ecut=    50.00 Ry     beta=0.70
     Davidson diagonalization with overlap
     ethr =  4.53E-08,  avg # of iterations =  2.0

     negative rho (up, down):  1.758E+00 0.000E+00

     total cpu time spent up to now is     7268.9 secs

     total energy              =   -6604.43314087 Ry
     Harris-Foulkes estimate   =   -6604.43317798 Ry
     estimated scf accuracy    <       0.00015820 Ry

     iteration # 16     ecut=    50.00 Ry     beta=0.70
     Davidson diagonalization with overlap
     ethr =  2.22E-08,  avg # of iterations =  2.0

     negative rho (up, down):  1.758E+00 0.000E+00

     total cpu time spent up to now is     7564.9 secs

     total energy              =   -6604.43315316 Ry
     Harris-Foulkes estimate   =   -6604.43316503 Ry
     estimated scf accuracy    <       0.00004064 Ry

     iteration # 17     ecut=    50.00 Ry     beta=0.70
     Davidson diagonalization with overlap
     ethr =  5.71E-09,  avg # of iterations =  2.0

     negative rho (up, down):  1.758E+00 0.000E+00

     total cpu time spent up to now is     7894.3 secs

     total energy              =   -6604.43315143 Ry
     Harris-Foulkes estimate   =   -6604.43317182 Ry
     estimated scf accuracy    <       0.00021489 Ry

     iteration # 18     ecut=    50.00 Ry     beta=0.70
     Davidson diagonalization with overlap
     ethr =  5.71E-09,  avg # of iterations =  2.0

     negative rho (up, down):  1.758E+00 0.000E+00

     total cpu time spent up to now is     8191.3 secs

     total energy              =   -6604.43316156 Ry
     Harris-Foulkes estimate   =   -6604.43316247 Ry
     estimated scf accuracy    <       0.00000330 Ry

     iteration # 19     ecut=    50.00 Ry     beta=0.70
     Davidson diagonalization with overlap
     ethr =  4.63E-10,  avg # of iterations =  3.0

     negative rho (up, down):  1.757E+00 0.000E+00

     total cpu time spent up to now is     8547.2 secs

     total energy              =   -6604.43316215 Ry
     Harris-Foulkes estimate   =   -6604.43316238 Ry
     estimated scf accuracy    <       0.00000096 Ry

     iteration # 20     ecut=    50.00 Ry     beta=0.70
     Davidson diagonalization with overlap
     ethr =  1.34E-10,  avg # of iterations =  2.0

     negative rho (up, down):  1.757E+00 0.000E+00

     total cpu time spent up to now is     8878.0 secs

     total energy              =   -6604.43316233 Ry
     Harris-Foulkes estimate   =   -6604.43316245 Ry
     estimated scf accuracy    <       0.00000073 Ry

     iteration # 21     ecut=    50.00 Ry     beta=0.70
     Davidson diagonalization with overlap
     ethr =  1.03E-10,  avg # of iterations =  2.0

     negative rho (up, down):  1.757E+00 0.000E+00

     total cpu time spent up to now is     9174.0 secs

     total energy              =   -6604.43316242 Ry
     Harris-Foulkes estimate   =   -6604.43316248 Ry
     estimated scf accuracy    <       0.00000041 Ry

     iteration # 22     ecut=    50.00 Ry     beta=0.70
     Davidson diagonalization with overlap
     ethr =  5.74E-11,  avg # of iterations =  2.0

     negative rho (up, down):  1.757E+00 0.000E+00

     total cpu time spent up to now is     9470.5 secs

     total energy              =   -6604.43316246 Ry
     Harris-Foulkes estimate   =   -6604.43316247 Ry
     estimated scf accuracy    <       0.00000002 Ry

     iteration # 23     ecut=    50.00 Ry     beta=0.70
     Davidson diagonalization with overlap
     ethr =  2.20E-12,  avg # of iterations =  3.8

     negative rho (up, down):  1.757E+00 0.000E+00

     total cpu time spent up to now is     9916.7 secs

     total energy              =   -6604.43316247 Ry
     Harris-Foulkes estimate   =   -6604.43316247 Ry
     estimated scf accuracy    <       0.00000003 Ry

     iteration # 24     ecut=    50.00 Ry     beta=0.70
     Davidson diagonalization with overlap
     ethr =  2.20E-12,  avg # of iterations =  3.0

     negative rho (up, down):  1.757E+00 0.000E+00

     total cpu time spent up to now is    10270.8 secs

     total energy              =   -6604.43316248 Ry
     Harris-Foulkes estimate   =   -6604.43316248 Ry
     estimated scf accuracy    <       0.00000001 Ry

     iteration # 25     ecut=    50.00 Ry     beta=0.70
     Davidson diagonalization with overlap
     ethr =  1.48E-12,  avg # of iterations =  2.0

     negative rho (up, down):  1.757E+00 0.000E+00

     total cpu time spent up to now is    10569.3 secs

     End of self-consistent calculation

          k = 0.2500 0.4330 0.1111 (136853 PWs)   bands (ev):

   -18.7186  -6.5351  -6.3489  -5.9497  -5.9496  -5.2714  -4.9382  -4.9381
    -4.8987  -4.8985  -4.5379  -4.5379  -4.4393  -4.4392  -4.4252  -4.4033
    -4.3771  -4.2717  -4.2715  -4.2474  -4.2040  -4.2039  -4.1350  -4.1350
    -4.1278  -4.1277  -4.1069  -4.1008  -4.1006  -4.0279  -4.0276  -3.9986
    -3.9985  -3.9863  -3.9863  -3.9630  -3.9630  -3.9406  -3.9320  -3.9320
    -3.9052  -3.8530  -3.8530  -3.8051  -3.8050  -3.7454  -3.7453  -3.6911
    -3.6911  -3.6903  -3.6902  -3.6551  -3.6154  -3.6154  -3.6096  -3.6082
    -3.6080  -3.5770  -3.5770  -3.5687  -3.5065  -3.5065  -3.4970  -3.4810
    -3.4739  -3.4011  -3.4010  -3.3674  -3.3673  -3.3396  -3.3395  -3.3265
    -3.3096  -3.2492  -3.2492  -3.2319  -3.2318  -3.1797  -3.1747  -3.1746
    -3.1366  -3.1048  -3.1047  -3.0965  -3.0964  -3.0827  -3.0826  -3.0749
    -3.0748  -3.0650  -3.0244  -2.9865  -2.9864  -2.9717  -2.9716  -2.9458
    -2.9359  -2.9358  -2.9144  -2.8699  -2.8698  -2.8603  -2.8209  -2.8147
    -2.8032  -2.8031  -2.7737  -2.7735  -2.7503  -2.7441  -2.7065  -2.7060
    -2.6841  -2.6771  -2.6629  -2.6627  -2.6123  -2.6121  -2.5795  -2.5567
    -2.5566  -2.5323  -2.5322  -2.5211  -2.5210  -2.5102  -2.4871  -2.4870
    -2.4428  -2.4427  -2.4413  -2.4242  -2.4241  -2.4192  -2.4096  -2.4079
    -2.4065  -2.4063  -2.4011  -2.3880  -2.3878  -2.3779  -2.3517  -2.3514
    -2.3501  -2.3487  -2.3486  -2.3457  -2.3456  -2.3174  -2.3144  -2.3004
    -2.3003  -2.2826  -2.2826  -2.2724  -2.2723  -2.2706  -2.2705  -2.2507
    -2.2504  -2.2486  -2.2485  -2.2315  -2.2049  -2.2049  -2.1651  -2.1650
    -2.1391  -2.1390  -2.1118  -2.1118  -2.0839  -2.0838  -2.0662  -2.0622
    -2.0351  -2.0128  -2.0125  -2.0072  -2.0071  -2.0027  -1.9953  -1.9952
    -1.9696  -1.9631  -1.9529  -1.8959  -1.8920  -1.8917  -1.8888  -1.8887
    -1.8511  -1.8329  -1.8329  -1.8048  -1.8047  -1.7441  -1.7441  -1.7153
    -1.6969  -1.6968  -1.6355  -1.6354  -1.6235  -1.6234  -1.6123  -1.6122
    -1.6091  -1.5990  -1.5989  -1.5437  -1.5434  -1.5310  -1.5308  -1.5305
    -1.5108  -1.5107  -1.4753  -1.4751  -1.4578  -1.4577  -1.4576  -1.4511
    -1.4463  -1.4361  -1.4359  -1.4171  -1.4171  -1.3761  -1.3754  -1.3626
    -1.3625  -1.3424  -1.3291  -1.2855  -1.2853  -1.2598  -1.2545  -1.2544
    -1.2253  -1.1743  -1.1735  -1.1722  -1.1719  -1.1663  -1.1661  -1.1556
    -1.1371  -1.1370  -1.0970  -1.0967  -1.0661  -1.0659  -1.0611  -1.0609
    -1.0526  -1.0365  -1.0363  -1.0357  -1.0324  -1.0323  -0.9977  -0.9946
    -0.9926  -0.9925  -0.9618  -0.9609  -0.9578  -0.9358  -0.9257  -0.9253
    -0.8788  -0.8730  -0.8712  -0.8375  -0.8306  -0.8175  -0.8170  -0.8121
    -0.8088  -0.8080  -0.8074  -0.7971  -0.7955  -0.7715  -0.7694  -0.7665
    -0.7654  -0.7640  -0.7442  -0.7268  -0.7265  -0.7162  -0.7080  -0.6970
    -0.6926  -0.6859  -0.6798  -0.6250  -0.6224  -0.6139  -0.6138  -0.6126
    -0.6111  -0.6065  -0.5876  -0.5864  -0.5787  -0.5783  -0.5766  -0.5756
    -0.5371  -0.5345  -0.5341  -0.5260  -0.5257  -0.5205  -0.5189  -0.5071
    -0.5027  -0.4995  -0.4985  -0.4569  -0.4568  -0.4484  -0.4448  -0.4447
    -0.3672  -0.3669  -0.3645  -0.3643  -0.3551  -0.3548  -0.3185  -0.3056
    -0.3055  -0.2773  -0.2740  -0.2732  -0.1517  -0.1515  -0.0496   0.3658
     0.3658   0.3689   0.3690   0.4295   0.4312   0.8189   0.8192   0.8618
     0.8621   0.9703   1.0504   1.1616   1.1623   1.3828   1.3849   2.0158
     2.0166   2.1781   2.1791   2.3095   2.3113   2.4145   2.4145   2.5687
     2.8060   2.8110   2.9291   3.1547   3.1552   3.2384   3.2388   3.3386
     3.3538   3.5480   3.5510   3.6102   3.8110   3.8111   3.8733   3.8744
     4.1310   4.1382   4.1395   4.3815   4.4232   4.4242   4.4689   4.8053
     4.8057   4.8349   4.9692   5.1380   5.1420   5.1620   5.2013   5.3135
     5.7556   5.8961   5.9291   5.9368   5.9374   6.0049   6.0052   6.0604
     6.0990   6.1154   6.1398   6.1664   6.1682   6.1876   6.1926   6.2272
     6.2289   6.3779   6.5246   6.6849   6.7255   6.7506   6.8760   6.8770
     6.8860   6.9660   7.0546

          k = 0.2500-0.1443 0.1111 (136898 PWs)   bands (ev):

   -18.7186  -6.5596  -6.5343  -5.7669  -5.4753  -5.4166  -5.4165  -4.8782
    -4.8781  -4.7461  -4.7459  -4.5908  -4.5598  -4.4985  -4.4647  -4.4642
    -4.4315  -4.4315  -4.3030  -4.2612  -4.2611  -4.2011  -4.1799  -4.1797
    -4.0776  -4.0776  -4.0415  -4.0412  -4.0412  -4.0141  -3.9926  -3.9926
    -3.8870  -3.8855  -3.8854  -3.8646  -3.8478  -3.8477  -3.8354  -3.8352
    -3.8219  -3.7920  -3.7918  -3.7917  -3.7916  -3.7587  -3.7586  -3.7412
    -3.7412  -3.7264  -3.6828  -3.6828  -3.6528  -3.6376  -3.6369  -3.6330
    -3.6329  -3.5583  -3.5582  -3.5227  -3.5204  -3.5201  -3.4528  -3.4527
    -3.4373  -3.4371  -3.4062  -3.4059  -3.4049  -3.4047  -3.2516  -3.2513
    -3.2258  -3.2257  -3.2206  -3.2046  -3.2044  -3.1785  -3.1784  -3.1287
    -3.1286  -3.1124  -3.1122  -3.0920  -3.0432  -3.0432  -3.0236  -3.0187
    -3.0185  -2.9777  -2.9775  -2.9713  -2.9711  -2.9545  -2.9541  -2.9148
    -2.9148  -2.8931  -2.8929  -2.8900  -2.8896  -2.8867  -2.8095  -2.8092
    -2.8079  -2.7792  -2.7789  -2.7503  -2.7169  -2.7159  -2.6888  -2.6874
    -2.6743  -2.6741  -2.6689  -2.6392  -2.6391  -2.6297  -2.6119  -2.5862
    -2.5861  -2.5857  -2.5651  -2.5649  -2.5537  -2.5535  -2.5504  -2.5497
    -2.5422  -2.4962  -2.4635  -2.4634  -2.4480  -2.4338  -2.4274  -2.4272
    -2.4199  -2.4196  -2.4182  -2.3883  -2.3881  -2.3880  -2.3783  -2.3782
    -2.3608  -2.3335  -2.3327  -2.3323  -2.3317  -2.3316  -2.2864  -2.2548
    -2.2545  -2.2543  -2.2474  -2.2388  -2.2257  -2.2255  -2.2089  -2.2089
    -2.1752  -2.1738  -2.1735  -2.1549  -2.1535  -2.1530  -2.1205  -2.1199
    -2.0793  -2.0786  -2.0713  -2.0693  -2.0691  -2.0626  -2.0624  -2.0601
    -2.0600  -2.0533  -2.0522  -2.0362  -2.0356  -1.9091  -1.9080  -1.8763
    -1.8704  -1.8695  -1.8647  -1.8646  -1.8466  -1.8465  -1.8438  -1.8432
    -1.8417  -1.8190  -1.8113  -1.8099  -1.8074  -1.7985  -1.7984  -1.7756
    -1.7754  -1.7468  -1.7468  -1.7146  -1.7140  -1.7042  -1.6960  -1.6784
    -1.6780  -1.6752  -1.6568  -1.6445  -1.6444  -1.6370  -1.6368  -1.6102
    -1.6099  -1.5928  -1.5927  -1.5613  -1.5605  -1.5505  -1.4997  -1.4996
    -1.4875  -1.4866  -1.4863  -1.4614  -1.4590  -1.4252  -1.4246  -1.4244
    -1.3914  -1.3810  -1.3802  -1.3649  -1.3646  -1.3382  -1.3367  -1.3363
    -1.3068  -1.3040  -1.3038  -1.2413  -1.2409  -1.2281  -1.2271  -1.2113
    -1.2112  -1.1986  -1.1984  -1.1805  -1.1678  -1.1400  -1.1398  -1.1286
    -1.1025  -1.0904  -1.0898  -1.0784  -1.0783  -1.0763  -1.0710  -1.0703
    -1.0574  -1.0262  -1.0261  -1.0172  -1.0154  -1.0136  -1.0129  -0.9894
    -0.9727  -0.9706  -0.9504  -0.9494  -0.8590  -0.8433  -0.8379  -0.8377
    -0.8345  -0.8301  -0.8283  -0.8121  -0.8024  -0.7887  -0.7871  -0.7739
    -0.7725  -0.7630  -0.7508  -0.7427  -0.7411  -0.7327  -0.7198  -0.6608
    -0.6607  -0.6267  -0.6241  -0.6223  -0.6154  -0.6140  -0.6137  -0.6129
    -0.6005  -0.5988  -0.5819  -0.5596  -0.5444  -0.5250  -0.5244  -0.5135
    -0.5128  -0.5005  -0.5001  -0.4994  -0.4980  -0.4974  -0.4803  -0.4760
    -0.4754  -0.4452  -0.4436  -0.4432  -0.4314  -0.4314  -0.4121  -0.3799
    -0.3797  -0.3707  -0.3703  -0.3024  -0.3022  -0.2647  -0.2647  -0.2069
    -0.2053  -0.2052  -0.1939  -0.1768   0.0456   0.0497   0.3941   0.3941
     0.4842   0.4879   0.6797   0.6934   0.7118   0.8423   0.8433   1.2743
     1.2743   1.2927   1.5505   1.5843   1.5844   1.8592   1.8651   1.9407
     1.9410   1.9669   1.9701   2.1972   2.1974   2.2853   2.2857   2.3575
     2.4227   2.4279   2.5892   2.6867   3.1277   3.1283   3.1310   3.1321
     3.1860   3.1866   3.4784   3.4787   3.7583   3.7628   3.8622   4.1743
     4.2163   4.2190   4.4208   4.4484   4.5184   4.5186   4.6094   4.7273
     4.7282   4.8445   4.8455   5.1493   5.1935   5.2187   5.2218   5.3956
     5.4023   5.6053   5.6072   5.6322   5.6330   5.6944   5.6974   5.7248
     5.7607   6.0194   6.2464   6.3019   6.3260   6.4385   6.4389   6.4511
     6.4536   6.4942   6.6103   6.6907   6.6954   6.7648   6.8949   6.9078
     6.9304   6.9886   7.0366

          k =-0.2500-0.4330 0.1111 (136853 PWs)   bands (ev):

   -18.7186  -6.5351  -6.3489  -5.9497  -5.9496  -5.2714  -4.9382  -4.9381
    -4.8987  -4.8985  -4.5379  -4.5379  -4.4393  -4.4392  -4.4252  -4.4033
    -4.3771  -4.2717  -4.2715  -4.2474  -4.2040  -4.2039  -4.1350  -4.1350
    -4.1278  -4.1277  -4.1069  -4.1008  -4.1006  -4.0279  -4.0276  -3.9986
    -3.9985  -3.9863  -3.9863  -3.9630  -3.9630  -3.9406  -3.9320  -3.9320
    -3.9052  -3.8530  -3.8530  -3.8051  -3.8050  -3.7454  -3.7453  -3.6911
    -3.6911  -3.6903  -3.6902  -3.6551  -3.6154  -3.6154  -3.6096  -3.6082
    -3.6080  -3.5770  -3.5770  -3.5687  -3.5065  -3.5065  -3.4970  -3.4810
    -3.4739  -3.4011  -3.4010  -3.3674  -3.3673  -3.3396  -3.3395  -3.3265
    -3.3096  -3.2492  -3.2492  -3.2319  -3.2318  -3.1797  -3.1747  -3.1746
    -3.1366  -3.1048  -3.1047  -3.0965  -3.0964  -3.0827  -3.0826  -3.0749
    -3.0748  -3.0650  -3.0244  -2.9865  -2.9864  -2.9717  -2.9716  -2.9458
    -2.9359  -2.9358  -2.9144  -2.8699  -2.8698  -2.8603  -2.8209  -2.8147
    -2.8032  -2.8031  -2.7737  -2.7735  -2.7503  -2.7441  -2.7065  -2.7060
    -2.6841  -2.6771  -2.6629  -2.6627  -2.6123  -2.6121  -2.5795  -2.5567
    -2.5566  -2.5323  -2.5322  -2.5211  -2.5210  -2.5102  -2.4871  -2.4870
    -2.4428  -2.4427  -2.4413  -2.4242  -2.4241  -2.4192  -2.4096  -2.4079
    -2.4065  -2.4063  -2.4011  -2.3880  -2.3878  -2.3779  -2.3517  -2.3514
    -2.3501  -2.3487  -2.3486  -2.3457  -2.3456  -2.3174  -2.3144  -2.3004
    -2.3003  -2.2826  -2.2826  -2.2724  -2.2723  -2.2706  -2.2705  -2.2507
    -2.2504  -2.2486  -2.2485  -2.2315  -2.2049  -2.2049  -2.1651  -2.1650
    -2.1391  -2.1390  -2.1118  -2.1118  -2.0839  -2.0838  -2.0662  -2.0622
    -2.0351  -2.0128  -2.0125  -2.0072  -2.0071  -2.0027  -1.9953  -1.9952
    -1.9696  -1.9631  -1.9529  -1.8959  -1.8920  -1.8917  -1.8888  -1.8887
    -1.8511  -1.8329  -1.8329  -1.8048  -1.8047  -1.7441  -1.7441  -1.7153
    -1.6969  -1.6968  -1.6355  -1.6354  -1.6235  -1.6234  -1.6123  -1.6122
    -1.6091  -1.5990  -1.5989  -1.5437  -1.5434  -1.5310  -1.5308  -1.5305
    -1.5108  -1.5107  -1.4753  -1.4751  -1.4578  -1.4577  -1.4576  -1.4511
    -1.4463  -1.4361  -1.4359  -1.4171  -1.4171  -1.3761  -1.3754  -1.3626
    -1.3625  -1.3424  -1.3291  -1.2855  -1.2853  -1.2598  -1.2545  -1.2544
    -1.2253  -1.1743  -1.1735  -1.1722  -1.1719  -1.1663  -1.1661  -1.1556
    -1.1371  -1.1370  -1.0970  -1.0967  -1.0661  -1.0659  -1.0611  -1.0609
    -1.0526  -1.0365  -1.0363  -1.0357  -1.0324  -1.0323  -0.9977  -0.9946
    -0.9926  -0.9925  -0.9618  -0.9609  -0.9578  -0.9358  -0.9257  -0.9253
    -0.8788  -0.8730  -0.8712  -0.8375  -0.8306  -0.8175  -0.8170  -0.8121
    -0.8088  -0.8080  -0.8074  -0.7971  -0.7955  -0.7715  -0.7694  -0.7665
    -0.7654  -0.7640  -0.7442  -0.7268  -0.7265  -0.7162  -0.7080  -0.6970
    -0.6926  -0.6859  -0.6798  -0.6250  -0.6224  -0.6139  -0.6138  -0.6126
    -0.6111  -0.6065  -0.5876  -0.5864  -0.5787  -0.5783  -0.5766  -0.5756
    -0.5371  -0.5345  -0.5341  -0.5260  -0.5257  -0.5205  -0.5189  -0.5071
    -0.5027  -0.4995  -0.4985  -0.4569  -0.4568  -0.4484  -0.4448  -0.4447
    -0.3672  -0.3669  -0.3645  -0.3643  -0.3551  -0.3548  -0.3185  -0.3056
    -0.3055  -0.2773  -0.2740  -0.2732  -0.1517  -0.1515  -0.0496   0.3658
     0.3658   0.3689   0.3690   0.4295   0.4312   0.8189   0.8192   0.8618
     0.8621   0.9703   1.0504   1.1616   1.1623   1.3828   1.3849   2.0158
     2.0166   2.1781   2.1791   2.3095   2.3113   2.4145   2.4145   2.5687
     2.8060   2.8110   2.9291   3.1547   3.1552   3.2384   3.2388   3.3386
     3.3538   3.5480   3.5510   3.6102   3.8110   3.8111   3.8733   3.8744
     4.1310   4.1382   4.1395   4.3815   4.4232   4.4242   4.4689   4.8053
     4.8057   4.8349   4.9692   5.1380   5.1420   5.1620   5.2013   5.3136
     5.7541   5.8963   5.9291   5.9368   5.9374   6.0049   6.0052   6.0626
     6.1015   6.1156   6.1398   6.1664   6.1683   6.1875   6.1914   6.2272
     6.2288   6.3807   6.5244   6.6570   6.7324   6.7504   6.8757   6.8770
     6.8860   6.9916   7.0546

          k =-0.2500 0.4330-0.1111 (136853 PWs)   bands (ev):

   -18.7186  -6.5351  -6.3489  -5.9511  -5.9481  -5.2714  -4.9387  -4.9377
    -4.9005  -4.8967  -4.5385  -4.5372  -4.4395  -4.4390  -4.4250  -4.4033
    -4.3771  -4.2721  -4.2713  -4.2475  -4.2043  -4.2038  -4.1352  -4.1348
    -4.1279  -4.1277  -4.1068  -4.1021  -4.0993  -4.0297  -4.0257  -3.9992
    -3.9976  -3.9864  -3.9861  -3.9631  -3.9629  -3.9406  -3.9321  -3.9319
    -3.9053  -3.8533  -3.8528  -3.8060  -3.8042  -3.7454  -3.7452  -3.6911
    -3.6910  -3.6905  -3.6898  -3.6553  -3.6156  -3.6153  -3.6095  -3.6083
    -3.6080  -3.5774  -3.5766  -3.5686  -3.5067  -3.5064  -3.4968  -3.4808
    -3.4737  -3.4017  -3.4007  -3.3678  -3.3666  -3.3399  -3.3390  -3.3264
    -3.3098  -3.2497  -3.2490  -3.2321  -3.2312  -3.1797  -3.1749  -3.1745
    -3.1365  -3.1054  -3.1043  -3.0970  -3.0957  -3.0829  -3.0826  -3.0750
    -3.0745  -3.0651  -3.0243  -2.9874  -2.9857  -2.9717  -2.9715  -2.9459
    -2.9363  -2.9355  -2.9144  -2.8707  -2.8689  -2.8606  -2.8208  -2.8147
    -2.8036  -2.8025  -2.7747  -2.7733  -2.7496  -2.7443  -2.7064  -2.7057
    -2.6842  -2.6772  -2.6631  -2.6626  -2.6124  -2.6120  -2.5793  -2.5569
    -2.5567  -2.5328  -2.5320  -2.5214  -2.5205  -2.5103  -2.4876  -2.4868
    -2.4428  -2.4420  -2.4413  -2.4247  -2.4236  -2.4193  -2.4095  -2.4078
    -2.4068  -2.4062  -2.4010  -2.3883  -2.3871  -2.3781  -2.3517  -2.3512
    -2.3498  -2.3493  -2.3484  -2.3462  -2.3449  -2.3177  -2.3145  -2.3005
    -2.3001  -2.2829  -2.2823  -2.2724  -2.2721  -2.2715  -2.2699  -2.2515
    -2.2499  -2.2496  -2.2474  -2.2316  -2.2055  -2.2047  -2.1659  -2.1643
    -2.1396  -2.1386  -2.1117  -2.1114  -2.0841  -2.0835  -2.0662  -2.0620
    -2.0349  -2.0132  -2.0121  -2.0074  -2.0068  -2.0028  -1.9961  -1.9948
    -1.9695  -1.9627  -1.9529  -1.8959  -1.8927  -1.8914  -1.8891  -1.8887
    -1.8512  -1.8340  -1.8318  -1.8049  -1.8047  -1.7448  -1.7432  -1.7156
    -1.6970  -1.6965  -1.6359  -1.6350  -1.6241  -1.6228  -1.6126  -1.6119
    -1.6092  -1.5999  -1.5982  -1.5440  -1.5429  -1.5310  -1.5309  -1.5308
    -1.5115  -1.5098  -1.4756  -1.4749  -1.4583  -1.4578  -1.4572  -1.4509
    -1.4463  -1.4366  -1.4355  -1.4174  -1.4166  -1.3761  -1.3753  -1.3630
    -1.3619  -1.3423  -1.3291  -1.2861  -1.2848  -1.2599  -1.2548  -1.2543
    -1.2254  -1.1747  -1.1735  -1.1725  -1.1717  -1.1670  -1.1658  -1.1556
    -1.1376  -1.1362  -1.0976  -1.0960  -1.0662  -1.0657  -1.0612  -1.0609
    -1.0525  -1.0369  -1.0363  -1.0356  -1.0321  -1.0319  -0.9980  -0.9945
    -0.9926  -0.9924  -0.9618  -0.9610  -0.9575  -0.9362  -0.9258  -0.9249
    -0.8791  -0.8732  -0.8708  -0.8376  -0.8305  -0.8177  -0.8168  -0.8117
    -0.8088  -0.8081  -0.8073  -0.7969  -0.7955  -0.7716  -0.7695  -0.7668
    -0.7651  -0.7640  -0.7443  -0.7267  -0.7264  -0.7164  -0.7074  -0.6971
    -0.6927  -0.6865  -0.6797  -0.6250  -0.6224  -0.6139  -0.6138  -0.6126
    -0.6109  -0.6066  -0.5877  -0.5864  -0.5789  -0.5782  -0.5767  -0.5751
    -0.5371  -0.5348  -0.5339  -0.5264  -0.5254  -0.5204  -0.5189  -0.5069
    -0.5027  -0.4998  -0.4985  -0.4573  -0.4565  -0.4485  -0.4451  -0.4444
    -0.3677  -0.3665  -0.3644  -0.3642  -0.3552  -0.3547  -0.3184  -0.3058
    -0.3054  -0.2789  -0.2735  -0.2721  -0.1529  -0.1503  -0.0495   0.3658
     0.3660   0.3686   0.3692   0.4288   0.4318   0.8185   0.8196   0.8614
     0.8624   0.9705   1.0504   1.1592   1.1647   1.3789   1.3887   2.0157
     2.0167   2.1770   2.1803   2.3082   2.3127   2.4141   2.4149   2.5685
     2.8058   2.8118   2.9289   3.1513   3.1583   3.2382   3.2393   3.3383
     3.3538   3.5383   3.5603   3.6106   3.8103   3.8118   3.8739   3.8745
     4.1306   4.1370   4.1405   4.3821   4.4231   4.4241   4.4687   4.8038
     4.8072   4.8339   4.9696   5.1375   5.1422   5.1498   5.2098   5.3222
     5.7513   5.8975   5.9295   5.9348   5.9396   6.0040   6.0059   6.0639
     6.0970   6.1165   6.1396   6.1661   6.1691   6.1788   6.1983   6.2276
     6.2294   6.3801   6.5183   6.6719   6.7158   6.7631   6.8732   6.8785
     6.8856   6.9927   7.0046

          k = 0.2500-0.4330-0.1111 (136853 PWs)   bands (ev):

   -18.7186  -6.5351  -6.3489  -5.9511  -5.9481  -5.2714  -4.9387  -4.9377
    -4.9005  -4.8967  -4.5385  -4.5372  -4.4395  -4.4390  -4.4250  -4.4033
    -4.3771  -4.2721  -4.2713  -4.2475  -4.2043  -4.2038  -4.1352  -4.1348
    -4.1279  -4.1277  -4.1068  -4.1021  -4.0993  -4.0297  -4.0257  -3.9992
    -3.9976  -3.9864  -3.9861  -3.9631  -3.9629  -3.9406  -3.9321  -3.9319
    -3.9053  -3.8533  -3.8528  -3.8060  -3.8042  -3.7454  -3.7452  -3.6911
    -3.6910  -3.6905  -3.6898  -3.6553  -3.6156  -3.6153  -3.6095  -3.6083
    -3.6080  -3.5774  -3.5766  -3.5686  -3.5067  -3.5064  -3.4968  -3.4808
    -3.4737  -3.4017  -3.4007  -3.3678  -3.3666  -3.3399  -3.3390  -3.3264
    -3.3098  -3.2497  -3.2490  -3.2321  -3.2312  -3.1797  -3.1749  -3.1745
    -3.1365  -3.1054  -3.1043  -3.0970  -3.0957  -3.0829  -3.0826  -3.0750
    -3.0745  -3.0651  -3.0243  -2.9874  -2.9857  -2.9717  -2.9715  -2.9459
    -2.9363  -2.9355  -2.9144  -2.8707  -2.8689  -2.8606  -2.8208  -2.8147
    -2.8036  -2.8025  -2.7747  -2.7733  -2.7496  -2.7443  -2.7064  -2.7057
    -2.6842  -2.6772  -2.6631  -2.6626  -2.6124  -2.6120  -2.5793  -2.5569
    -2.5567  -2.5328  -2.5320  -2.5214  -2.5205  -2.5103  -2.4876  -2.4868
    -2.4428  -2.4420  -2.4413  -2.4247  -2.4236  -2.4193  -2.4095  -2.4078
    -2.4068  -2.4062  -2.4010  -2.3883  -2.3871  -2.3781  -2.3517  -2.3513
    -2.3498  -2.3493  -2.3484  -2.3462  -2.3449  -2.3177  -2.3145  -2.3005
    -2.3001  -2.2829  -2.2823  -2.2724  -2.2721  -2.2715  -2.2699  -2.2515
    -2.2499  -2.2496  -2.2474  -2.2316  -2.2055  -2.2047  -2.1659  -2.1643
    -2.1396  -2.1386  -2.1117  -2.1114  -2.0841  -2.0835  -2.0662  -2.0620
    -2.0349  -2.0132  -2.0121  -2.0074  -2.0068  -2.0028  -1.9961  -1.9948
    -1.9695  -1.9627  -1.9529  -1.8959  -1.8927  -1.8914  -1.8891  -1.8887
    -1.8512  -1.8340  -1.8318  -1.8049  -1.8047  -1.7448  -1.7432  -1.7156
    -1.6970  -1.6965  -1.6359  -1.6350  -1.6241  -1.6228  -1.6126  -1.6119
    -1.6092  -1.5999  -1.5982  -1.5440  -1.5429  -1.5310  -1.5309  -1.5308
    -1.5115  -1.5098  -1.4756  -1.4749  -1.4583  -1.4578  -1.4572  -1.4509
    -1.4463  -1.4366  -1.4355  -1.4174  -1.4166  -1.3761  -1.3753  -1.3630
    -1.3619  -1.3423  -1.3291  -1.2861  -1.2848  -1.2599  -1.2548  -1.2543
    -1.2254  -1.1747  -1.1735  -1.1725  -1.1717  -1.1669  -1.1658  -1.1556
    -1.1376  -1.1362  -1.0976  -1.0960  -1.0662  -1.0657  -1.0612  -1.0609
    -1.0525  -1.0369  -1.0363  -1.0356  -1.0321  -1.0319  -0.9980  -0.9945
    -0.9926  -0.9924  -0.9618  -0.9610  -0.9575  -0.9362  -0.9258  -0.9249
    -0.8791  -0.8732  -0.8708  -0.8376  -0.8305  -0.8177  -0.8168  -0.8117
    -0.8088  -0.8081  -0.8073  -0.7969  -0.7955  -0.7716  -0.7695  -0.7668
    -0.7651  -0.7640  -0.7444  -0.7267  -0.7264  -0.7164  -0.7074  -0.6971
    -0.6927  -0.6865  -0.6797  -0.6250  -0.6224  -0.6139  -0.6138  -0.6126
    -0.6109  -0.6066  -0.5877  -0.5864  -0.5789  -0.5782  -0.5767  -0.5751
    -0.5371  -0.5348  -0.5339  -0.5264  -0.5254  -0.5204  -0.5189  -0.5069
    -0.5027  -0.4998  -0.4985  -0.4573  -0.4565  -0.4485  -0.4451  -0.4444
    -0.3677  -0.3665  -0.3644  -0.3642  -0.3552  -0.3547  -0.3184  -0.3058
    -0.3054  -0.2789  -0.2735  -0.2721  -0.1529  -0.1503  -0.0495   0.3658
     0.3660   0.3686   0.3692   0.4288   0.4318   0.8185   0.8196   0.8614
     0.8624   0.9705   1.0504   1.1592   1.1647   1.3789   1.3887   2.0157
     2.0167   2.1770   2.1803   2.3082   2.3127   2.4141   2.4149   2.5685
     2.8058   2.8118   2.9289   3.1513   3.1583   3.2382   3.2393   3.3383
     3.3538   3.5383   3.5603   3.6106   3.8103   3.8118   3.8739   3.8745
     4.1306   4.1370   4.1405   4.3821   4.4231   4.4241   4.4687   4.8038
     4.8072   4.8339   4.9696   5.1375   5.1422   5.1498   5.2098   5.3222
     5.7510   5.8981   5.9295   5.9348   5.9397   6.0040   6.0059   6.0635
     6.0965   6.1161   6.1396   6.1661   6.1688   6.1789   6.1987   6.2276
     6.2295   6.3836   6.5142   6.6626   6.7340   6.7641   6.8737   6.8788
     6.8857   6.9859   7.0431

          k = 0.5000 0.0000 0.1111 (136853 PWs)   bands (ev):

   -18.7186  -6.5351  -6.3489  -5.9511  -5.9481  -5.2714  -4.9391  -4.9373
    -4.9005  -4.8967  -4.5386  -4.5371  -4.4394  -4.4391  -4.4250  -4.4033
    -4.3771  -4.2721  -4.2713  -4.2475  -4.2041  -4.2039  -4.1353  -4.1346
    -4.1284  -4.1272  -4.1067  -4.1024  -4.0991  -4.0300  -4.0255  -3.9994
    -3.9974  -3.9865  -3.9860  -3.9630  -3.9630  -3.9406  -3.9322  -3.9319
    -3.9053  -3.8532  -3.8529  -3.8061  -3.8040  -3.7453  -3.7452  -3.6912
    -3.6911  -3.6903  -3.6899  -3.6553  -3.6156  -3.6154  -3.6095  -3.6085
    -3.6078  -3.5777  -3.5764  -3.5687  -3.5066  -3.5065  -3.4968  -3.4808
    -3.4737  -3.4016  -3.4008  -3.3677  -3.3669  -3.3399  -3.3391  -3.3264
    -3.3098  -3.2497  -3.2489  -3.2320  -3.2313  -3.1797  -3.1748  -3.1745
    -3.1365  -3.1057  -3.1039  -3.0969  -3.0958  -3.0829  -3.0825  -3.0750
    -3.0744  -3.0652  -3.0243  -2.9873  -2.9858  -2.9718  -2.9714  -2.9458
    -2.9360  -2.9358  -2.9144  -2.8706  -2.8690  -2.8606  -2.8208  -2.8147
    -2.8036  -2.8025  -2.7750  -2.7736  -2.7484  -2.7445  -2.7063  -2.7060
    -2.6842  -2.6772  -2.6632  -2.6627  -2.6126  -2.6117  -2.5793  -2.5570
    -2.5567  -2.5327  -2.5320  -2.5211  -2.5207  -2.5103  -2.4876  -2.4867
    -2.4430  -2.4419  -2.4413  -2.4247  -2.4235  -2.4193  -2.4095  -2.4079
    -2.4068  -2.4061  -2.4011  -2.3883  -2.3871  -2.3782  -2.3517  -2.3512
    -2.3497  -2.3493  -2.3484  -2.3463  -2.3448  -2.3177  -2.3145  -2.3005
    -2.3002  -2.2829  -2.2823  -2.2724  -2.2722  -2.2716  -2.2697  -2.2512
    -2.2502  -2.2496  -2.2473  -2.2316  -2.2053  -2.2049  -2.1659  -2.1642
    -2.1397  -2.1386  -2.1117  -2.1114  -2.0842  -2.0834  -2.0662  -2.0620
    -2.0350  -2.0129  -2.0124  -2.0073  -2.0068  -2.0028  -1.9961  -1.9946
    -1.9696  -1.9628  -1.9528  -1.8958  -1.8929  -1.8912  -1.8895  -1.8883
    -1.8512  -1.8339  -1.8319  -1.8050  -1.8046  -1.7448  -1.7432  -1.7156
    -1.6969  -1.6965  -1.6358  -1.6350  -1.6240  -1.6229  -1.6126  -1.6119
    -1.6092  -1.5996  -1.5985  -1.5441  -1.5427  -1.5312  -1.5309  -1.5306
    -1.5117  -1.5097  -1.4755  -1.4750  -1.4582  -1.4577  -1.4572  -1.4509
    -1.4463  -1.4366  -1.4354  -1.4174  -1.4166  -1.3766  -1.3748  -1.3632
    -1.3616  -1.3423  -1.3291  -1.2860  -1.2849  -1.2600  -1.2549  -1.2542
    -1.2254  -1.1743  -1.1739  -1.1724  -1.1718  -1.1668  -1.1658  -1.1556
    -1.1376  -1.1362  -1.0976  -1.0960  -1.0661  -1.0659  -1.0616  -1.0605
    -1.0525  -1.0371  -1.0361  -1.0357  -1.0321  -1.0320  -0.9986  -0.9938
    -0.9928  -0.9921  -0.9621  -0.9609  -0.9573  -0.9360  -0.9264  -0.9244
    -0.8790  -0.8734  -0.8709  -0.8376  -0.8306  -0.8174  -0.8169  -0.8121
    -0.8087  -0.8083  -0.8071  -0.7968  -0.7957  -0.7715  -0.7697  -0.7664
    -0.7649  -0.7643  -0.7437  -0.7270  -0.7262  -0.7161  -0.7084  -0.6972
    -0.6926  -0.6860  -0.6796  -0.6249  -0.6225  -0.6140  -0.6136  -0.6126
    -0.6111  -0.6067  -0.5877  -0.5864  -0.5787  -0.5784  -0.5764  -0.5755
    -0.5372  -0.5344  -0.5342  -0.5262  -0.5255  -0.5206  -0.5189  -0.5070
    -0.5027  -0.4995  -0.4987  -0.4571  -0.4567  -0.4485  -0.4450  -0.4445
    -0.3675  -0.3667  -0.3645  -0.3641  -0.3551  -0.3549  -0.3184  -0.3057
    -0.3054  -0.2777  -0.2737  -0.2731  -0.1527  -0.1505  -0.0495   0.3657
     0.3661   0.3685   0.3693   0.4294   0.4311   0.8183   0.8198   0.8615
     0.8623   0.9705   1.0505   1.1595   1.1645   1.3793   1.3883   2.0155
     2.0168   2.1777   2.1796   2.3090   2.3118   2.4138   2.4153   2.5685
     2.8060   2.8115   2.9290   3.1516   3.1580   3.2378   3.2396   3.3384
     3.3538   3.5378   3.5609   3.6104   3.8105   3.8116   3.8733   3.8749
     4.1305   4.1375   4.1401   4.3819   4.4227   4.4245   4.4687   4.8041
     4.8068   4.8341   4.9696   5.1342   5.1419   5.1473   5.2106   5.3361
     5.7254   5.9258   5.9295   5.9353   5.9390   6.0042   6.0052   6.0488
     6.0884   6.1154   6.1399   6.1664   6.1686   6.1793   6.1989   6.2277
     6.2301   6.3616   6.5633   6.6769   6.7177   6.7724   6.8733   6.8788
     6.8854   6.9587   7.0633

          k =-0.5000 0.0000 0.1111 (136853 PWs)   bands (ev):

   -18.7186  -6.5351  -6.3489  -5.9511  -5.9481  -5.2714  -4.9391  -4.9373
    -4.9005  -4.8967  -4.5386  -4.5371  -4.4394  -4.4391  -4.4250  -4.4033
    -4.3771  -4.2721  -4.2713  -4.2475  -4.2042  -4.2039  -4.1353  -4.1346
    -4.1284  -4.1272  -4.1067  -4.1024  -4.0991  -4.0300  -4.0255  -3.9994
    -3.9974  -3.9865  -3.9860  -3.9630  -3.9630  -3.9406  -3.9322  -3.9319
    -3.9053  -3.8532  -3.8529  -3.8061  -3.8040  -3.7453  -3.7452  -3.6912
    -3.6911  -3.6903  -3.6899  -3.6553  -3.6156  -3.6154  -3.6095  -3.6085
    -3.6078  -3.5777  -3.5764  -3.5687  -3.5066  -3.5065  -3.4968  -3.4808
    -3.4737  -3.4016  -3.4008  -3.3677  -3.3669  -3.3399  -3.3391  -3.3264
    -3.3098  -3.2497  -3.2489  -3.2320  -3.2313  -3.1797  -3.1748  -3.1745
    -3.1365  -3.1057  -3.1039  -3.0969  -3.0958  -3.0829  -3.0825  -3.0750
    -3.0744  -3.0652  -3.0243  -2.9873  -2.9858  -2.9718  -2.9714  -2.9458
    -2.9360  -2.9358  -2.9144  -2.8706  -2.8690  -2.8606  -2.8208  -2.8147
    -2.8036  -2.8025  -2.7750  -2.7736  -2.7484  -2.7445  -2.7063  -2.7060
    -2.6842  -2.6772  -2.6632  -2.6627  -2.6126  -2.6117  -2.5793  -2.5570
    -2.5567  -2.5327  -2.5320  -2.5211  -2.5207  -2.5103  -2.4876  -2.4867
    -2.4430  -2.4419  -2.4413  -2.4247  -2.4235  -2.4193  -2.4095  -2.4079
    -2.4068  -2.4061  -2.4011  -2.3883  -2.3871  -2.3782  -2.3517  -2.3512
    -2.3497  -2.3493  -2.3484  -2.3463  -2.3448  -2.3177  -2.3145  -2.3005
    -2.3002  -2.2829  -2.2823  -2.2723  -2.2722  -2.2716  -2.2697  -2.2512
    -2.2502  -2.2496  -2.2473  -2.2316  -2.2053  -2.2049  -2.1659  -2.1642
    -2.1397  -2.1386  -2.1117  -2.1114  -2.0842  -2.0834  -2.0662  -2.0620
    -2.0350  -2.0129  -2.0124  -2.0073  -2.0068  -2.0028  -1.9961  -1.9946
    -1.9696  -1.9628  -1.9528  -1.8958  -1.8929  -1.8912  -1.8895  -1.8883
    -1.8512  -1.8339  -1.8319  -1.8050  -1.8046  -1.7448  -1.7432  -1.7156
    -1.6969  -1.6965  -1.6358  -1.6350  -1.6240  -1.6229  -1.6126  -1.6119
    -1.6092  -1.5996  -1.5985  -1.5441  -1.5427  -1.5312  -1.5309  -1.5306
    -1.5117  -1.5097  -1.4755  -1.4750  -1.4582  -1.4577  -1.4572  -1.4509
    -1.4463  -1.4366  -1.4354  -1.4174  -1.4166  -1.3766  -1.3748  -1.3632
    -1.3616  -1.3423  -1.3291  -1.2860  -1.2849  -1.2600  -1.2549  -1.2542
    -1.2254  -1.1743  -1.1739  -1.1724  -1.1718  -1.1668  -1.1658  -1.1556
    -1.1376  -1.1362  -1.0976  -1.0960  -1.0661  -1.0659  -1.0616  -1.0605
    -1.0525  -1.0371  -1.0361  -1.0357  -1.0321  -1.0320  -0.9986  -0.9938
    -0.9928  -0.9921  -0.9621  -0.9609  -0.9573  -0.9360  -0.9264  -0.9244
    -0.8790  -0.8734  -0.8709  -0.8376  -0.8306  -0.8174  -0.8169  -0.8121
    -0.8087  -0.8083  -0.8071  -0.7968  -0.7957  -0.7715  -0.7697  -0.7664
    -0.7649  -0.7643  -0.7437  -0.7270  -0.7262  -0.7161  -0.7084  -0.6972
    -0.6926  -0.6860  -0.6796  -0.6249  -0.6225  -0.6140  -0.6136  -0.6126
    -0.6111  -0.6067  -0.5877  -0.5864  -0.5787  -0.5784  -0.5764  -0.5755
    -0.5372  -0.5344  -0.5342  -0.5262  -0.5255  -0.5206  -0.5189  -0.5070
    -0.5027  -0.4995  -0.4987  -0.4571  -0.4567  -0.4485  -0.4450  -0.4445
    -0.3675  -0.3667  -0.3645  -0.3641  -0.3551  -0.3549  -0.3184  -0.3057
    -0.3054  -0.2777  -0.2737  -0.2731  -0.1527  -0.1505  -0.0495   0.3657
     0.3661   0.3685   0.3693   0.4294   0.4311   0.8183   0.8198   0.8615
     0.8623   0.9705   1.0505   1.1595   1.1645   1.3793   1.3883   2.0155
     2.0168   2.1777   2.1796   2.3090   2.3118   2.4138   2.4153   2.5685
     2.8060   2.8115   2.9290   3.1516   3.1580   3.2378   3.2396   3.3384
     3.3538   3.5378   3.5609   3.6104   3.8105   3.8116   3.8733   3.8749
     4.1305   4.1375   4.1401   4.3819   4.4227   4.4245   4.4687   4.8041
     4.8068   4.8341   4.9696   5.1342   5.1419   5.1473   5.2106   5.3363
     5.7241   5.9258   5.9295   5.9353   5.9390   6.0042   6.0052   6.0521
     6.0887   6.1154   6.1399   6.1663   6.1686   6.1787   6.1987   6.2277
     6.2300   6.3657   6.5636   6.6418   6.7328   6.7755   6.8740   6.8788
     6.8854   6.9805   7.0633

          k =-0.2500 0.1443 0.1111 (136898 PWs)   bands (ev):

   -18.7186  -6.5596  -6.5343  -5.7669  -5.4753  -5.4166  -5.4165  -4.8782
    -4.8781  -4.7461  -4.7459  -4.5908  -4.5598  -4.4985  -4.4647  -4.4642
    -4.4315  -4.4315  -4.3030  -4.2612  -4.2611  -4.2011  -4.1799  -4.1797
    -4.0776  -4.0776  -4.0415  -4.0412  -4.0412  -4.0141  -3.9927  -3.9926
    -3.8870  -3.8855  -3.8854  -3.8646  -3.8478  -3.8477  -3.8355  -3.8352
    -3.8219  -3.7920  -3.7918  -3.7917  -3.7916  -3.7587  -3.7586  -3.7412
    -3.7411  -3.7264  -3.6828  -3.6828  -3.6528  -3.6376  -3.6369  -3.6330
    -3.6329  -3.5583  -3.5582  -3.5227  -3.5204  -3.5201  -3.4528  -3.4527
    -3.4373  -3.4371  -3.4062  -3.4059  -3.4049  -3.4047  -3.2516  -3.2513
    -3.2258  -3.2257  -3.2206  -3.2046  -3.2044  -3.1785  -3.1784  -3.1287
    -3.1286  -3.1124  -3.1122  -3.0920  -3.0432  -3.0432  -3.0236  -3.0187
    -3.0185  -2.9777  -2.9775  -2.9713  -2.9711  -2.9545  -2.9541  -2.9148
    -2.9148  -2.8931  -2.8929  -2.8900  -2.8896  -2.8867  -2.8095  -2.8092
    -2.8079  -2.7792  -2.7789  -2.7503  -2.7169  -2.7159  -2.6888  -2.6874
    -2.6743  -2.6741  -2.6689  -2.6392  -2.6391  -2.6297  -2.6119  -2.5862
    -2.5861  -2.5857  -2.5651  -2.5649  -2.5537  -2.5535  -2.5504  -2.5497
    -2.5422  -2.4962  -2.4635  -2.4634  -2.4480  -2.4338  -2.4274  -2.4272
    -2.4199  -2.4196  -2.4182  -2.3883  -2.3881  -2.3880  -2.3783  -2.3782
    -2.3608  -2.3335  -2.3327  -2.3323  -2.3317  -2.3316  -2.2864  -2.2548
    -2.2545  -2.2543  -2.2474  -2.2388  -2.2257  -2.2255  -2.2089  -2.2089
    -2.1752  -2.1738  -2.1735  -2.1549  -2.1535  -2.1530  -2.1205  -2.1199
    -2.0793  -2.0786  -2.0713  -2.0693  -2.0691  -2.0626  -2.0624  -2.0602
    -2.0600  -2.0533  -2.0522  -2.0362  -2.0356  -1.9091  -1.9080  -1.8763
    -1.8704  -1.8695  -1.8647  -1.8646  -1.8466  -1.8465  -1.8438  -1.8432
    -1.8417  -1.8190  -1.8113  -1.8099  -1.8074  -1.7985  -1.7984  -1.7756
    -1.7754  -1.7468  -1.7468  -1.7146  -1.7140  -1.7042  -1.6960  -1.6784
    -1.6780  -1.6752  -1.6568  -1.6445  -1.6444  -1.6370  -1.6368  -1.6102
    -1.6099  -1.5928  -1.5927  -1.5613  -1.5605  -1.5505  -1.4997  -1.4996
    -1.4874  -1.4866  -1.4863  -1.4614  -1.4590  -1.4252  -1.4246  -1.4244
    -1.3914  -1.3810  -1.3802  -1.3649  -1.3646  -1.3382  -1.3367  -1.3363
    -1.3068  -1.3040  -1.3038  -1.2413  -1.2409  -1.2281  -1.2271  -1.2113
    -1.2112  -1.1986  -1.1984  -1.1805  -1.1678  -1.1400  -1.1398  -1.1286
    -1.1025  -1.0904  -1.0898  -1.0784  -1.0783  -1.0763  -1.0710  -1.0703
    -1.0574  -1.0262  -1.0261  -1.0172  -1.0154  -1.0136  -1.0129  -0.9894
    -0.9727  -0.9706  -0.9504  -0.9494  -0.8590  -0.8433  -0.8379  -0.8377
    -0.8345  -0.8301  -0.8283  -0.8121  -0.8024  -0.7887  -0.7871  -0.7739
    -0.7725  -0.7630  -0.7508  -0.7427  -0.7410  -0.7327  -0.7198  -0.6608
    -0.6607  -0.6267  -0.6241  -0.6223  -0.6154  -0.6140  -0.6137  -0.6129
    -0.6005  -0.5988  -0.5819  -0.5596  -0.5444  -0.5250  -0.5244  -0.5135
    -0.5128  -0.5005  -0.5001  -0.4994  -0.4980  -0.4974  -0.4803  -0.4759
    -0.4754  -0.4452  -0.4436  -0.4432  -0.4314  -0.4314  -0.4121  -0.3799
    -0.3797  -0.3707  -0.3703  -0.3024  -0.3022  -0.2647  -0.2647  -0.2069
    -0.2053  -0.2052  -0.1939  -0.1768   0.0456   0.0497   0.3941   0.3941
     0.4842   0.4879   0.6797   0.6934   0.7117   0.8423   0.8433   1.2743
     1.2743   1.2927   1.5505   1.5843   1.5844   1.8592   1.8651   1.9407
     1.9410   1.9669   1.9701   2.1972   2.1974   2.2853   2.2857   2.3575
     2.4227   2.4279   2.5892   2.6867   3.1277   3.1283   3.1310   3.1321
     3.1860   3.1866   3.4784   3.4787   3.7583   3.7628   3.8622   4.1743
     4.2163   4.2190   4.4208   4.4484   4.5184   4.5186   4.6094   4.7273
     4.7282   4.8445   4.8455   5.1493   5.1935   5.2187   5.2218   5.3957
     5.4022   5.6053   5.6072   5.6322   5.6330   5.6944   5.6974   5.7243
     5.7597   6.0223   6.2503   6.3014   6.3216   6.4383   6.4389   6.4510
     6.4535   6.4975   6.5990   6.6911   6.6953   6.7800   6.8903   6.9081
     6.9308   6.9838   7.0394

          k =-0.2500-0.1443-0.1111 (136898 PWs)   bands (ev):

   -18.7186  -6.5596  -6.5343  -5.7669  -5.4753  -5.4166  -5.4165  -4.8781
    -4.8780  -4.7465  -4.7455  -4.5908  -4.5598  -4.4987  -4.4646  -4.4643
    -4.4316  -4.4312  -4.3029  -4.2614  -4.2609  -4.2009  -4.1799  -4.1798
    -4.0776  -4.0775  -4.0415  -4.0412  -4.0412  -4.0140  -3.9929  -3.9924
    -3.8869  -3.8857  -3.8853  -3.8645  -3.8479  -3.8477  -3.8354  -3.8353
    -3.8218  -3.7920  -3.7918  -3.7916  -3.7915  -3.7588  -3.7586  -3.7411
    -3.7411  -3.7262  -3.6830  -3.6826  -3.6530  -3.6374  -3.6371  -3.6330
    -3.6328  -3.5584  -3.5582  -3.5225  -3.5202  -3.5200  -3.4530  -3.4528
    -3.4371  -3.4370  -3.4060  -3.4056  -3.4054  -3.4051  -3.2516  -3.2515
    -3.2258  -3.2257  -3.2205  -3.2046  -3.2045  -3.1785  -3.1782  -3.1287
    -3.1286  -3.1124  -3.1122  -3.0919  -3.0433  -3.0429  -3.0237  -3.0187
    -3.0186  -2.9778  -2.9776  -2.9713  -2.9712  -2.9545  -2.9542  -2.9147
    -2.9146  -2.8932  -2.8928  -2.8898  -2.8896  -2.8866  -2.8096  -2.8092
    -2.8081  -2.7791  -2.7790  -2.7501  -2.7168  -2.7161  -2.6887  -2.6874
    -2.6741  -2.6740  -2.6690  -2.6392  -2.6389  -2.6297  -2.6118  -2.5863
    -2.5861  -2.5860  -2.5650  -2.5650  -2.5541  -2.5537  -2.5500  -2.5498
    -2.5423  -2.4961  -2.4635  -2.4634  -2.4479  -2.4340  -2.4273  -2.4272
    -2.4199  -2.4197  -2.4184  -2.3884  -2.3881  -2.3879  -2.3783  -2.3780
    -2.3606  -2.3338  -2.3332  -2.3322  -2.3315  -2.3312  -2.2865  -2.2551
    -2.2545  -2.2543  -2.2473  -2.2389  -2.2255  -2.2253  -2.2088  -2.2087
    -2.1752  -2.1736  -2.1735  -2.1550  -2.1534  -2.1532  -2.1203  -2.1201
    -2.0795  -2.0784  -2.0711  -2.0692  -2.0690  -2.0627  -2.0625  -2.0608
    -2.0597  -2.0529  -2.0524  -2.0361  -2.0358  -1.9087  -1.9083  -1.8762
    -1.8701  -1.8697  -1.8646  -1.8645  -1.8472  -1.8470  -1.8436  -1.8432
    -1.8412  -1.8190  -1.8108  -1.8102  -1.8076  -1.7984  -1.7980  -1.7757
    -1.7756  -1.7472  -1.7466  -1.7144  -1.7142  -1.7041  -1.6960  -1.6783
    -1.6780  -1.6749  -1.6568  -1.6447  -1.6445  -1.6371  -1.6369  -1.6099
    -1.6098  -1.5931  -1.5924  -1.5613  -1.5607  -1.5505  -1.5001  -1.4994
    -1.4874  -1.4867  -1.4865  -1.4617  -1.4587  -1.4252  -1.4245  -1.4241
    -1.3915  -1.3807  -1.3802  -1.3647  -1.3645  -1.3382  -1.3367  -1.3364
    -1.3068  -1.3039  -1.3038  -1.2414  -1.2412  -1.2279  -1.2274  -1.2114
    -1.2112  -1.1984  -1.1983  -1.1800  -1.1676  -1.1401  -1.1398  -1.1287
    -1.1022  -1.0905  -1.0898  -1.0785  -1.0784  -1.0767  -1.0710  -1.0705
    -1.0573  -1.0263  -1.0261  -1.0174  -1.0148  -1.0139  -1.0131  -0.9895
    -0.9730  -0.9708  -0.9502  -0.9493  -0.8587  -0.8433  -0.8380  -0.8376
    -0.8351  -0.8295  -0.8285  -0.8118  -0.8024  -0.7888  -0.7869  -0.7743
    -0.7725  -0.7632  -0.7508  -0.7426  -0.7411  -0.7327  -0.7198  -0.6608
    -0.6605  -0.6263  -0.6242  -0.6224  -0.6150  -0.6142  -0.6139  -0.6128
    -0.6006  -0.5988  -0.5819  -0.5595  -0.5448  -0.5249  -0.5245  -0.5135
    -0.5129  -0.5007  -0.4995  -0.4995  -0.4979  -0.4976  -0.4802  -0.4760
    -0.4755  -0.4452  -0.4437  -0.4430  -0.4315  -0.4312  -0.4121  -0.3799
    -0.3797  -0.3705  -0.3703  -0.3027  -0.3020  -0.2650  -0.2644  -0.2069
    -0.2055  -0.2050  -0.1940  -0.1768   0.0467   0.0486   0.3941   0.3941
     0.4855   0.4869   0.6784   0.6943   0.7119   0.8427   0.8430   1.2742
     1.2744   1.2929   1.5508   1.5842   1.5845   1.8610   1.8630   1.9407
     1.9408   1.9680   1.9691   2.1970   2.1974   2.2854   2.2855   2.3578
     2.4241   2.4260   2.5891   2.6869   3.1276   3.1282   3.1314   3.1319
     3.1863   3.1866   3.4784   3.4787   3.7599   3.7614   3.8621   4.1743
     4.2171   4.2181   4.4273   4.4417   4.5179   4.5194   4.6095   4.7270
     4.7283   4.8449   4.8454   5.1493   5.1943   5.2183   5.2217   5.3883
     5.4057   5.6058   5.6067   5.6319   5.6328   5.6948   5.6972   5.7224
     5.7667   6.0187   6.2481   6.3019   6.3231   6.4386   6.4396   6.4517
     6.4529   6.4959   6.6078   6.6914   6.6940   6.7707   6.8894   6.9130
     6.9305   6.9832   7.0437

          k = 0.2500 0.1443-0.1111 (136898 PWs)   bands (ev):

   -18.7186  -6.5596  -6.5343  -5.7669  -5.4753  -5.4166  -5.4165  -4.8781
    -4.8780  -4.7465  -4.7455  -4.5908  -4.5598  -4.4986  -4.4646  -4.4643
    -4.4316  -4.4312  -4.3029  -4.2614  -4.2609  -4.2009  -4.1799  -4.1797
    -4.0776  -4.0775  -4.0415  -4.0412  -4.0412  -4.0140  -3.9929  -3.9924
    -3.8869  -3.8857  -3.8853  -3.8645  -3.8479  -3.8477  -3.8354  -3.8353
    -3.8218  -3.7920  -3.7918  -3.7916  -3.7915  -3.7588  -3.7586  -3.7412
    -3.7411  -3.7262  -3.6830  -3.6826  -3.6530  -3.6374  -3.6371  -3.6330
    -3.6328  -3.5584  -3.5582  -3.5225  -3.5202  -3.5200  -3.4530  -3.4528
    -3.4371  -3.4370  -3.4060  -3.4056  -3.4054  -3.4051  -3.2516  -3.2515
    -3.2258  -3.2257  -3.2205  -3.2046  -3.2045  -3.1785  -3.1782  -3.1287
    -3.1286  -3.1124  -3.1122  -3.0919  -3.0433  -3.0429  -3.0237  -3.0187
    -3.0186  -2.9778  -2.9776  -2.9713  -2.9712  -2.9545  -2.9542  -2.9147
    -2.9146  -2.8932  -2.8928  -2.8898  -2.8896  -2.8866  -2.8096  -2.8092
    -2.8081  -2.7791  -2.7790  -2.7501  -2.7168  -2.7161  -2.6887  -2.6874
    -2.6741  -2.6740  -2.6690  -2.6392  -2.6389  -2.6297  -2.6118  -2.5863
    -2.5861  -2.5860  -2.5650  -2.5650  -2.5541  -2.5537  -2.5500  -2.5498
    -2.5423  -2.4961  -2.4635  -2.4635  -2.4479  -2.4340  -2.4273  -2.4272
    -2.4199  -2.4197  -2.4184  -2.3884  -2.3881  -2.3879  -2.3783  -2.3780
    -2.3606  -2.3338  -2.3332  -2.3322  -2.3315  -2.3312  -2.2865  -2.2551
    -2.2545  -2.2543  -2.2473  -2.2389  -2.2255  -2.2253  -2.2088  -2.2087
    -2.1752  -2.1736  -2.1735  -2.1550  -2.1534  -2.1532  -2.1203  -2.1201
    -2.0795  -2.0784  -2.0711  -2.0692  -2.0690  -2.0627  -2.0625  -2.0608
    -2.0597  -2.0529  -2.0524  -2.0361  -2.0358  -1.9087  -1.9083  -1.8762
    -1.8701  -1.8697  -1.8646  -1.8645  -1.8472  -1.8470  -1.8436  -1.8432
    -1.8412  -1.8190  -1.8108  -1.8102  -1.8076  -1.7984  -1.7980  -1.7757
    -1.7756  -1.7472  -1.7466  -1.7144  -1.7142  -1.7041  -1.6960  -1.6783
    -1.6780  -1.6749  -1.6568  -1.6447  -1.6445  -1.6371  -1.6369  -1.6099
    -1.6098  -1.5931  -1.5924  -1.5613  -1.5607  -1.5505  -1.5001  -1.4994
    -1.4874  -1.4867  -1.4865  -1.4617  -1.4587  -1.4252  -1.4245  -1.4241
    -1.3915  -1.3807  -1.3802  -1.3647  -1.3645  -1.3382  -1.3367  -1.3364
    -1.3068  -1.3039  -1.3038  -1.2414  -1.2412  -1.2279  -1.2274  -1.2114
    -1.2112  -1.1984  -1.1983  -1.1800  -1.1676  -1.1401  -1.1398  -1.1287
    -1.1022  -1.0905  -1.0898  -1.0785  -1.0784  -1.0767  -1.0710  -1.0705
    -1.0573  -1.0263  -1.0261  -1.0174  -1.0148  -1.0139  -1.0131  -0.9895
    -0.9730  -0.9708  -0.9502  -0.9493  -0.8587  -0.8433  -0.8380  -0.8376
    -0.8351  -0.8295  -0.8285  -0.8118  -0.8024  -0.7888  -0.7869  -0.7743
    -0.7725  -0.7632  -0.7508  -0.7426  -0.7411  -0.7327  -0.7198  -0.6608
    -0.6605  -0.6263  -0.6243  -0.6224  -0.6150  -0.6142  -0.6139  -0.6128
    -0.6006  -0.5988  -0.5819  -0.5595  -0.5448  -0.5249  -0.5245  -0.5135
    -0.5129  -0.5007  -0.4995  -0.4994  -0.4979  -0.4976  -0.4802  -0.4761
    -0.4755  -0.4452  -0.4437  -0.4430  -0.4315  -0.4312  -0.4121  -0.3799
    -0.3797  -0.3705  -0.3703  -0.3027  -0.3020  -0.2650  -0.2644  -0.2069
    -0.2055  -0.2050  -0.1940  -0.1768   0.0467   0.0486   0.3941   0.3941
     0.4855   0.4869   0.6784   0.6943   0.7119   0.8427   0.8430   1.2742
     1.2744   1.2929   1.5508   1.5842   1.5845   1.8610   1.8630   1.9407
     1.9408   1.9680   1.9691   2.1970   2.1974   2.2854   2.2855   2.3578
     2.4241   2.4260   2.5891   2.6869   3.1276   3.1282   3.1314   3.1319
     3.1863   3.1866   3.4784   3.4787   3.7599   3.7614   3.8621   4.1743
     4.2171   4.2180   4.4273   4.4417   4.5179   4.5194   4.6095   4.7270
     4.7283   4.8449   4.8454   5.1493   5.1943   5.2183   5.2217   5.3882
     5.4059   5.6058   5.6067   5.6319   5.6328   5.6948   5.6972   5.7223
     5.7639   6.0252   6.2527   6.3015   6.3228   6.4385   6.4396   6.4513
     6.4529   6.4840   6.5898   6.6917   6.6939   6.7910   6.8902   6.9139
     6.9313   6.9807   7.0488

          k = 0.0000-0.2887 0.1111 (136898 PWs)   bands (ev):

   -18.7186  -6.5596  -6.5343  -5.7669  -5.4753  -5.4166  -5.4165  -4.8781
    -4.8780  -4.7465  -4.7456  -4.5908  -4.5597  -4.4987  -4.4646  -4.4643
    -4.4315  -4.4314  -4.3029  -4.2613  -4.2610  -4.2009  -4.1799  -4.1797
    -4.0776  -4.0775  -4.0415  -4.0412  -4.0412  -4.0141  -3.9927  -3.9925
    -3.8870  -3.8856  -3.8853  -3.8645  -3.8479  -3.8477  -3.8355  -3.8353
    -3.8218  -3.7920  -3.7918  -3.7916  -3.7913  -3.7588  -3.7586  -3.7411
    -3.7411  -3.7262  -3.6829  -3.6827  -3.6530  -3.6375  -3.6370  -3.6330
    -3.6329  -3.5584  -3.5582  -3.5225  -3.5203  -3.5200  -3.4530  -3.4528
    -3.4371  -3.4370  -3.4061  -3.4056  -3.4053  -3.4049  -3.2516  -3.2514
    -3.2258  -3.2256  -3.2206  -3.2047  -3.2045  -3.1786  -3.1781  -3.1287
    -3.1286  -3.1124  -3.1122  -3.0919  -3.0432  -3.0429  -3.0237  -3.0187
    -3.0186  -2.9778  -2.9776  -2.9713  -2.9711  -2.9545  -2.9542  -2.9147
    -2.9146  -2.8931  -2.8928  -2.8898  -2.8896  -2.8867  -2.8097  -2.8092
    -2.8081  -2.7792  -2.7790  -2.7497  -2.7171  -2.7164  -2.6887  -2.6872
    -2.6742  -2.6740  -2.6690  -2.6392  -2.6390  -2.6297  -2.6117  -2.5864
    -2.5861  -2.5858  -2.5651  -2.5649  -2.5541  -2.5538  -2.5503  -2.5496
    -2.5423  -2.4961  -2.4636  -2.4635  -2.4479  -2.4340  -2.4273  -2.4272
    -2.4200  -2.4197  -2.4184  -2.3883  -2.3882  -2.3879  -2.3784  -2.3778
    -2.3606  -2.3335  -2.3333  -2.3326  -2.3314  -2.3311  -2.2865  -2.2550
    -2.2545  -2.2543  -2.2473  -2.2389  -2.2258  -2.2251  -2.2088  -2.2087
    -2.1752  -2.1737  -2.1735  -2.1550  -2.1535  -2.1531  -2.1204  -2.1200
    -2.0793  -2.0785  -2.0711  -2.0692  -2.0690  -2.0627  -2.0625  -2.0603
    -2.0601  -2.0531  -2.0523  -2.0362  -2.0357  -1.9089  -1.9081  -1.8761
    -1.8702  -1.8696  -1.8646  -1.8645  -1.8472  -1.8469  -1.8435  -1.8432
    -1.8414  -1.8190  -1.8109  -1.8101  -1.8076  -1.7985  -1.7980  -1.7757
    -1.7756  -1.7471  -1.7466  -1.7145  -1.7141  -1.7041  -1.6960  -1.6783
    -1.6780  -1.6750  -1.6568  -1.6446  -1.6445  -1.6371  -1.6369  -1.6099
    -1.6097  -1.5931  -1.5924  -1.5613  -1.5609  -1.5505  -1.5000  -1.4995
    -1.4872  -1.4868  -1.4865  -1.4617  -1.4587  -1.4252  -1.4246  -1.4241
    -1.3913  -1.3807  -1.3803  -1.3648  -1.3645  -1.3382  -1.3366  -1.3364
    -1.3067  -1.3039  -1.3038  -1.2414  -1.2411  -1.2280  -1.2273  -1.2116
    -1.2110  -1.1984  -1.1983  -1.1801  -1.1677  -1.1401  -1.1397  -1.1287
    -1.1021  -1.0903  -1.0900  -1.0785  -1.0784  -1.0765  -1.0709  -1.0705
    -1.0573  -1.0264  -1.0260  -1.0173  -1.0153  -1.0139  -1.0132  -0.9895
    -0.9724  -0.9712  -0.9501  -0.9494  -0.8589  -0.8433  -0.8378  -0.8377
    -0.8350  -0.8295  -0.8287  -0.8111  -0.8024  -0.7886  -0.7873  -0.7741
    -0.7725  -0.7632  -0.7512  -0.7428  -0.7411  -0.7327  -0.7196  -0.6608
    -0.6606  -0.6266  -0.6241  -0.6223  -0.6152  -0.6142  -0.6138  -0.6129
    -0.6008  -0.5985  -0.5820  -0.5595  -0.5447  -0.5250  -0.5244  -0.5136
    -0.5129  -0.5005  -0.4998  -0.4995  -0.4979  -0.4974  -0.4802  -0.4760
    -0.4755  -0.4452  -0.4434  -0.4432  -0.4315  -0.4313  -0.4121  -0.3799
    -0.3797  -0.3706  -0.3702  -0.3025  -0.3022  -0.2649  -0.2645  -0.2069
    -0.2053  -0.2051  -0.1941  -0.1767   0.0458   0.0497   0.3941   0.3941
     0.4846   0.4877   0.6786   0.6942   0.7118   0.8424   0.8432   1.2742
     1.2744   1.2929   1.5507   1.5843   1.5844   1.8596   1.8644   1.9406
     1.9409   1.9674   1.9697   2.1970   2.1974   2.2854   2.2856   2.3578
     2.4230   2.4271   2.5891   2.6868   3.1273   3.1286   3.1313   3.1319
     3.1860   3.1869   3.4783   3.4788   3.7590   3.7623   3.8620   4.1743
     4.2166   4.2185   4.4267   4.4432   4.5179   4.5190   4.6096   4.7270
     4.7283   4.8448   4.8457   5.1489   5.1951   5.2186   5.2196   5.3835
     5.4049   5.6055   5.6067   5.6318   5.6331   5.6938   5.6982   5.7210
     5.7749   6.0535   6.2576   6.2672   6.3035   6.4388   6.4391   6.4514
     6.4533   6.4894   6.6081   6.6907   6.6946   6.8167   6.8411   6.9172
     6.9309   6.9863   7.0271

          k = 0.0000 0.2887 0.1111 (136898 PWs)   bands (ev):

   -18.7186  -6.5596  -6.5343  -5.7669  -5.4753  -5.4166  -5.4165  -4.8781
    -4.8780  -4.7465  -4.7456  -4.5908  -4.5597  -4.4987  -4.4646  -4.4643
    -4.4315  -4.4314  -4.3029  -4.2613  -4.2610  -4.2009  -4.1799  -4.1797
    -4.0776  -4.0775  -4.0415  -4.0412  -4.0412  -4.0141  -3.9927  -3.9925
    -3.8870  -3.8856  -3.8854  -3.8645  -3.8479  -3.8477  -3.8355  -3.8353
    -3.8218  -3.7920  -3.7918  -3.7916  -3.7913  -3.7588  -3.7586  -3.7411
    -3.7411  -3.7262  -3.6829  -3.6827  -3.6530  -3.6375  -3.6370  -3.6330
    -3.6329  -3.5584  -3.5582  -3.5225  -3.5203  -3.5200  -3.4530  -3.4528
    -3.4371  -3.4370  -3.4061  -3.4056  -3.4053  -3.4049  -3.2516  -3.2514
    -3.2258  -3.2256  -3.2206  -3.2047  -3.2045  -3.1786  -3.1781  -3.1287
    -3.1286  -3.1124  -3.1122  -3.0919  -3.0432  -3.0429  -3.0237  -3.0187
    -3.0186  -2.9778  -2.9776  -2.9713  -2.9711  -2.9545  -2.9542  -2.9147
    -2.9146  -2.8931  -2.8928  -2.8898  -2.8896  -2.8867  -2.8097  -2.8092
    -2.8081  -2.7792  -2.7790  -2.7497  -2.7171  -2.7164  -2.6887  -2.6872
    -2.6742  -2.6740  -2.6690  -2.6392  -2.6390  -2.6297  -2.6117  -2.5864
    -2.5861  -2.5858  -2.5651  -2.5649  -2.5541  -2.5538  -2.5503  -2.5496
    -2.5422  -2.4961  -2.4636  -2.4635  -2.4479  -2.4340  -2.4273  -2.4272
    -2.4200  -2.4197  -2.4184  -2.3883  -2.3882  -2.3879  -2.3784  -2.3778
    -2.3606  -2.3335  -2.3333  -2.3326  -2.3314  -2.3311  -2.2865  -2.2550
    -2.2545  -2.2543  -2.2473  -2.2389  -2.2258  -2.2251  -2.2088  -2.2087
    -2.1752  -2.1737  -2.1735  -2.1550  -2.1535  -2.1531  -2.1204  -2.1200
    -2.0793  -2.0785  -2.0711  -2.0692  -2.0690  -2.0627  -2.0625  -2.0603
    -2.0601  -2.0531  -2.0523  -2.0362  -2.0357  -1.9089  -1.9081  -1.8761
    -1.8702  -1.8696  -1.8646  -1.8645  -1.8472  -1.8469  -1.8435  -1.8432
    -1.8414  -1.8190  -1.8109  -1.8101  -1.8076  -1.7985  -1.7980  -1.7757
    -1.7756  -1.7471  -1.7466  -1.7145  -1.7141  -1.7041  -1.6960  -1.6783
    -1.6780  -1.6750  -1.6568  -1.6446  -1.6445  -1.6371  -1.6369  -1.6099
    -1.6097  -1.5931  -1.5924  -1.5613  -1.5609  -1.5505  -1.5000  -1.4995
    -1.4872  -1.4868  -1.4865  -1.4617  -1.4587  -1.4252  -1.4246  -1.4241
    -1.3913  -1.3807  -1.3803  -1.3648  -1.3645  -1.3382  -1.3366  -1.3364
    -1.3067  -1.3039  -1.3038  -1.2414  -1.2411  -1.2280  -1.2273  -1.2116
    -1.2110  -1.1984  -1.1983  -1.1801  -1.1677  -1.1401  -1.1397  -1.1287
    -1.1021  -1.0903  -1.0900  -1.0785  -1.0784  -1.0765  -1.0709  -1.0705
    -1.0573  -1.0264  -1.0260  -1.0174  -1.0153  -1.0139  -1.0132  -0.9895
    -0.9724  -0.9712  -0.9501  -0.9494  -0.8589  -0.8433  -0.8378  -0.8377
    -0.8350  -0.8295  -0.8287  -0.8111  -0.8024  -0.7886  -0.7873  -0.7741
    -0.7725  -0.7632  -0.7512  -0.7428  -0.7411  -0.7327  -0.7196  -0.6608
    -0.6606  -0.6266  -0.6241  -0.6223  -0.6152  -0.6142  -0.6138  -0.6129
    -0.6008  -0.5985  -0.5819  -0.5595  -0.5447  -0.5250  -0.5244  -0.5135
    -0.5129  -0.5006  -0.4998  -0.4995  -0.4979  -0.4974  -0.4802  -0.4760
    -0.4755  -0.4452  -0.4434  -0.4432  -0.4315  -0.4313  -0.4121  -0.3799
    -0.3797  -0.3706  -0.3702  -0.3025  -0.3022  -0.2649  -0.2645  -0.2069
    -0.2053  -0.2051  -0.1941  -0.1768   0.0458   0.0497   0.3941   0.3941
     0.4846   0.4877   0.6785   0.6942   0.7118   0.8424   0.8432   1.2742
     1.2744   1.2929   1.5507   1.5843   1.5844   1.8596   1.8644   1.9406
     1.9409   1.9674   1.9698   2.1970   2.1974   2.2854   2.2856   2.3578
     2.4230   2.4271   2.5891   2.6868   3.1273   3.1286   3.1313   3.1319
     3.1860   3.1869   3.4783   3.4788   3.7590   3.7623   3.8620   4.1743
     4.2166   4.2185   4.4268   4.4432   4.5179   4.5190   4.6096   4.7270
     4.7283   4.8448   4.8457   5.1489   5.1951   5.2186   5.2196   5.3835
     5.4047   5.6055   5.6067   5.6318   5.6331   5.6938   5.6982   5.7207
     5.7768   6.0501   6.2531   6.2677   6.3036   6.4387   6.4391   6.4515
     6.4534   6.5032   6.6053   6.6912   6.6947   6.8166   6.8325   6.9173
     6.9302   6.9929   7.0307

     the Fermi energy is     1.4168 ev

!    total energy              =   -6604.43316249 Ry
     Harris-Foulkes estimate   =   -6604.43316248 Ry
     estimated scf accuracy    <          3.1E-09 Ry

     The total energy is the sum of the following terms:

     one-electron contribution =  -48411.63098273 Ry
     hartree contribution      =   24706.56478405 Ry
     xc contribution           =   -3204.95307402 Ry
     ewald contribution        =   20305.58320940 Ry
     smearing contrib. (-TS)   =       0.00290082 Ry

     convergence has been achieved in  25 iterations

     Writing output data file 3626948.save

     init_run     :    169.26s CPU    183.52s WALL (       1 calls)
     electrons    :   9614.05s CPU  10385.44s WALL (       1 calls)

     Called by init_run:
     wfcinit      :    135.90s CPU    149.25s WALL (       1 calls)
     potinit      :     10.93s CPU     11.44s WALL (       1 calls)

     Called by electrons:
     c_bands      :   7999.83s CPU   8629.40s WALL (      26 calls)
     sum_band     :   1192.50s CPU   1313.38s WALL (      26 calls)
     v_of_rho     :    128.22s CPU    141.12s WALL (      26 calls)
     newd         :    302.04s CPU    306.84s WALL (      26 calls)
     mix_rho      :      3.81s CPU      4.20s WALL (      26 calls)
     vdW_energy   :      9.92s CPU     12.19s WALL (      26 calls)
     vdW_ffts     :     65.75s CPU     71.55s WALL (      52 calls)
     vdW_v        :     16.96s CPU     17.86s WALL (      26 calls)

     Called by c_bands:
     init_us_2    :     36.73s CPU     37.19s WALL (     636 calls)
     cegterg      :   7896.52s CPU   8518.51s WALL (     312 calls)

     Called by *egterg:
     h_psi        :   3572.36s CPU   4099.10s WALL (    1747 calls)
     s_psi        :    469.14s CPU    472.22s WALL (    1747 calls)
     g_psi        :      7.34s CPU      7.46s WALL (    1423 calls)
     cdiaghg      :   2205.39s CPU   2211.04s WALL (    1723 calls)

     Called by h_psi:
     add_vuspsi   :    469.82s CPU    473.52s WALL (    1747 calls)

     General routines
     calbec       :    722.96s CPU    725.94s WALL (    2059 calls)
     fft          :    142.25s CPU    152.27s WALL (    1716 calls)
     ffts         :      1.70s CPU      1.96s WALL (      52 calls)
     fftw         :   2171.80s CPU   2637.12s WALL (  758146 calls)
     interpolate  :      5.16s CPU      5.98s WALL (      52 calls)
     davcio       :      0.00s CPU      0.46s WALL (      12 calls)

     Parallel routines
     fft_scatter  :   1443.72s CPU   1750.27s WALL (  759914 calls)

     PWSCF        :     2h43m CPU        2h56m WALL


   This run was terminated on:   1:28:21  30Aug2015            

=------------------------------------------------------------------------------=
   JOB DONE.
=------------------------------------------------------------------------------=
