Setting SGE environment for SCC

     Program PWSCF v.5.1.2 starts on 29Jun2015 at 11:51:38 

     This program is part of the open-source Quantum ESPRESSO suite
     for quantum simulation of materials; please cite
         "P. Giannozzi et al., J. Phys.:Condens. Matter 21 395502 (2009);
          URL http://www.quantum-espresso.org", 
     in publications or presentations arising from this work. More details at
     http://www.quantum-espresso.org/quote

     Parallel version (MPI), running on    32 processors
     R & G space division:  proc/nbgrp/npool/nimage =      32
     Reading input from top.O1.Au50.d.2.6.phi.0.psi.90.in
Warning: card &IONS ignored
Warning: card / ignored
Warning: card &CELL ignored
Warning: card / ignored

     Current dimensions of program PWSCF are:
     Max number of different atomic species (ntypx) = 10
     Max number of k-points (npk) =  40000
     Max angular momentum in pseudopotentials (lmaxx) =  3

     IMPORTANT: XC functional enforced from input :
     Exchange-correlation      = VDW-DF ( 1  4  4  0 1 0)
     Any further DFT definition will be discarded
     Please, verify this is what you really want


     Subspace diagonalization in iterative solution of the eigenvalue problem:
     a serial algorithm will be used


     Parallelization info
     --------------------
     sticks:   dense  smooth     PW     G-vecs:    dense   smooth      PW
     Min         445     223     58                96775    34191    4534
     Max         446     224     59                96790    34246    4540
     Sum       14269    7147   1867              3097177  1095093  145167


     Title: 
     top.O1.Au50.d.2.6.phi.0.psi.90                                             


     bravais-lattice index     =            4
     lattice parameter (alat)  =      22.7436  a.u.
     unit-cell volume          =   22924.1508 (a.u.)^3
     number of atoms/cell      =           67
     number of atomic types    =            3
     number of electrons       =       712.00
     number of Kohn-Sham states=          427
     kinetic-energy cutoff     =      50.0000  Ry
     charge density cutoff     =     400.0000  Ry
     convergence threshold     =      1.0E-08
     mixing beta               =       0.7000
     number of iterations used =            8  plain     mixing
     Exchange-correlation      = VDW-DF ( 1  4  4  0 1 0)

     celldm(1)=  22.743643  celldm(2)=   0.000000  celldm(3)=   2.250000
     celldm(4)=   0.000000  celldm(5)=   0.000000  celldm(6)=   0.000000

     crystal axes: (cart. coord. in units of alat)
               a(1) = (   1.000000   0.000000   0.000000 )  
               a(2) = (  -0.500000   0.866025   0.000000 )  
               a(3) = (   0.000000   0.000000   2.250000 )  

     reciprocal axes: (cart. coord. in units 2 pi/alat)
               b(1) = (  1.000000  0.577350 -0.000000 )  
               b(2) = (  0.000000  1.154701  0.000000 )  
               b(3) = (  0.000000 -0.000000  0.444444 )  


     PseudoPot. # 1 for Au read from file:
     /home/scc/andrejb/qe/pseudo/Au.pbe-nd-van.UPF
     MD5 check sum: 458681b50f36d87ef23c61b04bba420a
     Pseudo is Ultrasoft + core correction, Zval = 11.0
     Generated by new atomic code, or converted to UPF format
     Using radial grid of  985 points,  3 beta functions with: 
                l(1) =   1
                l(2) =   2
                l(3) =   2
     Q(r) pseudized with  8 coefficients,  rinner =    1.100   1.100   1.100
                                                       1.100   1.100

     PseudoPot. # 2 for H  read from file:
     /home/scc/andrejb/qe/pseudo/H.pbe-van_ak.UPF
     MD5 check sum: 403db7282739603aa925980fa9b8608d
     Pseudo is Ultrasoft, Zval =  1.0
     Generated by new atomic code, or converted to UPF format
     Using radial grid of  615 points,  1 beta functions with: 
                l(1) =   0
     Q(r) pseudized with  8 coefficients,  rinner =    0.800

     PseudoPot. # 3 for O  read from file:
     /home/scc/andrejb/qe/pseudo/O.pbe-van_ak.UPF
     MD5 check sum: 4b8c549914a63cae506c6ff22b5af4fe
     Pseudo is Ultrasoft, Zval =  6.0
     Generated by new atomic code, or converted to UPF format
     Using radial grid of  737 points,  4 beta functions with: 
                l(1) =   0
                l(2) =   0
                l(3) =   1
                l(4) =   1
     Q(r) pseudized with  8 coefficients,  rinner =    0.800   0.800   0.800


     vdW kernel table read from file vdW_kernel_table
     MD5 check sum: 48e77a2e26edf626eeb0eaa751ad5cac

     atomic species   valence    mass     pseudopotential
        Au            11.00   196.96657     Au( 1.00)
        H              1.00     1.01000     H ( 1.00)
        O              6.00    16.00000     O ( 1.00)

     No symmetry found



   Cartesian axes

     site n.     atom                  positions (alat units)
         1           O   tau(   1) = (   0.4790780   0.3968269   0.8290259  )
         2           H   tau(   2) = (   0.4291446   0.3485733   0.7874782  )
         3           H   tau(   3) = (   0.5274974   0.3460662   0.8693328  )
         4           Au  tau(   4) = (   0.3540481   0.6132292   0.0000000  )
         5           Au  tau(   5) = (   0.4790062   0.3967954   0.0000000  )
         6           Au  tau(   6) = (   0.6039644   0.1803616   0.0000000  )
         7           Au  tau(   7) = (   0.7289225  -0.0360723   0.0000000  )
         8           Au  tau(   8) = (   0.1041318   0.6132292   0.0000000  )
         9           Au  tau(   9) = (   0.2290899   0.3967954   0.0000000  )
        10           Au  tau(  10) = (   0.3540481   0.1803616   0.0000000  )
        11           Au  tau(  11) = (   0.4790062  -0.0360723   0.0000000  )
        12           Au  tau(  12) = (  -0.1457845   0.6132292   0.0000000  )
        13           Au  tau(  13) = (  -0.0208264   0.3967954   0.0000000  )
        14           Au  tau(  14) = (   0.1041318   0.1803616   0.0000000  )
        15           Au  tau(  15) = (   0.2290899  -0.0360723   0.0000000  )
        16           Au  tau(  16) = (  -0.3957008   0.6132292   0.0000000  )
        17           Au  tau(  17) = (  -0.2707426   0.3967954   0.0000000  )
        18           Au  tau(  18) = (  -0.1457845   0.1803616   0.0000000  )
        19           Au  tau(  19) = (  -0.0208264  -0.0360723   0.0000000  )
        20           Au  tau(  20) = (   0.4790062   0.6853738   0.2040557  )
        21           Au  tau(  21) = (   0.6039644   0.4689400   0.2040557  )
        22           Au  tau(  22) = (   0.7289225   0.2525062   0.2040557  )
        23           Au  tau(  23) = (   0.8538806   0.0360723   0.2040557  )
        24           Au  tau(  24) = (   0.2290899   0.6853738   0.2040557  )
        25           Au  tau(  25) = (   0.3540481   0.4689400   0.2040557  )
        26           Au  tau(  26) = (   0.4790062   0.2525062   0.2040557  )
        27           Au  tau(  27) = (   0.6039644   0.0360723   0.2040557  )
        28           Au  tau(  28) = (  -0.0208264   0.6853738   0.2040557  )
        29           Au  tau(  29) = (   0.1041318   0.4689400   0.2040557  )
        30           Au  tau(  30) = (   0.2290899   0.2525062   0.2040557  )
        31           Au  tau(  31) = (   0.3540481   0.0360723   0.2040557  )
        32           Au  tau(  32) = (  -0.2707426   0.6853738   0.2040557  )
        33           Au  tau(  33) = (  -0.1457845   0.4689400   0.2040557  )
        34           Au  tau(  34) = (  -0.0208264   0.2525062   0.2040557  )
        35           Au  tau(  35) = (   0.1041318   0.0360723   0.2040557  )
        36           Au  tau(  36) = (   0.3541162   0.7576593   0.4066483  )
        37           Au  tau(  37) = (   0.4791000   0.5411421   0.4066696  )
        38           Au  tau(  38) = (   0.6040570   0.3246862   0.4066618  )
        39           Au  tau(  39) = (   0.7290270   0.1081684   0.4066530  )
        40           Au  tau(  40) = (   0.1041162   0.7576236   0.4066247  )
        41           Au  tau(  41) = (   0.2291001   0.5411062   0.4066455  )
        42           Au  tau(  42) = (   0.3540567   0.3246505   0.4066380  )
        43           Au  tau(  43) = (   0.4790276   0.1081324   0.4066292  )
        44           Au  tau(  44) = (  -0.1458201   0.7576104   0.4066225  )
        45           Au  tau(  45) = (  -0.0208365   0.5410930   0.4066438  )
        46           Au  tau(  46) = (   0.1041202   0.3246372   0.4066359  )
        47           Au  tau(  47) = (   0.2290908   0.1081193   0.4066273  )
        48           Au  tau(  48) = (  -0.3958167   0.7575791   0.4065812  )
        49           Au  tau(  49) = (  -0.2708328   0.5410617   0.4066025  )
        50           Au  tau(  50) = (  -0.1458763   0.3246061   0.4065947  )
        51           Au  tau(  51) = (  -0.0209056   0.1080882   0.4065858  )
        52           Au  tau(  52) = (   0.3541084   0.6133344   0.6129762  )
        53           Au  tau(  53) = (   0.4790780   0.3968269   0.6129968  )
        54           Au  tau(  54) = (   0.6040356   0.1803811   0.6129859  )
        55           Au  tau(  55) = (   0.7290165  -0.0361221   0.6129385  )
        56           Au  tau(  56) = (   0.1041243   0.6133091   0.6130023  )
        57           Au  tau(  57) = (   0.2290941   0.3968013   0.6130241  )
        58           Au  tau(  58) = (   0.3540515   0.1803552   0.6130121  )
        59           Au  tau(  59) = (   0.4790323  -0.0361475   0.6129659  )
        60           Au  tau(  60) = (  -0.1458030   0.6133014   0.6129980  )
        61           Au  tau(  61) = (  -0.0208339   0.3967936   0.6130189  )
        62           Au  tau(  62) = (   0.1041239   0.1803477   0.6130083  )
        63           Au  tau(  63) = (   0.2291046  -0.0361554   0.6129607  )
        64           Au  tau(  64) = (  -0.3957908   0.6132739   0.6129471  )
        65           Au  tau(  65) = (  -0.2708208   0.3967658   0.6129688  )
        66           Au  tau(  66) = (  -0.1458636   0.1803200   0.6129569  )
        67           Au  tau(  67) = (  -0.0208823  -0.0361826   0.6129110  )

     number of k points=    12  Marzari-Vanderbilt smearing, width (Ry)=  0.0200
                       cart. coord. in units 2pi/alat
        k(    1) = (   0.2500000   0.4330127   0.1111111), wk =   0.1666667
        k(    2) = (   0.2500000  -0.1443376   0.1111111), wk =   0.1666667
        k(    3) = (  -0.2500000  -0.4330127   0.1111111), wk =   0.1666667
        k(    4) = (  -0.2500000   0.4330127  -0.1111111), wk =   0.1666667
        k(    5) = (   0.2500000  -0.4330127  -0.1111111), wk =   0.1666667
        k(    6) = (   0.5000000   0.0000000   0.1111111), wk =   0.1666667
        k(    7) = (  -0.5000000   0.0000000   0.1111111), wk =   0.1666667
        k(    8) = (  -0.2500000   0.1443376   0.1111111), wk =   0.1666667
        k(    9) = (  -0.2500000  -0.1443376  -0.1111111), wk =   0.1666667
        k(   10) = (   0.2500000   0.1443376  -0.1111111), wk =   0.1666667
        k(   11) = (   0.0000000  -0.2886751   0.1111111), wk =   0.1666667
        k(   12) = (   0.0000000   0.2886751   0.1111111), wk =   0.1666667

     Dense  grid:  3097177 G-vectors     FFT dimensions: ( 150, 150, 360)

     Smooth grid:  1095093 G-vectors     FFT dimensions: ( 108, 108, 240)

     Largest allocated arrays     est. size (Mb)     dimensions
        Kohn-Sham Wavefunctions        28.01 Mb     (    4299,  427)
        NL pseudopotentials            55.23 Mb     (    4299,  842)
        Each V/rho on FFT grid          4.12 Mb     (  270000)
        Each G-vector array             0.74 Mb     (   96788)
        G-vector shells                 0.16 Mb     (   21404)
     Largest temporary arrays     est. size (Mb)     dimensions
        Auxiliary wavefunctions       112.04 Mb     (    4299, 1708)
        Each subspace H/S matrix       44.51 Mb     (    1708, 1708)
        Each <psi_i|beta_j> matrix      5.49 Mb     (     842,  427)
        Arrays for rho mixing          32.96 Mb     (  270000,    8)

     Initial potential from superposition of free atoms
     Check: negative starting charge=   -1.730316

     starting charge  711.25682, renormalised to  712.00000

     negative rho (up, down):  1.732E+00 0.000E+00


     ************************************************************************
     *
     * You are using vdW-DF for exchange-correlation in this calculation.
     * Please cite the following three references that made this development
     * possible:
     *
     *   M. Dion, H. Rydberg, E. Schroder, D. C. Langreth, and
     *   B. I. Lundqvist, Phys. Rev. Lett. 92, 246401 (2004).
     *
     *   T. Thonhauser, V. R. Cooper, S. Li, A. Puzder, P. Hyldgaard, and
     *   D. C. Langreth, Phys. Rev. B 76, 125112 (2007).
     *
     *   G. Roman-Perez and J. M. Soler, Phys. Rev. Lett. 103, 096102 (2009).
     *
     *
     * If you are using vdW-DF2, please also cite:
     *
     *   K. Lee, E. D. Murray, L. Kong, B. I. Lundqvist, and
     *   D. C. Langreth, Phys. Rev. B 82, 081101(R) (2010).
     *
     *
     * If you are calculating the stress with vdW-DF, please also cite:
     *
     *   R. Sabatini, E. Kucukbenli, B. Kolb, T. Thonhauser, and
     *   S. de Gironcoli, J. Phys.: Condens. Matter 24, 424209 (2012).
     *
     ************************************************************************

     Carrying out vdW-DF run using the following parameters:

     Nqs =      20    Nr_points =    1024   r_max =   100.000
     q_mesh =
               0.00001000     0.04494208     0.09755937     0.15916263
               0.23128650     0.31572767     0.41458969     0.53033537
               0.66584808     0.82450364     1.01025438     1.22772762
               1.48234092     1.78043706     2.12944203     2.53805004
               3.01644009     3.57652955     4.23227104     5.00000000

     Gradients computed in reciprocal space

     ************************************************************************


     Starting wfc are  582 randomized atomic wfcs

     total cpu time spent up to now is      163.9 secs

     Self-consistent Calculation

     iteration #  1     ecut=    50.00 Ry     beta=0.70
     Davidson diagonalization with overlap
     ethr =  1.00E-02,  avg # of iterations =  3.0

     Threshold (ethr) on eigenvalues was too large:
     Diagonalizing with lowered threshold

     Davidson diagonalization with overlap
     ethr =  3.46E-04,  avg # of iterations =  3.5

     negative rho (up, down):  1.727E+00 0.000E+00

     total cpu time spent up to now is      826.4 secs

     total energy              =   -6602.77624546 Ry
     Harris-Foulkes estimate   =   -6605.01208475 Ry
     estimated scf accuracy    <       2.80175510 Ry

     iteration #  2     ecut=    50.00 Ry     beta=0.70
     Davidson diagonalization with overlap
     ethr =  3.94E-04,  avg # of iterations = 11.2

     negative rho (up, down):  1.726E+00 0.000E+00

     total cpu time spent up to now is     1838.2 secs

     total energy              =   -6596.61816350 Ry
     Harris-Foulkes estimate   =   -6610.17721714 Ry
     estimated scf accuracy    <      76.35758079 Ry

     iteration #  3     ecut=    50.00 Ry     beta=0.70
     Davidson diagonalization with overlap
     ethr =  3.94E-04,  avg # of iterations =  6.4

     negative rho (up, down):  1.736E+00 0.000E+00

     total cpu time spent up to now is     2512.9 secs

     total energy              =   -6603.32610527 Ry
     Harris-Foulkes estimate   =   -6604.98840014 Ry
     estimated scf accuracy    <       7.09133623 Ry

     iteration #  4     ecut=    50.00 Ry     beta=0.70
     Davidson diagonalization with overlap
     ethr =  3.94E-04,  avg # of iterations =  6.1

     negative rho (up, down):  1.739E+00 0.000E+00

     total cpu time spent up to now is     2932.4 secs

     total energy              =   -6603.09115349 Ry
     Harris-Foulkes estimate   =   -6605.55857243 Ry
     estimated scf accuracy    <      28.43620018 Ry

     iteration #  5     ecut=    50.00 Ry     beta=0.70
     Davidson diagonalization with overlap
     ethr =  3.94E-04,  avg # of iterations =  7.0

     negative rho (up, down):  1.749E+00 0.000E+00

     total cpu time spent up to now is     3339.8 secs

     total energy              =   -6604.36853614 Ry
     Harris-Foulkes estimate   =   -6604.51048891 Ry
     estimated scf accuracy    <       0.58747240 Ry

     iteration #  6     ecut=    50.00 Ry     beta=0.70
     Davidson diagonalization with overlap
     ethr =  8.25E-05,  avg # of iterations =  6.1

     negative rho (up, down):  1.752E+00 0.000E+00

     total cpu time spent up to now is     3694.8 secs

     total energy              =   -6604.40030136 Ry
     Harris-Foulkes estimate   =   -6604.44128068 Ry
     estimated scf accuracy    <       0.12075332 Ry

     iteration #  7     ecut=    50.00 Ry     beta=0.70
     Davidson diagonalization with overlap
     ethr =  1.70E-05,  avg # of iterations = 10.9

     negative rho (up, down):  1.754E+00 0.000E+00

     total cpu time spent up to now is     4173.3 secs

     total energy              =   -6604.41118662 Ry
     Harris-Foulkes estimate   =   -6604.43005084 Ry
     estimated scf accuracy    <       0.06983512 Ry

     iteration #  8     ecut=    50.00 Ry     beta=0.70
     Davidson diagonalization with overlap
     c_bands:  1 eigenvalues not converged
     ethr =  9.81E-06,  avg # of iterations = 10.4

     negative rho (up, down):  1.756E+00 0.000E+00

     total cpu time spent up to now is     4616.6 secs

     total energy              =   -6604.41362623 Ry
     Harris-Foulkes estimate   =   -6604.42477847 Ry
     estimated scf accuracy    <       0.03689231 Ry

     iteration #  9     ecut=    50.00 Ry     beta=0.70
     Davidson diagonalization with overlap
     ethr =  5.18E-06,  avg # of iterations =  5.5

     negative rho (up, down):  1.756E+00 0.000E+00

     total cpu time spent up to now is     4971.5 secs

     total energy              =   -6604.41733105 Ry
     Harris-Foulkes estimate   =   -6604.42013649 Ry
     estimated scf accuracy    <       0.00728084 Ry

     iteration # 10     ecut=    50.00 Ry     beta=0.70
     Davidson diagonalization with overlap
     ethr =  1.02E-06,  avg # of iterations =  5.4

     negative rho (up, down):  1.757E+00 0.000E+00

     total cpu time spent up to now is     5401.6 secs

     total energy              =   -6604.41839975 Ry
     Harris-Foulkes estimate   =   -6604.41955694 Ry
     estimated scf accuracy    <       0.00377440 Ry

     iteration # 11     ecut=    50.00 Ry     beta=0.70
     Davidson diagonalization with overlap
     ethr =  5.30E-07,  avg # of iterations =  2.0

     negative rho (up, down):  1.757E+00 0.000E+00

     total cpu time spent up to now is     5680.5 secs

     total energy              =   -6604.41888500 Ry
     Harris-Foulkes estimate   =   -6604.41912960 Ry
     estimated scf accuracy    <       0.00077860 Ry

     iteration # 12     ecut=    50.00 Ry     beta=0.70
     Davidson diagonalization with overlap
     ethr =  1.09E-07,  avg # of iterations =  2.0

     negative rho (up, down):  1.757E+00 0.000E+00

     total cpu time spent up to now is     5978.1 secs

     total energy              =   -6604.41899925 Ry
     Harris-Foulkes estimate   =   -6604.41904435 Ry
     estimated scf accuracy    <       0.00015478 Ry

     iteration # 13     ecut=    50.00 Ry     beta=0.70
     Davidson diagonalization with overlap
     ethr =  2.17E-08,  avg # of iterations =  3.0

     negative rho (up, down):  1.757E+00 0.000E+00

     total cpu time spent up to now is     6299.5 secs

     total energy              =   -6604.41900649 Ry
     Harris-Foulkes estimate   =   -6604.41903398 Ry
     estimated scf accuracy    <       0.00009447 Ry

     iteration # 14     ecut=    50.00 Ry     beta=0.70
     Davidson diagonalization with overlap
     ethr =  1.33E-08,  avg # of iterations =  2.0

     negative rho (up, down):  1.757E+00 0.000E+00

     total cpu time spent up to now is     6587.0 secs

     total energy              =   -6604.41901390 Ry
     Harris-Foulkes estimate   =   -6604.41903138 Ry
     estimated scf accuracy    <       0.00012790 Ry

     iteration # 15     ecut=    50.00 Ry     beta=0.70
     Davidson diagonalization with overlap
     ethr =  1.33E-08,  avg # of iterations =  1.0

     negative rho (up, down):  1.757E+00 0.000E+00

     total cpu time spent up to now is     6851.9 secs

     total energy              =   -6604.41902277 Ry
     Harris-Foulkes estimate   =   -6604.41902373 Ry
     estimated scf accuracy    <       0.00000656 Ry

     iteration # 16     ecut=    50.00 Ry     beta=0.70
     Davidson diagonalization with overlap
     ethr =  9.22E-10,  avg # of iterations =  2.0

     negative rho (up, down):  1.757E+00 0.000E+00

     total cpu time spent up to now is     7162.3 secs

     total energy              =   -6604.41902313 Ry
     Harris-Foulkes estimate   =   -6604.41902336 Ry
     estimated scf accuracy    <       0.00000040 Ry

     iteration # 17     ecut=    50.00 Ry     beta=0.70
     Davidson diagonalization with overlap
     ethr =  5.58E-11,  avg # of iterations =  3.0

     negative rho (up, down):  1.757E+00 0.000E+00

     total cpu time spent up to now is     7577.3 secs

     total energy              =   -6604.41902310 Ry
     Harris-Foulkes estimate   =   -6604.41902343 Ry
     estimated scf accuracy    <       0.00000130 Ry

     iteration # 18     ecut=    50.00 Ry     beta=0.70
     Davidson diagonalization with overlap
     ethr =  5.58E-11,  avg # of iterations =  3.0

     negative rho (up, down):  1.757E+00 0.000E+00

     total cpu time spent up to now is     7931.0 secs

     total energy              =   -6604.41902320 Ry
     Harris-Foulkes estimate   =   -6604.41902327 Ry
     estimated scf accuracy    <       0.00000017 Ry

     iteration # 19     ecut=    50.00 Ry     beta=0.70
     Davidson diagonalization with overlap
     ethr =  2.41E-11,  avg # of iterations =  2.0

     negative rho (up, down):  1.757E+00 0.000E+00

     total cpu time spent up to now is     8238.2 secs

     total energy              =   -6604.41902322 Ry
     Harris-Foulkes estimate   =   -6604.41902323 Ry
     estimated scf accuracy    <       0.00000005 Ry

     iteration # 20     ecut=    50.00 Ry     beta=0.70
     Davidson diagonalization with overlap
     ethr =  7.33E-12,  avg # of iterations =  2.0

     negative rho (up, down):  1.757E+00 0.000E+00

     total cpu time spent up to now is     8560.7 secs

     total energy              =   -6604.41902321 Ry
     Harris-Foulkes estimate   =   -6604.41902324 Ry
     estimated scf accuracy    <       0.00000005 Ry

     iteration # 21     ecut=    50.00 Ry     beta=0.70
     Davidson diagonalization with overlap
     ethr =  7.33E-12,  avg # of iterations =  2.0

     negative rho (up, down):  1.757E+00 0.000E+00

     total cpu time spent up to now is     8840.3 secs

     End of self-consistent calculation

          k = 0.2500 0.4330 0.1111 (136853 PWs)   bands (ev):

   -19.5128  -7.4386  -6.2987  -5.9003  -5.8990  -5.2245  -4.8889  -4.8884
    -4.8541  -4.8496  -4.4888  -4.4878  -4.3899  -4.3894  -4.3757  -4.3525
    -4.3388  -4.2236  -4.2209  -4.1978  -4.1554  -4.1536  -4.0870  -4.0856
    -4.0817  -4.0794  -4.0572  -4.0544  -4.0506  -3.9925  -3.9808  -3.9500
    -3.9482  -3.9378  -3.9365  -3.9147  -3.9136  -3.8907  -3.8846  -3.8827
    -3.8576  -3.8047  -3.8041  -3.7568  -3.7541  -3.7027  -3.7004  -3.6663
    -3.6449  -3.6411  -3.6407  -3.6257  -3.6057  -3.5730  -3.5703  -3.5596
    -3.5582  -3.5555  -3.5332  -3.5291  -3.5208  -3.4628  -3.4605  -3.4535
    -3.4319  -3.4241  -3.3546  -3.3524  -3.3249  -3.3201  -3.2929  -3.2896
    -3.2762  -3.2602  -3.2037  -3.2023  -3.1848  -3.1833  -3.1352  -3.1317
    -3.1233  -3.0865  -3.0609  -3.0574  -3.0511  -3.0478  -3.0402  -3.0335
    -3.0290  -3.0276  -3.0176  -2.9769  -2.9406  -2.9369  -2.9254  -2.9236
    -2.8957  -2.8907  -2.8883  -2.8715  -2.8219  -2.8194  -2.8156  -2.7750
    -2.7678  -2.7555  -2.7543  -2.7325  -2.7256  -2.6944  -2.6605  -2.6580
    -2.6403  -2.6279  -2.6159  -2.6146  -2.5694  -2.5666  -2.5326  -2.5100
    -2.5091  -2.4942  -2.4852  -2.4744  -2.4729  -2.4635  -2.4461  -2.4426
    -2.4039  -2.3948  -2.3930  -2.3819  -2.3780  -2.3721  -2.3676  -2.3640
    -2.3615  -2.3606  -2.3564  -2.3511  -2.3429  -2.3372  -2.3279  -2.3066
    -2.3035  -2.3010  -2.3001  -2.2978  -2.2968  -2.2799  -2.2702  -2.2627
    -2.2540  -2.2495  -2.2338  -2.2319  -2.2251  -2.2240  -2.2224  -2.2126
    -2.2058  -2.2016  -2.2010  -2.1895  -2.1649  -2.1576  -2.1195  -2.1147
    -2.1051  -2.0951  -2.0899  -2.0645  -2.0556  -2.0375  -2.0293  -2.0186
    -2.0101  -1.9877  -1.9717  -1.9660  -1.9598  -1.9574  -1.9514  -1.9477
    -1.9279  -1.9174  -1.9145  -1.8634  -1.8508  -1.8457  -1.8441  -1.8418
    -1.8116  -1.7971  -1.7848  -1.7821  -1.7588  -1.7405  -1.7015  -1.6963
    -1.6663  -1.6494  -1.6229  -1.5906  -1.5854  -1.5767  -1.5709  -1.5672
    -1.5645  -1.5581  -1.5543  -1.5514  -1.5012  -1.4902  -1.4845  -1.4825
    -1.4774  -1.4656  -1.4631  -1.4297  -1.4279  -1.4130  -1.4119  -1.4081
    -1.4028  -1.3936  -1.3888  -1.3853  -1.3685  -1.3678  -1.3337  -1.3212
    -1.3179  -1.3125  -1.2993  -1.2804  -1.2435  -1.2372  -1.2150  -1.2094
    -1.2067  -1.1789  -1.1323  -1.1274  -1.1260  -1.1227  -1.1202  -1.1133
    -1.1033  -1.0954  -1.0839  -1.0560  -1.0485  -1.0227  -1.0203  -1.0148
    -1.0118  -1.0090  -0.9950  -0.9898  -0.9888  -0.9856  -0.9812  -0.9485
    -0.9468  -0.9443  -0.9389  -0.9198  -0.9126  -0.9085  -0.8862  -0.8805
    -0.8675  -0.8341  -0.8265  -0.8193  -0.7886  -0.7832  -0.7741  -0.7705
    -0.7657  -0.7643  -0.7605  -0.7543  -0.7480  -0.7341  -0.7250  -0.7226
    -0.7177  -0.7162  -0.7080  -0.6791  -0.6788  -0.6729  -0.6647  -0.6493
    -0.6451  -0.6347  -0.6265  -0.5770  -0.5741  -0.5692  -0.5681  -0.5657
    -0.5631  -0.5533  -0.5409  -0.5349  -0.5327  -0.5304  -0.5297  -0.5112
    -0.4911  -0.4882  -0.4858  -0.4788  -0.4759  -0.4734  -0.4713  -0.4585
    -0.4531  -0.4519  -0.4176  -0.4104  -0.4067  -0.4011  -0.3974  -0.3858
    -0.3239  -0.3182  -0.3170  -0.3131  -0.3083  -0.2981  -0.2705  -0.2593
    -0.2583  -0.2305  -0.2266  -0.1707  -0.1049  -0.0973  -0.0016   0.4122
     0.4132   0.4174   0.4184   0.4744   0.5036   0.8616   0.8669   0.9066
     0.9080   1.0247   1.1056   1.2078   1.2262   1.4264   1.4616   2.0584
     2.0724   2.2204   2.2332   2.3522   2.3798   2.4627   2.4634   2.6172
     2.8517   2.8569   2.9827   3.2001   3.2132   3.2810   3.2853   3.3820
     3.4022   3.5864   3.6007   3.6544   3.8578   3.8610   3.9182   3.9303
     4.1772   4.1799   4.2004   4.4280   4.4626   4.4760   4.5169   4.8461
     4.8539   4.8820   5.0155   5.1806   5.1906   5.2084   5.2457   5.4398
     5.7868   5.9308   5.9682   5.9774   5.9872   6.0457   6.0506   6.1072
     6.1405   6.1623   6.1853   6.2106   6.2143   6.2283   6.2490   6.2680
     6.2914   6.4490   6.5660   6.6910   6.7467   6.7768   6.9145   6.9216
     6.9336   7.0119   7.0407

          k = 0.2500-0.1443 0.1111 (136898 PWs)   bands (ev):

   -19.5128  -7.4388  -6.5082  -5.7170  -5.4280  -5.3674  -5.3664  -4.8289
    -4.8283  -4.6993  -4.6963  -4.5437  -4.5171  -4.4489  -4.4187  -4.4175
    -4.3821  -4.3816  -4.2530  -4.2126  -4.2106  -4.1525  -4.1323  -4.1319
    -4.0285  -4.0280  -3.9927  -3.9919  -3.9914  -3.9668  -3.9440  -3.9431
    -3.8461  -3.8389  -3.8358  -3.8175  -3.7998  -3.7992  -3.7908  -3.7874
    -3.7766  -3.7454  -3.7439  -3.7425  -3.7420  -3.7150  -3.7116  -3.6964
    -3.6922  -3.6882  -3.6620  -3.6412  -3.6313  -3.6053  -3.5929  -3.5839
    -3.5827  -3.5689  -3.5093  -3.5084  -3.4777  -3.4739  -3.4682  -3.4036
    -3.4032  -3.3890  -3.3880  -3.3613  -3.3596  -3.3576  -3.3548  -3.2060
    -3.2021  -3.1825  -3.1758  -3.1703  -3.1574  -3.1552  -3.1323  -3.1321
    -3.0819  -3.0805  -3.0665  -3.0641  -3.0437  -2.9992  -2.9960  -2.9776
    -2.9740  -2.9710  -2.9340  -2.9303  -2.9221  -2.9202  -2.9078  -2.9061
    -2.8700  -2.8679  -2.8477  -2.8453  -2.8433  -2.8414  -2.8369  -2.7666
    -2.7630  -2.7607  -2.7343  -2.7300  -2.6705  -2.6672  -2.6475  -2.6397
    -2.6306  -2.6271  -2.6195  -2.5919  -2.5906  -2.5810  -2.5690  -2.5483
    -2.5401  -2.5383  -2.5189  -2.5177  -2.5104  -2.5068  -2.5061  -2.5023
    -2.4914  -2.4460  -2.4220  -2.4159  -2.4043  -2.3922  -2.3845  -2.3818
    -2.3770  -2.3718  -2.3686  -2.3553  -2.3411  -2.3389  -2.3342  -2.3294
    -2.3160  -2.3033  -2.2882  -2.2874  -2.2844  -2.2838  -2.2367  -2.2215
    -2.2076  -2.2058  -2.2018  -2.1890  -2.1859  -2.1797  -2.1616  -2.1601
    -2.1410  -2.1276  -2.1266  -2.1167  -2.1085  -2.1071  -2.0922  -2.0752
    -2.0709  -2.0393  -2.0281  -2.0263  -2.0229  -2.0226  -2.0188  -2.0171
    -2.0138  -2.0119  -2.0071  -1.9986  -1.9898  -1.9609  -1.8692  -1.8623
    -1.8282  -1.8250  -1.8212  -1.8153  -1.8133  -1.8011  -1.7992  -1.7982
    -1.7961  -1.7834  -1.7714  -1.7700  -1.7654  -1.7571  -1.7511  -1.7315
    -1.7295  -1.7038  -1.6996  -1.6923  -1.6732  -1.6674  -1.6592  -1.6481
    -1.6315  -1.6281  -1.6193  -1.6124  -1.5967  -1.5942  -1.5902  -1.5855
    -1.5653  -1.5607  -1.5473  -1.5461  -1.5148  -1.5084  -1.4989  -1.4568
    -1.4546  -1.4409  -1.4395  -1.4166  -1.4127  -1.4065  -1.3811  -1.3780
    -1.3725  -1.3399  -1.3359  -1.3259  -1.3166  -1.3140  -1.2960  -1.2915
    -1.2762  -1.2623  -1.2576  -1.2554  -1.1972  -1.1940  -1.1863  -1.1819
    -1.1685  -1.1661  -1.1533  -1.1525  -1.1345  -1.1214  -1.0927  -1.0917
    -1.0796  -1.0514  -1.0439  -1.0389  -1.0306  -1.0297  -1.0290  -1.0261
    -1.0154  -1.0077  -0.9859  -0.9819  -0.9707  -0.9670  -0.9660  -0.9510
    -0.9465  -0.9262  -0.9134  -0.9033  -0.8717  -0.8132  -0.8004  -0.7934
    -0.7925  -0.7880  -0.7824  -0.7739  -0.7606  -0.7503  -0.7423  -0.7334
    -0.7282  -0.7216  -0.7189  -0.7008  -0.6968  -0.6880  -0.6842  -0.6140
    -0.6119  -0.5818  -0.5756  -0.5741  -0.5695  -0.5653  -0.5643  -0.5601
    -0.5537  -0.5452  -0.5203  -0.5088  -0.4886  -0.4791  -0.4775  -0.4670
    -0.4607  -0.4561  -0.4535  -0.4517  -0.4495  -0.4363  -0.4338  -0.4290
    -0.4134  -0.3986  -0.3959  -0.3862  -0.3820  -0.3696  -0.3630  -0.3322
    -0.3277  -0.3225  -0.3070  -0.2533  -0.2501  -0.2201  -0.2190  -0.1627
    -0.1607  -0.1592  -0.1367  -0.1233   0.0907   0.1347   0.4421   0.4422
     0.5278   0.5594   0.7266   0.7590   0.7742   0.8859   0.8940   1.3218
     1.3233   1.3382   1.6034   1.6324   1.6335   1.8997   1.9279   1.9843
     1.9866   2.0087   2.0350   2.2403   2.2429   2.3332   2.3344   2.4011
     2.4648   2.4975   2.6371   2.7404   3.1675   3.1719   3.1768   3.1894
     3.2278   3.2365   3.5248   3.5274   3.7988   3.8212   3.9072   4.2224
     4.2569   4.2716   4.4519   4.4975   4.5605   4.5683   4.6588   4.7714
     4.7845   4.8909   4.8986   5.1922   5.2518   5.2693   5.2946   5.4316
     5.4664   5.6443   5.6533   5.6780   5.6833   5.7277   5.7456   5.7796
     5.8697   6.0538   6.2627   6.3347   6.3509   6.4769   6.4822   6.4940
     6.5057   6.5368   6.6601   6.7284   6.7408   6.8284   6.9164   6.9358
     6.9861   7.0515   7.0713

          k =-0.2500-0.4330 0.1111 (136853 PWs)   bands (ev):

   -19.5128  -7.4386  -6.2987  -5.9003  -5.8990  -5.2245  -4.8889  -4.8884
    -4.8541  -4.8496  -4.4888  -4.4878  -4.3899  -4.3894  -4.3757  -4.3525
    -4.3388  -4.2236  -4.2209  -4.1978  -4.1554  -4.1536  -4.0870  -4.0856
    -4.0817  -4.0794  -4.0572  -4.0544  -4.0506  -3.9925  -3.9808  -3.9500
    -3.9482  -3.9378  -3.9365  -3.9147  -3.9136  -3.8907  -3.8846  -3.8827
    -3.8576  -3.8047  -3.8041  -3.7568  -3.7541  -3.7027  -3.7004  -3.6663
    -3.6449  -3.6411  -3.6407  -3.6257  -3.6057  -3.5730  -3.5703  -3.5596
    -3.5582  -3.5555  -3.5332  -3.5291  -3.5208  -3.4628  -3.4605  -3.4535
    -3.4319  -3.4241  -3.3546  -3.3524  -3.3249  -3.3201  -3.2929  -3.2896
    -3.2762  -3.2602  -3.2037  -3.2022  -3.1848  -3.1833  -3.1352  -3.1317
    -3.1233  -3.0865  -3.0609  -3.0574  -3.0511  -3.0478  -3.0402  -3.0335
    -3.0290  -3.0276  -3.0176  -2.9769  -2.9406  -2.9369  -2.9254  -2.9236
    -2.8957  -2.8907  -2.8883  -2.8715  -2.8219  -2.8194  -2.8156  -2.7750
    -2.7678  -2.7555  -2.7543  -2.7325  -2.7256  -2.6944  -2.6605  -2.6580
    -2.6403  -2.6279  -2.6159  -2.6146  -2.5694  -2.5666  -2.5326  -2.5100
    -2.5091  -2.4942  -2.4852  -2.4744  -2.4729  -2.4635  -2.4461  -2.4426
    -2.4039  -2.3948  -2.3930  -2.3819  -2.3780  -2.3721  -2.3676  -2.3640
    -2.3615  -2.3606  -2.3564  -2.3511  -2.3429  -2.3372  -2.3279  -2.3066
    -2.3035  -2.3010  -2.3001  -2.2978  -2.2968  -2.2799  -2.2702  -2.2627
    -2.2540  -2.2495  -2.2338  -2.2319  -2.2251  -2.2240  -2.2224  -2.2126
    -2.2058  -2.2016  -2.2010  -2.1895  -2.1649  -2.1576  -2.1195  -2.1147
    -2.1051  -2.0951  -2.0899  -2.0645  -2.0556  -2.0375  -2.0293  -2.0186
    -2.0101  -1.9877  -1.9717  -1.9660  -1.9598  -1.9574  -1.9514  -1.9477
    -1.9279  -1.9174  -1.9145  -1.8634  -1.8508  -1.8457  -1.8441  -1.8418
    -1.8116  -1.7971  -1.7848  -1.7821  -1.7588  -1.7405  -1.7015  -1.6963
    -1.6663  -1.6494  -1.6229  -1.5906  -1.5854  -1.5767  -1.5709  -1.5672
    -1.5645  -1.5581  -1.5543  -1.5514  -1.5012  -1.4902  -1.4845  -1.4825
    -1.4774  -1.4656  -1.4631  -1.4297  -1.4279  -1.4130  -1.4119  -1.4081
    -1.4028  -1.3936  -1.3888  -1.3853  -1.3685  -1.3678  -1.3337  -1.3212
    -1.3179  -1.3125  -1.2993  -1.2804  -1.2435  -1.2372  -1.2150  -1.2094
    -1.2067  -1.1789  -1.1323  -1.1274  -1.1260  -1.1227  -1.1202  -1.1133
    -1.1033  -1.0954  -1.0839  -1.0560  -1.0485  -1.0227  -1.0203  -1.0148
    -1.0118  -1.0090  -0.9950  -0.9898  -0.9888  -0.9856  -0.9812  -0.9485
    -0.9468  -0.9443  -0.9389  -0.9198  -0.9126  -0.9085  -0.8862  -0.8805
    -0.8675  -0.8341  -0.8265  -0.8193  -0.7886  -0.7832  -0.7741  -0.7705
    -0.7657  -0.7643  -0.7605  -0.7543  -0.7480  -0.7341  -0.7250  -0.7226
    -0.7177  -0.7162  -0.7080  -0.6791  -0.6788  -0.6729  -0.6647  -0.6493
    -0.6451  -0.6347  -0.6265  -0.5770  -0.5741  -0.5692  -0.5681  -0.5657
    -0.5631  -0.5533  -0.5409  -0.5349  -0.5327  -0.5303  -0.5297  -0.5112
    -0.4911  -0.4882  -0.4858  -0.4788  -0.4759  -0.4734  -0.4713  -0.4585
    -0.4531  -0.4519  -0.4176  -0.4104  -0.4067  -0.4011  -0.3974  -0.3858
    -0.3239  -0.3182  -0.3170  -0.3131  -0.3083  -0.2981  -0.2705  -0.2593
    -0.2582  -0.2305  -0.2266  -0.1707  -0.1049  -0.0973  -0.0016   0.4122
     0.4132   0.4174   0.4184   0.4744   0.5036   0.8616   0.8669   0.9066
     0.9080   1.0247   1.1056   1.2078   1.2262   1.4264   1.4616   2.0584
     2.0724   2.2204   2.2332   2.3522   2.3798   2.4627   2.4634   2.6172
     2.8517   2.8569   2.9827   3.2001   3.2132   3.2810   3.2853   3.3820
     3.4022   3.5864   3.6007   3.6544   3.8578   3.8610   3.9182   3.9303
     4.1772   4.1799   4.2004   4.4280   4.4626   4.4760   4.5169   4.8461
     4.8539   4.8820   5.0155   5.1806   5.1906   5.2084   5.2457   5.4398
     5.7865   5.9308   5.9682   5.9773   5.9871   6.0457   6.0505   6.1068
     6.1418   6.1640   6.1854   6.2105   6.2143   6.2284   6.2482   6.2682
     6.2914   6.4481   6.5670   6.6857   6.7464   6.7760   6.9143   6.9214
     6.9329   7.0208   7.0418

          k =-0.2500 0.4330-0.1111 (136853 PWs)   bands (ev):

   -19.5128  -7.4386  -6.2986  -5.9011  -5.8982  -5.2244  -4.8895  -4.8879
    -4.8542  -4.8496  -4.4890  -4.4875  -4.3903  -4.3894  -4.3754  -4.3525
    -4.3387  -4.2234  -4.2209  -4.1976  -4.1548  -4.1541  -4.0865  -4.0857
    -4.0820  -4.0802  -4.0581  -4.0549  -4.0498  -3.9925  -3.9815  -3.9512
    -3.9478  -3.9377  -3.9369  -3.9141  -3.9130  -3.8911  -3.8838  -3.8824
    -3.8575  -3.8050  -3.8037  -3.7580  -3.7538  -3.7025  -3.6999  -3.6636
    -3.6441  -3.6416  -3.6407  -3.6299  -3.6054  -3.5726  -3.5693  -3.5604
    -3.5587  -3.5556  -3.5327  -3.5292  -3.5197  -3.4628  -3.4608  -3.4540
    -3.4319  -3.4239  -3.3544  -3.3516  -3.3248  -3.3196  -3.2932  -3.2905
    -3.2762  -3.2606  -3.2048  -3.2026  -3.1847  -3.1836  -3.1358  -3.1288
    -3.1240  -3.0869  -3.0619  -3.0579  -3.0490  -3.0467  -3.0378  -3.0356
    -3.0294  -3.0272  -3.0182  -2.9771  -2.9405  -2.9369  -2.9257  -2.9240
    -2.8962  -2.8906  -2.8891  -2.8703  -2.8213  -2.8195  -2.8128  -2.7749
    -2.7677  -2.7549  -2.7545  -2.7286  -2.7260  -2.6946  -2.6648  -2.6575
    -2.6402  -2.6281  -2.6190  -2.6150  -2.5671  -2.5662  -2.5324  -2.5161
    -2.5082  -2.4888  -2.4870  -2.4770  -2.4732  -2.4638  -2.4443  -2.4418
    -2.4148  -2.3945  -2.3930  -2.3809  -2.3795  -2.3748  -2.3683  -2.3636
    -2.3623  -2.3581  -2.3520  -2.3511  -2.3435  -2.3405  -2.3228  -2.3055
    -2.3034  -2.3011  -2.3004  -2.2978  -2.2965  -2.2728  -2.2711  -2.2587
    -2.2533  -2.2489  -2.2341  -2.2307  -2.2260  -2.2234  -2.2227  -2.2175
    -2.2052  -2.2023  -2.2002  -2.1892  -2.1639  -2.1580  -2.1190  -2.1154
    -2.1015  -2.0944  -2.0883  -2.0641  -2.0436  -2.0376  -2.0286  -2.0218
    -2.0086  -1.9869  -1.9737  -1.9666  -1.9603  -1.9571  -1.9506  -1.9475
    -1.9371  -1.9200  -1.9133  -1.8839  -1.8493  -1.8456  -1.8439  -1.8418
    -1.8141  -1.7936  -1.7848  -1.7836  -1.7585  -1.7331  -1.7017  -1.6968
    -1.6637  -1.6498  -1.6260  -1.5894  -1.5878  -1.5796  -1.5754  -1.5667
    -1.5642  -1.5584  -1.5533  -1.5504  -1.5000  -1.4918  -1.4856  -1.4828
    -1.4709  -1.4677  -1.4525  -1.4307  -1.4272  -1.4143  -1.4114  -1.4107
    -1.4021  -1.3951  -1.3906  -1.3836  -1.3690  -1.3679  -1.3346  -1.3257
    -1.3175  -1.3040  -1.2944  -1.2804  -1.2429  -1.2401  -1.2130  -1.2102
    -1.2085  -1.1801  -1.1328  -1.1276  -1.1262  -1.1231  -1.1199  -1.1129
    -1.1062  -1.0958  -1.0875  -1.0541  -1.0488  -1.0219  -1.0192  -1.0145
    -1.0114  -1.0087  -0.9947  -0.9907  -0.9883  -0.9850  -0.9828  -0.9500
    -0.9457  -0.9446  -0.9383  -0.9192  -0.9151  -0.9076  -0.8873  -0.8791
    -0.8668  -0.8341  -0.8265  -0.8163  -0.7895  -0.7824  -0.7719  -0.7711
    -0.7655  -0.7645  -0.7602  -0.7536  -0.7479  -0.7348  -0.7245  -0.7228
    -0.7179  -0.7163  -0.7089  -0.6792  -0.6788  -0.6732  -0.6634  -0.6489
    -0.6452  -0.6360  -0.6284  -0.5769  -0.5742  -0.5688  -0.5680  -0.5652
    -0.5625  -0.5538  -0.5407  -0.5351  -0.5329  -0.5302  -0.5301  -0.5104
    -0.4905  -0.4884  -0.4867  -0.4793  -0.4756  -0.4731  -0.4707  -0.4581
    -0.4532  -0.4517  -0.4200  -0.4112  -0.4064  -0.4019  -0.3978  -0.3813
    -0.3238  -0.3183  -0.3171  -0.3124  -0.3084  -0.2995  -0.2707  -0.2593
    -0.2588  -0.2321  -0.2264  -0.1684  -0.1083  -0.0938  -0.0017   0.4121
     0.4131   0.4173   0.4185   0.4721   0.5070   0.8601   0.8675   0.9050
     0.9097   1.0265   1.1050   1.2049   1.2280   1.4234   1.4622   2.0570
     2.0747   2.2171   2.2378   2.3498   2.3819   2.4626   2.4634   2.6167
     2.8487   2.8603   2.9817   3.1963   3.2136   3.2809   3.2884   3.3813
     3.4023   3.5782   3.6052   3.6595   3.8574   3.8614   3.9181   3.9333
     4.1759   4.1774   4.2021   4.4296   4.4624   4.4739   4.5182   4.8442
     4.8587   4.8748   5.0171   5.1853   5.1913   5.2062   5.2425   5.4392
     5.8017   5.9188   5.9704   5.9732   5.9904   6.0427   6.0534   6.1129
     6.1313   6.1766   6.1854   6.2094   6.2169   6.2241   6.2587   6.2695
     6.2861   6.4484   6.5506   6.6904   6.7479   6.7641   6.9106   6.9233
     6.9314   7.0271   7.0450

          k = 0.2500-0.4330-0.1111 (136853 PWs)   bands (ev):

   -19.5128  -7.4386  -6.2986  -5.9011  -5.8982  -5.2244  -4.8895  -4.8879
    -4.8541  -4.8496  -4.4890  -4.4875  -4.3903  -4.3894  -4.3754  -4.3525
    -4.3387  -4.2234  -4.2209  -4.1976  -4.1547  -4.1541  -4.0865  -4.0857
    -4.0820  -4.0802  -4.0581  -4.0549  -4.0498  -3.9925  -3.9815  -3.9512
    -3.9478  -3.9377  -3.9369  -3.9141  -3.9130  -3.8911  -3.8838  -3.8823
    -3.8575  -3.8050  -3.8037  -3.7580  -3.7538  -3.7025  -3.6999  -3.6636
    -3.6441  -3.6416  -3.6407  -3.6299  -3.6054  -3.5726  -3.5693  -3.5604
    -3.5587  -3.5556  -3.5327  -3.5292  -3.5197  -3.4628  -3.4608  -3.4540
    -3.4319  -3.4239  -3.3544  -3.3516  -3.3248  -3.3196  -3.2932  -3.2905
    -3.2762  -3.2606  -3.2048  -3.2026  -3.1847  -3.1836  -3.1358  -3.1288
    -3.1240  -3.0869  -3.0619  -3.0579  -3.0490  -3.0467  -3.0378  -3.0356
    -3.0294  -3.0272  -3.0182  -2.9771  -2.9405  -2.9369  -2.9257  -2.9240
    -2.8962  -2.8906  -2.8891  -2.8703  -2.8213  -2.8195  -2.8128  -2.7749
    -2.7677  -2.7549  -2.7545  -2.7286  -2.7260  -2.6946  -2.6648  -2.6575
    -2.6402  -2.6281  -2.6190  -2.6150  -2.5671  -2.5662  -2.5324  -2.5161
    -2.5082  -2.4888  -2.4870  -2.4770  -2.4732  -2.4638  -2.4443  -2.4418
    -2.4148  -2.3945  -2.3930  -2.3809  -2.3795  -2.3748  -2.3683  -2.3636
    -2.3623  -2.3581  -2.3520  -2.3511  -2.3435  -2.3405  -2.3228  -2.3055
    -2.3034  -2.3011  -2.3004  -2.2978  -2.2965  -2.2728  -2.2711  -2.2587
    -2.2533  -2.2489  -2.2341  -2.2307  -2.2260  -2.2234  -2.2227  -2.2175
    -2.2052  -2.2023  -2.2002  -2.1892  -2.1639  -2.1580  -2.1190  -2.1154
    -2.1015  -2.0944  -2.0883  -2.0641  -2.0436  -2.0376  -2.0286  -2.0218
    -2.0086  -1.9869  -1.9737  -1.9666  -1.9603  -1.9571  -1.9506  -1.9475
    -1.9371  -1.9200  -1.9133  -1.8839  -1.8493  -1.8456  -1.8439  -1.8418
    -1.8141  -1.7936  -1.7848  -1.7836  -1.7585  -1.7331  -1.7017  -1.6968
    -1.6637  -1.6498  -1.6260  -1.5894  -1.5878  -1.5796  -1.5754  -1.5667
    -1.5642  -1.5584  -1.5533  -1.5504  -1.5000  -1.4918  -1.4856  -1.4828
    -1.4709  -1.4677  -1.4525  -1.4307  -1.4272  -1.4143  -1.4114  -1.4107
    -1.4021  -1.3951  -1.3906  -1.3836  -1.3690  -1.3679  -1.3346  -1.3257
    -1.3175  -1.3040  -1.2944  -1.2804  -1.2429  -1.2401  -1.2130  -1.2102
    -1.2085  -1.1801  -1.1328  -1.1276  -1.1262  -1.1231  -1.1199  -1.1129
    -1.1062  -1.0958  -1.0875  -1.0541  -1.0488  -1.0219  -1.0192  -1.0145
    -1.0114  -1.0087  -0.9947  -0.9907  -0.9883  -0.9850  -0.9829  -0.9500
    -0.9457  -0.9446  -0.9383  -0.9192  -0.9151  -0.9076  -0.8873  -0.8791
    -0.8668  -0.8341  -0.8265  -0.8163  -0.7895  -0.7824  -0.7719  -0.7711
    -0.7655  -0.7645  -0.7602  -0.7536  -0.7479  -0.7348  -0.7245  -0.7228
    -0.7179  -0.7163  -0.7089  -0.6792  -0.6788  -0.6732  -0.6634  -0.6489
    -0.6452  -0.6360  -0.6284  -0.5769  -0.5742  -0.5688  -0.5680  -0.5652
    -0.5625  -0.5538  -0.5407  -0.5351  -0.5329  -0.5302  -0.5301  -0.5104
    -0.4905  -0.4884  -0.4867  -0.4793  -0.4756  -0.4731  -0.4707  -0.4581
    -0.4532  -0.4517  -0.4200  -0.4112  -0.4064  -0.4019  -0.3978  -0.3813
    -0.3238  -0.3183  -0.3171  -0.3124  -0.3084  -0.2995  -0.2707  -0.2593
    -0.2588  -0.2321  -0.2264  -0.1684  -0.1083  -0.0938  -0.0017   0.4121
     0.4131   0.4173   0.4185   0.4721   0.5070   0.8601   0.8675   0.9050
     0.9097   1.0265   1.1050   1.2049   1.2280   1.4234   1.4622   2.0570
     2.0747   2.2171   2.2378   2.3498   2.3819   2.4626   2.4634   2.6167
     2.8487   2.8603   2.9817   3.1963   3.2136   3.2809   3.2884   3.3813
     3.4023   3.5782   3.6052   3.6595   3.8574   3.8614   3.9181   3.9333
     4.1759   4.1774   4.2021   4.4296   4.4624   4.4739   4.5182   4.8442
     4.8587   4.8748   5.0171   5.1853   5.1913   5.2062   5.2425   5.4392
     5.8017   5.9189   5.9705   5.9732   5.9905   6.0427   6.0535   6.1134
     6.1313   6.1744   6.1850   6.2093   6.2165   6.2241   6.2592   6.2695
     6.2862   6.4493   6.5503   6.6985   6.7492   6.7631   6.9107   6.9234
     6.9332   7.0188   7.0362

          k = 0.5000 0.0000 0.1111 (136853 PWs)   bands (ev):

   -19.5128  -7.4386  -6.2986  -5.9016  -5.8977  -5.2243  -4.8898  -4.8875
    -4.8555  -4.8484  -4.4895  -4.4869  -4.3899  -4.3896  -4.3752  -4.3525
    -4.3382  -4.2242  -4.2211  -4.1982  -4.1551  -4.1537  -4.0866  -4.0855
    -4.0821  -4.0802  -4.0586  -4.0553  -4.0494  -3.9932  -3.9807  -3.9518
    -3.9472  -3.9374  -3.9364  -3.9145  -3.9131  -3.8907  -3.8841  -3.8825
    -3.8576  -3.8051  -3.8041  -3.7574  -3.7541  -3.7039  -3.6997  -3.6576
    -3.6450  -3.6415  -3.6408  -3.6336  -3.6027  -3.5724  -3.5698  -3.5601
    -3.5592  -3.5565  -3.5341  -3.5285  -3.5200  -3.4628  -3.4615  -3.4529
    -3.4320  -3.4243  -3.3540  -3.3502  -3.3255  -3.3192  -3.2946  -3.2909
    -3.2762  -3.2611  -3.2048  -3.2028  -3.1858  -3.1830  -3.1346  -3.1298
    -3.1233  -3.0872  -3.0627  -3.0571  -3.0487  -3.0456  -3.0393  -3.0362
    -3.0293  -3.0261  -3.0188  -2.9774  -2.9410  -2.9363  -2.9260  -2.9241
    -2.8966  -2.8913  -2.8889  -2.8700  -2.8225  -2.8184  -2.8110  -2.7753
    -2.7677  -2.7556  -2.7540  -2.7278  -2.7234  -2.6948  -2.6650  -2.6587
    -2.6399  -2.6282  -2.6206  -2.6155  -2.5681  -2.5651  -2.5317  -2.5155
    -2.5095  -2.4899  -2.4854  -2.4766  -2.4732  -2.4638  -2.4435  -2.4420
    -2.4142  -2.3946  -2.3930  -2.3819  -2.3783  -2.3743  -2.3687  -2.3640
    -2.3627  -2.3586  -2.3548  -2.3510  -2.3418  -2.3408  -2.3240  -2.3063
    -2.3027  -2.3023  -2.3006  -2.2985  -2.2951  -2.2728  -2.2703  -2.2573
    -2.2533  -2.2482  -2.2340  -2.2313  -2.2265  -2.2245  -2.2219  -2.2158
    -2.2069  -2.2017  -2.1990  -2.1900  -2.1644  -2.1577  -2.1188  -2.1153
    -2.1020  -2.0947  -2.0877  -2.0658  -2.0421  -2.0379  -2.0291  -2.0207
    -2.0098  -1.9873  -1.9714  -1.9675  -1.9600  -1.9572  -1.9517  -1.9485
    -1.9352  -1.9183  -1.9139  -1.8821  -1.8509  -1.8464  -1.8432  -1.8409
    -1.8169  -1.7918  -1.7859  -1.7820  -1.7582  -1.7340  -1.7017  -1.6964
    -1.6635  -1.6498  -1.6258  -1.5904  -1.5875  -1.5775  -1.5750  -1.5675
    -1.5639  -1.5584  -1.5530  -1.5507  -1.4973  -1.4943  -1.4848  -1.4825
    -1.4713  -1.4642  -1.4577  -1.4302  -1.4287  -1.4131  -1.4124  -1.4094
    -1.4026  -1.3957  -1.3893  -1.3841  -1.3688  -1.3683  -1.3330  -1.3211
    -1.3181  -1.3078  -1.2983  -1.2804  -1.2435  -1.2394  -1.2147  -1.2099
    -1.2070  -1.1795  -1.1320  -1.1284  -1.1264  -1.1233  -1.1196  -1.1142
    -1.1052  -1.0947  -1.0868  -1.0568  -1.0476  -1.0219  -1.0201  -1.0143
    -1.0122  -1.0083  -0.9938  -0.9900  -0.9888  -0.9861  -0.9810  -0.9493
    -0.9465  -0.9440  -0.9396  -0.9179  -0.9115  -0.9098  -0.8878  -0.8781
    -0.8692  -0.8332  -0.8265  -0.8164  -0.7893  -0.7818  -0.7749  -0.7703
    -0.7651  -0.7644  -0.7597  -0.7546  -0.7486  -0.7341  -0.7254  -0.7216
    -0.7178  -0.7171  -0.7082  -0.6797  -0.6782  -0.6714  -0.6651  -0.6503
    -0.6453  -0.6354  -0.6279  -0.5767  -0.5747  -0.5692  -0.5670  -0.5651
    -0.5628  -0.5546  -0.5404  -0.5350  -0.5328  -0.5310  -0.5290  -0.5108
    -0.4918  -0.4879  -0.4860  -0.4785  -0.4756  -0.4731  -0.4711  -0.4592
    -0.4534  -0.4517  -0.4188  -0.4107  -0.4070  -0.4021  -0.3964  -0.3841
    -0.3233  -0.3188  -0.3169  -0.3133  -0.3078  -0.2994  -0.2704  -0.2594
    -0.2587  -0.2301  -0.2266  -0.1718  -0.1041  -0.0965  -0.0011   0.4124
     0.4131   0.4171   0.4183   0.4744   0.5041   0.8612   0.8672   0.9061
     0.9083   1.0257   1.1048   1.2065   1.2272   1.4239   1.4632   2.0584
     2.0732   2.2189   2.2351   2.3503   2.3814   2.4620   2.4639   2.6170
     2.8500   2.8601   2.9819   3.1968   3.2150   3.2809   3.2869   3.3813
     3.4022   3.5715   3.6137   3.6547   3.8575   3.8614   3.9180   3.9335
     4.1729   4.1804   4.2020   4.4289   4.4617   4.4765   4.5169   4.8483
     4.8514   4.8797   5.0175   5.1731   5.1903   5.1942   5.2662   5.4544
     5.7728   5.9458   5.9689   5.9798   5.9846   6.0462   6.0488   6.1121
     6.1298   6.1560   6.1870   6.2079   6.2168   6.2246   6.2476   6.2677
     6.2968   6.4449   6.5728   6.6800   6.7412   6.7984   6.9103   6.9202
     6.9336   7.0103   7.0405

          k =-0.5000 0.0000 0.1111 (136853 PWs)   bands (ev):

   -19.5128  -7.4386  -6.2986  -5.9016  -5.8977  -5.2243  -4.8898  -4.8875
    -4.8555  -4.8484  -4.4895  -4.4869  -4.3899  -4.3896  -4.3752  -4.3525
    -4.3382  -4.2242  -4.2211  -4.1982  -4.1551  -4.1537  -4.0866  -4.0855
    -4.0821  -4.0802  -4.0586  -4.0553  -4.0494  -3.9932  -3.9807  -3.9518
    -3.9472  -3.9374  -3.9364  -3.9145  -3.9131  -3.8907  -3.8841  -3.8825
    -3.8576  -3.8051  -3.8041  -3.7574  -3.7541  -3.7039  -3.6997  -3.6576
    -3.6450  -3.6415  -3.6408  -3.6336  -3.6027  -3.5724  -3.5698  -3.5601
    -3.5592  -3.5565  -3.5341  -3.5285  -3.5200  -3.4628  -3.4615  -3.4529
    -3.4320  -3.4243  -3.3540  -3.3502  -3.3255  -3.3192  -3.2946  -3.2909
    -3.2762  -3.2611  -3.2048  -3.2028  -3.1858  -3.1830  -3.1346  -3.1298
    -3.1233  -3.0872  -3.0627  -3.0571  -3.0487  -3.0456  -3.0393  -3.0362
    -3.0293  -3.0261  -3.0188  -2.9774  -2.9410  -2.9363  -2.9260  -2.9241
    -2.8966  -2.8913  -2.8889  -2.8700  -2.8225  -2.8184  -2.8110  -2.7753
    -2.7677  -2.7556  -2.7540  -2.7278  -2.7234  -2.6948  -2.6650  -2.6587
    -2.6399  -2.6282  -2.6206  -2.6155  -2.5681  -2.5651  -2.5317  -2.5155
    -2.5095  -2.4899  -2.4854  -2.4766  -2.4732  -2.4638  -2.4435  -2.4420
    -2.4142  -2.3946  -2.3930  -2.3819  -2.3783  -2.3743  -2.3687  -2.3640
    -2.3627  -2.3586  -2.3548  -2.3510  -2.3418  -2.3408  -2.3240  -2.3063
    -2.3027  -2.3023  -2.3006  -2.2985  -2.2951  -2.2728  -2.2703  -2.2573
    -2.2533  -2.2482  -2.2340  -2.2313  -2.2265  -2.2245  -2.2219  -2.2158
    -2.2069  -2.2017  -2.1990  -2.1900  -2.1644  -2.1577  -2.1188  -2.1153
    -2.1020  -2.0947  -2.0877  -2.0658  -2.0421  -2.0379  -2.0291  -2.0207
    -2.0098  -1.9873  -1.9714  -1.9675  -1.9600  -1.9572  -1.9517  -1.9485
    -1.9352  -1.9183  -1.9139  -1.8821  -1.8509  -1.8464  -1.8432  -1.8409
    -1.8169  -1.7918  -1.7859  -1.7820  -1.7583  -1.7340  -1.7017  -1.6964
    -1.6635  -1.6498  -1.6258  -1.5904  -1.5875  -1.5775  -1.5750  -1.5675
    -1.5639  -1.5584  -1.5530  -1.5507  -1.4973  -1.4943  -1.4848  -1.4825
    -1.4713  -1.4642  -1.4577  -1.4302  -1.4287  -1.4131  -1.4124  -1.4094
    -1.4026  -1.3957  -1.3893  -1.3841  -1.3688  -1.3683  -1.3330  -1.3211
    -1.3181  -1.3078  -1.2983  -1.2804  -1.2435  -1.2394  -1.2147  -1.2099
    -1.2070  -1.1795  -1.1320  -1.1284  -1.1264  -1.1233  -1.1196  -1.1142
    -1.1052  -1.0947  -1.0868  -1.0568  -1.0476  -1.0219  -1.0201  -1.0143
    -1.0122  -1.0083  -0.9938  -0.9900  -0.9888  -0.9861  -0.9810  -0.9493
    -0.9465  -0.9440  -0.9396  -0.9179  -0.9115  -0.9098  -0.8878  -0.8781
    -0.8692  -0.8332  -0.8265  -0.8164  -0.7893  -0.7818  -0.7749  -0.7703
    -0.7651  -0.7644  -0.7597  -0.7546  -0.7486  -0.7341  -0.7254  -0.7216
    -0.7178  -0.7171  -0.7082  -0.6797  -0.6782  -0.6714  -0.6651  -0.6503
    -0.6453  -0.6354  -0.6279  -0.5767  -0.5747  -0.5692  -0.5670  -0.5651
    -0.5628  -0.5546  -0.5404  -0.5350  -0.5328  -0.5310  -0.5290  -0.5108
    -0.4918  -0.4879  -0.4860  -0.4785  -0.4756  -0.4731  -0.4711  -0.4592
    -0.4534  -0.4517  -0.4188  -0.4107  -0.4070  -0.4021  -0.3964  -0.3841
    -0.3233  -0.3188  -0.3169  -0.3133  -0.3078  -0.2994  -0.2704  -0.2594
    -0.2587  -0.2301  -0.2266  -0.1718  -0.1041  -0.0965  -0.0011   0.4124
     0.4131   0.4171   0.4183   0.4744   0.5041   0.8612   0.8672   0.9061
     0.9083   1.0257   1.1048   1.2065   1.2272   1.4239   1.4632   2.0584
     2.0732   2.2189   2.2351   2.3503   2.3814   2.4620   2.4639   2.6170
     2.8500   2.8601   2.9819   3.1968   3.2150   3.2809   3.2869   3.3813
     3.4022   3.5715   3.6137   3.6547   3.8575   3.8614   3.9180   3.9335
     4.1729   4.1804   4.2020   4.4289   4.4617   4.4765   4.5169   4.8483
     4.8514   4.8797   5.0175   5.1731   5.1903   5.1942   5.2662   5.4544
     5.7725   5.9459   5.9689   5.9798   5.9845   6.0463   6.0488   6.1123
     6.1307   6.1560   6.1865   6.2076   6.2168   6.2244   6.2476   6.2677
     6.2964   6.4457   6.5726   6.6788   6.7418   6.8008   6.9119   6.9207
     6.9339   7.0147   7.0387

          k =-0.2500 0.1443 0.1111 (136898 PWs)   bands (ev):

   -19.5128  -7.4388  -6.5082  -5.7170  -5.4280  -5.3674  -5.3664  -4.8289
    -4.8283  -4.6993  -4.6963  -4.5437  -4.5171  -4.4489  -4.4187  -4.4175
    -4.3821  -4.3816  -4.2530  -4.2126  -4.2106  -4.1525  -4.1323  -4.1319
    -4.0285  -4.0280  -3.9927  -3.9918  -3.9914  -3.9668  -3.9440  -3.9431
    -3.8461  -3.8389  -3.8358  -3.8175  -3.7998  -3.7992  -3.7908  -3.7874
    -3.7766  -3.7454  -3.7439  -3.7425  -3.7420  -3.7150  -3.7116  -3.6964
    -3.6922  -3.6882  -3.6620  -3.6412  -3.6313  -3.6053  -3.5929  -3.5839
    -3.5827  -3.5689  -3.5093  -3.5084  -3.4777  -3.4739  -3.4682  -3.4036
    -3.4032  -3.3890  -3.3880  -3.3613  -3.3596  -3.3576  -3.3548  -3.2060
    -3.2021  -3.1825  -3.1758  -3.1703  -3.1574  -3.1552  -3.1323  -3.1321
    -3.0819  -3.0805  -3.0665  -3.0641  -3.0437  -2.9992  -2.9960  -2.9776
    -2.9740  -2.9710  -2.9340  -2.9303  -2.9221  -2.9202  -2.9078  -2.9061
    -2.8700  -2.8679  -2.8477  -2.8453  -2.8433  -2.8414  -2.8369  -2.7666
    -2.7630  -2.7607  -2.7343  -2.7300  -2.6705  -2.6672  -2.6475  -2.6397
    -2.6306  -2.6271  -2.6195  -2.5919  -2.5906  -2.5810  -2.5690  -2.5483
    -2.5401  -2.5383  -2.5189  -2.5177  -2.5104  -2.5068  -2.5061  -2.5023
    -2.4914  -2.4460  -2.4220  -2.4159  -2.4044  -2.3922  -2.3845  -2.3818
    -2.3770  -2.3718  -2.3686  -2.3553  -2.3411  -2.3389  -2.3342  -2.3294
    -2.3160  -2.3033  -2.2882  -2.2874  -2.2844  -2.2838  -2.2367  -2.2215
    -2.2076  -2.2058  -2.2018  -2.1890  -2.1859  -2.1797  -2.1616  -2.1601
    -2.1410  -2.1276  -2.1266  -2.1167  -2.1085  -2.1071  -2.0922  -2.0752
    -2.0709  -2.0393  -2.0281  -2.0263  -2.0229  -2.0226  -2.0188  -2.0171
    -2.0138  -2.0119  -2.0071  -1.9986  -1.9898  -1.9609  -1.8692  -1.8623
    -1.8282  -1.8250  -1.8212  -1.8153  -1.8133  -1.8011  -1.7992  -1.7982
    -1.7960  -1.7834  -1.7714  -1.7700  -1.7654  -1.7571  -1.7511  -1.7315
    -1.7295  -1.7038  -1.6997  -1.6923  -1.6732  -1.6674  -1.6592  -1.6481
    -1.6315  -1.6281  -1.6193  -1.6124  -1.5967  -1.5942  -1.5902  -1.5855
    -1.5653  -1.5607  -1.5473  -1.5461  -1.5148  -1.5084  -1.4989  -1.4568
    -1.4546  -1.4409  -1.4395  -1.4166  -1.4127  -1.4065  -1.3811  -1.3780
    -1.3725  -1.3399  -1.3359  -1.3259  -1.3167  -1.3140  -1.2960  -1.2915
    -1.2762  -1.2623  -1.2576  -1.2554  -1.1972  -1.1940  -1.1863  -1.1819
    -1.1685  -1.1661  -1.1533  -1.1525  -1.1345  -1.1214  -1.0927  -1.0917
    -1.0796  -1.0515  -1.0439  -1.0389  -1.0306  -1.0297  -1.0290  -1.0261
    -1.0154  -1.0077  -0.9859  -0.9819  -0.9707  -0.9670  -0.9660  -0.9510
    -0.9465  -0.9262  -0.9134  -0.9033  -0.8717  -0.8132  -0.8004  -0.7934
    -0.7925  -0.7880  -0.7824  -0.7739  -0.7606  -0.7503  -0.7423  -0.7334
    -0.7282  -0.7216  -0.7189  -0.7008  -0.6968  -0.6880  -0.6842  -0.6140
    -0.6119  -0.5818  -0.5756  -0.5741  -0.5695  -0.5653  -0.5643  -0.5601
    -0.5537  -0.5452  -0.5203  -0.5088  -0.4886  -0.4791  -0.4775  -0.4670
    -0.4607  -0.4561  -0.4535  -0.4517  -0.4495  -0.4363  -0.4338  -0.4290
    -0.4134  -0.3986  -0.3959  -0.3862  -0.3820  -0.3696  -0.3630  -0.3322
    -0.3277  -0.3225  -0.3070  -0.2533  -0.2501  -0.2201  -0.2190  -0.1627
    -0.1607  -0.1592  -0.1367  -0.1233   0.0907   0.1347   0.4421   0.4422
     0.5278   0.5594   0.7266   0.7590   0.7742   0.8859   0.8940   1.3218
     1.3233   1.3382   1.6035   1.6324   1.6335   1.8997   1.9279   1.9843
     1.9866   2.0087   2.0350   2.2403   2.2429   2.3332   2.3344   2.4011
     2.4648   2.4975   2.6371   2.7404   3.1675   3.1719   3.1768   3.1894
     3.2278   3.2365   3.5248   3.5274   3.7988   3.8212   3.9072   4.2224
     4.2569   4.2716   4.4519   4.4975   4.5605   4.5683   4.6588   4.7714
     4.7845   4.8909   4.8986   5.1922   5.2518   5.2693   5.2948   5.4317
     5.4662   5.6443   5.6532   5.6780   5.6833   5.7277   5.7457   5.7790
     5.8702   6.0532   6.2627   6.3344   6.3504   6.4762   6.4822   6.4938
     6.5060   6.5410   6.6654   6.7285   6.7405   6.8279   6.9143   6.9357
     6.9883   7.0470   7.0683

          k =-0.2500-0.1443-0.1111 (136898 PWs)   bands (ev):

   -19.5128  -7.4388  -6.5083  -5.7171  -5.4280  -5.3674  -5.3662  -4.8289
    -4.8282  -4.6995  -4.6964  -4.5437  -4.5172  -4.4488  -4.4190  -4.4168
    -4.3824  -4.3814  -4.2532  -4.2118  -4.2112  -4.1526  -4.1324  -4.1317
    -4.0287  -4.0281  -3.9930  -3.9918  -3.9912  -3.9670  -3.9442  -3.9428
    -3.8463  -3.8372  -3.8362  -3.8173  -3.7997  -3.7991  -3.7902  -3.7874
    -3.7766  -3.7476  -3.7439  -3.7430  -3.7419  -3.7148  -3.7122  -3.6969
    -3.6920  -3.6844  -3.6656  -3.6414  -3.6291  -3.6035  -3.5930  -3.5838
    -3.5827  -3.5718  -3.5092  -3.5089  -3.4771  -3.4734  -3.4691  -3.4034
    -3.4027  -3.3892  -3.3877  -3.3607  -3.3597  -3.3588  -3.3555  -3.2036
    -3.2019  -3.1813  -3.1798  -3.1685  -3.1573  -3.1556  -3.1323  -3.1319
    -3.0817  -3.0805  -3.0653  -3.0638  -3.0441  -2.9998  -2.9974  -2.9787
    -2.9725  -2.9711  -2.9320  -2.9309  -2.9230  -2.9206  -2.9100  -2.9062
    -2.8688  -2.8675  -2.8484  -2.8452  -2.8431  -2.8416  -2.8365  -2.7652
    -2.7629  -2.7612  -2.7342  -2.7299  -2.6769  -2.6676  -2.6422  -2.6400
    -2.6292  -2.6270  -2.6194  -2.5943  -2.5904  -2.5804  -2.5648  -2.5472
    -2.5412  -2.5383  -2.5204  -2.5177  -2.5125  -2.5065  -2.5059  -2.5024
    -2.4914  -2.4460  -2.4255  -2.4169  -2.4094  -2.3916  -2.3824  -2.3816
    -2.3762  -2.3720  -2.3689  -2.3525  -2.3406  -2.3391  -2.3321  -2.3300
    -2.3160  -2.2988  -2.2885  -2.2876  -2.2844  -2.2839  -2.2372  -2.2251
    -2.2087  -2.2061  -2.2016  -2.1892  -2.1845  -2.1803  -2.1614  -2.1600
    -2.1453  -2.1295  -2.1267  -2.1188  -2.1094  -2.1082  -2.0935  -2.0744
    -2.0634  -2.0394  -2.0281  -2.0269  -2.0226  -2.0211  -2.0176  -2.0165
    -2.0136  -2.0111  -2.0061  -1.9956  -1.9903  -1.9591  -1.8664  -1.8614
    -1.8307  -1.8266  -1.8223  -1.8151  -1.8142  -1.8017  -1.7989  -1.7977
    -1.7964  -1.7835  -1.7711  -1.7695  -1.7651  -1.7548  -1.7514  -1.7337
    -1.7296  -1.7060  -1.7007  -1.6862  -1.6729  -1.6639  -1.6581  -1.6485
    -1.6312  -1.6278  -1.6215  -1.6126  -1.5972  -1.5946  -1.5900  -1.5865
    -1.5648  -1.5618  -1.5510  -1.5452  -1.5144  -1.5082  -1.4962  -1.4574
    -1.4552  -1.4409  -1.4391  -1.4235  -1.4128  -1.4079  -1.3813  -1.3784
    -1.3666  -1.3424  -1.3346  -1.3299  -1.3168  -1.3161  -1.2949  -1.2914
    -1.2710  -1.2612  -1.2576  -1.2566  -1.1957  -1.1936  -1.1853  -1.1822
    -1.1679  -1.1663  -1.1532  -1.1508  -1.1337  -1.1211  -1.0939  -1.0926
    -1.0797  -1.0513  -1.0427  -1.0388  -1.0310  -1.0300  -1.0287  -1.0259
    -1.0208  -1.0076  -0.9846  -0.9827  -0.9702  -0.9674  -0.9663  -0.9507
    -0.9462  -0.9254  -0.9148  -0.9027  -0.8727  -0.8138  -0.7995  -0.7935
    -0.7926  -0.7865  -0.7825  -0.7735  -0.7605  -0.7502  -0.7417  -0.7370
    -0.7280  -0.7221  -0.7194  -0.7014  -0.6957  -0.6874  -0.6832  -0.6131
    -0.6125  -0.5808  -0.5754  -0.5742  -0.5690  -0.5657  -0.5644  -0.5597
    -0.5540  -0.5453  -0.5185  -0.5087  -0.4920  -0.4785  -0.4775  -0.4671
    -0.4609  -0.4559  -0.4537  -0.4516  -0.4497  -0.4369  -0.4335  -0.4290
    -0.4126  -0.3988  -0.3963  -0.3867  -0.3826  -0.3668  -0.3629  -0.3324
    -0.3271  -0.3223  -0.3118  -0.2550  -0.2462  -0.2199  -0.2192  -0.1621
    -0.1611  -0.1591  -0.1367  -0.1210   0.0925   0.1297   0.4419   0.4422
     0.5299   0.5577   0.7237   0.7534   0.7829   0.8868   0.8940   1.3223
     1.3231   1.3377   1.6058   1.6318   1.6332   1.9023   1.9248   1.9849
     1.9858   2.0112   2.0329   2.2410   2.2429   2.3331   2.3341   2.4017
     2.4667   2.4933   2.6383   2.7423   3.1680   3.1708   3.1765   3.1872
     3.2312   3.2344   3.5254   3.5262   3.8019   3.8186   3.9061   4.2223
     4.2596   4.2698   4.4547   4.4931   4.5585   4.5745   4.6585   4.7697
     4.7874   4.8918   4.8936   5.1915   5.2495   5.2702   5.2941   5.4391
     5.4628   5.6474   5.6523   5.6807   5.6818   5.7373   5.7407   5.7691
     5.8656   6.0427   6.2694   6.3319   6.3690   6.4820   6.4842   6.4956
     6.5007   6.5377   6.6553   6.7272   6.7361   6.8141   6.9278   6.9433
     6.9802   7.0481   7.0752

          k = 0.2500 0.1443-0.1111 (136898 PWs)   bands (ev):

   -19.5128  -7.4388  -6.5083  -5.7171  -5.4280  -5.3674  -5.3662  -4.8289
    -4.8282  -4.6995  -4.6964  -4.5437  -4.5172  -4.4488  -4.4190  -4.4168
    -4.3824  -4.3814  -4.2532  -4.2118  -4.2112  -4.1526  -4.1324  -4.1317
    -4.0287  -4.0281  -3.9930  -3.9918  -3.9912  -3.9670  -3.9442  -3.9428
    -3.8463  -3.8372  -3.8362  -3.8173  -3.7997  -3.7990  -3.7902  -3.7874
    -3.7766  -3.7476  -3.7439  -3.7430  -3.7419  -3.7148  -3.7122  -3.6969
    -3.6920  -3.6844  -3.6656  -3.6414  -3.6291  -3.6035  -3.5930  -3.5838
    -3.5827  -3.5718  -3.5092  -3.5089  -3.4771  -3.4734  -3.4691  -3.4034
    -3.4027  -3.3892  -3.3877  -3.3607  -3.3597  -3.3588  -3.3555  -3.2036
    -3.2019  -3.1813  -3.1798  -3.1685  -3.1573  -3.1556  -3.1323  -3.1319
    -3.0817  -3.0805  -3.0653  -3.0638  -3.0441  -2.9998  -2.9974  -2.9787
    -2.9725  -2.9711  -2.9320  -2.9309  -2.9230  -2.9206  -2.9100  -2.9062
    -2.8688  -2.8675  -2.8484  -2.8452  -2.8431  -2.8416  -2.8365  -2.7652
    -2.7629  -2.7612  -2.7342  -2.7299  -2.6768  -2.6676  -2.6422  -2.6400
    -2.6292  -2.6270  -2.6194  -2.5943  -2.5904  -2.5804  -2.5648  -2.5472
    -2.5412  -2.5383  -2.5204  -2.5177  -2.5125  -2.5065  -2.5059  -2.5024
    -2.4914  -2.4460  -2.4255  -2.4169  -2.4094  -2.3916  -2.3824  -2.3816
    -2.3762  -2.3720  -2.3689  -2.3525  -2.3406  -2.3391  -2.3321  -2.3300
    -2.3160  -2.2988  -2.2885  -2.2876  -2.2844  -2.2839  -2.2373  -2.2251
    -2.2087  -2.2060  -2.2016  -2.1892  -2.1845  -2.1803  -2.1614  -2.1600
    -2.1453  -2.1295  -2.1267  -2.1188  -2.1094  -2.1082  -2.0935  -2.0744
    -2.0634  -2.0394  -2.0281  -2.0269  -2.0226  -2.0211  -2.0176  -2.0165
    -2.0136  -2.0111  -2.0061  -1.9956  -1.9903  -1.9591  -1.8664  -1.8614
    -1.8307  -1.8266  -1.8223  -1.8151  -1.8142  -1.8017  -1.7989  -1.7977
    -1.7964  -1.7835  -1.7711  -1.7695  -1.7651  -1.7548  -1.7514  -1.7337
    -1.7296  -1.7060  -1.7007  -1.6862  -1.6729  -1.6639  -1.6581  -1.6485
    -1.6312  -1.6278  -1.6215  -1.6126  -1.5971  -1.5946  -1.5900  -1.5865
    -1.5648  -1.5618  -1.5510  -1.5452  -1.5144  -1.5082  -1.4962  -1.4574
    -1.4552  -1.4409  -1.4391  -1.4235  -1.4128  -1.4079  -1.3813  -1.3784
    -1.3666  -1.3424  -1.3346  -1.3299  -1.3168  -1.3161  -1.2949  -1.2914
    -1.2710  -1.2612  -1.2576  -1.2566  -1.1957  -1.1936  -1.1853  -1.1822
    -1.1679  -1.1663  -1.1532  -1.1508  -1.1337  -1.1211  -1.0939  -1.0926
    -1.0797  -1.0513  -1.0427  -1.0388  -1.0310  -1.0300  -1.0287  -1.0259
    -1.0208  -1.0076  -0.9846  -0.9827  -0.9702  -0.9674  -0.9664  -0.9507
    -0.9462  -0.9254  -0.9148  -0.9027  -0.8727  -0.8138  -0.7995  -0.7935
    -0.7926  -0.7865  -0.7825  -0.7735  -0.7605  -0.7502  -0.7416  -0.7370
    -0.7280  -0.7221  -0.7194  -0.7014  -0.6957  -0.6874  -0.6832  -0.6131
    -0.6125  -0.5808  -0.5754  -0.5742  -0.5690  -0.5657  -0.5644  -0.5597
    -0.5540  -0.5453  -0.5185  -0.5087  -0.4920  -0.4785  -0.4775  -0.4671
    -0.4609  -0.4559  -0.4537  -0.4516  -0.4497  -0.4369  -0.4335  -0.4290
    -0.4126  -0.3988  -0.3963  -0.3867  -0.3826  -0.3668  -0.3629  -0.3324
    -0.3271  -0.3223  -0.3118  -0.2550  -0.2462  -0.2199  -0.2192  -0.1621
    -0.1611  -0.1591  -0.1367  -0.1210   0.0925   0.1297   0.4419   0.4422
     0.5299   0.5577   0.7237   0.7534   0.7829   0.8868   0.8940   1.3223
     1.3231   1.3377   1.6058   1.6318   1.6332   1.9023   1.9248   1.9849
     1.9858   2.0112   2.0329   2.2410   2.2429   2.3331   2.3341   2.4017
     2.4667   2.4933   2.6383   2.7423   3.1680   3.1708   3.1765   3.1872
     3.2312   3.2344   3.5254   3.5262   3.8019   3.8186   3.9061   4.2223
     4.2596   4.2698   4.4547   4.4931   4.5585   4.5745   4.6585   4.7697
     4.7874   4.8918   4.8936   5.1915   5.2495   5.2703   5.2941   5.4391
     5.4630   5.6474   5.6523   5.6806   5.6818   5.7373   5.7407   5.7695
     5.8640   6.0449   6.2700   6.3315   6.3689   6.4818   6.4847   6.4954
     6.4994   6.5347   6.6555   6.7261   6.7353   6.8151   6.9282   6.9430
     6.9802   7.0529   7.0800

          k = 0.0000-0.2887 0.1111 (136898 PWs)   bands (ev):

   -19.5128  -7.4388  -6.5083  -5.7171  -5.4281  -5.3673  -5.3663  -4.8287
    -4.8283  -4.6997  -4.6965  -4.5438  -4.5172  -4.4492  -4.4183  -4.4171
    -4.3819  -4.3815  -4.2534  -4.2121  -4.2107  -4.1524  -4.1324  -4.1320
    -4.0283  -4.0281  -3.9929  -3.9920  -3.9912  -3.9674  -3.9434  -3.9429
    -3.8492  -3.8371  -3.8360  -3.8175  -3.8002  -3.7990  -3.7884  -3.7872
    -3.7765  -3.7468  -3.7440  -3.7432  -3.7418  -3.7154  -3.7121  -3.6994
    -3.6919  -3.6862  -3.6537  -3.6419  -3.6301  -3.5991  -3.5926  -3.5865
    -3.5828  -3.5808  -3.5092  -3.5088  -3.4771  -3.4733  -3.4690  -3.4034
    -3.4018  -3.3895  -3.3879  -3.3606  -3.3596  -3.3580  -3.3569  -3.2024
    -3.2018  -3.1828  -3.1787  -3.1683  -3.1569  -3.1562  -3.1327  -3.1317
    -3.0811  -3.0807  -3.0645  -3.0630  -3.0442  -3.0001  -2.9977  -2.9790
    -2.9715  -2.9713  -2.9322  -2.9308  -2.9230  -2.9212  -2.9094  -2.9064
    -2.8684  -2.8676  -2.8496  -2.8461  -2.8432  -2.8418  -2.8363  -2.7645
    -2.7622  -2.7610  -2.7338  -2.7301  -2.6773  -2.6700  -2.6422  -2.6387
    -2.6285  -2.6274  -2.6193  -2.5943  -2.5912  -2.5803  -2.5642  -2.5480
    -2.5403  -2.5376  -2.5192  -2.5179  -2.5119  -2.5069  -2.5051  -2.5033
    -2.4914  -2.4460  -2.4256  -2.4171  -2.4099  -2.3911  -2.3831  -2.3813
    -2.3765  -2.3718  -2.3692  -2.3531  -2.3411  -2.3396  -2.3323  -2.3294
    -2.3157  -2.2985  -2.2886  -2.2865  -2.2845  -2.2837  -2.2374  -2.2263
    -2.2072  -2.2061  -2.2017  -2.1899  -2.1880  -2.1790  -2.1612  -2.1602
    -2.1436  -2.1288  -2.1269  -2.1186  -2.1100  -2.1085  -2.0920  -2.0760
    -2.0637  -2.0391  -2.0281  -2.0267  -2.0230  -2.0213  -2.0186  -2.0173
    -2.0126  -2.0102  -2.0088  -1.9930  -1.9898  -1.9601  -1.8676  -1.8620
    -1.8298  -1.8264  -1.8223  -1.8156  -1.8144  -1.8024  -1.7984  -1.7977
    -1.7948  -1.7834  -1.7718  -1.7695  -1.7663  -1.7550  -1.7518  -1.7334
    -1.7305  -1.7067  -1.7013  -1.6828  -1.6728  -1.6632  -1.6576  -1.6497
    -1.6315  -1.6282  -1.6213  -1.6124  -1.5976  -1.5949  -1.5904  -1.5850
    -1.5653  -1.5613  -1.5488  -1.5474  -1.5160  -1.5054  -1.4974  -1.4579
    -1.4550  -1.4410  -1.4401  -1.4205  -1.4131  -1.4077  -1.3812  -1.3785
    -1.3684  -1.3405  -1.3374  -1.3265  -1.3168  -1.3162  -1.2938  -1.2919
    -1.2735  -1.2619  -1.2573  -1.2562  -1.1976  -1.1934  -1.1856  -1.1813
    -1.1673  -1.1653  -1.1531  -1.1507  -1.1342  -1.1212  -1.0937  -1.0925
    -1.0789  -1.0495  -1.0447  -1.0390  -1.0319  -1.0301  -1.0292  -1.0271
    -1.0183  -1.0076  -0.9844  -0.9829  -0.9703  -0.9678  -0.9655  -0.9493
    -0.9457  -0.9274  -0.9149  -0.9030  -0.8732  -0.8120  -0.8006  -0.7933
    -0.7927  -0.7861  -0.7836  -0.7727  -0.7606  -0.7502  -0.7432  -0.7353
    -0.7282  -0.7225  -0.7191  -0.7010  -0.6964  -0.6877  -0.6821  -0.6134
    -0.6119  -0.5816  -0.5751  -0.5739  -0.5690  -0.5655  -0.5648  -0.5602
    -0.5543  -0.5452  -0.5193  -0.5087  -0.4908  -0.4784  -0.4773  -0.4671
    -0.4615  -0.4570  -0.4528  -0.4514  -0.4493  -0.4364  -0.4337  -0.4291
    -0.4134  -0.3987  -0.3958  -0.3863  -0.3819  -0.3686  -0.3628  -0.3321
    -0.3275  -0.3226  -0.3096  -0.2531  -0.2490  -0.2199  -0.2191  -0.1625
    -0.1609  -0.1591  -0.1367  -0.1224   0.0906   0.1333   0.4420   0.4421
     0.5283   0.5593   0.7249   0.7597   0.7760   0.8859   0.8938   1.3218
     1.3234   1.3381   1.6044   1.6323   1.6332   1.9007   1.9261   1.9836
     1.9869   2.0097   2.0347   2.2405   2.2429   2.3333   2.3342   2.4023
     2.4647   2.4953   2.6376   2.7416   3.1646   3.1734   3.1763   3.1894
     3.2282   3.2375   3.5246   3.5278   3.8011   3.8200   3.9064   4.2226
     4.2587   4.2702   4.4696   4.4797   4.5621   4.5659   4.6604   4.7710
     4.7837   4.8908   4.8986   5.1921   5.2540   5.2698   5.2990   5.4139
     5.4677   5.6465   5.6528   5.6764   5.6835   5.7265   5.7469   5.7739
     5.8814   6.0646   6.2679   6.3192   6.3456   6.4792   6.4834   6.4925
     6.5045   6.5358   6.6644   6.7244   6.7370   6.8388   6.8934   6.9562
     6.9827   7.0523   7.0627

          k = 0.0000 0.2887 0.1111 (136898 PWs)   bands (ev):

   -19.5128  -7.4388  -6.5083  -5.7171  -5.4281  -5.3673  -5.3663  -4.8287
    -4.8283  -4.6997  -4.6965  -4.5438  -4.5172  -4.4492  -4.4183  -4.4171
    -4.3819  -4.3815  -4.2534  -4.2121  -4.2107  -4.1524  -4.1324  -4.1320
    -4.0283  -4.0281  -3.9929  -3.9920  -3.9912  -3.9674  -3.9434  -3.9429
    -3.8492  -3.8371  -3.8360  -3.8175  -3.8002  -3.7990  -3.7884  -3.7872
    -3.7765  -3.7468  -3.7440  -3.7432  -3.7418  -3.7154  -3.7121  -3.6994
    -3.6919  -3.6862  -3.6537  -3.6419  -3.6301  -3.5991  -3.5926  -3.5865
    -3.5828  -3.5808  -3.5092  -3.5088  -3.4771  -3.4733  -3.4690  -3.4034
    -3.4018  -3.3895  -3.3879  -3.3606  -3.3596  -3.3580  -3.3569  -3.2024
    -3.2018  -3.1828  -3.1787  -3.1683  -3.1569  -3.1562  -3.1327  -3.1317
    -3.0811  -3.0807  -3.0645  -3.0630  -3.0442  -3.0001  -2.9977  -2.9790
    -2.9715  -2.9713  -2.9322  -2.9308  -2.9230  -2.9212  -2.9094  -2.9064
    -2.8684  -2.8676  -2.8496  -2.8461  -2.8432  -2.8418  -2.8363  -2.7645
    -2.7622  -2.7610  -2.7338  -2.7301  -2.6773  -2.6700  -2.6422  -2.6387
    -2.6285  -2.6274  -2.6193  -2.5943  -2.5912  -2.5803  -2.5642  -2.5480
    -2.5403  -2.5376  -2.5192  -2.5179  -2.5119  -2.5069  -2.5051  -2.5033
    -2.4914  -2.4460  -2.4256  -2.4172  -2.4099  -2.3911  -2.3831  -2.3813
    -2.3765  -2.3718  -2.3692  -2.3531  -2.3411  -2.3396  -2.3323  -2.3293
    -2.3157  -2.2985  -2.2886  -2.2865  -2.2845  -2.2837  -2.2374  -2.2263
    -2.2072  -2.2061  -2.2017  -2.1899  -2.1880  -2.1790  -2.1612  -2.1602
    -2.1436  -2.1288  -2.1269  -2.1186  -2.1100  -2.1085  -2.0920  -2.0760
    -2.0637  -2.0391  -2.0281  -2.0267  -2.0230  -2.0213  -2.0186  -2.0173
    -2.0126  -2.0102  -2.0088  -1.9930  -1.9898  -1.9601  -1.8676  -1.8620
    -1.8298  -1.8264  -1.8223  -1.8156  -1.8144  -1.8024  -1.7984  -1.7977
    -1.7948  -1.7834  -1.7718  -1.7695  -1.7663  -1.7550  -1.7518  -1.7334
    -1.7305  -1.7066  -1.7013  -1.6828  -1.6728  -1.6632  -1.6576  -1.6497
    -1.6315  -1.6282  -1.6213  -1.6124  -1.5976  -1.5949  -1.5904  -1.5850
    -1.5653  -1.5613  -1.5488  -1.5474  -1.5160  -1.5054  -1.4974  -1.4579
    -1.4550  -1.4410  -1.4401  -1.4205  -1.4131  -1.4077  -1.3812  -1.3785
    -1.3684  -1.3405  -1.3374  -1.3265  -1.3168  -1.3162  -1.2938  -1.2919
    -1.2735  -1.2619  -1.2573  -1.2563  -1.1976  -1.1934  -1.1856  -1.1813
    -1.1673  -1.1653  -1.1531  -1.1507  -1.1342  -1.1212  -1.0937  -1.0925
    -1.0789  -1.0495  -1.0447  -1.0390  -1.0319  -1.0301  -1.0292  -1.0271
    -1.0183  -1.0076  -0.9844  -0.9829  -0.9703  -0.9678  -0.9655  -0.9493
    -0.9457  -0.9274  -0.9149  -0.9030  -0.8732  -0.8120  -0.8006  -0.7932
    -0.7927  -0.7861  -0.7836  -0.7727  -0.7606  -0.7503  -0.7432  -0.7353
    -0.7282  -0.7225  -0.7191  -0.7010  -0.6964  -0.6877  -0.6821  -0.6134
    -0.6119  -0.5816  -0.5751  -0.5739  -0.5690  -0.5655  -0.5648  -0.5602
    -0.5543  -0.5452  -0.5193  -0.5087  -0.4908  -0.4784  -0.4773  -0.4671
    -0.4615  -0.4570  -0.4528  -0.4514  -0.4493  -0.4364  -0.4337  -0.4291
    -0.4134  -0.3987  -0.3958  -0.3863  -0.3819  -0.3686  -0.3628  -0.3321
    -0.3275  -0.3226  -0.3096  -0.2531  -0.2490  -0.2199  -0.2191  -0.1625
    -0.1609  -0.1591  -0.1367  -0.1224   0.0906   0.1333   0.4420   0.4421
     0.5283   0.5593   0.7249   0.7597   0.7760   0.8859   0.8938   1.3218
     1.3234   1.3381   1.6044   1.6323   1.6332   1.9007   1.9261   1.9836
     1.9869   2.0097   2.0347   2.2405   2.2429   2.3333   2.3342   2.4023
     2.4647   2.4953   2.6376   2.7416   3.1646   3.1734   3.1763   3.1894
     3.2282   3.2375   3.5246   3.5278   3.8011   3.8200   3.9064   4.2226
     4.2587   4.2702   4.4696   4.4797   4.5621   4.5659   4.6604   4.7710
     4.7837   4.8908   4.8986   5.1921   5.2540   5.2697   5.2991   5.4139
     5.4675   5.6465   5.6528   5.6764   5.6835   5.7264   5.7471   5.7730
     5.8838   6.0622   6.2667   6.3191   6.3455   6.4790   6.4834   6.4922
     6.5038   6.5419   6.6624   6.7254   6.7372   6.8335   6.8934   6.9563
     6.9844   7.0553   7.0730

     the Fermi energy is     1.4696 ev

!    total energy              =   -6604.41902321 Ry
     Harris-Foulkes estimate   =   -6604.41902322 Ry
     estimated scf accuracy    <          6.5E-09 Ry

     The total energy is the sum of the following terms:

     one-electron contribution =  -48818.19767890 Ry
     hartree contribution      =   24910.84103224 Ry
     xc contribution           =   -3205.01141567 Ry
     ewald contribution        =   20507.94631782 Ry
     smearing contrib. (-TS)   =       0.00272130 Ry

     convergence has been achieved in  21 iterations

     Writing output data file 1034886.save

     init_run     :    154.09s CPU    162.66s WALL (       1 calls)
     electrons    :   8279.83s CPU   8676.95s WALL (       1 calls)

     Called by init_run:
     wfcinit      :    119.72s CPU    127.50s WALL (       1 calls)
     potinit      :     10.23s CPU     10.66s WALL (       1 calls)

     Called by electrons:
     c_bands      :   6878.44s CPU   7193.81s WALL (      22 calls)
     sum_band     :   1044.41s CPU   1115.58s WALL (      22 calls)
     v_of_rho     :     98.79s CPU    106.20s WALL (      22 calls)
     newd         :    268.33s CPU    271.01s WALL (      22 calls)
     mix_rho      :      2.70s CPU      2.96s WALL (      22 calls)
     vdW_energy   :      5.21s CPU      5.61s WALL (      22 calls)
     vdW_ffts     :     54.82s CPU     58.59s WALL (      44 calls)
     vdW_v        :     12.77s CPU     13.32s WALL (      22 calls)

     Called by c_bands:
     init_us_2    :     10.05s CPU     10.30s WALL (     540 calls)
     cegterg      :   6806.59s CPU   7120.75s WALL (     264 calls)

     Called by *egterg:
     h_psi        :   3216.26s CPU   3499.96s WALL (    1470 calls)
     s_psi        :    373.57s CPU    375.89s WALL (    1470 calls)
     g_psi        :      5.54s CPU      5.49s WALL (    1194 calls)
     cdiaghg      :   1967.58s CPU   1973.51s WALL (    1446 calls)

     Called by h_psi:
     add_vuspsi   :    374.16s CPU    376.47s WALL (    1470 calls)

     General routines
     calbec       :    558.06s CPU    560.23s WALL (    1734 calls)
     fft          :    220.67s CPU    228.16s WALL (    1452 calls)
     ffts         :      1.40s CPU      1.59s WALL (      44 calls)
     fftw         :   2831.79s CPU   3155.55s WALL (  651966 calls)
     interpolate  :      3.91s CPU      4.35s WALL (      44 calls)
     davcio       :      0.01s CPU      0.28s WALL (      12 calls)

     Parallel routines
     fft_scatter  :   2366.95s CPU   2637.15s WALL (  653462 calls)

     PWSCF        :     2h20m CPU        2h27m WALL


   This run was terminated on:  14:19:18  29Jun2015            

=------------------------------------------------------------------------------=
   JOB DONE.
=------------------------------------------------------------------------------=
