
     Program PWSCF v.5.1.2 starts on 29Jun2015 at 19:57:39 

     This program is part of the open-source Quantum ESPRESSO suite
     for quantum simulation of materials; please cite
         "P. Giannozzi et al., J. Phys.:Condens. Matter 21 395502 (2009);
          URL http://www.quantum-espresso.org", 
     in publications or presentations arising from this work. More details at
     http://www.quantum-espresso.org/quote

     Parallel version (MPI), running on    32 processors
     R & G space division:  proc/nbgrp/npool/nimage =      32
     Reading input from top.H2.Au50.d.2.1.phi.0.psi.0.in
Warning: card &IONS ignored
Warning: card / ignored
Warning: card &CELL ignored
Warning: card / ignored

     Current dimensions of program PWSCF are:
     Max number of different atomic species (ntypx) = 10
     Max number of k-points (npk) =  40000
     Max angular momentum in pseudopotentials (lmaxx) =  3

     IMPORTANT: XC functional enforced from input :
     Exchange-correlation      = VDW-DF ( 1  4  4  0 1 0)
     Any further DFT definition will be discarded
     Please, verify this is what you really want


     Subspace diagonalization in iterative solution of the eigenvalue problem:
     a serial algorithm will be used


     Parallelization info
     --------------------
     sticks:   dense  smooth     PW     G-vecs:    dense   smooth      PW
     Min         445     223     58                96775    34191    4534
     Max         446     224     59                96790    34246    4540
     Sum       14269    7147   1867              3097177  1095093  145167


     Title: 
     top.H2.Au50.d.2.1.phi.0.psi.0                                              


     bravais-lattice index     =            4
     lattice parameter (alat)  =      22.7436  a.u.
     unit-cell volume          =   22924.1508 (a.u.)^3
     number of atoms/cell      =           67
     number of atomic types    =            3
     number of electrons       =       712.00
     number of Kohn-Sham states=          427
     kinetic-energy cutoff     =      50.0000  Ry
     charge density cutoff     =     400.0000  Ry
     convergence threshold     =      1.0E-08
     mixing beta               =       0.7000
     number of iterations used =            8  plain     mixing
     Exchange-correlation      = VDW-DF ( 1  4  4  0 1 0)

     celldm(1)=  22.743643  celldm(2)=   0.000000  celldm(3)=   2.250000
     celldm(4)=   0.000000  celldm(5)=   0.000000  celldm(6)=   0.000000

     crystal axes: (cart. coord. in units of alat)
               a(1) = (   1.000000   0.000000   0.000000 )  
               a(2) = (  -0.500000   0.866025   0.000000 )  
               a(3) = (   0.000000   0.000000   2.250000 )  

     reciprocal axes: (cart. coord. in units 2 pi/alat)
               b(1) = (  1.000000  0.577350 -0.000000 )  
               b(2) = (  0.000000  1.154701  0.000000 )  
               b(3) = (  0.000000 -0.000000  0.444444 )  


     PseudoPot. # 1 for Au read from file:
     /home/scc/andrejb/qe/pseudo/Au.pbe-nd-van.UPF
     MD5 check sum: 458681b50f36d87ef23c61b04bba420a
     Pseudo is Ultrasoft + core correction, Zval = 11.0
     Generated by new atomic code, or converted to UPF format
     Using radial grid of  985 points,  3 beta functions with: 
                l(1) =   1
                l(2) =   2
                l(3) =   2
     Q(r) pseudized with  8 coefficients,  rinner =    1.100   1.100   1.100
                                                       1.100   1.100

     PseudoPot. # 2 for H  read from file:
     /home/scc/andrejb/qe/pseudo/H.pbe-van_ak.UPF
     MD5 check sum: 403db7282739603aa925980fa9b8608d
     Pseudo is Ultrasoft, Zval =  1.0
     Generated by new atomic code, or converted to UPF format
     Using radial grid of  615 points,  1 beta functions with: 
                l(1) =   0
     Q(r) pseudized with  8 coefficients,  rinner =    0.800

     PseudoPot. # 3 for O  read from file:
     /home/scc/andrejb/qe/pseudo/O.pbe-van_ak.UPF
     MD5 check sum: 4b8c549914a63cae506c6ff22b5af4fe
     Pseudo is Ultrasoft, Zval =  6.0
     Generated by new atomic code, or converted to UPF format
     Using radial grid of  737 points,  4 beta functions with: 
                l(1) =   0
                l(2) =   0
                l(3) =   1
                l(4) =   1
     Q(r) pseudized with  8 coefficients,  rinner =    0.800   0.800   0.800


     vdW kernel table read from file vdW_kernel_table
     MD5 check sum: 48e77a2e26edf626eeb0eaa751ad5cac

     atomic species   valence    mass     pseudopotential
        Au            11.00   196.96657     Au( 1.00)
        H              1.00     1.01000     H ( 1.00)
        O              6.00    16.00000     O ( 1.00)

     No symmetry found



   Cartesian axes

     site n.     atom                  positions (alat units)
         1           O   tau(   1) = (   0.4975287   0.4121927   0.8647568  )
         2           H   tau(   2) = (   0.4790780   0.3968269   0.7874818  )
         3           H   tau(   3) = (   0.4446795   0.3681985   0.9073854  )
         4           Au  tau(   4) = (   0.3540481   0.6132292   0.0000000  )
         5           Au  tau(   5) = (   0.4790062   0.3967954   0.0000000  )
         6           Au  tau(   6) = (   0.6039644   0.1803616   0.0000000  )
         7           Au  tau(   7) = (   0.7289225  -0.0360723   0.0000000  )
         8           Au  tau(   8) = (   0.1041318   0.6132292   0.0000000  )
         9           Au  tau(   9) = (   0.2290899   0.3967954   0.0000000  )
        10           Au  tau(  10) = (   0.3540481   0.1803616   0.0000000  )
        11           Au  tau(  11) = (   0.4790062  -0.0360723   0.0000000  )
        12           Au  tau(  12) = (  -0.1457845   0.6132292   0.0000000  )
        13           Au  tau(  13) = (  -0.0208264   0.3967954   0.0000000  )
        14           Au  tau(  14) = (   0.1041318   0.1803616   0.0000000  )
        15           Au  tau(  15) = (   0.2290899  -0.0360723   0.0000000  )
        16           Au  tau(  16) = (  -0.3957008   0.6132292   0.0000000  )
        17           Au  tau(  17) = (  -0.2707426   0.3967954   0.0000000  )
        18           Au  tau(  18) = (  -0.1457845   0.1803616   0.0000000  )
        19           Au  tau(  19) = (  -0.0208264  -0.0360723   0.0000000  )
        20           Au  tau(  20) = (   0.4790062   0.6853738   0.2040557  )
        21           Au  tau(  21) = (   0.6039644   0.4689400   0.2040557  )
        22           Au  tau(  22) = (   0.7289225   0.2525062   0.2040557  )
        23           Au  tau(  23) = (   0.8538806   0.0360723   0.2040557  )
        24           Au  tau(  24) = (   0.2290899   0.6853738   0.2040557  )
        25           Au  tau(  25) = (   0.3540481   0.4689400   0.2040557  )
        26           Au  tau(  26) = (   0.4790062   0.2525062   0.2040557  )
        27           Au  tau(  27) = (   0.6039644   0.0360723   0.2040557  )
        28           Au  tau(  28) = (  -0.0208264   0.6853738   0.2040557  )
        29           Au  tau(  29) = (   0.1041318   0.4689400   0.2040557  )
        30           Au  tau(  30) = (   0.2290899   0.2525062   0.2040557  )
        31           Au  tau(  31) = (   0.3540481   0.0360723   0.2040557  )
        32           Au  tau(  32) = (  -0.2707426   0.6853738   0.2040557  )
        33           Au  tau(  33) = (  -0.1457845   0.4689400   0.2040557  )
        34           Au  tau(  34) = (  -0.0208264   0.2525062   0.2040557  )
        35           Au  tau(  35) = (   0.1041318   0.0360723   0.2040557  )
        36           Au  tau(  36) = (   0.3541162   0.7576593   0.4066483  )
        37           Au  tau(  37) = (   0.4791000   0.5411421   0.4066696  )
        38           Au  tau(  38) = (   0.6040570   0.3246862   0.4066618  )
        39           Au  tau(  39) = (   0.7290270   0.1081684   0.4066530  )
        40           Au  tau(  40) = (   0.1041162   0.7576236   0.4066247  )
        41           Au  tau(  41) = (   0.2291001   0.5411062   0.4066455  )
        42           Au  tau(  42) = (   0.3540567   0.3246505   0.4066380  )
        43           Au  tau(  43) = (   0.4790276   0.1081324   0.4066292  )
        44           Au  tau(  44) = (  -0.1458201   0.7576104   0.4066225  )
        45           Au  tau(  45) = (  -0.0208365   0.5410930   0.4066438  )
        46           Au  tau(  46) = (   0.1041202   0.3246372   0.4066359  )
        47           Au  tau(  47) = (   0.2290908   0.1081193   0.4066273  )
        48           Au  tau(  48) = (  -0.3958167   0.7575791   0.4065812  )
        49           Au  tau(  49) = (  -0.2708328   0.5410617   0.4066025  )
        50           Au  tau(  50) = (  -0.1458763   0.3246061   0.4065947  )
        51           Au  tau(  51) = (  -0.0209056   0.1080882   0.4065858  )
        52           Au  tau(  52) = (   0.3541084   0.6133344   0.6129762  )
        53           Au  tau(  53) = (   0.4790780   0.3968269   0.6129968  )
        54           Au  tau(  54) = (   0.6040356   0.1803811   0.6129859  )
        55           Au  tau(  55) = (   0.7290165  -0.0361221   0.6129385  )
        56           Au  tau(  56) = (   0.1041243   0.6133091   0.6130023  )
        57           Au  tau(  57) = (   0.2290941   0.3968013   0.6130241  )
        58           Au  tau(  58) = (   0.3540515   0.1803552   0.6130121  )
        59           Au  tau(  59) = (   0.4790323  -0.0361475   0.6129659  )
        60           Au  tau(  60) = (  -0.1458030   0.6133014   0.6129980  )
        61           Au  tau(  61) = (  -0.0208339   0.3967936   0.6130189  )
        62           Au  tau(  62) = (   0.1041239   0.1803477   0.6130083  )
        63           Au  tau(  63) = (   0.2291046  -0.0361554   0.6129607  )
        64           Au  tau(  64) = (  -0.3957908   0.6132739   0.6129471  )
        65           Au  tau(  65) = (  -0.2708208   0.3967658   0.6129688  )
        66           Au  tau(  66) = (  -0.1458636   0.1803200   0.6129569  )
        67           Au  tau(  67) = (  -0.0208823  -0.0361826   0.6129110  )

     number of k points=    12  Marzari-Vanderbilt smearing, width (Ry)=  0.0200
                       cart. coord. in units 2pi/alat
        k(    1) = (   0.2500000   0.4330127   0.1111111), wk =   0.1666667
        k(    2) = (   0.2500000  -0.1443376   0.1111111), wk =   0.1666667
        k(    3) = (  -0.2500000  -0.4330127   0.1111111), wk =   0.1666667
        k(    4) = (  -0.2500000   0.4330127  -0.1111111), wk =   0.1666667
        k(    5) = (   0.2500000  -0.4330127  -0.1111111), wk =   0.1666667
        k(    6) = (   0.5000000   0.0000000   0.1111111), wk =   0.1666667
        k(    7) = (  -0.5000000   0.0000000   0.1111111), wk =   0.1666667
        k(    8) = (  -0.2500000   0.1443376   0.1111111), wk =   0.1666667
        k(    9) = (  -0.2500000  -0.1443376  -0.1111111), wk =   0.1666667
        k(   10) = (   0.2500000   0.1443376  -0.1111111), wk =   0.1666667
        k(   11) = (   0.0000000  -0.2886751   0.1111111), wk =   0.1666667
        k(   12) = (   0.0000000   0.2886751   0.1111111), wk =   0.1666667

     Dense  grid:  3097177 G-vectors     FFT dimensions: ( 150, 150, 360)

     Smooth grid:  1095093 G-vectors     FFT dimensions: ( 108, 108, 240)

     Largest allocated arrays     est. size (Mb)     dimensions
        Kohn-Sham Wavefunctions        28.01 Mb     (    4299,  427)
        NL pseudopotentials            55.23 Mb     (    4299,  842)
        Each V/rho on FFT grid          4.12 Mb     (  270000)
        Each G-vector array             0.74 Mb     (   96788)
        G-vector shells                 0.16 Mb     (   21404)
     Largest temporary arrays     est. size (Mb)     dimensions
        Auxiliary wavefunctions       112.04 Mb     (    4299, 1708)
        Each subspace H/S matrix       44.51 Mb     (    1708, 1708)
        Each <psi_i|beta_j> matrix      5.49 Mb     (     842,  427)
        Arrays for rho mixing          32.96 Mb     (  270000,    8)

     Initial potential from superposition of free atoms
     Check: negative starting charge=   -1.730254

     starting charge  711.25682, renormalised to  712.00000

     negative rho (up, down):  1.732E+00 0.000E+00


     ************************************************************************
     *
     * You are using vdW-DF for exchange-correlation in this calculation.
     * Please cite the following three references that made this development
     * possible:
     *
     *   M. Dion, H. Rydberg, E. Schroder, D. C. Langreth, and
     *   B. I. Lundqvist, Phys. Rev. Lett. 92, 246401 (2004).
     *
     *   T. Thonhauser, V. R. Cooper, S. Li, A. Puzder, P. Hyldgaard, and
     *   D. C. Langreth, Phys. Rev. B 76, 125112 (2007).
     *
     *   G. Roman-Perez and J. M. Soler, Phys. Rev. Lett. 103, 096102 (2009).
     *
     *
     * If you are using vdW-DF2, please also cite:
     *
     *   K. Lee, E. D. Murray, L. Kong, B. I. Lundqvist, and
     *   D. C. Langreth, Phys. Rev. B 82, 081101(R) (2010).
     *
     *
     * If you are calculating the stress with vdW-DF, please also cite:
     *
     *   R. Sabatini, E. Kucukbenli, B. Kolb, T. Thonhauser, and
     *   S. de Gironcoli, J. Phys.: Condens. Matter 24, 424209 (2012).
     *
     ************************************************************************

     Carrying out vdW-DF run using the following parameters:

     Nqs =      20    Nr_points =    1024   r_max =   100.000
     q_mesh =
               0.00001000     0.04494208     0.09755937     0.15916263
               0.23128650     0.31572767     0.41458969     0.53033537
               0.66584808     0.82450364     1.01025438     1.22772762
               1.48234092     1.78043706     2.12944203     2.53805004
               3.01644009     3.57652955     4.23227104     5.00000000

     Gradients computed in reciprocal space

     ************************************************************************


     Starting wfc are  582 randomized atomic wfcs

     total cpu time spent up to now is      193.8 secs

     Self-consistent Calculation

     iteration #  1     ecut=    50.00 Ry     beta=0.70
     Davidson diagonalization with overlap
     ethr =  1.00E-02,  avg # of iterations =  3.0

     Threshold (ethr) on eigenvalues was too large:
     Diagonalizing with lowered threshold

     Davidson diagonalization with overlap
     ethr =  3.38E-04,  avg # of iterations =  4.4

     negative rho (up, down):  1.727E+00 0.000E+00

     total cpu time spent up to now is      980.3 secs

     total energy              =   -6602.82494095 Ry
     Harris-Foulkes estimate   =   -6605.01571516 Ry
     estimated scf accuracy    <       2.74816826 Ry

     iteration #  2     ecut=    50.00 Ry     beta=0.70
     Davidson diagonalization with overlap
     ethr =  3.86E-04,  avg # of iterations = 11.3

     negative rho (up, down):  1.727E+00 0.000E+00

     total cpu time spent up to now is     2016.6 secs

     total energy              =   -6597.23994518 Ry
     Harris-Foulkes estimate   =   -6609.85353786 Ry
     estimated scf accuracy    <      68.57377722 Ry

     iteration #  3     ecut=    50.00 Ry     beta=0.70
     Davidson diagonalization with overlap
     ethr =  3.86E-04,  avg # of iterations =  6.2

     negative rho (up, down):  1.737E+00 0.000E+00

     total cpu time spent up to now is     2779.7 secs

     total energy              =   -6603.22176339 Ry
     Harris-Foulkes estimate   =   -6604.99904925 Ry
     estimated scf accuracy    <       7.93660880 Ry

     iteration #  4     ecut=    50.00 Ry     beta=0.70
     Davidson diagonalization with overlap
     ethr =  3.86E-04,  avg # of iterations =  6.8

     negative rho (up, down):  1.739E+00 0.000E+00

     total cpu time spent up to now is     3251.2 secs

     total energy              =   -6603.88451032 Ry
     Harris-Foulkes estimate   =   -6604.81869435 Ry
     estimated scf accuracy    <       6.23138574 Ry

     iteration #  5     ecut=    50.00 Ry     beta=0.70
     Davidson diagonalization with overlap
     ethr =  3.86E-04,  avg # of iterations =  6.0

     negative rho (up, down):  1.748E+00 0.000E+00

     total cpu time spent up to now is     3673.4 secs

     total energy              =   -6604.17273731 Ry
     Harris-Foulkes estimate   =   -6604.73978654 Ry
     estimated scf accuracy    <       5.26642038 Ry

     iteration #  6     ecut=    50.00 Ry     beta=0.70
     Davidson diagonalization with overlap
     ethr =  3.86E-04,  avg # of iterations =  3.3

     negative rho (up, down):  1.752E+00 0.000E+00

     total cpu time spent up to now is     4046.5 secs

     total energy              =   -6604.41339731 Ry
     Harris-Foulkes estimate   =   -6604.46238323 Ry
     estimated scf accuracy    <       0.16490626 Ry

     iteration #  7     ecut=    50.00 Ry     beta=0.70
     Davidson diagonalization with overlap
     ethr =  2.32E-05,  avg # of iterations =  9.6

     negative rho (up, down):  1.754E+00 0.000E+00

     total cpu time spent up to now is     4519.3 secs

     total energy              =   -6604.42138720 Ry
     Harris-Foulkes estimate   =   -6604.44984000 Ry
     estimated scf accuracy    <       0.12972537 Ry

     iteration #  8     ecut=    50.00 Ry     beta=0.70
     Davidson diagonalization with overlap
     ethr =  1.82E-05,  avg # of iterations =  3.6

     negative rho (up, down):  1.756E+00 0.000E+00

     total cpu time spent up to now is     4867.1 secs

     total energy              =   -6604.42431823 Ry
     Harris-Foulkes estimate   =   -6604.43802141 Ry
     estimated scf accuracy    <       0.05601053 Ry

     iteration #  9     ecut=    50.00 Ry     beta=0.70
     Davidson diagonalization with overlap
     ethr =  7.87E-06,  avg # of iterations =  7.9

     negative rho (up, down):  1.756E+00 0.000E+00

     total cpu time spent up to now is     5295.9 secs

     total energy              =   -6604.42377342 Ry
     Harris-Foulkes estimate   =   -6604.43038653 Ry
     estimated scf accuracy    <       0.02468952 Ry

     iteration # 10     ecut=    50.00 Ry     beta=0.70
     Davidson diagonalization with overlap
     ethr =  3.47E-06,  avg # of iterations =  6.6

     negative rho (up, down):  1.757E+00 0.000E+00

     total cpu time spent up to now is     5726.9 secs

     total energy              =   -6604.42309091 Ry
     Harris-Foulkes estimate   =   -6604.42619087 Ry
     estimated scf accuracy    <       0.01049748 Ry

     iteration # 11     ecut=    50.00 Ry     beta=0.70
     Davidson diagonalization with overlap
     ethr =  1.47E-06,  avg # of iterations =  7.8

     negative rho (up, down):  1.757E+00 0.000E+00

     total cpu time spent up to now is     6148.8 secs

     total energy              =   -6604.42286153 Ry
     Harris-Foulkes estimate   =   -6604.42432142 Ry
     estimated scf accuracy    <       0.00538152 Ry

     iteration # 12     ecut=    50.00 Ry     beta=0.70
     Davidson diagonalization with overlap
     ethr =  7.56E-07,  avg # of iterations =  3.6

     negative rho (up, down):  1.758E+00 0.000E+00

     total cpu time spent up to now is     6487.7 secs

     total energy              =   -6604.42264692 Ry
     Harris-Foulkes estimate   =   -6604.42338145 Ry
     estimated scf accuracy    <       0.00125586 Ry

     iteration # 13     ecut=    50.00 Ry     beta=0.70
     Davidson diagonalization with overlap
     c_bands:  1 eigenvalues not converged
     c_bands:  1 eigenvalues not converged
     c_bands:  1 eigenvalues not converged
     ethr =  1.76E-07,  avg # of iterations = 11.3

     negative rho (up, down):  1.758E+00 0.000E+00

     total cpu time spent up to now is     7005.2 secs

     total energy              =   -6604.42283533 Ry
     Harris-Foulkes estimate   =   -6604.42304395 Ry
     estimated scf accuracy    <       0.00065462 Ry

     iteration # 14     ecut=    50.00 Ry     beta=0.70
     Davidson diagonalization with overlap
     ethr =  9.19E-08,  avg # of iterations =  2.4

     negative rho (up, down):  1.758E+00 0.000E+00

     total cpu time spent up to now is     7379.1 secs

     total energy              =   -6604.42291889 Ry
     Harris-Foulkes estimate   =   -6604.42298592 Ry
     estimated scf accuracy    <       0.00024532 Ry

     iteration # 15     ecut=    50.00 Ry     beta=0.70
     Davidson diagonalization with overlap
     ethr =  3.45E-08,  avg # of iterations =  2.0

     negative rho (up, down):  1.758E+00 0.000E+00

     total cpu time spent up to now is     7751.7 secs

     total energy              =   -6604.42292990 Ry
     Harris-Foulkes estimate   =   -6604.42297855 Ry
     estimated scf accuracy    <       0.00022327 Ry

     iteration # 16     ecut=    50.00 Ry     beta=0.70
     Davidson diagonalization with overlap
     ethr =  3.14E-08,  avg # of iterations =  1.7

     negative rho (up, down):  1.757E+00 0.000E+00

     total cpu time spent up to now is     8125.0 secs

     total energy              =   -6604.42292160 Ry
     Harris-Foulkes estimate   =   -6604.42299476 Ry
     estimated scf accuracy    <       0.00078413 Ry

     iteration # 17     ecut=    50.00 Ry     beta=0.70
     Davidson diagonalization with overlap
     ethr =  3.14E-08,  avg # of iterations =  1.0

     negative rho (up, down):  1.757E+00 0.000E+00

     total cpu time spent up to now is     8419.8 secs

     total energy              =   -6604.42295841 Ry
     Harris-Foulkes estimate   =   -6604.42296018 Ry
     estimated scf accuracy    <       0.00000693 Ry

     iteration # 18     ecut=    50.00 Ry     beta=0.70
     Davidson diagonalization with overlap
     ethr =  9.73E-10,  avg # of iterations =  3.0

     negative rho (up, down):  1.757E+00 0.000E+00

     total cpu time spent up to now is     8872.6 secs

     total energy              =   -6604.42295823 Ry
     Harris-Foulkes estimate   =   -6604.42296129 Ry
     estimated scf accuracy    <       0.00001172 Ry

     iteration # 19     ecut=    50.00 Ry     beta=0.70
     Davidson diagonalization with overlap
     ethr =  9.73E-10,  avg # of iterations =  2.0

     negative rho (up, down):  1.757E+00 0.000E+00

     total cpu time spent up to now is     9221.8 secs

     total energy              =   -6604.42295970 Ry
     Harris-Foulkes estimate   =   -6604.42296019 Ry
     estimated scf accuracy    <       0.00000203 Ry

     iteration # 20     ecut=    50.00 Ry     beta=0.70
     Davidson diagonalization with overlap
     ethr =  2.85E-10,  avg # of iterations =  2.0

     negative rho (up, down):  1.757E+00 0.000E+00

     total cpu time spent up to now is     9524.1 secs

     total energy              =   -6604.42295999 Ry
     Harris-Foulkes estimate   =   -6604.42296004 Ry
     estimated scf accuracy    <       0.00000024 Ry

     iteration # 21     ecut=    50.00 Ry     beta=0.70
     Davidson diagonalization with overlap
     ethr =  3.33E-11,  avg # of iterations =  3.0

     negative rho (up, down):  1.757E+00 0.000E+00

     total cpu time spent up to now is     9974.9 secs

     total energy              =   -6604.42296006 Ry
     Harris-Foulkes estimate   =   -6604.42296009 Ry
     estimated scf accuracy    <       0.00000021 Ry

     iteration # 22     ecut=    50.00 Ry     beta=0.70
     Davidson diagonalization with overlap
     ethr =  2.94E-11,  avg # of iterations =  2.0

     negative rho (up, down):  1.757E+00 0.000E+00

     total cpu time spent up to now is    10343.6 secs

     total energy              =   -6604.42296008 Ry
     Harris-Foulkes estimate   =   -6604.42296009 Ry
     estimated scf accuracy    <       0.00000001 Ry

     iteration # 23     ecut=    50.00 Ry     beta=0.70
     Davidson diagonalization with overlap
     ethr =  1.51E-12,  avg # of iterations =  3.0

     negative rho (up, down):  1.757E+00 0.000E+00

     total cpu time spent up to now is    10830.1 secs

     total energy              =   -6604.42296008 Ry
     Harris-Foulkes estimate   =   -6604.42296009 Ry
     estimated scf accuracy    <       0.00000002 Ry

     iteration # 24     ecut=    50.00 Ry     beta=0.70
     Davidson diagonalization with overlap
     ethr =  1.51E-12,  avg # of iterations =  3.0

     negative rho (up, down):  1.757E+00 0.000E+00

     total cpu time spent up to now is    11222.7 secs

     total energy              =   -6604.42296008 Ry
     Harris-Foulkes estimate   =   -6604.42296009 Ry
     estimated scf accuracy    <       0.00000001 Ry

     iteration # 25     ecut=    50.00 Ry     beta=0.70
     Davidson diagonalization with overlap
     ethr =  1.51E-12,  avg # of iterations =  2.0

     negative rho (up, down):  1.757E+00 0.000E+00

     total cpu time spent up to now is    11545.8 secs

     End of self-consistent calculation

          k = 0.2500 0.4330 0.1111 (136853 PWs)   bands (ev):

   -18.5789  -6.6234  -6.3880  -5.9933  -5.9917  -5.3145  -4.9829  -4.9825
    -4.9432  -4.9419  -4.5832  -4.5821  -4.4842  -4.4838  -4.4699  -4.4470
    -4.4249  -4.3174  -4.3153  -4.2920  -4.2491  -4.2485  -4.1811  -4.1794
    -4.1735  -4.1723  -4.1517  -4.1466  -4.1444  -4.0776  -4.0716  -4.0444
    -4.0427  -4.0317  -4.0308  -4.0082  -4.0076  -3.9854  -3.9773  -3.9766
    -3.9507  -3.8983  -3.8979  -3.8508  -3.8489  -3.7925  -3.7911  -3.7375
    -3.7361  -3.7358  -3.7349  -3.7000  -3.6643  -3.6621  -3.6548  -3.6536
    -3.6524  -3.6261  -3.6216  -3.6138  -3.5543  -3.5529  -3.5450  -3.5262
    -3.5191  -3.4471  -3.4457  -3.4168  -3.4116  -3.3878  -3.3846  -3.3710
    -3.3555  -3.2976  -3.2957  -3.2797  -3.2766  -3.2294  -3.2251  -3.2213
    -3.1818  -3.1576  -3.1494  -3.1433  -3.1419  -3.1341  -3.1305  -3.1215
    -3.1203  -3.1121  -3.0715  -3.0356  -3.0307  -3.0196  -3.0174  -2.9910
    -2.9853  -2.9818  -2.9662  -2.9169  -2.9143  -2.9071  -2.8689  -2.8657
    -2.8510  -2.8482  -2.8234  -2.8214  -2.7960  -2.7842  -2.7536  -2.7393
    -2.7308  -2.7218  -2.7090  -2.7006  -2.6596  -2.6561  -2.6252  -2.6031
    -2.5991  -2.5803  -2.5754  -2.5673  -2.5629  -2.5555  -2.5346  -2.5338
    -2.4879  -2.4871  -2.4856  -2.4716  -2.4698  -2.4633  -2.4578  -2.4543
    -2.4525  -2.4506  -2.4460  -2.4374  -2.4337  -2.4233  -2.4021  -2.3982
    -2.3952  -2.3931  -2.3924  -2.3897  -2.3869  -2.3652  -2.3610  -2.3485
    -2.3455  -2.3278  -2.3266  -2.3203  -2.3171  -2.3159  -2.3144  -2.2993
    -2.2944  -2.2928  -2.2912  -2.2763  -2.2509  -2.2486  -2.2096  -2.2092
    -2.1869  -2.1847  -2.1584  -2.1548  -2.1326  -2.1284  -2.1135  -2.1074
    -2.0807  -2.0652  -2.0604  -2.0526  -2.0510  -2.0476  -2.0415  -2.0394
    -2.0130  -2.0080  -2.0011  -1.9431  -1.9404  -1.9363  -1.9339  -1.9318
    -1.9007  -1.8791  -1.8776  -1.8520  -1.8487  -1.7925  -1.7903  -1.7606
    -1.7433  -1.7406  -1.6850  -1.6813  -1.6735  -1.6682  -1.6598  -1.6576
    -1.6538  -1.6485  -1.6433  -1.5962  -1.5859  -1.5815  -1.5753  -1.5746
    -1.5613  -1.5551  -1.5230  -1.5213  -1.5078  -1.5041  -1.5031  -1.4963
    -1.4907  -1.4853  -1.4798  -1.4639  -1.4610  -1.4267  -1.4180  -1.4129
    -1.4081  -1.3902  -1.3742  -1.3356  -1.3313  -1.3060  -1.3026  -1.3005
    -1.2728  -1.2288  -1.2192  -1.2177  -1.2161  -1.2128  -1.2109  -1.2018
    -1.1863  -1.1831  -1.1480  -1.1410  -1.1171  -1.1123  -1.1086  -1.1051
    -1.0997  -1.0878  -1.0823  -1.0810  -1.0783  -1.0759  -1.0422  -1.0389
    -1.0382  -1.0369  -1.0111  -1.0066  -1.0034  -0.9786  -0.9743  -0.9700
    -0.9280  -0.9194  -0.9159  -0.8842  -0.8758  -0.8658  -0.8621  -0.8575
    -0.8555  -0.8542  -0.8514  -0.8419  -0.8399  -0.8171  -0.8158  -0.8124
    -0.8110  -0.8078  -0.7729  -0.7722  -0.7714  -0.7599  -0.7461  -0.7393
    -0.7373  -0.7263  -0.6731  -0.6715  -0.6661  -0.6612  -0.6590  -0.6583
    -0.6532  -0.6356  -0.6335  -0.6281  -0.6232  -0.6226  -0.6215  -0.5862
    -0.5824  -0.5798  -0.5734  -0.5713  -0.5669  -0.5643  -0.5550  -0.5491
    -0.5463  -0.5445  -0.5366  -0.5037  -0.5010  -0.4948  -0.4905  -0.4892
    -0.4160  -0.4111  -0.4103  -0.4096  -0.4008  -0.3999  -0.3645  -0.3528
    -0.3507  -0.3199  -0.3181  -0.3158  -0.2002  -0.1944  -0.0956   0.3190
     0.3200   0.3244   0.3245   0.3849   0.3908   0.7731   0.7739   0.8158
     0.8172   0.9315   1.0060   1.1149   1.1206   1.3417   1.3455   1.9680
     1.9741   2.1300   2.1365   2.2639   2.2717   2.3692   2.3696   2.5234
     2.7613   2.7784   2.8847   3.1058   3.1145   3.1908   3.1936   3.2932
     3.3085   3.5142   3.5223   3.5639   3.7640   3.7674   3.8223   3.8338
     4.0812   4.0901   4.0982   4.3335   4.3738   4.3794   4.4217   4.7516
     4.7616   4.7884   4.9183   5.0961   5.0984   5.1592   5.1838   5.5476
     5.8209   5.8674   5.8857   5.8947   5.9215   5.9539   5.9607   6.0492
     6.0734   6.0929   6.1210   6.1275   6.1370   6.1580   6.1697   6.1811
     6.1849   6.4558   6.5890   6.7316   6.7589   6.7866   6.8252   6.8348
     6.8413   6.9529   7.0219

          k = 0.2500-0.1443 0.1111 (136898 PWs)   bands (ev):

   -18.5789  -6.6483  -6.5720  -5.8104  -5.5177  -5.4609  -5.4604  -4.9229
    -4.9225  -4.7908  -4.7901  -4.6350  -4.6067  -4.5431  -4.5101  -4.5084
    -4.4764  -4.4760  -4.3477  -4.3061  -4.3056  -4.2463  -4.2255  -4.2244
    -4.1229  -4.1222  -4.0870  -4.0859  -4.0857  -4.0592  -4.0377  -4.0374
    -3.9339  -3.9308  -3.9302  -3.9101  -3.8937  -3.8924  -3.8811  -3.8799
    -3.8679  -3.8376  -3.8372  -3.8368  -3.8359  -3.8051  -3.8038  -3.7871
    -3.7857  -3.7746  -3.7330  -3.7299  -3.6985  -3.6850  -3.6822  -3.6776
    -3.6774  -3.6037  -3.6030  -3.5696  -3.5667  -3.5651  -3.4986  -3.4972
    -3.4850  -3.4814  -3.4536  -3.4526  -3.4515  -3.4503  -3.2996  -3.2955
    -3.2768  -3.2725  -3.2692  -3.2509  -3.2496  -3.2253  -3.2245  -3.1756
    -3.1738  -3.1600  -3.1572  -3.1386  -3.0946  -3.0900  -3.0740  -3.0661
    -3.0638  -3.0275  -3.0237  -3.0182  -3.0155  -3.0070  -2.9987  -2.9634
    -2.9606  -2.9461  -2.9393  -2.9368  -2.9349  -2.9312  -2.8639  -2.8565
    -2.8551  -2.8372  -2.8234  -2.7929  -2.7638  -2.7474  -2.7341  -2.7279
    -2.7200  -2.7162  -2.7093  -2.6854  -2.6806  -2.6735  -2.6578  -2.6350
    -2.6329  -2.6254  -2.6115  -2.6098  -2.6014  -2.5985  -2.5951  -2.5898
    -2.5864  -2.5409  -2.5103  -2.5084  -2.4910  -2.4789  -2.4748  -2.4712
    -2.4650  -2.4640  -2.4627  -2.4350  -2.4335  -2.4298  -2.4232  -2.4215
    -2.4075  -2.3800  -2.3794  -2.3780  -2.3768  -2.3756  -2.3313  -2.3019
    -2.2999  -2.2985  -2.2927  -2.2837  -2.2736  -2.2711  -2.2543  -2.2540
    -2.2241  -2.2196  -2.2191  -2.2013  -2.2007  -2.2003  -2.1699  -2.1663
    -2.1291  -2.1230  -2.1191  -2.1169  -2.1150  -2.1103  -2.1091  -2.1058
    -2.1042  -2.1007  -2.0972  -2.0835  -2.0816  -1.9583  -1.9557  -1.9267
    -1.9178  -1.9147  -1.9094  -1.9092  -1.8955  -1.8923  -1.8896  -1.8887
    -1.8853  -1.8653  -1.8591  -1.8575  -1.8476  -1.8461  -1.8422  -1.8223
    -1.8206  -1.7931  -1.7923  -1.7641  -1.7624  -1.7516  -1.7428  -1.7251
    -1.7238  -1.7208  -1.7038  -1.6906  -1.6902  -1.6828  -1.6824  -1.6580
    -1.6571  -1.6414  -1.6383  -1.6072  -1.6042  -1.5980  -1.5510  -1.5454
    -1.5346  -1.5315  -1.5302  -1.5066  -1.5039  -1.4731  -1.4719  -1.4691
    -1.4386  -1.4275  -1.4266  -1.4111  -1.4094  -1.3878  -1.3840  -1.3808
    -1.3548  -1.3503  -1.3494  -1.2904  -1.2862  -1.2774  -1.2727  -1.2618
    -1.2570  -1.2455  -1.2444  -1.2268  -1.2136  -1.1897  -1.1844  -1.1743
    -1.1466  -1.1370  -1.1346  -1.1253  -1.1237  -1.1218  -1.1172  -1.1166
    -1.1021  -1.0781  -1.0724  -1.0622  -1.0590  -1.0578  -1.0561  -1.0372
    -1.0176  -1.0153  -0.9984  -0.9932  -0.9058  -0.8913  -0.8861  -0.8841
    -0.8819  -0.8769  -0.8731  -0.8564  -0.8511  -0.8368  -0.8318  -0.8201
    -0.8188  -0.8119  -0.7922  -0.7897  -0.7860  -0.7788  -0.7096  -0.7051
    -0.6814  -0.6715  -0.6681  -0.6669  -0.6596  -0.6589  -0.6580  -0.6480
    -0.6443  -0.6304  -0.6039  -0.5953  -0.5743  -0.5700  -0.5615  -0.5584
    -0.5547  -0.5483  -0.5470  -0.5441  -0.5419  -0.5324  -0.5260  -0.5211
    -0.5201  -0.4912  -0.4908  -0.4875  -0.4762  -0.4759  -0.4570  -0.4259
    -0.4249  -0.4156  -0.4155  -0.3493  -0.3465  -0.3120  -0.3103  -0.2549
    -0.2527  -0.2501  -0.2341  -0.2261   0.0037   0.0060   0.3485   0.3489
     0.4416   0.4447   0.6370   0.6558   0.6670   0.7965   0.7979   1.2285
     1.2296   1.2476   1.5098   1.5388   1.5394   1.8175   1.8227   1.8934
     1.8958   1.9211   1.9259   2.1511   2.1519   2.2398   2.2410   2.3246
     2.3784   2.3857   2.5439   2.6431   3.0753   3.0839   3.0859   3.0876
     3.1402   3.1414   3.4326   3.4336   3.7104   3.7195   3.8320   4.1292
     4.1638   4.1749   4.3980   4.4166   4.4676   4.4743   4.5626   4.6753
     4.6863   4.7969   4.8010   5.1001   5.1593   5.1778   5.3324   5.3653
     5.4521   5.5539   5.5630   5.5860   5.5890   5.6436   5.6528   5.7073
     5.8837   6.0598   6.2500   6.2874   6.3613   6.3896   6.3952   6.4006
     6.4100   6.5568   6.6449   6.6503   6.6688   6.8462   6.8834   6.9075
     6.9404   7.0245   7.1195

          k =-0.2500-0.4330 0.1111 (136853 PWs)   bands (ev):

   -18.5789  -6.6234  -6.3880  -5.9933  -5.9917  -5.3145  -4.9829  -4.9825
    -4.9432  -4.9419  -4.5832  -4.5821  -4.4842  -4.4838  -4.4699  -4.4470
    -4.4249  -4.3174  -4.3153  -4.2920  -4.2491  -4.2485  -4.1811  -4.1794
    -4.1735  -4.1723  -4.1517  -4.1466  -4.1444  -4.0776  -4.0716  -4.0444
    -4.0427  -4.0317  -4.0308  -4.0082  -4.0076  -3.9854  -3.9773  -3.9766
    -3.9507  -3.8983  -3.8979  -3.8508  -3.8489  -3.7925  -3.7911  -3.7375
    -3.7361  -3.7358  -3.7349  -3.7000  -3.6643  -3.6621  -3.6548  -3.6536
    -3.6524  -3.6261  -3.6216  -3.6138  -3.5543  -3.5529  -3.5450  -3.5262
    -3.5191  -3.4471  -3.4457  -3.4168  -3.4116  -3.3878  -3.3846  -3.3710
    -3.3555  -3.2976  -3.2957  -3.2797  -3.2766  -3.2294  -3.2251  -3.2213
    -3.1818  -3.1576  -3.1494  -3.1433  -3.1419  -3.1341  -3.1305  -3.1215
    -3.1203  -3.1121  -3.0715  -3.0356  -3.0307  -3.0196  -3.0174  -2.9910
    -2.9853  -2.9818  -2.9662  -2.9169  -2.9143  -2.9071  -2.8689  -2.8657
    -2.8510  -2.8482  -2.8234  -2.8214  -2.7960  -2.7842  -2.7536  -2.7393
    -2.7308  -2.7218  -2.7090  -2.7006  -2.6596  -2.6561  -2.6252  -2.6031
    -2.5991  -2.5803  -2.5754  -2.5673  -2.5629  -2.5555  -2.5346  -2.5338
    -2.4879  -2.4871  -2.4856  -2.4716  -2.4698  -2.4633  -2.4578  -2.4543
    -2.4525  -2.4506  -2.4460  -2.4374  -2.4337  -2.4233  -2.4021  -2.3982
    -2.3952  -2.3931  -2.3924  -2.3897  -2.3869  -2.3652  -2.3610  -2.3485
    -2.3455  -2.3278  -2.3266  -2.3203  -2.3171  -2.3159  -2.3144  -2.2993
    -2.2944  -2.2928  -2.2912  -2.2763  -2.2509  -2.2486  -2.2096  -2.2092
    -2.1869  -2.1847  -2.1584  -2.1548  -2.1326  -2.1284  -2.1135  -2.1074
    -2.0807  -2.0652  -2.0604  -2.0526  -2.0510  -2.0476  -2.0415  -2.0394
    -2.0130  -2.0080  -2.0011  -1.9431  -1.9404  -1.9363  -1.9339  -1.9318
    -1.9007  -1.8791  -1.8776  -1.8520  -1.8487  -1.7925  -1.7903  -1.7606
    -1.7433  -1.7406  -1.6850  -1.6813  -1.6735  -1.6682  -1.6598  -1.6576
    -1.6538  -1.6485  -1.6433  -1.5962  -1.5859  -1.5815  -1.5753  -1.5746
    -1.5613  -1.5551  -1.5230  -1.5213  -1.5078  -1.5041  -1.5031  -1.4963
    -1.4907  -1.4853  -1.4798  -1.4639  -1.4610  -1.4267  -1.4180  -1.4129
    -1.4081  -1.3902  -1.3742  -1.3356  -1.3313  -1.3060  -1.3026  -1.3005
    -1.2728  -1.2288  -1.2192  -1.2177  -1.2161  -1.2128  -1.2109  -1.2018
    -1.1863  -1.1831  -1.1480  -1.1410  -1.1171  -1.1123  -1.1086  -1.1051
    -1.0997  -1.0878  -1.0823  -1.0810  -1.0783  -1.0759  -1.0422  -1.0389
    -1.0382  -1.0369  -1.0111  -1.0066  -1.0034  -0.9786  -0.9743  -0.9700
    -0.9280  -0.9194  -0.9159  -0.8842  -0.8758  -0.8658  -0.8621  -0.8575
    -0.8555  -0.8542  -0.8514  -0.8419  -0.8399  -0.8171  -0.8158  -0.8124
    -0.8110  -0.8078  -0.7729  -0.7722  -0.7714  -0.7599  -0.7461  -0.7393
    -0.7373  -0.7263  -0.6731  -0.6715  -0.6661  -0.6612  -0.6590  -0.6583
    -0.6532  -0.6356  -0.6335  -0.6281  -0.6232  -0.6226  -0.6215  -0.5862
    -0.5824  -0.5798  -0.5734  -0.5713  -0.5669  -0.5643  -0.5550  -0.5491
    -0.5463  -0.5445  -0.5366  -0.5037  -0.5010  -0.4948  -0.4905  -0.4892
    -0.4160  -0.4111  -0.4103  -0.4096  -0.4008  -0.3999  -0.3645  -0.3528
    -0.3507  -0.3199  -0.3181  -0.3158  -0.2002  -0.1944  -0.0956   0.3190
     0.3200   0.3244   0.3245   0.3849   0.3908   0.7731   0.7739   0.8158
     0.8172   0.9315   1.0060   1.1149   1.1206   1.3417   1.3455   1.9680
     1.9741   2.1300   2.1365   2.2639   2.2717   2.3692   2.3696   2.5234
     2.7613   2.7784   2.8847   3.1058   3.1145   3.1908   3.1936   3.2932
     3.3085   3.5142   3.5223   3.5639   3.7640   3.7674   3.8223   3.8338
     4.0812   4.0901   4.0982   4.3335   4.3738   4.3794   4.4217   4.7516
     4.7616   4.7884   4.9183   5.0961   5.0984   5.1592   5.1838   5.5476
     5.8202   5.8674   5.8857   5.8947   5.9215   5.9539   5.9607   6.0491
     6.0731   6.0929   6.1214   6.1275   6.1393   6.1582   6.1694   6.1811
     6.1850   6.4573   6.5896   6.7170   6.7584   6.7853   6.8253   6.8345
     6.8411   6.9529   7.0291

          k =-0.2500 0.4330-0.1111 (136853 PWs)   bands (ev):

   -18.5789  -6.6234  -6.3879  -5.9944  -5.9906  -5.3145  -4.9834  -4.9821
    -4.9451  -4.9400  -4.5833  -4.5816  -4.4841  -4.4838  -4.4697  -4.4470
    -4.4249  -4.3180  -4.3155  -4.2923  -4.2489  -4.2488  -4.1811  -4.1794
    -4.1737  -4.1721  -4.1516  -4.1475  -4.1435  -4.0784  -4.0708  -4.0444
    -4.0422  -4.0316  -4.0306  -4.0084  -4.0077  -3.9852  -3.9774  -3.9769
    -3.9508  -3.8985  -3.8979  -3.8511  -3.8484  -3.7924  -3.7912  -3.7381
    -3.7358  -3.7354  -3.7351  -3.7004  -3.6643  -3.6621  -3.6545  -3.6539
    -3.6523  -3.6263  -3.6214  -3.6135  -3.5541  -3.5531  -3.5454  -3.5260
    -3.5186  -3.4483  -3.4453  -3.4167  -3.4119  -3.3869  -3.3847  -3.3709
    -3.3555  -3.2969  -3.2952  -3.2783  -3.2770  -3.2294  -3.2242  -3.2233
    -3.1814  -3.1547  -3.1492  -3.1467  -3.1419  -3.1332  -3.1318  -3.1218
    -3.1213  -3.1117  -3.0710  -3.0362  -3.0309  -3.0192  -3.0170  -2.9906
    -2.9839  -2.9807  -2.9694  -2.9197  -2.9135  -2.9106  -2.8684  -2.8655
    -2.8508  -2.8485  -2.8325  -2.8182  -2.7898  -2.7624  -2.7531  -2.7492
    -2.7294  -2.7219  -2.7103  -2.7076  -2.6590  -2.6538  -2.6247  -2.6035
    -2.6018  -2.5783  -2.5754  -2.5672  -2.5646  -2.5561  -2.5348  -2.5320
    -2.4882  -2.4875  -2.4866  -2.4716  -2.4700  -2.4635  -2.4584  -2.4547
    -2.4527  -2.4510  -2.4459  -2.4379  -2.4328  -2.4270  -2.4031  -2.3972
    -2.3953  -2.3932  -2.3918  -2.3904  -2.3882  -2.3633  -2.3612  -2.3483
    -2.3447  -2.3280  -2.3263  -2.3194  -2.3167  -2.3151  -2.3136  -2.3005
    -2.2945  -2.2932  -2.2908  -2.2766  -2.2509  -2.2488  -2.2101  -2.2089
    -2.1870  -2.1848  -2.1585  -2.1562  -2.1296  -2.1281  -2.1123  -2.1075
    -2.0810  -2.0632  -2.0602  -2.0526  -2.0502  -2.0462  -2.0402  -2.0381
    -2.0129  -2.0086  -2.0009  -1.9450  -1.9421  -1.9367  -1.9339  -1.9324
    -1.9024  -1.8795  -1.8770  -1.8528  -1.8489  -1.7927  -1.7900  -1.7615
    -1.7416  -1.7410  -1.6852  -1.6803  -1.6734  -1.6681  -1.6598  -1.6576
    -1.6540  -1.6484  -1.6435  -1.5926  -1.5870  -1.5826  -1.5756  -1.5753
    -1.5591  -1.5549  -1.5264  -1.5207  -1.5070  -1.5050  -1.5024  -1.4960
    -1.4925  -1.4857  -1.4800  -1.4641  -1.4605  -1.4254  -1.4183  -1.4119
    -1.4079  -1.3902  -1.3743  -1.3367  -1.3310  -1.3074  -1.3034  -1.3001
    -1.2727  -1.2272  -1.2193  -1.2185  -1.2162  -1.2131  -1.2102  -1.2020
    -1.1862  -1.1827  -1.1481  -1.1414  -1.1173  -1.1128  -1.1078  -1.1050
    -1.0999  -1.0875  -1.0822  -1.0812  -1.0784  -1.0761  -1.0437  -1.0386
    -1.0374  -1.0366  -1.0106  -1.0061  -1.0023  -0.9790  -0.9739  -0.9690
    -0.9267  -0.9209  -0.9163  -0.8844  -0.8757  -0.8662  -0.8621  -0.8571
    -0.8551  -0.8542  -0.8510  -0.8443  -0.8396  -0.8173  -0.8155  -0.8126
    -0.8111  -0.8078  -0.7731  -0.7719  -0.7653  -0.7607  -0.7488  -0.7424
    -0.7367  -0.7261  -0.6734  -0.6714  -0.6633  -0.6608  -0.6589  -0.6565
    -0.6530  -0.6356  -0.6335  -0.6288  -0.6239  -0.6228  -0.6219  -0.5869
    -0.5832  -0.5795  -0.5761  -0.5720  -0.5708  -0.5651  -0.5603  -0.5484
    -0.5466  -0.5439  -0.5321  -0.5035  -0.5018  -0.4949  -0.4905  -0.4877
    -0.4158  -0.4108  -0.4101  -0.4091  -0.4011  -0.3997  -0.3645  -0.3527
    -0.3508  -0.3216  -0.3194  -0.3138  -0.1980  -0.1930  -0.0937   0.3189
     0.3198   0.3240   0.3252   0.3860   0.3879   0.7718   0.7739   0.8161
     0.8173   0.9319   1.0067   1.1145   1.1222   1.3385   1.3485   1.9689
     1.9724   2.1309   2.1360   2.2650   2.2701   2.3689   2.3698   2.5232
     2.7611   2.7790   2.8848   3.1048   3.1155   3.1911   3.1935   3.2924
     3.3085   3.5065   3.5300   3.5640   3.7641   3.7675   3.8229   3.8336
     4.0805   4.0903   4.0978   4.3340   4.3733   4.3796   4.4217   4.7525
     4.7608   4.7866   4.9191   5.0966   5.0982   5.1612   5.1831   5.5524
     5.8024   5.8706   5.8880   5.8931   5.9393   5.9545   5.9605   6.0452
     6.0682   6.0939   6.1214   6.1274   6.1320   6.1582   6.1610   6.1816
     6.1901   6.4512   6.6050   6.7186   6.7580   6.8003   6.8245   6.8357
     6.8455   6.9528   7.0263

          k = 0.2500-0.4330-0.1111 (136853 PWs)   bands (ev):

   -18.5789  -6.6234  -6.3879  -5.9944  -5.9906  -5.3145  -4.9834  -4.9821
    -4.9451  -4.9400  -4.5833  -4.5816  -4.4841  -4.4838  -4.4697  -4.4470
    -4.4249  -4.3180  -4.3155  -4.2923  -4.2489  -4.2488  -4.1811  -4.1794
    -4.1737  -4.1721  -4.1516  -4.1475  -4.1435  -4.0784  -4.0708  -4.0444
    -4.0422  -4.0316  -4.0306  -4.0084  -4.0077  -3.9852  -3.9774  -3.9769
    -3.9508  -3.8985  -3.8979  -3.8511  -3.8484  -3.7924  -3.7912  -3.7381
    -3.7358  -3.7354  -3.7351  -3.7004  -3.6643  -3.6621  -3.6545  -3.6539
    -3.6523  -3.6263  -3.6214  -3.6135  -3.5541  -3.5531  -3.5454  -3.5260
    -3.5186  -3.4483  -3.4453  -3.4167  -3.4119  -3.3869  -3.3847  -3.3709
    -3.3555  -3.2969  -3.2952  -3.2783  -3.2770  -3.2294  -3.2242  -3.2233
    -3.1814  -3.1547  -3.1492  -3.1467  -3.1419  -3.1332  -3.1318  -3.1218
    -3.1213  -3.1117  -3.0710  -3.0362  -3.0309  -3.0192  -3.0170  -2.9906
    -2.9839  -2.9807  -2.9694  -2.9197  -2.9135  -2.9106  -2.8684  -2.8655
    -2.8508  -2.8485  -2.8325  -2.8182  -2.7898  -2.7624  -2.7531  -2.7492
    -2.7294  -2.7219  -2.7103  -2.7076  -2.6590  -2.6538  -2.6247  -2.6035
    -2.6018  -2.5783  -2.5754  -2.5672  -2.5646  -2.5561  -2.5348  -2.5320
    -2.4882  -2.4875  -2.4866  -2.4716  -2.4700  -2.4635  -2.4584  -2.4547
    -2.4527  -2.4510  -2.4459  -2.4379  -2.4328  -2.4270  -2.4031  -2.3972
    -2.3953  -2.3932  -2.3918  -2.3904  -2.3882  -2.3633  -2.3612  -2.3483
    -2.3447  -2.3280  -2.3263  -2.3194  -2.3167  -2.3151  -2.3136  -2.3005
    -2.2945  -2.2932  -2.2908  -2.2766  -2.2509  -2.2488  -2.2101  -2.2089
    -2.1870  -2.1848  -2.1585  -2.1562  -2.1296  -2.1281  -2.1123  -2.1075
    -2.0810  -2.0632  -2.0602  -2.0526  -2.0502  -2.0462  -2.0402  -2.0381
    -2.0129  -2.0086  -2.0009  -1.9450  -1.9421  -1.9367  -1.9339  -1.9324
    -1.9024  -1.8795  -1.8770  -1.8528  -1.8489  -1.7927  -1.7900  -1.7615
    -1.7416  -1.7410  -1.6852  -1.6803  -1.6734  -1.6681  -1.6598  -1.6576
    -1.6540  -1.6484  -1.6435  -1.5926  -1.5870  -1.5826  -1.5756  -1.5753
    -1.5591  -1.5549  -1.5264  -1.5207  -1.5070  -1.5050  -1.5024  -1.4960
    -1.4925  -1.4857  -1.4800  -1.4641  -1.4605  -1.4254  -1.4183  -1.4119
    -1.4079  -1.3902  -1.3743  -1.3367  -1.3310  -1.3074  -1.3034  -1.3001
    -1.2727  -1.2272  -1.2193  -1.2185  -1.2162  -1.2131  -1.2102  -1.2020
    -1.1862  -1.1827  -1.1481  -1.1414  -1.1173  -1.1128  -1.1078  -1.1050
    -1.0999  -1.0875  -1.0822  -1.0812  -1.0784  -1.0761  -1.0437  -1.0386
    -1.0374  -1.0366  -1.0106  -1.0061  -1.0023  -0.9790  -0.9739  -0.9690
    -0.9267  -0.9209  -0.9163  -0.8844  -0.8757  -0.8662  -0.8621  -0.8571
    -0.8551  -0.8542  -0.8510  -0.8443  -0.8396  -0.8173  -0.8155  -0.8126
    -0.8111  -0.8078  -0.7731  -0.7719  -0.7652  -0.7607  -0.7488  -0.7424
    -0.7367  -0.7261  -0.6734  -0.6714  -0.6633  -0.6608  -0.6589  -0.6565
    -0.6530  -0.6356  -0.6335  -0.6288  -0.6239  -0.6228  -0.6219  -0.5869
    -0.5832  -0.5795  -0.5761  -0.5720  -0.5708  -0.5651  -0.5603  -0.5484
    -0.5466  -0.5439  -0.5321  -0.5035  -0.5018  -0.4949  -0.4905  -0.4877
    -0.4158  -0.4108  -0.4101  -0.4091  -0.4011  -0.3997  -0.3645  -0.3527
    -0.3508  -0.3216  -0.3194  -0.3138  -0.1980  -0.1930  -0.0937   0.3189
     0.3198   0.3240   0.3252   0.3860   0.3879   0.7718   0.7739   0.8161
     0.8173   0.9319   1.0067   1.1145   1.1222   1.3385   1.3485   1.9689
     1.9724   2.1309   2.1360   2.2650   2.2701   2.3689   2.3698   2.5232
     2.7611   2.7790   2.8848   3.1048   3.1155   3.1911   3.1935   3.2924
     3.3085   3.5065   3.5300   3.5640   3.7641   3.7675   3.8229   3.8336
     4.0805   4.0903   4.0978   4.3340   4.3733   4.3796   4.4217   4.7525
     4.7608   4.7866   4.9191   5.0966   5.0982   5.1612   5.1831   5.5524
     5.8025   5.8706   5.8880   5.8931   5.9394   5.9545   5.9605   6.0452
     6.0682   6.0939   6.1213   6.1272   6.1318   6.1579   6.1614   6.1816
     6.1900   6.4511   6.6047   6.7202   6.7593   6.8003   6.8246   6.8358
     6.8459   6.9528   7.0249

          k = 0.5000 0.0000 0.1111 (136853 PWs)   bands (ev):

   -18.5789  -6.6234  -6.3880  -5.9936  -5.9915  -5.3145  -4.9834  -4.9820
    -4.9449  -4.9403  -4.5837  -4.5814  -4.4844  -4.4838  -4.4696  -4.4469
    -4.4249  -4.3179  -4.3151  -4.2921  -4.2492  -4.2485  -4.1810  -4.1793
    -4.1734  -4.1726  -4.1516  -4.1476  -4.1434  -4.0785  -4.0707  -4.0451
    -4.0418  -4.0316  -4.0309  -4.0081  -4.0076  -3.9854  -3.9772  -3.9767
    -3.9508  -3.8985  -3.8979  -3.8518  -3.8480  -3.7924  -3.7911  -3.7375
    -3.7360  -3.7356  -3.7350  -3.7002  -3.6645  -3.6622  -3.6547  -3.6535
    -3.6527  -3.6256  -3.6219  -3.6141  -3.5544  -3.5530  -3.5448  -3.5260
    -3.5189  -3.4470  -3.4462  -3.4165  -3.4117  -3.3880  -3.3840  -3.3709
    -3.3557  -3.2983  -3.2957  -3.2799  -3.2761  -3.2300  -3.2244  -3.2212
    -3.1815  -3.1585  -3.1495  -3.1430  -3.1414  -3.1341  -3.1308  -3.1210
    -3.1197  -3.1124  -3.0714  -3.0363  -3.0301  -3.0193  -3.0176  -2.9910
    -2.9859  -2.9821  -2.9658  -2.9176  -2.9138  -2.9069  -2.8686  -2.8658
    -2.8512  -2.8478  -2.8261  -2.8200  -2.7952  -2.7846  -2.7535  -2.7380
    -2.7309  -2.7219  -2.7093  -2.7014  -2.6594  -2.6567  -2.6250  -2.6034
    -2.5993  -2.5801  -2.5756  -2.5673  -2.5621  -2.5556  -2.5348  -2.5335
    -2.4876  -2.4871  -2.4854  -2.4715  -2.4698  -2.4634  -2.4577  -2.4544
    -2.4520  -2.4505  -2.4460  -2.4379  -2.4331  -2.4250  -2.4018  -2.3979
    -2.3950  -2.3932  -2.3923  -2.3894  -2.3865  -2.3653  -2.3611  -2.3481
    -2.3454  -2.3281  -2.3263  -2.3208  -2.3173  -2.3159  -2.3144  -2.2989
    -2.2940  -2.2927  -2.2920  -2.2762  -2.2510  -2.2489  -2.2102  -2.2086
    -2.1869  -2.1849  -2.1583  -2.1546  -2.1324  -2.1285  -2.1134  -2.1073
    -2.0807  -2.0650  -2.0608  -2.0529  -2.0512  -2.0479  -2.0417  -2.0393
    -2.0130  -2.0072  -2.0009  -1.9434  -1.9399  -1.9368  -1.9341  -1.9319
    -1.9013  -1.8797  -1.8769  -1.8519  -1.8488  -1.7930  -1.7898  -1.7608
    -1.7435  -1.7404  -1.6855  -1.6808  -1.6733  -1.6681  -1.6599  -1.6574
    -1.6539  -1.6486  -1.6433  -1.5943  -1.5864  -1.5817  -1.5755  -1.5746
    -1.5606  -1.5549  -1.5241  -1.5214  -1.5077  -1.5038  -1.5034  -1.4963
    -1.4912  -1.4857  -1.4796  -1.4635  -1.4613  -1.4258  -1.4181  -1.4123
    -1.4081  -1.3901  -1.3742  -1.3366  -1.3309  -1.3066  -1.3028  -1.3006
    -1.2729  -1.2286  -1.2193  -1.2177  -1.2165  -1.2131  -1.2109  -1.2017
    -1.1864  -1.1828  -1.1482  -1.1407  -1.1173  -1.1124  -1.1081  -1.1054
    -1.0997  -1.0875  -1.0830  -1.0808  -1.0781  -1.0758  -1.0429  -1.0387
    -1.0377  -1.0369  -1.0102  -1.0065  -1.0030  -0.9792  -0.9739  -0.9696
    -0.9277  -0.9200  -0.9157  -0.8844  -0.8759  -0.8661  -0.8620  -0.8572
    -0.8554  -0.8540  -0.8515  -0.8427  -0.8400  -0.8173  -0.8156  -0.8123
    -0.8111  -0.8082  -0.7726  -0.7722  -0.7697  -0.7599  -0.7467  -0.7404
    -0.7373  -0.7261  -0.6731  -0.6714  -0.6651  -0.6614  -0.6589  -0.6580
    -0.6530  -0.6356  -0.6334  -0.6283  -0.6233  -0.6227  -0.6214  -0.5864
    -0.5827  -0.5797  -0.5737  -0.5713  -0.5683  -0.5648  -0.5577  -0.5490
    -0.5461  -0.5444  -0.5349  -0.5037  -0.5014  -0.4948  -0.4902  -0.4889
    -0.4159  -0.4108  -0.4100  -0.4098  -0.4008  -0.3999  -0.3645  -0.3526
    -0.3508  -0.3200  -0.3186  -0.3157  -0.1987  -0.1945  -0.0949   0.3192
     0.3200   0.3242   0.3245   0.3852   0.3898   0.7723   0.7743   0.8160
     0.8170   0.9316   1.0063   1.1147   1.1213   1.3403   1.3470   1.9685
     1.9732   2.1308   2.1358   2.2646   2.2708   2.3685   2.3703   2.5233
     2.7613   2.7787   2.8847   3.1049   3.1154   3.1905   3.1939   3.2928
     3.3086   3.5105   3.5259   3.5640   3.7637   3.7679   3.8233   3.8331
     4.0816   4.0899   4.0976   4.3340   4.3742   4.3790   4.4214   4.7508
     4.7622   4.7879   4.9189   5.0966   5.0980   5.1610   5.1822   5.5492
     5.8140   5.8668   5.8852   5.8955   5.9278   5.9543   5.9605   6.0488
     6.0718   6.0933   6.1214   6.1273   6.1346   6.1594   6.1686   6.1810
     6.1850   6.4538   6.5950   6.7274   6.7586   6.7945   6.8248   6.8354
     6.8403   6.9529   7.0243

          k =-0.5000 0.0000 0.1111 (136853 PWs)   bands (ev):

   -18.5789  -6.6234  -6.3880  -5.9936  -5.9915  -5.3145  -4.9834  -4.9820
    -4.9449  -4.9403  -4.5837  -4.5814  -4.4844  -4.4838  -4.4696  -4.4469
    -4.4249  -4.3179  -4.3151  -4.2921  -4.2492  -4.2485  -4.1810  -4.1793
    -4.1734  -4.1726  -4.1516  -4.1476  -4.1434  -4.0785  -4.0707  -4.0451
    -4.0418  -4.0316  -4.0309  -4.0081  -4.0076  -3.9854  -3.9772  -3.9767
    -3.9508  -3.8985  -3.8979  -3.8518  -3.8480  -3.7924  -3.7911  -3.7375
    -3.7360  -3.7356  -3.7350  -3.7002  -3.6645  -3.6622  -3.6547  -3.6535
    -3.6527  -3.6256  -3.6219  -3.6141  -3.5544  -3.5530  -3.5448  -3.5260
    -3.5189  -3.4470  -3.4462  -3.4165  -3.4117  -3.3880  -3.3840  -3.3709
    -3.3557  -3.2983  -3.2957  -3.2799  -3.2761  -3.2300  -3.2244  -3.2212
    -3.1815  -3.1585  -3.1495  -3.1430  -3.1414  -3.1341  -3.1308  -3.1210
    -3.1197  -3.1124  -3.0714  -3.0363  -3.0301  -3.0193  -3.0176  -2.9910
    -2.9859  -2.9821  -2.9658  -2.9176  -2.9138  -2.9069  -2.8686  -2.8658
    -2.8512  -2.8478  -2.8261  -2.8200  -2.7952  -2.7846  -2.7535  -2.7380
    -2.7309  -2.7219  -2.7093  -2.7014  -2.6594  -2.6567  -2.6250  -2.6034
    -2.5993  -2.5801  -2.5756  -2.5673  -2.5621  -2.5556  -2.5348  -2.5335
    -2.4876  -2.4871  -2.4854  -2.4715  -2.4698  -2.4634  -2.4577  -2.4544
    -2.4520  -2.4505  -2.4460  -2.4379  -2.4331  -2.4250  -2.4018  -2.3979
    -2.3950  -2.3932  -2.3923  -2.3894  -2.3865  -2.3653  -2.3611  -2.3481
    -2.3454  -2.3281  -2.3263  -2.3208  -2.3173  -2.3159  -2.3144  -2.2989
    -2.2940  -2.2927  -2.2920  -2.2762  -2.2510  -2.2489  -2.2102  -2.2086
    -2.1869  -2.1849  -2.1583  -2.1546  -2.1324  -2.1285  -2.1134  -2.1073
    -2.0807  -2.0650  -2.0608  -2.0529  -2.0512  -2.0479  -2.0417  -2.0393
    -2.0130  -2.0072  -2.0009  -1.9434  -1.9399  -1.9368  -1.9341  -1.9319
    -1.9013  -1.8797  -1.8769  -1.8519  -1.8488  -1.7930  -1.7898  -1.7608
    -1.7435  -1.7404  -1.6855  -1.6808  -1.6733  -1.6681  -1.6599  -1.6574
    -1.6539  -1.6486  -1.6433  -1.5943  -1.5864  -1.5817  -1.5755  -1.5746
    -1.5606  -1.5549  -1.5241  -1.5214  -1.5077  -1.5038  -1.5034  -1.4963
    -1.4912  -1.4857  -1.4796  -1.4635  -1.4613  -1.4258  -1.4181  -1.4123
    -1.4081  -1.3901  -1.3742  -1.3366  -1.3309  -1.3066  -1.3028  -1.3006
    -1.2729  -1.2286  -1.2193  -1.2177  -1.2165  -1.2131  -1.2109  -1.2017
    -1.1864  -1.1828  -1.1482  -1.1407  -1.1173  -1.1124  -1.1081  -1.1054
    -1.0997  -1.0875  -1.0830  -1.0808  -1.0781  -1.0758  -1.0429  -1.0387
    -1.0377  -1.0369  -1.0102  -1.0065  -1.0030  -0.9792  -0.9739  -0.9696
    -0.9277  -0.9200  -0.9157  -0.8844  -0.8759  -0.8661  -0.8620  -0.8572
    -0.8554  -0.8540  -0.8515  -0.8427  -0.8399  -0.8173  -0.8156  -0.8123
    -0.8111  -0.8082  -0.7726  -0.7722  -0.7697  -0.7599  -0.7467  -0.7404
    -0.7373  -0.7261  -0.6731  -0.6714  -0.6651  -0.6614  -0.6589  -0.6580
    -0.6530  -0.6356  -0.6334  -0.6283  -0.6233  -0.6227  -0.6214  -0.5864
    -0.5827  -0.5797  -0.5737  -0.5713  -0.5683  -0.5648  -0.5577  -0.5490
    -0.5461  -0.5444  -0.5349  -0.5037  -0.5014  -0.4948  -0.4902  -0.4889
    -0.4159  -0.4108  -0.4100  -0.4098  -0.4008  -0.3999  -0.3645  -0.3526
    -0.3508  -0.3200  -0.3186  -0.3157  -0.1987  -0.1945  -0.0949   0.3192
     0.3200   0.3242   0.3245   0.3852   0.3898   0.7723   0.7743   0.8160
     0.8170   0.9316   1.0063   1.1147   1.1213   1.3403   1.3470   1.9685
     1.9732   2.1308   2.1358   2.2646   2.2708   2.3685   2.3703   2.5233
     2.7613   2.7787   2.8847   3.1049   3.1154   3.1905   3.1939   3.2928
     3.3086   3.5105   3.5259   3.5640   3.7637   3.7679   3.8233   3.8331
     4.0816   4.0899   4.0976   4.3340   4.3742   4.3790   4.4214   4.7508
     4.7622   4.7879   4.9189   5.0966   5.0980   5.1610   5.1822   5.5493
     5.8135   5.8668   5.8852   5.8955   5.9277   5.9543   5.9605   6.0487
     6.0716   6.0933   6.1218   6.1273   6.1364   6.1599   6.1680   6.1810
     6.1850   6.4549   6.5957   6.7173   6.7564   6.7932   6.8248   6.8352
     6.8400   6.9529   7.0300

          k =-0.2500 0.1443 0.1111 (136898 PWs)   bands (ev):

   -18.5789  -6.6483  -6.5720  -5.8104  -5.5177  -5.4609  -5.4604  -4.9229
    -4.9225  -4.7908  -4.7901  -4.6350  -4.6067  -4.5431  -4.5101  -4.5085
    -4.4764  -4.4760  -4.3477  -4.3061  -4.3056  -4.2463  -4.2255  -4.2244
    -4.1229  -4.1222  -4.0870  -4.0858  -4.0857  -4.0592  -4.0377  -4.0374
    -3.9339  -3.9308  -3.9301  -3.9101  -3.8937  -3.8924  -3.8811  -3.8799
    -3.8679  -3.8376  -3.8372  -3.8368  -3.8359  -3.8051  -3.8038  -3.7871
    -3.7857  -3.7746  -3.7330  -3.7299  -3.6985  -3.6850  -3.6822  -3.6776
    -3.6774  -3.6037  -3.6030  -3.5696  -3.5667  -3.5651  -3.4986  -3.4972
    -3.4850  -3.4814  -3.4536  -3.4526  -3.4515  -3.4503  -3.2996  -3.2955
    -3.2768  -3.2725  -3.2692  -3.2509  -3.2496  -3.2253  -3.2245  -3.1756
    -3.1738  -3.1600  -3.1572  -3.1386  -3.0946  -3.0900  -3.0740  -3.0661
    -3.0638  -3.0275  -3.0237  -3.0181  -3.0155  -3.0070  -2.9987  -2.9633
    -2.9606  -2.9461  -2.9393  -2.9368  -2.9349  -2.9312  -2.8639  -2.8565
    -2.8551  -2.8372  -2.8234  -2.7929  -2.7638  -2.7474  -2.7341  -2.7279
    -2.7200  -2.7162  -2.7093  -2.6854  -2.6806  -2.6735  -2.6578  -2.6350
    -2.6329  -2.6255  -2.6115  -2.6098  -2.6014  -2.5985  -2.5951  -2.5898
    -2.5864  -2.5409  -2.5103  -2.5084  -2.4910  -2.4789  -2.4748  -2.4712
    -2.4650  -2.4640  -2.4627  -2.4350  -2.4335  -2.4298  -2.4232  -2.4215
    -2.4075  -2.3800  -2.3794  -2.3780  -2.3768  -2.3756  -2.3313  -2.3019
    -2.2999  -2.2985  -2.2927  -2.2837  -2.2736  -2.2711  -2.2543  -2.2540
    -2.2241  -2.2196  -2.2191  -2.2013  -2.2007  -2.2003  -2.1699  -2.1663
    -2.1291  -2.1230  -2.1191  -2.1169  -2.1150  -2.1103  -2.1091  -2.1058
    -2.1042  -2.1007  -2.0972  -2.0835  -2.0816  -1.9583  -1.9557  -1.9267
    -1.9178  -1.9147  -1.9094  -1.9092  -1.8955  -1.8923  -1.8896  -1.8887
    -1.8853  -1.8653  -1.8591  -1.8575  -1.8476  -1.8461  -1.8422  -1.8223
    -1.8206  -1.7931  -1.7923  -1.7641  -1.7624  -1.7516  -1.7428  -1.7251
    -1.7238  -1.7208  -1.7038  -1.6906  -1.6902  -1.6828  -1.6824  -1.6580
    -1.6571  -1.6414  -1.6383  -1.6072  -1.6042  -1.5980  -1.5510  -1.5454
    -1.5346  -1.5315  -1.5302  -1.5066  -1.5039  -1.4731  -1.4719  -1.4691
    -1.4386  -1.4275  -1.4266  -1.4111  -1.4094  -1.3878  -1.3839  -1.3808
    -1.3548  -1.3503  -1.3494  -1.2904  -1.2862  -1.2774  -1.2727  -1.2618
    -1.2570  -1.2455  -1.2444  -1.2268  -1.2136  -1.1897  -1.1844  -1.1743
    -1.1466  -1.1370  -1.1346  -1.1253  -1.1237  -1.1218  -1.1172  -1.1166
    -1.1021  -1.0781  -1.0724  -1.0622  -1.0590  -1.0578  -1.0561  -1.0372
    -1.0176  -1.0153  -0.9984  -0.9932  -0.9058  -0.8913  -0.8861  -0.8841
    -0.8819  -0.8769  -0.8731  -0.8564  -0.8511  -0.8368  -0.8318  -0.8201
    -0.8188  -0.8119  -0.7922  -0.7897  -0.7860  -0.7789  -0.7096  -0.7051
    -0.6814  -0.6715  -0.6681  -0.6669  -0.6596  -0.6589  -0.6581  -0.6480
    -0.6443  -0.6304  -0.6039  -0.5953  -0.5743  -0.5700  -0.5615  -0.5584
    -0.5547  -0.5483  -0.5470  -0.5441  -0.5419  -0.5324  -0.5260  -0.5211
    -0.5201  -0.4912  -0.4908  -0.4875  -0.4762  -0.4759  -0.4570  -0.4259
    -0.4249  -0.4156  -0.4155  -0.3493  -0.3465  -0.3120  -0.3103  -0.2549
    -0.2527  -0.2501  -0.2341  -0.2261   0.0037   0.0060   0.3485   0.3489
     0.4416   0.4447   0.6370   0.6558   0.6670   0.7965   0.7979   1.2285
     1.2296   1.2476   1.5098   1.5388   1.5394   1.8175   1.8227   1.8934
     1.8958   1.9211   1.9259   2.1511   2.1519   2.2398   2.2410   2.3246
     2.3784   2.3857   2.5439   2.6431   3.0753   3.0839   3.0859   3.0876
     3.1402   3.1414   3.4326   3.4336   3.7104   3.7195   3.8320   4.1292
     4.1638   4.1749   4.3980   4.4166   4.4676   4.4743   4.5626   4.6753
     4.6863   4.7969   4.8010   5.1001   5.1593   5.1778   5.3324   5.3653
     5.4522   5.5539   5.5630   5.5860   5.5890   5.6436   5.6528   5.7073
     5.8828   6.0607   6.2500   6.2883   6.3621   6.3896   6.3953   6.4006
     6.4100   6.5550   6.6453   6.6494   6.6684   6.8481   6.8846   6.9075
     6.9406   7.0220   7.1110

          k =-0.2500-0.1443-0.1111 (136898 PWs)   bands (ev):

   -18.5789  -6.6483  -6.5721  -5.8104  -5.5177  -5.4608  -5.4604  -4.9228
    -4.9225  -4.7911  -4.7901  -4.6350  -4.6067  -4.5435  -4.5097  -4.5088
    -4.4762  -4.4759  -4.3477  -4.3060  -4.3059  -4.2462  -4.2255  -4.2245
    -4.1227  -4.1222  -4.0870  -4.0859  -4.0856  -4.0592  -4.0377  -4.0372
    -3.9340  -3.9308  -3.9305  -3.9101  -3.8939  -3.8924  -3.8812  -3.8800
    -3.8678  -3.8376  -3.8370  -3.8365  -3.8358  -3.8050  -3.8040  -3.7871
    -3.7856  -3.7746  -3.7331  -3.7296  -3.6985  -3.6849  -3.6820  -3.6776
    -3.6774  -3.6039  -3.6031  -3.5695  -3.5663  -3.5653  -3.4989  -3.4973
    -3.4845  -3.4813  -3.4538  -3.4525  -3.4513  -3.4506  -3.3023  -3.2955
    -3.2755  -3.2748  -3.2673  -3.2511  -3.2497  -3.2250  -3.2248  -3.1764
    -3.1738  -3.1610  -3.1571  -3.1375  -3.0926  -3.0916  -3.0708  -3.0685
    -3.0639  -3.0291  -3.0238  -3.0161  -3.0157  -3.0037  -2.9987  -2.9647
    -2.9605  -2.9438  -2.9412  -2.9371  -2.9349  -2.9314  -2.8679  -2.8556
    -2.8554  -2.8362  -2.8234  -2.7823  -2.7653  -2.7622  -2.7334  -2.7274
    -2.7196  -2.7149  -2.7041  -2.6855  -2.6849  -2.6737  -2.6541  -2.6357
    -2.6316  -2.6225  -2.6110  -2.6106  -2.6009  -2.5999  -2.5948  -2.5904
    -2.5864  -2.5408  -2.5100  -2.5092  -2.4932  -2.4797  -2.4749  -2.4711
    -2.4646  -2.4643  -2.4634  -2.4355  -2.4341  -2.4303  -2.4232  -2.4202
    -2.4073  -2.3796  -2.3791  -2.3773  -2.3768  -2.3739  -2.3315  -2.3020
    -2.2995  -2.2992  -2.2928  -2.2839  -2.2757  -2.2704  -2.2540  -2.2539
    -2.2241  -2.2196  -2.2190  -2.2023  -2.2007  -2.2005  -2.1694  -2.1666
    -2.1291  -2.1230  -2.1189  -2.1171  -2.1160  -2.1103  -2.1091  -2.1057
    -2.1054  -2.0986  -2.0978  -2.0826  -2.0821  -1.9588  -1.9569  -1.9204
    -1.9179  -1.9162  -1.9096  -1.9089  -1.8961  -1.8945  -1.8891  -1.8877
    -1.8849  -1.8657  -1.8600  -1.8583  -1.8469  -1.8455  -1.8421  -1.8235
    -1.8210  -1.7944  -1.7928  -1.7626  -1.7617  -1.7514  -1.7423  -1.7246
    -1.7239  -1.7206  -1.7038  -1.6914  -1.6904  -1.6831  -1.6822  -1.6573
    -1.6562  -1.6409  -1.6397  -1.6088  -1.6046  -1.5967  -1.5494  -1.5466
    -1.5325  -1.5320  -1.5303  -1.5068  -1.5037  -1.4736  -1.4718  -1.4702
    -1.4365  -1.4288  -1.4266  -1.4109  -1.4093  -1.3866  -1.3851  -1.3804
    -1.3551  -1.3500  -1.3497  -1.2914  -1.2865  -1.2775  -1.2731  -1.2613
    -1.2575  -1.2446  -1.2442  -1.2264  -1.2135  -1.1889  -1.1849  -1.1741
    -1.1434  -1.1369  -1.1362  -1.1251  -1.1242  -1.1221  -1.1178  -1.1160
    -1.1021  -1.0772  -1.0732  -1.0634  -1.0617  -1.0578  -1.0574  -1.0373
    -1.0176  -1.0162  -0.9973  -0.9932  -0.9043  -0.8923  -0.8854  -0.8844
    -0.8809  -0.8762  -0.8745  -0.8514  -0.8505  -0.8370  -0.8331  -0.8194
    -0.8191  -0.8126  -0.7930  -0.7885  -0.7867  -0.7790  -0.7074  -0.7055
    -0.6784  -0.6762  -0.6681  -0.6635  -0.6621  -0.6586  -0.6580  -0.6491
    -0.6475  -0.6290  -0.6038  -0.5915  -0.5773  -0.5724  -0.5616  -0.5587
    -0.5564  -0.5473  -0.5464  -0.5442  -0.5426  -0.5307  -0.5236  -0.5220
    -0.5202  -0.4908  -0.4907  -0.4870  -0.4768  -0.4761  -0.4568  -0.4260
    -0.4247  -0.4158  -0.4150  -0.3492  -0.3468  -0.3121  -0.3102  -0.2548
    -0.2527  -0.2500  -0.2369  -0.2260   0.0029   0.0098   0.3483   0.3489
     0.4407   0.4463   0.6349   0.6565   0.6662   0.7965   0.7974   1.2286
     1.2297   1.2469   1.5097   1.5385   1.5400   1.8168   1.8236   1.8932
     1.8968   1.9208   1.9263   2.1513   2.1522   2.2396   2.2410   2.3249
     2.3781   2.3854   2.5432   2.6431   3.0743   3.0849   3.0855   3.0879
     3.1408   3.1419   3.4324   3.4340   3.7099   3.7202   3.8322   4.1294
     4.1634   4.1751   4.3979   4.4154   4.4687   4.4734   4.5626   4.6754
     4.6859   4.7962   4.8016   5.0996   5.1608   5.1761   5.3381   5.3643
     5.4449   5.5548   5.5629   5.5842   5.5895   5.6405   5.6554   5.7124
     5.8849   6.0740   6.2516   6.2759   6.3455   6.3890   6.3938   6.3992
     6.4108   6.5609   6.6448   6.6507   6.6780   6.8563   6.8881   6.9054
     6.9269   7.0302   7.1018

          k = 0.2500 0.1443-0.1111 (136898 PWs)   bands (ev):

   -18.5789  -6.6483  -6.5720  -5.8104  -5.5177  -5.4608  -5.4604  -4.9228
    -4.9225  -4.7911  -4.7901  -4.6350  -4.6067  -4.5435  -4.5097  -4.5088
    -4.4762  -4.4759  -4.3477  -4.3060  -4.3059  -4.2462  -4.2255  -4.2245
    -4.1227  -4.1222  -4.0870  -4.0859  -4.0856  -4.0592  -4.0377  -4.0372
    -3.9340  -3.9308  -3.9305  -3.9101  -3.8939  -3.8924  -3.8812  -3.8799
    -3.8678  -3.8376  -3.8370  -3.8365  -3.8358  -3.8050  -3.8040  -3.7871
    -3.7856  -3.7746  -3.7331  -3.7296  -3.6985  -3.6849  -3.6820  -3.6776
    -3.6774  -3.6039  -3.6031  -3.5695  -3.5663  -3.5653  -3.4989  -3.4973
    -3.4845  -3.4813  -3.4538  -3.4525  -3.4513  -3.4506  -3.3023  -3.2955
    -3.2755  -3.2748  -3.2673  -3.2511  -3.2497  -3.2250  -3.2248  -3.1764
    -3.1738  -3.1610  -3.1571  -3.1375  -3.0926  -3.0916  -3.0708  -3.0685
    -3.0639  -3.0291  -3.0238  -3.0161  -3.0157  -3.0037  -2.9987  -2.9647
    -2.9605  -2.9438  -2.9412  -2.9371  -2.9349  -2.9314  -2.8679  -2.8556
    -2.8554  -2.8362  -2.8234  -2.7823  -2.7653  -2.7622  -2.7334  -2.7274
    -2.7196  -2.7149  -2.7041  -2.6855  -2.6849  -2.6737  -2.6541  -2.6357
    -2.6316  -2.6225  -2.6110  -2.6107  -2.6009  -2.5999  -2.5948  -2.5904
    -2.5864  -2.5408  -2.5100  -2.5092  -2.4931  -2.4797  -2.4749  -2.4711
    -2.4646  -2.4643  -2.4634  -2.4355  -2.4341  -2.4303  -2.4232  -2.4202
    -2.4073  -2.3796  -2.3791  -2.3773  -2.3768  -2.3739  -2.3315  -2.3020
    -2.2995  -2.2992  -2.2928  -2.2839  -2.2757  -2.2704  -2.2540  -2.2539
    -2.2241  -2.2196  -2.2190  -2.2023  -2.2007  -2.2005  -2.1694  -2.1666
    -2.1291  -2.1230  -2.1189  -2.1171  -2.1160  -2.1103  -2.1091  -2.1057
    -2.1054  -2.0986  -2.0978  -2.0826  -2.0821  -1.9588  -1.9569  -1.9204
    -1.9179  -1.9162  -1.9096  -1.9089  -1.8961  -1.8945  -1.8891  -1.8877
    -1.8850  -1.8657  -1.8600  -1.8583  -1.8469  -1.8455  -1.8421  -1.8235
    -1.8210  -1.7944  -1.7928  -1.7626  -1.7617  -1.7514  -1.7423  -1.7246
    -1.7239  -1.7206  -1.7038  -1.6914  -1.6904  -1.6831  -1.6822  -1.6573
    -1.6562  -1.6409  -1.6397  -1.6088  -1.6046  -1.5967  -1.5494  -1.5466
    -1.5325  -1.5320  -1.5303  -1.5068  -1.5037  -1.4736  -1.4718  -1.4702
    -1.4366  -1.4288  -1.4266  -1.4109  -1.4093  -1.3866  -1.3852  -1.3804
    -1.3551  -1.3500  -1.3497  -1.2914  -1.2865  -1.2775  -1.2731  -1.2613
    -1.2575  -1.2446  -1.2442  -1.2264  -1.2135  -1.1889  -1.1849  -1.1741
    -1.1434  -1.1369  -1.1362  -1.1251  -1.1242  -1.1221  -1.1178  -1.1160
    -1.1021  -1.0772  -1.0732  -1.0634  -1.0617  -1.0578  -1.0574  -1.0373
    -1.0176  -1.0162  -0.9973  -0.9932  -0.9043  -0.8923  -0.8854  -0.8844
    -0.8809  -0.8762  -0.8746  -0.8514  -0.8505  -0.8370  -0.8331  -0.8194
    -0.8191  -0.8126  -0.7930  -0.7885  -0.7867  -0.7790  -0.7074  -0.7055
    -0.6784  -0.6762  -0.6681  -0.6635  -0.6621  -0.6586  -0.6580  -0.6491
    -0.6475  -0.6290  -0.6038  -0.5915  -0.5773  -0.5724  -0.5616  -0.5587
    -0.5564  -0.5473  -0.5464  -0.5442  -0.5425  -0.5307  -0.5236  -0.5220
    -0.5202  -0.4908  -0.4907  -0.4870  -0.4768  -0.4761  -0.4568  -0.4260
    -0.4247  -0.4158  -0.4150  -0.3492  -0.3468  -0.3121  -0.3102  -0.2548
    -0.2527  -0.2500  -0.2369  -0.2260   0.0029   0.0098   0.3483   0.3489
     0.4407   0.4463   0.6349   0.6565   0.6662   0.7965   0.7974   1.2286
     1.2297   1.2469   1.5097   1.5385   1.5400   1.8168   1.8236   1.8932
     1.8968   1.9208   1.9263   2.1513   2.1522   2.2396   2.2410   2.3249
     2.3781   2.3854   2.5432   2.6431   3.0743   3.0849   3.0855   3.0879
     3.1408   3.1419   3.4324   3.4340   3.7099   3.7202   3.8322   4.1294
     4.1634   4.1751   4.3979   4.4154   4.4687   4.4734   4.5626   4.6754
     4.6859   4.7962   4.8016   5.0996   5.1608   5.1761   5.3380   5.3643
     5.4451   5.5548   5.5629   5.5842   5.5895   5.6405   5.6554   5.7127
     5.8829   6.0774   6.2518   6.2785   6.3452   6.3889   6.3938   6.3993
     6.4108   6.5519   6.6438   6.6507   6.6717   6.8576   6.8883   6.9102
     6.9281   7.0275   7.1068

          k = 0.0000-0.2887 0.1111 (136898 PWs)   bands (ev):

   -18.5789  -6.6483  -6.5720  -5.8104  -5.5177  -5.4608  -5.4604  -4.9229
    -4.9224  -4.7911  -4.7899  -4.6350  -4.6067  -4.5432  -4.5101  -4.5086
    -4.4764  -4.4759  -4.3476  -4.3062  -4.3056  -4.2461  -4.2255  -4.2245
    -4.1229  -4.1221  -4.0870  -4.0859  -4.0857  -4.0592  -4.0377  -4.0374
    -3.9338  -3.9308  -3.9301  -3.9100  -3.8938  -3.8925  -3.8812  -3.8800
    -3.8679  -3.8378  -3.8371  -3.8368  -3.8357  -3.8050  -3.8038  -3.7871
    -3.7856  -3.7743  -3.7331  -3.7301  -3.6987  -3.6850  -3.6821  -3.6775
    -3.6774  -3.6037  -3.6031  -3.5694  -3.5664  -3.5650  -3.4988  -3.4973
    -3.4851  -3.4813  -3.4533  -3.4526  -3.4519  -3.4505  -3.2992  -3.2956
    -3.2763  -3.2726  -3.2698  -3.2509  -3.2497  -3.2253  -3.2242  -3.1755
    -3.1738  -3.1601  -3.1572  -3.1386  -3.0941  -3.0898  -3.0752  -3.0659
    -3.0639  -3.0270  -3.0238  -3.0186  -3.0156  -3.0081  -2.9987  -2.9628
    -2.9604  -2.9450  -2.9395  -2.9368  -2.9348  -2.9312  -2.8651  -2.8562
    -2.8552  -2.8367  -2.8233  -2.7925  -2.7644  -2.7473  -2.7343  -2.7274
    -2.7199  -2.7166  -2.7099  -2.6855  -2.6799  -2.6736  -2.6581  -2.6350
    -2.6327  -2.6259  -2.6113  -2.6101  -2.6012  -2.5985  -2.5950  -2.5896
    -2.5864  -2.5408  -2.5103  -2.5088  -2.4902  -2.4788  -2.4747  -2.4714
    -2.4647  -2.4638  -2.4631  -2.4351  -2.4332  -2.4300  -2.4230  -2.4221
    -2.4072  -2.3804  -2.3793  -2.3777  -2.3766  -2.3762  -2.3315  -2.3018
    -2.2999  -2.2986  -2.2927  -2.2838  -2.2744  -2.2710  -2.2541  -2.2538
    -2.2240  -2.2194  -2.2190  -2.2017  -2.2007  -2.2004  -2.1690  -2.1664
    -2.1291  -2.1230  -2.1189  -2.1168  -2.1149  -2.1103  -2.1087  -2.1058
    -2.1043  -2.1006  -2.0976  -2.0838  -2.0819  -1.9584  -1.9561  -1.9263
    -1.9176  -1.9151  -1.9093  -1.9091  -1.8958  -1.8923  -1.8895  -1.8887
    -1.8847  -1.8654  -1.8594  -1.8576  -1.8475  -1.8460  -1.8420  -1.8228
    -1.8207  -1.7937  -1.7924  -1.7632  -1.7621  -1.7516  -1.7427  -1.7251
    -1.7237  -1.7205  -1.7038  -1.6911  -1.6903  -1.6829  -1.6825  -1.6576
    -1.6567  -1.6414  -1.6388  -1.6079  -1.6043  -1.5976  -1.5509  -1.5458
    -1.5345  -1.5315  -1.5302  -1.5069  -1.5037  -1.4731  -1.4716  -1.4692
    -1.4380  -1.4279  -1.4266  -1.4110  -1.4093  -1.3870  -1.3841  -1.3809
    -1.3551  -1.3500  -1.3494  -1.2910  -1.2862  -1.2773  -1.2730  -1.2618
    -1.2568  -1.2452  -1.2441  -1.2264  -1.2135  -1.1895  -1.1846  -1.1742
    -1.1454  -1.1372  -1.1349  -1.1253  -1.1239  -1.1220  -1.1177  -1.1166
    -1.1021  -1.0780  -1.0727  -1.0626  -1.0596  -1.0578  -1.0566  -1.0373
    -1.0179  -1.0157  -0.9981  -0.9931  -0.9051  -0.8916  -0.8859  -0.8843
    -0.8810  -0.8770  -0.8736  -0.8545  -0.8511  -0.8369  -0.8322  -0.8200
    -0.8189  -0.8121  -0.7925  -0.7894  -0.7863  -0.7790  -0.7090  -0.7051
    -0.6809  -0.6726  -0.6682  -0.6659  -0.6603  -0.6588  -0.6581  -0.6481
    -0.6453  -0.6299  -0.6038  -0.5938  -0.5752  -0.5713  -0.5615  -0.5588
    -0.5562  -0.5476  -0.5469  -0.5439  -0.5419  -0.5310  -0.5254  -0.5213
    -0.5203  -0.4910  -0.4907  -0.4872  -0.4765  -0.4758  -0.4570  -0.4259
    -0.4247  -0.4157  -0.4153  -0.3496  -0.3464  -0.3120  -0.3102  -0.2549
    -0.2527  -0.2500  -0.2352  -0.2261   0.0037   0.0072   0.3484   0.3489
     0.4414   0.4451   0.6361   0.6559   0.6669   0.7965   0.7977   1.2285
     1.2297   1.2475   1.5098   1.5388   1.5396   1.8173   1.8229   1.8934
     1.8961   1.9210   1.9259   2.1513   2.1518   2.2397   2.2410   2.3247
     2.3784   2.3855   2.5435   2.6432   3.0753   3.0838   3.0860   3.0877
     3.1405   3.1415   3.4327   3.4336   3.7103   3.7197   3.8321   4.1292
     4.1635   4.1749   4.3981   4.4156   4.4672   4.4748   4.5628   4.6750
     4.6863   4.7973   4.8014   5.1004   5.1583   5.1777   5.3340   5.3646
     5.4504   5.5531   5.5628   5.5861   5.5889   5.6446   5.6522   5.7096
     5.8828   6.0659   6.2504   6.2849   6.3566   6.3894   6.3953   6.4008
     6.4102   6.5538   6.6451   6.6489   6.6698   6.8499   6.8891   6.9057
     6.9373   7.0234   7.1073

          k = 0.0000 0.2887 0.1111 (136898 PWs)   bands (ev):

   -18.5789  -6.6483  -6.5720  -5.8104  -5.5177  -5.4608  -5.4604  -4.9229
    -4.9224  -4.7911  -4.7899  -4.6350  -4.6067  -4.5432  -4.5101  -4.5086
    -4.4764  -4.4759  -4.3476  -4.3062  -4.3056  -4.2461  -4.2255  -4.2245
    -4.1229  -4.1221  -4.0870  -4.0859  -4.0857  -4.0592  -4.0377  -4.0374
    -3.9338  -3.9308  -3.9301  -3.9100  -3.8938  -3.8924  -3.8811  -3.8799
    -3.8679  -3.8378  -3.8371  -3.8368  -3.8357  -3.8050  -3.8038  -3.7871
    -3.7856  -3.7743  -3.7331  -3.7301  -3.6987  -3.6850  -3.6821  -3.6775
    -3.6774  -3.6037  -3.6031  -3.5694  -3.5664  -3.5650  -3.4988  -3.4973
    -3.4851  -3.4813  -3.4533  -3.4526  -3.4519  -3.4505  -3.2992  -3.2956
    -3.2763  -3.2726  -3.2698  -3.2509  -3.2497  -3.2253  -3.2242  -3.1756
    -3.1738  -3.1601  -3.1572  -3.1386  -3.0941  -3.0898  -3.0751  -3.0659
    -3.0639  -3.0270  -3.0238  -3.0186  -3.0156  -3.0081  -2.9987  -2.9628
    -2.9604  -2.9450  -2.9395  -2.9368  -2.9348  -2.9312  -2.8651  -2.8562
    -2.8552  -2.8367  -2.8234  -2.7925  -2.7644  -2.7473  -2.7343  -2.7274
    -2.7199  -2.7166  -2.7099  -2.6855  -2.6799  -2.6736  -2.6581  -2.6350
    -2.6327  -2.6259  -2.6113  -2.6101  -2.6012  -2.5985  -2.5950  -2.5896
    -2.5864  -2.5408  -2.5103  -2.5088  -2.4902  -2.4788  -2.4747  -2.4714
    -2.4647  -2.4638  -2.4631  -2.4352  -2.4332  -2.4300  -2.4230  -2.4221
    -2.4072  -2.3804  -2.3793  -2.3777  -2.3766  -2.3762  -2.3315  -2.3018
    -2.2999  -2.2985  -2.2927  -2.2838  -2.2744  -2.2710  -2.2541  -2.2539
    -2.2240  -2.2194  -2.2190  -2.2017  -2.2007  -2.2004  -2.1690  -2.1664
    -2.1291  -2.1230  -2.1189  -2.1168  -2.1149  -2.1103  -2.1087  -2.1058
    -2.1042  -2.1006  -2.0976  -2.0838  -2.0819  -1.9584  -1.9561  -1.9263
    -1.9176  -1.9151  -1.9093  -1.9091  -1.8958  -1.8923  -1.8895  -1.8887
    -1.8847  -1.8654  -1.8594  -1.8576  -1.8475  -1.8460  -1.8420  -1.8228
    -1.8207  -1.7937  -1.7924  -1.7632  -1.7621  -1.7516  -1.7427  -1.7251
    -1.7237  -1.7205  -1.7038  -1.6911  -1.6903  -1.6829  -1.6825  -1.6576
    -1.6567  -1.6414  -1.6388  -1.6079  -1.6043  -1.5976  -1.5509  -1.5458
    -1.5345  -1.5316  -1.5302  -1.5069  -1.5037  -1.4731  -1.4716  -1.4692
    -1.4380  -1.4279  -1.4266  -1.4110  -1.4093  -1.3870  -1.3842  -1.3809
    -1.3551  -1.3500  -1.3494  -1.2910  -1.2862  -1.2773  -1.2730  -1.2618
    -1.2568  -1.2452  -1.2441  -1.2264  -1.2135  -1.1895  -1.1846  -1.1742
    -1.1454  -1.1372  -1.1349  -1.1253  -1.1239  -1.1220  -1.1177  -1.1166
    -1.1021  -1.0780  -1.0727  -1.0626  -1.0596  -1.0578  -1.0566  -1.0373
    -1.0179  -1.0157  -0.9981  -0.9931  -0.9051  -0.8916  -0.8859  -0.8843
    -0.8811  -0.8770  -0.8736  -0.8545  -0.8511  -0.8369  -0.8322  -0.8200
    -0.8189  -0.8121  -0.7925  -0.7894  -0.7863  -0.7789  -0.7090  -0.7051
    -0.6809  -0.6726  -0.6682  -0.6659  -0.6603  -0.6588  -0.6581  -0.6481
    -0.6453  -0.6299  -0.6038  -0.5938  -0.5752  -0.5713  -0.5615  -0.5588
    -0.5562  -0.5476  -0.5469  -0.5439  -0.5419  -0.5310  -0.5254  -0.5213
    -0.5203  -0.4910  -0.4907  -0.4872  -0.4765  -0.4758  -0.4570  -0.4259
    -0.4247  -0.4157  -0.4153  -0.3496  -0.3464  -0.3120  -0.3102  -0.2549
    -0.2527  -0.2500  -0.2352  -0.2261   0.0037   0.0072   0.3484   0.3489
     0.4414   0.4451   0.6361   0.6559   0.6669   0.7965   0.7977   1.2285
     1.2297   1.2475   1.5098   1.5388   1.5396   1.8173   1.8229   1.8934
     1.8961   1.9210   1.9259   2.1513   2.1518   2.2397   2.2410   2.3247
     2.3784   2.3855   2.5435   2.6432   3.0753   3.0838   3.0860   3.0877
     3.1405   3.1415   3.4327   3.4336   3.7103   3.7197   3.8321   4.1292
     4.1635   4.1749   4.3981   4.4156   4.4672   4.4748   4.5628   4.6750
     4.6863   4.7973   4.8014   5.1004   5.1583   5.1777   5.3340   5.3646
     5.4504   5.5531   5.5628   5.5861   5.5889   5.6446   5.6522   5.7095
     5.8844   6.0641   6.2503   6.2832   6.3557   6.3894   6.3953   6.4008
     6.4102   6.5582   6.6448   6.6499   6.6717   6.8474   6.8874   6.9050
     6.9365   7.0272   7.1168

     the Fermi energy is     1.3736 ev

!    total energy              =   -6604.42296009 Ry
     Harris-Foulkes estimate   =   -6604.42296009 Ry
     estimated scf accuracy    <          3.9E-09 Ry

     The total energy is the sum of the following terms:

     one-electron contribution =  -48697.32452980 Ry
     hartree contribution      =   24848.27344271 Ry
     xc contribution           =   -3205.00625956 Ry
     ewald contribution        =   20449.63146233 Ry
     smearing contrib. (-TS)   =       0.00292423 Ry

     convergence has been achieved in  25 iterations

     Writing output data file 9371929.save

     init_run     :    179.39s CPU    192.46s WALL (       1 calls)
     electrons    :  10815.97s CPU  11352.45s WALL (       1 calls)

     Called by init_run:
     wfcinit      :    143.42s CPU    155.68s WALL (       1 calls)
     potinit      :     10.34s CPU     10.70s WALL (       1 calls)

     Called by electrons:
     c_bands      :   9029.18s CPU   9462.14s WALL (      26 calls)
     sum_band     :   1346.52s CPU   1437.04s WALL (      26 calls)
     v_of_rho     :    119.23s CPU    128.33s WALL (      26 calls)
     newd         :    331.63s CPU    335.00s WALL (      26 calls)
     mix_rho      :      3.20s CPU      3.49s WALL (      26 calls)
     vdW_energy   :      5.88s CPU      6.34s WALL (      26 calls)
     vdW_ffts     :     67.02s CPU     71.74s WALL (      52 calls)
     vdW_v        :     14.88s CPU     15.67s WALL (      26 calls)

     Called by c_bands:
     init_us_2    :     11.12s CPU     11.52s WALL (     636 calls)
     cegterg      :   8848.92s CPU   9280.20s WALL (     312 calls)

     Called by *egterg:
     h_psi        :   3934.97s CPU   4327.60s WALL (    1746 calls)
     s_psi        :    433.15s CPU    436.02s WALL (    1746 calls)
     g_psi        :      6.26s CPU      6.29s WALL (    1422 calls)
     cdiaghg      :   2234.10s CPU   2241.78s WALL (    1722 calls)

     Called by h_psi:
     add_vuspsi   :    433.33s CPU    436.22s WALL (    1746 calls)

     General routines
     calbec       :    966.24s CPU    969.93s WALL (    2058 calls)
     fft          :    261.43s CPU    270.58s WALL (    1716 calls)
     ffts         :      1.99s CPU      2.22s WALL (      52 calls)
     fftw         :   3269.32s CPU   3708.90s WALL (  760724 calls)
     interpolate  :      5.04s CPU      5.61s WALL (      52 calls)
     davcio       :      0.00s CPU      0.18s WALL (      12 calls)

     Parallel routines
     fft_scatter  :   2725.44s CPU   3098.36s WALL (  762492 calls)

     PWSCF        :     3h 3m CPU        3h12m WALL


   This run was terminated on:  23:10:23  29Jun2015            

=------------------------------------------------------------------------------=
   JOB DONE.
=------------------------------------------------------------------------------=
