Setting SGE environment for SCC

     Program PWSCF v.5.1.2 starts on 24Jun2015 at 18:38:13 

     This program is part of the open-source Quantum ESPRESSO suite
     for quantum simulation of materials; please cite
         "P. Giannozzi et al., J. Phys.:Condens. Matter 21 395502 (2009);
          URL http://www.quantum-espresso.org", 
     in publications or presentations arising from this work. More details at
     http://www.quantum-espresso.org/quote

     Parallel version (MPI), running on    32 processors
     R & G space division:  proc/nbgrp/npool/nimage =      32
     Reading input from top.O1.Au50.d.2.6.phi.25.psi.0.in
Warning: card &IONS ignored
Warning: card / ignored
Warning: card &CELL ignored
Warning: card / ignored

     Current dimensions of program PWSCF are:
     Max number of different atomic species (ntypx) = 10
     Max number of k-points (npk) =  40000
     Max angular momentum in pseudopotentials (lmaxx) =  3

     IMPORTANT: XC functional enforced from input :
     Exchange-correlation      = VDW-DF ( 1  4  4  0 1 0)
     Any further DFT definition will be discarded
     Please, verify this is what you really want


     Subspace diagonalization in iterative solution of the eigenvalue problem:
     a serial algorithm will be used


     Parallelization info
     --------------------
     sticks:   dense  smooth     PW     G-vecs:    dense   smooth      PW
     Min         445     223     58                96775    34191    4534
     Max         446     224     59                96790    34246    4540
     Sum       14269    7147   1867              3097177  1095093  145167


     Title: 
     top.O1.Au50.d.2.6.phi.25.psi.0                                             


     bravais-lattice index     =            4
     lattice parameter (alat)  =      22.7436  a.u.
     unit-cell volume          =   22924.1508 (a.u.)^3
     number of atoms/cell      =           67
     number of atomic types    =            3
     number of electrons       =       712.00
     number of Kohn-Sham states=          427
     kinetic-energy cutoff     =      50.0000  Ry
     charge density cutoff     =     400.0000  Ry
     convergence threshold     =      1.0E-08
     mixing beta               =       0.7000
     number of iterations used =            8  plain     mixing
     Exchange-correlation      = VDW-DF ( 1  4  4  0 1 0)

     celldm(1)=  22.743643  celldm(2)=   0.000000  celldm(3)=   2.250000
     celldm(4)=   0.000000  celldm(5)=   0.000000  celldm(6)=   0.000000

     crystal axes: (cart. coord. in units of alat)
               a(1) = (   1.000000   0.000000   0.000000 )  
               a(2) = (  -0.500000   0.866025   0.000000 )  
               a(3) = (   0.000000   0.000000   2.250000 )  

     reciprocal axes: (cart. coord. in units 2 pi/alat)
               b(1) = (  1.000000  0.577350 -0.000000 )  
               b(2) = (  0.000000  1.154701  0.000000 )  
               b(3) = (  0.000000 -0.000000  0.444444 )  


     PseudoPot. # 1 for Au read from file:
     /home/scc/andrejb/qe/pseudo/Au.pbe-nd-van.UPF
     MD5 check sum: 458681b50f36d87ef23c61b04bba420a
     Pseudo is Ultrasoft + core correction, Zval = 11.0
     Generated by new atomic code, or converted to UPF format
     Using radial grid of  985 points,  3 beta functions with: 
                l(1) =   1
                l(2) =   2
                l(3) =   2
     Q(r) pseudized with  8 coefficients,  rinner =    1.100   1.100   1.100
                                                       1.100   1.100

     PseudoPot. # 2 for H  read from file:
     /home/scc/andrejb/qe/pseudo/H.pbe-van_ak.UPF
     MD5 check sum: 403db7282739603aa925980fa9b8608d
     Pseudo is Ultrasoft, Zval =  1.0
     Generated by new atomic code, or converted to UPF format
     Using radial grid of  615 points,  1 beta functions with: 
                l(1) =   0
     Q(r) pseudized with  8 coefficients,  rinner =    0.800

     PseudoPot. # 3 for O  read from file:
     /home/scc/andrejb/qe/pseudo/O.pbe-van_ak.UPF
     MD5 check sum: 4b8c549914a63cae506c6ff22b5af4fe
     Pseudo is Ultrasoft, Zval =  6.0
     Generated by new atomic code, or converted to UPF format
     Using radial grid of  737 points,  4 beta functions with: 
                l(1) =   0
                l(2) =   0
                l(3) =   1
                l(4) =   1
     Q(r) pseudized with  8 coefficients,  rinner =    0.800   0.800   0.800


     vdW kernel table read from file vdW_kernel_table
     MD5 check sum: 48e77a2e26edf626eeb0eaa751ad5cac

     atomic species   valence    mass     pseudopotential
        Au            11.00   196.96657     Au( 1.00)
        H              1.00     1.01000     H ( 1.00)
        O              6.00    16.00000     O ( 1.00)

     No symmetry found



   Cartesian axes

     site n.     atom                  positions (alat units)
         1           O   tau(   1) = (   0.4790780   0.3968269   0.8290259  )
         2           H   tau(   2) = (   0.4518956   0.3378297   0.8772795  )
         3           H   tau(   3) = (   0.5054281   0.4540523   0.8797866  )
         4           Au  tau(   4) = (   0.3540481   0.6132292   0.0000000  )
         5           Au  tau(   5) = (   0.4790062   0.3967954   0.0000000  )
         6           Au  tau(   6) = (   0.6039644   0.1803616   0.0000000  )
         7           Au  tau(   7) = (   0.7289225  -0.0360723   0.0000000  )
         8           Au  tau(   8) = (   0.1041318   0.6132292   0.0000000  )
         9           Au  tau(   9) = (   0.2290899   0.3967954   0.0000000  )
        10           Au  tau(  10) = (   0.3540481   0.1803616   0.0000000  )
        11           Au  tau(  11) = (   0.4790062  -0.0360723   0.0000000  )
        12           Au  tau(  12) = (  -0.1457845   0.6132292   0.0000000  )
        13           Au  tau(  13) = (  -0.0208264   0.3967954   0.0000000  )
        14           Au  tau(  14) = (   0.1041318   0.1803616   0.0000000  )
        15           Au  tau(  15) = (   0.2290899  -0.0360723   0.0000000  )
        16           Au  tau(  16) = (  -0.3957008   0.6132292   0.0000000  )
        17           Au  tau(  17) = (  -0.2707426   0.3967954   0.0000000  )
        18           Au  tau(  18) = (  -0.1457845   0.1803616   0.0000000  )
        19           Au  tau(  19) = (  -0.0208264  -0.0360723   0.0000000  )
        20           Au  tau(  20) = (   0.4790062   0.6853738   0.2040557  )
        21           Au  tau(  21) = (   0.6039644   0.4689400   0.2040557  )
        22           Au  tau(  22) = (   0.7289225   0.2525062   0.2040557  )
        23           Au  tau(  23) = (   0.8538806   0.0360723   0.2040557  )
        24           Au  tau(  24) = (   0.2290899   0.6853738   0.2040557  )
        25           Au  tau(  25) = (   0.3540481   0.4689400   0.2040557  )
        26           Au  tau(  26) = (   0.4790062   0.2525062   0.2040557  )
        27           Au  tau(  27) = (   0.6039644   0.0360723   0.2040557  )
        28           Au  tau(  28) = (  -0.0208264   0.6853738   0.2040557  )
        29           Au  tau(  29) = (   0.1041318   0.4689400   0.2040557  )
        30           Au  tau(  30) = (   0.2290899   0.2525062   0.2040557  )
        31           Au  tau(  31) = (   0.3540481   0.0360723   0.2040557  )
        32           Au  tau(  32) = (  -0.2707426   0.6853738   0.2040557  )
        33           Au  tau(  33) = (  -0.1457845   0.4689400   0.2040557  )
        34           Au  tau(  34) = (  -0.0208264   0.2525062   0.2040557  )
        35           Au  tau(  35) = (   0.1041318   0.0360723   0.2040557  )
        36           Au  tau(  36) = (   0.3541162   0.7576593   0.4066483  )
        37           Au  tau(  37) = (   0.4791000   0.5411421   0.4066696  )
        38           Au  tau(  38) = (   0.6040570   0.3246862   0.4066618  )
        39           Au  tau(  39) = (   0.7290270   0.1081684   0.4066530  )
        40           Au  tau(  40) = (   0.1041162   0.7576236   0.4066247  )
        41           Au  tau(  41) = (   0.2291001   0.5411062   0.4066455  )
        42           Au  tau(  42) = (   0.3540567   0.3246505   0.4066380  )
        43           Au  tau(  43) = (   0.4790276   0.1081324   0.4066292  )
        44           Au  tau(  44) = (  -0.1458201   0.7576104   0.4066225  )
        45           Au  tau(  45) = (  -0.0208365   0.5410930   0.4066438  )
        46           Au  tau(  46) = (   0.1041202   0.3246372   0.4066359  )
        47           Au  tau(  47) = (   0.2290908   0.1081193   0.4066273  )
        48           Au  tau(  48) = (  -0.3958167   0.7575791   0.4065812  )
        49           Au  tau(  49) = (  -0.2708328   0.5410617   0.4066025  )
        50           Au  tau(  50) = (  -0.1458763   0.3246061   0.4065947  )
        51           Au  tau(  51) = (  -0.0209056   0.1080882   0.4065858  )
        52           Au  tau(  52) = (   0.3541084   0.6133344   0.6129762  )
        53           Au  tau(  53) = (   0.4790780   0.3968269   0.6129968  )
        54           Au  tau(  54) = (   0.6040356   0.1803811   0.6129859  )
        55           Au  tau(  55) = (   0.7290165  -0.0361221   0.6129385  )
        56           Au  tau(  56) = (   0.1041243   0.6133091   0.6130023  )
        57           Au  tau(  57) = (   0.2290941   0.3968013   0.6130241  )
        58           Au  tau(  58) = (   0.3540515   0.1803552   0.6130121  )
        59           Au  tau(  59) = (   0.4790323  -0.0361475   0.6129659  )
        60           Au  tau(  60) = (  -0.1458030   0.6133014   0.6129980  )
        61           Au  tau(  61) = (  -0.0208339   0.3967936   0.6130189  )
        62           Au  tau(  62) = (   0.1041239   0.1803477   0.6130083  )
        63           Au  tau(  63) = (   0.2291046  -0.0361554   0.6129607  )
        64           Au  tau(  64) = (  -0.3957908   0.6132739   0.6129471  )
        65           Au  tau(  65) = (  -0.2708208   0.3967658   0.6129688  )
        66           Au  tau(  66) = (  -0.1458636   0.1803200   0.6129569  )
        67           Au  tau(  67) = (  -0.0208823  -0.0361826   0.6129110  )

     number of k points=    12  Marzari-Vanderbilt smearing, width (Ry)=  0.0200
                       cart. coord. in units 2pi/alat
        k(    1) = (   0.2500000   0.4330127   0.1111111), wk =   0.1666667
        k(    2) = (   0.2500000  -0.1443376   0.1111111), wk =   0.1666667
        k(    3) = (  -0.2500000  -0.4330127   0.1111111), wk =   0.1666667
        k(    4) = (  -0.2500000   0.4330127  -0.1111111), wk =   0.1666667
        k(    5) = (   0.2500000  -0.4330127  -0.1111111), wk =   0.1666667
        k(    6) = (   0.5000000   0.0000000   0.1111111), wk =   0.1666667
        k(    7) = (  -0.5000000   0.0000000   0.1111111), wk =   0.1666667
        k(    8) = (  -0.2500000   0.1443376   0.1111111), wk =   0.1666667
        k(    9) = (  -0.2500000  -0.1443376  -0.1111111), wk =   0.1666667
        k(   10) = (   0.2500000   0.1443376  -0.1111111), wk =   0.1666667
        k(   11) = (   0.0000000  -0.2886751   0.1111111), wk =   0.1666667
        k(   12) = (   0.0000000   0.2886751   0.1111111), wk =   0.1666667

     Dense  grid:  3097177 G-vectors     FFT dimensions: ( 150, 150, 360)

     Smooth grid:  1095093 G-vectors     FFT dimensions: ( 108, 108, 240)

     Largest allocated arrays     est. size (Mb)     dimensions
        Kohn-Sham Wavefunctions        28.01 Mb     (    4299,  427)
        NL pseudopotentials            55.23 Mb     (    4299,  842)
        Each V/rho on FFT grid          4.12 Mb     (  270000)
        Each G-vector array             0.74 Mb     (   96788)
        G-vector shells                 0.16 Mb     (   21404)
     Largest temporary arrays     est. size (Mb)     dimensions
        Auxiliary wavefunctions       112.04 Mb     (    4299, 1708)
        Each subspace H/S matrix       44.51 Mb     (    1708, 1708)
        Each <psi_i|beta_j> matrix      5.49 Mb     (     842,  427)
        Arrays for rho mixing          32.96 Mb     (  270000,    8)

     Initial potential from superposition of free atoms
     Check: negative starting charge=   -1.730262

     starting charge  711.25682, renormalised to  712.00000

     negative rho (up, down):  1.732E+00 0.000E+00


     ************************************************************************
     *
     * You are using vdW-DF for exchange-correlation in this calculation.
     * Please cite the following three references that made this development
     * possible:
     *
     *   M. Dion, H. Rydberg, E. Schroder, D. C. Langreth, and
     *   B. I. Lundqvist, Phys. Rev. Lett. 92, 246401 (2004).
     *
     *   T. Thonhauser, V. R. Cooper, S. Li, A. Puzder, P. Hyldgaard, and
     *   D. C. Langreth, Phys. Rev. B 76, 125112 (2007).
     *
     *   G. Roman-Perez and J. M. Soler, Phys. Rev. Lett. 103, 096102 (2009).
     *
     *
     * If you are using vdW-DF2, please also cite:
     *
     *   K. Lee, E. D. Murray, L. Kong, B. I. Lundqvist, and
     *   D. C. Langreth, Phys. Rev. B 82, 081101(R) (2010).
     *
     *
     * If you are calculating the stress with vdW-DF, please also cite:
     *
     *   R. Sabatini, E. Kucukbenli, B. Kolb, T. Thonhauser, and
     *   S. de Gironcoli, J. Phys.: Condens. Matter 24, 424209 (2012).
     *
     ************************************************************************

     Carrying out vdW-DF run using the following parameters:

     Nqs =      20    Nr_points =    1024   r_max =   100.000
     q_mesh =
               0.00001000     0.04494208     0.09755937     0.15916263
               0.23128650     0.31572767     0.41458969     0.53033537
               0.66584808     0.82450364     1.01025438     1.22772762
               1.48234092     1.78043706     2.12944203     2.53805004
               3.01644009     3.57652955     4.23227104     5.00000000

     Gradients computed in reciprocal space

     ************************************************************************


     Starting wfc are  582 randomized atomic wfcs

     total cpu time spent up to now is      160.1 secs

     Self-consistent Calculation

     iteration #  1     ecut=    50.00 Ry     beta=0.70
     Davidson diagonalization with overlap
     ethr =  1.00E-02,  avg # of iterations =  3.0

     Threshold (ethr) on eigenvalues was too large:
     Diagonalizing with lowered threshold

     Davidson diagonalization with overlap
     ethr =  3.58E-04,  avg # of iterations =  5.0

     negative rho (up, down):  1.728E+00 0.000E+00

     total cpu time spent up to now is      783.3 secs

     total energy              =   -6602.74248519 Ry
     Harris-Foulkes estimate   =   -6605.04946825 Ry
     estimated scf accuracy    <       2.88468123 Ry

     iteration #  2     ecut=    50.00 Ry     beta=0.70
     Davidson diagonalization with overlap
     ethr =  4.05E-04,  avg # of iterations = 11.2

     negative rho (up, down):  1.725E+00 0.000E+00

     total cpu time spent up to now is     1767.8 secs

     total energy              =   -6595.64317027 Ry
     Harris-Foulkes estimate   =   -6610.45443678 Ry
     estimated scf accuracy    <      86.98660916 Ry

     iteration #  3     ecut=    50.00 Ry     beta=0.70
     Davidson diagonalization with overlap
     ethr =  4.05E-04,  avg # of iterations =  6.0

     negative rho (up, down):  1.732E+00 0.000E+00

     total cpu time spent up to now is     2399.0 secs

     total energy              =   -6602.88037982 Ry
     Harris-Foulkes estimate   =   -6605.06758690 Ry
     estimated scf accuracy    <      11.09013417 Ry

     iteration #  4     ecut=    50.00 Ry     beta=0.70
     Davidson diagonalization with overlap
     ethr =  4.05E-04,  avg # of iterations =  7.3

     negative rho (up, down):  1.736E+00 0.000E+00

     total cpu time spent up to now is     2803.6 secs

     total energy              =   -6602.91827384 Ry
     Harris-Foulkes estimate   =   -6605.65976395 Ry
     estimated scf accuracy    <      30.77917982 Ry

     iteration #  5     ecut=    50.00 Ry     beta=0.70
     Davidson diagonalization with overlap
     ethr =  4.05E-04,  avg # of iterations =  6.8

     negative rho (up, down):  1.746E+00 0.000E+00

     total cpu time spent up to now is     3211.0 secs

     total energy              =   -6604.35205190 Ry
     Harris-Foulkes estimate   =   -6604.58345830 Ry
     estimated scf accuracy    <       1.18493670 Ry

     iteration #  6     ecut=    50.00 Ry     beta=0.70
     Davidson diagonalization with overlap
     ethr =  1.66E-04,  avg # of iterations =  3.5

     negative rho (up, down):  1.750E+00 0.000E+00

     total cpu time spent up to now is     3502.0 secs

     total energy              =   -6604.40839474 Ry
     Harris-Foulkes estimate   =   -6604.47287453 Ry
     estimated scf accuracy    <       0.20718734 Ry

     iteration #  7     ecut=    50.00 Ry     beta=0.70
     Davidson diagonalization with overlap
     ethr =  2.91E-05,  avg # of iterations =  9.7

     negative rho (up, down):  1.753E+00 0.000E+00

     total cpu time spent up to now is     3925.2 secs

     total energy              =   -6604.42493299 Ry
     Harris-Foulkes estimate   =   -6604.45098565 Ry
     estimated scf accuracy    <       0.10649397 Ry

     iteration #  8     ecut=    50.00 Ry     beta=0.70
     Davidson diagonalization with overlap
     ethr =  1.50E-05,  avg # of iterations =  7.3

     negative rho (up, down):  1.754E+00 0.000E+00

     total cpu time spent up to now is     4302.4 secs

     total energy              =   -6604.42682492 Ry
     Harris-Foulkes estimate   =   -6604.44191243 Ry
     estimated scf accuracy    <       0.05234131 Ry

     iteration #  9     ecut=    50.00 Ry     beta=0.70
     Davidson diagonalization with overlap
     ethr =  7.35E-06,  avg # of iterations = 11.1

     negative rho (up, down):  1.755E+00 0.000E+00

     total cpu time spent up to now is     4737.1 secs

     total energy              =   -6604.42949944 Ry
     Harris-Foulkes estimate   =   -6604.43505478 Ry
     estimated scf accuracy    <       0.01600216 Ry

     iteration # 10     ecut=    50.00 Ry     beta=0.70
     Davidson diagonalization with overlap
     ethr =  2.25E-06,  avg # of iterations =  9.4

     negative rho (up, down):  1.756E+00 0.000E+00

     total cpu time spent up to now is     5174.5 secs

     total energy              =   -6604.43104042 Ry
     Harris-Foulkes estimate   =   -6604.43266556 Ry
     estimated scf accuracy    <       0.00590873 Ry

     iteration # 11     ecut=    50.00 Ry     beta=0.70
     Davidson diagonalization with overlap
     ethr =  8.30E-07,  avg # of iterations =  6.8

     negative rho (up, down):  1.757E+00 0.000E+00

     total cpu time spent up to now is     5544.6 secs

     total energy              =   -6604.43149284 Ry
     Harris-Foulkes estimate   =   -6604.43210633 Ry
     estimated scf accuracy    <       0.00285304 Ry

     iteration # 12     ecut=    50.00 Ry     beta=0.70
     Davidson diagonalization with overlap
     ethr =  4.01E-07,  avg # of iterations =  3.0

     negative rho (up, down):  1.757E+00 0.000E+00

     total cpu time spent up to now is     5846.3 secs

     total energy              =   -6604.43160261 Ry
     Harris-Foulkes estimate   =   -6604.43182102 Ry
     estimated scf accuracy    <       0.00049144 Ry

     iteration # 13     ecut=    50.00 Ry     beta=0.70
     Davidson diagonalization with overlap
     ethr =  6.90E-08,  avg # of iterations =  7.3

     negative rho (up, down):  1.757E+00 0.000E+00

     total cpu time spent up to now is     6248.3 secs

     total energy              =   -6604.43163839 Ry
     Harris-Foulkes estimate   =   -6604.43174758 Ry
     estimated scf accuracy    <       0.00038689 Ry

     iteration # 14     ecut=    50.00 Ry     beta=0.70
     Davidson diagonalization with overlap
     ethr =  5.43E-08,  avg # of iterations =  2.0

     negative rho (up, down):  1.757E+00 0.000E+00

     total cpu time spent up to now is     6520.7 secs

     total energy              =   -6604.43167805 Ry
     Harris-Foulkes estimate   =   -6604.43171455 Ry
     estimated scf accuracy    <       0.00019260 Ry

     iteration # 15     ecut=    50.00 Ry     beta=0.70
     Davidson diagonalization with overlap
     ethr =  2.70E-08,  avg # of iterations =  1.8

     negative rho (up, down):  1.757E+00 0.000E+00

     total cpu time spent up to now is     6783.5 secs

     total energy              =   -6604.43169664 Ry
     Harris-Foulkes estimate   =   -6604.43170592 Ry
     estimated scf accuracy    <       0.00006155 Ry

     iteration # 16     ecut=    50.00 Ry     beta=0.70
     Davidson diagonalization with overlap
     ethr =  8.64E-09,  avg # of iterations =  2.0

     negative rho (up, down):  1.757E+00 0.000E+00

     total cpu time spent up to now is     7055.6 secs

     total energy              =   -6604.43169867 Ry
     Harris-Foulkes estimate   =   -6604.43170458 Ry
     estimated scf accuracy    <       0.00002967 Ry

     iteration # 17     ecut=    50.00 Ry     beta=0.70
     Davidson diagonalization with overlap
     ethr =  4.17E-09,  avg # of iterations =  1.8

     negative rho (up, down):  1.757E+00 0.000E+00

     total cpu time spent up to now is     7318.3 secs

     total energy              =   -6604.43170108 Ry
     Harris-Foulkes estimate   =   -6604.43170260 Ry
     estimated scf accuracy    <       0.00000682 Ry

     iteration # 18     ecut=    50.00 Ry     beta=0.70
     Davidson diagonalization with overlap
     ethr =  9.57E-10,  avg # of iterations =  2.0

     negative rho (up, down):  1.757E+00 0.000E+00

     total cpu time spent up to now is     7599.1 secs

     total energy              =   -6604.43170180 Ry
     Harris-Foulkes estimate   =   -6604.43170223 Ry
     estimated scf accuracy    <       0.00000193 Ry

     iteration # 19     ecut=    50.00 Ry     beta=0.70
     Davidson diagonalization with overlap
     ethr =  2.71E-10,  avg # of iterations =  3.0

     negative rho (up, down):  1.757E+00 0.000E+00

     total cpu time spent up to now is     7877.6 secs

     total energy              =   -6604.43170207 Ry
     Harris-Foulkes estimate   =   -6604.43170210 Ry
     estimated scf accuracy    <       0.00000025 Ry

     iteration # 20     ecut=    50.00 Ry     beta=0.70
     Davidson diagonalization with overlap
     ethr =  3.58E-11,  avg # of iterations =  2.1

     negative rho (up, down):  1.757E+00 0.000E+00

     total cpu time spent up to now is     8177.9 secs

     total energy              =   -6604.43170216 Ry
     Harris-Foulkes estimate   =   -6604.43170214 Ry
     estimated scf accuracy    <       0.00000010 Ry

     iteration # 21     ecut=    50.00 Ry     beta=0.70
     Davidson diagonalization with overlap
     ethr =  1.42E-11,  avg # of iterations =  2.0

     negative rho (up, down):  1.757E+00 0.000E+00

     total cpu time spent up to now is     8459.6 secs

     total energy              =   -6604.43170220 Ry
     Harris-Foulkes estimate   =   -6604.43170219 Ry
     estimated scf accuracy    <       0.00000005 Ry

     iteration # 22     ecut=    50.00 Ry     beta=0.70
     Davidson diagonalization with overlap
     ethr =  7.19E-12,  avg # of iterations =  2.0

     negative rho (up, down):  1.757E+00 0.000E+00

     total cpu time spent up to now is     8728.6 secs

     End of self-consistent calculation

          k = 0.2500 0.4330 0.1111 (136853 PWs)   bands (ev):

   -19.6765  -7.4542  -6.1727  -5.7750  -5.7720  -5.1043  -4.7732  -4.7611
    -4.7451  -4.7229  -4.4209  -4.3605  -4.3439  -4.2618  -4.2563  -4.2439
    -4.2255  -4.1879  -4.0939  -4.0903  -4.0678  -4.0262  -4.0260  -3.9577
    -3.9568  -3.9523  -3.9361  -3.9292  -3.9239  -3.9213  -3.8535  -3.8474
    -3.8216  -3.8196  -3.8091  -3.8056  -3.7856  -3.7826  -3.7617  -3.7546
    -3.7533  -3.7234  -3.6760  -3.6747  -3.6270  -3.6266  -3.5708  -3.5678
    -3.5149  -3.5135  -3.5132  -3.5078  -3.4772  -3.4421  -3.4402  -3.4324
    -3.4308  -3.4306  -3.4017  -3.3977  -3.3930  -3.3321  -3.3313  -3.3230
    -3.3026  -3.2956  -3.2250  -3.2213  -3.1934  -3.1913  -3.1637  -3.1630
    -3.1486  -3.1301  -3.0745  -3.0718  -3.0558  -3.0537  -3.0064  -3.0001
    -2.9989  -2.9596  -2.9316  -2.9297  -2.9200  -2.9175  -2.9081  -2.9060
    -2.9007  -2.8997  -2.8890  -2.8473  -2.8097  -2.8082  -2.7962  -2.7958
    -2.7687  -2.7611  -2.7601  -2.7343  -2.6926  -2.6905  -2.6851  -2.6456
    -2.6367  -2.6264  -2.6244  -2.6018  -2.5969  -2.5663  -2.5328  -2.5311
    -2.5095  -2.4999  -2.4877  -2.4870  -2.4379  -2.4360  -2.4041  -2.3809
    -2.3801  -2.3602  -2.3556  -2.3459  -2.3435  -2.3340  -2.3156  -2.3131
    -2.2662  -2.2658  -2.2650  -2.2494  -2.2489  -2.2412  -2.2359  -2.2339
    -2.2329  -2.2310  -2.2233  -2.2133  -2.2129  -2.2095  -2.1866  -2.1758
    -2.1746  -2.1742  -2.1731  -2.1703  -2.1674  -2.1482  -2.1399  -2.1301
    -2.1255  -2.1060  -2.1049  -2.1005  -2.0964  -2.0954  -2.0943  -2.0801
    -2.0749  -2.0745  -2.0700  -2.0545  -2.0313  -2.0263  -1.9875  -1.9869
    -1.9647  -1.9637  -1.9399  -1.9363  -1.9270  -1.9083  -1.8993  -1.8863
    -1.8682  -1.8584  -1.8391  -1.8336  -1.8305  -1.8292  -1.8246  -1.8198
    -1.7940  -1.7855  -1.7778  -1.7469  -1.7221  -1.7174  -1.7152  -1.7101
    -1.6826  -1.6677  -1.6567  -1.6557  -1.6280  -1.6229  -1.5704  -1.5693
    -1.5374  -1.5202  -1.5141  -1.4606  -1.4573  -1.4481  -1.4461  -1.4374
    -1.4361  -1.4312  -1.4237  -1.4206  -1.3665  -1.3634  -1.3567  -1.3548
    -1.3494  -1.3369  -1.3211  -1.3019  -1.2973  -1.2836  -1.2827  -1.2783
    -1.2748  -1.2677  -1.2625  -1.2582  -1.2409  -1.2397  -1.2000  -1.1956
    -1.1891  -1.1804  -1.1632  -1.1526  -1.1130  -1.1082  -1.0844  -1.0813
    -1.0790  -1.0492  -0.9999  -0.9981  -0.9963  -0.9946  -0.9909  -0.9868
    -0.9791  -0.9621  -0.9607  -0.9236  -0.9212  -0.8921  -0.8916  -0.8843
    -0.8828  -0.8797  -0.8618  -0.8612  -0.8594  -0.8572  -0.8545  -0.8213
    -0.8169  -0.8160  -0.8144  -0.7875  -0.7833  -0.7808  -0.7587  -0.7498
    -0.7456  -0.7034  -0.6966  -0.6915  -0.6612  -0.6527  -0.6432  -0.6421
    -0.6369  -0.6347  -0.6319  -0.6275  -0.6202  -0.6120  -0.5951  -0.5933
    -0.5899  -0.5885  -0.5839  -0.5506  -0.5503  -0.5401  -0.5384  -0.5230
    -0.5174  -0.5095  -0.5026  -0.4487  -0.4471  -0.4394  -0.4387  -0.4362
    -0.4359  -0.4287  -0.4129  -0.4077  -0.4038  -0.4027  -0.4010  -0.3893
    -0.3607  -0.3598  -0.3583  -0.3508  -0.3487  -0.3446  -0.3434  -0.3311
    -0.3257  -0.3240  -0.3009  -0.2816  -0.2799  -0.2731  -0.2689  -0.2648
    -0.1928  -0.1911  -0.1888  -0.1862  -0.1795  -0.1741  -0.1424  -0.1306
    -0.1297  -0.1043  -0.0981  -0.0650   0.0223   0.0269   0.1257   0.5422
     0.5426   0.5449   0.5457   0.6027   0.6247   0.9945   0.9947   1.0363
     1.0369   1.1466   1.2310   1.3329   1.3526   1.5495   1.5875   2.1896
     2.1987   2.3489   2.3617   2.4790   2.5056   2.5913   2.5914   2.7456
     2.9721   2.9832   3.1098   3.3243   3.3433   3.4124   3.4154   3.5133
     3.5305   3.7053   3.7073   3.7855   3.9874   3.9881   4.0458   4.0548
     4.3057   4.3065   4.3297   4.5573   4.5947   4.6033   4.6469   4.9680
     4.9781   4.9841   5.0181   5.1496   5.3176   5.3186   5.3525   5.4192
     5.6756   5.9409   6.0618   6.1006   6.1047   6.1243   6.1747   6.1787
     6.2155   6.2810   6.3093   6.3312   6.3347   6.3390   6.3466   6.3877
     6.3984   6.4556   6.5139   6.5650   6.6906   6.7734   6.8918   6.9871
     7.0365   7.0414   7.0596

          k = 0.2500-0.1443 0.1111 (136898 PWs)   bands (ev):

   -19.6764  -7.4542  -6.3826  -5.5910  -5.3066  -5.2419  -5.2398  -4.7087
    -4.7012  -4.6014  -4.5690  -4.4613  -4.4045  -4.3658  -4.3188  -4.2898
    -4.2609  -4.2540  -4.2136  -4.1251  -4.0837  -4.0831  -4.0216  -4.0041
    -3.9873  -3.9005  -3.8988  -3.8642  -3.8638  -3.8589  -3.8368  -3.8152
    -3.8126  -3.7117  -3.7085  -3.7061  -3.6876  -3.6711  -3.6674  -3.6591
    -3.6570  -3.6461  -3.6155  -3.6146  -3.6145  -3.6121  -3.5834  -3.5826
    -3.5643  -3.5624  -3.5525  -3.5105  -3.5077  -3.4749  -3.4631  -3.4588
    -3.4553  -3.4538  -3.3812  -3.3799  -3.3482  -3.3448  -3.3383  -3.2756
    -3.2751  -3.2606  -3.2550  -3.2307  -3.2302  -3.2292  -3.2253  -3.0749
    -3.0722  -3.0513  -3.0509  -3.0462  -3.0282  -3.0262  -3.0031  -3.0011
    -2.9524  -2.9508  -2.9363  -2.9357  -2.9147  -2.8689  -2.8677  -2.8489
    -2.8432  -2.8412  -2.8024  -2.8016  -2.7938  -2.7920  -2.7791  -2.7758
    -2.7392  -2.7383  -2.7173  -2.7171  -2.7138  -2.7114  -2.7076  -2.6355
    -2.6346  -2.6301  -2.6025  -2.5988  -2.5425  -2.5420  -2.5136  -2.5110
    -2.4989  -2.4976  -2.4908  -2.4639  -2.4630  -2.4519  -2.4367  -2.4164
    -2.4114  -2.4095  -2.3909  -2.3898  -2.3802  -2.3787  -2.3759  -2.3740
    -2.3641  -2.3183  -2.2882  -2.2879  -2.2718  -2.2583  -2.2521  -2.2511
    -2.2442  -2.2433  -2.2410  -2.2141  -2.2122  -2.2105  -2.2018  -2.1998
    -2.1864  -2.1616  -2.1584  -2.1575  -2.1562  -2.1521  -2.1090  -2.0822
    -2.0785  -2.0770  -2.0721  -2.0613  -2.0542  -2.0516  -2.0323  -2.0322
    -2.0057  -2.0011  -1.9984  -1.9877  -1.9805  -1.9795  -1.9637  -1.9470
    -1.9150  -1.9065  -1.9006  -1.8959  -1.8942  -1.8933  -1.8885  -1.8876
    -1.8850  -1.8804  -1.8797  -1.8656  -1.8626  -1.8043  -1.7366  -1.7304
    -1.7000  -1.6974  -1.6887  -1.6879  -1.6845  -1.6724  -1.6712  -1.6700
    -1.6635  -1.6482  -1.6425  -1.6400  -1.6315  -1.6249  -1.6236  -1.6019
    -1.6005  -1.5902  -1.5721  -1.5715  -1.5426  -1.5297  -1.5276  -1.5087
    -1.5035  -1.4996  -1.4963  -1.4826  -1.4686  -1.4671  -1.4619  -1.4585
    -1.4357  -1.4306  -1.4199  -1.4138  -1.3878  -1.3797  -1.3661  -1.3264
    -1.3239  -1.3131  -1.3078  -1.2936  -1.2845  -1.2816  -1.2510  -1.2506
    -1.2455  -1.2112  -1.2074  -1.2011  -1.1887  -1.1864  -1.1633  -1.1612
    -1.1514  -1.1305  -1.1297  -1.1279  -1.0663  -1.0658  -1.0549  -1.0531
    -1.0372  -1.0354  -1.0251  -1.0190  -1.0053  -0.9929  -0.9647  -0.9633
    -0.9510  -0.9217  -0.9159  -0.9112  -0.9018  -0.9017  -0.9007  -0.8981
    -0.8876  -0.8798  -0.8533  -0.8514  -0.8438  -0.8398  -0.8393  -0.8219
    -0.8169  -0.7998  -0.7878  -0.7765  -0.7597  -0.6825  -0.6694  -0.6637
    -0.6631  -0.6577  -0.6549  -0.6471  -0.6296  -0.6243  -0.6146  -0.6087
    -0.5989  -0.5931  -0.5906  -0.5705  -0.5689  -0.5588  -0.5585  -0.4842
    -0.4837  -0.4541  -0.4464  -0.4460  -0.4418  -0.4376  -0.4370  -0.4339
    -0.4267  -0.4189  -0.3979  -0.3814  -0.3654  -0.3500  -0.3481  -0.3390
    -0.3344  -0.3265  -0.3249  -0.3229  -0.3226  -0.3126  -0.3053  -0.3011
    -0.2908  -0.2700  -0.2684  -0.2606  -0.2544  -0.2494  -0.2352  -0.2042
    -0.2005  -0.1948  -0.1875  -0.1260  -0.1225  -0.0901  -0.0900  -0.0319
    -0.0316  -0.0310  -0.0048  -0.0048   0.2148   0.2510   0.5704   0.5709
     0.6528   0.6820   0.8508   0.8866   0.8996   1.0150   1.0230   1.4506
     1.4511   1.4685   1.7286   1.7605   1.7613   2.0230   2.0542   2.1138
     2.1163   2.1356   2.1657   2.3707   2.3723   2.4616   2.4630   2.5194
     2.5877   2.6275   2.7673   2.8669   3.2983   3.3019   3.3024   3.3225
     3.3580   3.3647   3.6539   3.6557   3.9254   3.9477   4.0147   4.3512
     4.3854   4.4008   4.5718   4.5791   4.6890   4.6995   4.7782   4.8981
     4.9127   5.0015   5.0181   5.0381   5.3224   5.3820   5.4049   5.5048
     5.5703   5.7698   5.7770   5.7907   5.8069   5.8107   5.8624   5.8650
     5.9397   6.0328   6.1316   6.2677   6.4445   6.4722   6.6026   6.6106
     6.6142   6.6189   6.6603   6.7486   6.7982   6.8597   6.8715   6.9929
     7.0228   7.0572   7.0677

          k =-0.2500-0.4330 0.1111 (136853 PWs)   bands (ev):

   -19.6765  -7.4542  -6.1727  -5.7750  -5.7720  -5.1043  -4.7732  -4.7611
    -4.7451  -4.7229  -4.4209  -4.3605  -4.3439  -4.2618  -4.2563  -4.2439
    -4.2255  -4.1879  -4.0939  -4.0903  -4.0678  -4.0262  -4.0260  -3.9577
    -3.9568  -3.9523  -3.9361  -3.9292  -3.9239  -3.9213  -3.8535  -3.8474
    -3.8216  -3.8196  -3.8091  -3.8056  -3.7856  -3.7826  -3.7617  -3.7546
    -3.7533  -3.7234  -3.6760  -3.6747  -3.6270  -3.6266  -3.5708  -3.5678
    -3.5149  -3.5135  -3.5132  -3.5078  -3.4772  -3.4421  -3.4402  -3.4324
    -3.4308  -3.4306  -3.4017  -3.3977  -3.3930  -3.3321  -3.3313  -3.3230
    -3.3026  -3.2956  -3.2250  -3.2213  -3.1934  -3.1913  -3.1637  -3.1630
    -3.1486  -3.1301  -3.0745  -3.0718  -3.0558  -3.0537  -3.0064  -3.0001
    -2.9989  -2.9596  -2.9316  -2.9297  -2.9200  -2.9175  -2.9081  -2.9060
    -2.9007  -2.8997  -2.8890  -2.8473  -2.8097  -2.8082  -2.7962  -2.7958
    -2.7687  -2.7611  -2.7601  -2.7343  -2.6926  -2.6905  -2.6851  -2.6456
    -2.6367  -2.6264  -2.6244  -2.6018  -2.5969  -2.5663  -2.5328  -2.5311
    -2.5095  -2.4999  -2.4877  -2.4870  -2.4379  -2.4360  -2.4041  -2.3809
    -2.3801  -2.3602  -2.3556  -2.3459  -2.3435  -2.3340  -2.3156  -2.3131
    -2.2662  -2.2658  -2.2650  -2.2494  -2.2489  -2.2412  -2.2359  -2.2339
    -2.2329  -2.2310  -2.2233  -2.2133  -2.2129  -2.2095  -2.1866  -2.1758
    -2.1746  -2.1742  -2.1731  -2.1703  -2.1674  -2.1482  -2.1399  -2.1301
    -2.1255  -2.1060  -2.1049  -2.1005  -2.0964  -2.0954  -2.0943  -2.0801
    -2.0749  -2.0745  -2.0700  -2.0545  -2.0313  -2.0263  -1.9875  -1.9869
    -1.9647  -1.9637  -1.9399  -1.9363  -1.9270  -1.9083  -1.8993  -1.8863
    -1.8682  -1.8584  -1.8391  -1.8336  -1.8305  -1.8292  -1.8246  -1.8198
    -1.7940  -1.7855  -1.7778  -1.7469  -1.7221  -1.7174  -1.7152  -1.7101
    -1.6826  -1.6677  -1.6567  -1.6557  -1.6280  -1.6229  -1.5704  -1.5693
    -1.5374  -1.5202  -1.5141  -1.4606  -1.4573  -1.4481  -1.4461  -1.4374
    -1.4361  -1.4312  -1.4237  -1.4206  -1.3665  -1.3634  -1.3567  -1.3548
    -1.3494  -1.3369  -1.3211  -1.3019  -1.2973  -1.2836  -1.2827  -1.2783
    -1.2748  -1.2677  -1.2625  -1.2581  -1.2409  -1.2397  -1.2000  -1.1956
    -1.1891  -1.1804  -1.1632  -1.1526  -1.1130  -1.1082  -1.0844  -1.0813
    -1.0790  -1.0492  -0.9999  -0.9981  -0.9963  -0.9946  -0.9909  -0.9868
    -0.9791  -0.9621  -0.9607  -0.9236  -0.9212  -0.8921  -0.8916  -0.8843
    -0.8828  -0.8797  -0.8618  -0.8612  -0.8594  -0.8572  -0.8545  -0.8213
    -0.8169  -0.8160  -0.8144  -0.7875  -0.7833  -0.7808  -0.7587  -0.7498
    -0.7456  -0.7034  -0.6966  -0.6915  -0.6612  -0.6527  -0.6432  -0.6421
    -0.6369  -0.6347  -0.6319  -0.6275  -0.6202  -0.6120  -0.5951  -0.5933
    -0.5899  -0.5885  -0.5839  -0.5506  -0.5503  -0.5401  -0.5384  -0.5230
    -0.5174  -0.5095  -0.5026  -0.4487  -0.4471  -0.4394  -0.4387  -0.4362
    -0.4359  -0.4287  -0.4129  -0.4077  -0.4038  -0.4027  -0.4010  -0.3893
    -0.3607  -0.3598  -0.3583  -0.3508  -0.3487  -0.3446  -0.3434  -0.3311
    -0.3257  -0.3240  -0.3009  -0.2816  -0.2799  -0.2731  -0.2689  -0.2648
    -0.1928  -0.1911  -0.1888  -0.1862  -0.1795  -0.1741  -0.1424  -0.1306
    -0.1297  -0.1043  -0.0981  -0.0650   0.0223   0.0269   0.1257   0.5422
     0.5426   0.5449   0.5456   0.6027   0.6247   0.9945   0.9947   1.0363
     1.0369   1.1466   1.2310   1.3329   1.3526   1.5495   1.5875   2.1896
     2.1987   2.3489   2.3617   2.4790   2.5056   2.5913   2.5914   2.7456
     2.9721   2.9832   3.1098   3.3243   3.3433   3.4124   3.4154   3.5133
     3.5305   3.7053   3.7073   3.7855   3.9874   3.9881   4.0458   4.0548
     4.3057   4.3065   4.3297   4.5573   4.5947   4.6033   4.6469   4.9681
     4.9781   4.9841   5.0181   5.1496   5.3176   5.3186   5.3525   5.4192
     5.6756   5.9409   6.0621   6.1006   6.1047   6.1244   6.1747   6.1787
     6.2154   6.2810   6.3092   6.3312   6.3347   6.3389   6.3466   6.3877
     6.3983   6.4552   6.5139   6.5639   6.6915   6.7735   6.8943   6.9874
     7.0365   7.0413   7.0596

          k =-0.2500 0.4330-0.1111 (136853 PWs)   bands (ev):

   -19.6764  -7.4542  -6.1727  -5.7754  -5.7716  -5.1044  -4.7733  -4.7608
    -4.7447  -4.7236  -4.4210  -4.3598  -4.3442  -4.2619  -4.2554  -4.2444
    -4.2255  -4.1883  -4.0947  -4.0896  -4.0678  -4.0264  -4.0259  -3.9578
    -3.9568  -3.9524  -3.9357  -3.9292  -3.9229  -3.9223  -3.8545  -3.8463
    -3.8214  -3.8193  -3.8091  -3.8055  -3.7857  -3.7826  -3.7617  -3.7547
    -3.7533  -3.7236  -3.6763  -3.6745  -3.6275  -3.6260  -3.5707  -3.5680
    -3.5153  -3.5136  -3.5131  -3.5078  -3.4774  -3.4421  -3.4406  -3.4324
    -3.4307  -3.4306  -3.4020  -3.3971  -3.3928  -3.3325  -3.3313  -3.3227
    -3.3025  -3.2954  -3.2250  -3.2212  -3.1927  -3.1915  -3.1639  -3.1629
    -3.1486  -3.1303  -3.0747  -3.0720  -3.0557  -3.0533  -3.0053  -3.0011
    -2.9987  -2.9596  -2.9308  -2.9296  -2.9202  -2.9169  -2.9088  -2.9063
    -2.9013  -2.8992  -2.8892  -2.8474  -2.8105  -2.8075  -2.7963  -2.7958
    -2.7690  -2.7609  -2.7599  -2.7343  -2.6929  -2.6901  -2.6846  -2.6456
    -2.6366  -2.6269  -2.6238  -2.5997  -2.5974  -2.5665  -2.5335  -2.5309
    -2.5096  -2.5000  -2.4893  -2.4873  -2.4376  -2.4359  -2.4037  -2.3821
    -2.3802  -2.3583  -2.3560  -2.3454  -2.3436  -2.3344  -2.3149  -2.3128
    -2.2665  -2.2657  -2.2651  -2.2499  -2.2484  -2.2413  -2.2363  -2.2335
    -2.2323  -2.2313  -2.2233  -2.2209  -2.2133  -2.2105  -2.1842  -2.1759
    -2.1746  -2.1738  -2.1720  -2.1700  -2.1669  -2.1453  -2.1399  -2.1282
    -2.1256  -2.1063  -2.1048  -2.1004  -2.0961  -2.0956  -2.0939  -2.0812
    -2.0759  -2.0746  -2.0691  -2.0548  -2.0315  -2.0266  -1.9884  -1.9860
    -1.9655  -1.9641  -1.9460  -1.9333  -1.9146  -1.9084  -1.8975  -1.8865
    -1.8741  -1.8565  -1.8407  -1.8349  -1.8318  -1.8264  -1.8220  -1.8190
    -1.7938  -1.7859  -1.7774  -1.7650  -1.7205  -1.7166  -1.7156  -1.7115
    -1.6943  -1.6575  -1.6559  -1.6491  -1.6276  -1.6158  -1.5702  -1.5690
    -1.5378  -1.5213  -1.5134  -1.4602  -1.4581  -1.4484  -1.4451  -1.4373
    -1.4356  -1.4313  -1.4244  -1.4202  -1.3693  -1.3625  -1.3561  -1.3543
    -1.3494  -1.3375  -1.3322  -1.3015  -1.2945  -1.2838  -1.2830  -1.2810
    -1.2744  -1.2676  -1.2624  -1.2516  -1.2406  -1.2385  -1.2026  -1.1930
    -1.1895  -1.1837  -1.1668  -1.1525  -1.1127  -1.1075  -1.0841  -1.0804
    -1.0757  -1.0496  -1.0004  -0.9980  -0.9975  -0.9953  -0.9915  -0.9846
    -0.9791  -0.9626  -0.9610  -0.9220  -0.9213  -0.8922  -0.8905  -0.8847
    -0.8833  -0.8786  -0.8619  -0.8615  -0.8596  -0.8571  -0.8550  -0.8228
    -0.8169  -0.8163  -0.8111  -0.7876  -0.7852  -0.7794  -0.7591  -0.7506
    -0.7445  -0.7041  -0.6979  -0.6910  -0.6612  -0.6536  -0.6426  -0.6421
    -0.6365  -0.6356  -0.6328  -0.6259  -0.6206  -0.6112  -0.5953  -0.5933
    -0.5898  -0.5890  -0.5837  -0.5506  -0.5502  -0.5434  -0.5367  -0.5222
    -0.5176  -0.5096  -0.5023  -0.4485  -0.4469  -0.4396  -0.4384  -0.4374
    -0.4354  -0.4282  -0.4134  -0.4077  -0.4032  -0.4024  -0.4013  -0.3894
    -0.3611  -0.3598  -0.3580  -0.3512  -0.3482  -0.3444  -0.3434  -0.3318
    -0.3254  -0.3243  -0.3002  -0.2823  -0.2793  -0.2733  -0.2690  -0.2646
    -0.1923  -0.1914  -0.1887  -0.1856  -0.1795  -0.1742  -0.1423  -0.1307
    -0.1297  -0.1064  -0.0979  -0.0627   0.0215   0.0293   0.1267   0.5419
     0.5425   0.5451   0.5459   0.5994   0.6270   0.9927   0.9947   1.0346
     1.0392   1.1483   1.2315   1.3306   1.3563   1.5461   1.5885   2.1867
     2.2010   2.3460   2.3661   2.4747   2.5099   2.5908   2.5919   2.7453
     2.9733   2.9828   3.1084   3.3221   3.3430   3.4114   3.4176   3.5116
     3.5308   3.6999   3.7097   3.7859   3.9872   3.9885   4.0435   4.0625
     4.3027   4.3057   4.3305   4.5579   4.5939   4.6036   4.6463   4.9688
     4.9793   5.0021   5.0164   5.1465   5.3175   5.3196   5.3319   5.4121
     5.7348   5.8824   6.0861   6.1003   6.1038   6.1281   6.1750   6.1798
     6.2200   6.2811   6.3108   6.3279   6.3325   6.3387   6.3460   6.3877
     6.3990   6.4419   6.4756   6.5925   6.6874   6.7392   6.9229   6.9747
     7.0347   7.0437   7.0594

          k = 0.2500-0.4330-0.1111 (136853 PWs)   bands (ev):

   -19.6764  -7.4542  -6.1727  -5.7754  -5.7716  -5.1044  -4.7733  -4.7608
    -4.7447  -4.7236  -4.4210  -4.3598  -4.3442  -4.2619  -4.2554  -4.2444
    -4.2255  -4.1883  -4.0947  -4.0896  -4.0678  -4.0264  -4.0259  -3.9578
    -3.9568  -3.9524  -3.9357  -3.9292  -3.9229  -3.9223  -3.8545  -3.8463
    -3.8214  -3.8193  -3.8091  -3.8055  -3.7857  -3.7826  -3.7617  -3.7547
    -3.7533  -3.7236  -3.6763  -3.6745  -3.6275  -3.6260  -3.5707  -3.5680
    -3.5153  -3.5136  -3.5131  -3.5078  -3.4774  -3.4421  -3.4406  -3.4324
    -3.4307  -3.4306  -3.4020  -3.3971  -3.3928  -3.3325  -3.3313  -3.3227
    -3.3025  -3.2954  -3.2250  -3.2212  -3.1927  -3.1915  -3.1639  -3.1629
    -3.1486  -3.1303  -3.0747  -3.0720  -3.0557  -3.0533  -3.0053  -3.0011
    -2.9987  -2.9596  -2.9308  -2.9296  -2.9202  -2.9169  -2.9088  -2.9063
    -2.9013  -2.8992  -2.8892  -2.8474  -2.8105  -2.8075  -2.7963  -2.7958
    -2.7690  -2.7609  -2.7599  -2.7343  -2.6929  -2.6901  -2.6846  -2.6456
    -2.6366  -2.6269  -2.6238  -2.5997  -2.5974  -2.5665  -2.5335  -2.5309
    -2.5096  -2.5000  -2.4893  -2.4873  -2.4376  -2.4359  -2.4037  -2.3821
    -2.3802  -2.3583  -2.3560  -2.3454  -2.3436  -2.3344  -2.3149  -2.3128
    -2.2665  -2.2657  -2.2651  -2.2499  -2.2484  -2.2413  -2.2363  -2.2335
    -2.2323  -2.2313  -2.2233  -2.2209  -2.2133  -2.2105  -2.1842  -2.1759
    -2.1746  -2.1738  -2.1720  -2.1700  -2.1669  -2.1453  -2.1399  -2.1282
    -2.1256  -2.1063  -2.1048  -2.1004  -2.0961  -2.0956  -2.0939  -2.0812
    -2.0759  -2.0746  -2.0691  -2.0548  -2.0315  -2.0266  -1.9884  -1.9860
    -1.9655  -1.9641  -1.9460  -1.9333  -1.9146  -1.9084  -1.8975  -1.8865
    -1.8741  -1.8565  -1.8407  -1.8349  -1.8318  -1.8264  -1.8220  -1.8190
    -1.7938  -1.7859  -1.7774  -1.7650  -1.7205  -1.7166  -1.7156  -1.7115
    -1.6943  -1.6575  -1.6559  -1.6491  -1.6276  -1.6158  -1.5702  -1.5690
    -1.5378  -1.5213  -1.5134  -1.4602  -1.4581  -1.4484  -1.4451  -1.4373
    -1.4356  -1.4313  -1.4244  -1.4202  -1.3693  -1.3625  -1.3561  -1.3543
    -1.3494  -1.3375  -1.3322  -1.3015  -1.2945  -1.2838  -1.2830  -1.2810
    -1.2744  -1.2676  -1.2624  -1.2516  -1.2406  -1.2385  -1.2026  -1.1930
    -1.1895  -1.1837  -1.1668  -1.1525  -1.1127  -1.1075  -1.0841  -1.0804
    -1.0757  -1.0496  -1.0004  -0.9980  -0.9975  -0.9953  -0.9915  -0.9846
    -0.9791  -0.9626  -0.9610  -0.9220  -0.9213  -0.8922  -0.8905  -0.8847
    -0.8833  -0.8786  -0.8619  -0.8615  -0.8596  -0.8571  -0.8550  -0.8228
    -0.8169  -0.8163  -0.8111  -0.7875  -0.7852  -0.7794  -0.7591  -0.7506
    -0.7445  -0.7041  -0.6979  -0.6910  -0.6612  -0.6536  -0.6426  -0.6421
    -0.6365  -0.6356  -0.6328  -0.6259  -0.6206  -0.6112  -0.5953  -0.5933
    -0.5898  -0.5890  -0.5837  -0.5506  -0.5502  -0.5434  -0.5367  -0.5222
    -0.5176  -0.5096  -0.5023  -0.4485  -0.4469  -0.4396  -0.4384  -0.4374
    -0.4354  -0.4282  -0.4134  -0.4077  -0.4032  -0.4024  -0.4013  -0.3894
    -0.3611  -0.3598  -0.3580  -0.3512  -0.3482  -0.3444  -0.3434  -0.3318
    -0.3254  -0.3243  -0.3002  -0.2823  -0.2793  -0.2733  -0.2690  -0.2646
    -0.1923  -0.1914  -0.1887  -0.1856  -0.1795  -0.1742  -0.1423  -0.1307
    -0.1297  -0.1064  -0.0979  -0.0627   0.0215   0.0293   0.1267   0.5419
     0.5425   0.5450   0.5459   0.5994   0.6270   0.9927   0.9947   1.0346
     1.0392   1.1483   1.2315   1.3306   1.3563   1.5461   1.5885   2.1867
     2.2010   2.3460   2.3661   2.4747   2.5099   2.5908   2.5919   2.7453
     2.9733   2.9828   3.1084   3.3221   3.3430   3.4114   3.4176   3.5116
     3.5308   3.6999   3.7097   3.7859   3.9872   3.9885   4.0435   4.0625
     4.3028   4.3057   4.3305   4.5579   4.5939   4.6036   4.6463   4.9688
     4.9793   5.0021   5.0164   5.1465   5.3175   5.3196   5.3319   5.4121
     5.7349   5.8823   6.0864   6.1004   6.1036   6.1277   6.1748   6.1798
     6.2198   6.2811   6.3109   6.3279   6.3324   6.3388   6.3460   6.3877
     6.3991   6.4415   6.4766   6.5934   6.6862   6.7391   6.9226   6.9744
     7.0343   7.0454   7.0577

          k = 0.5000 0.0000 0.1111 (136853 PWs)   bands (ev):

   -19.6764  -7.4542  -6.1727  -5.7762  -5.7708  -5.1043  -4.7733  -4.7619
    -4.7451  -4.7222  -4.4205  -4.3609  -4.3435  -4.2619  -4.2564  -4.2435
    -4.2255  -4.1885  -4.0939  -4.0904  -4.0677  -4.0262  -4.0261  -3.9578
    -3.9568  -3.9530  -3.9353  -3.9288  -3.9252  -3.9198  -3.8535  -3.8472
    -3.8223  -3.8185  -3.8093  -3.8053  -3.7857  -3.7826  -3.7616  -3.7545
    -3.7534  -3.7239  -3.6759  -3.6749  -3.6279  -3.6257  -3.5707  -3.5679
    -3.5149  -3.5133  -3.5132  -3.5084  -3.4773  -3.4421  -3.4407  -3.4323
    -3.4310  -3.4303  -3.4025  -3.3967  -3.3928  -3.3324  -3.3314  -3.3226
    -3.3026  -3.2952  -3.2255  -3.2207  -3.1931  -3.1910  -3.1638  -3.1631
    -3.1486  -3.1303  -3.0744  -3.0722  -3.0555  -3.0535  -3.0051  -3.0012
    -2.9987  -2.9595  -2.9306  -2.9296  -2.9191  -2.9180  -2.9094  -2.9058
    -2.9011  -2.8995  -2.8893  -2.8474  -2.8097  -2.8084  -2.7964  -2.7957
    -2.7690  -2.7606  -2.7602  -2.7344  -2.6917  -2.6911  -2.6844  -2.6456
    -2.6367  -2.6262  -2.6244  -2.5992  -2.5974  -2.5665  -2.5338  -2.5308
    -2.5096  -2.5001  -2.4898  -2.4872  -2.4373  -2.4361  -2.4037  -2.3823
    -2.3804  -2.3579  -2.3560  -2.3458  -2.3431  -2.3344  -2.3145  -2.3128
    -2.2665  -2.2658  -2.2651  -2.2499  -2.2484  -2.2412  -2.2363  -2.2337
    -2.2321  -2.2313  -2.2235  -2.2225  -2.2126  -2.2114  -2.1839  -2.1759
    -2.1747  -2.1738  -2.1719  -2.1696  -2.1670  -2.1446  -2.1399  -2.1277
    -2.1255  -2.1062  -2.1049  -2.1008  -2.0962  -2.0957  -2.0935  -2.0811
    -2.0752  -2.0746  -2.0698  -2.0548  -2.0313  -2.0269  -1.9884  -1.9859
    -1.9661  -1.9637  -1.9466  -1.9333  -1.9118  -1.9087  -1.8961  -1.8867
    -1.8759  -1.8563  -1.8411  -1.8353  -1.8318  -1.8265  -1.8215  -1.8177
    -1.7938  -1.7862  -1.7774  -1.7691  -1.7200  -1.7165  -1.7153  -1.7117
    -1.6955  -1.6576  -1.6558  -1.6474  -1.6278  -1.6134  -1.5702  -1.5689
    -1.5379  -1.5215  -1.5133  -1.4600  -1.4584  -1.4484  -1.4448  -1.4371
    -1.4354  -1.4313  -1.4242  -1.4207  -1.3697  -1.3627  -1.3565  -1.3539
    -1.3490  -1.3376  -1.3346  -1.3018  -1.2936  -1.2838  -1.2830  -1.2814
    -1.2743  -1.2676  -1.2621  -1.2505  -1.2414  -1.2373  -1.2033  -1.1922
    -1.1897  -1.1854  -1.1674  -1.1525  -1.1120  -1.1076  -1.0840  -1.0807
    -1.0747  -1.0496  -1.0005  -0.9984  -0.9974  -0.9952  -0.9912  -0.9843
    -0.9793  -0.9636  -0.9604  -0.9221  -0.9209  -0.8923  -0.8901  -0.8847
    -0.8835  -0.8782  -0.8619  -0.8614  -0.8595  -0.8573  -0.8555  -0.8230
    -0.8169  -0.8162  -0.8103  -0.7876  -0.7855  -0.7796  -0.7592  -0.7505
    -0.7445  -0.7042  -0.6984  -0.6908  -0.6612  -0.6538  -0.6425  -0.6421
    -0.6366  -0.6356  -0.6332  -0.6256  -0.6208  -0.6107  -0.5953  -0.5932
    -0.5898  -0.5893  -0.5834  -0.5508  -0.5500  -0.5441  -0.5365  -0.5221
    -0.5175  -0.5095  -0.5023  -0.4484  -0.4470  -0.4397  -0.4383  -0.4376
    -0.4352  -0.4283  -0.4136  -0.4076  -0.4031  -0.4023  -0.4013  -0.3895
    -0.3612  -0.3596  -0.3580  -0.3511  -0.3482  -0.3445  -0.3434  -0.3322
    -0.3252  -0.3242  -0.3000  -0.2823  -0.2795  -0.2733  -0.2692  -0.2646
    -0.1921  -0.1915  -0.1888  -0.1854  -0.1796  -0.1742  -0.1423  -0.1309
    -0.1296  -0.1061  -0.0978  -0.0627   0.0213   0.0298   0.1270   0.5419
     0.5424   0.5453   0.5457   0.5983   0.6278   0.9922   0.9948   1.0341
     1.0398   1.1486   1.2317   1.3311   1.3562   1.5460   1.5882   2.1856
     2.2018   2.3452   2.3672   2.4736   2.5110   2.5907   2.5920   2.7452
     2.9736   2.9827   3.1081   3.3225   3.3424   3.4107   3.4185   3.5112
     3.5308   3.6995   3.7095   3.7858   3.9874   3.9884   4.0421   4.0647
     4.3022   4.3055   4.3311   4.5578   4.5930   4.6047   4.6463   4.9690
     4.9785   5.0054   5.0166   5.1464   5.3170   5.3203   5.3269   5.4113
     5.7518   5.8663   6.0898   6.1000   6.1047   6.1286   6.1750   6.1800
     6.2221   6.2814   6.3116   6.3259   6.3327   6.3399   6.3443   6.3887
     6.3986   6.4314   6.4735   6.5968   6.6791   6.7470   6.9248   6.9724
     7.0340   7.0451   7.0586

          k =-0.5000 0.0000 0.1111 (136853 PWs)   bands (ev):

   -19.6764  -7.4542  -6.1727  -5.7762  -5.7708  -5.1043  -4.7733  -4.7619
    -4.7451  -4.7222  -4.4205  -4.3609  -4.3435  -4.2619  -4.2564  -4.2435
    -4.2255  -4.1885  -4.0939  -4.0904  -4.0677  -4.0262  -4.0261  -3.9578
    -3.9568  -3.9530  -3.9353  -3.9288  -3.9252  -3.9198  -3.8535  -3.8472
    -3.8223  -3.8185  -3.8093  -3.8053  -3.7857  -3.7826  -3.7616  -3.7545
    -3.7534  -3.7239  -3.6759  -3.6749  -3.6279  -3.6257  -3.5707  -3.5679
    -3.5149  -3.5133  -3.5132  -3.5084  -3.4773  -3.4421  -3.4407  -3.4323
    -3.4310  -3.4303  -3.4025  -3.3967  -3.3928  -3.3324  -3.3314  -3.3226
    -3.3026  -3.2952  -3.2255  -3.2207  -3.1931  -3.1910  -3.1638  -3.1631
    -3.1486  -3.1303  -3.0744  -3.0722  -3.0555  -3.0535  -3.0051  -3.0012
    -2.9987  -2.9595  -2.9306  -2.9296  -2.9191  -2.9180  -2.9094  -2.9058
    -2.9011  -2.8995  -2.8893  -2.8474  -2.8097  -2.8084  -2.7964  -2.7957
    -2.7690  -2.7606  -2.7602  -2.7344  -2.6917  -2.6911  -2.6844  -2.6456
    -2.6367  -2.6262  -2.6244  -2.5992  -2.5974  -2.5665  -2.5338  -2.5308
    -2.5096  -2.5001  -2.4898  -2.4872  -2.4373  -2.4361  -2.4037  -2.3823
    -2.3804  -2.3579  -2.3560  -2.3458  -2.3431  -2.3344  -2.3145  -2.3128
    -2.2665  -2.2658  -2.2651  -2.2499  -2.2484  -2.2412  -2.2363  -2.2337
    -2.2321  -2.2313  -2.2235  -2.2225  -2.2126  -2.2114  -2.1839  -2.1759
    -2.1747  -2.1738  -2.1719  -2.1696  -2.1670  -2.1446  -2.1399  -2.1277
    -2.1255  -2.1062  -2.1049  -2.1008  -2.0962  -2.0957  -2.0935  -2.0811
    -2.0752  -2.0746  -2.0698  -2.0548  -2.0313  -2.0269  -1.9884  -1.9859
    -1.9661  -1.9637  -1.9466  -1.9333  -1.9118  -1.9087  -1.8961  -1.8867
    -1.8759  -1.8563  -1.8411  -1.8353  -1.8318  -1.8265  -1.8215  -1.8177
    -1.7938  -1.7862  -1.7774  -1.7691  -1.7200  -1.7165  -1.7153  -1.7117
    -1.6955  -1.6576  -1.6558  -1.6474  -1.6278  -1.6134  -1.5702  -1.5689
    -1.5379  -1.5215  -1.5133  -1.4600  -1.4584  -1.4484  -1.4448  -1.4371
    -1.4354  -1.4313  -1.4242  -1.4207  -1.3697  -1.3627  -1.3565  -1.3539
    -1.3490  -1.3376  -1.3346  -1.3018  -1.2936  -1.2838  -1.2830  -1.2814
    -1.2743  -1.2676  -1.2621  -1.2505  -1.2414  -1.2373  -1.2033  -1.1922
    -1.1897  -1.1854  -1.1674  -1.1525  -1.1120  -1.1076  -1.0840  -1.0807
    -1.0747  -1.0496  -1.0005  -0.9984  -0.9974  -0.9952  -0.9912  -0.9843
    -0.9793  -0.9636  -0.9604  -0.9221  -0.9209  -0.8923  -0.8901  -0.8847
    -0.8835  -0.8782  -0.8619  -0.8614  -0.8595  -0.8573  -0.8555  -0.8230
    -0.8169  -0.8162  -0.8103  -0.7876  -0.7855  -0.7796  -0.7592  -0.7505
    -0.7445  -0.7042  -0.6984  -0.6908  -0.6612  -0.6538  -0.6425  -0.6421
    -0.6366  -0.6356  -0.6332  -0.6256  -0.6208  -0.6107  -0.5953  -0.5932
    -0.5898  -0.5893  -0.5834  -0.5508  -0.5500  -0.5441  -0.5365  -0.5221
    -0.5175  -0.5095  -0.5023  -0.4484  -0.4470  -0.4397  -0.4383  -0.4376
    -0.4352  -0.4283  -0.4136  -0.4076  -0.4031  -0.4023  -0.4013  -0.3895
    -0.3612  -0.3596  -0.3580  -0.3511  -0.3482  -0.3445  -0.3434  -0.3322
    -0.3252  -0.3242  -0.3000  -0.2823  -0.2795  -0.2733  -0.2692  -0.2646
    -0.1921  -0.1915  -0.1888  -0.1854  -0.1796  -0.1742  -0.1423  -0.1309
    -0.1296  -0.1061  -0.0978  -0.0627   0.0213   0.0298   0.1270   0.5419
     0.5424   0.5453   0.5457   0.5983   0.6278   0.9922   0.9948   1.0341
     1.0398   1.1486   1.2317   1.3311   1.3562   1.5460   1.5882   2.1856
     2.2018   2.3452   2.3672   2.4736   2.5110   2.5907   2.5920   2.7452
     2.9736   2.9827   3.1081   3.3225   3.3424   3.4107   3.4185   3.5112
     3.5308   3.6995   3.7095   3.7858   3.9874   3.9884   4.0421   4.0647
     4.3022   4.3055   4.3311   4.5578   4.5930   4.6047   4.6463   4.9690
     4.9785   5.0054   5.0166   5.1464   5.3170   5.3203   5.3269   5.4113
     5.7518   5.8663   6.0903   6.1000   6.1045   6.1284   6.1749   6.1800
     6.2221   6.2814   6.3117   6.3258   6.3326   6.3400   6.3443   6.3886
     6.3987   6.4307   6.4743   6.5960   6.6801   6.7466   6.9257   6.9722
     7.0339   7.0460   7.0571

          k =-0.2500 0.1443 0.1111 (136898 PWs)   bands (ev):

   -19.6764  -7.4542  -6.3826  -5.5910  -5.3066  -5.2419  -5.2398  -4.7087
    -4.7012  -4.6014  -4.5690  -4.4613  -4.4045  -4.3658  -4.3188  -4.2898
    -4.2609  -4.2541  -4.2136  -4.1251  -4.0837  -4.0831  -4.0216  -4.0041
    -3.9873  -3.9005  -3.8988  -3.8641  -3.8638  -3.8589  -3.8368  -3.8152
    -3.8126  -3.7117  -3.7085  -3.7061  -3.6876  -3.6711  -3.6674  -3.6591
    -3.6570  -3.6461  -3.6155  -3.6146  -3.6145  -3.6121  -3.5834  -3.5826
    -3.5643  -3.5624  -3.5525  -3.5105  -3.5077  -3.4749  -3.4631  -3.4588
    -3.4553  -3.4538  -3.3812  -3.3799  -3.3482  -3.3448  -3.3383  -3.2756
    -3.2751  -3.2606  -3.2550  -3.2307  -3.2302  -3.2292  -3.2253  -3.0749
    -3.0722  -3.0513  -3.0509  -3.0462  -3.0282  -3.0262  -3.0031  -3.0011
    -2.9524  -2.9508  -2.9363  -2.9357  -2.9147  -2.8689  -2.8677  -2.8489
    -2.8432  -2.8412  -2.8024  -2.8016  -2.7938  -2.7920  -2.7791  -2.7758
    -2.7392  -2.7383  -2.7173  -2.7171  -2.7138  -2.7114  -2.7076  -2.6355
    -2.6346  -2.6301  -2.6025  -2.5988  -2.5425  -2.5420  -2.5136  -2.5110
    -2.4989  -2.4976  -2.4908  -2.4639  -2.4630  -2.4519  -2.4367  -2.4164
    -2.4114  -2.4095  -2.3909  -2.3898  -2.3802  -2.3787  -2.3759  -2.3740
    -2.3641  -2.3183  -2.2882  -2.2879  -2.2718  -2.2583  -2.2522  -2.2511
    -2.2442  -2.2433  -2.2410  -2.2141  -2.2122  -2.2105  -2.2018  -2.1998
    -2.1864  -2.1616  -2.1584  -2.1575  -2.1562  -2.1521  -2.1090  -2.0822
    -2.0785  -2.0770  -2.0721  -2.0613  -2.0542  -2.0516  -2.0323  -2.0322
    -2.0057  -2.0011  -1.9984  -1.9877  -1.9805  -1.9795  -1.9637  -1.9470
    -1.9150  -1.9065  -1.9006  -1.8959  -1.8942  -1.8933  -1.8885  -1.8876
    -1.8850  -1.8804  -1.8797  -1.8656  -1.8626  -1.8043  -1.7366  -1.7304
    -1.7000  -1.6974  -1.6887  -1.6879  -1.6845  -1.6724  -1.6712  -1.6700
    -1.6634  -1.6482  -1.6425  -1.6400  -1.6315  -1.6249  -1.6236  -1.6019
    -1.6005  -1.5902  -1.5721  -1.5715  -1.5426  -1.5297  -1.5276  -1.5086
    -1.5035  -1.4996  -1.4963  -1.4826  -1.4686  -1.4671  -1.4619  -1.4585
    -1.4357  -1.4306  -1.4199  -1.4138  -1.3877  -1.3797  -1.3661  -1.3264
    -1.3239  -1.3131  -1.3078  -1.2936  -1.2845  -1.2816  -1.2510  -1.2506
    -1.2455  -1.2112  -1.2074  -1.2011  -1.1887  -1.1864  -1.1633  -1.1612
    -1.1514  -1.1305  -1.1297  -1.1279  -1.0663  -1.0658  -1.0549  -1.0531
    -1.0372  -1.0354  -1.0251  -1.0190  -1.0054  -0.9929  -0.9647  -0.9633
    -0.9510  -0.9217  -0.9159  -0.9112  -0.9018  -0.9017  -0.9007  -0.8981
    -0.8876  -0.8798  -0.8533  -0.8514  -0.8438  -0.8398  -0.8393  -0.8219
    -0.8169  -0.7998  -0.7879  -0.7765  -0.7597  -0.6825  -0.6694  -0.6637
    -0.6631  -0.6577  -0.6549  -0.6471  -0.6296  -0.6243  -0.6146  -0.6087
    -0.5989  -0.5931  -0.5906  -0.5705  -0.5689  -0.5588  -0.5585  -0.4843
    -0.4837  -0.4541  -0.4464  -0.4460  -0.4418  -0.4376  -0.4370  -0.4339
    -0.4267  -0.4190  -0.3979  -0.3814  -0.3654  -0.3500  -0.3481  -0.3390
    -0.3344  -0.3265  -0.3249  -0.3229  -0.3226  -0.3126  -0.3053  -0.3011
    -0.2908  -0.2700  -0.2684  -0.2606  -0.2544  -0.2494  -0.2352  -0.2042
    -0.2005  -0.1948  -0.1875  -0.1260  -0.1225  -0.0901  -0.0900  -0.0319
    -0.0316  -0.0310  -0.0048  -0.0048   0.2148   0.2510   0.5704   0.5709
     0.6528   0.6820   0.8508   0.8866   0.8996   1.0150   1.0230   1.4506
     1.4511   1.4685   1.7286   1.7605   1.7613   2.0230   2.0542   2.1138
     2.1163   2.1356   2.1657   2.3707   2.3723   2.4616   2.4630   2.5194
     2.5877   2.6275   2.7673   2.8669   3.2983   3.3019   3.3024   3.3225
     3.3580   3.3647   3.6539   3.6557   3.9254   3.9477   4.0147   4.3512
     4.3854   4.4008   4.5718   4.5791   4.6890   4.6995   4.7782   4.8981
     4.9127   5.0015   5.0181   5.0381   5.3224   5.3820   5.4049   5.5048
     5.5703   5.7697   5.7770   5.7908   5.8069   5.8108   5.8624   5.8651
     5.9394   6.0324   6.1321   6.2678   6.4446   6.4725   6.6056   6.6107
     6.6142   6.6189   6.6616   6.7473   6.7992   6.8597   6.8716   6.9896
     7.0174   7.0560   7.0649

          k =-0.2500-0.1443-0.1111 (136898 PWs)   bands (ev):

   -19.6764  -7.4542  -6.3826  -5.5909  -5.3065  -5.2419  -5.2397  -4.7087
    -4.7011  -4.6012  -4.5694  -4.4612  -4.4047  -4.3653  -4.3189  -4.2897
    -4.2609  -4.2542  -4.2141  -4.1250  -4.0836  -4.0833  -4.0214  -4.0040
    -3.9875  -3.9004  -3.8987  -3.8641  -3.8639  -3.8590  -3.8366  -3.8155
    -3.8123  -3.7114  -3.7085  -3.7063  -3.6874  -3.6711  -3.6675  -3.6592
    -3.6572  -3.6458  -3.6155  -3.6147  -3.6143  -3.6120  -3.5833  -3.5828
    -3.5643  -3.5623  -3.5522  -3.5103  -3.5082  -3.4748  -3.4631  -3.4592
    -3.4554  -3.4539  -3.3813  -3.3799  -3.3478  -3.3447  -3.3382  -3.2757
    -3.2752  -3.2604  -3.2551  -3.2306  -3.2302  -3.2297  -3.2256  -3.0748
    -3.0723  -3.0527  -3.0504  -3.0454  -3.0283  -3.0264  -3.0030  -3.0011
    -2.9525  -2.9509  -2.9362  -2.9354  -2.9145  -2.8694  -2.8678  -2.8483
    -2.8434  -2.8413  -2.8028  -2.8013  -2.7940  -2.7923  -2.7790  -2.7752
    -2.7390  -2.7381  -2.7180  -2.7175  -2.7137  -2.7114  -2.7074  -2.6350
    -2.6343  -2.6301  -2.6025  -2.5989  -2.5451  -2.5416  -2.5124  -2.5108
    -2.4988  -2.4974  -2.4908  -2.4643  -2.4629  -2.4520  -2.4358  -2.4154
    -2.4118  -2.4100  -2.3909  -2.3895  -2.3799  -2.3782  -2.3761  -2.3741
    -2.3641  -2.3182  -2.2896  -2.2880  -2.2710  -2.2582  -2.2525  -2.2509
    -2.2441  -2.2427  -2.2412  -2.2158  -2.2124  -2.2104  -2.2022  -2.1994
    -2.1861  -2.1599  -2.1581  -2.1570  -2.1567  -2.1521  -2.1094  -2.0816
    -2.0788  -2.0767  -2.0720  -2.0630  -2.0606  -2.0509  -2.0330  -2.0317
    -2.0021  -2.0007  -1.9981  -1.9926  -1.9804  -1.9796  -1.9557  -1.9466
    -1.9176  -1.9065  -1.9005  -1.8969  -1.8935  -1.8931  -1.8884  -1.8870
    -1.8850  -1.8815  -1.8780  -1.8665  -1.8618  -1.8071  -1.7362  -1.7261
    -1.7010  -1.6964  -1.6903  -1.6869  -1.6846  -1.6718  -1.6710  -1.6696
    -1.6637  -1.6564  -1.6424  -1.6393  -1.6287  -1.6247  -1.6188  -1.6086
    -1.5991  -1.5899  -1.5723  -1.5597  -1.5423  -1.5337  -1.5262  -1.5167
    -1.5023  -1.5001  -1.4970  -1.4825  -1.4677  -1.4666  -1.4610  -1.4575
    -1.4353  -1.4329  -1.4199  -1.4110  -1.3838  -1.3800  -1.3689  -1.3271
    -1.3225  -1.3132  -1.3077  -1.2993  -1.2846  -1.2813  -1.2509  -1.2479
    -1.2448  -1.2148  -1.2047  -1.2007  -1.1884  -1.1874  -1.1650  -1.1598
    -1.1546  -1.1302  -1.1292  -1.1260  -1.0661  -1.0644  -1.0537  -1.0526
    -1.0373  -1.0352  -1.0245  -1.0214  -1.0044  -0.9922  -0.9648  -0.9634
    -0.9518  -0.9238  -0.9143  -0.9120  -0.9024  -0.9017  -0.9012  -0.8964
    -0.8906  -0.8798  -0.8536  -0.8524  -0.8414  -0.8410  -0.8365  -0.8264
    -0.8155  -0.7957  -0.7895  -0.7752  -0.7596  -0.6834  -0.6689  -0.6635
    -0.6633  -0.6585  -0.6536  -0.6479  -0.6295  -0.6249  -0.6134  -0.6099
    -0.5987  -0.5944  -0.5898  -0.5692  -0.5683  -0.5613  -0.5585  -0.4846
    -0.4842  -0.4529  -0.4482  -0.4460  -0.4414  -0.4380  -0.4361  -0.4343
    -0.4261  -0.4183  -0.3989  -0.3813  -0.3656  -0.3495  -0.3488  -0.3388
    -0.3346  -0.3264  -0.3247  -0.3229  -0.3225  -0.3128  -0.3049  -0.3011
    -0.2909  -0.2698  -0.2687  -0.2603  -0.2544  -0.2494  -0.2351  -0.2040
    -0.2006  -0.1945  -0.1878  -0.1263  -0.1224  -0.0904  -0.0897  -0.0319
    -0.0314  -0.0309  -0.0055  -0.0048   0.2179   0.2484   0.5705   0.5707
     0.6556   0.6806   0.8478   0.8851   0.9009   1.0160   1.0221   1.4507
     1.4515   1.4674   1.7295   1.7608   1.7615   2.0267   2.0504   2.1148
     2.1159   2.1377   2.1631   2.3708   2.3732   2.4618   2.4625   2.5200
     2.5907   2.6227   2.7669   2.8695   3.2980   3.3017   3.3036   3.3202
     3.3614   3.3635   3.6543   3.6557   3.9272   3.9466   4.0183   4.3511
     4.3865   4.4003   4.5525   4.5844   4.6893   4.6965   4.7858   4.8970
     4.9041   5.0111   5.0204   5.0398   5.3218   5.3805   5.4046   5.5218
     5.5644   5.7589   5.7777   5.7848   5.8075   5.8115   5.8602   5.8651
     5.9007   5.9994   6.2434   6.2708   6.4421   6.4747   6.6026   6.6113
     6.6133   6.6212   6.6443   6.7038   6.8519   6.8637   6.8682   6.9753
     6.9992   7.0582   7.0799

          k = 0.2500 0.1443-0.1111 (136898 PWs)   bands (ev):

   -19.6764  -7.4542  -6.3826  -5.5909  -5.3065  -5.2419  -5.2397  -4.7087
    -4.7011  -4.6012  -4.5694  -4.4612  -4.4047  -4.3653  -4.3189  -4.2897
    -4.2609  -4.2542  -4.2141  -4.1250  -4.0836  -4.0833  -4.0214  -4.0040
    -3.9875  -3.9004  -3.8987  -3.8641  -3.8639  -3.8590  -3.8366  -3.8155
    -3.8123  -3.7114  -3.7085  -3.7063  -3.6874  -3.6711  -3.6675  -3.6592
    -3.6572  -3.6458  -3.6155  -3.6147  -3.6143  -3.6120  -3.5833  -3.5828
    -3.5643  -3.5623  -3.5522  -3.5103  -3.5082  -3.4748  -3.4631  -3.4592
    -3.4554  -3.4539  -3.3813  -3.3799  -3.3478  -3.3447  -3.3382  -3.2757
    -3.2752  -3.2604  -3.2551  -3.2306  -3.2302  -3.2297  -3.2256  -3.0748
    -3.0723  -3.0527  -3.0504  -3.0455  -3.0283  -3.0264  -3.0030  -3.0011
    -2.9525  -2.9509  -2.9362  -2.9354  -2.9145  -2.8694  -2.8678  -2.8483
    -2.8434  -2.8413  -2.8028  -2.8013  -2.7940  -2.7923  -2.7790  -2.7752
    -2.7390  -2.7381  -2.7180  -2.7175  -2.7137  -2.7114  -2.7074  -2.6350
    -2.6343  -2.6301  -2.6025  -2.5989  -2.5451  -2.5416  -2.5124  -2.5108
    -2.4988  -2.4974  -2.4908  -2.4643  -2.4629  -2.4520  -2.4358  -2.4154
    -2.4118  -2.4100  -2.3909  -2.3895  -2.3799  -2.3782  -2.3761  -2.3741
    -2.3641  -2.3182  -2.2896  -2.2880  -2.2710  -2.2582  -2.2525  -2.2509
    -2.2441  -2.2427  -2.2412  -2.2158  -2.2124  -2.2104  -2.2022  -2.1994
    -2.1861  -2.1599  -2.1581  -2.1570  -2.1567  -2.1521  -2.1094  -2.0816
    -2.0788  -2.0767  -2.0720  -2.0630  -2.0606  -2.0509  -2.0331  -2.0317
    -2.0021  -2.0007  -1.9981  -1.9926  -1.9804  -1.9796  -1.9557  -1.9466
    -1.9176  -1.9065  -1.9006  -1.8969  -1.8935  -1.8931  -1.8884  -1.8870
    -1.8850  -1.8815  -1.8780  -1.8665  -1.8618  -1.8071  -1.7362  -1.7261
    -1.7010  -1.6964  -1.6903  -1.6869  -1.6846  -1.6718  -1.6710  -1.6696
    -1.6637  -1.6564  -1.6424  -1.6393  -1.6287  -1.6247  -1.6188  -1.6086
    -1.5991  -1.5899  -1.5723  -1.5597  -1.5423  -1.5337  -1.5262  -1.5167
    -1.5023  -1.5001  -1.4970  -1.4825  -1.4677  -1.4666  -1.4610  -1.4575
    -1.4353  -1.4329  -1.4199  -1.4110  -1.3838  -1.3800  -1.3689  -1.3271
    -1.3225  -1.3132  -1.3077  -1.2993  -1.2846  -1.2813  -1.2509  -1.2479
    -1.2448  -1.2148  -1.2047  -1.2007  -1.1884  -1.1874  -1.1650  -1.1598
    -1.1546  -1.1302  -1.1292  -1.1260  -1.0660  -1.0644  -1.0537  -1.0526
    -1.0373  -1.0352  -1.0245  -1.0214  -1.0044  -0.9922  -0.9648  -0.9634
    -0.9518  -0.9238  -0.9143  -0.9120  -0.9024  -0.9017  -0.9012  -0.8964
    -0.8906  -0.8798  -0.8536  -0.8524  -0.8414  -0.8410  -0.8365  -0.8264
    -0.8155  -0.7957  -0.7895  -0.7752  -0.7596  -0.6834  -0.6689  -0.6635
    -0.6633  -0.6585  -0.6536  -0.6479  -0.6295  -0.6249  -0.6134  -0.6099
    -0.5987  -0.5944  -0.5898  -0.5692  -0.5683  -0.5613  -0.5585  -0.4845
    -0.4842  -0.4529  -0.4482  -0.4460  -0.4414  -0.4380  -0.4361  -0.4342
    -0.4261  -0.4183  -0.3989  -0.3813  -0.3656  -0.3495  -0.3488  -0.3388
    -0.3346  -0.3264  -0.3247  -0.3228  -0.3225  -0.3128  -0.3049  -0.3011
    -0.2909  -0.2698  -0.2687  -0.2603  -0.2544  -0.2494  -0.2351  -0.2040
    -0.2005  -0.1945  -0.1878  -0.1263  -0.1224  -0.0904  -0.0897  -0.0319
    -0.0314  -0.0309  -0.0055  -0.0048   0.2179   0.2484   0.5705   0.5707
     0.6556   0.6806   0.8478   0.8851   0.9009   1.0160   1.0221   1.4507
     1.4515   1.4674   1.7295   1.7608   1.7615   2.0267   2.0504   2.1148
     2.1159   2.1377   2.1631   2.3708   2.3732   2.4618   2.4625   2.5200
     2.5907   2.6227   2.7669   2.8695   3.2980   3.3017   3.3036   3.3202
     3.3614   3.3635   3.6543   3.6557   3.9272   3.9466   4.0182   4.3511
     4.3865   4.4003   4.5525   4.5844   4.6893   4.6965   4.7858   4.8970
     4.9041   5.0111   5.0204   5.0398   5.3218   5.3805   5.4046   5.5218
     5.5644   5.7590   5.7777   5.7845   5.8075   5.8116   5.8602   5.8652
     5.9009   5.9999   6.2429   6.2704   6.4408   6.4742   6.6008   6.6111
     6.6135   6.6211   6.6440   6.7044   6.8524   6.8637   6.8682   6.9784
     7.0038   7.0596   7.0819

          k = 0.0000-0.2887 0.1111 (136898 PWs)   bands (ev):

   -19.6764  -7.4542  -6.3826  -5.5909  -5.3066  -5.2419  -5.2397  -4.7086
    -4.7011  -4.6012  -4.5691  -4.4621  -4.4045  -4.3654  -4.3189  -4.2896
    -4.2608  -4.2541  -4.2139  -4.1250  -4.0838  -4.0831  -4.0214  -4.0040
    -3.9876  -3.9004  -3.8988  -3.8640  -3.8639  -3.8590  -3.8365  -3.8153
    -3.8126  -3.7114  -3.7086  -3.7060  -3.6874  -3.6711  -3.6675  -3.6592
    -3.6573  -3.6458  -3.6155  -3.6148  -3.6143  -3.6118  -3.5833  -3.5830
    -3.5642  -3.5622  -3.5522  -3.5102  -3.5084  -3.4748  -3.4631  -3.4592
    -3.4553  -3.4539  -3.3813  -3.3800  -3.3478  -3.3447  -3.3383  -3.2757
    -3.2752  -3.2603  -3.2550  -3.2306  -3.2302  -3.2297  -3.2255  -3.0747
    -3.0723  -3.0528  -3.0504  -3.0453  -3.0283  -3.0264  -3.0031  -3.0011
    -2.9525  -2.9508  -2.9362  -2.9354  -2.9144  -2.8696  -2.8678  -2.8482
    -2.8434  -2.8413  -2.8028  -2.8013  -2.7941  -2.7921  -2.7789  -2.7753
    -2.7390  -2.7380  -2.7182  -2.7175  -2.7137  -2.7113  -2.7075  -2.6349
    -2.6342  -2.6301  -2.6025  -2.5989  -2.5458  -2.5416  -2.5121  -2.5108
    -2.4989  -2.4974  -2.4907  -2.4644  -2.4631  -2.4520  -2.4356  -2.4149
    -2.4119  -2.4100  -2.3909  -2.3896  -2.3799  -2.3782  -2.3764  -2.3739
    -2.3641  -2.3182  -2.2898  -2.2880  -2.2708  -2.2581  -2.2527  -2.2510
    -2.2441  -2.2426  -2.2413  -2.2162  -2.2125  -2.2103  -2.2020  -2.1996
    -2.1861  -2.1593  -2.1583  -2.1573  -2.1563  -2.1520  -2.1095  -2.0812
    -2.0790  -2.0766  -2.0720  -2.0644  -2.0609  -2.0511  -2.0331  -2.0317
    -2.0017  -2.0003  -1.9981  -1.9937  -1.9804  -1.9796  -1.9540  -1.9466
    -1.9179  -1.9065  -1.9005  -1.8970  -1.8935  -1.8932  -1.8884  -1.8867
    -1.8848  -1.8819  -1.8778  -1.8667  -1.8616  -1.8079  -1.7363  -1.7248
    -1.7012  -1.6963  -1.6904  -1.6870  -1.6849  -1.6715  -1.6707  -1.6695
    -1.6636  -1.6585  -1.6424  -1.6392  -1.6285  -1.6249  -1.6173  -1.6102
    -1.5990  -1.5897  -1.5721  -1.5558  -1.5422  -1.5358  -1.5255  -1.5188
    -1.5022  -1.5002  -1.4971  -1.4825  -1.4677  -1.4663  -1.4608  -1.4570
    -1.4352  -1.4336  -1.4200  -1.4104  -1.3827  -1.3795  -1.3702  -1.3270
    -1.3223  -1.3133  -1.3071  -1.3007  -1.2846  -1.2813  -1.2509  -1.2474
    -1.2447  -1.2153  -1.2045  -1.2004  -1.1884  -1.1876  -1.1653  -1.1594
    -1.1556  -1.1298  -1.1293  -1.1259  -1.0660  -1.0640  -1.0537  -1.0520
    -1.0374  -1.0352  -1.0244  -1.0220  -1.0044  -0.9921  -0.9648  -0.9636
    -0.9520  -0.9241  -0.9140  -0.9121  -0.9025  -0.9016  -0.9013  -0.8957
    -0.8913  -0.8798  -0.8537  -0.8526  -0.8411  -0.8410  -0.8358  -0.8274
    -0.8153  -0.7946  -0.7896  -0.7750  -0.7597  -0.6836  -0.6688  -0.6636
    -0.6632  -0.6589  -0.6531  -0.6480  -0.6294  -0.6253  -0.6130  -0.6102
    -0.5986  -0.5947  -0.5897  -0.5692  -0.5676  -0.5620  -0.5584  -0.4847
    -0.4843  -0.4526  -0.4486  -0.4460  -0.4413  -0.4381  -0.4359  -0.4342
    -0.4260  -0.4183  -0.3991  -0.3813  -0.3656  -0.3494  -0.3490  -0.3388
    -0.3345  -0.3263  -0.3245  -0.3231  -0.3224  -0.3128  -0.3048  -0.3010
    -0.2910  -0.2698  -0.2687  -0.2604  -0.2544  -0.2495  -0.2350  -0.2040
    -0.2005  -0.1944  -0.1878  -0.1264  -0.1225  -0.0904  -0.0897  -0.0321
    -0.0313  -0.0308  -0.0058  -0.0048   0.2186   0.2481   0.5705   0.5707
     0.6562   0.6799   0.8473   0.8856   0.9004   1.0162   1.0220   1.4507
     1.4516   1.4671   1.7295   1.7608   1.7616   2.0276   2.0496   2.1150
     2.1158   2.1383   2.1624   2.3705   2.3738   2.4619   2.4624   2.5203
     2.5914   2.6213   2.7669   2.8699   3.2984   3.3011   3.3040   3.3198
     3.3621   3.3630   3.6547   3.6554   3.9279   3.9463   4.0188   4.3510
     4.3869   4.4000   4.5467   4.5873   4.6894   4.6958   4.7871   4.8969
     4.9019   5.0140   5.0205   5.0413   5.3218   5.3799   5.4041   5.5261
     5.5625   5.7530   5.7779   5.7837   5.8079   5.8122   5.8603   5.8649
     5.8961   5.9978   6.2414   6.2957   6.4382   6.4750   6.6005   6.6102
     6.6136   6.6216   6.6363   6.6961   6.8608   6.8672   6.8754   6.9698
     6.9981   7.0608   7.0767

          k = 0.0000 0.2887 0.1111 (136898 PWs)   bands (ev):

   -19.6764  -7.4542  -6.3826  -5.5909  -5.3066  -5.2419  -5.2397  -4.7086
    -4.7011  -4.6012  -4.5691  -4.4620  -4.4045  -4.3654  -4.3189  -4.2896
    -4.2608  -4.2541  -4.2139  -4.1250  -4.0838  -4.0831  -4.0215  -4.0040
    -3.9876  -3.9004  -3.8988  -3.8640  -3.8639  -3.8590  -3.8366  -3.8153
    -3.8126  -3.7114  -3.7086  -3.7060  -3.6874  -3.6711  -3.6675  -3.6592
    -3.6573  -3.6458  -3.6155  -3.6148  -3.6143  -3.6118  -3.5833  -3.5829
    -3.5642  -3.5622  -3.5522  -3.5102  -3.5084  -3.4748  -3.4631  -3.4592
    -3.4553  -3.4539  -3.3813  -3.3800  -3.3478  -3.3447  -3.3383  -3.2757
    -3.2752  -3.2603  -3.2550  -3.2306  -3.2302  -3.2297  -3.2255  -3.0747
    -3.0723  -3.0528  -3.0504  -3.0453  -3.0283  -3.0264  -3.0031  -3.0011
    -2.9525  -2.9508  -2.9362  -2.9354  -2.9144  -2.8696  -2.8678  -2.8482
    -2.8434  -2.8413  -2.8028  -2.8013  -2.7941  -2.7921  -2.7789  -2.7753
    -2.7390  -2.7380  -2.7182  -2.7175  -2.7137  -2.7113  -2.7075  -2.6349
    -2.6342  -2.6301  -2.6025  -2.5989  -2.5458  -2.5416  -2.5121  -2.5108
    -2.4989  -2.4974  -2.4908  -2.4644  -2.4631  -2.4520  -2.4356  -2.4149
    -2.4119  -2.4100  -2.3909  -2.3896  -2.3799  -2.3782  -2.3764  -2.3739
    -2.3641  -2.3182  -2.2898  -2.2880  -2.2708  -2.2581  -2.2527  -2.2510
    -2.2441  -2.2426  -2.2413  -2.2162  -2.2126  -2.2103  -2.2020  -2.1996
    -2.1861  -2.1593  -2.1583  -2.1573  -2.1563  -2.1520  -2.1095  -2.0812
    -2.0790  -2.0766  -2.0720  -2.0644  -2.0609  -2.0511  -2.0331  -2.0317
    -2.0017  -2.0003  -1.9980  -1.9936  -1.9804  -1.9796  -1.9540  -1.9466
    -1.9179  -1.9065  -1.9006  -1.8970  -1.8935  -1.8932  -1.8884  -1.8867
    -1.8847  -1.8819  -1.8778  -1.8667  -1.8616  -1.8079  -1.7363  -1.7248
    -1.7012  -1.6963  -1.6904  -1.6870  -1.6849  -1.6715  -1.6707  -1.6695
    -1.6636  -1.6585  -1.6424  -1.6392  -1.6285  -1.6249  -1.6173  -1.6102
    -1.5990  -1.5897  -1.5721  -1.5558  -1.5422  -1.5358  -1.5255  -1.5188
    -1.5022  -1.5002  -1.4971  -1.4825  -1.4677  -1.4663  -1.4608  -1.4570
    -1.4352  -1.4336  -1.4200  -1.4104  -1.3827  -1.3795  -1.3702  -1.3270
    -1.3223  -1.3133  -1.3071  -1.3007  -1.2846  -1.2813  -1.2509  -1.2474
    -1.2447  -1.2153  -1.2045  -1.2004  -1.1884  -1.1876  -1.1653  -1.1594
    -1.1556  -1.1298  -1.1293  -1.1259  -1.0660  -1.0640  -1.0537  -1.0520
    -1.0374  -1.0352  -1.0244  -1.0220  -1.0044  -0.9921  -0.9648  -0.9636
    -0.9520  -0.9241  -0.9140  -0.9121  -0.9025  -0.9016  -0.9013  -0.8957
    -0.8913  -0.8798  -0.8537  -0.8526  -0.8411  -0.8410  -0.8358  -0.8274
    -0.8153  -0.7946  -0.7896  -0.7750  -0.7597  -0.6837  -0.6688  -0.6636
    -0.6632  -0.6589  -0.6531  -0.6480  -0.6294  -0.6253  -0.6130  -0.6102
    -0.5986  -0.5947  -0.5897  -0.5692  -0.5676  -0.5620  -0.5584  -0.4847
    -0.4843  -0.4526  -0.4486  -0.4460  -0.4413  -0.4381  -0.4359  -0.4342
    -0.4260  -0.4183  -0.3991  -0.3813  -0.3656  -0.3494  -0.3490  -0.3388
    -0.3345  -0.3263  -0.3245  -0.3231  -0.3224  -0.3128  -0.3048  -0.3010
    -0.2911  -0.2698  -0.2687  -0.2604  -0.2544  -0.2495  -0.2350  -0.2040
    -0.2005  -0.1944  -0.1878  -0.1264  -0.1225  -0.0904  -0.0897  -0.0321
    -0.0313  -0.0308  -0.0058  -0.0048   0.2186   0.2481   0.5705   0.5707
     0.6562   0.6799   0.8473   0.8856   0.9004   1.0162   1.0220   1.4507
     1.4516   1.4671   1.7295   1.7608   1.7616   2.0276   2.0496   2.1150
     2.1158   2.1383   2.1624   2.3705   2.3738   2.4619   2.4624   2.5203
     2.5914   2.6213   2.7669   2.8699   3.2984   3.3011   3.3040   3.3198
     3.3621   3.3630   3.6547   3.6554   3.9279   3.9463   4.0188   4.3510
     4.3869   4.4000   4.5467   4.5873   4.6894   4.6958   4.7871   4.8969
     4.9019   5.0140   5.0205   5.0413   5.3218   5.3799   5.4041   5.5261
     5.5625   5.7533   5.7779   5.7834   5.8078   5.8122   5.8603   5.8649
     5.8961   5.9977   6.2413   6.2955   6.4390   6.4742   6.5983   6.6106
     6.6137   6.6214   6.6361   6.6937   6.8609   6.8671   6.8765   6.9724
     7.0036   7.0621   7.0786

     the Fermi energy is     1.5964 ev

!    total energy              =   -6604.43170221 Ry
     Harris-Foulkes estimate   =   -6604.43170221 Ry
     estimated scf accuracy    <          9.7E-09 Ry

     The total energy is the sum of the following terms:

     one-electron contribution =  -48777.16226287 Ry
     hartree contribution      =   24893.58297741 Ry
     xc contribution           =   -3204.99013914 Ry
     ewald contribution        =   20484.13498190 Ry
     smearing contrib. (-TS)   =       0.00274051 Ry

     convergence has been achieved in  22 iterations

     Writing output data file 2632261.save

     init_run     :    141.61s CPU    155.60s WALL (       1 calls)
     electrons    :   7993.16s CPU   8569.30s WALL (       1 calls)

     Called by init_run:
     wfcinit      :    110.27s CPU    121.86s WALL (       1 calls)
     potinit      :      9.54s CPU      9.95s WALL (       1 calls)

     Called by electrons:
     c_bands      :   6704.25s CPU   7170.35s WALL (      23 calls)
     sum_band     :    940.86s CPU   1035.16s WALL (      23 calls)
     v_of_rho     :    103.36s CPU    112.91s WALL (      23 calls)
     newd         :    254.06s CPU    258.14s WALL (      23 calls)
     mix_rho      :      3.00s CPU      3.35s WALL (      23 calls)
     vdW_energy   :      7.48s CPU      8.34s WALL (      23 calls)
     vdW_ffts     :     54.55s CPU     59.33s WALL (      46 calls)
     vdW_v        :     12.89s CPU     13.63s WALL (      23 calls)

     Called by c_bands:
     init_us_2    :     26.10s CPU     26.67s WALL (     564 calls)
     cegterg      :   6618.37s CPU   7083.08s WALL (     276 calls)

     Called by *egterg:
     h_psi        :   2785.96s CPU   3213.52s WALL (    1681 calls)
     s_psi        :    406.49s CPU    408.88s WALL (    1681 calls)
     g_psi        :      5.56s CPU      5.57s WALL (    1393 calls)
     cdiaghg      :   2169.64s CPU   2175.40s WALL (    1657 calls)

     Called by h_psi:
     add_vuspsi   :    408.51s CPU    410.79s WALL (    1681 calls)

     General routines
     calbec       :    596.42s CPU    599.07s WALL (    1957 calls)
     fft          :    104.51s CPU    113.02s WALL (    1518 calls)
     ffts         :      1.48s CPU      1.71s WALL (      46 calls)
     fftw         :   1822.78s CPU   2196.45s WALL (  669784 calls)
     interpolate  :      4.17s CPU      4.76s WALL (      46 calls)
     davcio       :      0.00s CPU      0.43s WALL (      12 calls)

     Parallel routines
     fft_scatter  :   1192.98s CPU   1433.91s WALL (  671348 calls)

     PWSCF        :     2h15m CPU        2h26m WALL


   This run was terminated on:  21: 4:34  24Jun2015            

=------------------------------------------------------------------------------=
   JOB DONE.
=------------------------------------------------------------------------------=
