
     Program PWSCF v.5.1.2 starts on 25Jun2015 at  4:33:42 

     This program is part of the open-source Quantum ESPRESSO suite
     for quantum simulation of materials; please cite
         "P. Giannozzi et al., J. Phys.:Condens. Matter 21 395502 (2009);
          URL http://www.quantum-espresso.org", 
     in publications or presentations arising from this work. More details at
     http://www.quantum-espresso.org/quote

     Parallel version (MPI), running on    32 processors
     R & G space division:  proc/nbgrp/npool/nimage =      32
     Reading input from top.O1.Au50.d.3.0.phi.25.psi.180.in
Warning: card &IONS ignored
Warning: card / ignored
Warning: card &CELL ignored
Warning: card / ignored

     Current dimensions of program PWSCF are:
     Max number of different atomic species (ntypx) = 10
     Max number of k-points (npk) =  40000
     Max angular momentum in pseudopotentials (lmaxx) =  3

     IMPORTANT: XC functional enforced from input :
     Exchange-correlation      = VDW-DF ( 1  4  4  0 1 0)
     Any further DFT definition will be discarded
     Please, verify this is what you really want


     Subspace diagonalization in iterative solution of the eigenvalue problem:
     a serial algorithm will be used


     Parallelization info
     --------------------
     sticks:   dense  smooth     PW     G-vecs:    dense   smooth      PW
     Min         445     223     58                96775    34191    4534
     Max         446     224     59                96790    34246    4540
     Sum       14269    7147   1867              3097177  1095093  145167


     Title: 
     top.O1.Au50.d.3.0.phi.25.psi.180                                           


     bravais-lattice index     =            4
     lattice parameter (alat)  =      22.7436  a.u.
     unit-cell volume          =   22924.1508 (a.u.)^3
     number of atoms/cell      =           67
     number of atomic types    =            3
     number of electrons       =       712.00
     number of Kohn-Sham states=          427
     kinetic-energy cutoff     =      50.0000  Ry
     charge density cutoff     =     400.0000  Ry
     convergence threshold     =      1.0E-08
     mixing beta               =       0.7000
     number of iterations used =            8  plain     mixing
     Exchange-correlation      = VDW-DF ( 1  4  4  0 1 0)

     celldm(1)=  22.743643  celldm(2)=   0.000000  celldm(3)=   2.250000
     celldm(4)=   0.000000  celldm(5)=   0.000000  celldm(6)=   0.000000

     crystal axes: (cart. coord. in units of alat)
               a(1) = (   1.000000   0.000000   0.000000 )  
               a(2) = (  -0.500000   0.866025   0.000000 )  
               a(3) = (   0.000000   0.000000   2.250000 )  

     reciprocal axes: (cart. coord. in units 2 pi/alat)
               b(1) = (  1.000000  0.577350 -0.000000 )  
               b(2) = (  0.000000  1.154701  0.000000 )  
               b(3) = (  0.000000 -0.000000  0.444444 )  


     PseudoPot. # 1 for Au read from file:
     /home/scc/andrejb/qe/pseudo/Au.pbe-nd-van.UPF
     MD5 check sum: 458681b50f36d87ef23c61b04bba420a
     Pseudo is Ultrasoft + core correction, Zval = 11.0
     Generated by new atomic code, or converted to UPF format
     Using radial grid of  985 points,  3 beta functions with: 
                l(1) =   1
                l(2) =   2
                l(3) =   2
     Q(r) pseudized with  8 coefficients,  rinner =    1.100   1.100   1.100
                                                       1.100   1.100

     PseudoPot. # 2 for H  read from file:
     /home/scc/andrejb/qe/pseudo/H.pbe-van_ak.UPF
     MD5 check sum: 403db7282739603aa925980fa9b8608d
     Pseudo is Ultrasoft, Zval =  1.0
     Generated by new atomic code, or converted to UPF format
     Using radial grid of  615 points,  1 beta functions with: 
                l(1) =   0
     Q(r) pseudized with  8 coefficients,  rinner =    0.800

     PseudoPot. # 3 for O  read from file:
     /home/scc/andrejb/qe/pseudo/O.pbe-van_ak.UPF
     MD5 check sum: 4b8c549914a63cae506c6ff22b5af4fe
     Pseudo is Ultrasoft, Zval =  6.0
     Generated by new atomic code, or converted to UPF format
     Using radial grid of  737 points,  4 beta functions with: 
                l(1) =   0
                l(2) =   0
                l(3) =   1
                l(4) =   1
     Q(r) pseudized with  8 coefficients,  rinner =    0.800   0.800   0.800


     vdW kernel table read from file vdW_kernel_table
     MD5 check sum: 48e77a2e26edf626eeb0eaa751ad5cac

     atomic species   valence    mass     pseudopotential
        Au            11.00   196.96657     Au( 1.00)
        H              1.00     1.01000     H ( 1.00)
        O              6.00    16.00000     O ( 1.00)

     No symmetry found



   Cartesian axes

     site n.     atom                  positions (alat units)
         1           O   tau(   1) = (   0.4790780   0.3968269   0.8622611  )
         2           H   tau(   2) = (   0.4518956   0.4558240   0.8140075  )
         3           H   tau(   3) = (   0.5054281   0.3396014   0.8115004  )
         4           Au  tau(   4) = (   0.3540481   0.6132292   0.0000000  )
         5           Au  tau(   5) = (   0.4790062   0.3967954   0.0000000  )
         6           Au  tau(   6) = (   0.6039644   0.1803616   0.0000000  )
         7           Au  tau(   7) = (   0.7289225  -0.0360723   0.0000000  )
         8           Au  tau(   8) = (   0.1041318   0.6132292   0.0000000  )
         9           Au  tau(   9) = (   0.2290899   0.3967954   0.0000000  )
        10           Au  tau(  10) = (   0.3540481   0.1803616   0.0000000  )
        11           Au  tau(  11) = (   0.4790062  -0.0360723   0.0000000  )
        12           Au  tau(  12) = (  -0.1457845   0.6132292   0.0000000  )
        13           Au  tau(  13) = (  -0.0208264   0.3967954   0.0000000  )
        14           Au  tau(  14) = (   0.1041318   0.1803616   0.0000000  )
        15           Au  tau(  15) = (   0.2290899  -0.0360723   0.0000000  )
        16           Au  tau(  16) = (  -0.3957008   0.6132292   0.0000000  )
        17           Au  tau(  17) = (  -0.2707426   0.3967954   0.0000000  )
        18           Au  tau(  18) = (  -0.1457845   0.1803616   0.0000000  )
        19           Au  tau(  19) = (  -0.0208264  -0.0360723   0.0000000  )
        20           Au  tau(  20) = (   0.4790062   0.6853738   0.2040557  )
        21           Au  tau(  21) = (   0.6039644   0.4689400   0.2040557  )
        22           Au  tau(  22) = (   0.7289225   0.2525062   0.2040557  )
        23           Au  tau(  23) = (   0.8538806   0.0360723   0.2040557  )
        24           Au  tau(  24) = (   0.2290899   0.6853738   0.2040557  )
        25           Au  tau(  25) = (   0.3540481   0.4689400   0.2040557  )
        26           Au  tau(  26) = (   0.4790062   0.2525062   0.2040557  )
        27           Au  tau(  27) = (   0.6039644   0.0360723   0.2040557  )
        28           Au  tau(  28) = (  -0.0208264   0.6853738   0.2040557  )
        29           Au  tau(  29) = (   0.1041318   0.4689400   0.2040557  )
        30           Au  tau(  30) = (   0.2290899   0.2525062   0.2040557  )
        31           Au  tau(  31) = (   0.3540481   0.0360723   0.2040557  )
        32           Au  tau(  32) = (  -0.2707426   0.6853738   0.2040557  )
        33           Au  tau(  33) = (  -0.1457845   0.4689400   0.2040557  )
        34           Au  tau(  34) = (  -0.0208264   0.2525062   0.2040557  )
        35           Au  tau(  35) = (   0.1041318   0.0360723   0.2040557  )
        36           Au  tau(  36) = (   0.3541162   0.7576593   0.4066483  )
        37           Au  tau(  37) = (   0.4791000   0.5411421   0.4066696  )
        38           Au  tau(  38) = (   0.6040570   0.3246862   0.4066618  )
        39           Au  tau(  39) = (   0.7290270   0.1081684   0.4066530  )
        40           Au  tau(  40) = (   0.1041162   0.7576236   0.4066247  )
        41           Au  tau(  41) = (   0.2291001   0.5411062   0.4066455  )
        42           Au  tau(  42) = (   0.3540567   0.3246505   0.4066380  )
        43           Au  tau(  43) = (   0.4790276   0.1081324   0.4066292  )
        44           Au  tau(  44) = (  -0.1458201   0.7576104   0.4066225  )
        45           Au  tau(  45) = (  -0.0208365   0.5410930   0.4066438  )
        46           Au  tau(  46) = (   0.1041202   0.3246372   0.4066359  )
        47           Au  tau(  47) = (   0.2290908   0.1081193   0.4066273  )
        48           Au  tau(  48) = (  -0.3958167   0.7575791   0.4065812  )
        49           Au  tau(  49) = (  -0.2708328   0.5410617   0.4066025  )
        50           Au  tau(  50) = (  -0.1458763   0.3246061   0.4065947  )
        51           Au  tau(  51) = (  -0.0209056   0.1080882   0.4065858  )
        52           Au  tau(  52) = (   0.3541084   0.6133344   0.6129762  )
        53           Au  tau(  53) = (   0.4790780   0.3968269   0.6129968  )
        54           Au  tau(  54) = (   0.6040356   0.1803811   0.6129859  )
        55           Au  tau(  55) = (   0.7290165  -0.0361221   0.6129385  )
        56           Au  tau(  56) = (   0.1041243   0.6133091   0.6130023  )
        57           Au  tau(  57) = (   0.2290941   0.3968013   0.6130241  )
        58           Au  tau(  58) = (   0.3540515   0.1803552   0.6130121  )
        59           Au  tau(  59) = (   0.4790323  -0.0361475   0.6129659  )
        60           Au  tau(  60) = (  -0.1458030   0.6133014   0.6129980  )
        61           Au  tau(  61) = (  -0.0208339   0.3967936   0.6130189  )
        62           Au  tau(  62) = (   0.1041239   0.1803477   0.6130083  )
        63           Au  tau(  63) = (   0.2291046  -0.0361554   0.6129607  )
        64           Au  tau(  64) = (  -0.3957908   0.6132739   0.6129471  )
        65           Au  tau(  65) = (  -0.2708208   0.3967658   0.6129688  )
        66           Au  tau(  66) = (  -0.1458636   0.1803200   0.6129569  )
        67           Au  tau(  67) = (  -0.0208823  -0.0361826   0.6129110  )

     number of k points=    12  Marzari-Vanderbilt smearing, width (Ry)=  0.0200
                       cart. coord. in units 2pi/alat
        k(    1) = (   0.2500000   0.4330127   0.1111111), wk =   0.1666667
        k(    2) = (   0.2500000  -0.1443376   0.1111111), wk =   0.1666667
        k(    3) = (  -0.2500000  -0.4330127   0.1111111), wk =   0.1666667
        k(    4) = (  -0.2500000   0.4330127  -0.1111111), wk =   0.1666667
        k(    5) = (   0.2500000  -0.4330127  -0.1111111), wk =   0.1666667
        k(    6) = (   0.5000000   0.0000000   0.1111111), wk =   0.1666667
        k(    7) = (  -0.5000000   0.0000000   0.1111111), wk =   0.1666667
        k(    8) = (  -0.2500000   0.1443376   0.1111111), wk =   0.1666667
        k(    9) = (  -0.2500000  -0.1443376  -0.1111111), wk =   0.1666667
        k(   10) = (   0.2500000   0.1443376  -0.1111111), wk =   0.1666667
        k(   11) = (   0.0000000  -0.2886751   0.1111111), wk =   0.1666667
        k(   12) = (   0.0000000   0.2886751   0.1111111), wk =   0.1666667

     Dense  grid:  3097177 G-vectors     FFT dimensions: ( 150, 150, 360)

     Smooth grid:  1095093 G-vectors     FFT dimensions: ( 108, 108, 240)

     Largest allocated arrays     est. size (Mb)     dimensions
        Kohn-Sham Wavefunctions        28.01 Mb     (    4299,  427)
        NL pseudopotentials            55.23 Mb     (    4299,  842)
        Each V/rho on FFT grid          4.12 Mb     (  270000)
        Each G-vector array             0.74 Mb     (   96788)
        G-vector shells                 0.16 Mb     (   21404)
     Largest temporary arrays     est. size (Mb)     dimensions
        Auxiliary wavefunctions       112.04 Mb     (    4299, 1708)
        Each subspace H/S matrix       44.51 Mb     (    1708, 1708)
        Each <psi_i|beta_j> matrix      5.49 Mb     (     842,  427)
        Arrays for rho mixing          32.96 Mb     (  270000,    8)

     Initial potential from superposition of free atoms
     Check: negative starting charge=   -1.730396

     starting charge  711.25682, renormalised to  712.00000

     negative rho (up, down):  1.732E+00 0.000E+00


     ************************************************************************
     *
     * You are using vdW-DF for exchange-correlation in this calculation.
     * Please cite the following three references that made this development
     * possible:
     *
     *   M. Dion, H. Rydberg, E. Schroder, D. C. Langreth, and
     *   B. I. Lundqvist, Phys. Rev. Lett. 92, 246401 (2004).
     *
     *   T. Thonhauser, V. R. Cooper, S. Li, A. Puzder, P. Hyldgaard, and
     *   D. C. Langreth, Phys. Rev. B 76, 125112 (2007).
     *
     *   G. Roman-Perez and J. M. Soler, Phys. Rev. Lett. 103, 096102 (2009).
     *
     *
     * If you are using vdW-DF2, please also cite:
     *
     *   K. Lee, E. D. Murray, L. Kong, B. I. Lundqvist, and
     *   D. C. Langreth, Phys. Rev. B 82, 081101(R) (2010).
     *
     *
     * If you are calculating the stress with vdW-DF, please also cite:
     *
     *   R. Sabatini, E. Kucukbenli, B. Kolb, T. Thonhauser, and
     *   S. de Gironcoli, J. Phys.: Condens. Matter 24, 424209 (2012).
     *
     ************************************************************************

     Carrying out vdW-DF run using the following parameters:

     Nqs =      20    Nr_points =    1024   r_max =   100.000
     q_mesh =
               0.00001000     0.04494208     0.09755937     0.15916263
               0.23128650     0.31572767     0.41458969     0.53033537
               0.66584808     0.82450364     1.01025438     1.22772762
               1.48234092     1.78043706     2.12944203     2.53805004
               3.01644009     3.57652955     4.23227104     5.00000000

     Gradients computed in reciprocal space

     ************************************************************************


     Starting wfc are  582 randomized atomic wfcs

     total cpu time spent up to now is      214.4 secs

     Self-consistent Calculation

     iteration #  1     ecut=    50.00 Ry     beta=0.70
     Davidson diagonalization with overlap
     ethr =  1.00E-02,  avg # of iterations =  3.0

     Threshold (ethr) on eigenvalues was too large:
     Diagonalizing with lowered threshold

     Davidson diagonalization with overlap
     ethr =  3.38E-04,  avg # of iterations =  3.5

     negative rho (up, down):  1.727E+00 0.000E+00

     total cpu time spent up to now is     1059.0 secs

     total energy              =   -6602.81938000 Ry
     Harris-Foulkes estimate   =   -6605.00869435 Ry
     estimated scf accuracy    <       2.75009420 Ry

     iteration #  2     ecut=    50.00 Ry     beta=0.70
     Davidson diagonalization with overlap
     ethr =  3.86E-04,  avg # of iterations = 11.8

     negative rho (up, down):  1.727E+00 0.000E+00

     total cpu time spent up to now is     2259.6 secs

     total energy              =   -6597.14548835 Ry
     Harris-Foulkes estimate   =   -6609.93843902 Ry
     estimated scf accuracy    <      70.27855715 Ry

     iteration #  3     ecut=    50.00 Ry     beta=0.70
     Davidson diagonalization with overlap
     ethr =  3.86E-04,  avg # of iterations =  6.0

     negative rho (up, down):  1.737E+00 0.000E+00

     total cpu time spent up to now is     3065.1 secs

     total energy              =   -6603.05271743 Ry
     Harris-Foulkes estimate   =   -6605.03458545 Ry
     estimated scf accuracy    <       9.38027273 Ry

     iteration #  4     ecut=    50.00 Ry     beta=0.70
     Davidson diagonalization with overlap
     ethr =  3.86E-04,  avg # of iterations =  5.9

     negative rho (up, down):  1.738E+00 0.000E+00

     total cpu time spent up to now is     3560.3 secs

     total energy              =   -6603.46964908 Ry
     Harris-Foulkes estimate   =   -6605.20321235 Ry
     estimated scf accuracy    <      16.21781240 Ry

     iteration #  5     ecut=    50.00 Ry     beta=0.70
     Davidson diagonalization with overlap
     ethr =  3.86E-04,  avg # of iterations =  7.7

     negative rho (up, down):  1.747E+00 0.000E+00

     total cpu time spent up to now is     4075.0 secs

     total energy              =   -6604.30318413 Ry
     Harris-Foulkes estimate   =   -6604.63873450 Ry
     estimated scf accuracy    <       2.30789069 Ry

     iteration #  6     ecut=    50.00 Ry     beta=0.70
     Davidson diagonalization with overlap
     ethr =  3.24E-04,  avg # of iterations =  2.8

     negative rho (up, down):  1.752E+00 0.000E+00

     total cpu time spent up to now is     4451.3 secs

     total energy              =   -6604.41776093 Ry
     Harris-Foulkes estimate   =   -6604.46301809 Ry
     estimated scf accuracy    <       0.14667405 Ry

     iteration #  7     ecut=    50.00 Ry     beta=0.70
     Davidson diagonalization with overlap
     ethr =  2.06E-05,  avg # of iterations = 12.3

     negative rho (up, down):  1.754E+00 0.000E+00

     total cpu time spent up to now is     5077.4 secs

     total energy              =   -6604.42315881 Ry
     Harris-Foulkes estimate   =   -6604.45186837 Ry
     estimated scf accuracy    <       0.13105110 Ry

     iteration #  8     ecut=    50.00 Ry     beta=0.70
     Davidson diagonalization with overlap
     ethr =  1.84E-05,  avg # of iterations =  3.0

     negative rho (up, down):  1.755E+00 0.000E+00

     total cpu time spent up to now is     5475.5 secs

     total energy              =   -6604.42591428 Ry
     Harris-Foulkes estimate   =   -6604.43965935 Ry
     estimated scf accuracy    <       0.05449276 Ry

     iteration #  9     ecut=    50.00 Ry     beta=0.70
     Davidson diagonalization with overlap
     ethr =  7.65E-06,  avg # of iterations =  5.2

     negative rho (up, down):  1.756E+00 0.000E+00

     total cpu time spent up to now is     5914.3 secs

     total energy              =   -6604.42557487 Ry
     Harris-Foulkes estimate   =   -6604.43187410 Ry
     estimated scf accuracy    <       0.02405584 Ry

     iteration # 10     ecut=    50.00 Ry     beta=0.70
     Davidson diagonalization with overlap
     ethr =  3.38E-06,  avg # of iterations =  4.9

     negative rho (up, down):  1.757E+00 0.000E+00

     total cpu time spent up to now is     6336.9 secs

     total energy              =   -6604.42498248 Ry
     Harris-Foulkes estimate   =   -6604.42789645 Ry
     estimated scf accuracy    <       0.01107429 Ry

     iteration # 11     ecut=    50.00 Ry     beta=0.70
     Davidson diagonalization with overlap
     ethr =  1.56E-06,  avg # of iterations =  6.6

     negative rho (up, down):  1.757E+00 0.000E+00

     total cpu time spent up to now is     6767.6 secs

     total energy              =   -6604.42469154 Ry
     Harris-Foulkes estimate   =   -6604.42616873 Ry
     estimated scf accuracy    <       0.00596873 Ry

     iteration # 12     ecut=    50.00 Ry     beta=0.70
     Davidson diagonalization with overlap
     ethr =  8.38E-07,  avg # of iterations =  5.2

     negative rho (up, down):  1.758E+00 0.000E+00

     total cpu time spent up to now is     7159.9 secs

     total energy              =   -6604.42452010 Ry
     Harris-Foulkes estimate   =   -6604.42522059 Ry
     estimated scf accuracy    <       0.00132400 Ry

     iteration # 13     ecut=    50.00 Ry     beta=0.70
     Davidson diagonalization with overlap
     ethr =  1.86E-07,  avg # of iterations =  6.3

     negative rho (up, down):  1.757E+00 0.000E+00

     total cpu time spent up to now is     7629.6 secs

     total energy              =   -6604.42475587 Ry
     Harris-Foulkes estimate   =   -6604.42486732 Ry
     estimated scf accuracy    <       0.00029287 Ry

     iteration # 14     ecut=    50.00 Ry     beta=0.70
     Davidson diagonalization with overlap
     ethr =  4.11E-08,  avg # of iterations =  2.0

     negative rho (up, down):  1.757E+00 0.000E+00

     total cpu time spent up to now is     7994.1 secs

     total energy              =   -6604.42478950 Ry
     Harris-Foulkes estimate   =   -6604.42484741 Ry
     estimated scf accuracy    <       0.00023911 Ry

     iteration # 15     ecut=    50.00 Ry     beta=0.70
     Davidson diagonalization with overlap
     ethr =  3.36E-08,  avg # of iterations =  2.0

     negative rho (up, down):  1.757E+00 0.000E+00

     total cpu time spent up to now is     8320.5 secs

     total energy              =   -6604.42480742 Ry
     Harris-Foulkes estimate   =   -6604.42483757 Ry
     estimated scf accuracy    <       0.00021995 Ry

     iteration # 16     ecut=    50.00 Ry     beta=0.70
     Davidson diagonalization with overlap
     ethr =  3.09E-08,  avg # of iterations =  2.0

     negative rho (up, down):  1.757E+00 0.000E+00

     total cpu time spent up to now is     8665.5 secs

     total energy              =   -6604.42482096 Ry
     Harris-Foulkes estimate   =   -6604.42482558 Ry
     estimated scf accuracy    <       0.00001849 Ry

     iteration # 17     ecut=    50.00 Ry     beta=0.70
     Davidson diagonalization with overlap
     ethr =  2.60E-09,  avg # of iterations =  3.0

     negative rho (up, down):  1.757E+00 0.000E+00

     total cpu time spent up to now is     9067.1 secs

     total energy              =   -6604.42482153 Ry
     Harris-Foulkes estimate   =   -6604.42482738 Ry
     estimated scf accuracy    <       0.00003559 Ry

     iteration # 18     ecut=    50.00 Ry     beta=0.70
     Davidson diagonalization with overlap
     ethr =  2.60E-09,  avg # of iterations =  2.0

     negative rho (up, down):  1.757E+00 0.000E+00

     total cpu time spent up to now is     9411.6 secs

     total energy              =   -6604.42482419 Ry
     Harris-Foulkes estimate   =   -6604.42482502 Ry
     estimated scf accuracy    <       0.00000292 Ry

     iteration # 19     ecut=    50.00 Ry     beta=0.70
     Davidson diagonalization with overlap
     ethr =  4.11E-10,  avg # of iterations =  2.0

     negative rho (up, down):  1.757E+00 0.000E+00

     total cpu time spent up to now is     9778.9 secs

     total energy              =   -6604.42482459 Ry
     Harris-Foulkes estimate   =   -6604.42482483 Ry
     estimated scf accuracy    <       0.00000094 Ry

     iteration # 20     ecut=    50.00 Ry     beta=0.70
     Davidson diagonalization with overlap
     ethr =  1.32E-10,  avg # of iterations =  2.0

     negative rho (up, down):  1.757E+00 0.000E+00

     total cpu time spent up to now is    10111.2 secs

     total energy              =   -6604.42482471 Ry
     Harris-Foulkes estimate   =   -6604.42482479 Ry
     estimated scf accuracy    <       0.00000046 Ry

     iteration # 21     ecut=    50.00 Ry     beta=0.70
     Davidson diagonalization with overlap
     ethr =  6.49E-11,  avg # of iterations =  2.0

     negative rho (up, down):  1.757E+00 0.000E+00

     total cpu time spent up to now is    10454.2 secs

     total energy              =   -6604.42482477 Ry
     Harris-Foulkes estimate   =   -6604.42482479 Ry
     estimated scf accuracy    <       0.00000017 Ry

     iteration # 22     ecut=    50.00 Ry     beta=0.70
     Davidson diagonalization with overlap
     ethr =  2.41E-11,  avg # of iterations =  2.0

     negative rho (up, down):  1.757E+00 0.000E+00

     total cpu time spent up to now is    10803.8 secs

     total energy              =   -6604.42482479 Ry
     Harris-Foulkes estimate   =   -6604.42482480 Ry
     estimated scf accuracy    <       0.00000002 Ry

     iteration # 23     ecut=    50.00 Ry     beta=0.70
     Davidson diagonalization with overlap
     ethr =  2.90E-12,  avg # of iterations =  3.0

     negative rho (up, down):  1.757E+00 0.000E+00

     total cpu time spent up to now is    11246.0 secs

     total energy              =   -6604.42482479 Ry
     Harris-Foulkes estimate   =   -6604.42482479 Ry
     estimated scf accuracy    <       0.00000002 Ry

     iteration # 24     ecut=    50.00 Ry     beta=0.70
     Davidson diagonalization with overlap
     ethr =  2.90E-12,  avg # of iterations =  3.0

     negative rho (up, down):  1.757E+00 0.000E+00

     total cpu time spent up to now is    11631.3 secs

     End of self-consistent calculation

          k = 0.2500 0.4330 0.1111 (136853 PWs)   bands (ev):

   -18.7189  -6.5575  -6.4587  -6.0608  -6.0579  -5.3848  -5.0488  -5.0474
    -5.0160  -5.0072  -4.6481  -4.6468  -4.5493  -4.5484  -4.5348  -4.5111
    -4.4962  -4.3825  -4.3800  -4.3568  -4.3135  -4.3130  -4.2487  -4.2442
    -4.2408  -4.2378  -4.2161  -4.2121  -4.2091  -4.1493  -4.1373  -4.1085
    -4.1075  -4.0965  -4.0955  -4.0730  -4.0722  -4.0499  -4.0416  -4.0414
    -4.0167  -3.9634  -3.9625  -3.9153  -3.9135  -3.8593  -3.8573  -3.8062
    -3.8013  -3.8003  -3.7997  -3.7646  -3.7308  -3.7289  -3.7192  -3.7184
    -3.7172  -3.6935  -3.6868  -3.6786  -3.6208  -3.6188  -3.6119  -3.5921
    -3.5837  -3.5172  -3.5108  -3.4822  -3.4777  -3.4528  -3.4498  -3.4354
    -3.4228  -3.3661  -3.3611  -3.3445  -3.3421  -3.2936  -3.2899  -3.2875
    -3.2469  -3.2279  -3.2168  -3.2130  -3.2065  -3.1981  -3.1962  -3.1867
    -3.1860  -3.1771  -3.1409  -3.1122  -3.0958  -3.0848  -3.0825  -3.0740
    -3.0546  -3.0478  -3.0438  -3.0060  -2.9786  -2.9726  -2.9601  -2.9317
    -2.9202  -2.9128  -2.9029  -2.8866  -2.8767  -2.8510  -2.8185  -2.8159
    -2.7960  -2.7866  -2.7743  -2.7716  -2.7243  -2.7206  -2.6900  -2.6679
    -2.6659  -2.6453  -2.6397  -2.6323  -2.6280  -2.6205  -2.5998  -2.5993
    -2.5527  -2.5515  -2.5510  -2.5365  -2.5351  -2.5277  -2.5222  -2.5202
    -2.5180  -2.5149  -2.5104  -2.5052  -2.4984  -2.4922  -2.4665  -2.4633
    -2.4607  -2.4579  -2.4571  -2.4551  -2.4510  -2.4299  -2.4262  -2.4128
    -2.4112  -2.3923  -2.3908  -2.3846  -2.3819  -2.3809  -2.3787  -2.3647
    -2.3593  -2.3584  -2.3538  -2.3395  -2.3159  -2.3125  -2.2738  -2.2736
    -2.2521  -2.2498  -2.2236  -2.2194  -2.1962  -2.1933  -2.1789  -2.1719
    -2.1459  -2.1304  -2.1254  -2.1177  -2.1153  -2.1112  -2.1058  -2.1037
    -2.0768  -2.0720  -2.0640  -2.0091  -2.0041  -2.0019  -1.9994  -1.9946
    -1.9690  -1.9437  -1.9424  -1.9164  -1.9128  -1.8580  -1.8553  -1.8247
    -1.8074  -1.8026  -1.7489  -1.7463  -1.7377  -1.7332  -1.7246  -1.7225
    -1.7181  -1.7135  -1.7086  -1.6590  -1.6517  -1.6428  -1.6409  -1.6399
    -1.6266  -1.6202  -1.5913  -1.5866  -1.5710  -1.5690  -1.5685  -1.5609
    -1.5567  -1.5510  -1.5455  -1.5276  -1.5264  -1.4907  -1.4817  -1.4776
    -1.4738  -1.4563  -1.4387  -1.4028  -1.3969  -1.3722  -1.3677  -1.3661
    -1.3374  -1.2911  -1.2843  -1.2823  -1.2798  -1.2778  -1.2746  -1.2667
    -1.2522  -1.2475  -1.2127  -1.2062  -1.1806  -1.1777  -1.1733  -1.1704
    -1.1653  -1.1521  -1.1476  -1.1462  -1.1431  -1.1416  -1.1061  -1.1037
    -1.1028  -1.1009  -1.0759  -1.0704  -1.0678  -1.0422  -1.0386  -1.0326
    -0.9919  -0.9847  -0.9807  -0.9464  -0.9409  -0.9302  -0.9275  -0.9213
    -0.9206  -0.9173  -0.9163  -0.9065  -0.9044  -0.8819  -0.8804  -0.8762
    -0.8743  -0.8737  -0.8375  -0.8370  -0.8363  -0.8251  -0.8115  -0.8041
    -0.8016  -0.7908  -0.7385  -0.7334  -0.7308  -0.7254  -0.7238  -0.7210
    -0.7176  -0.7013  -0.6972  -0.6956  -0.6888  -0.6875  -0.6857  -0.6598
    -0.6474  -0.6447  -0.6424  -0.6358  -0.6350  -0.6298  -0.6239  -0.6149
    -0.6100  -0.6079  -0.6033  -0.5682  -0.5669  -0.5599  -0.5552  -0.5529
    -0.4803  -0.4754  -0.4746  -0.4737  -0.4657  -0.4639  -0.4290  -0.4169
    -0.4163  -0.3845  -0.3838  -0.3736  -0.2628  -0.2596  -0.1597   0.2540
     0.2553   0.2596   0.2600   0.3204   0.3288   0.7046   0.7091   0.7499
     0.7520   0.8689   0.9432   1.0537   1.0550   1.2774   1.2831   1.9036
     1.9087   2.0663   2.0704   2.2006   2.2079   2.3043   2.3048   2.4586
     2.6956   2.7108   2.8214   3.0454   3.0478   3.1251   3.1271   3.2247
     3.2438   3.4485   3.4530   3.4979   3.6995   3.7025   3.7644   3.7666
     4.0192   4.0268   4.0317   4.2705   4.3092   4.3127   4.3577   4.6892
     4.6959   4.7203   4.8587   5.0316   5.0327   5.1043   5.1144   5.5842
     5.8118   5.8176   5.8256   5.8530   5.8766   5.8918   5.8948   5.9945
     6.0077   6.0253   6.0544   6.0613   6.0881   6.0928   6.1149   6.1182
     6.2313   6.5751   6.5979   6.7224   6.7274   6.7631   6.7699   6.7770
     6.8072   6.8819   6.9709

          k = 0.2500-0.1443 0.1111 (136898 PWs)   bands (ev):

   -18.7189  -6.6689  -6.5572  -5.8767  -5.5887  -5.5270  -5.5255  -4.9885
    -4.9872  -4.8595  -4.8553  -4.7022  -4.6755  -4.6080  -4.5805  -4.5743
    -4.5411  -4.5406  -4.4121  -4.3704  -4.3701  -4.3121  -4.2930  -4.2895
    -4.1874  -4.1868  -4.1519  -4.1504  -4.1502  -4.1249  -4.1026  -4.1019
    -4.0026  -3.9951  -3.9950  -3.9755  -3.9591  -3.9571  -3.9471  -3.9449
    -3.9333  -3.9037  -3.9019  -3.9014  -3.9006  -3.8700  -3.8694  -3.8518
    -3.8504  -3.8408  -3.8009  -3.7978  -3.7658  -3.7532  -3.7477  -3.7421
    -3.7420  -3.6689  -3.6677  -3.6375  -3.6345  -3.6304  -3.5630  -3.5619
    -3.5524  -3.5463  -3.5190  -3.5178  -3.5171  -3.5152  -3.3683  -3.3603
    -3.3399  -3.3387  -3.3344  -3.3189  -3.3143  -3.2930  -3.2899  -3.2461
    -3.2386  -3.2262  -3.2222  -3.2058  -3.1687  -3.1566  -3.1468  -3.1333
    -3.1288  -3.1108  -3.0886  -3.0854  -3.0801  -3.0730  -3.0640  -3.0393
    -3.0255  -3.0208  -3.0054  -3.0025  -2.9998  -2.9966  -2.9689  -2.9213
    -2.9206  -2.9105  -2.8882  -2.8747  -2.8299  -2.8254  -2.7985  -2.7957
    -2.7851  -2.7838  -2.7750  -2.7503  -2.7494  -2.7385  -2.7221  -2.6995
    -2.6986  -2.6923  -2.6764  -2.6758  -2.6663  -2.6643  -2.6607  -2.6569
    -2.6507  -2.6053  -2.5751  -2.5745  -2.5562  -2.5440  -2.5396  -2.5359
    -2.5295  -2.5288  -2.5276  -2.4997  -2.4987  -2.4943  -2.4882  -2.4853
    -2.4728  -2.4451  -2.4441  -2.4426  -2.4418  -2.4384  -2.3957  -2.3661
    -2.3641  -2.3630  -2.3573  -2.3480  -2.3398  -2.3367  -2.3188  -2.3187
    -2.2887  -2.2849  -2.2840  -2.2671  -2.2668  -2.2655  -2.2349  -2.2319
    -2.1949  -2.1874  -2.1841  -2.1809  -2.1805  -2.1756  -2.1749  -2.1708
    -2.1703  -2.1646  -2.1638  -2.1478  -2.1474  -2.0240  -2.0227  -1.9894
    -1.9831  -1.9817  -1.9742  -1.9733  -1.9603  -1.9584  -1.9546  -1.9535
    -1.9486  -1.9298  -1.9258  -1.9243  -1.9118  -1.9087  -1.9018  -1.8879
    -1.8841  -1.8593  -1.8574  -1.8299  -1.8281  -1.8162  -1.8075  -1.7887
    -1.7880  -1.7859  -1.7692  -1.7559  -1.7542  -1.7480  -1.7470  -1.7230
    -1.7223  -1.7064  -1.7056  -1.6733  -1.6668  -1.6626  -1.6150  -1.6130
    -1.5984  -1.5972  -1.5912  -1.5712  -1.5681  -1.5385  -1.5360  -1.5337
    -1.5008  -1.4936  -1.4912  -1.4755  -1.4744  -1.4525  -1.4492  -1.4440
    -1.4201  -1.4155  -1.4143  -1.3552  -1.3513  -1.3419  -1.3394  -1.3255
    -1.3236  -1.3101  -1.3097  -1.2918  -1.2787  -1.2517  -1.2507  -1.2383
    -1.2080  -1.2017  -1.1993  -1.1892  -1.1886  -1.1865  -1.1830  -1.1810
    -1.1667  -1.1416  -1.1392  -1.1300  -1.1242  -1.1223  -1.1168  -1.1025
    -1.0833  -1.0759  -1.0592  -1.0573  -0.9695  -0.9574  -0.9508  -0.9493
    -0.9456  -0.9407  -0.9370  -0.9172  -0.9156  -0.9007  -0.8989  -0.8850
    -0.8841  -0.8772  -0.8594  -0.8532  -0.8520  -0.8443  -0.7736  -0.7707
    -0.7480  -0.7355  -0.7327  -0.7271  -0.7247  -0.7236  -0.7226  -0.7154
    -0.7088  -0.6925  -0.6683  -0.6631  -0.6484  -0.6361  -0.6290  -0.6236
    -0.6227  -0.6117  -0.6098  -0.6081  -0.6074  -0.6002  -0.5903  -0.5860
    -0.5849  -0.5558  -0.5534  -0.5530  -0.5409  -0.5405  -0.5214  -0.4897
    -0.4892  -0.4802  -0.4796  -0.4122  -0.4119  -0.3767  -0.3758  -0.3190
    -0.3179  -0.3159  -0.2972  -0.2924  -0.0586  -0.0535   0.2837   0.2842
     0.3782   0.3834   0.5727   0.5939   0.6015   0.7305   0.7322   1.1640
     1.1647   1.1805   1.4465   1.4739   1.4747   1.7554   1.7583   1.8286
     1.8295   1.8583   1.8595   2.0845   2.0864   2.1748   2.1760   2.2573
     2.3176   2.3191   2.4774   2.5797   3.0129   3.0176   3.0202   3.0207
     3.0734   3.0757   3.3676   3.3684   3.6514   3.6526   3.7654   4.0641
     4.1048   4.1078   4.3332   4.3460   4.4059   4.4067   4.4997   4.6172
     4.6184   4.7333   4.7353   5.0366   5.1002   5.1093   5.2842   5.2957
     5.4582   5.4915   5.4969   5.5223   5.5229   5.5819   5.5857   5.6486
     5.9996   6.0499   6.1903   6.2686   6.3051   6.3237   6.3278   6.3424
     6.3439   6.5695   6.5813   6.6383   6.7579   6.8139   6.8217   6.8692
     6.8868   7.1178   7.1261

          k =-0.2500-0.4330 0.1111 (136853 PWs)   bands (ev):

   -18.7189  -6.5575  -6.4587  -6.0608  -6.0579  -5.3848  -5.0488  -5.0474
    -5.0160  -5.0072  -4.6481  -4.6468  -4.5493  -4.5484  -4.5348  -4.5111
    -4.4962  -4.3825  -4.3800  -4.3568  -4.3135  -4.3130  -4.2487  -4.2442
    -4.2408  -4.2378  -4.2161  -4.2121  -4.2091  -4.1493  -4.1373  -4.1085
    -4.1075  -4.0965  -4.0955  -4.0730  -4.0722  -4.0499  -4.0416  -4.0414
    -4.0167  -3.9634  -3.9625  -3.9153  -3.9135  -3.8593  -3.8573  -3.8062
    -3.8013  -3.8003  -3.7997  -3.7646  -3.7308  -3.7289  -3.7192  -3.7184
    -3.7172  -3.6935  -3.6868  -3.6786  -3.6208  -3.6188  -3.6119  -3.5921
    -3.5837  -3.5172  -3.5108  -3.4822  -3.4777  -3.4528  -3.4498  -3.4354
    -3.4228  -3.3661  -3.3611  -3.3445  -3.3421  -3.2936  -3.2899  -3.2875
    -3.2469  -3.2279  -3.2168  -3.2130  -3.2065  -3.1981  -3.1962  -3.1867
    -3.1860  -3.1771  -3.1409  -3.1122  -3.0958  -3.0848  -3.0825  -3.0740
    -3.0546  -3.0478  -3.0438  -3.0060  -2.9786  -2.9726  -2.9601  -2.9317
    -2.9202  -2.9128  -2.9029  -2.8866  -2.8767  -2.8510  -2.8185  -2.8159
    -2.7960  -2.7866  -2.7743  -2.7716  -2.7243  -2.7206  -2.6900  -2.6679
    -2.6659  -2.6453  -2.6397  -2.6323  -2.6280  -2.6205  -2.5998  -2.5993
    -2.5527  -2.5515  -2.5510  -2.5365  -2.5351  -2.5277  -2.5222  -2.5202
    -2.5180  -2.5149  -2.5104  -2.5052  -2.4984  -2.4922  -2.4665  -2.4633
    -2.4607  -2.4579  -2.4571  -2.4551  -2.4510  -2.4299  -2.4262  -2.4128
    -2.4112  -2.3923  -2.3908  -2.3846  -2.3819  -2.3809  -2.3787  -2.3647
    -2.3593  -2.3584  -2.3538  -2.3395  -2.3159  -2.3125  -2.2738  -2.2736
    -2.2521  -2.2498  -2.2236  -2.2194  -2.1962  -2.1933  -2.1789  -2.1719
    -2.1459  -2.1304  -2.1254  -2.1177  -2.1153  -2.1112  -2.1058  -2.1037
    -2.0768  -2.0720  -2.0640  -2.0091  -2.0041  -2.0019  -1.9994  -1.9947
    -1.9690  -1.9437  -1.9424  -1.9164  -1.9128  -1.8580  -1.8553  -1.8247
    -1.8074  -1.8026  -1.7489  -1.7463  -1.7377  -1.7332  -1.7246  -1.7225
    -1.7181  -1.7135  -1.7086  -1.6590  -1.6517  -1.6428  -1.6409  -1.6399
    -1.6266  -1.6202  -1.5913  -1.5866  -1.5710  -1.5690  -1.5685  -1.5609
    -1.5567  -1.5510  -1.5455  -1.5276  -1.5264  -1.4907  -1.4817  -1.4776
    -1.4738  -1.4563  -1.4387  -1.4028  -1.3969  -1.3722  -1.3677  -1.3661
    -1.3374  -1.2911  -1.2843  -1.2823  -1.2798  -1.2778  -1.2746  -1.2667
    -1.2522  -1.2475  -1.2127  -1.2062  -1.1806  -1.1777  -1.1733  -1.1704
    -1.1653  -1.1521  -1.1476  -1.1462  -1.1431  -1.1416  -1.1061  -1.1037
    -1.1028  -1.1009  -1.0759  -1.0704  -1.0678  -1.0422  -1.0386  -1.0326
    -0.9919  -0.9847  -0.9807  -0.9464  -0.9409  -0.9302  -0.9275  -0.9213
    -0.9206  -0.9173  -0.9163  -0.9065  -0.9044  -0.8819  -0.8804  -0.8762
    -0.8743  -0.8737  -0.8375  -0.8370  -0.8363  -0.8251  -0.8115  -0.8041
    -0.8016  -0.7908  -0.7385  -0.7334  -0.7308  -0.7254  -0.7238  -0.7210
    -0.7176  -0.7013  -0.6972  -0.6956  -0.6888  -0.6875  -0.6858  -0.6598
    -0.6474  -0.6447  -0.6424  -0.6358  -0.6350  -0.6298  -0.6239  -0.6149
    -0.6100  -0.6079  -0.6033  -0.5682  -0.5669  -0.5599  -0.5552  -0.5529
    -0.4803  -0.4754  -0.4746  -0.4737  -0.4657  -0.4639  -0.4290  -0.4169
    -0.4163  -0.3845  -0.3838  -0.3736  -0.2628  -0.2596  -0.1597   0.2540
     0.2552   0.2596   0.2600   0.3204   0.3288   0.7046   0.7091   0.7499
     0.7520   0.8689   0.9432   1.0537   1.0550   1.2774   1.2831   1.9036
     1.9087   2.0663   2.0704   2.2006   2.2079   2.3043   2.3048   2.4586
     2.6956   2.7108   2.8214   3.0454   3.0478   3.1251   3.1271   3.2247
     3.2438   3.4485   3.4530   3.4979   3.6995   3.7025   3.7644   3.7666
     4.0192   4.0268   4.0317   4.2705   4.3092   4.3127   4.3577   4.6892
     4.6959   4.7203   4.8587   5.0316   5.0327   5.1043   5.1144   5.5842
     5.8118   5.8176   5.8256   5.8530   5.8766   5.8918   5.8948   5.9945
     6.0077   6.0253   6.0544   6.0613   6.0881   6.0928   6.1149   6.1182
     6.2312   6.5750   6.5980   6.7226   6.7272   6.7631   6.7700   6.7770
     6.8068   6.8819   6.9711

          k =-0.2500 0.4330-0.1111 (136853 PWs)   bands (ev):

   -18.7189  -6.5578  -6.4584  -6.0614  -6.0574  -5.3846  -5.0498  -5.0466
    -5.0165  -5.0067  -4.6486  -4.6460  -4.5493  -4.5484  -4.5344  -4.5111
    -4.4959  -4.3829  -4.3802  -4.3571  -4.3135  -4.3130  -4.2491  -4.2438
    -4.2425  -4.2368  -4.2160  -4.2133  -4.2078  -4.1501  -4.1365  -4.1091
    -4.1067  -4.0967  -4.0951  -4.0730  -4.0720  -4.0499  -4.0418  -4.0412
    -4.0167  -3.9632  -3.9626  -3.9159  -3.9129  -3.8581  -3.8569  -3.8054
    -3.8014  -3.8002  -3.7995  -3.7648  -3.7305  -3.7280  -3.7205  -3.7188
    -3.7169  -3.6971  -3.6858  -3.6785  -3.6206  -3.6182  -3.6139  -3.5915
    -3.5834  -3.5193  -3.5104  -3.4847  -3.4766  -3.4522  -3.4493  -3.4353
    -3.4223  -3.3646  -3.3615  -3.3440  -3.3427  -3.2936  -3.2897  -3.2877
    -3.2464  -3.2288  -3.2190  -3.2118  -3.2072  -3.1979  -3.1964  -3.1863
    -3.1858  -3.1771  -3.1407  -3.1129  -3.0963  -3.0850  -3.0827  -3.0715
    -3.0548  -3.0490  -3.0424  -3.0051  -2.9790  -2.9729  -2.9593  -2.9317
    -2.9198  -2.9134  -2.9035  -2.8877  -2.8750  -2.8510  -2.8180  -2.8156
    -2.7961  -2.7867  -2.7742  -2.7718  -2.7253  -2.7200  -2.6899  -2.6682
    -2.6653  -2.6457  -2.6403  -2.6327  -2.6277  -2.6205  -2.6005  -2.5986
    -2.5524  -2.5515  -2.5507  -2.5372  -2.5347  -2.5278  -2.5222  -2.5195
    -2.5184  -2.5149  -2.5102  -2.5032  -2.4985  -2.4925  -2.4668  -2.4627
    -2.4602  -2.4581  -2.4577  -2.4547  -2.4510  -2.4307  -2.4264  -2.4138
    -2.4103  -2.3926  -2.3905  -2.3846  -2.3825  -2.3810  -2.3783  -2.3654
    -2.3592  -2.3573  -2.3546  -2.3394  -2.3161  -2.3124  -2.2745  -2.2728
    -2.2527  -2.2494  -2.2231  -2.2190  -2.1973  -2.1926  -2.1791  -2.1720
    -2.1457  -2.1304  -2.1255  -2.1166  -2.1159  -2.1108  -2.1059  -2.1041
    -2.0764  -2.0722  -2.0634  -2.0082  -2.0043  -2.0018  -2.0002  -1.9951
    -1.9686  -1.9441  -1.9418  -1.9169  -1.9128  -1.8580  -1.8550  -1.8252
    -1.8068  -1.8026  -1.7493  -1.7463  -1.7379  -1.7326  -1.7250  -1.7218
    -1.7181  -1.7141  -1.7082  -1.6617  -1.6511  -1.6419  -1.6409  -1.6397
    -1.6286  -1.6193  -1.5899  -1.5864  -1.5718  -1.5693  -1.5679  -1.5606
    -1.5558  -1.5518  -1.5447  -1.5289  -1.5252  -1.4924  -1.4810  -1.4787
    -1.4727  -1.4561  -1.4386  -1.4020  -1.3970  -1.3715  -1.3678  -1.3656
    -1.3373  -1.2922  -1.2840  -1.2827  -1.2794  -1.2774  -1.2746  -1.2676
    -1.2523  -1.2473  -1.2135  -1.2054  -1.1815  -1.1766  -1.1748  -1.1696
    -1.1649  -1.1533  -1.1476  -1.1460  -1.1421  -1.1410  -1.1060  -1.1036
    -1.1021  -1.1015  -1.0791  -1.0711  -1.0667  -1.0417  -1.0394  -1.0329
    -0.9936  -0.9835  -0.9796  -0.9468  -0.9395  -0.9306  -0.9264  -0.9222
    -0.9215  -0.9172  -0.9160  -0.9053  -0.9045  -0.8828  -0.8802  -0.8760
    -0.8755  -0.8727  -0.8420  -0.8373  -0.8366  -0.8235  -0.8083  -0.8034
    -0.8016  -0.7907  -0.7398  -0.7341  -0.7326  -0.7266  -0.7235  -0.7210
    -0.7173  -0.7000  -0.6976  -0.6941  -0.6884  -0.6874  -0.6849  -0.6562
    -0.6466  -0.6443  -0.6387  -0.6357  -0.6333  -0.6298  -0.6220  -0.6141
    -0.6113  -0.6104  -0.6054  -0.5687  -0.5665  -0.5599  -0.5552  -0.5540
    -0.4816  -0.4754  -0.4744  -0.4738  -0.4657  -0.4635  -0.4289  -0.4176
    -0.4159  -0.3842  -0.3806  -0.3768  -0.2685  -0.2585  -0.1618   0.2547
     0.2556   0.2589   0.2598   0.3251   0.3261   0.7079   0.7090   0.7483
     0.7521   0.8681   0.9423   1.0503   1.0564   1.2796   1.2815   1.9055
     1.9084   2.0651   2.0707   2.2014   2.2068   2.3039   2.3051   2.4587
     2.6968   2.7110   2.8221   3.0435   3.0505   3.1237   3.1285   3.2272
     3.2436   3.4418   3.4596   3.4986   3.6989   3.7029   3.7592   3.7695
     4.0193   4.0274   4.0323   4.2708   4.3068   4.3137   4.3578   4.6893
     4.6958   4.7213   4.8536   5.0295   5.0340   5.0885   5.1226   5.5908
     5.8063   5.8098   5.8283   5.8444   5.8890   5.8914   5.8974   5.9961
     6.0032   6.0287   6.0573   6.0623   6.0879   6.0973   6.1157   6.1195
     6.2301   6.5589   6.6126   6.6856   6.7481   6.7602   6.7723   6.7786
     6.8072   6.8870   6.9830

          k = 0.2500-0.4330-0.1111 (136853 PWs)   bands (ev):

   -18.7189  -6.5578  -6.4584  -6.0614  -6.0574  -5.3846  -5.0498  -5.0466
    -5.0165  -5.0067  -4.6486  -4.6460  -4.5493  -4.5484  -4.5344  -4.5111
    -4.4959  -4.3829  -4.3802  -4.3571  -4.3135  -4.3130  -4.2491  -4.2438
    -4.2425  -4.2368  -4.2160  -4.2133  -4.2078  -4.1501  -4.1365  -4.1091
    -4.1067  -4.0967  -4.0951  -4.0730  -4.0720  -4.0499  -4.0418  -4.0412
    -4.0167  -3.9632  -3.9626  -3.9159  -3.9129  -3.8581  -3.8569  -3.8054
    -3.8014  -3.8002  -3.7995  -3.7648  -3.7305  -3.7280  -3.7205  -3.7188
    -3.7169  -3.6971  -3.6858  -3.6785  -3.6206  -3.6182  -3.6139  -3.5915
    -3.5834  -3.5193  -3.5104  -3.4847  -3.4766  -3.4522  -3.4493  -3.4353
    -3.4223  -3.3646  -3.3615  -3.3440  -3.3427  -3.2936  -3.2897  -3.2877
    -3.2464  -3.2288  -3.2190  -3.2118  -3.2072  -3.1979  -3.1964  -3.1863
    -3.1858  -3.1771  -3.1407  -3.1129  -3.0963  -3.0850  -3.0827  -3.0715
    -3.0548  -3.0490  -3.0424  -3.0051  -2.9790  -2.9729  -2.9593  -2.9317
    -2.9198  -2.9134  -2.9035  -2.8877  -2.8750  -2.8510  -2.8180  -2.8156
    -2.7961  -2.7867  -2.7742  -2.7718  -2.7253  -2.7200  -2.6899  -2.6682
    -2.6653  -2.6457  -2.6403  -2.6327  -2.6277  -2.6205  -2.6005  -2.5986
    -2.5524  -2.5515  -2.5507  -2.5372  -2.5347  -2.5278  -2.5222  -2.5195
    -2.5184  -2.5149  -2.5102  -2.5032  -2.4985  -2.4925  -2.4668  -2.4627
    -2.4602  -2.4581  -2.4577  -2.4547  -2.4510  -2.4307  -2.4264  -2.4138
    -2.4103  -2.3926  -2.3905  -2.3846  -2.3825  -2.3810  -2.3783  -2.3654
    -2.3592  -2.3573  -2.3546  -2.3394  -2.3161  -2.3124  -2.2745  -2.2728
    -2.2527  -2.2494  -2.2231  -2.2190  -2.1973  -2.1926  -2.1791  -2.1720
    -2.1457  -2.1304  -2.1255  -2.1166  -2.1159  -2.1108  -2.1059  -2.1041
    -2.0764  -2.0722  -2.0634  -2.0082  -2.0043  -2.0018  -2.0002  -1.9951
    -1.9686  -1.9441  -1.9418  -1.9169  -1.9128  -1.8580  -1.8550  -1.8252
    -1.8068  -1.8026  -1.7493  -1.7463  -1.7379  -1.7326  -1.7250  -1.7218
    -1.7181  -1.7141  -1.7082  -1.6617  -1.6511  -1.6419  -1.6409  -1.6397
    -1.6286  -1.6193  -1.5899  -1.5864  -1.5718  -1.5693  -1.5679  -1.5606
    -1.5558  -1.5518  -1.5447  -1.5289  -1.5252  -1.4924  -1.4810  -1.4787
    -1.4727  -1.4561  -1.4386  -1.4020  -1.3970  -1.3715  -1.3678  -1.3656
    -1.3373  -1.2922  -1.2840  -1.2827  -1.2794  -1.2774  -1.2746  -1.2676
    -1.2523  -1.2473  -1.2135  -1.2054  -1.1815  -1.1766  -1.1748  -1.1696
    -1.1649  -1.1533  -1.1476  -1.1460  -1.1421  -1.1410  -1.1060  -1.1036
    -1.1021  -1.1015  -1.0791  -1.0711  -1.0667  -1.0417  -1.0394  -1.0329
    -0.9936  -0.9835  -0.9796  -0.9468  -0.9395  -0.9306  -0.9264  -0.9222
    -0.9215  -0.9172  -0.9160  -0.9053  -0.9045  -0.8828  -0.8802  -0.8760
    -0.8755  -0.8727  -0.8420  -0.8373  -0.8366  -0.8235  -0.8083  -0.8034
    -0.8016  -0.7907  -0.7398  -0.7341  -0.7326  -0.7266  -0.7235  -0.7210
    -0.7173  -0.7000  -0.6976  -0.6941  -0.6884  -0.6874  -0.6849  -0.6562
    -0.6466  -0.6443  -0.6387  -0.6357  -0.6333  -0.6298  -0.6220  -0.6141
    -0.6113  -0.6104  -0.6054  -0.5687  -0.5665  -0.5599  -0.5552  -0.5540
    -0.4816  -0.4754  -0.4744  -0.4738  -0.4657  -0.4635  -0.4289  -0.4176
    -0.4159  -0.3842  -0.3806  -0.3768  -0.2685  -0.2585  -0.1618   0.2547
     0.2556   0.2589   0.2598   0.3251   0.3261   0.7079   0.7090   0.7483
     0.7521   0.8681   0.9423   1.0503   1.0564   1.2796   1.2815   1.9055
     1.9084   2.0651   2.0707   2.2014   2.2068   2.3039   2.3051   2.4587
     2.6968   2.7110   2.8221   3.0435   3.0505   3.1237   3.1285   3.2272
     3.2436   3.4418   3.4596   3.4986   3.6989   3.7029   3.7592   3.7695
     4.0193   4.0274   4.0323   4.2708   4.3068   4.3137   4.3578   4.6893
     4.6958   4.7213   4.8536   5.0295   5.0340   5.0885   5.1226   5.5908
     5.8063   5.8097   5.8283   5.8444   5.8890   5.8914   5.8974   5.9961
     6.0032   6.0287   6.0573   6.0623   6.0879   6.0973   6.1157   6.1195
     6.2301   6.5589   6.6126   6.6857   6.7482   6.7602   6.7722   6.7786
     6.8074   6.8870   6.9827

          k = 0.5000 0.0000 0.1111 (136853 PWs)   bands (ev):

   -18.7189  -6.5574  -6.4588  -6.0622  -6.0565  -5.3848  -5.0487  -5.0476
    -5.0171  -5.0060  -4.6483  -4.6465  -4.5494  -4.5484  -4.5345  -4.5111
    -4.4962  -4.3829  -4.3797  -4.3569  -4.3135  -4.3131  -4.2482  -4.2441
    -4.2408  -4.2382  -4.2160  -4.2127  -4.2086  -4.1496  -4.1368  -4.1092
    -4.1066  -4.0963  -4.0956  -4.0729  -4.0721  -4.0499  -4.0418  -4.0413
    -4.0168  -3.9636  -3.9624  -3.9163  -3.9126  -3.8595  -3.8574  -3.8067
    -3.8009  -3.8001  -3.7999  -3.7648  -3.7307  -3.7293  -3.7190  -3.7182
    -3.7175  -3.6923  -3.6872  -3.6789  -3.6210  -3.6189  -3.6114  -3.5920
    -3.5835  -3.5166  -3.5115  -3.4815  -3.4780  -3.4533  -3.4493  -3.4353
    -3.4230  -3.3666  -3.3611  -3.3444  -3.3418  -3.2935  -3.2901  -3.2874
    -3.2469  -3.2279  -3.2163  -3.2135  -3.2059  -3.1984  -3.1967  -3.1864
    -3.1854  -3.1774  -3.1406  -3.1124  -3.0955  -3.0845  -3.0824  -3.0748
    -3.0546  -3.0477  -3.0440  -3.0064  -2.9779  -2.9730  -2.9605  -2.9316
    -2.9203  -2.9122  -2.9028  -2.8866  -2.8773  -2.8511  -2.8185  -2.8157
    -2.7960  -2.7867  -2.7744  -2.7716  -2.7240  -2.7208  -2.6899  -2.6679
    -2.6663  -2.6453  -2.6398  -2.6324  -2.6277  -2.6206  -2.6002  -2.5991
    -2.5524  -2.5516  -2.5508  -2.5366  -2.5349  -2.5277  -2.5220  -2.5206
    -2.5177  -2.5149  -2.5104  -2.5057  -2.4978  -2.4925  -2.4665  -2.4634
    -2.4605  -2.4580  -2.4568  -2.4549  -2.4509  -2.4300  -2.4264  -2.4126
    -2.4113  -2.3926  -2.3907  -2.3846  -2.3820  -2.3809  -2.3787  -2.3643
    -2.3591  -2.3586  -2.3542  -2.3394  -2.3160  -2.3130  -2.2747  -2.2728
    -2.2521  -2.2498  -2.2234  -2.2192  -2.1961  -2.1932  -2.1789  -2.1717
    -2.1458  -2.1302  -2.1255  -2.1179  -2.1151  -2.1113  -2.1061  -2.1035
    -2.0768  -2.0716  -2.0640  -2.0095  -2.0040  -2.0023  -1.9994  -1.9946
    -1.9692  -1.9443  -1.9417  -1.9162  -1.9129  -1.8583  -1.8548  -1.8250
    -1.8074  -1.8024  -1.7491  -1.7459  -1.7375  -1.7331  -1.7247  -1.7224
    -1.7182  -1.7136  -1.7087  -1.6580  -1.6521  -1.6430  -1.6410  -1.6402
    -1.6262  -1.6202  -1.5915  -1.5868  -1.5708  -1.5689  -1.5686  -1.5607
    -1.5570  -1.5510  -1.5454  -1.5270  -1.5269  -1.4901  -1.4816  -1.4773
    -1.4739  -1.4563  -1.4387  -1.4034  -1.3967  -1.3725  -1.3677  -1.3663
    -1.3375  -1.2909  -1.2841  -1.2825  -1.2801  -1.2783  -1.2748  -1.2666
    -1.2522  -1.2472  -1.2127  -1.2061  -1.1806  -1.1780  -1.1729  -1.1707
    -1.1654  -1.1518  -1.1479  -1.1462  -1.1430  -1.1415  -1.1061  -1.1035
    -1.1030  -1.1010  -1.0751  -1.0705  -1.0676  -1.0426  -1.0383  -1.0324
    -0.9915  -0.9848  -0.9810  -0.9464  -0.9411  -0.9304  -0.9275  -0.9210
    -0.9202  -0.9173  -0.9164  -0.9069  -0.9044  -0.8821  -0.8802  -0.8764
    -0.8744  -0.8737  -0.8373  -0.8369  -0.8344  -0.8260  -0.8125  -0.8042
    -0.8017  -0.7905  -0.7382  -0.7332  -0.7298  -0.7255  -0.7236  -0.7211
    -0.7176  -0.7018  -0.6972  -0.6961  -0.6888  -0.6873  -0.6859  -0.6609
    -0.6476  -0.6445  -0.6431  -0.6359  -0.6349  -0.6300  -0.6240  -0.6150
    -0.6102  -0.6076  -0.6025  -0.5682  -0.5671  -0.5600  -0.5553  -0.5527
    -0.4800  -0.4755  -0.4746  -0.4734  -0.4658  -0.4639  -0.4290  -0.4167
    -0.4165  -0.3849  -0.3839  -0.3734  -0.2621  -0.2594  -0.1591   0.2540
     0.2553   0.2597   0.2598   0.3191   0.3294   0.7041   0.7092   0.7493
     0.7526   0.8690   0.9435   1.0540   1.0555   1.2769   1.2835   1.9022
     1.9094   2.0651   2.0719   2.1992   2.2093   2.3037   2.3053   2.4584
     2.6957   2.7107   2.8213   3.0451   3.0479   3.1241   3.1282   3.2242
     3.2438   3.4493   3.4521   3.4979   3.6992   3.7029   3.7633   3.7681
     4.0189   4.0260   4.0325   4.2709   4.3086   4.3136   4.3573   4.6887
     4.6964   4.7196   4.8589   5.0314   5.0331   5.1014   5.1193   5.5827
     5.8121   5.8165   5.8267   5.8549   5.8735   5.8919   5.8943   5.9924
     6.0084   6.0261   6.0537   6.0627   6.0879   6.0913   6.1149   6.1196
     6.2315   6.5804   6.5942   6.7181   6.7339   6.7653   6.7697   6.7764
     6.8073   6.8815   6.9711

          k =-0.5000 0.0000 0.1111 (136853 PWs)   bands (ev):

   -18.7189  -6.5574  -6.4588  -6.0622  -6.0565  -5.3848  -5.0487  -5.0476
    -5.0171  -5.0060  -4.6483  -4.6465  -4.5494  -4.5484  -4.5345  -4.5111
    -4.4962  -4.3829  -4.3797  -4.3569  -4.3135  -4.3131  -4.2482  -4.2441
    -4.2408  -4.2382  -4.2160  -4.2127  -4.2086  -4.1496  -4.1368  -4.1092
    -4.1066  -4.0963  -4.0956  -4.0729  -4.0721  -4.0499  -4.0418  -4.0413
    -4.0168  -3.9636  -3.9624  -3.9163  -3.9126  -3.8595  -3.8574  -3.8067
    -3.8009  -3.8001  -3.7999  -3.7648  -3.7307  -3.7293  -3.7190  -3.7182
    -3.7175  -3.6923  -3.6872  -3.6789  -3.6210  -3.6189  -3.6114  -3.5920
    -3.5835  -3.5166  -3.5115  -3.4815  -3.4780  -3.4533  -3.4493  -3.4353
    -3.4230  -3.3666  -3.3611  -3.3444  -3.3418  -3.2935  -3.2901  -3.2874
    -3.2469  -3.2279  -3.2163  -3.2135  -3.2059  -3.1984  -3.1967  -3.1864
    -3.1854  -3.1774  -3.1406  -3.1124  -3.0955  -3.0845  -3.0824  -3.0748
    -3.0546  -3.0477  -3.0440  -3.0064  -2.9779  -2.9730  -2.9605  -2.9316
    -2.9203  -2.9122  -2.9028  -2.8866  -2.8773  -2.8511  -2.8185  -2.8157
    -2.7960  -2.7867  -2.7744  -2.7716  -2.7240  -2.7208  -2.6899  -2.6679
    -2.6663  -2.6453  -2.6398  -2.6324  -2.6277  -2.6206  -2.6002  -2.5991
    -2.5524  -2.5516  -2.5508  -2.5366  -2.5349  -2.5277  -2.5220  -2.5206
    -2.5177  -2.5149  -2.5104  -2.5057  -2.4978  -2.4925  -2.4665  -2.4634
    -2.4605  -2.4580  -2.4568  -2.4549  -2.4509  -2.4300  -2.4264  -2.4126
    -2.4113  -2.3926  -2.3907  -2.3846  -2.3820  -2.3809  -2.3787  -2.3643
    -2.3591  -2.3586  -2.3542  -2.3394  -2.3160  -2.3130  -2.2747  -2.2728
    -2.2521  -2.2498  -2.2234  -2.2192  -2.1961  -2.1932  -2.1789  -2.1717
    -2.1458  -2.1302  -2.1255  -2.1179  -2.1151  -2.1113  -2.1061  -2.1035
    -2.0768  -2.0716  -2.0640  -2.0095  -2.0040  -2.0023  -1.9994  -1.9946
    -1.9692  -1.9443  -1.9417  -1.9162  -1.9129  -1.8583  -1.8548  -1.8250
    -1.8074  -1.8024  -1.7491  -1.7459  -1.7375  -1.7331  -1.7247  -1.7224
    -1.7182  -1.7136  -1.7087  -1.6580  -1.6521  -1.6430  -1.6410  -1.6402
    -1.6262  -1.6202  -1.5915  -1.5868  -1.5708  -1.5689  -1.5686  -1.5607
    -1.5570  -1.5510  -1.5454  -1.5270  -1.5269  -1.4901  -1.4816  -1.4773
    -1.4739  -1.4563  -1.4387  -1.4034  -1.3967  -1.3725  -1.3677  -1.3663
    -1.3375  -1.2909  -1.2841  -1.2825  -1.2801  -1.2783  -1.2748  -1.2666
    -1.2522  -1.2472  -1.2127  -1.2061  -1.1806  -1.1780  -1.1729  -1.1707
    -1.1654  -1.1518  -1.1479  -1.1462  -1.1430  -1.1415  -1.1061  -1.1035
    -1.1030  -1.1010  -1.0751  -1.0705  -1.0676  -1.0426  -1.0383  -1.0324
    -0.9915  -0.9848  -0.9810  -0.9464  -0.9411  -0.9304  -0.9275  -0.9210
    -0.9202  -0.9173  -0.9164  -0.9069  -0.9044  -0.8821  -0.8802  -0.8764
    -0.8744  -0.8737  -0.8373  -0.8369  -0.8344  -0.8260  -0.8125  -0.8042
    -0.8017  -0.7905  -0.7382  -0.7332  -0.7298  -0.7255  -0.7236  -0.7211
    -0.7176  -0.7018  -0.6972  -0.6961  -0.6888  -0.6873  -0.6859  -0.6609
    -0.6476  -0.6445  -0.6431  -0.6359  -0.6349  -0.6300  -0.6240  -0.6150
    -0.6102  -0.6076  -0.6025  -0.5682  -0.5671  -0.5600  -0.5553  -0.5527
    -0.4800  -0.4755  -0.4746  -0.4734  -0.4658  -0.4639  -0.4290  -0.4167
    -0.4165  -0.3849  -0.3839  -0.3734  -0.2621  -0.2594  -0.1591   0.2540
     0.2553   0.2597   0.2598   0.3191   0.3294   0.7041   0.7092   0.7493
     0.7526   0.8690   0.9435   1.0540   1.0555   1.2769   1.2835   1.9022
     1.9094   2.0651   2.0719   2.1992   2.2093   2.3037   2.3053   2.4584
     2.6957   2.7107   2.8213   3.0451   3.0479   3.1241   3.1282   3.2242
     3.2438   3.4493   3.4521   3.4979   3.6992   3.7029   3.7633   3.7681
     4.0189   4.0260   4.0325   4.2709   4.3086   4.3136   4.3573   4.6887
     4.6964   4.7196   4.8589   5.0314   5.0331   5.1014   5.1193   5.5827
     5.8121   5.8165   5.8267   5.8549   5.8735   5.8919   5.8943   5.9924
     6.0084   6.0261   6.0537   6.0627   6.0879   6.0913   6.1149   6.1196
     6.2315   6.5806   6.5941   6.7181   6.7339   6.7653   6.7698   6.7764
     6.8072   6.8815   6.9712

          k =-0.2500 0.1443 0.1111 (136898 PWs)   bands (ev):

   -18.7189  -6.6689  -6.5572  -5.8767  -5.5887  -5.5270  -5.5255  -4.9885
    -4.9872  -4.8595  -4.8553  -4.7022  -4.6755  -4.6080  -4.5805  -4.5743
    -4.5411  -4.5406  -4.4121  -4.3704  -4.3701  -4.3121  -4.2930  -4.2895
    -4.1874  -4.1868  -4.1519  -4.1504  -4.1502  -4.1249  -4.1026  -4.1019
    -4.0026  -3.9951  -3.9950  -3.9755  -3.9591  -3.9571  -3.9471  -3.9449
    -3.9333  -3.9037  -3.9019  -3.9014  -3.9006  -3.8700  -3.8694  -3.8518
    -3.8504  -3.8408  -3.8009  -3.7978  -3.7658  -3.7532  -3.7477  -3.7421
    -3.7420  -3.6689  -3.6677  -3.6375  -3.6345  -3.6304  -3.5630  -3.5619
    -3.5524  -3.5463  -3.5190  -3.5178  -3.5171  -3.5152  -3.3683  -3.3603
    -3.3399  -3.3387  -3.3344  -3.3189  -3.3143  -3.2930  -3.2899  -3.2461
    -3.2386  -3.2262  -3.2222  -3.2058  -3.1687  -3.1566  -3.1468  -3.1333
    -3.1288  -3.1108  -3.0886  -3.0854  -3.0801  -3.0730  -3.0640  -3.0393
    -3.0254  -3.0208  -3.0054  -3.0025  -2.9998  -2.9966  -2.9689  -2.9213
    -2.9206  -2.9105  -2.8882  -2.8747  -2.8299  -2.8254  -2.7985  -2.7957
    -2.7851  -2.7838  -2.7750  -2.7503  -2.7494  -2.7385  -2.7221  -2.6995
    -2.6986  -2.6923  -2.6764  -2.6758  -2.6663  -2.6643  -2.6607  -2.6569
    -2.6507  -2.6053  -2.5751  -2.5745  -2.5562  -2.5440  -2.5396  -2.5359
    -2.5295  -2.5288  -2.5276  -2.4997  -2.4987  -2.4943  -2.4882  -2.4853
    -2.4728  -2.4451  -2.4441  -2.4426  -2.4418  -2.4384  -2.3957  -2.3661
    -2.3641  -2.3630  -2.3573  -2.3480  -2.3398  -2.3367  -2.3188  -2.3187
    -2.2887  -2.2849  -2.2840  -2.2671  -2.2668  -2.2655  -2.2349  -2.2319
    -2.1949  -2.1874  -2.1841  -2.1809  -2.1805  -2.1756  -2.1749  -2.1708
    -2.1703  -2.1646  -2.1638  -2.1478  -2.1474  -2.0240  -2.0227  -1.9894
    -1.9831  -1.9817  -1.9742  -1.9733  -1.9603  -1.9584  -1.9546  -1.9535
    -1.9486  -1.9298  -1.9258  -1.9243  -1.9118  -1.9087  -1.9018  -1.8879
    -1.8841  -1.8593  -1.8574  -1.8299  -1.8281  -1.8162  -1.8075  -1.7887
    -1.7880  -1.7859  -1.7692  -1.7559  -1.7542  -1.7480  -1.7470  -1.7230
    -1.7223  -1.7064  -1.7056  -1.6733  -1.6668  -1.6626  -1.6150  -1.6130
    -1.5984  -1.5972  -1.5912  -1.5712  -1.5681  -1.5385  -1.5360  -1.5337
    -1.5008  -1.4936  -1.4912  -1.4755  -1.4744  -1.4525  -1.4492  -1.4439
    -1.4201  -1.4155  -1.4143  -1.3552  -1.3513  -1.3419  -1.3394  -1.3255
    -1.3236  -1.3101  -1.3097  -1.2918  -1.2787  -1.2517  -1.2507  -1.2383
    -1.2080  -1.2017  -1.1993  -1.1892  -1.1886  -1.1865  -1.1830  -1.1810
    -1.1666  -1.1416  -1.1392  -1.1300  -1.1242  -1.1223  -1.1168  -1.1025
    -1.0833  -1.0759  -1.0592  -1.0573  -0.9695  -0.9574  -0.9508  -0.9493
    -0.9456  -0.9407  -0.9370  -0.9172  -0.9156  -0.9008  -0.8989  -0.8850
    -0.8841  -0.8772  -0.8594  -0.8532  -0.8520  -0.8443  -0.7736  -0.7707
    -0.7480  -0.7355  -0.7327  -0.7271  -0.7247  -0.7236  -0.7226  -0.7154
    -0.7088  -0.6925  -0.6683  -0.6631  -0.6484  -0.6361  -0.6290  -0.6236
    -0.6227  -0.6117  -0.6098  -0.6081  -0.6074  -0.6002  -0.5903  -0.5860
    -0.5849  -0.5558  -0.5534  -0.5530  -0.5409  -0.5405  -0.5214  -0.4897
    -0.4892  -0.4802  -0.4796  -0.4122  -0.4119  -0.3767  -0.3758  -0.3190
    -0.3179  -0.3159  -0.2972  -0.2923  -0.0586  -0.0535   0.2837   0.2842
     0.3782   0.3834   0.5727   0.5939   0.6015   0.7305   0.7322   1.1640
     1.1647   1.1805   1.4465   1.4739   1.4747   1.7554   1.7583   1.8286
     1.8295   1.8583   1.8595   2.0845   2.0864   2.1748   2.1760   2.2573
     2.3176   2.3191   2.4774   2.5797   3.0129   3.0176   3.0202   3.0207
     3.0734   3.0757   3.3676   3.3684   3.6514   3.6526   3.7654   4.0641
     4.1048   4.1078   4.3332   4.3460   4.4059   4.4067   4.4997   4.6172
     4.6184   4.7333   4.7353   5.0366   5.1002   5.1093   5.2842   5.2957
     5.4582   5.4915   5.4969   5.5223   5.5229   5.5819   5.5857   5.6486
     5.9994   6.0497   6.1903   6.2688   6.3054   6.3237   6.3278   6.3424
     6.3439   6.5695   6.5813   6.6388   6.7608   6.8143   6.8216   6.8689
     6.8866   7.1137   7.1225

          k =-0.2500-0.1443-0.1111 (136898 PWs)   bands (ev):

   -18.7189  -6.6688  -6.5572  -5.8768  -5.5887  -5.5267  -5.5256  -4.9883
    -4.9873  -4.8605  -4.8552  -4.7021  -4.6755  -4.6083  -4.5793  -4.5746
    -4.5410  -4.5405  -4.4121  -4.3703  -4.3702  -4.3123  -4.2924  -4.2898
    -4.1873  -4.1868  -4.1519  -4.1506  -4.1501  -4.1252  -4.1023  -4.1021
    -4.0041  -3.9952  -3.9949  -3.9759  -3.9590  -3.9573  -3.9463  -3.9451
    -3.9337  -3.9028  -3.9019  -3.9013  -3.9006  -3.8703  -3.8687  -3.8518
    -3.8504  -3.8423  -3.7996  -3.7968  -3.7672  -3.7517  -3.7481  -3.7421
    -3.7419  -3.6687  -3.6678  -3.6375  -3.6340  -3.6305  -3.5634  -3.5621
    -3.5520  -3.5465  -3.5185  -3.5177  -3.5170  -3.5156  -3.3684  -3.3607
    -3.3394  -3.3391  -3.3343  -3.3185  -3.3145  -3.2916  -3.2901  -3.2455
    -3.2388  -3.2271  -3.2224  -3.2053  -3.1686  -3.1571  -3.1468  -3.1339
    -3.1291  -3.1097  -3.0887  -3.0852  -3.0801  -3.0732  -3.0644  -3.0398
    -3.0255  -3.0194  -3.0061  -3.0019  -2.9999  -2.9969  -2.9695  -2.9214
    -2.9208  -2.9107  -2.8885  -2.8751  -2.8302  -2.8248  -2.7988  -2.7959
    -2.7849  -2.7825  -2.7746  -2.7503  -2.7487  -2.7386  -2.7221  -2.7000
    -2.6992  -2.6931  -2.6764  -2.6758  -2.6661  -2.6648  -2.6613  -2.6556
    -2.6508  -2.6052  -2.5749  -2.5747  -2.5561  -2.5443  -2.5392  -2.5360
    -2.5300  -2.5287  -2.5278  -2.5000  -2.4980  -2.4948  -2.4878  -2.4851
    -2.4726  -2.4453  -2.4449  -2.4426  -2.4417  -2.4381  -2.3959  -2.3658
    -2.3644  -2.3637  -2.3570  -2.3482  -2.3403  -2.3355  -2.3187  -2.3186
    -2.2889  -2.2845  -2.2842  -2.2674  -2.2669  -2.2656  -2.2346  -2.2322
    -2.1946  -2.1873  -2.1837  -2.1815  -2.1808  -2.1756  -2.1752  -2.1708
    -2.1703  -2.1653  -2.1636  -2.1479  -2.1476  -2.0236  -2.0232  -1.9897
    -1.9827  -1.9822  -1.9741  -1.9730  -1.9598  -1.9592  -1.9555  -1.9545
    -1.9474  -1.9299  -1.9250  -1.9241  -1.9130  -1.9072  -1.9018  -1.8877
    -1.8843  -1.8589  -1.8571  -1.8311  -1.8284  -1.8165  -1.8074  -1.7891
    -1.7880  -1.7856  -1.7692  -1.7555  -1.7541  -1.7481  -1.7474  -1.7226
    -1.7222  -1.7061  -1.7050  -1.6729  -1.6677  -1.6632  -1.6152  -1.6119
    -1.5990  -1.5973  -1.5911  -1.5715  -1.5678  -1.5378  -1.5353  -1.5346
    -1.5019  -1.4933  -1.4908  -1.4750  -1.4745  -1.4531  -1.4493  -1.4438
    -1.4193  -1.4159  -1.4147  -1.3543  -1.3523  -1.3413  -1.3401  -1.3262
    -1.3224  -1.3103  -1.3099  -1.2918  -1.2783  -1.2526  -1.2497  -1.2383
    -1.2100  -1.2012  -1.1989  -1.1890  -1.1885  -1.1862  -1.1829  -1.1817
    -1.1666  -1.1422  -1.1381  -1.1261  -1.1246  -1.1227  -1.1168  -1.1032
    -1.0827  -1.0754  -1.0596  -1.0569  -0.9703  -0.9564  -0.9508  -0.9494
    -0.9474  -0.9390  -0.9380  -0.9197  -0.9168  -0.8995  -0.8986  -0.8850
    -0.8848  -0.8783  -0.8567  -0.8556  -0.8521  -0.8440  -0.7756  -0.7700
    -0.7458  -0.7375  -0.7327  -0.7254  -0.7247  -0.7233  -0.7225  -0.7111
    -0.7094  -0.6954  -0.6681  -0.6664  -0.6412  -0.6353  -0.6296  -0.6240
    -0.6222  -0.6132  -0.6098  -0.6094  -0.6075  -0.6015  -0.5910  -0.5863
    -0.5846  -0.5560  -0.5540  -0.5526  -0.5406  -0.5401  -0.5217  -0.4900
    -0.4890  -0.4807  -0.4790  -0.4130  -0.4114  -0.3771  -0.3754  -0.3199
    -0.3170  -0.3158  -0.2948  -0.2924  -0.0637  -0.0512   0.2840   0.2841
     0.3745   0.3867   0.5748   0.5938   0.6023   0.7302   0.7334   1.1638
     1.1644   1.1824   1.4465   1.4734   1.4745   1.7502   1.7632   1.8272
     1.8286   1.8562   1.8626   2.0819   2.0869   2.1756   2.1757   2.2573
     2.3134   2.3237   2.4785   2.5790   3.0129   3.0177   3.0199   3.0206
     3.0695   3.0780   3.3667   3.3688   3.6489   3.6554   3.7631   4.0648
     4.1048   4.1064   4.3344   4.3509   4.4058   4.4070   4.4975   4.6183
     4.6189   4.7349   4.7355   5.0356   5.1071   5.1087   5.2823   5.3034
     5.4524   5.4940   5.4944   5.5203   5.5250   5.5833   5.5870   5.6399
     5.9877   6.0622   6.1858   6.2792   6.3051   6.3184   6.3309   6.3419
     6.3434   6.5799   6.5824   6.6386   6.7635   6.8103   6.8246   6.8550
     6.8947   7.1110   7.1189

          k = 0.2500 0.1443-0.1111 (136898 PWs)   bands (ev):

   -18.7189  -6.6688  -6.5572  -5.8768  -5.5887  -5.5267  -5.5256  -4.9883
    -4.9873  -4.8605  -4.8552  -4.7021  -4.6755  -4.6083  -4.5793  -4.5746
    -4.5410  -4.5405  -4.4121  -4.3703  -4.3702  -4.3123  -4.2924  -4.2898
    -4.1873  -4.1868  -4.1519  -4.1506  -4.1501  -4.1252  -4.1023  -4.1021
    -4.0041  -3.9952  -3.9949  -3.9759  -3.9590  -3.9573  -3.9463  -3.9451
    -3.9337  -3.9028  -3.9019  -3.9013  -3.9006  -3.8703  -3.8687  -3.8518
    -3.8504  -3.8423  -3.7996  -3.7968  -3.7672  -3.7517  -3.7481  -3.7421
    -3.7419  -3.6687  -3.6678  -3.6375  -3.6340  -3.6305  -3.5634  -3.5621
    -3.5520  -3.5465  -3.5185  -3.5177  -3.5170  -3.5156  -3.3684  -3.3607
    -3.3394  -3.3391  -3.3343  -3.3185  -3.3145  -3.2916  -3.2901  -3.2455
    -3.2388  -3.2271  -3.2224  -3.2053  -3.1686  -3.1571  -3.1468  -3.1339
    -3.1291  -3.1097  -3.0887  -3.0852  -3.0801  -3.0732  -3.0644  -3.0398
    -3.0255  -3.0194  -3.0061  -3.0019  -2.9999  -2.9969  -2.9695  -2.9214
    -2.9208  -2.9107  -2.8885  -2.8751  -2.8302  -2.8248  -2.7988  -2.7959
    -2.7849  -2.7825  -2.7746  -2.7503  -2.7487  -2.7386  -2.7221  -2.7000
    -2.6992  -2.6931  -2.6764  -2.6758  -2.6661  -2.6648  -2.6613  -2.6556
    -2.6508  -2.6052  -2.5749  -2.5747  -2.5561  -2.5443  -2.5392  -2.5360
    -2.5300  -2.5287  -2.5278  -2.5000  -2.4980  -2.4948  -2.4878  -2.4851
    -2.4726  -2.4453  -2.4449  -2.4426  -2.4417  -2.4381  -2.3959  -2.3658
    -2.3644  -2.3637  -2.3570  -2.3482  -2.3403  -2.3355  -2.3187  -2.3186
    -2.2889  -2.2845  -2.2842  -2.2674  -2.2669  -2.2656  -2.2346  -2.2322
    -2.1946  -2.1873  -2.1837  -2.1815  -2.1808  -2.1756  -2.1752  -2.1708
    -2.1703  -2.1653  -2.1636  -2.1479  -2.1476  -2.0236  -2.0232  -1.9897
    -1.9827  -1.9822  -1.9741  -1.9730  -1.9598  -1.9592  -1.9555  -1.9545
    -1.9474  -1.9299  -1.9250  -1.9241  -1.9130  -1.9072  -1.9018  -1.8877
    -1.8843  -1.8589  -1.8571  -1.8311  -1.8284  -1.8165  -1.8074  -1.7891
    -1.7880  -1.7856  -1.7692  -1.7555  -1.7541  -1.7481  -1.7474  -1.7226
    -1.7222  -1.7061  -1.7050  -1.6729  -1.6677  -1.6632  -1.6152  -1.6119
    -1.5990  -1.5973  -1.5911  -1.5715  -1.5678  -1.5378  -1.5353  -1.5346
    -1.5019  -1.4933  -1.4908  -1.4750  -1.4745  -1.4531  -1.4493  -1.4438
    -1.4193  -1.4159  -1.4147  -1.3543  -1.3523  -1.3413  -1.3401  -1.3262
    -1.3224  -1.3103  -1.3099  -1.2918  -1.2783  -1.2526  -1.2497  -1.2383
    -1.2100  -1.2012  -1.1989  -1.1890  -1.1885  -1.1862  -1.1829  -1.1816
    -1.1666  -1.1422  -1.1381  -1.1261  -1.1246  -1.1227  -1.1168  -1.1032
    -1.0827  -1.0754  -1.0596  -1.0569  -0.9703  -0.9564  -0.9508  -0.9494
    -0.9474  -0.9390  -0.9380  -0.9198  -0.9168  -0.8995  -0.8986  -0.8850
    -0.8848  -0.8784  -0.8567  -0.8556  -0.8521  -0.8440  -0.7756  -0.7700
    -0.7458  -0.7375  -0.7327  -0.7254  -0.7247  -0.7233  -0.7225  -0.7111
    -0.7094  -0.6954  -0.6681  -0.6664  -0.6412  -0.6353  -0.6296  -0.6240
    -0.6221  -0.6132  -0.6098  -0.6094  -0.6075  -0.6015  -0.5909  -0.5863
    -0.5846  -0.5560  -0.5540  -0.5526  -0.5406  -0.5401  -0.5217  -0.4900
    -0.4890  -0.4807  -0.4790  -0.4130  -0.4114  -0.3771  -0.3754  -0.3199
    -0.3170  -0.3158  -0.2948  -0.2924  -0.0637  -0.0512   0.2840   0.2841
     0.3745   0.3867   0.5748   0.5938   0.6023   0.7302   0.7334   1.1638
     1.1644   1.1824   1.4465   1.4734   1.4745   1.7502   1.7632   1.8272
     1.8285   1.8562   1.8626   2.0819   2.0869   2.1756   2.1757   2.2573
     2.3134   2.3237   2.4785   2.5790   3.0129   3.0177   3.0199   3.0206
     3.0695   3.0780   3.3667   3.3688   3.6489   3.6554   3.7631   4.0648
     4.1048   4.1064   4.3344   4.3509   4.4058   4.4070   4.4975   4.6183
     4.6189   4.7349   4.7355   5.0356   5.1071   5.1087   5.2823   5.3034
     5.4524   5.4940   5.4944   5.5203   5.5250   5.5833   5.5870   5.6400
     5.9879   6.0623   6.1858   6.2790   6.3049   6.3184   6.3309   6.3419
     6.3434   6.5799   6.5824   6.6380   6.7603   6.8103   6.8246   6.8553
     6.8950   7.1148   7.1215

          k = 0.0000-0.2887 0.1111 (136898 PWs)   bands (ev):

   -18.7189  -6.6689  -6.5571  -5.8766  -5.5887  -5.5270  -5.5255  -4.9885
    -4.9872  -4.8595  -4.8552  -4.7022  -4.6755  -4.6081  -4.5809  -4.5742
    -4.5411  -4.5406  -4.4120  -4.3705  -4.3701  -4.3118  -4.2931  -4.2896
    -4.1874  -4.1867  -4.1518  -4.1505  -4.1502  -4.1247  -4.1026  -4.1019
    -4.0022  -3.9952  -3.9950  -3.9753  -3.9592  -3.9572  -3.9473  -3.9449
    -3.9331  -3.9039  -3.9019  -3.9013  -3.9005  -3.8699  -3.8695  -3.8518
    -3.8503  -3.8404  -3.8011  -3.7981  -3.7656  -3.7536  -3.7476  -3.7421
    -3.7419  -3.6689  -3.6678  -3.6375  -3.6344  -3.6303  -3.5631  -3.5620
    -3.5524  -3.5462  -3.5192  -3.5176  -3.5173  -3.5153  -3.3684  -3.3604
    -3.3401  -3.3386  -3.3344  -3.3190  -3.3144  -3.2931  -3.2899  -3.2461
    -3.2387  -3.2261  -3.2221  -3.2058  -3.1685  -3.1565  -3.1469  -3.1332
    -3.1288  -3.1116  -3.0886  -3.0853  -3.0801  -3.0729  -3.0640  -3.0393
    -3.0252  -3.0209  -3.0053  -3.0026  -2.9997  -2.9964  -2.9687  -2.9214
    -2.9206  -2.9106  -2.8882  -2.8747  -2.8300  -2.8253  -2.7984  -2.7955
    -2.7849  -2.7839  -2.7751  -2.7502  -2.7494  -2.7386  -2.7220  -2.6991
    -2.6987  -2.6921  -2.6764  -2.6757  -2.6668  -2.6644  -2.6606  -2.6570
    -2.6507  -2.6052  -2.5752  -2.5746  -2.5561  -2.5441  -2.5396  -2.5361
    -2.5294  -2.5287  -2.5278  -2.4997  -2.4986  -2.4943  -2.4879  -2.4856
    -2.4726  -2.4449  -2.4441  -2.4424  -2.4418  -2.4390  -2.3959  -2.3662
    -2.3641  -2.3630  -2.3574  -2.3481  -2.3399  -2.3366  -2.3186  -2.3185
    -2.2885  -2.2849  -2.2839  -2.2671  -2.2667  -2.2656  -2.2349  -2.2320
    -2.1951  -2.1874  -2.1840  -2.1808  -2.1804  -2.1753  -2.1750  -2.1710
    -2.1703  -2.1642  -2.1641  -2.1478  -2.1474  -2.0240  -2.0229  -1.9893
    -1.9830  -1.9818  -1.9741  -1.9733  -1.9608  -1.9579  -1.9546  -1.9535
    -1.9487  -1.9297  -1.9259  -1.9243  -1.9116  -1.9085  -1.9020  -1.8883
    -1.8842  -1.8595  -1.8575  -1.8296  -1.8280  -1.8161  -1.8074  -1.7885
    -1.7879  -1.7856  -1.7692  -1.7562  -1.7543  -1.7480  -1.7470  -1.7228
    -1.7221  -1.7066  -1.7057  -1.6736  -1.6669  -1.6626  -1.6150  -1.6132
    -1.5984  -1.5971  -1.5913  -1.5715  -1.5679  -1.5386  -1.5359  -1.5334
    -1.5005  -1.4936  -1.4913  -1.4755  -1.4742  -1.4521  -1.4493  -1.4441
    -1.4204  -1.4154  -1.4141  -1.3557  -1.3514  -1.3420  -1.3392  -1.3256
    -1.3235  -1.3098  -1.3094  -1.2913  -1.2786  -1.2515  -1.2509  -1.2384
    -1.2073  -1.2018  -1.1994  -1.1893  -1.1888  -1.1867  -1.1832  -1.1810
    -1.1666  -1.1414  -1.1394  -1.1309  -1.1242  -1.1222  -1.1169  -1.1025
    -1.0835  -1.0762  -1.0589  -1.0574  -0.9692  -0.9577  -0.9505  -0.9494
    -0.9450  -0.9415  -0.9368  -0.9171  -0.9146  -0.9008  -0.8992  -0.8849
    -0.8840  -0.8772  -0.8596  -0.8529  -0.8520  -0.8445  -0.7729  -0.7708
    -0.7483  -0.7351  -0.7329  -0.7278  -0.7250  -0.7238  -0.7227  -0.7163
    -0.7081  -0.6921  -0.6682  -0.6616  -0.6507  -0.6366  -0.6289  -0.6236
    -0.6229  -0.6115  -0.6095  -0.6078  -0.6075  -0.6000  -0.5900  -0.5861
    -0.5851  -0.5558  -0.5532  -0.5527  -0.5409  -0.5406  -0.5214  -0.4896
    -0.4893  -0.4800  -0.4796  -0.4123  -0.4120  -0.3767  -0.3758  -0.3188
    -0.3180  -0.3159  -0.2980  -0.2923  -0.0571  -0.0538   0.2837   0.2842
     0.3793   0.3825   0.5719   0.5940   0.6013   0.7304   0.7321   1.1640
     1.1649   1.1804   1.4465   1.4740   1.4749   1.7567   1.7572   1.8286
     1.8299   1.8580   1.8596   2.0843   2.0867   2.1747   2.1761   2.2574
     2.3180   2.3185   2.4769   2.5798   3.0136   3.0173   3.0197   3.0211
     3.0739   3.0756   3.3677   3.3684   3.6511   3.6532   3.7657   4.0640
     4.1040   4.1082   4.3293   4.3490   4.4057   4.4067   4.4999   4.6170
     4.6179   4.7336   4.7359   5.0366   5.1011   5.1084   5.2821   5.2979
     5.4582   5.4904   5.4968   5.5224   5.5231   5.5822   5.5858   5.6495
     6.0016   6.0475   6.1893   6.2620   6.3106   6.3242   6.3285   6.3429
     6.3444   6.5667   6.5828   6.6389   6.7649   6.8159   6.8187   6.8631
     6.8903   7.1082   7.1292

          k = 0.0000 0.2887 0.1111 (136898 PWs)   bands (ev):

   -18.7189  -6.6689  -6.5571  -5.8766  -5.5887  -5.5270  -5.5255  -4.9885
    -4.9872  -4.8595  -4.8552  -4.7022  -4.6755  -4.6081  -4.5809  -4.5742
    -4.5411  -4.5406  -4.4120  -4.3705  -4.3701  -4.3118  -4.2931  -4.2896
    -4.1874  -4.1867  -4.1518  -4.1505  -4.1502  -4.1248  -4.1026  -4.1019
    -4.0022  -3.9952  -3.9950  -3.9753  -3.9592  -3.9572  -3.9473  -3.9449
    -3.9331  -3.9039  -3.9019  -3.9013  -3.9005  -3.8699  -3.8695  -3.8518
    -3.8503  -3.8404  -3.8011  -3.7981  -3.7656  -3.7536  -3.7476  -3.7421
    -3.7419  -3.6689  -3.6678  -3.6375  -3.6344  -3.6303  -3.5631  -3.5620
    -3.5524  -3.5462  -3.5192  -3.5176  -3.5173  -3.5153  -3.3684  -3.3604
    -3.3401  -3.3386  -3.3344  -3.3190  -3.3144  -3.2931  -3.2899  -3.2461
    -3.2387  -3.2261  -3.2221  -3.2058  -3.1685  -3.1565  -3.1469  -3.1332
    -3.1288  -3.1116  -3.0886  -3.0853  -3.0802  -3.0729  -3.0640  -3.0393
    -3.0252  -3.0209  -3.0053  -3.0026  -2.9997  -2.9964  -2.9687  -2.9214
    -2.9206  -2.9106  -2.8882  -2.8747  -2.8300  -2.8253  -2.7984  -2.7955
    -2.7849  -2.7839  -2.7751  -2.7502  -2.7494  -2.7386  -2.7220  -2.6991
    -2.6987  -2.6921  -2.6764  -2.6757  -2.6668  -2.6644  -2.6606  -2.6570
    -2.6507  -2.6052  -2.5753  -2.5746  -2.5561  -2.5441  -2.5396  -2.5361
    -2.5294  -2.5287  -2.5278  -2.4997  -2.4986  -2.4943  -2.4879  -2.4856
    -2.4726  -2.4449  -2.4441  -2.4424  -2.4418  -2.4390  -2.3959  -2.3662
    -2.3641  -2.3630  -2.3574  -2.3481  -2.3399  -2.3366  -2.3186  -2.3185
    -2.2885  -2.2849  -2.2839  -2.2671  -2.2667  -2.2656  -2.2349  -2.2320
    -2.1951  -2.1874  -2.1840  -2.1808  -2.1804  -2.1753  -2.1750  -2.1710
    -2.1703  -2.1642  -2.1641  -2.1478  -2.1474  -2.0240  -2.0229  -1.9893
    -1.9830  -1.9818  -1.9741  -1.9733  -1.9608  -1.9579  -1.9546  -1.9535
    -1.9487  -1.9297  -1.9259  -1.9243  -1.9116  -1.9085  -1.9020  -1.8883
    -1.8842  -1.8595  -1.8575  -1.8296  -1.8280  -1.8161  -1.8074  -1.7885
    -1.7879  -1.7856  -1.7691  -1.7562  -1.7543  -1.7480  -1.7470  -1.7228
    -1.7221  -1.7066  -1.7057  -1.6736  -1.6669  -1.6626  -1.6150  -1.6132
    -1.5984  -1.5971  -1.5913  -1.5715  -1.5679  -1.5386  -1.5359  -1.5334
    -1.5005  -1.4936  -1.4913  -1.4755  -1.4742  -1.4521  -1.4494  -1.4441
    -1.4204  -1.4154  -1.4141  -1.3557  -1.3514  -1.3420  -1.3392  -1.3256
    -1.3235  -1.3098  -1.3094  -1.2913  -1.2786  -1.2515  -1.2508  -1.2384
    -1.2073  -1.2018  -1.1994  -1.1893  -1.1888  -1.1867  -1.1832  -1.1810
    -1.1666  -1.1414  -1.1394  -1.1309  -1.1242  -1.1222  -1.1169  -1.1025
    -1.0835  -1.0762  -1.0589  -1.0574  -0.9692  -0.9577  -0.9505  -0.9494
    -0.9450  -0.9415  -0.9368  -0.9171  -0.9146  -0.9008  -0.8992  -0.8849
    -0.8840  -0.8772  -0.8596  -0.8529  -0.8520  -0.8445  -0.7729  -0.7708
    -0.7483  -0.7351  -0.7329  -0.7278  -0.7250  -0.7238  -0.7227  -0.7163
    -0.7081  -0.6921  -0.6682  -0.6616  -0.6507  -0.6366  -0.6289  -0.6236
    -0.6229  -0.6115  -0.6095  -0.6078  -0.6075  -0.6000  -0.5900  -0.5861
    -0.5851  -0.5558  -0.5532  -0.5528  -0.5409  -0.5406  -0.5214  -0.4896
    -0.4893  -0.4800  -0.4796  -0.4123  -0.4120  -0.3767  -0.3758  -0.3188
    -0.3180  -0.3159  -0.2980  -0.2923  -0.0571  -0.0538   0.2837   0.2842
     0.3793   0.3825   0.5719   0.5940   0.6013   0.7304   0.7321   1.1640
     1.1649   1.1804   1.4465   1.4740   1.4749   1.7567   1.7572   1.8286
     1.8299   1.8580   1.8596   2.0843   2.0867   2.1747   2.1761   2.2574
     2.3180   2.3185   2.4769   2.5798   3.0136   3.0173   3.0197   3.0211
     3.0739   3.0756   3.3677   3.3684   3.6511   3.6532   3.7657   4.0640
     4.1040   4.1082   4.3293   4.3490   4.4057   4.4067   4.4999   4.6170
     4.6179   4.7336   4.7359   5.0366   5.1011   5.1084   5.2821   5.2979
     5.4581   5.4904   5.4968   5.5224   5.5231   5.5822   5.5858   5.6495
     6.0018   6.0476   6.1893   6.2618   6.3104   6.3242   6.3285   6.3429
     6.3444   6.5667   6.5828   6.6384   6.7619   6.8157   6.8186   6.8634
     6.8906   7.1124   7.1325

     the Fermi energy is     1.3094 ev

!    total energy              =   -6604.42482479 Ry
     Harris-Foulkes estimate   =   -6604.42482479 Ry
     estimated scf accuracy    <          6.0E-09 Ry

     The total energy is the sum of the following terms:

     one-electron contribution =  -48730.96616907 Ry
     hartree contribution      =   24863.38457677 Ry
     xc contribution           =   -3204.99759097 Ry
     ewald contribution        =   20468.15148057 Ry
     smearing contrib. (-TS)   =       0.00287790 Ry

     convergence has been achieved in  24 iterations

     Writing output data file 2288657.save

     init_run     :    204.15s CPU    213.20s WALL (       1 calls)
     electrons    :  10981.49s CPU  11417.42s WALL (       1 calls)

     Called by init_run:
     wfcinit      :    167.04s CPU    174.91s WALL (       1 calls)
     potinit      :     11.92s CPU     12.49s WALL (       1 calls)

     Called by electrons:
     c_bands      :   9401.10s CPU   9740.75s WALL (      25 calls)
     sum_band     :   1214.46s CPU   1296.19s WALL (      25 calls)
     v_of_rho     :    126.25s CPU    137.31s WALL (      25 calls)
     newd         :    249.82s CPU    252.72s WALL (      25 calls)
     mix_rho      :      3.20s CPU      3.55s WALL (      25 calls)
     vdW_energy   :      6.39s CPU      6.97s WALL (      25 calls)
     vdW_ffts     :     71.37s CPU     77.32s WALL (      50 calls)
     vdW_v        :     16.11s CPU     17.14s WALL (      25 calls)

     Called by c_bands:
     init_us_2    :     12.03s CPU     12.47s WALL (     612 calls)
     cegterg      :   9124.23s CPU   9461.49s WALL (     300 calls)

     Called by *egterg:
     h_psi        :   3848.02s CPU   4146.51s WALL (    1621 calls)
     s_psi        :    413.93s CPU    416.56s WALL (    1621 calls)
     g_psi        :      5.78s CPU      5.80s WALL (    1309 calls)
     cdiaghg      :   1958.91s CPU   1964.57s WALL (    1597 calls)

     Called by h_psi:
     add_vuspsi   :    415.67s CPU    418.36s WALL (    1621 calls)

     General routines
     calbec       :   1163.55s CPU   1167.03s WALL (    1921 calls)
     fft          :    203.37s CPU    214.10s WALL (    1650 calls)
     ffts         :      2.13s CPU      2.49s WALL (      50 calls)
     fftw         :   2871.78s CPU   3216.60s WALL (  718396 calls)
     interpolate  :      4.87s CPU      5.63s WALL (      50 calls)
     davcio       :      0.02s CPU      0.28s WALL (      12 calls)

     Parallel routines
     fft_scatter  :   2319.38s CPU   2610.33s WALL (  720096 calls)

     PWSCF        :     3h 6m CPU        3h14m WALL


   This run was terminated on:   7:47:54  25Jun2015            

=------------------------------------------------------------------------------=
   JOB DONE.
=------------------------------------------------------------------------------=
