
     Program PWSCF v.5.1.2 starts on 26Nov2015 at 10:47:41 

     This program is part of the open-source Quantum ESPRESSO suite
     for quantum simulation of materials; please cite
         "P. Giannozzi et al., J. Phys.:Condens. Matter 21 395502 (2009);
          URL http://www.quantum-espresso.org", 
     in publications or presentations arising from this work. More details at
     http://www.quantum-espresso.org/quote

     Parallel version (MPI), running on    32 processors
     R & G space division:  proc/nbgrp/npool/nimage =      32
     Reading input from top.O1.Au50.d.2.8.phi.0.psi.90.in
Warning: card &IONS ignored
Warning: card / ignored
Warning: card &CELL ignored
Warning: card / ignored

     Current dimensions of program PWSCF are:
     Max number of different atomic species (ntypx) = 10
     Max number of k-points (npk) =  40000
     Max angular momentum in pseudopotentials (lmaxx) =  3

     IMPORTANT: XC functional enforced from input :
     Exchange-correlation      = VDW-DF ( 1  4  4  0 1 0)
     Any further DFT definition will be discarded
     Please, verify this is what you really want


     Subspace diagonalization in iterative solution of the eigenvalue problem:
     a serial algorithm will be used


     Parallelization info
     --------------------
     sticks:   dense  smooth     PW     G-vecs:    dense   smooth      PW
     Min         445     223     58                96775    34191    4534
     Max         446     224     59                96790    34246    4540
     Sum       14269    7147   1867              3097177  1095093  145167


     Title: 
     top.O1.Au50.d.2.8.phi.0.psi.90                                             


     bravais-lattice index     =            4
     lattice parameter (alat)  =      22.7436  a.u.
     unit-cell volume          =   22924.1508 (a.u.)^3
     number of atoms/cell      =           67
     number of atomic types    =            3
     number of electrons       =       712.00
     number of Kohn-Sham states=          427
     kinetic-energy cutoff     =      50.0000  Ry
     charge density cutoff     =     400.0000  Ry
     convergence threshold     =      1.0E-08
     mixing beta               =       0.7000
     number of iterations used =            8  plain     mixing
     Exchange-correlation      = VDW-DF ( 1  4  4  0 1 0)

     celldm(1)=  22.743643  celldm(2)=   0.000000  celldm(3)=   2.250000
     celldm(4)=   0.000000  celldm(5)=   0.000000  celldm(6)=   0.000000

     crystal axes: (cart. coord. in units of alat)
               a(1) = (   1.000000   0.000000   0.000000 )  
               a(2) = (  -0.500000   0.866025   0.000000 )  
               a(3) = (   0.000000   0.000000   2.250000 )  

     reciprocal axes: (cart. coord. in units 2 pi/alat)
               b(1) = (  1.000000  0.577350 -0.000000 )  
               b(2) = (  0.000000  1.154701  0.000000 )  
               b(3) = (  0.000000 -0.000000  0.444444 )  


     PseudoPot. # 1 for Au read from file:
     /home/scc/andrejb/test/pseudo/Au.pbe-nd-van.UPF
     MD5 check sum: 458681b50f36d87ef23c61b04bba420a
     Pseudo is Ultrasoft + core correction, Zval = 11.0
     Generated by new atomic code, or converted to UPF format
     Using radial grid of  985 points,  3 beta functions with: 
                l(1) =   1
                l(2) =   2
                l(3) =   2
     Q(r) pseudized with  8 coefficients,  rinner =    1.100   1.100   1.100
                                                       1.100   1.100

     PseudoPot. # 2 for H  read from file:
     /home/scc/andrejb/test/pseudo/H.pbe-van_ak.UPF
     MD5 check sum: 403db7282739603aa925980fa9b8608d
     Pseudo is Ultrasoft, Zval =  1.0
     Generated by new atomic code, or converted to UPF format
     Using radial grid of  615 points,  1 beta functions with: 
                l(1) =   0
     Q(r) pseudized with  8 coefficients,  rinner =    0.800

     PseudoPot. # 3 for O  read from file:
     /home/scc/andrejb/test/pseudo/O.pbe-van_ak.UPF
     MD5 check sum: 4b8c549914a63cae506c6ff22b5af4fe
     Pseudo is Ultrasoft, Zval =  6.0
     Generated by new atomic code, or converted to UPF format
     Using radial grid of  737 points,  4 beta functions with: 
                l(1) =   0
                l(2) =   0
                l(3) =   1
                l(4) =   1
     Q(r) pseudized with  8 coefficients,  rinner =    0.800   0.800   0.800


     vdW kernel table read from file vdW_kernel_table
     MD5 check sum: 48e77a2e26edf626eeb0eaa751ad5cac

     atomic species   valence    mass     pseudopotential
        Au            11.00   196.96657     Au( 1.00)
        H              1.00     1.01000     H ( 1.00)
        O              6.00    16.00000     O ( 1.00)

     No symmetry found



   Cartesian axes

     site n.     atom                  positions (alat units)
         1           O   tau(   1) = (   0.4790780   0.3968269   0.8456435  )
         2           H   tau(   2) = (   0.4291446   0.3485733   0.8040958  )
         3           H   tau(   3) = (   0.5274974   0.3460662   0.8859503  )
         4           Au  tau(   4) = (   0.3540481   0.6132292   0.0000000  )
         5           Au  tau(   5) = (   0.4790062   0.3967954   0.0000000  )
         6           Au  tau(   6) = (   0.6039644   0.1803616   0.0000000  )
         7           Au  tau(   7) = (   0.7289225  -0.0360723   0.0000000  )
         8           Au  tau(   8) = (   0.1041318   0.6132292   0.0000000  )
         9           Au  tau(   9) = (   0.2290899   0.3967954   0.0000000  )
        10           Au  tau(  10) = (   0.3540481   0.1803616   0.0000000  )
        11           Au  tau(  11) = (   0.4790062  -0.0360723   0.0000000  )
        12           Au  tau(  12) = (  -0.1457845   0.6132292   0.0000000  )
        13           Au  tau(  13) = (  -0.0208264   0.3967954   0.0000000  )
        14           Au  tau(  14) = (   0.1041318   0.1803616   0.0000000  )
        15           Au  tau(  15) = (   0.2290899  -0.0360723   0.0000000  )
        16           Au  tau(  16) = (  -0.3957008   0.6132292   0.0000000  )
        17           Au  tau(  17) = (  -0.2707426   0.3967954   0.0000000  )
        18           Au  tau(  18) = (  -0.1457845   0.1803616   0.0000000  )
        19           Au  tau(  19) = (  -0.0208264  -0.0360723   0.0000000  )
        20           Au  tau(  20) = (   0.4790062   0.6853738   0.2040557  )
        21           Au  tau(  21) = (   0.6039644   0.4689400   0.2040557  )
        22           Au  tau(  22) = (   0.7289225   0.2525061   0.2040557  )
        23           Au  tau(  23) = (   0.8538806   0.0360723   0.2040557  )
        24           Au  tau(  24) = (   0.2290899   0.6853738   0.2040557  )
        25           Au  tau(  25) = (   0.3540481   0.4689400   0.2040557  )
        26           Au  tau(  26) = (   0.4790062   0.2525061   0.2040557  )
        27           Au  tau(  27) = (   0.6039644   0.0360723   0.2040557  )
        28           Au  tau(  28) = (  -0.0208264   0.6853738   0.2040557  )
        29           Au  tau(  29) = (   0.1041318   0.4689400   0.2040557  )
        30           Au  tau(  30) = (   0.2290899   0.2525061   0.2040557  )
        31           Au  tau(  31) = (   0.3540481   0.0360723   0.2040557  )
        32           Au  tau(  32) = (  -0.2707426   0.6853738   0.2040557  )
        33           Au  tau(  33) = (  -0.1457845   0.4689400   0.2040557  )
        34           Au  tau(  34) = (  -0.0208264   0.2525061   0.2040557  )
        35           Au  tau(  35) = (   0.1041318   0.0360723   0.2040557  )
        36           Au  tau(  36) = (   0.3541162   0.7576593   0.4066483  )
        37           Au  tau(  37) = (   0.4791000   0.5411421   0.4066695  )
        38           Au  tau(  38) = (   0.6040570   0.3246862   0.4066617  )
        39           Au  tau(  39) = (   0.7290270   0.1081684   0.4066529  )
        40           Au  tau(  40) = (   0.1041162   0.7576236   0.4066247  )
        41           Au  tau(  41) = (   0.2291001   0.5411063   0.4066455  )
        42           Au  tau(  42) = (   0.3540567   0.3246505   0.4066380  )
        43           Au  tau(  43) = (   0.4790276   0.1081324   0.4066292  )
        44           Au  tau(  44) = (  -0.1458201   0.7576104   0.4066224  )
        45           Au  tau(  45) = (  -0.0208365   0.5410930   0.4066438  )
        46           Au  tau(  46) = (   0.1041202   0.3246372   0.4066359  )
        47           Au  tau(  47) = (   0.2290908   0.1081193   0.4066273  )
        48           Au  tau(  48) = (  -0.3958167   0.7575791   0.4065812  )
        49           Au  tau(  49) = (  -0.2708328   0.5410617   0.4066025  )
        50           Au  tau(  50) = (  -0.1458763   0.3246061   0.4065947  )
        51           Au  tau(  51) = (  -0.0209056   0.1080882   0.4065858  )
        52           Au  tau(  52) = (   0.3541085   0.6133344   0.6129762  )
        53           Au  tau(  53) = (   0.4790780   0.3968269   0.6129968  )
        54           Au  tau(  54) = (   0.6040356   0.1803811   0.6129859  )
        55           Au  tau(  55) = (   0.7290165  -0.0361221   0.6129385  )
        56           Au  tau(  56) = (   0.1041243   0.6133091   0.6130022  )
        57           Au  tau(  57) = (   0.2290941   0.3968013   0.6130241  )
        58           Au  tau(  58) = (   0.3540515   0.1803552   0.6130121  )
        59           Au  tau(  59) = (   0.4790323  -0.0361475   0.6129659  )
        60           Au  tau(  60) = (  -0.1458030   0.6133014   0.6129980  )
        61           Au  tau(  61) = (  -0.0208339   0.3967936   0.6130188  )
        62           Au  tau(  62) = (   0.1041239   0.1803477   0.6130083  )
        63           Au  tau(  63) = (   0.2291046  -0.0361554   0.6129607  )
        64           Au  tau(  64) = (  -0.3957908   0.6132739   0.6129471  )
        65           Au  tau(  65) = (  -0.2708208   0.3967658   0.6129688  )
        66           Au  tau(  66) = (  -0.1458636   0.1803200   0.6129569  )
        67           Au  tau(  67) = (  -0.0208823  -0.0361826   0.6129110  )

     number of k points=    12  Marzari-Vanderbilt smearing, width (Ry)=  0.0200
                       cart. coord. in units 2pi/alat
        k(    1) = (   0.2500000   0.4330127   0.1111111), wk =   0.1666667
        k(    2) = (   0.2500000  -0.1443376   0.1111111), wk =   0.1666667
        k(    3) = (  -0.2500000  -0.4330127   0.1111111), wk =   0.1666667
        k(    4) = (  -0.2500000   0.4330127  -0.1111111), wk =   0.1666667
        k(    5) = (   0.2500000  -0.4330127  -0.1111111), wk =   0.1666667
        k(    6) = (   0.5000000   0.0000000   0.1111111), wk =   0.1666667
        k(    7) = (  -0.5000000   0.0000000   0.1111111), wk =   0.1666667
        k(    8) = (  -0.2500000   0.1443376   0.1111111), wk =   0.1666667
        k(    9) = (  -0.2500000  -0.1443376  -0.1111111), wk =   0.1666667
        k(   10) = (   0.2500000   0.1443376  -0.1111111), wk =   0.1666667
        k(   11) = (   0.0000000  -0.2886751   0.1111111), wk =   0.1666667
        k(   12) = (   0.0000000   0.2886751   0.1111111), wk =   0.1666667

     Dense  grid:  3097177 G-vectors     FFT dimensions: ( 150, 150, 360)

     Smooth grid:  1095093 G-vectors     FFT dimensions: ( 108, 108, 240)

     Largest allocated arrays     est. size (Mb)     dimensions
        Kohn-Sham Wavefunctions        28.01 Mb     (    4299,  427)
        NL pseudopotentials            55.23 Mb     (    4299,  842)
        Each V/rho on FFT grid          4.12 Mb     (  270000)
        Each G-vector array             0.74 Mb     (   96788)
        G-vector shells                 0.16 Mb     (   21404)
     Largest temporary arrays     est. size (Mb)     dimensions
        Auxiliary wavefunctions       112.04 Mb     (    4299, 1708)
        Each subspace H/S matrix       44.51 Mb     (    1708, 1708)
        Each <psi_i|beta_j> matrix      5.49 Mb     (     842,  427)
        Arrays for rho mixing          32.96 Mb     (  270000,    8)

     Initial potential from superposition of free atoms
     Check: negative starting charge=   -1.730257

     starting charge  711.25682, renormalised to  712.00000

     negative rho (up, down):  1.732E+00 0.000E+00


     ************************************************************************
     *
     * You are using vdW-DF for exchange-correlation in this calculation.
     * Please cite the following three references that made this development
     * possible:
     *
     *   M. Dion, H. Rydberg, E. Schroder, D. C. Langreth, and
     *   B. I. Lundqvist, Phys. Rev. Lett. 92, 246401 (2004).
     *
     *   T. Thonhauser, V. R. Cooper, S. Li, A. Puzder, P. Hyldgaard, and
     *   D. C. Langreth, Phys. Rev. B 76, 125112 (2007).
     *
     *   G. Roman-Perez and J. M. Soler, Phys. Rev. Lett. 103, 096102 (2009).
     *
     *
     * If you are using vdW-DF2, please also cite:
     *
     *   K. Lee, E. D. Murray, L. Kong, B. I. Lundqvist, and
     *   D. C. Langreth, Phys. Rev. B 82, 081101(R) (2010).
     *
     *
     * If you are calculating the stress with vdW-DF, please also cite:
     *
     *   R. Sabatini, E. Kucukbenli, B. Kolb, T. Thonhauser, and
     *   S. de Gironcoli, J. Phys.: Condens. Matter 24, 424209 (2012).
     *
     ************************************************************************

     Carrying out vdW-DF run using the following parameters:

     Nqs =      20    Nr_points =    1024   r_max =   100.000
     q_mesh =
               0.00001000     0.04494208     0.09755937     0.15916263
               0.23128650     0.31572767     0.41458969     0.53033537
               0.66584808     0.82450364     1.01025438     1.22772762
               1.48234092     1.78043706     2.12944203     2.53805004
               3.01644009     3.57652955     4.23227104     5.00000000

     Gradients computed in reciprocal space

     ************************************************************************


     Starting wfc are  582 randomized atomic wfcs

     total cpu time spent up to now is      192.7 secs

     Self-consistent Calculation

     iteration #  1     ecut=    50.00 Ry     beta=0.70
     Davidson diagonalization with overlap
     ethr =  1.00E-02,  avg # of iterations =  3.0

     Threshold (ethr) on eigenvalues was too large:
     Diagonalizing with lowered threshold

     Davidson diagonalization with overlap
     ethr =  3.46E-04,  avg # of iterations =  3.5

     negative rho (up, down):  1.727E+00 0.000E+00

     total cpu time spent up to now is      804.8 secs

     total energy              =   -6602.78536720 Ry
     Harris-Foulkes estimate   =   -6605.02558644 Ry
     estimated scf accuracy    <       2.80784682 Ry

     iteration #  2     ecut=    50.00 Ry     beta=0.70
     Davidson diagonalization with overlap
     ethr =  3.94E-04,  avg # of iterations = 11.0

     negative rho (up, down):  1.726E+00 0.000E+00

     total cpu time spent up to now is     1732.4 secs

     total energy              =   -6596.69278303 Ry
     Harris-Foulkes estimate   =   -6610.15859904 Ry
     estimated scf accuracy    <      75.36922411 Ry

     iteration #  3     ecut=    50.00 Ry     beta=0.70
     Davidson diagonalization with overlap
     ethr =  3.94E-04,  avg # of iterations =  6.5

     negative rho (up, down):  1.736E+00 0.000E+00

     total cpu time spent up to now is     2354.0 secs

     total energy              =   -6603.27399449 Ry
     Harris-Foulkes estimate   =   -6604.99130695 Ry
     estimated scf accuracy    <       7.46356497 Ry

     iteration #  4     ecut=    50.00 Ry     beta=0.70
     Davidson diagonalization with overlap
     ethr =  3.94E-04,  avg # of iterations =  6.3

     negative rho (up, down):  1.739E+00 0.000E+00

     total cpu time spent up to now is     2726.7 secs

     total energy              =   -6603.30686890 Ry
     Harris-Foulkes estimate   =   -6605.37596285 Ry
     estimated scf accuracy    <      22.13013053 Ry

     iteration #  5     ecut=    50.00 Ry     beta=0.70
     Davidson diagonalization with overlap
     ethr =  3.94E-04,  avg # of iterations =  6.3

     negative rho (up, down):  1.748E+00 0.000E+00

     total cpu time spent up to now is     3095.1 secs

     total energy              =   -6604.36211567 Ry
     Harris-Foulkes estimate   =   -6604.55467145 Ry
     estimated scf accuracy    <       1.01331385 Ry

     iteration #  6     ecut=    50.00 Ry     beta=0.70
     Davidson diagonalization with overlap
     ethr =  1.42E-04,  avg # of iterations =  3.5

     negative rho (up, down):  1.752E+00 0.000E+00

     total cpu time spent up to now is     3389.0 secs

     total energy              =   -6604.41278710 Ry
     Harris-Foulkes estimate   =   -6604.45639873 Ry
     estimated scf accuracy    <       0.12899864 Ry

     iteration #  7     ecut=    50.00 Ry     beta=0.70
     Davidson diagonalization with overlap
     ethr =  1.81E-05,  avg # of iterations = 13.5

     negative rho (up, down):  1.754E+00 0.000E+00

     total cpu time spent up to now is     3888.1 secs

     total energy              =   -6604.42197882 Ry
     Harris-Foulkes estimate   =   -6604.44485090 Ry
     estimated scf accuracy    <       0.09025837 Ry

     iteration #  8     ecut=    50.00 Ry     beta=0.70
     Davidson diagonalization with overlap
     ethr =  1.27E-05,  avg # of iterations =  3.7

     negative rho (up, down):  1.755E+00 0.000E+00

     total cpu time spent up to now is     4189.4 secs

     total energy              =   -6604.42468771 Ry
     Harris-Foulkes estimate   =   -6604.43671166 Ry
     estimated scf accuracy    <       0.04083984 Ry

     iteration #  9     ecut=    50.00 Ry     beta=0.70
     Davidson diagonalization with overlap
     ethr =  5.74E-06,  avg # of iterations =  5.9

     negative rho (up, down):  1.756E+00 0.000E+00

     total cpu time spent up to now is     4530.2 secs

     total energy              =   -6604.42706652 Ry
     Harris-Foulkes estimate   =   -6604.43119960 Ry
     estimated scf accuracy    <       0.01164702 Ry

     iteration # 10     ecut=    50.00 Ry     beta=0.70
     Davidson diagonalization with overlap
     ethr =  1.64E-06,  avg # of iterations =  6.1

     negative rho (up, down):  1.757E+00 0.000E+00

     total cpu time spent up to now is     4885.3 secs

     total energy              =   -6604.42807934 Ry
     Harris-Foulkes estimate   =   -6604.42953533 Ry
     estimated scf accuracy    <       0.00478477 Ry

     iteration # 11     ecut=    50.00 Ry     beta=0.70
     Davidson diagonalization with overlap
     ethr =  6.72E-07,  avg # of iterations =  2.0

     negative rho (up, down):  1.757E+00 0.000E+00

     total cpu time spent up to now is     5155.5 secs

     total energy              =   -6604.42852679 Ry
     Harris-Foulkes estimate   =   -6604.42900701 Ry
     estimated scf accuracy    <       0.00175849 Ry

     iteration # 12     ecut=    50.00 Ry     beta=0.70
     Davidson diagonalization with overlap
     ethr =  2.47E-07,  avg # of iterations =  2.0

     negative rho (up, down):  1.757E+00 0.000E+00

     total cpu time spent up to now is     5429.6 secs

     total energy              =   -6604.42868014 Ry
     Harris-Foulkes estimate   =   -6604.42879517 Ry
     estimated scf accuracy    <       0.00028332 Ry

     iteration # 13     ecut=    50.00 Ry     beta=0.70
     Davidson diagonalization with overlap
     ethr =  3.98E-08,  avg # of iterations =  3.0

     negative rho (up, down):  1.757E+00 0.000E+00

     total cpu time spent up to now is     5744.0 secs

     total energy              =   -6604.42869826 Ry
     Harris-Foulkes estimate   =   -6604.42876686 Ry
     estimated scf accuracy    <       0.00024120 Ry

     iteration # 14     ecut=    50.00 Ry     beta=0.70
     Davidson diagonalization with overlap
     ethr =  3.39E-08,  avg # of iterations =  2.0

     negative rho (up, down):  1.757E+00 0.000E+00

     total cpu time spent up to now is     6008.8 secs

     total energy              =   -6604.42872478 Ry
     Harris-Foulkes estimate   =   -6604.42874767 Ry
     estimated scf accuracy    <       0.00012920 Ry

     iteration # 15     ecut=    50.00 Ry     beta=0.70
     Davidson diagonalization with overlap
     ethr =  1.81E-08,  avg # of iterations =  1.3

     negative rho (up, down):  1.757E+00 0.000E+00

     total cpu time spent up to now is     6261.8 secs

     total energy              =   -6604.42873670 Ry
     Harris-Foulkes estimate   =   -6604.42873979 Ry
     estimated scf accuracy    <       0.00002113 Ry

     iteration # 16     ecut=    50.00 Ry     beta=0.70
     Davidson diagonalization with overlap
     ethr =  2.97E-09,  avg # of iterations =  3.0

     negative rho (up, down):  1.757E+00 0.000E+00

     total cpu time spent up to now is     6536.9 secs

     total energy              =   -6604.42873797 Ry
     Harris-Foulkes estimate   =   -6604.42873870 Ry
     estimated scf accuracy    <       0.00000198 Ry

     iteration # 17     ecut=    50.00 Ry     beta=0.70
     Davidson diagonalization with overlap
     ethr =  2.78E-10,  avg # of iterations =  2.5

     negative rho (up, down):  1.757E+00 0.000E+00

     total cpu time spent up to now is     6848.5 secs

     total energy              =   -6604.42873798 Ry
     Harris-Foulkes estimate   =   -6604.42873898 Ry
     estimated scf accuracy    <       0.00000605 Ry

     iteration # 18     ecut=    50.00 Ry     beta=0.70
     Davidson diagonalization with overlap
     ethr =  2.78E-10,  avg # of iterations =  2.0

     negative rho (up, down):  1.757E+00 0.000E+00

     total cpu time spent up to now is     7118.9 secs

     total energy              =   -6604.42873839 Ry
     Harris-Foulkes estimate   =   -6604.42873861 Ry
     estimated scf accuracy    <       0.00000082 Ry

     iteration # 19     ecut=    50.00 Ry     beta=0.70
     Davidson diagonalization with overlap
     ethr =  1.15E-10,  avg # of iterations =  2.0

     negative rho (up, down):  1.757E+00 0.000E+00

     total cpu time spent up to now is     7379.7 secs

     total energy              =   -6604.42873849 Ry
     Harris-Foulkes estimate   =   -6604.42873853 Ry
     estimated scf accuracy    <       0.00000019 Ry

     iteration # 20     ecut=    50.00 Ry     beta=0.70
     Davidson diagonalization with overlap
     ethr =  2.71E-11,  avg # of iterations =  2.0

     negative rho (up, down):  1.757E+00 0.000E+00

     total cpu time spent up to now is     7647.9 secs

     total energy              =   -6604.42873852 Ry
     Harris-Foulkes estimate   =   -6604.42873853 Ry
     estimated scf accuracy    <       0.00000005 Ry

     iteration # 21     ecut=    50.00 Ry     beta=0.70
     Davidson diagonalization with overlap
     ethr =  7.19E-12,  avg # of iterations =  2.0

     negative rho (up, down):  1.757E+00 0.000E+00

     total cpu time spent up to now is     7925.3 secs

     total energy              =   -6604.42873851 Ry
     Harris-Foulkes estimate   =   -6604.42873853 Ry
     estimated scf accuracy    <       0.00000005 Ry

     iteration # 22     ecut=    50.00 Ry     beta=0.70
     Davidson diagonalization with overlap
     ethr =  6.48E-12,  avg # of iterations =  2.0

     negative rho (up, down):  1.757E+00 0.000E+00

     total cpu time spent up to now is     8187.2 secs

     End of self-consistent calculation

          k = 0.2500 0.4330 0.1111 (136853 PWs)   bands (ev):

   -19.2355  -7.1136  -6.3129  -5.9143  -5.9134  -5.2375  -4.9029  -4.9025
    -4.8662  -4.8635  -4.5027  -4.5020  -4.4038  -4.4036  -4.3897  -4.3671
    -4.3483  -4.2370  -4.2354  -4.2119  -4.1689  -4.1680  -4.1002  -4.0995
    -4.0944  -4.0931  -4.0713  -4.0669  -4.0648  -4.0005  -3.9939  -3.9637
    -3.9625  -3.9511  -3.9506  -3.9277  -3.9275  -3.9047  -3.8970  -3.8966
    -3.8708  -3.8182  -3.8177  -3.7701  -3.7686  -3.7132  -3.7121  -3.6582
    -3.6570  -3.6552  -3.6551  -3.6197  -3.5850  -3.5838  -3.5754  -3.5731
    -3.5725  -3.5459  -3.5428  -3.5347  -3.4758  -3.4744  -3.4680  -3.4464
    -3.4387  -3.3725  -3.3666  -3.3504  -3.3336  -3.3299  -3.3056  -3.2948
    -3.2899  -3.2719  -3.2160  -3.2145  -3.1975  -3.1967  -3.1467  -3.1426
    -3.1341  -3.1005  -3.0724  -3.0706  -3.0621  -3.0614  -3.0508  -3.0462
    -3.0419  -3.0391  -3.0304  -2.9899  -2.9526  -2.9509  -2.9380  -2.9369
    -2.9098  -2.9030  -2.9016  -2.8817  -2.8346  -2.8337  -2.8272  -2.7875
    -2.7802  -2.7685  -2.7681  -2.7421  -2.7390  -2.7086  -2.6732  -2.6713
    -2.6521  -2.6419  -2.6289  -2.6279  -2.5798  -2.5789  -2.5454  -2.5226
    -2.5218  -2.5009  -2.4982  -2.4872  -2.4861  -2.4762  -2.4554  -2.4546
    -2.4094  -2.4080  -2.4067  -2.3921  -2.3907  -2.3830  -2.3766  -2.3748
    -2.3741  -2.3720  -2.3653  -2.3589  -2.3548  -2.3478  -2.3222  -2.3188
    -2.3169  -2.3147  -2.3138  -2.3113  -2.3107  -2.2861  -2.2823  -2.2687
    -2.2669  -2.2514  -2.2476  -2.2436  -2.2382  -2.2376  -2.2361  -2.2221
    -2.2175  -2.2155  -2.2144  -2.2007  -2.1733  -2.1709  -2.1300  -2.1291
    -2.1071  -2.1069  -2.0833  -2.0778  -2.0573  -2.0505  -2.0359  -2.0300
    -2.0032  -2.0008  -1.9827  -1.9785  -1.9732  -1.9705  -1.9644  -1.9611
    -1.9389  -1.9302  -1.9245  -1.8658  -1.8626  -1.8582  -1.8567  -1.8552
    -1.8221  -1.7997  -1.7982  -1.7779  -1.7715  -1.7187  -1.7129  -1.6988
    -1.6771  -1.6627  -1.6148  -1.6028  -1.5963  -1.5897  -1.5805  -1.5781
    -1.5755  -1.5682  -1.5650  -1.5596  -1.5126  -1.5018  -1.4974  -1.4961
    -1.4851  -1.4781  -1.4677  -1.4424  -1.4396  -1.4252  -1.4246  -1.4205
    -1.4163  -1.4052  -1.4021  -1.3920  -1.3821  -1.3794  -1.3449  -1.3325
    -1.3301  -1.3148  -1.3090  -1.2942  -1.2549  -1.2492  -1.2262  -1.2220
    -1.2182  -1.1915  -1.1428  -1.1402  -1.1387  -1.1356  -1.1330  -1.1258
    -1.1148  -1.1065  -1.0959  -1.0664  -1.0620  -1.0342  -1.0328  -1.0272
    -1.0251  -1.0213  -1.0056  -1.0028  -1.0020  -0.9988  -0.9946  -0.9613
    -0.9595  -0.9580  -0.9508  -0.9307  -0.9252  -0.9211  -0.8979  -0.8933
    -0.8802  -0.8464  -0.8388  -0.8320  -0.8009  -0.7948  -0.7856  -0.7833
    -0.7775  -0.7766  -0.7737  -0.7677  -0.7614  -0.7489  -0.7374  -0.7352
    -0.7315  -0.7298  -0.7224  -0.6924  -0.6922  -0.6849  -0.6774  -0.6629
    -0.6586  -0.6484  -0.6407  -0.5905  -0.5874  -0.5816  -0.5809  -0.5790
    -0.5763  -0.5672  -0.5541  -0.5484  -0.5456  -0.5438  -0.5429  -0.5282
    -0.5035  -0.5012  -0.4994  -0.4921  -0.4897  -0.4862  -0.4851  -0.4718
    -0.4663  -0.4656  -0.4359  -0.4235  -0.4214  -0.4146  -0.4108  -0.4059
    -0.3355  -0.3319  -0.3304  -0.3274  -0.3214  -0.3145  -0.2840  -0.2723
    -0.2713  -0.2437  -0.2398  -0.2031  -0.1183  -0.1150  -0.0155   0.3994
     0.4000   0.4035   0.4044   0.4618   0.4815   0.8499   0.8535   0.8940
     0.8952   1.0103   1.0895   1.1947   1.2067   1.4143   1.4382   2.0464
     2.0558   2.2086   2.2172   2.3406   2.3583   2.4491   2.4495   2.6035
     2.8394   2.8443   2.9672   3.1872   3.1961   3.2691   3.2721   3.3699
     3.3885   3.5771   3.5874   3.6421   3.8447   3.8468   3.9055   3.9134
     4.1642   4.1683   4.1818   4.4150   4.4515   4.4605   4.5030   4.8348
     4.8401   4.8681   5.0016   5.1700   5.1768   5.2041   5.2323   5.4262
     5.7845   5.9247   5.9578   5.9662   5.9730   6.0345   6.0379   6.0995
     6.1316   6.1523   6.1723   6.1981   6.2018   6.2171   6.2357   6.2562
     6.2717   6.4357   6.5623   6.6937   6.7462   6.7711   6.9045   6.9097
     6.9197   7.0093   7.0283

          k = 0.2500-0.1443 0.1111 (136898 PWs)   bands (ev):

   -19.2355  -7.1138  -6.5224  -5.7312  -5.4412  -5.3814  -5.3806  -4.8428
    -4.8424  -4.7123  -4.7104  -4.5566  -4.5287  -4.4630  -4.4314  -4.4304
    -4.3960  -4.3958  -4.2672  -4.2261  -4.2250  -4.1662  -4.1456  -4.1453
    -4.0423  -4.0420  -4.0059  -4.0058  -4.0056  -3.9798  -3.9573  -3.9571
    -3.8560  -3.8508  -3.8498  -3.8305  -3.8129  -3.8127  -3.8016  -3.8006
    -3.7889  -3.7576  -3.7573  -3.7561  -3.7560  -3.7256  -3.7246  -3.7061
    -3.7060  -3.6965  -3.6541  -3.6522  -3.6192  -3.6077  -3.6046  -3.5974
    -3.5970  -3.5233  -3.5230  -3.4914  -3.4882  -3.4865  -3.4178  -3.4174
    -3.4031  -3.4022  -3.3780  -3.3734  -3.3723  -3.3707  -3.3281  -3.2172
    -3.2161  -3.1934  -3.1883  -3.1790  -3.1704  -3.1673  -3.1450  -3.1442
    -3.0945  -3.0939  -3.0787  -3.0775  -3.0572  -3.0107  -3.0080  -2.9902
    -2.9855  -2.9841  -2.9449  -2.9433  -2.9359  -2.9344  -2.9206  -2.9195
    -2.8818  -2.8810  -2.8594  -2.8579  -2.8561  -2.8549  -2.8510  -2.7773
    -2.7757  -2.7736  -2.7453  -2.7439  -2.6835  -2.6807  -2.6554  -2.6534
    -2.6416  -2.6403  -2.6334  -2.6052  -2.6042  -2.5943  -2.5789  -2.5560
    -2.5530  -2.5514  -2.5316  -2.5309  -2.5205  -2.5195  -2.5191  -2.5157
    -2.5059  -2.4603  -2.4304  -2.4292  -2.4143  -2.4008  -2.3949  -2.3939
    -2.3873  -2.3854  -2.3827  -2.3575  -2.3542  -2.3529  -2.3457  -2.3432
    -2.3282  -2.3056  -2.3002  -2.2999  -2.2980  -2.2974  -2.2508  -2.2248
    -2.2206  -2.2195  -2.2142  -2.2031  -2.1942  -2.1925  -2.1742  -2.1739
    -2.1463  -2.1403  -2.1396  -2.1235  -2.1213  -2.1198  -2.0900  -2.0871
    -2.0498  -2.0427  -2.0425  -2.0377  -2.0358  -2.0320  -2.0304  -2.0295
    -2.0264  -2.0249  -2.0196  -2.0071  -2.0027  -1.8935  -1.8794  -1.8744
    -1.8402  -1.8371  -1.8322  -1.8293  -1.8244  -1.8135  -1.8121  -1.8108
    -1.8090  -1.7920  -1.7846  -1.7808  -1.7779  -1.7687  -1.7645  -1.7435
    -1.7423  -1.7142  -1.7127  -1.6881  -1.6834  -1.6715  -1.6697  -1.6557
    -1.6447  -1.6414  -1.6246  -1.6205  -1.6101  -1.6061  -1.6033  -1.5899
    -1.5776  -1.5709  -1.5600  -1.5548  -1.5276  -1.5202  -1.5023  -1.4682
    -1.4672  -1.4539  -1.4528  -1.4267  -1.4262  -1.4142  -1.3931  -1.3911
    -1.3830  -1.3515  -1.3481  -1.3345  -1.3302  -1.3236  -1.3076  -1.3038
    -1.2827  -1.2735  -1.2708  -1.2662  -1.2091  -1.2072  -1.1971  -1.1936
    -1.1795  -1.1783  -1.1658  -1.1649  -1.1472  -1.1345  -1.1060  -1.1045
    -1.0928  -1.0634  -1.0569  -1.0514  -1.0438  -1.0433  -1.0419  -1.0385
    -1.0266  -1.0218  -0.9963  -0.9940  -0.9836  -0.9802  -0.9792  -0.9632
    -0.9582  -0.9389  -0.9256  -0.9165  -0.8859  -0.8238  -0.8115  -0.8056
    -0.8049  -0.8009  -0.7954  -0.7874  -0.7719  -0.7626  -0.7549  -0.7466
    -0.7404  -0.7331  -0.7321  -0.7119  -0.7096  -0.7008  -0.6980  -0.6271
    -0.6257  -0.5945  -0.5890  -0.5876  -0.5826  -0.5790  -0.5784  -0.5742
    -0.5671  -0.5589  -0.5360  -0.5234  -0.5036  -0.4917  -0.4905  -0.4801
    -0.4748  -0.4679  -0.4667  -0.4649  -0.4633  -0.4519  -0.4469  -0.4422
    -0.4308  -0.4117  -0.4094  -0.4013  -0.3961  -0.3908  -0.3770  -0.3457
    -0.3422  -0.3362  -0.3274  -0.2672  -0.2655  -0.2322  -0.2316  -0.1743
    -0.1730  -0.1725  -0.1476  -0.1447   0.0779   0.1086   0.4286   0.4287
     0.5154   0.5382   0.7138   0.7456   0.7489   0.8737   0.8792   1.3085
     1.3094   1.3255   1.5886   1.6188   1.6195   1.8885   1.9108   1.9721
     1.9741   1.9968   2.0146   2.2282   2.2302   2.3197   2.3207   2.3897
     2.4530   2.4770   2.6229   2.7244   3.1565   3.1599   3.1644   3.1717
     3.2159   3.2216   3.5117   3.5136   3.7871   3.8041   3.8954   4.2087
     4.2454   4.2562   4.4433   4.4868   4.5489   4.5540   4.6444   4.7591
     4.7677   4.8778   4.8829   5.1804   5.2433   5.2550   5.2863   5.4243
     5.4500   5.6334   5.6405   5.6650   5.6690   5.7183   5.7325   5.7680
     5.8488   6.0500   6.2606   6.3268   6.3482   6.4664   6.4702   6.4820
     6.4913   6.5319   6.6509   6.7176   6.7286   6.8230   6.9138   6.9277
     6.9741   7.0426   7.0668

          k =-0.2500-0.4330 0.1111 (136853 PWs)   bands (ev):

   -19.2355  -7.1136  -6.3129  -5.9143  -5.9134  -5.2375  -4.9029  -4.9025
    -4.8662  -4.8635  -4.5027  -4.5020  -4.4038  -4.4036  -4.3897  -4.3671
    -4.3483  -4.2370  -4.2354  -4.2119  -4.1689  -4.1680  -4.1002  -4.0995
    -4.0944  -4.0931  -4.0713  -4.0669  -4.0648  -4.0005  -3.9939  -3.9637
    -3.9625  -3.9511  -3.9507  -3.9277  -3.9275  -3.9047  -3.8970  -3.8966
    -3.8708  -3.8182  -3.8177  -3.7701  -3.7686  -3.7132  -3.7121  -3.6582
    -3.6570  -3.6552  -3.6551  -3.6197  -3.5850  -3.5838  -3.5754  -3.5731
    -3.5725  -3.5459  -3.5428  -3.5347  -3.4758  -3.4744  -3.4680  -3.4464
    -3.4387  -3.3725  -3.3666  -3.3504  -3.3336  -3.3299  -3.3056  -3.2948
    -3.2899  -3.2719  -3.2160  -3.2145  -3.1975  -3.1967  -3.1467  -3.1426
    -3.1341  -3.1005  -3.0724  -3.0706  -3.0621  -3.0614  -3.0508  -3.0462
    -3.0419  -3.0391  -3.0304  -2.9899  -2.9526  -2.9509  -2.9380  -2.9369
    -2.9098  -2.9030  -2.9016  -2.8817  -2.8346  -2.8337  -2.8272  -2.7875
    -2.7802  -2.7685  -2.7681  -2.7421  -2.7390  -2.7086  -2.6732  -2.6713
    -2.6521  -2.6419  -2.6289  -2.6279  -2.5798  -2.5789  -2.5454  -2.5226
    -2.5218  -2.5009  -2.4982  -2.4872  -2.4861  -2.4762  -2.4554  -2.4546
    -2.4094  -2.4080  -2.4067  -2.3921  -2.3907  -2.3830  -2.3766  -2.3748
    -2.3741  -2.3720  -2.3653  -2.3589  -2.3548  -2.3478  -2.3222  -2.3188
    -2.3169  -2.3147  -2.3138  -2.3113  -2.3107  -2.2861  -2.2823  -2.2687
    -2.2669  -2.2514  -2.2476  -2.2436  -2.2382  -2.2376  -2.2361  -2.2221
    -2.2175  -2.2155  -2.2144  -2.2007  -2.1733  -2.1709  -2.1300  -2.1291
    -2.1071  -2.1069  -2.0833  -2.0778  -2.0573  -2.0505  -2.0359  -2.0300
    -2.0032  -2.0008  -1.9827  -1.9785  -1.9732  -1.9705  -1.9644  -1.9611
    -1.9389  -1.9302  -1.9245  -1.8658  -1.8626  -1.8582  -1.8567  -1.8552
    -1.8221  -1.7997  -1.7982  -1.7779  -1.7715  -1.7187  -1.7129  -1.6988
    -1.6771  -1.6627  -1.6148  -1.6028  -1.5963  -1.5897  -1.5805  -1.5781
    -1.5755  -1.5682  -1.5650  -1.5596  -1.5126  -1.5018  -1.4974  -1.4961
    -1.4851  -1.4781  -1.4677  -1.4424  -1.4396  -1.4252  -1.4246  -1.4205
    -1.4163  -1.4052  -1.4021  -1.3920  -1.3821  -1.3794  -1.3449  -1.3325
    -1.3301  -1.3148  -1.3090  -1.2942  -1.2549  -1.2492  -1.2262  -1.2220
    -1.2182  -1.1915  -1.1428  -1.1402  -1.1387  -1.1356  -1.1330  -1.1258
    -1.1148  -1.1065  -1.0959  -1.0664  -1.0620  -1.0342  -1.0328  -1.0272
    -1.0251  -1.0213  -1.0056  -1.0028  -1.0020  -0.9988  -0.9946  -0.9613
    -0.9595  -0.9580  -0.9508  -0.9307  -0.9252  -0.9211  -0.8979  -0.8933
    -0.8802  -0.8464  -0.8388  -0.8320  -0.8009  -0.7948  -0.7856  -0.7833
    -0.7775  -0.7766  -0.7737  -0.7677  -0.7614  -0.7489  -0.7374  -0.7353
    -0.7315  -0.7298  -0.7224  -0.6924  -0.6922  -0.6849  -0.6774  -0.6629
    -0.6586  -0.6484  -0.6407  -0.5905  -0.5874  -0.5816  -0.5809  -0.5790
    -0.5763  -0.5672  -0.5541  -0.5484  -0.5456  -0.5438  -0.5428  -0.5282
    -0.5035  -0.5012  -0.4994  -0.4921  -0.4897  -0.4862  -0.4851  -0.4718
    -0.4663  -0.4656  -0.4359  -0.4235  -0.4214  -0.4146  -0.4108  -0.4059
    -0.3355  -0.3319  -0.3304  -0.3274  -0.3214  -0.3145  -0.2840  -0.2723
    -0.2713  -0.2437  -0.2398  -0.2031  -0.1183  -0.1150  -0.0155   0.3994
     0.4000   0.4035   0.4044   0.4618   0.4815   0.8499   0.8535   0.8940
     0.8952   1.0103   1.0895   1.1947   1.2067   1.4143   1.4382   2.0464
     2.0558   2.2086   2.2172   2.3406   2.3583   2.4491   2.4495   2.6035
     2.8394   2.8443   2.9672   3.1872   3.1961   3.2691   3.2721   3.3699
     3.3885   3.5771   3.5874   3.6421   3.8447   3.8468   3.9055   3.9134
     4.1642   4.1683   4.1818   4.4150   4.4516   4.4605   4.5030   4.8348
     4.8401   4.8681   5.0016   5.1700   5.1768   5.2040   5.2323   5.4262
     5.7840   5.9247   5.9578   5.9662   5.9730   6.0345   6.0379   6.0991
     6.1328   6.1544   6.1724   6.1980   6.2018   6.2171   6.2347   6.2563
     6.2716   6.4353   6.5634   6.6861   6.7461   6.7705   6.9042   6.9095
     6.9192   7.0200   7.0299

          k =-0.2500 0.4330-0.1111 (136853 PWs)   bands (ev):

   -19.2355  -7.1136  -6.3129  -5.9153  -5.9124  -5.2375  -4.9034  -4.9021
    -4.8670  -4.8628  -4.5030  -4.5017  -4.4042  -4.4033  -4.3895  -4.3671
    -4.3483  -4.2371  -4.2353  -4.2118  -4.1688  -4.1681  -4.1001  -4.0995
    -4.0944  -4.0935  -4.0715  -4.0678  -4.0639  -4.0010  -3.9935  -3.9641
    -3.9620  -3.9511  -3.9507  -3.9277  -3.9272  -3.9049  -3.8969  -3.8965
    -3.8709  -3.8184  -3.8176  -3.7707  -3.7682  -3.7131  -3.7123  -3.6582
    -3.6567  -3.6552  -3.6551  -3.6198  -3.5860  -3.5840  -3.5747  -3.5735
    -3.5724  -3.5463  -3.5426  -3.5346  -3.4757  -3.4746  -3.4666  -3.4462
    -3.4385  -3.3744  -3.3671  -3.3439  -3.3339  -3.3307  -3.3055  -3.2981
    -3.2904  -3.2729  -3.2163  -3.2142  -3.1974  -3.1966  -3.1462  -3.1416
    -3.1345  -3.1006  -3.0725  -3.0698  -3.0622  -3.0603  -3.0499  -3.0475
    -3.0417  -3.0394  -3.0309  -2.9899  -2.9531  -2.9506  -2.9382  -2.9371
    -2.9101  -2.9028  -2.9017  -2.8815  -2.8350  -2.8334  -2.8261  -2.7875
    -2.7802  -2.7684  -2.7680  -2.7408  -2.7389  -2.7087  -2.6743  -2.6709
    -2.6521  -2.6419  -2.6301  -2.6282  -2.5793  -2.5787  -2.5452  -2.5239
    -2.5218  -2.4999  -2.4984  -2.4873  -2.4864  -2.4764  -2.4554  -2.4540
    -2.4105  -2.4077  -2.4069  -2.3918  -2.3909  -2.3832  -2.3778  -2.3753
    -2.3745  -2.3721  -2.3653  -2.3578  -2.3549  -2.3506  -2.3229  -2.3183
    -2.3163  -2.3148  -2.3141  -2.3116  -2.3102  -2.2849  -2.2825  -2.2682
    -2.2663  -2.2499  -2.2479  -2.2414  -2.2386  -2.2371  -2.2361  -2.2244
    -2.2177  -2.2161  -2.2135  -2.2007  -2.1731  -2.1712  -2.1301  -2.1293
    -2.1074  -2.1064  -2.0846  -2.0774  -2.0527  -2.0501  -2.0343  -2.0302
    -2.0016  -1.9915  -1.9844  -1.9789  -1.9736  -1.9700  -1.9636  -1.9609
    -1.9416  -1.9322  -1.9240  -1.8760  -1.8619  -1.8587  -1.8565  -1.8552
    -1.8235  -1.8004  -1.7973  -1.7811  -1.7715  -1.7170  -1.7127  -1.6994
    -1.6740  -1.6630  -1.6119  -1.6023  -1.5985  -1.5908  -1.5854  -1.5790
    -1.5769  -1.5711  -1.5656  -1.5600  -1.5124  -1.5033  -1.4983  -1.4963
    -1.4824  -1.4794  -1.4559  -1.4430  -1.4376  -1.4262  -1.4240  -1.4228
    -1.4158  -1.4066  -1.4033  -1.3904  -1.3819  -1.3810  -1.3457  -1.3361
    -1.3299  -1.3131  -1.2980  -1.2937  -1.2545  -1.2519  -1.2241  -1.2225
    -1.2200  -1.1924  -1.1431  -1.1403  -1.1387  -1.1361  -1.1328  -1.1249
    -1.1177  -1.1070  -1.0997  -1.0652  -1.0619  -1.0340  -1.0316  -1.0273
    -1.0246  -1.0208  -1.0048  -1.0035  -1.0016  -0.9982  -0.9964  -0.9627
    -0.9590  -0.9580  -0.9500  -0.9304  -0.9274  -0.9201  -0.8989  -0.8924
    -0.8795  -0.8464  -0.8390  -0.8292  -0.8017  -0.7939  -0.7841  -0.7834
    -0.7776  -0.7767  -0.7735  -0.7670  -0.7614  -0.7498  -0.7370  -0.7354
    -0.7315  -0.7298  -0.7233  -0.6925  -0.6921  -0.6854  -0.6760  -0.6626
    -0.6587  -0.6498  -0.6423  -0.5904  -0.5875  -0.5814  -0.5807  -0.5786
    -0.5757  -0.5678  -0.5540  -0.5489  -0.5458  -0.5437  -0.5432  -0.5273
    -0.5027  -0.5016  -0.5000  -0.4926  -0.4894  -0.4859  -0.4845  -0.4714
    -0.4663  -0.4655  -0.4387  -0.4241  -0.4206  -0.4151  -0.4112  -0.4025
    -0.3358  -0.3318  -0.3305  -0.3269  -0.3215  -0.3156  -0.2840  -0.2724
    -0.2717  -0.2454  -0.2396  -0.2010  -0.1211  -0.1118  -0.0154   0.3994
     0.4000   0.4033   0.4044   0.4598   0.4844   0.8486   0.8542   0.8927
     0.8966   1.0116   1.0889   1.1917   1.2087   1.4109   1.4400   2.0454
     2.0576   2.2057   2.2209   2.3381   2.3606   2.4489   2.4497   2.6031
     2.8369   2.8474   2.9662   3.1833   3.1977   3.2691   3.2740   3.3692
     3.3886   3.5669   3.5948   3.6456   3.8442   3.8473   3.9057   3.9158
     4.1634   4.1655   4.1835   4.4161   4.4514   4.4592   4.5037   4.8329
     4.8438   4.8632   5.0031   5.1729   5.1775   5.1966   5.2369   5.4262
     5.7961   5.9146   5.9605   5.9614   5.9763   6.0321   6.0403   6.1038
     6.1253   6.1643   6.1714   6.1972   6.2043   6.2123   6.2427   6.2574
     6.2677   6.4370   6.5474   6.6905   6.7461   6.7636   6.9008   6.9114
     6.9184   7.0200   7.0391

          k = 0.2500-0.4330-0.1111 (136853 PWs)   bands (ev):

   -19.2355  -7.1136  -6.3129  -5.9153  -5.9124  -5.2375  -4.9034  -4.9021
    -4.8670  -4.8628  -4.5030  -4.5017  -4.4042  -4.4033  -4.3895  -4.3671
    -4.3483  -4.2371  -4.2353  -4.2118  -4.1688  -4.1681  -4.1001  -4.0995
    -4.0944  -4.0935  -4.0715  -4.0678  -4.0639  -4.0010  -3.9935  -3.9641
    -3.9620  -3.9511  -3.9507  -3.9277  -3.9272  -3.9049  -3.8969  -3.8965
    -3.8709  -3.8184  -3.8176  -3.7707  -3.7682  -3.7131  -3.7123  -3.6582
    -3.6567  -3.6552  -3.6551  -3.6198  -3.5860  -3.5840  -3.5747  -3.5735
    -3.5724  -3.5463  -3.5426  -3.5346  -3.4757  -3.4746  -3.4666  -3.4462
    -3.4385  -3.3744  -3.3671  -3.3439  -3.3339  -3.3307  -3.3055  -3.2981
    -3.2904  -3.2729  -3.2163  -3.2142  -3.1974  -3.1966  -3.1462  -3.1416
    -3.1345  -3.1006  -3.0725  -3.0698  -3.0622  -3.0603  -3.0499  -3.0475
    -3.0417  -3.0394  -3.0309  -2.9899  -2.9531  -2.9506  -2.9382  -2.9371
    -2.9101  -2.9028  -2.9017  -2.8815  -2.8350  -2.8334  -2.8261  -2.7875
    -2.7802  -2.7684  -2.7680  -2.7408  -2.7389  -2.7087  -2.6743  -2.6709
    -2.6521  -2.6419  -2.6301  -2.6282  -2.5793  -2.5787  -2.5452  -2.5239
    -2.5218  -2.4999  -2.4984  -2.4873  -2.4864  -2.4764  -2.4554  -2.4540
    -2.4105  -2.4077  -2.4069  -2.3918  -2.3909  -2.3832  -2.3778  -2.3753
    -2.3745  -2.3721  -2.3653  -2.3578  -2.3549  -2.3506  -2.3229  -2.3183
    -2.3163  -2.3148  -2.3141  -2.3116  -2.3102  -2.2849  -2.2825  -2.2682
    -2.2663  -2.2499  -2.2479  -2.2414  -2.2386  -2.2371  -2.2361  -2.2244
    -2.2177  -2.2161  -2.2135  -2.2007  -2.1731  -2.1712  -2.1301  -2.1293
    -2.1074  -2.1064  -2.0846  -2.0774  -2.0527  -2.0501  -2.0343  -2.0302
    -2.0016  -1.9915  -1.9844  -1.9789  -1.9736  -1.9700  -1.9636  -1.9609
    -1.9416  -1.9322  -1.9240  -1.8760  -1.8619  -1.8587  -1.8565  -1.8552
    -1.8235  -1.8004  -1.7973  -1.7811  -1.7715  -1.7170  -1.7127  -1.6994
    -1.6740  -1.6630  -1.6120  -1.6023  -1.5985  -1.5908  -1.5854  -1.5790
    -1.5769  -1.5711  -1.5656  -1.5600  -1.5124  -1.5033  -1.4983  -1.4963
    -1.4824  -1.4794  -1.4559  -1.4430  -1.4376  -1.4262  -1.4240  -1.4228
    -1.4158  -1.4066  -1.4033  -1.3904  -1.3819  -1.3810  -1.3457  -1.3361
    -1.3299  -1.3131  -1.2980  -1.2937  -1.2545  -1.2519  -1.2241  -1.2225
    -1.2200  -1.1924  -1.1431  -1.1403  -1.1387  -1.1361  -1.1328  -1.1249
    -1.1177  -1.1070  -1.0997  -1.0652  -1.0619  -1.0340  -1.0316  -1.0273
    -1.0246  -1.0208  -1.0048  -1.0035  -1.0016  -0.9982  -0.9964  -0.9627
    -0.9590  -0.9580  -0.9500  -0.9304  -0.9274  -0.9201  -0.8989  -0.8924
    -0.8795  -0.8464  -0.8390  -0.8292  -0.8017  -0.7939  -0.7841  -0.7834
    -0.7776  -0.7767  -0.7735  -0.7670  -0.7614  -0.7498  -0.7370  -0.7354
    -0.7315  -0.7298  -0.7233  -0.6925  -0.6921  -0.6854  -0.6760  -0.6626
    -0.6587  -0.6498  -0.6423  -0.5904  -0.5875  -0.5814  -0.5807  -0.5786
    -0.5757  -0.5678  -0.5540  -0.5489  -0.5458  -0.5437  -0.5432  -0.5273
    -0.5027  -0.5016  -0.5000  -0.4926  -0.4894  -0.4859  -0.4845  -0.4714
    -0.4663  -0.4655  -0.4387  -0.4241  -0.4206  -0.4151  -0.4112  -0.4025
    -0.3358  -0.3318  -0.3305  -0.3269  -0.3215  -0.3156  -0.2840  -0.2724
    -0.2717  -0.2454  -0.2396  -0.2010  -0.1211  -0.1118  -0.0154   0.3994
     0.4000   0.4033   0.4044   0.4598   0.4844   0.8486   0.8542   0.8927
     0.8966   1.0116   1.0889   1.1917   1.2087   1.4109   1.4400   2.0454
     2.0576   2.2057   2.2209   2.3381   2.3606   2.4489   2.4497   2.6031
     2.8369   2.8474   2.9662   3.1833   3.1977   3.2691   3.2740   3.3692
     3.3886   3.5669   3.5948   3.6456   3.8442   3.8473   3.9057   3.9158
     4.1634   4.1655   4.1835   4.4161   4.4514   4.4592   4.5037   4.8329
     4.8438   4.8632   5.0031   5.1729   5.1775   5.1967   5.2369   5.4262
     5.7962   5.9147   5.9605   5.9615   5.9764   6.0321   6.0404   6.1042
     6.1253   6.1620   6.1713   6.1971   6.2038   6.2123   6.2433   6.2574
     6.2678   6.4378   6.5469   6.6965   6.7505   6.7623   6.9010   6.9115
     6.9196   7.0156   7.0256

          k = 0.5000 0.0000 0.1111 (136853 PWs)   bands (ev):

   -19.2355  -7.1136  -6.3128  -5.9156  -5.9121  -5.2374  -4.9038  -4.9016
    -4.8679  -4.8619  -4.5034  -4.5012  -4.4039  -4.4036  -4.3894  -4.3671
    -4.3481  -4.2372  -4.2354  -4.2120  -4.1689  -4.1679  -4.1003  -4.0992
    -4.0948  -4.0933  -4.0715  -4.0683  -4.0634  -4.0021  -3.9925  -3.9646
    -3.9615  -3.9512  -3.9504  -3.9277  -3.9273  -3.9048  -3.8970  -3.8965
    -3.8709  -3.8184  -3.8177  -3.7710  -3.7678  -3.7133  -3.7122  -3.6577
    -3.6568  -3.6552  -3.6551  -3.6200  -3.5856  -3.5840  -3.5746  -3.5732
    -3.5727  -3.5456  -3.5425  -3.5351  -3.4754  -3.4742  -3.4676  -3.4458
    -3.4383  -3.3801  -3.3669  -3.3396  -3.3359  -3.3228  -3.3060  -3.3021
    -3.2904  -3.2745  -3.2162  -3.2149  -3.1980  -3.1966  -3.1452  -3.1421
    -3.1339  -3.1010  -3.0720  -3.0702  -3.0620  -3.0592  -3.0506  -3.0480
    -3.0419  -3.0386  -3.0314  -2.9902  -2.9531  -2.9504  -2.9383  -2.9374
    -2.9104  -2.9033  -2.9017  -2.8813  -2.8357  -2.8327  -2.8246  -2.7877
    -2.7802  -2.7688  -2.7676  -2.7404  -2.7370  -2.7088  -2.6744  -2.6717
    -2.6520  -2.6420  -2.6311  -2.6286  -2.5801  -2.5777  -2.5449  -2.5237
    -2.5227  -2.4999  -2.4979  -2.4873  -2.4864  -2.4765  -2.4550  -2.4541
    -2.4109  -2.4076  -2.4066  -2.3920  -2.3908  -2.3831  -2.3773  -2.3755
    -2.3744  -2.3721  -2.3654  -2.3594  -2.3540  -2.3517  -2.3230  -2.3186
    -2.3161  -2.3158  -2.3143  -2.3122  -2.3091  -2.2844  -2.2824  -2.2673
    -2.2662  -2.2495  -2.2478  -2.2409  -2.2391  -2.2381  -2.2352  -2.2245
    -2.2189  -2.2155  -2.2125  -2.2011  -2.1734  -2.1710  -2.1302  -2.1291
    -2.1076  -2.1066  -2.0840  -2.0786  -2.0517  -2.0499  -2.0337  -2.0302
    -2.0025  -1.9924  -1.9814  -1.9797  -1.9734  -1.9700  -1.9640  -1.9616
    -1.9426  -1.9309  -1.9243  -1.8758  -1.8630  -1.8590  -1.8565  -1.8541
    -1.8252  -1.8003  -1.7974  -1.7808  -1.7712  -1.7169  -1.7126  -1.6994
    -1.6734  -1.6629  -1.6125  -1.6020  -1.5998  -1.5893  -1.5844  -1.5786
    -1.5772  -1.5712  -1.5649  -1.5602  -1.5094  -1.5059  -1.4977  -1.4962
    -1.4827  -1.4765  -1.4603  -1.4428  -1.4387  -1.4256  -1.4248  -1.4221
    -1.4161  -1.4071  -1.4022  -1.3903  -1.3825  -1.3803  -1.3442  -1.3327
    -1.3293  -1.3130  -1.3052  -1.2941  -1.2545  -1.2517  -1.2258  -1.2224
    -1.2180  -1.1920  -1.1428  -1.1409  -1.1388  -1.1361  -1.1322  -1.1264
    -1.1170  -1.1061  -1.0989  -1.0674  -1.0608  -1.0336  -1.0326  -1.0267
    -1.0254  -1.0208  -1.0054  -1.0024  -1.0017  -0.9991  -0.9945  -0.9619
    -0.9593  -0.9576  -0.9514  -0.9294  -0.9240  -0.9222  -0.8996  -0.8911
    -0.8819  -0.8456  -0.8390  -0.8294  -0.8016  -0.7936  -0.7860  -0.7831
    -0.7772  -0.7767  -0.7731  -0.7678  -0.7620  -0.7490  -0.7378  -0.7342
    -0.7315  -0.7307  -0.7225  -0.6929  -0.6917  -0.6838  -0.6778  -0.6637
    -0.6587  -0.6491  -0.6417  -0.5903  -0.5879  -0.5815  -0.5800  -0.5786
    -0.5759  -0.5684  -0.5537  -0.5488  -0.5455  -0.5444  -0.5423  -0.5278
    -0.5038  -0.5009  -0.4996  -0.4919  -0.4895  -0.4860  -0.4849  -0.4724
    -0.4667  -0.4653  -0.4374  -0.4236  -0.4213  -0.4152  -0.4100  -0.4048
    -0.3350  -0.3325  -0.3303  -0.3275  -0.3210  -0.3155  -0.2839  -0.2724
    -0.2716  -0.2433  -0.2397  -0.2036  -0.1178  -0.1145  -0.0152   0.3995
     0.4001   0.4031   0.4043   0.4618   0.4818   0.8494   0.8540   0.8936
     0.8954   1.0110   1.0891   1.1932   1.2080   1.4116   1.4402   2.0465
     2.0563   2.2072   2.2188   2.3389   2.3597   2.4484   2.4501   2.6033
     2.8380   2.8470   2.9665   3.1837   3.1984   3.2689   3.2732   3.3693
     3.3885   3.5623   3.6007   3.6424   3.8443   3.8472   3.9056   3.9158
     4.1613   4.1681   4.1832   4.4157   4.4508   4.4609   4.5028   4.8360
     4.8388   4.8661   5.0032   5.1667   5.1767   5.1835   5.2529   5.4439
     5.7662   5.9430   5.9581   5.9676   5.9715   6.0347   6.0366   6.1040
     6.1196   6.1451   6.1735   6.1960   6.2038   6.2123   6.2357   6.2565
     6.2764   6.4303   6.5726   6.6819   6.7391   6.7970   6.9008   6.9098
     6.9192   7.0051   7.0294

          k =-0.5000 0.0000 0.1111 (136853 PWs)   bands (ev):

   -19.2355  -7.1136  -6.3128  -5.9156  -5.9121  -5.2374  -4.9038  -4.9016
    -4.8679  -4.8619  -4.5034  -4.5012  -4.4039  -4.4036  -4.3894  -4.3671
    -4.3481  -4.2372  -4.2354  -4.2120  -4.1689  -4.1679  -4.1003  -4.0992
    -4.0948  -4.0933  -4.0715  -4.0683  -4.0634  -4.0021  -3.9925  -3.9646
    -3.9615  -3.9512  -3.9504  -3.9277  -3.9273  -3.9048  -3.8970  -3.8965
    -3.8709  -3.8184  -3.8177  -3.7710  -3.7678  -3.7133  -3.7122  -3.6577
    -3.6568  -3.6552  -3.6551  -3.6200  -3.5856  -3.5840  -3.5746  -3.5732
    -3.5727  -3.5456  -3.5425  -3.5351  -3.4754  -3.4742  -3.4676  -3.4458
    -3.4383  -3.3801  -3.3669  -3.3396  -3.3359  -3.3228  -3.3060  -3.3021
    -3.2904  -3.2745  -3.2162  -3.2149  -3.1980  -3.1966  -3.1452  -3.1421
    -3.1339  -3.1010  -3.0720  -3.0702  -3.0620  -3.0592  -3.0506  -3.0480
    -3.0419  -3.0386  -3.0314  -2.9902  -2.9531  -2.9504  -2.9383  -2.9374
    -2.9104  -2.9033  -2.9017  -2.8813  -2.8357  -2.8327  -2.8246  -2.7877
    -2.7802  -2.7688  -2.7676  -2.7404  -2.7370  -2.7088  -2.6744  -2.6717
    -2.6520  -2.6420  -2.6311  -2.6286  -2.5801  -2.5777  -2.5449  -2.5237
    -2.5227  -2.4999  -2.4979  -2.4873  -2.4864  -2.4765  -2.4550  -2.4541
    -2.4109  -2.4076  -2.4066  -2.3920  -2.3908  -2.3831  -2.3773  -2.3755
    -2.3744  -2.3721  -2.3654  -2.3594  -2.3540  -2.3517  -2.3230  -2.3186
    -2.3161  -2.3158  -2.3143  -2.3122  -2.3091  -2.2844  -2.2824  -2.2673
    -2.2662  -2.2495  -2.2478  -2.2409  -2.2391  -2.2381  -2.2352  -2.2245
    -2.2189  -2.2155  -2.2125  -2.2011  -2.1734  -2.1710  -2.1302  -2.1291
    -2.1076  -2.1066  -2.0840  -2.0786  -2.0517  -2.0499  -2.0337  -2.0302
    -2.0025  -1.9924  -1.9814  -1.9797  -1.9733  -1.9700  -1.9640  -1.9616
    -1.9426  -1.9309  -1.9243  -1.8758  -1.8630  -1.8590  -1.8565  -1.8541
    -1.8252  -1.8003  -1.7974  -1.7808  -1.7712  -1.7169  -1.7126  -1.6994
    -1.6734  -1.6629  -1.6125  -1.6020  -1.5998  -1.5893  -1.5844  -1.5786
    -1.5772  -1.5712  -1.5649  -1.5602  -1.5094  -1.5059  -1.4977  -1.4962
    -1.4827  -1.4765  -1.4603  -1.4428  -1.4387  -1.4256  -1.4248  -1.4221
    -1.4161  -1.4071  -1.4022  -1.3903  -1.3825  -1.3803  -1.3442  -1.3327
    -1.3293  -1.3130  -1.3052  -1.2941  -1.2545  -1.2517  -1.2258  -1.2224
    -1.2180  -1.1920  -1.1428  -1.1409  -1.1388  -1.1361  -1.1322  -1.1264
    -1.1170  -1.1061  -1.0989  -1.0674  -1.0608  -1.0336  -1.0326  -1.0267
    -1.0254  -1.0208  -1.0054  -1.0024  -1.0017  -0.9991  -0.9945  -0.9619
    -0.9593  -0.9576  -0.9514  -0.9294  -0.9240  -0.9222  -0.8996  -0.8911
    -0.8819  -0.8456  -0.8390  -0.8294  -0.8016  -0.7936  -0.7860  -0.7831
    -0.7772  -0.7767  -0.7731  -0.7678  -0.7620  -0.7490  -0.7378  -0.7342
    -0.7315  -0.7307  -0.7225  -0.6929  -0.6917  -0.6838  -0.6778  -0.6637
    -0.6587  -0.6491  -0.6417  -0.5903  -0.5879  -0.5815  -0.5800  -0.5786
    -0.5759  -0.5684  -0.5537  -0.5488  -0.5455  -0.5444  -0.5423  -0.5278
    -0.5038  -0.5009  -0.4996  -0.4919  -0.4895  -0.4860  -0.4849  -0.4724
    -0.4667  -0.4653  -0.4374  -0.4236  -0.4213  -0.4152  -0.4100  -0.4048
    -0.3350  -0.3325  -0.3303  -0.3275  -0.3210  -0.3155  -0.2839  -0.2724
    -0.2716  -0.2433  -0.2397  -0.2036  -0.1178  -0.1145  -0.0152   0.3995
     0.4001   0.4031   0.4043   0.4618   0.4818   0.8494   0.8540   0.8936
     0.8954   1.0110   1.0891   1.1932   1.2080   1.4116   1.4402   2.0465
     2.0563   2.2072   2.2188   2.3389   2.3597   2.4484   2.4501   2.6033
     2.8380   2.8470   2.9665   3.1837   3.1984   3.2689   3.2732   3.3693
     3.3885   3.5623   3.6007   3.6424   3.8443   3.8472   3.9056   3.9158
     4.1613   4.1681   4.1832   4.4157   4.4508   4.4609   4.5028   4.8360
     4.8388   4.8661   5.0032   5.1667   5.1767   5.1835   5.2529   5.4439
     5.7658   5.9431   5.9581   5.9676   5.9715   6.0347   6.0366   6.1041
     6.1208   6.1452   6.1731   6.1957   6.2038   6.2121   6.2357   6.2565
     6.2761   6.4313   6.5725   6.6772   6.7411   6.7998   6.9022   6.9101
     6.9193   7.0126   7.0279

          k =-0.2500 0.1443 0.1111 (136898 PWs)   bands (ev):

   -19.2355  -7.1138  -6.5224  -5.7312  -5.4412  -5.3814  -5.3806  -4.8428
    -4.8424  -4.7123  -4.7104  -4.5566  -4.5287  -4.4630  -4.4314  -4.4304
    -4.3960  -4.3958  -4.2672  -4.2261  -4.2250  -4.1662  -4.1456  -4.1453
    -4.0423  -4.0420  -4.0059  -4.0058  -4.0056  -3.9798  -3.9573  -3.9571
    -3.8560  -3.8508  -3.8498  -3.8305  -3.8129  -3.8127  -3.8016  -3.8006
    -3.7889  -3.7576  -3.7573  -3.7561  -3.7560  -3.7257  -3.7246  -3.7061
    -3.7060  -3.6965  -3.6541  -3.6522  -3.6192  -3.6077  -3.6046  -3.5974
    -3.5970  -3.5233  -3.5230  -3.4914  -3.4882  -3.4865  -3.4178  -3.4174
    -3.4031  -3.4022  -3.3780  -3.3734  -3.3723  -3.3707  -3.3281  -3.2172
    -3.2161  -3.1934  -3.1883  -3.1790  -3.1704  -3.1673  -3.1450  -3.1442
    -3.0945  -3.0939  -3.0787  -3.0775  -3.0572  -3.0107  -3.0080  -2.9902
    -2.9855  -2.9841  -2.9449  -2.9433  -2.9359  -2.9344  -2.9206  -2.9195
    -2.8817  -2.8810  -2.8594  -2.8580  -2.8561  -2.8549  -2.8510  -2.7773
    -2.7757  -2.7736  -2.7453  -2.7439  -2.6835  -2.6807  -2.6554  -2.6534
    -2.6416  -2.6403  -2.6334  -2.6052  -2.6042  -2.5943  -2.5789  -2.5560
    -2.5530  -2.5514  -2.5316  -2.5309  -2.5205  -2.5195  -2.5191  -2.5157
    -2.5059  -2.4603  -2.4304  -2.4292  -2.4143  -2.4008  -2.3949  -2.3939
    -2.3873  -2.3854  -2.3827  -2.3575  -2.3542  -2.3529  -2.3457  -2.3432
    -2.3282  -2.3056  -2.3002  -2.2999  -2.2980  -2.2974  -2.2508  -2.2248
    -2.2206  -2.2195  -2.2142  -2.2032  -2.1942  -2.1925  -2.1742  -2.1739
    -2.1463  -2.1403  -2.1396  -2.1235  -2.1213  -2.1198  -2.0900  -2.0871
    -2.0498  -2.0427  -2.0425  -2.0377  -2.0358  -2.0320  -2.0304  -2.0295
    -2.0264  -2.0249  -2.0196  -2.0071  -2.0027  -1.8935  -1.8794  -1.8744
    -1.8402  -1.8371  -1.8322  -1.8293  -1.8244  -1.8135  -1.8121  -1.8107
    -1.8090  -1.7920  -1.7846  -1.7808  -1.7779  -1.7687  -1.7645  -1.7435
    -1.7423  -1.7142  -1.7127  -1.6881  -1.6834  -1.6715  -1.6697  -1.6557
    -1.6447  -1.6414  -1.6247  -1.6205  -1.6101  -1.6061  -1.6033  -1.5899
    -1.5776  -1.5709  -1.5600  -1.5548  -1.5276  -1.5202  -1.5023  -1.4682
    -1.4672  -1.4539  -1.4528  -1.4267  -1.4262  -1.4142  -1.3931  -1.3911
    -1.3830  -1.3515  -1.3481  -1.3345  -1.3302  -1.3236  -1.3076  -1.3038
    -1.2827  -1.2735  -1.2708  -1.2662  -1.2091  -1.2072  -1.1971  -1.1936
    -1.1795  -1.1783  -1.1658  -1.1649  -1.1472  -1.1345  -1.1060  -1.1045
    -1.0928  -1.0634  -1.0569  -1.0514  -1.0438  -1.0433  -1.0419  -1.0385
    -1.0266  -1.0218  -0.9963  -0.9940  -0.9836  -0.9802  -0.9792  -0.9632
    -0.9582  -0.9389  -0.9256  -0.9165  -0.8859  -0.8237  -0.8115  -0.8056
    -0.8049  -0.8009  -0.7954  -0.7874  -0.7719  -0.7626  -0.7550  -0.7466
    -0.7404  -0.7331  -0.7321  -0.7119  -0.7096  -0.7008  -0.6980  -0.6271
    -0.6258  -0.5944  -0.5890  -0.5876  -0.5826  -0.5790  -0.5784  -0.5742
    -0.5671  -0.5589  -0.5360  -0.5234  -0.5036  -0.4917  -0.4906  -0.4801
    -0.4748  -0.4679  -0.4667  -0.4649  -0.4633  -0.4519  -0.4469  -0.4422
    -0.4308  -0.4117  -0.4094  -0.4013  -0.3961  -0.3908  -0.3770  -0.3457
    -0.3422  -0.3362  -0.3274  -0.2672  -0.2655  -0.2322  -0.2316  -0.1743
    -0.1730  -0.1725  -0.1476  -0.1447   0.0779   0.1086   0.4286   0.4287
     0.5154   0.5382   0.7138   0.7456   0.7489   0.8737   0.8792   1.3085
     1.3094   1.3255   1.5886   1.6188   1.6195   1.8885   1.9108   1.9721
     1.9741   1.9968   2.0146   2.2282   2.2302   2.3197   2.3207   2.3897
     2.4530   2.4770   2.6229   2.7244   3.1565   3.1599   3.1644   3.1717
     3.2159   3.2216   3.5117   3.5136   3.7871   3.8041   3.8954   4.2087
     4.2454   4.2562   4.4433   4.4868   4.5489   4.5540   4.6444   4.7591
     4.7677   4.8778   4.8829   5.1804   5.2433   5.2549   5.2864   5.4245
     5.4499   5.6334   5.6405   5.6650   5.6690   5.7183   5.7326   5.7675
     5.8490   6.0498   6.2608   6.3266   6.3472   6.4658   6.4702   6.4818
     6.4913   6.5363   6.6553   6.7177   6.7283   6.8234   6.9116   6.9273
     6.9758   7.0384   7.0638

          k =-0.2500-0.1443-0.1111 (136898 PWs)   bands (ev):

   -19.2355  -7.1138  -6.5224  -5.7312  -5.4412  -5.3814  -5.3805  -4.8428
    -4.8424  -4.7124  -4.7105  -4.5566  -4.5288  -4.4630  -4.4316  -4.4301
    -4.3963  -4.3955  -4.2672  -4.2258  -4.2252  -4.1661  -4.1457  -4.1451
    -4.0423  -4.0420  -4.0062  -4.0057  -4.0054  -3.9798  -3.9577  -3.9568
    -3.8559  -3.8504  -3.8501  -3.8303  -3.8129  -3.8127  -3.8016  -3.8007
    -3.7887  -3.7579  -3.7573  -3.7562  -3.7559  -3.7256  -3.7249  -3.7062
    -3.7059  -3.6956  -3.6549  -3.6524  -3.6198  -3.6072  -3.6044  -3.5973
    -3.5970  -3.5232  -3.5230  -3.4906  -3.4885  -3.4861  -3.4190  -3.4175
    -3.4033  -3.4020  -3.3783  -3.3726  -3.3723  -3.3714  -3.3277  -3.2166
    -3.2160  -3.1929  -3.1908  -3.1773  -3.1703  -3.1679  -3.1449  -3.1445
    -3.0945  -3.0939  -3.0781  -3.0772  -3.0571  -3.0105  -3.0094  -2.9901
    -2.9851  -2.9842  -2.9442  -2.9437  -2.9361  -2.9348  -2.9210  -2.9193
    -2.8812  -2.8807  -2.8601  -2.8579  -2.8560  -2.8551  -2.8507  -2.7767
    -2.7756  -2.7738  -2.7454  -2.7438  -2.6853  -2.6811  -2.6544  -2.6532
    -2.6411  -2.6402  -2.6334  -2.6058  -2.6041  -2.5943  -2.5778  -2.5549
    -2.5536  -2.5516  -2.5318  -2.5308  -2.5219  -2.5195  -2.5182  -2.5159
    -2.5060  -2.4602  -2.4306  -2.4297  -2.4154  -2.4015  -2.3946  -2.3939
    -2.3870  -2.3856  -2.3829  -2.3578  -2.3539  -2.3530  -2.3444  -2.3436
    -2.3281  -2.3036  -2.3005  -2.3001  -2.2977  -2.2974  -2.2510  -2.2251
    -2.2210  -2.2198  -2.2140  -2.2032  -2.1941  -2.1923  -2.1740  -2.1738
    -2.1464  -2.1404  -2.1397  -2.1239  -2.1216  -2.1204  -2.0910  -2.0870
    -2.0498  -2.0440  -2.0424  -2.0387  -2.0355  -2.0329  -2.0301  -2.0287
    -2.0268  -2.0229  -2.0192  -2.0058  -2.0029  -1.8944  -1.8766  -1.8680
    -1.8411  -1.8376  -1.8343  -1.8291  -1.8268  -1.8143  -1.8116  -1.8105
    -1.8096  -1.7931  -1.7845  -1.7805  -1.7775  -1.7669  -1.7647  -1.7448
    -1.7424  -1.7152  -1.7136  -1.6872  -1.6839  -1.6715  -1.6663  -1.6530
    -1.6444  -1.6411  -1.6248  -1.6200  -1.6103  -1.6057  -1.6032  -1.5895
    -1.5772  -1.5717  -1.5623  -1.5564  -1.5273  -1.5202  -1.4983  -1.4688
    -1.4674  -1.4537  -1.4525  -1.4309  -1.4266  -1.4195  -1.3933  -1.3915
    -1.3773  -1.3528  -1.3472  -1.3367  -1.3299  -1.3288  -1.3069  -1.3038
    -1.2780  -1.2728  -1.2704  -1.2673  -1.2081  -1.2069  -1.1954  -1.1945
    -1.1789  -1.1781  -1.1658  -1.1630  -1.1465  -1.1342  -1.1067  -1.1054
    -1.0928  -1.0630  -1.0560  -1.0511  -1.0440  -1.0436  -1.0414  -1.0383
    -1.0317  -1.0218  -0.9957  -0.9946  -0.9829  -0.9805  -0.9796  -0.9629
    -0.9580  -0.9381  -0.9270  -0.9159  -0.8867  -0.8242  -0.8110  -0.8056
    -0.8050  -0.7993  -0.7955  -0.7874  -0.7719  -0.7623  -0.7542  -0.7503
    -0.7403  -0.7340  -0.7318  -0.7124  -0.7086  -0.7001  -0.6973  -0.6264
    -0.6262  -0.5936  -0.5888  -0.5878  -0.5821  -0.5793  -0.5785  -0.5738
    -0.5672  -0.5590  -0.5347  -0.5233  -0.5066  -0.4912  -0.4906  -0.4801
    -0.4749  -0.4679  -0.4668  -0.4648  -0.4635  -0.4525  -0.4466  -0.4423
    -0.4301  -0.4117  -0.4098  -0.4019  -0.3966  -0.3885  -0.3770  -0.3458
    -0.3421  -0.3360  -0.3303  -0.2687  -0.2626  -0.2322  -0.2317  -0.1741
    -0.1731  -0.1724  -0.1476  -0.1432   0.0797   0.1046   0.4285   0.4287
     0.5175   0.5366   0.7110   0.7394   0.7583   0.8746   0.8787   1.3089
     1.3092   1.3251   1.5903   1.6184   1.6193   1.8912   1.9073   1.9729
     1.9731   1.9992   2.0126   2.2288   2.2300   2.3197   2.3204   2.3904
     2.4550   2.4732   2.6237   2.7258   3.1569   3.1587   3.1641   3.1707
     3.2187   3.2199   3.5121   3.5127   3.7902   3.8016   3.8948   4.2087
     4.2477   4.2545   4.4482   4.4802   4.5471   4.5586   4.6444   4.7577
     4.7692   4.8786   4.8797   5.1801   5.2398   5.2569   5.2878   5.4263
     5.4490   5.6361   5.6399   5.6663   5.6677   5.7254   5.7280   5.7597
     5.8483   6.0401   6.2669   6.3245   6.3621   6.4699   6.4723   6.4834
     6.4866   6.5345   6.6452   6.7170   6.7247   6.8140   6.9202   6.9362
     6.9697   7.0369   7.0718

          k = 0.2500 0.1443-0.1111 (136898 PWs)   bands (ev):

   -19.2355  -7.1138  -6.5224  -5.7312  -5.4412  -5.3814  -5.3805  -4.8428
    -4.8424  -4.7124  -4.7105  -4.5566  -4.5288  -4.4630  -4.4316  -4.4301
    -4.3963  -4.3955  -4.2672  -4.2258  -4.2252  -4.1661  -4.1457  -4.1451
    -4.0423  -4.0420  -4.0062  -4.0057  -4.0054  -3.9798  -3.9577  -3.9568
    -3.8559  -3.8504  -3.8501  -3.8303  -3.8129  -3.8127  -3.8016  -3.8007
    -3.7887  -3.7579  -3.7573  -3.7562  -3.7559  -3.7256  -3.7249  -3.7062
    -3.7059  -3.6956  -3.6549  -3.6524  -3.6198  -3.6072  -3.6044  -3.5973
    -3.5970  -3.5232  -3.5230  -3.4906  -3.4885  -3.4861  -3.4190  -3.4175
    -3.4033  -3.4020  -3.3783  -3.3726  -3.3723  -3.3714  -3.3277  -3.2166
    -3.2160  -3.1929  -3.1908  -3.1773  -3.1703  -3.1679  -3.1449  -3.1445
    -3.0945  -3.0939  -3.0780  -3.0772  -3.0571  -3.0105  -3.0094  -2.9901
    -2.9851  -2.9842  -2.9442  -2.9437  -2.9361  -2.9348  -2.9210  -2.9193
    -2.8812  -2.8807  -2.8601  -2.8579  -2.8560  -2.8551  -2.8507  -2.7767
    -2.7756  -2.7738  -2.7454  -2.7438  -2.6853  -2.6811  -2.6544  -2.6532
    -2.6411  -2.6402  -2.6334  -2.6058  -2.6041  -2.5943  -2.5778  -2.5549
    -2.5536  -2.5516  -2.5318  -2.5309  -2.5219  -2.5195  -2.5182  -2.5159
    -2.5060  -2.4602  -2.4306  -2.4297  -2.4154  -2.4015  -2.3946  -2.3939
    -2.3870  -2.3856  -2.3829  -2.3578  -2.3539  -2.3530  -2.3444  -2.3436
    -2.3281  -2.3036  -2.3005  -2.3001  -2.2977  -2.2974  -2.2510  -2.2251
    -2.2210  -2.2198  -2.2140  -2.2032  -2.1941  -2.1923  -2.1740  -2.1738
    -2.1464  -2.1404  -2.1397  -2.1239  -2.1216  -2.1204  -2.0910  -2.0870
    -2.0498  -2.0440  -2.0424  -2.0387  -2.0355  -2.0329  -2.0301  -2.0287
    -2.0268  -2.0229  -2.0192  -2.0058  -2.0029  -1.8944  -1.8766  -1.8680
    -1.8411  -1.8376  -1.8343  -1.8291  -1.8268  -1.8143  -1.8116  -1.8105
    -1.8096  -1.7931  -1.7845  -1.7805  -1.7775  -1.7669  -1.7647  -1.7448
    -1.7424  -1.7152  -1.7136  -1.6872  -1.6839  -1.6715  -1.6663  -1.6530
    -1.6444  -1.6411  -1.6248  -1.6200  -1.6103  -1.6057  -1.6032  -1.5895
    -1.5772  -1.5717  -1.5623  -1.5564  -1.5273  -1.5202  -1.4983  -1.4688
    -1.4674  -1.4537  -1.4525  -1.4309  -1.4266  -1.4195  -1.3933  -1.3915
    -1.3774  -1.3528  -1.3472  -1.3367  -1.3299  -1.3288  -1.3069  -1.3038
    -1.2780  -1.2729  -1.2704  -1.2673  -1.2081  -1.2069  -1.1954  -1.1945
    -1.1789  -1.1781  -1.1658  -1.1630  -1.1465  -1.1342  -1.1067  -1.1054
    -1.0928  -1.0630  -1.0560  -1.0511  -1.0440  -1.0436  -1.0414  -1.0383
    -1.0317  -1.0218  -0.9957  -0.9946  -0.9829  -0.9805  -0.9796  -0.9629
    -0.9580  -0.9381  -0.9270  -0.9159  -0.8867  -0.8243  -0.8110  -0.8056
    -0.8049  -0.7993  -0.7955  -0.7874  -0.7719  -0.7623  -0.7542  -0.7503
    -0.7403  -0.7340  -0.7318  -0.7124  -0.7086  -0.7001  -0.6973  -0.6264
    -0.6262  -0.5936  -0.5888  -0.5878  -0.5821  -0.5793  -0.5785  -0.5738
    -0.5672  -0.5590  -0.5347  -0.5233  -0.5066  -0.4912  -0.4906  -0.4801
    -0.4749  -0.4679  -0.4668  -0.4648  -0.4635  -0.4525  -0.4466  -0.4423
    -0.4301  -0.4117  -0.4098  -0.4019  -0.3966  -0.3885  -0.3770  -0.3458
    -0.3421  -0.3360  -0.3303  -0.2687  -0.2626  -0.2322  -0.2317  -0.1741
    -0.1731  -0.1724  -0.1476  -0.1432   0.0797   0.1046   0.4285   0.4287
     0.5175   0.5366   0.7110   0.7394   0.7583   0.8746   0.8787   1.3089
     1.3092   1.3251   1.5903   1.6184   1.6193   1.8912   1.9073   1.9729
     1.9731   1.9992   2.0126   2.2288   2.2300   2.3197   2.3204   2.3904
     2.4550   2.4732   2.6237   2.7258   3.1569   3.1587   3.1641   3.1707
     3.2187   3.2199   3.5121   3.5127   3.7902   3.8016   3.8948   4.2087
     4.2477   4.2545   4.4482   4.4802   4.5471   4.5586   4.6444   4.7577
     4.7692   4.8786   4.8797   5.1801   5.2398   5.2569   5.2877   5.4262
     5.4492   5.6361   5.6399   5.6663   5.6677   5.7254   5.7280   5.7601
     5.8464   6.0428   6.2680   6.3241   6.3621   6.4698   6.4726   6.4832
     6.4860   6.5293   6.6447   6.7161   6.7241   6.8166   6.9205   6.9360
     6.9698   7.0410   7.0764

          k = 0.0000-0.2887 0.1111 (136898 PWs)   bands (ev):

   -19.2355  -7.1138  -6.5224  -5.7312  -5.4412  -5.3813  -5.3806  -4.8428
    -4.8424  -4.7124  -4.7106  -4.5566  -4.5288  -4.4631  -4.4310  -4.4305
    -4.3960  -4.3957  -4.2673  -4.2260  -4.2250  -4.1660  -4.1456  -4.1454
    -4.0422  -4.0421  -4.0061  -4.0058  -4.0054  -3.9800  -3.9573  -3.9570
    -3.8565  -3.8506  -3.8497  -3.8305  -3.8129  -3.8128  -3.8012  -3.8007
    -3.7888  -3.7576  -3.7574  -3.7563  -3.7559  -3.7257  -3.7248  -3.7064
    -3.7059  -3.6961  -3.6538  -3.6527  -3.6200  -3.6058  -3.6042  -3.5973
    -3.5969  -3.5233  -3.5230  -3.4916  -3.4881  -3.4862  -3.4202  -3.4175
    -3.4030  -3.4019  -3.3770  -3.3725  -3.3723  -3.3711  -3.3306  -3.2163
    -3.2144  -3.1935  -3.1910  -3.1764  -3.1699  -3.1690  -3.1452  -3.1443
    -3.0943  -3.0937  -3.0780  -3.0756  -3.0572  -3.0110  -3.0100  -2.9901
    -2.9848  -2.9839  -2.9443  -2.9433  -2.9360  -2.9354  -2.9206  -2.9198
    -2.8809  -2.8807  -2.8603  -2.8590  -2.8559  -2.8554  -2.8505  -2.7765
    -2.7750  -2.7735  -2.7450  -2.7440  -2.6857  -2.6829  -2.6543  -2.6522
    -2.6407  -2.6404  -2.6333  -2.6058  -2.6046  -2.5942  -2.5773  -2.5551
    -2.5530  -2.5511  -2.5316  -2.5310  -2.5214  -2.5199  -2.5177  -2.5162
    -2.5060  -2.4602  -2.4306  -2.4300  -2.4155  -2.4015  -2.3949  -2.3938
    -2.3872  -2.3854  -2.3831  -2.3579  -2.3543  -2.3533  -2.3448  -2.3430
    -2.3280  -2.3033  -2.3007  -2.2993  -2.2978  -2.2972  -2.2511  -2.2258
    -2.2203  -2.2197  -2.2140  -2.2033  -2.1961  -2.1918  -2.1740  -2.1738
    -2.1462  -2.1402  -2.1398  -2.1238  -2.1215  -2.1212  -2.0897  -2.0880
    -2.0497  -2.0439  -2.0424  -2.0387  -2.0357  -2.0329  -2.0310  -2.0295
    -2.0260  -2.0222  -2.0209  -2.0045  -2.0025  -1.8928  -1.8786  -1.8669
    -1.8419  -1.8386  -1.8331  -1.8294  -1.8272  -1.8146  -1.8114  -1.8105
    -1.8084  -1.7925  -1.7846  -1.7815  -1.7779  -1.7670  -1.7648  -1.7448
    -1.7431  -1.7159  -1.7140  -1.6856  -1.6834  -1.6718  -1.6640  -1.6538
    -1.6446  -1.6413  -1.6247  -1.6204  -1.6107  -1.6065  -1.6036  -1.5879
    -1.5776  -1.5723  -1.5608  -1.5578  -1.5286  -1.5181  -1.4985  -1.4692
    -1.4673  -1.4540  -1.4533  -1.4288  -1.4268  -1.4187  -1.3932  -1.3913
    -1.3785  -1.3519  -1.3492  -1.3340  -1.3302  -1.3283  -1.3057  -1.3041
    -1.2805  -1.2728  -1.2705  -1.2672  -1.2094  -1.2068  -1.1970  -1.1926
    -1.1792  -1.1768  -1.1657  -1.1627  -1.1469  -1.1343  -1.1068  -1.1052
    -1.0922  -1.0619  -1.0574  -1.0512  -1.0442  -1.0436  -1.0426  -1.0392
    -1.0302  -1.0217  -0.9954  -0.9947  -0.9833  -0.9808  -0.9790  -0.9610
    -0.9576  -0.9399  -0.9267  -0.9162  -0.8871  -0.8228  -0.8115  -0.8056
    -0.8051  -0.7991  -0.7964  -0.7865  -0.7720  -0.7628  -0.7556  -0.7485
    -0.7404  -0.7342  -0.7318  -0.7121  -0.7093  -0.7004  -0.6963  -0.6267
    -0.6257  -0.5943  -0.5885  -0.5874  -0.5822  -0.5793  -0.5787  -0.5742
    -0.5676  -0.5588  -0.5353  -0.5232  -0.5057  -0.4914  -0.4902  -0.4802
    -0.4754  -0.4687  -0.4662  -0.4647  -0.4631  -0.4520  -0.4468  -0.4423
    -0.4307  -0.4117  -0.4093  -0.4014  -0.3959  -0.3901  -0.3770  -0.3456
    -0.3422  -0.3362  -0.3289  -0.2670  -0.2649  -0.2322  -0.2316  -0.1742
    -0.1731  -0.1723  -0.1476  -0.1443   0.0778   0.1079   0.4286   0.4286
     0.5159   0.5381   0.7120   0.7461   0.7505   0.8738   0.8790   1.3085
     1.3095   1.3254   1.5893   1.6187   1.6193   1.8893   1.9092   1.9716
     1.9743   1.9978   2.0142   2.2284   2.2302   2.3197   2.3205   2.3907
     2.4530   2.4751   2.6233   2.7253   3.1541   3.1613   3.1639   3.1720
     3.2162   3.2224   3.5114   3.5139   3.7892   3.8029   3.8949   4.2089
     4.2468   4.2550   4.4581   4.4719   4.5500   4.5522   4.6456   4.7586
     4.7670   4.8779   4.8829   5.1803   5.2450   5.2553   5.2917   5.4047
     5.4523   5.6352   5.6399   5.6636   5.6692   5.7170   5.7342   5.7620
     5.8622   6.0651   6.2683   6.3120   6.3336   6.4681   6.4711   6.4810
     6.4904   6.5300   6.6551   6.7145   6.7255   6.8423   6.8829   6.9478
     6.9713   7.0409   7.0599

          k = 0.0000 0.2887 0.1111 (136898 PWs)   bands (ev):

   -19.2355  -7.1138  -6.5224  -5.7312  -5.4412  -5.3813  -5.3806  -4.8428
    -4.8424  -4.7124  -4.7106  -4.5566  -4.5288  -4.4631  -4.4310  -4.4305
    -4.3959  -4.3957  -4.2673  -4.2260  -4.2250  -4.1660  -4.1456  -4.1454
    -4.0422  -4.0421  -4.0061  -4.0058  -4.0054  -3.9800  -3.9573  -3.9570
    -3.8565  -3.8506  -3.8497  -3.8305  -3.8129  -3.8128  -3.8012  -3.8007
    -3.7888  -3.7576  -3.7574  -3.7563  -3.7559  -3.7257  -3.7248  -3.7064
    -3.7059  -3.6961  -3.6538  -3.6527  -3.6200  -3.6058  -3.6042  -3.5973
    -3.5969  -3.5233  -3.5230  -3.4916  -3.4881  -3.4863  -3.4202  -3.4175
    -3.4030  -3.4019  -3.3770  -3.3725  -3.3723  -3.3711  -3.3306  -3.2163
    -3.2144  -3.1935  -3.1910  -3.1764  -3.1700  -3.1690  -3.1452  -3.1443
    -3.0943  -3.0937  -3.0780  -3.0756  -3.0572  -3.0110  -3.0100  -2.9901
    -2.9848  -2.9839  -2.9443  -2.9433  -2.9360  -2.9354  -2.9206  -2.9198
    -2.8809  -2.8807  -2.8603  -2.8590  -2.8559  -2.8554  -2.8505  -2.7765
    -2.7750  -2.7735  -2.7450  -2.7440  -2.6857  -2.6829  -2.6543  -2.6522
    -2.6407  -2.6404  -2.6333  -2.6058  -2.6046  -2.5942  -2.5773  -2.5551
    -2.5530  -2.5511  -2.5316  -2.5310  -2.5214  -2.5199  -2.5177  -2.5162
    -2.5060  -2.4602  -2.4306  -2.4300  -2.4155  -2.4015  -2.3949  -2.3938
    -2.3873  -2.3854  -2.3831  -2.3579  -2.3543  -2.3533  -2.3448  -2.3430
    -2.3280  -2.3033  -2.3007  -2.2993  -2.2978  -2.2972  -2.2511  -2.2258
    -2.2203  -2.2197  -2.2140  -2.2033  -2.1961  -2.1918  -2.1740  -2.1738
    -2.1462  -2.1402  -2.1398  -2.1238  -2.1215  -2.1212  -2.0897  -2.0880
    -2.0497  -2.0439  -2.0425  -2.0387  -2.0357  -2.0329  -2.0310  -2.0295
    -2.0260  -2.0222  -2.0209  -2.0045  -2.0025  -1.8928  -1.8786  -1.8669
    -1.8419  -1.8386  -1.8331  -1.8294  -1.8272  -1.8146  -1.8114  -1.8105
    -1.8084  -1.7925  -1.7846  -1.7815  -1.7779  -1.7670  -1.7648  -1.7448
    -1.7431  -1.7159  -1.7140  -1.6856  -1.6834  -1.6718  -1.6640  -1.6538
    -1.6446  -1.6413  -1.6247  -1.6204  -1.6107  -1.6065  -1.6036  -1.5879
    -1.5776  -1.5723  -1.5608  -1.5578  -1.5286  -1.5182  -1.4985  -1.4692
    -1.4673  -1.4540  -1.4533  -1.4288  -1.4268  -1.4187  -1.3932  -1.3913
    -1.3785  -1.3519  -1.3492  -1.3340  -1.3302  -1.3283  -1.3057  -1.3041
    -1.2805  -1.2728  -1.2705  -1.2672  -1.2094  -1.2068  -1.1970  -1.1926
    -1.1792  -1.1768  -1.1657  -1.1627  -1.1469  -1.1343  -1.1068  -1.1052
    -1.0922  -1.0619  -1.0574  -1.0512  -1.0442  -1.0436  -1.0426  -1.0392
    -1.0302  -1.0217  -0.9954  -0.9947  -0.9833  -0.9808  -0.9790  -0.9610
    -0.9576  -0.9398  -0.9267  -0.9162  -0.8871  -0.8228  -0.8115  -0.8056
    -0.8051  -0.7991  -0.7964  -0.7865  -0.7720  -0.7628  -0.7556  -0.7485
    -0.7404  -0.7343  -0.7318  -0.7121  -0.7093  -0.7004  -0.6963  -0.6267
    -0.6257  -0.5943  -0.5885  -0.5874  -0.5822  -0.5793  -0.5787  -0.5742
    -0.5676  -0.5588  -0.5353  -0.5232  -0.5057  -0.4914  -0.4902  -0.4802
    -0.4754  -0.4687  -0.4662  -0.4647  -0.4631  -0.4520  -0.4468  -0.4423
    -0.4307  -0.4117  -0.4093  -0.4014  -0.3959  -0.3901  -0.3770  -0.3456
    -0.3422  -0.3362  -0.3289  -0.2670  -0.2649  -0.2322  -0.2316  -0.1742
    -0.1731  -0.1723  -0.1476  -0.1443   0.0778   0.1079   0.4286   0.4286
     0.5159   0.5381   0.7120   0.7461   0.7505   0.8738   0.8790   1.3085
     1.3095   1.3254   1.5893   1.6187   1.6193   1.8893   1.9092   1.9716
     1.9743   1.9978   2.0142   2.2284   2.2302   2.3197   2.3205   2.3907
     2.4530   2.4751   2.6233   2.7253   3.1541   3.1613   3.1639   3.1720
     3.2162   3.2224   3.5114   3.5139   3.7892   3.8029   3.8949   4.2089
     4.2468   4.2550   4.4581   4.4719   4.5500   4.5522   4.6456   4.7586
     4.7670   4.8779   4.8829   5.1803   5.2450   5.2553   5.2919   5.4047
     5.4521   5.6352   5.6399   5.6636   5.6692   5.7170   5.7343   5.7612
     5.8646   6.0625   6.2665   6.3119   6.3335   6.4681   6.4710   6.4809
     6.4899   6.5375   6.6524   6.7155   6.7257   6.8364   6.8828   6.9478
     6.9722   7.0451   7.0690

     the Fermi energy is     1.4544 ev

!    total energy              =   -6604.42873852 Ry
     Harris-Foulkes estimate   =   -6604.42873852 Ry
     estimated scf accuracy    <          2.6E-09 Ry

     The total energy is the sum of the following terms:

     one-electron contribution =  -48754.47150050 Ry
     hartree contribution      =   24878.71255963 Ry
     xc contribution           =   -3204.99065127 Ry
     ewald contribution        =   20476.31805757 Ry
     smearing contrib. (-TS)   =       0.00279605 Ry

     convergence has been achieved in  22 iterations

     Writing output data file 1648451.save

     init_run     :    178.99s CPU    190.96s WALL (       1 calls)
     electrons    :   7418.20s CPU   7994.85s WALL (       1 calls)

     Called by init_run:
     wfcinit      :    141.68s CPU    152.56s WALL (       1 calls)
     potinit      :     10.34s CPU     10.94s WALL (       1 calls)

     Called by electrons:
     c_bands      :   6123.27s CPU   6579.32s WALL (      23 calls)
     sum_band     :    941.38s CPU   1046.21s WALL (      23 calls)
     v_of_rho     :     89.42s CPU    100.48s WALL (      23 calls)
     newd         :    276.37s CPU    280.99s WALL (      23 calls)
     mix_rho      :      2.46s CPU      2.78s WALL (      23 calls)
     vdW_energy   :      8.24s CPU      9.41s WALL (      23 calls)
     vdW_ffts     :     42.68s CPU     48.33s WALL (      46 calls)
     vdW_v        :     11.99s CPU     12.91s WALL (      23 calls)

     Called by c_bands:
     init_us_2    :     23.61s CPU     24.10s WALL (     564 calls)
     cegterg      :   6054.97s CPU   6509.62s WALL (     276 calls)

     Called by *egterg:
     h_psi        :   2669.34s CPU   3082.01s WALL (    1430 calls)
     s_psi        :    397.33s CPU    400.10s WALL (    1430 calls)
     g_psi        :      5.47s CPU      5.54s WALL (    1142 calls)
     cdiaghg      :   1796.48s CPU   1801.62s WALL (    1406 calls)

     Called by h_psi:
     add_vuspsi   :    398.32s CPU    400.84s WALL (    1430 calls)

     General routines
     calbec       :    586.88s CPU    589.36s WALL (    1706 calls)
     fft          :     91.48s CPU    101.10s WALL (    1518 calls)
     ffts         :      1.23s CPU      1.47s WALL (      46 calls)
     fftw         :   1751.68s CPU   2157.71s WALL (  667396 calls)
     interpolate  :      3.58s CPU      4.29s WALL (      46 calls)
     davcio       :      0.00s CPU      0.42s WALL (      12 calls)

     Parallel routines
     fft_scatter  :   1110.72s CPU   1374.78s WALL (  668960 calls)

     PWSCF        :     2h 6m CPU        2h18m WALL


   This run was terminated on:  13: 6:30  26Nov2015            

=------------------------------------------------------------------------------=
   JOB DONE.
=------------------------------------------------------------------------------=
