Setting SGE environment for SCC

     Program PWSCF v.5.1.2 starts on 27Jun2015 at  9:13:40 

     This program is part of the open-source Quantum ESPRESSO suite
     for quantum simulation of materials; please cite
         "P. Giannozzi et al., J. Phys.:Condens. Matter 21 395502 (2009);
          URL http://www.quantum-espresso.org", 
     in publications or presentations arising from this work. More details at
     http://www.quantum-espresso.org/quote

     Parallel version (MPI), running on    32 processors
     R & G space division:  proc/nbgrp/npool/nimage =      32
     Reading input from top.O1.Au50.d.2.6.phi.45.psi.180.in
Warning: card &IONS ignored
Warning: card / ignored
Warning: card &CELL ignored
Warning: card / ignored

     Current dimensions of program PWSCF are:
     Max number of different atomic species (ntypx) = 10
     Max number of k-points (npk) =  40000
     Max angular momentum in pseudopotentials (lmaxx) =  3

     IMPORTANT: XC functional enforced from input :
     Exchange-correlation      = VDW-DF ( 1  4  4  0 1 0)
     Any further DFT definition will be discarded
     Please, verify this is what you really want


     Subspace diagonalization in iterative solution of the eigenvalue problem:
     a serial algorithm will be used


     Parallelization info
     --------------------
     sticks:   dense  smooth     PW     G-vecs:    dense   smooth      PW
     Min         445     223     58                96775    34191    4534
     Max         446     224     59                96790    34246    4540
     Sum       14269    7147   1867              3097177  1095093  145167


     Title: 
     top.O1.Au50.d.2.6.phi.45.psi.180                                           


     bravais-lattice index     =            4
     lattice parameter (alat)  =      22.7436  a.u.
     unit-cell volume          =   22924.1508 (a.u.)^3
     number of atoms/cell      =           67
     number of atomic types    =            3
     number of electrons       =       712.00
     number of Kohn-Sham states=          427
     kinetic-energy cutoff     =      50.0000  Ry
     charge density cutoff     =     400.0000  Ry
     convergence threshold     =      1.0E-08
     mixing beta               =       0.7000
     number of iterations used =            8  plain     mixing
     Exchange-correlation      = VDW-DF ( 1  4  4  0 1 0)

     celldm(1)=  22.743643  celldm(2)=   0.000000  celldm(3)=   2.250000
     celldm(4)=   0.000000  celldm(5)=   0.000000  celldm(6)=   0.000000

     crystal axes: (cart. coord. in units of alat)
               a(1) = (   1.000000   0.000000   0.000000 )  
               a(2) = (  -0.500000   0.866025   0.000000 )  
               a(3) = (   0.000000   0.000000   2.250000 )  

     reciprocal axes: (cart. coord. in units 2 pi/alat)
               b(1) = (  1.000000  0.577350 -0.000000 )  
               b(2) = (  0.000000  1.154701  0.000000 )  
               b(3) = (  0.000000 -0.000000  0.444444 )  


     PseudoPot. # 1 for Au read from file:
     /home/scc/andrejb/qe/pseudo/Au.pbe-nd-van.UPF
     MD5 check sum: 458681b50f36d87ef23c61b04bba420a
     Pseudo is Ultrasoft + core correction, Zval = 11.0
     Generated by new atomic code, or converted to UPF format
     Using radial grid of  985 points,  3 beta functions with: 
                l(1) =   1
                l(2) =   2
                l(3) =   2
     Q(r) pseudized with  8 coefficients,  rinner =    1.100   1.100   1.100
                                                       1.100   1.100

     PseudoPot. # 2 for H  read from file:
     /home/scc/andrejb/qe/pseudo/H.pbe-van_ak.UPF
     MD5 check sum: 403db7282739603aa925980fa9b8608d
     Pseudo is Ultrasoft, Zval =  1.0
     Generated by new atomic code, or converted to UPF format
     Using radial grid of  615 points,  1 beta functions with: 
                l(1) =   0
     Q(r) pseudized with  8 coefficients,  rinner =    0.800

     PseudoPot. # 3 for O  read from file:
     /home/scc/andrejb/qe/pseudo/O.pbe-van_ak.UPF
     MD5 check sum: 4b8c549914a63cae506c6ff22b5af4fe
     Pseudo is Ultrasoft, Zval =  6.0
     Generated by new atomic code, or converted to UPF format
     Using radial grid of  737 points,  4 beta functions with: 
                l(1) =   0
                l(2) =   0
                l(3) =   1
                l(4) =   1
     Q(r) pseudized with  8 coefficients,  rinner =    0.800   0.800   0.800


     vdW kernel table read from file vdW_kernel_table
     MD5 check sum: 48e77a2e26edf626eeb0eaa751ad5cac

     atomic species   valence    mass     pseudopotential
        Au            11.00   196.96657     Au( 1.00)
        H              1.00     1.01000     H ( 1.00)
        O              6.00    16.00000     O ( 1.00)

     No symmetry found



   Cartesian axes

     site n.     atom                  positions (alat units)
         1           O   tau(   1) = (   0.4790780   0.3968269   0.8290259  )
         2           H   tau(   2) = (   0.4731484   0.4615137   0.7807723  )
         3           H   tau(   3) = (   0.4848144   0.3340879   0.7782652  )
         4           Au  tau(   4) = (   0.3540481   0.6132292   0.0000000  )
         5           Au  tau(   5) = (   0.4790062   0.3967954   0.0000000  )
         6           Au  tau(   6) = (   0.6039644   0.1803616   0.0000000  )
         7           Au  tau(   7) = (   0.7289225  -0.0360723   0.0000000  )
         8           Au  tau(   8) = (   0.1041318   0.6132292   0.0000000  )
         9           Au  tau(   9) = (   0.2290899   0.3967954   0.0000000  )
        10           Au  tau(  10) = (   0.3540481   0.1803616   0.0000000  )
        11           Au  tau(  11) = (   0.4790062  -0.0360723   0.0000000  )
        12           Au  tau(  12) = (  -0.1457845   0.6132292   0.0000000  )
        13           Au  tau(  13) = (  -0.0208264   0.3967954   0.0000000  )
        14           Au  tau(  14) = (   0.1041318   0.1803616   0.0000000  )
        15           Au  tau(  15) = (   0.2290899  -0.0360723   0.0000000  )
        16           Au  tau(  16) = (  -0.3957008   0.6132292   0.0000000  )
        17           Au  tau(  17) = (  -0.2707426   0.3967954   0.0000000  )
        18           Au  tau(  18) = (  -0.1457845   0.1803616   0.0000000  )
        19           Au  tau(  19) = (  -0.0208264  -0.0360723   0.0000000  )
        20           Au  tau(  20) = (   0.4790062   0.6853738   0.2040557  )
        21           Au  tau(  21) = (   0.6039644   0.4689400   0.2040557  )
        22           Au  tau(  22) = (   0.7289225   0.2525062   0.2040557  )
        23           Au  tau(  23) = (   0.8538806   0.0360723   0.2040557  )
        24           Au  tau(  24) = (   0.2290899   0.6853738   0.2040557  )
        25           Au  tau(  25) = (   0.3540481   0.4689400   0.2040557  )
        26           Au  tau(  26) = (   0.4790062   0.2525062   0.2040557  )
        27           Au  tau(  27) = (   0.6039644   0.0360723   0.2040557  )
        28           Au  tau(  28) = (  -0.0208264   0.6853738   0.2040557  )
        29           Au  tau(  29) = (   0.1041318   0.4689400   0.2040557  )
        30           Au  tau(  30) = (   0.2290899   0.2525062   0.2040557  )
        31           Au  tau(  31) = (   0.3540481   0.0360723   0.2040557  )
        32           Au  tau(  32) = (  -0.2707426   0.6853738   0.2040557  )
        33           Au  tau(  33) = (  -0.1457845   0.4689400   0.2040557  )
        34           Au  tau(  34) = (  -0.0208264   0.2525062   0.2040557  )
        35           Au  tau(  35) = (   0.1041318   0.0360723   0.2040557  )
        36           Au  tau(  36) = (   0.3541162   0.7576593   0.4066483  )
        37           Au  tau(  37) = (   0.4791000   0.5411421   0.4066696  )
        38           Au  tau(  38) = (   0.6040570   0.3246862   0.4066618  )
        39           Au  tau(  39) = (   0.7290270   0.1081684   0.4066530  )
        40           Au  tau(  40) = (   0.1041162   0.7576236   0.4066247  )
        41           Au  tau(  41) = (   0.2291001   0.5411062   0.4066455  )
        42           Au  tau(  42) = (   0.3540567   0.3246505   0.4066380  )
        43           Au  tau(  43) = (   0.4790276   0.1081324   0.4066292  )
        44           Au  tau(  44) = (  -0.1458201   0.7576104   0.4066225  )
        45           Au  tau(  45) = (  -0.0208365   0.5410930   0.4066438  )
        46           Au  tau(  46) = (   0.1041202   0.3246372   0.4066359  )
        47           Au  tau(  47) = (   0.2290908   0.1081193   0.4066273  )
        48           Au  tau(  48) = (  -0.3958167   0.7575791   0.4065812  )
        49           Au  tau(  49) = (  -0.2708328   0.5410617   0.4066025  )
        50           Au  tau(  50) = (  -0.1458763   0.3246061   0.4065947  )
        51           Au  tau(  51) = (  -0.0209056   0.1080882   0.4065858  )
        52           Au  tau(  52) = (   0.3541084   0.6133344   0.6129762  )
        53           Au  tau(  53) = (   0.4790780   0.3968269   0.6129968  )
        54           Au  tau(  54) = (   0.6040356   0.1803811   0.6129859  )
        55           Au  tau(  55) = (   0.7290165  -0.0361221   0.6129385  )
        56           Au  tau(  56) = (   0.1041243   0.6133091   0.6130023  )
        57           Au  tau(  57) = (   0.2290941   0.3968013   0.6130241  )
        58           Au  tau(  58) = (   0.3540515   0.1803552   0.6130121  )
        59           Au  tau(  59) = (   0.4790323  -0.0361475   0.6129659  )
        60           Au  tau(  60) = (  -0.1458030   0.6133014   0.6129980  )
        61           Au  tau(  61) = (  -0.0208339   0.3967936   0.6130189  )
        62           Au  tau(  62) = (   0.1041239   0.1803477   0.6130083  )
        63           Au  tau(  63) = (   0.2291046  -0.0361554   0.6129607  )
        64           Au  tau(  64) = (  -0.3957908   0.6132739   0.6129471  )
        65           Au  tau(  65) = (  -0.2708208   0.3967658   0.6129688  )
        66           Au  tau(  66) = (  -0.1458636   0.1803200   0.6129569  )
        67           Au  tau(  67) = (  -0.0208823  -0.0361826   0.6129110  )

     number of k points=    12  Marzari-Vanderbilt smearing, width (Ry)=  0.0200
                       cart. coord. in units 2pi/alat
        k(    1) = (   0.2500000   0.4330127   0.1111111), wk =   0.1666667
        k(    2) = (   0.2500000  -0.1443376   0.1111111), wk =   0.1666667
        k(    3) = (  -0.2500000  -0.4330127   0.1111111), wk =   0.1666667
        k(    4) = (  -0.2500000   0.4330127  -0.1111111), wk =   0.1666667
        k(    5) = (   0.2500000  -0.4330127  -0.1111111), wk =   0.1666667
        k(    6) = (   0.5000000   0.0000000   0.1111111), wk =   0.1666667
        k(    7) = (  -0.5000000   0.0000000   0.1111111), wk =   0.1666667
        k(    8) = (  -0.2500000   0.1443376   0.1111111), wk =   0.1666667
        k(    9) = (  -0.2500000  -0.1443376  -0.1111111), wk =   0.1666667
        k(   10) = (   0.2500000   0.1443376  -0.1111111), wk =   0.1666667
        k(   11) = (   0.0000000  -0.2886751   0.1111111), wk =   0.1666667
        k(   12) = (   0.0000000   0.2886751   0.1111111), wk =   0.1666667

     Dense  grid:  3097177 G-vectors     FFT dimensions: ( 150, 150, 360)

     Smooth grid:  1095093 G-vectors     FFT dimensions: ( 108, 108, 240)

     Largest allocated arrays     est. size (Mb)     dimensions
        Kohn-Sham Wavefunctions        28.01 Mb     (    4299,  427)
        NL pseudopotentials            55.23 Mb     (    4299,  842)
        Each V/rho on FFT grid          4.12 Mb     (  270000)
        Each G-vector array             0.74 Mb     (   96788)
        G-vector shells                 0.16 Mb     (   21404)
     Largest temporary arrays     est. size (Mb)     dimensions
        Auxiliary wavefunctions       112.04 Mb     (    4299, 1708)
        Each subspace H/S matrix       44.51 Mb     (    1708, 1708)
        Each <psi_i|beta_j> matrix      5.49 Mb     (     842,  427)
        Arrays for rho mixing          32.96 Mb     (  270000,    8)

     Initial potential from superposition of free atoms
     Check: negative starting charge=   -1.730372

     starting charge  711.25682, renormalised to  712.00000

     negative rho (up, down):  1.732E+00 0.000E+00


     ************************************************************************
     *
     * You are using vdW-DF for exchange-correlation in this calculation.
     * Please cite the following three references that made this development
     * possible:
     *
     *   M. Dion, H. Rydberg, E. Schroder, D. C. Langreth, and
     *   B. I. Lundqvist, Phys. Rev. Lett. 92, 246401 (2004).
     *
     *   T. Thonhauser, V. R. Cooper, S. Li, A. Puzder, P. Hyldgaard, and
     *   D. C. Langreth, Phys. Rev. B 76, 125112 (2007).
     *
     *   G. Roman-Perez and J. M. Soler, Phys. Rev. Lett. 103, 096102 (2009).
     *
     *
     * If you are using vdW-DF2, please also cite:
     *
     *   K. Lee, E. D. Murray, L. Kong, B. I. Lundqvist, and
     *   D. C. Langreth, Phys. Rev. B 82, 081101(R) (2010).
     *
     *
     * If you are calculating the stress with vdW-DF, please also cite:
     *
     *   R. Sabatini, E. Kucukbenli, B. Kolb, T. Thonhauser, and
     *   S. de Gironcoli, J. Phys.: Condens. Matter 24, 424209 (2012).
     *
     ************************************************************************

     Carrying out vdW-DF run using the following parameters:

     Nqs =      20    Nr_points =    1024   r_max =   100.000
     q_mesh =
               0.00001000     0.04494208     0.09755937     0.15916263
               0.23128650     0.31572767     0.41458969     0.53033537
               0.66584808     0.82450364     1.01025438     1.22772762
               1.48234092     1.78043706     2.12944203     2.53805004
               3.01644009     3.57652955     4.23227104     5.00000000

     Gradients computed in reciprocal space

     ************************************************************************


     Starting wfc are  582 randomized atomic wfcs

     total cpu time spent up to now is      155.8 secs

     Self-consistent Calculation

     iteration #  1     ecut=    50.00 Ry     beta=0.70
     Davidson diagonalization with overlap
     ethr =  1.00E-02,  avg # of iterations =  3.0

     Threshold (ethr) on eigenvalues was too large:
     Diagonalizing with lowered threshold

     Davidson diagonalization with overlap
     ethr =  3.31E-04,  avg # of iterations =  3.3

     negative rho (up, down):  1.727E+00 0.000E+00

     total cpu time spent up to now is      729.9 secs

     total energy              =   -6602.80947994 Ry
     Harris-Foulkes estimate   =   -6604.96530214 Ry
     estimated scf accuracy    <       2.70727469 Ry

     iteration #  2     ecut=    50.00 Ry     beta=0.70
     Davidson diagonalization with overlap
     ethr =  3.80E-04,  avg # of iterations = 11.2

     negative rho (up, down):  1.726E+00 0.000E+00

     total cpu time spent up to now is     1673.8 secs

     total energy              =   -6597.27904869 Ry
     Harris-Foulkes estimate   =   -6609.79638488 Ry
     estimated scf accuracy    <      68.40303025 Ry

     iteration #  3     ecut=    50.00 Ry     beta=0.70
     Davidson diagonalization with overlap
     ethr =  3.80E-04,  avg # of iterations =  6.0

     negative rho (up, down):  1.736E+00 0.000E+00

     total cpu time spent up to now is     2263.1 secs

     total energy              =   -6603.03664644 Ry
     Harris-Foulkes estimate   =   -6604.97342027 Ry
     estimated scf accuracy    <       9.07527922 Ry

     iteration #  4     ecut=    50.00 Ry     beta=0.70
     Davidson diagonalization with overlap
     ethr =  3.80E-04,  avg # of iterations =  5.5

     negative rho (up, down):  1.738E+00 0.000E+00

     total cpu time spent up to now is     2608.5 secs

     total energy              =   -6603.51602009 Ry
     Harris-Foulkes estimate   =   -6605.10762408 Ry
     estimated scf accuracy    <      14.26406945 Ry

     iteration #  5     ecut=    50.00 Ry     beta=0.70
     Davidson diagonalization with overlap
     ethr =  3.80E-04,  avg # of iterations =  7.4

     negative rho (up, down):  1.747E+00 0.000E+00

     total cpu time spent up to now is     2986.3 secs

     total energy              =   -6604.24020001 Ry
     Harris-Foulkes estimate   =   -6604.62734091 Ry
     estimated scf accuracy    <       2.77064134 Ry

     iteration #  6     ecut=    50.00 Ry     beta=0.70
     Davidson diagonalization with overlap
     ethr =  3.80E-04,  avg # of iterations =  2.3

     negative rho (up, down):  1.752E+00 0.000E+00

     total cpu time spent up to now is     3244.2 secs

     total energy              =   -6604.37780387 Ry
     Harris-Foulkes estimate   =   -6604.43051468 Ry
     estimated scf accuracy    <       0.17568965 Ry

     iteration #  7     ecut=    50.00 Ry     beta=0.70
     Davidson diagonalization with overlap
     c_bands:  1 eigenvalues not converged
     ethr =  2.47E-05,  avg # of iterations = 10.3

     negative rho (up, down):  1.754E+00 0.000E+00

     total cpu time spent up to now is     3682.5 secs

     total energy              =   -6604.38777767 Ry
     Harris-Foulkes estimate   =   -6604.41762011 Ry
     estimated scf accuracy    <       0.13957301 Ry

     iteration #  8     ecut=    50.00 Ry     beta=0.70
     Davidson diagonalization with overlap
     ethr =  1.96E-05,  avg # of iterations =  3.3

     negative rho (up, down):  1.755E+00 0.000E+00

     total cpu time spent up to now is     3952.7 secs

     total energy              =   -6604.39138740 Ry
     Harris-Foulkes estimate   =   -6604.40505341 Ry
     estimated scf accuracy    <       0.05589735 Ry

     iteration #  9     ecut=    50.00 Ry     beta=0.70
     Davidson diagonalization with overlap
     ethr =  7.85E-06,  avg # of iterations =  5.3

     negative rho (up, down):  1.756E+00 0.000E+00

     total cpu time spent up to now is     4271.0 secs

     total energy              =   -6604.39152997 Ry
     Harris-Foulkes estimate   =   -6604.39775395 Ry
     estimated scf accuracy    <       0.02363944 Ry

     iteration # 10     ecut=    50.00 Ry     beta=0.70
     Davidson diagonalization with overlap
     ethr =  3.32E-06,  avg # of iterations =  5.4

     negative rho (up, down):  1.756E+00 0.000E+00

     total cpu time spent up to now is     4584.2 secs

     total energy              =   -6604.39159185 Ry
     Harris-Foulkes estimate   =   -6604.39399308 Ry
     estimated scf accuracy    <       0.00913925 Ry

     iteration # 11     ecut=    50.00 Ry     beta=0.70
     Davidson diagonalization with overlap
     c_bands:  1 eigenvalues not converged
     ethr =  1.28E-06,  avg # of iterations =  7.9

     negative rho (up, down):  1.757E+00 0.000E+00

     total cpu time spent up to now is     4933.8 secs

     total energy              =   -6604.39148912 Ry
     Harris-Foulkes estimate   =   -6604.39273558 Ry
     estimated scf accuracy    <       0.00479159 Ry

     iteration # 12     ecut=    50.00 Ry     beta=0.70
     Davidson diagonalization with overlap
     ethr =  6.73E-07,  avg # of iterations =  2.5

     negative rho (up, down):  1.757E+00 0.000E+00

     total cpu time spent up to now is     5197.9 secs

     total energy              =   -6604.39157103 Ry
     Harris-Foulkes estimate   =   -6604.39197390 Ry
     estimated scf accuracy    <       0.00083289 Ry

     iteration # 13     ecut=    50.00 Ry     beta=0.70
     Davidson diagonalization with overlap
     ethr =  1.17E-07,  avg # of iterations =  6.2

     negative rho (up, down):  1.757E+00 0.000E+00

     total cpu time spent up to now is     5549.8 secs

     total energy              =   -6604.39172243 Ry
     Harris-Foulkes estimate   =   -6604.39180396 Ry
     estimated scf accuracy    <       0.00022714 Ry

     iteration # 14     ecut=    50.00 Ry     beta=0.70
     Davidson diagonalization with overlap
     ethr =  3.19E-08,  avg # of iterations =  2.0

     negative rho (up, down):  1.757E+00 0.000E+00

     total cpu time spent up to now is     5810.1 secs

     total energy              =   -6604.39174970 Ry
     Harris-Foulkes estimate   =   -6604.39178600 Ry
     estimated scf accuracy    <       0.00014325 Ry

     iteration # 15     ecut=    50.00 Ry     beta=0.70
     Davidson diagonalization with overlap
     ethr =  2.01E-08,  avg # of iterations =  2.0

     negative rho (up, down):  1.757E+00 0.000E+00

     total cpu time spent up to now is     6059.3 secs

     total energy              =   -6604.39175616 Ry
     Harris-Foulkes estimate   =   -6604.39178394 Ry
     estimated scf accuracy    <       0.00020548 Ry

     iteration # 16     ecut=    50.00 Ry     beta=0.70
     Davidson diagonalization with overlap
     ethr =  2.01E-08,  avg # of iterations =  2.0

     negative rho (up, down):  1.757E+00 0.000E+00

     total cpu time spent up to now is     6305.3 secs

     total energy              =   -6604.39176642 Ry
     Harris-Foulkes estimate   =   -6604.39177451 Ry
     estimated scf accuracy    <       0.00004959 Ry

     iteration # 17     ecut=    50.00 Ry     beta=0.70
     Davidson diagonalization with overlap
     ethr =  6.96E-09,  avg # of iterations =  1.8

     negative rho (up, down):  1.757E+00 0.000E+00

     total cpu time spent up to now is     6566.3 secs

     total energy              =   -6604.39176996 Ry
     Harris-Foulkes estimate   =   -6604.39177325 Ry
     estimated scf accuracy    <       0.00001681 Ry

     iteration # 18     ecut=    50.00 Ry     beta=0.70
     Davidson diagonalization with overlap
     ethr =  2.36E-09,  avg # of iterations =  2.0

     negative rho (up, down):  1.757E+00 0.000E+00

     total cpu time spent up to now is     6822.5 secs

     total energy              =   -6604.39177057 Ry
     Harris-Foulkes estimate   =   -6604.39177310 Ry
     estimated scf accuracy    <       0.00001118 Ry

     iteration # 19     ecut=    50.00 Ry     beta=0.70
     Davidson diagonalization with overlap
     ethr =  1.57E-09,  avg # of iterations =  2.0

     negative rho (up, down):  1.757E+00 0.000E+00

     total cpu time spent up to now is     7078.2 secs

     total energy              =   -6604.39177184 Ry
     Harris-Foulkes estimate   =   -6604.39177196 Ry
     estimated scf accuracy    <       0.00000041 Ry

     iteration # 20     ecut=    50.00 Ry     beta=0.70
     Davidson diagonalization with overlap
     ethr =  5.71E-11,  avg # of iterations =  3.0

     negative rho (up, down):  1.757E+00 0.000E+00

     total cpu time spent up to now is     7429.7 secs

     total energy              =   -6604.39177193 Ry
     Harris-Foulkes estimate   =   -6604.39177197 Ry
     estimated scf accuracy    <       0.00000014 Ry

     iteration # 21     ecut=    50.00 Ry     beta=0.70
     Davidson diagonalization with overlap
     ethr =  2.03E-11,  avg # of iterations =  2.0

     negative rho (up, down):  1.757E+00 0.000E+00

     total cpu time spent up to now is     7718.3 secs

     total energy              =   -6604.39177197 Ry
     Harris-Foulkes estimate   =   -6604.39177197 Ry
     estimated scf accuracy    <       0.00000008 Ry

     iteration # 22     ecut=    50.00 Ry     beta=0.70
     Davidson diagonalization with overlap
     ethr =  1.16E-11,  avg # of iterations =  2.0

     negative rho (up, down):  1.757E+00 0.000E+00

     total cpu time spent up to now is     7971.8 secs

     total energy              =   -6604.39177197 Ry
     Harris-Foulkes estimate   =   -6604.39177198 Ry
     estimated scf accuracy    <       0.00000002 Ry

     iteration # 23     ecut=    50.00 Ry     beta=0.70
     Davidson diagonalization with overlap
     ethr =  2.74E-12,  avg # of iterations =  3.0

     negative rho (up, down):  1.757E+00 0.000E+00

     total cpu time spent up to now is     8290.0 secs

     total energy              =   -6604.39177198 Ry
     Harris-Foulkes estimate   =   -6604.39177198 Ry
     estimated scf accuracy    <       0.00000001 Ry

     iteration # 24     ecut=    50.00 Ry     beta=0.70
     Davidson diagonalization with overlap
     ethr =  1.44E-12,  avg # of iterations =  3.0

     negative rho (up, down):  1.757E+00 0.000E+00

     total cpu time spent up to now is     8575.2 secs

     End of self-consistent calculation

          k = 0.2500 0.4330 0.1111 (136853 PWs)   bands (ev):

   -19.1577  -7.0197  -6.4345  -6.0389  -6.0314  -5.3679  -5.0324  -5.0218
    -5.0037  -4.9817  -4.6268  -4.6212  -4.5305  -4.5230  -4.5106  -4.4886
    -4.4841  -4.3678  -4.3535  -4.3338  -4.2902  -4.2872  -4.2654  -4.2191
    -4.2177  -4.2129  -4.1914  -4.1904  -4.1830  -4.1429  -4.1131  -4.0895
    -4.0838  -4.0763  -4.0703  -4.0540  -4.0465  -4.0282  -4.0183  -4.0162
    -4.0002  -3.9450  -3.9380  -3.9058  -3.8871  -3.8728  -3.8376  -3.8198
    -3.7794  -3.7756  -3.7735  -3.7492  -3.7339  -3.7099  -3.7070  -3.6946
    -3.6911  -3.6910  -3.6638  -3.6550  -3.6397  -3.5974  -3.5970  -3.5854
    -3.5621  -3.5505  -3.4863  -3.4776  -3.4643  -3.4485  -3.4288  -3.4240
    -3.4093  -3.3851  -3.3408  -3.3318  -3.3195  -3.3097  -3.2755  -3.2685
    -3.2560  -3.2199  -3.2006  -3.1915  -3.1835  -3.1795  -3.1769  -3.1644
    -3.1622  -3.1587  -3.1513  -3.1080  -3.0713  -3.0676  -3.0625  -3.0580
    -3.0296  -3.0274  -3.0214  -2.9910  -2.9539  -2.9514  -2.9453  -2.9106
    -2.8963  -2.8883  -2.8839  -2.8697  -2.8558  -2.8272  -2.8001  -2.7945
    -2.7760  -2.7619  -2.7541  -2.7483  -2.7051  -2.6981  -2.6673  -2.6472
    -2.6414  -2.6285  -2.6161  -2.6111  -2.6030  -2.5973  -2.5818  -2.5794
    -2.5327  -2.5285  -2.5265  -2.5167  -2.5130  -2.5093  -2.5029  -2.4997
    -2.4960  -2.4911  -2.4883  -2.4849  -2.4769  -2.4702  -2.4556  -2.4454
    -2.4363  -2.4331  -2.4327  -2.4297  -2.4255  -2.4105  -2.4060  -2.3927
    -2.3875  -2.3679  -2.3658  -2.3641  -2.3586  -2.3561  -2.3553  -2.3466
    -2.3341  -2.3336  -2.3290  -2.3169  -2.2932  -2.2859  -2.2485  -2.2475
    -2.2325  -2.2275  -2.2031  -2.1944  -2.1796  -2.1702  -2.1635  -2.1490
    -2.1258  -2.1170  -2.1062  -2.0940  -2.0916  -2.0867  -2.0830  -2.0795
    -2.0542  -2.0514  -2.0380  -1.9950  -1.9862  -1.9784  -1.9752  -1.9673
    -1.9515  -1.9210  -1.9176  -1.8952  -1.8873  -1.8390  -1.8331  -1.8040
    -1.7860  -1.7757  -1.7464  -1.7270  -1.7200  -1.7112  -1.7042  -1.7013
    -1.6947  -1.6920  -1.6840  -1.6569  -1.6346  -1.6192  -1.6166  -1.6157
    -1.6074  -1.5976  -1.5772  -1.5643  -1.5529  -1.5487  -1.5458  -1.5375
    -1.5347  -1.5292  -1.5212  -1.5046  -1.5008  -1.4810  -1.4622  -1.4555
    -1.4514  -1.4368  -1.4135  -1.3894  -1.3759  -1.3552  -1.3454  -1.3445
    -1.3200  -1.2853  -1.2654  -1.2598  -1.2554  -1.2544  -1.2492  -1.2437
    -1.2351  -1.2243  -1.1996  -1.1814  -1.1695  -1.1601  -1.1522  -1.1462
    -1.1427  -1.1370  -1.1244  -1.1222  -1.1191  -1.1165  -1.0906  -1.0818
    -1.0785  -1.0759  -1.0620  -1.0505  -1.0424  -1.0227  -1.0171  -1.0051
    -0.9822  -0.9652  -0.9551  -0.9281  -0.9215  -0.9129  -0.9049  -0.9038
    -0.8997  -0.8941  -0.8918  -0.8828  -0.8757  -0.8615  -0.8593  -0.8535
    -0.8496  -0.8489  -0.8454  -0.8137  -0.8130  -0.8003  -0.7887  -0.7798
    -0.7733  -0.7666  -0.7536  -0.7102  -0.7081  -0.7036  -0.7003  -0.6959
    -0.6914  -0.6853  -0.6726  -0.6703  -0.6655  -0.6634  -0.6573  -0.6515
    -0.6247  -0.6208  -0.6198  -0.6119  -0.6098  -0.6058  -0.6023  -0.5901
    -0.5868  -0.5840  -0.5661  -0.5457  -0.5437  -0.5368  -0.5306  -0.5272
    -0.4611  -0.4511  -0.4497  -0.4476  -0.4422  -0.4362  -0.4048  -0.3944
    -0.3925  -0.3606  -0.3577  -0.3276  -0.2419  -0.2335  -0.1374   0.2759
     0.2788   0.2851   0.2857   0.3476   0.3661   0.7265   0.7332   0.7721
     0.7755   0.8989   0.9720   1.0799   1.0861   1.3029   1.3231   1.9284
     1.9380   2.0904   2.0965   2.2265   2.2416   2.3282   2.3297   2.4832
     2.7206   2.7381   2.8504   3.0731   3.0764   3.1456   3.1495   3.2472
     3.2682   3.4763   3.4806   3.5204   3.7218   3.7288   3.7904   3.7941
     4.0425   4.0510   4.0617   4.2939   4.3294   4.3368   4.3820   4.7080
     4.7208   4.7431   4.8818   5.0549   5.0585   5.1316   5.1399   5.6166
     5.8246   5.8391   5.8520   5.8829   5.8996   5.9105   5.9200   6.0202
     6.0324   6.0519   6.0816   6.0845   6.1151   6.1258   6.1373   6.1477
     6.2490   6.5973   6.6079   6.7283   6.7598   6.7792   6.7902   6.7957
     6.8062   6.9060   6.9916

          k = 0.2500-0.1443 0.1111 (136898 PWs)   bands (ev):

   -19.1577  -7.0195  -6.6444  -5.8528  -5.5716  -5.5035  -5.5001  -4.9671
    -4.9619  -4.8484  -4.8298  -4.6879  -4.6567  -4.5873  -4.5702  -4.5505
    -4.5172  -4.5150  -4.3867  -4.3452  -4.3441  -4.3055  -4.2758  -4.2655
    -4.1671  -4.1615  -4.1404  -4.1250  -4.1243  -4.1054  -4.0827  -4.0767
    -4.0215  -3.9739  -3.9702  -3.9588  -3.9455  -3.9323  -3.9248  -3.9204
    -3.9137  -3.8937  -3.8784  -3.8778  -3.8750  -3.8573  -3.8475  -3.8432
    -3.8253  -3.8229  -3.8069  -3.7816  -3.7651  -3.7331  -3.7245  -3.7197
    -3.7162  -3.6975  -3.6428  -3.6396  -3.6138  -3.6068  -3.5881  -3.5372
    -3.5365  -3.5211  -3.5076  -3.4968  -3.4954  -3.4918  -3.4689  -3.3350
    -3.3317  -3.3210  -3.3160  -3.3045  -3.2903  -3.2846  -3.2684  -3.2608
    -3.2147  -3.2126  -3.1985  -3.1979  -3.1754  -3.1386  -3.1303  -3.1135
    -3.1051  -3.1002  -3.0663  -3.0642  -3.0547  -3.0520  -3.0400  -3.0345
    -3.0027  -3.0012  -2.9861  -2.9784  -2.9755  -2.9721  -2.9635  -2.9024
    -2.8988  -2.8900  -2.8632  -2.8564  -2.8123  -2.8032  -2.7780  -2.7722
    -2.7628  -2.7604  -2.7505  -2.7285  -2.7255  -2.7134  -2.7020  -2.6832
    -2.6792  -2.6701  -2.6550  -2.6523  -2.6477  -2.6421  -2.6378  -2.6338
    -2.6243  -2.5796  -2.5538  -2.5522  -2.5332  -2.5221  -2.5190  -2.5127
    -2.5055  -2.5048  -2.5028  -2.4796  -2.4755  -2.4699  -2.4639  -2.4598
    -2.4518  -2.4254  -2.4236  -2.4196  -2.4184  -2.4136  -2.3711  -2.3476
    -2.3425  -2.3400  -2.3334  -2.3268  -2.3215  -2.3158  -2.2946  -2.2941
    -2.2713  -2.2655  -2.2618  -2.2536  -2.2485  -2.2434  -2.2200  -2.2106
    -2.1784  -2.1687  -2.1629  -2.1616  -2.1599  -2.1565  -2.1526  -2.1495
    -2.1468  -2.1427  -2.1405  -2.1252  -2.1240  -2.0196  -2.0052  -1.9904
    -1.9630  -1.9607  -1.9500  -1.9490  -1.9417  -1.9382  -1.9319  -1.9298
    -1.9213  -1.9109  -1.9048  -1.9031  -1.8922  -1.8841  -1.8752  -1.8668
    -1.8567  -1.8380  -1.8341  -1.8171  -1.8099  -1.7968  -1.7863  -1.7662
    -1.7632  -1.7619  -1.7481  -1.7349  -1.7315  -1.7246  -1.7239  -1.7051
    -1.7015  -1.6877  -1.6838  -1.6536  -1.6474  -1.6394  -1.6000  -1.5914
    -1.5779  -1.5740  -1.5639  -1.5468  -1.5426  -1.5200  -1.5138  -1.5100
    -1.4859  -1.4750  -1.4700  -1.4519  -1.4503  -1.4361  -1.4295  -1.4174
    -1.4016  -1.3948  -1.3893  -1.3381  -1.3313  -1.3243  -1.3184  -1.3110
    -1.3020  -1.2882  -1.2873  -1.2696  -1.2548  -1.2346  -1.2268  -1.2155
    -1.1976  -1.1812  -1.1753  -1.1681  -1.1652  -1.1628  -1.1609  -1.1580
    -1.1412  -1.1274  -1.1189  -1.1081  -1.1005  -1.0982  -1.0900  -1.0831
    -1.0621  -1.0484  -1.0358  -1.0217  -0.9756  -0.9451  -0.9358  -0.9277
    -0.9264  -0.9171  -0.9111  -0.8993  -0.8942  -0.8811  -0.8762  -0.8644
    -0.8628  -0.8593  -0.8446  -0.8345  -0.8282  -0.8208  -0.7861  -0.7455
    -0.7420  -0.7131  -0.7083  -0.7025  -0.7004  -0.6982  -0.6942  -0.6926
    -0.6828  -0.6761  -0.6550  -0.6419  -0.6233  -0.6129  -0.6095  -0.6007
    -0.5952  -0.5918  -0.5860  -0.5827  -0.5811  -0.5748  -0.5669  -0.5624
    -0.5561  -0.5323  -0.5285  -0.5258  -0.5155  -0.5134  -0.4963  -0.4655
    -0.4626  -0.4558  -0.4519  -0.3872  -0.3865  -0.3562  -0.3536  -0.2989
    -0.2967  -0.2924  -0.2730  -0.2606  -0.0371  -0.0098   0.3077   0.3085
     0.3997   0.4237   0.6008   0.6255   0.6383   0.7519   0.7578   1.1875
     1.1894   1.2043   1.4765   1.4977   1.4994   1.7746   1.7965   1.8492
     1.8512   1.8791   1.8949   2.1044   2.1095   2.1994   2.2006   2.2843
     2.3380   2.3589   2.5030   2.6081   3.0308   3.0409   3.0435   3.0481
     3.0928   3.1019   3.3909   3.3929   3.6725   3.6855   3.7923   4.0893
     4.1282   4.1322   4.3620   4.3739   4.4262   4.4330   4.5246   4.6409
     4.6491   4.7582   4.7604   5.0580   5.1209   5.1388   5.3071   5.3335
     5.4838   5.5133   5.5192   5.5450   5.5509   5.6008   5.6139   5.6760
     6.0286   6.0695   6.2098   6.3099   6.3170   6.3392   6.3507   6.3654
     6.3732   6.5932   6.5996   6.6278   6.7755   6.8309   6.8583   6.8948
     6.9146   7.1256   7.1483

          k =-0.2500-0.4330 0.1111 (136853 PWs)   bands (ev):

   -19.1577  -7.0196  -6.4345  -6.0389  -6.0314  -5.3679  -5.0324  -5.0218
    -5.0037  -4.9817  -4.6268  -4.6212  -4.5305  -4.5230  -4.5106  -4.4886
    -4.4841  -4.3678  -4.3535  -4.3338  -4.2902  -4.2872  -4.2654  -4.2191
    -4.2177  -4.2129  -4.1914  -4.1904  -4.1830  -4.1429  -4.1131  -4.0895
    -4.0838  -4.0763  -4.0703  -4.0540  -4.0465  -4.0282  -4.0183  -4.0162
    -4.0002  -3.9450  -3.9380  -3.9058  -3.8871  -3.8728  -3.8376  -3.8198
    -3.7794  -3.7756  -3.7735  -3.7492  -3.7339  -3.7099  -3.7070  -3.6946
    -3.6911  -3.6910  -3.6638  -3.6550  -3.6397  -3.5974  -3.5970  -3.5854
    -3.5621  -3.5505  -3.4863  -3.4776  -3.4643  -3.4485  -3.4288  -3.4240
    -3.4093  -3.3851  -3.3408  -3.3318  -3.3195  -3.3097  -3.2755  -3.2685
    -3.2560  -3.2199  -3.2006  -3.1915  -3.1835  -3.1795  -3.1769  -3.1644
    -3.1622  -3.1587  -3.1513  -3.1080  -3.0713  -3.0676  -3.0625  -3.0579
    -3.0296  -3.0274  -3.0214  -2.9910  -2.9539  -2.9514  -2.9453  -2.9106
    -2.8963  -2.8883  -2.8839  -2.8697  -2.8558  -2.8272  -2.8001  -2.7945
    -2.7760  -2.7619  -2.7541  -2.7483  -2.7051  -2.6981  -2.6673  -2.6472
    -2.6414  -2.6285  -2.6161  -2.6111  -2.6030  -2.5973  -2.5818  -2.5794
    -2.5327  -2.5285  -2.5265  -2.5167  -2.5130  -2.5093  -2.5029  -2.4997
    -2.4960  -2.4911  -2.4883  -2.4849  -2.4769  -2.4702  -2.4556  -2.4454
    -2.4363  -2.4331  -2.4327  -2.4297  -2.4255  -2.4105  -2.4060  -2.3927
    -2.3875  -2.3679  -2.3658  -2.3641  -2.3586  -2.3561  -2.3553  -2.3466
    -2.3341  -2.3336  -2.3290  -2.3169  -2.2932  -2.2859  -2.2485  -2.2475
    -2.2325  -2.2275  -2.2031  -2.1944  -2.1796  -2.1702  -2.1635  -2.1490
    -2.1258  -2.1170  -2.1062  -2.0940  -2.0916  -2.0867  -2.0830  -2.0795
    -2.0542  -2.0514  -2.0380  -1.9950  -1.9862  -1.9784  -1.9752  -1.9673
    -1.9515  -1.9210  -1.9176  -1.8952  -1.8873  -1.8390  -1.8331  -1.8040
    -1.7860  -1.7757  -1.7464  -1.7270  -1.7200  -1.7112  -1.7042  -1.7013
    -1.6947  -1.6920  -1.6840  -1.6569  -1.6346  -1.6192  -1.6166  -1.6157
    -1.6074  -1.5976  -1.5772  -1.5643  -1.5529  -1.5487  -1.5458  -1.5375
    -1.5347  -1.5292  -1.5212  -1.5046  -1.5008  -1.4810  -1.4622  -1.4555
    -1.4514  -1.4368  -1.4135  -1.3894  -1.3759  -1.3552  -1.3454  -1.3445
    -1.3200  -1.2853  -1.2654  -1.2598  -1.2554  -1.2544  -1.2492  -1.2437
    -1.2351  -1.2243  -1.1996  -1.1814  -1.1695  -1.1601  -1.1522  -1.1462
    -1.1427  -1.1370  -1.1244  -1.1222  -1.1191  -1.1165  -1.0906  -1.0818
    -1.0785  -1.0759  -1.0620  -1.0505  -1.0424  -1.0227  -1.0171  -1.0051
    -0.9822  -0.9652  -0.9551  -0.9281  -0.9215  -0.9129  -0.9049  -0.9038
    -0.8997  -0.8941  -0.8918  -0.8828  -0.8757  -0.8615  -0.8593  -0.8535
    -0.8496  -0.8489  -0.8454  -0.8137  -0.8130  -0.8003  -0.7887  -0.7798
    -0.7733  -0.7666  -0.7536  -0.7102  -0.7081  -0.7036  -0.7003  -0.6959
    -0.6914  -0.6853  -0.6726  -0.6703  -0.6655  -0.6634  -0.6573  -0.6515
    -0.6247  -0.6208  -0.6198  -0.6119  -0.6098  -0.6058  -0.6023  -0.5901
    -0.5868  -0.5840  -0.5661  -0.5457  -0.5437  -0.5368  -0.5306  -0.5272
    -0.4611  -0.4511  -0.4497  -0.4476  -0.4422  -0.4362  -0.4048  -0.3944
    -0.3925  -0.3606  -0.3577  -0.3276  -0.2419  -0.2335  -0.1374   0.2759
     0.2788   0.2851   0.2857   0.3476   0.3661   0.7265   0.7332   0.7721
     0.7755   0.8989   0.9720   1.0799   1.0861   1.3029   1.3231   1.9284
     1.9380   2.0904   2.0965   2.2265   2.2416   2.3282   2.3297   2.4832
     2.7206   2.7381   2.8504   3.0731   3.0764   3.1456   3.1495   3.2472
     3.2682   3.4763   3.4806   3.5204   3.7218   3.7288   3.7904   3.7941
     4.0425   4.0510   4.0617   4.2939   4.3294   4.3368   4.3820   4.7080
     4.7208   4.7431   4.8818   5.0549   5.0585   5.1316   5.1399   5.6166
     5.8246   5.8391   5.8520   5.8829   5.8996   5.9106   5.9200   6.0202
     6.0324   6.0519   6.0816   6.0845   6.1151   6.1258   6.1373   6.1477
     6.2490   6.5971   6.6082   6.7284   6.7598   6.7793   6.7921   6.7938
     6.8057   6.9060   6.9918

          k =-0.2500 0.4330-0.1111 (136853 PWs)   bands (ev):

   -19.1577  -7.0197  -6.4344  -6.0391  -6.0313  -5.3678  -5.0331  -5.0212
    -5.0038  -4.9817  -4.6271  -4.6205  -4.5305  -4.5230  -4.5098  -4.4888
    -4.4841  -4.3688  -4.3539  -4.3341  -4.2900  -4.2873  -4.2657  -4.2188
    -4.2182  -4.2125  -4.1918  -4.1906  -4.1819  -4.1431  -4.1132  -4.0898
    -4.0832  -4.0761  -4.0701  -4.0539  -4.0465  -4.0280  -4.0183  -4.0162
    -4.0003  -3.9443  -3.9383  -3.9050  -3.8865  -3.8721  -3.8378  -3.8217
    -3.7797  -3.7755  -3.7734  -3.7513  -3.7350  -3.7108  -3.7071  -3.6946
    -3.6913  -3.6909  -3.6634  -3.6545  -3.6386  -3.5980  -3.5967  -3.5845
    -3.5618  -3.5504  -3.4860  -3.4776  -3.4649  -3.4478  -3.4284  -3.4239
    -3.4093  -3.3852  -3.3411  -3.3321  -3.3199  -3.3094  -3.2762  -3.2681
    -3.2561  -3.2199  -3.2020  -3.1910  -3.1838  -3.1789  -3.1763  -3.1642
    -3.1623  -3.1588  -3.1511  -3.1079  -3.0720  -3.0669  -3.0624  -3.0575
    -3.0296  -3.0284  -3.0209  -2.9909  -2.9544  -2.9518  -2.9451  -2.9103
    -2.8961  -2.8889  -2.8836  -2.8707  -2.8557  -2.8272  -2.7988  -2.7946
    -2.7760  -2.7620  -2.7536  -2.7484  -2.7059  -2.6978  -2.6671  -2.6468
    -2.6414  -2.6294  -2.6163  -2.6113  -2.6032  -2.5973  -2.5821  -2.5792
    -2.5322  -2.5279  -2.5261  -2.5171  -2.5129  -2.5086  -2.5028  -2.4993
    -2.4966  -2.4901  -2.4878  -2.4850  -2.4772  -2.4696  -2.4570  -2.4454
    -2.4359  -2.4332  -2.4328  -2.4295  -2.4253  -2.4112  -2.4061  -2.3932
    -2.3870  -2.3684  -2.3654  -2.3639  -2.3586  -2.3561  -2.3555  -2.3470
    -2.3341  -2.3335  -2.3292  -2.3168  -2.2934  -2.2859  -2.2488  -2.2473
    -2.2326  -2.2275  -2.2021  -2.1943  -2.1811  -2.1696  -2.1641  -2.1490
    -2.1250  -2.1176  -2.1060  -2.0937  -2.0915  -2.0866  -2.0832  -2.0799
    -2.0543  -2.0511  -2.0374  -1.9932  -1.9868  -1.9787  -1.9755  -1.9676
    -1.9510  -1.9211  -1.9174  -1.8954  -1.8872  -1.8388  -1.8330  -1.8048
    -1.7859  -1.7756  -1.7471  -1.7276  -1.7202  -1.7107  -1.7038  -1.7013
    -1.6949  -1.6921  -1.6841  -1.6587  -1.6340  -1.6186  -1.6166  -1.6159
    -1.6078  -1.5972  -1.5749  -1.5645  -1.5537  -1.5486  -1.5456  -1.5374
    -1.5340  -1.5294  -1.5212  -1.5054  -1.5001  -1.4822  -1.4624  -1.4554
    -1.4509  -1.4367  -1.4133  -1.3877  -1.3767  -1.3545  -1.3455  -1.3446
    -1.3203  -1.2862  -1.2648  -1.2601  -1.2551  -1.2544  -1.2492  -1.2448
    -1.2350  -1.2242  -1.1994  -1.1811  -1.1705  -1.1597  -1.1523  -1.1460
    -1.1426  -1.1378  -1.1243  -1.1222  -1.1185  -1.1163  -1.0903  -1.0824
    -1.0781  -1.0761  -1.0636  -1.0515  -1.0418  -1.0231  -1.0170  -1.0054
    -0.9826  -0.9648  -0.9544  -0.9279  -0.9209  -0.9120  -0.9053  -0.9034
    -0.9000  -0.8936  -0.8913  -0.8832  -0.8751  -0.8625  -0.8601  -0.8532
    -0.8498  -0.8488  -0.8463  -0.8136  -0.8128  -0.7993  -0.7868  -0.7801
    -0.7734  -0.7664  -0.7550  -0.7104  -0.7086  -0.7040  -0.6999  -0.6960
    -0.6912  -0.6839  -0.6723  -0.6708  -0.6654  -0.6633  -0.6566  -0.6516
    -0.6240  -0.6208  -0.6198  -0.6117  -0.6101  -0.6058  -0.6029  -0.5895
    -0.5873  -0.5843  -0.5661  -0.5456  -0.5438  -0.5368  -0.5305  -0.5277
    -0.4619  -0.4511  -0.4494  -0.4477  -0.4424  -0.4359  -0.4047  -0.3946
    -0.3925  -0.3607  -0.3571  -0.3284  -0.2439  -0.2332  -0.1383   0.2764
     0.2789   0.2848   0.2856   0.3495   0.3648   0.7284   0.7331   0.7713
     0.7754   0.8983   0.9717   1.0803   1.0849   1.3040   1.3225   1.9303
     1.9367   2.0915   2.0948   2.2286   2.2395   2.3281   2.3298   2.4832
     2.7213   2.7379   2.8509   3.0739   3.0761   3.1449   3.1501   3.2484
     3.2680   3.4759   3.4814   3.5207   3.7218   3.7288   3.7905   3.7926
     4.0423   4.0531   4.0603   4.2941   4.3290   4.3366   4.3820   4.7080
     4.7208   4.7432   4.8798   5.0539   5.0591   5.1263   5.1422   5.6172
     5.8231   5.8365   5.8523   5.8813   5.9023   5.9095   5.9212   6.0200
     6.0323   6.0527   6.0825   6.0847   6.1172   6.1267   6.1368   6.1487
     6.2490   6.5951   6.6107   6.7203   6.7619   6.7802   6.7927   6.7949
     6.8043   6.9083   6.9960

          k = 0.2500-0.4330-0.1111 (136853 PWs)   bands (ev):

   -19.1577  -7.0197  -6.4344  -6.0391  -6.0313  -5.3678  -5.0331  -5.0212
    -5.0038  -4.9817  -4.6271  -4.6205  -4.5305  -4.5230  -4.5098  -4.4888
    -4.4841  -4.3688  -4.3539  -4.3341  -4.2900  -4.2873  -4.2657  -4.2188
    -4.2182  -4.2125  -4.1918  -4.1906  -4.1819  -4.1431  -4.1132  -4.0898
    -4.0832  -4.0761  -4.0701  -4.0539  -4.0465  -4.0280  -4.0183  -4.0162
    -4.0003  -3.9443  -3.9383  -3.9050  -3.8865  -3.8721  -3.8378  -3.8217
    -3.7797  -3.7755  -3.7734  -3.7513  -3.7350  -3.7108  -3.7071  -3.6946
    -3.6913  -3.6909  -3.6634  -3.6545  -3.6386  -3.5980  -3.5967  -3.5845
    -3.5618  -3.5504  -3.4860  -3.4776  -3.4649  -3.4478  -3.4284  -3.4239
    -3.4093  -3.3852  -3.3411  -3.3321  -3.3199  -3.3094  -3.2762  -3.2681
    -3.2561  -3.2199  -3.2020  -3.1910  -3.1838  -3.1789  -3.1763  -3.1642
    -3.1623  -3.1588  -3.1511  -3.1079  -3.0720  -3.0669  -3.0624  -3.0575
    -3.0296  -3.0284  -3.0209  -2.9909  -2.9544  -2.9518  -2.9451  -2.9103
    -2.8961  -2.8889  -2.8836  -2.8707  -2.8557  -2.8272  -2.7988  -2.7946
    -2.7760  -2.7620  -2.7536  -2.7484  -2.7059  -2.6978  -2.6671  -2.6468
    -2.6414  -2.6294  -2.6163  -2.6113  -2.6032  -2.5973  -2.5821  -2.5792
    -2.5322  -2.5279  -2.5261  -2.5171  -2.5129  -2.5086  -2.5028  -2.4993
    -2.4966  -2.4901  -2.4878  -2.4850  -2.4772  -2.4696  -2.4570  -2.4454
    -2.4359  -2.4332  -2.4328  -2.4295  -2.4253  -2.4112  -2.4061  -2.3932
    -2.3870  -2.3684  -2.3654  -2.3639  -2.3586  -2.3561  -2.3555  -2.3470
    -2.3341  -2.3335  -2.3292  -2.3168  -2.2934  -2.2859  -2.2488  -2.2473
    -2.2326  -2.2275  -2.2021  -2.1943  -2.1811  -2.1696  -2.1641  -2.1490
    -2.1250  -2.1176  -2.1060  -2.0937  -2.0915  -2.0866  -2.0832  -2.0799
    -2.0543  -2.0511  -2.0374  -1.9932  -1.9868  -1.9787  -1.9755  -1.9676
    -1.9510  -1.9211  -1.9174  -1.8954  -1.8872  -1.8388  -1.8330  -1.8048
    -1.7859  -1.7756  -1.7471  -1.7277  -1.7202  -1.7107  -1.7038  -1.7013
    -1.6949  -1.6921  -1.6841  -1.6587  -1.6340  -1.6186  -1.6166  -1.6159
    -1.6078  -1.5972  -1.5749  -1.5645  -1.5537  -1.5486  -1.5456  -1.5374
    -1.5340  -1.5294  -1.5212  -1.5054  -1.5001  -1.4822  -1.4624  -1.4554
    -1.4509  -1.4367  -1.4133  -1.3877  -1.3767  -1.3545  -1.3455  -1.3446
    -1.3203  -1.2862  -1.2648  -1.2601  -1.2551  -1.2544  -1.2492  -1.2448
    -1.2350  -1.2242  -1.1994  -1.1811  -1.1705  -1.1597  -1.1523  -1.1460
    -1.1426  -1.1378  -1.1243  -1.1222  -1.1185  -1.1163  -1.0903  -1.0824
    -1.0781  -1.0761  -1.0636  -1.0515  -1.0418  -1.0231  -1.0170  -1.0054
    -0.9826  -0.9648  -0.9544  -0.9279  -0.9209  -0.9120  -0.9053  -0.9034
    -0.9000  -0.8936  -0.8913  -0.8832  -0.8751  -0.8625  -0.8601  -0.8532
    -0.8498  -0.8488  -0.8463  -0.8136  -0.8128  -0.7993  -0.7868  -0.7801
    -0.7734  -0.7664  -0.7550  -0.7104  -0.7086  -0.7040  -0.6999  -0.6960
    -0.6912  -0.6839  -0.6723  -0.6708  -0.6654  -0.6633  -0.6566  -0.6516
    -0.6240  -0.6208  -0.6198  -0.6117  -0.6101  -0.6058  -0.6029  -0.5895
    -0.5873  -0.5843  -0.5661  -0.5456  -0.5438  -0.5368  -0.5305  -0.5277
    -0.4619  -0.4511  -0.4494  -0.4477  -0.4424  -0.4359  -0.4047  -0.3946
    -0.3925  -0.3607  -0.3571  -0.3284  -0.2439  -0.2332  -0.1383   0.2764
     0.2789   0.2848   0.2856   0.3495   0.3648   0.7284   0.7331   0.7713
     0.7754   0.8983   0.9717   1.0803   1.0849   1.3040   1.3225   1.9303
     1.9367   2.0915   2.0948   2.2286   2.2395   2.3281   2.3298   2.4832
     2.7213   2.7379   2.8509   3.0739   3.0761   3.1449   3.1501   3.2484
     3.2680   3.4759   3.4814   3.5207   3.7218   3.7288   3.7905   3.7926
     4.0423   4.0531   4.0603   4.2941   4.3290   4.3366   4.3820   4.7080
     4.7208   4.7432   4.8798   5.0539   5.0591   5.1263   5.1422   5.6172
     5.8232   5.8365   5.8523   5.8813   5.9024   5.9095   5.9212   6.0200
     6.0323   6.0527   6.0825   6.0847   6.1172   6.1268   6.1368   6.1487
     6.2490   6.5953   6.6105   6.7202   6.7618   6.7801   6.7915   6.7961
     6.8048   6.9083   6.9956

          k = 0.5000 0.0000 0.1111 (136853 PWs)   bands (ev):

   -19.1577  -7.0196  -6.4346  -6.0400  -6.0303  -5.3684  -5.0310  -5.0229
    -5.0039  -4.9811  -4.6275  -4.6215  -4.5320  -4.5232  -4.5107  -4.4884
    -4.4842  -4.3644  -4.3536  -4.3331  -4.2909  -4.2874  -4.2633  -4.2194
    -4.2168  -4.2142  -4.1911  -4.1903  -4.1832  -4.1436  -4.1133  -4.0894
    -4.0844  -4.0766  -4.0706  -4.0535  -4.0468  -4.0292  -4.0186  -4.0165
    -4.0012  -3.9464  -3.9380  -3.9097  -3.8863  -3.8738  -3.8381  -3.8155
    -3.7790  -3.7754  -3.7740  -3.7441  -3.7285  -3.7111  -3.7031  -3.6946
    -3.6919  -3.6901  -3.6653  -3.6565  -3.6444  -3.5988  -3.5950  -3.5880
    -3.5621  -3.5500  -3.4871  -3.4788  -3.4614  -3.4504  -3.4285  -3.4246
    -3.4092  -3.3853  -3.3407  -3.3316  -3.3178  -3.3093  -3.2720  -3.2711
    -3.2559  -3.2198  -3.1968  -3.1920  -3.1831  -3.1801  -3.1774  -3.1651
    -3.1628  -3.1595  -3.1519  -3.1084  -3.0720  -3.0677  -3.0629  -3.0592
    -3.0300  -3.0252  -3.0225  -2.9914  -2.9521  -2.9516  -2.9447  -2.9109
    -2.8966  -2.8875  -2.8833  -2.8652  -2.8578  -2.8275  -2.8022  -2.7948
    -2.7763  -2.7625  -2.7562  -2.7485  -2.7028  -2.6987  -2.6670  -2.6478
    -2.6427  -2.6259  -2.6165  -2.6101  -2.6029  -2.5977  -2.5816  -2.5794
    -2.5349  -2.5288  -2.5274  -2.5158  -2.5141  -2.5119  -2.5039  -2.5003
    -2.4949  -2.4938  -2.4886  -2.4851  -2.4756  -2.4708  -2.4522  -2.4449
    -2.4368  -2.4329  -2.4318  -2.4298  -2.4254  -2.4088  -2.4059  -2.3909
    -2.3884  -2.3678  -2.3669  -2.3635  -2.3572  -2.3562  -2.3559  -2.3464
    -2.3351  -2.3340  -2.3282  -2.3168  -2.2932  -2.2870  -2.2487  -2.2476
    -2.2324  -2.2276  -2.2052  -2.1941  -2.1745  -2.1704  -2.1611  -2.1486
    -2.1276  -2.1143  -2.1084  -2.0953  -2.0920  -2.0868  -2.0828  -2.0788
    -2.0541  -2.0508  -2.0391  -2.0030  -1.9849  -1.9787  -1.9750  -1.9667
    -1.9533  -1.9215  -1.9174  -1.8950  -1.8873  -1.8388  -1.8336  -1.8027
    -1.7864  -1.7757  -1.7445  -1.7235  -1.7197  -1.7118  -1.7048  -1.7001
    -1.6946  -1.6921  -1.6847  -1.6503  -1.6384  -1.6211  -1.6163  -1.6153
    -1.6044  -1.5989  -1.5848  -1.5644  -1.5516  -1.5498  -1.5456  -1.5386
    -1.5355  -1.5285  -1.5222  -1.5027  -1.5020  -1.4735  -1.4621  -1.4556
    -1.4525  -1.4378  -1.4140  -1.3940  -1.3748  -1.3600  -1.3455  -1.3445
    -1.3192  -1.2815  -1.2674  -1.2591  -1.2572  -1.2554  -1.2496  -1.2414
    -1.2347  -1.2249  -1.2005  -1.1824  -1.1675  -1.1596  -1.1512  -1.1470
    -1.1429  -1.1339  -1.1259  -1.1224  -1.1208  -1.1157  -1.0913  -1.0802
    -1.0787  -1.0765  -1.0554  -1.0480  -1.0437  -1.0204  -1.0171  -1.0041
    -0.9786  -0.9682  -0.9587  -0.9299  -0.9238  -0.9155  -0.9054  -0.9000
    -0.8981  -0.8973  -0.8934  -0.8827  -0.8774  -0.8602  -0.8582  -0.8540
    -0.8504  -0.8476  -0.8401  -0.8136  -0.8128  -0.8067  -0.7924  -0.7792
    -0.7745  -0.7662  -0.7476  -0.7095  -0.7073  -0.7025  -0.6998  -0.6979
    -0.6919  -0.6900  -0.6737  -0.6696  -0.6653  -0.6637  -0.6583  -0.6516
    -0.6273  -0.6213  -0.6198  -0.6123  -0.6094  -0.6061  -0.6000  -0.5918
    -0.5869  -0.5829  -0.5652  -0.5458  -0.5443  -0.5371  -0.5310  -0.5261
    -0.4588  -0.4509  -0.4502  -0.4466  -0.4420  -0.4373  -0.4050  -0.3937
    -0.3930  -0.3615  -0.3600  -0.3242  -0.2384  -0.2312  -0.1335   0.2759
     0.2775   0.2855   0.2861   0.3407   0.3691   0.7220   0.7327   0.7712
     0.7782   0.9010   0.9740   1.0774   1.0931   1.2984   1.3252   1.9216
     1.9408   2.0849   2.1050   2.2196   2.2482   2.3281   2.3298   2.4826
     2.7194   2.7386   2.8493   3.0713   3.0762   3.1433   3.1528   3.2439
     3.2684   3.4730   3.4812   3.5198   3.7230   3.7285   3.7853   3.8032
     4.0424   4.0473   4.0649   4.2947   4.3277   4.3406   4.3810   4.7097
     4.7200   4.7399   4.8832   5.0557   5.0594   5.1226   5.1604   5.6141
     5.8303   5.8416   5.8511   5.8875   5.8924   5.9124   5.9152   6.0077
     6.0399   6.0522   6.0785   6.0921   6.1100   6.1157   6.1360   6.1528
     6.2488   6.5941   6.6129   6.7369   6.7608   6.7806   6.7887   6.7949
     6.8187   6.9023   6.9929

          k =-0.5000 0.0000 0.1111 (136853 PWs)   bands (ev):

   -19.1577  -7.0196  -6.4346  -6.0400  -6.0303  -5.3684  -5.0310  -5.0229
    -5.0039  -4.9811  -4.6275  -4.6215  -4.5320  -4.5232  -4.5107  -4.4884
    -4.4842  -4.3644  -4.3536  -4.3331  -4.2909  -4.2874  -4.2633  -4.2194
    -4.2168  -4.2142  -4.1911  -4.1903  -4.1832  -4.1436  -4.1133  -4.0894
    -4.0844  -4.0766  -4.0706  -4.0535  -4.0468  -4.0292  -4.0186  -4.0165
    -4.0012  -3.9464  -3.9380  -3.9097  -3.8863  -3.8738  -3.8381  -3.8155
    -3.7790  -3.7754  -3.7740  -3.7441  -3.7285  -3.7111  -3.7031  -3.6946
    -3.6919  -3.6901  -3.6653  -3.6565  -3.6444  -3.5988  -3.5950  -3.5880
    -3.5621  -3.5500  -3.4871  -3.4788  -3.4614  -3.4504  -3.4285  -3.4246
    -3.4092  -3.3853  -3.3407  -3.3316  -3.3178  -3.3093  -3.2720  -3.2711
    -3.2559  -3.2198  -3.1968  -3.1920  -3.1831  -3.1801  -3.1774  -3.1651
    -3.1628  -3.1595  -3.1519  -3.1084  -3.0720  -3.0677  -3.0629  -3.0592
    -3.0300  -3.0252  -3.0225  -2.9914  -2.9521  -2.9516  -2.9447  -2.9109
    -2.8966  -2.8875  -2.8833  -2.8652  -2.8578  -2.8275  -2.8022  -2.7948
    -2.7763  -2.7625  -2.7562  -2.7485  -2.7028  -2.6987  -2.6670  -2.6478
    -2.6427  -2.6259  -2.6165  -2.6101  -2.6029  -2.5977  -2.5816  -2.5794
    -2.5349  -2.5288  -2.5274  -2.5158  -2.5141  -2.5119  -2.5039  -2.5003
    -2.4949  -2.4938  -2.4886  -2.4851  -2.4756  -2.4708  -2.4522  -2.4449
    -2.4368  -2.4329  -2.4318  -2.4298  -2.4254  -2.4088  -2.4059  -2.3909
    -2.3884  -2.3678  -2.3669  -2.3635  -2.3572  -2.3562  -2.3559  -2.3464
    -2.3351  -2.3340  -2.3282  -2.3168  -2.2932  -2.2870  -2.2487  -2.2476
    -2.2324  -2.2276  -2.2052  -2.1941  -2.1745  -2.1704  -2.1611  -2.1486
    -2.1276  -2.1143  -2.1084  -2.0953  -2.0920  -2.0868  -2.0828  -2.0788
    -2.0541  -2.0508  -2.0391  -2.0030  -1.9849  -1.9787  -1.9750  -1.9667
    -1.9533  -1.9215  -1.9174  -1.8950  -1.8873  -1.8388  -1.8336  -1.8027
    -1.7864  -1.7757  -1.7445  -1.7235  -1.7197  -1.7118  -1.7048  -1.7001
    -1.6946  -1.6921  -1.6847  -1.6503  -1.6384  -1.6211  -1.6163  -1.6153
    -1.6044  -1.5989  -1.5848  -1.5644  -1.5516  -1.5498  -1.5456  -1.5386
    -1.5355  -1.5285  -1.5222  -1.5027  -1.5020  -1.4735  -1.4621  -1.4556
    -1.4525  -1.4378  -1.4140  -1.3940  -1.3748  -1.3600  -1.3455  -1.3445
    -1.3192  -1.2815  -1.2674  -1.2591  -1.2572  -1.2554  -1.2496  -1.2414
    -1.2347  -1.2249  -1.2005  -1.1824  -1.1675  -1.1596  -1.1512  -1.1470
    -1.1429  -1.1339  -1.1259  -1.1224  -1.1208  -1.1157  -1.0913  -1.0802
    -1.0787  -1.0765  -1.0554  -1.0480  -1.0437  -1.0204  -1.0171  -1.0041
    -0.9786  -0.9682  -0.9587  -0.9299  -0.9238  -0.9155  -0.9054  -0.9000
    -0.8981  -0.8973  -0.8934  -0.8827  -0.8774  -0.8602  -0.8582  -0.8540
    -0.8504  -0.8476  -0.8401  -0.8136  -0.8128  -0.8067  -0.7924  -0.7792
    -0.7745  -0.7662  -0.7476  -0.7095  -0.7073  -0.7025  -0.6998  -0.6979
    -0.6919  -0.6900  -0.6737  -0.6696  -0.6653  -0.6637  -0.6583  -0.6516
    -0.6273  -0.6213  -0.6198  -0.6123  -0.6094  -0.6061  -0.6000  -0.5918
    -0.5869  -0.5829  -0.5652  -0.5458  -0.5443  -0.5371  -0.5310  -0.5261
    -0.4588  -0.4509  -0.4502  -0.4466  -0.4420  -0.4373  -0.4050  -0.3937
    -0.3930  -0.3615  -0.3600  -0.3242  -0.2384  -0.2312  -0.1335   0.2759
     0.2775   0.2855   0.2861   0.3407   0.3691   0.7220   0.7327   0.7712
     0.7782   0.9010   0.9740   1.0774   1.0931   1.2984   1.3252   1.9216
     1.9408   2.0849   2.1050   2.2196   2.2482   2.3281   2.3298   2.4826
     2.7194   2.7386   2.8493   3.0713   3.0762   3.1433   3.1528   3.2439
     3.2684   3.4730   3.4812   3.5198   3.7230   3.7285   3.7853   3.8032
     4.0424   4.0473   4.0649   4.2947   4.3277   4.3406   4.3810   4.7097
     4.7200   4.7399   4.8832   5.0557   5.0594   5.1226   5.1604   5.6141
     5.8303   5.8416   5.8511   5.8875   5.8923   5.9124   5.9152   6.0077
     6.0399   6.0522   6.0785   6.0921   6.1100   6.1157   6.1360   6.1528
     6.2488   6.5942   6.6129   6.7369   6.7607   6.7805   6.7891   6.7947
     6.8187   6.9023   6.9933

          k =-0.2500 0.1443 0.1111 (136898 PWs)   bands (ev):

   -19.1577  -7.0195  -6.6444  -5.8528  -5.5716  -5.5035  -5.5001  -4.9671
    -4.9619  -4.8484  -4.8298  -4.6879  -4.6567  -4.5873  -4.5702  -4.5505
    -4.5172  -4.5150  -4.3867  -4.3452  -4.3441  -4.3055  -4.2758  -4.2655
    -4.1671  -4.1615  -4.1404  -4.1250  -4.1243  -4.1054  -4.0827  -4.0767
    -4.0215  -3.9739  -3.9702  -3.9588  -3.9455  -3.9323  -3.9248  -3.9204
    -3.9137  -3.8937  -3.8784  -3.8778  -3.8750  -3.8573  -3.8475  -3.8432
    -3.8253  -3.8229  -3.8069  -3.7816  -3.7651  -3.7331  -3.7245  -3.7197
    -3.7162  -3.6975  -3.6428  -3.6396  -3.6138  -3.6068  -3.5881  -3.5372
    -3.5365  -3.5211  -3.5076  -3.4968  -3.4954  -3.4918  -3.4689  -3.3350
    -3.3317  -3.3210  -3.3160  -3.3045  -3.2903  -3.2846  -3.2684  -3.2608
    -3.2147  -3.2126  -3.1985  -3.1979  -3.1754  -3.1386  -3.1303  -3.1135
    -3.1051  -3.1002  -3.0663  -3.0642  -3.0547  -3.0520  -3.0400  -3.0345
    -3.0027  -3.0012  -2.9861  -2.9784  -2.9755  -2.9721  -2.9635  -2.9024
    -2.8987  -2.8900  -2.8632  -2.8564  -2.8123  -2.8032  -2.7780  -2.7722
    -2.7628  -2.7604  -2.7504  -2.7285  -2.7255  -2.7134  -2.7020  -2.6832
    -2.6792  -2.6701  -2.6550  -2.6523  -2.6477  -2.6421  -2.6378  -2.6338
    -2.6243  -2.5796  -2.5538  -2.5522  -2.5332  -2.5221  -2.5190  -2.5127
    -2.5055  -2.5048  -2.5028  -2.4796  -2.4755  -2.4699  -2.4639  -2.4598
    -2.4518  -2.4254  -2.4236  -2.4196  -2.4184  -2.4136  -2.3711  -2.3476
    -2.3425  -2.3400  -2.3334  -2.3268  -2.3215  -2.3158  -2.2946  -2.2941
    -2.2713  -2.2655  -2.2618  -2.2536  -2.2485  -2.2434  -2.2200  -2.2106
    -2.1784  -2.1687  -2.1629  -2.1616  -2.1599  -2.1565  -2.1526  -2.1495
    -2.1468  -2.1427  -2.1405  -2.1252  -2.1240  -2.0196  -2.0052  -1.9904
    -1.9630  -1.9607  -1.9500  -1.9490  -1.9417  -1.9382  -1.9319  -1.9298
    -1.9213  -1.9109  -1.9048  -1.9031  -1.8922  -1.8841  -1.8752  -1.8668
    -1.8567  -1.8380  -1.8341  -1.8171  -1.8099  -1.7968  -1.7863  -1.7662
    -1.7632  -1.7619  -1.7481  -1.7349  -1.7315  -1.7246  -1.7239  -1.7051
    -1.7015  -1.6877  -1.6838  -1.6536  -1.6474  -1.6394  -1.6000  -1.5914
    -1.5779  -1.5740  -1.5639  -1.5468  -1.5426  -1.5200  -1.5138  -1.5100
    -1.4859  -1.4750  -1.4700  -1.4519  -1.4503  -1.4361  -1.4295  -1.4174
    -1.4016  -1.3948  -1.3893  -1.3381  -1.3313  -1.3243  -1.3184  -1.3110
    -1.3020  -1.2882  -1.2873  -1.2696  -1.2548  -1.2346  -1.2268  -1.2155
    -1.1976  -1.1812  -1.1753  -1.1681  -1.1652  -1.1628  -1.1609  -1.1580
    -1.1412  -1.1274  -1.1189  -1.1081  -1.1005  -1.0982  -1.0900  -1.0831
    -1.0621  -1.0484  -1.0358  -1.0217  -0.9756  -0.9451  -0.9358  -0.9277
    -0.9265  -0.9171  -0.9110  -0.8993  -0.8942  -0.8811  -0.8762  -0.8644
    -0.8628  -0.8593  -0.8446  -0.8345  -0.8282  -0.8208  -0.7861  -0.7455
    -0.7420  -0.7131  -0.7083  -0.7025  -0.7004  -0.6982  -0.6942  -0.6926
    -0.6828  -0.6761  -0.6550  -0.6419  -0.6233  -0.6129  -0.6095  -0.6007
    -0.5952  -0.5918  -0.5860  -0.5827  -0.5811  -0.5748  -0.5669  -0.5624
    -0.5561  -0.5323  -0.5285  -0.5258  -0.5155  -0.5134  -0.4963  -0.4655
    -0.4626  -0.4558  -0.4519  -0.3872  -0.3865  -0.3562  -0.3536  -0.2989
    -0.2967  -0.2924  -0.2730  -0.2606  -0.0371  -0.0098   0.3077   0.3085
     0.3997   0.4237   0.6008   0.6255   0.6383   0.7519   0.7578   1.1875
     1.1894   1.2043   1.4765   1.4977   1.4994   1.7746   1.7965   1.8492
     1.8512   1.8791   1.8949   2.1044   2.1095   2.1994   2.2006   2.2843
     2.3380   2.3589   2.5030   2.6081   3.0308   3.0409   3.0435   3.0481
     3.0928   3.1019   3.3909   3.3929   3.6725   3.6855   3.7923   4.0893
     4.1282   4.1322   4.3620   4.3739   4.4262   4.4330   4.5246   4.6409
     4.6491   4.7582   4.7604   5.0580   5.1209   5.1388   5.3071   5.3335
     5.4838   5.5133   5.5192   5.5450   5.5509   5.6008   5.6139   5.6759
     6.0284   6.0693   6.2098   6.3101   6.3173   6.3392   6.3507   6.3654
     6.3732   6.5928   6.6000   6.6284   6.7790   6.8311   6.8583   6.8946
     6.9142   7.1215   7.1428

          k =-0.2500-0.1443-0.1111 (136898 PWs)   bands (ev):

   -19.1577  -7.0195  -6.6444  -5.8529  -5.5716  -5.5034  -5.5002  -4.9669
    -4.9619  -4.8493  -4.8299  -4.6876  -4.6567  -4.5876  -4.5692  -4.5506
    -4.5170  -4.5150  -4.3867  -4.3450  -4.3443  -4.3060  -4.2752  -4.2656
    -4.1671  -4.1615  -4.1406  -4.1251  -4.1243  -4.1058  -4.0823  -4.0769
    -4.0234  -3.9738  -3.9701  -3.9592  -3.9450  -3.9324  -3.9241  -3.9204
    -3.9141  -3.8916  -3.8785  -3.8776  -3.8749  -3.8572  -3.8480  -3.8439
    -3.8252  -3.8233  -3.8042  -3.7823  -3.7660  -3.7326  -3.7246  -3.7197
    -3.7162  -3.6973  -3.6428  -3.6396  -3.6139  -3.6067  -3.5883  -3.5373
    -3.5367  -3.5211  -3.5075  -3.4967  -3.4949  -3.4920  -3.4695  -3.3351
    -3.3317  -3.3202  -3.3165  -3.3046  -3.2903  -3.2844  -3.2684  -3.2606
    -3.2147  -3.2130  -3.1984  -3.1979  -3.1757  -3.1383  -3.1297  -3.1141
    -3.1054  -3.1000  -3.0662  -3.0644  -3.0545  -3.0522  -3.0401  -3.0346
    -3.0026  -3.0010  -2.9858  -2.9781  -2.9755  -2.9724  -2.9633  -2.9027
    -2.8988  -2.8902  -2.8633  -2.8564  -2.8110  -2.8034  -2.7787  -2.7722
    -2.7623  -2.7601  -2.7505  -2.7281  -2.7255  -2.7134  -2.7024  -2.6831
    -2.6801  -2.6702  -2.6554  -2.6521  -2.6476  -2.6421  -2.6380  -2.6337
    -2.6244  -2.5795  -2.5534  -2.5523  -2.5336  -2.5223  -2.5187  -2.5127
    -2.5056  -2.5049  -2.5029  -2.4788  -2.4757  -2.4701  -2.4635  -2.4597
    -2.4517  -2.4256  -2.4242  -2.4201  -2.4181  -2.4134  -2.3711  -2.3479
    -2.3426  -2.3401  -2.3332  -2.3259  -2.3214  -2.3156  -2.2943  -2.2941
    -2.2717  -2.2657  -2.2618  -2.2532  -2.2488  -2.2435  -2.2205  -2.2106
    -2.1781  -2.1687  -2.1630  -2.1616  -2.1599  -2.1566  -2.1528  -2.1499
    -2.1468  -2.1428  -2.1406  -2.1254  -2.1239  -2.0177  -2.0055  -1.9936
    -1.9625  -1.9607  -1.9498  -1.9488  -1.9414  -1.9388  -1.9320  -1.9307
    -1.9208  -1.9101  -1.9047  -1.9027  -1.8926  -1.8833  -1.8756  -1.8666
    -1.8569  -1.8373  -1.8341  -1.8188  -1.8101  -1.7968  -1.7861  -1.7662
    -1.7632  -1.7618  -1.7481  -1.7341  -1.7317  -1.7248  -1.7241  -1.7055
    -1.7011  -1.6875  -1.6832  -1.6532  -1.6489  -1.6394  -1.6002  -1.5907
    -1.5786  -1.5738  -1.5640  -1.5470  -1.5422  -1.5189  -1.5135  -1.5107
    -1.4869  -1.4742  -1.4699  -1.4517  -1.4502  -1.4362  -1.4296  -1.4174
    -1.4009  -1.3952  -1.3895  -1.3369  -1.3322  -1.3245  -1.3186  -1.3119
    -1.3014  -1.2884  -1.2873  -1.2694  -1.2544  -1.2356  -1.2263  -1.2157
    -1.1982  -1.1802  -1.1756  -1.1679  -1.1650  -1.1627  -1.1609  -1.1587
    -1.1411  -1.1268  -1.1181  -1.1060  -1.1006  -1.0983  -1.0910  -1.0835
    -1.0613  -1.0483  -1.0358  -1.0217  -0.9790  -0.9432  -0.9368  -0.9277
    -0.9270  -0.9164  -0.9116  -0.8987  -0.8952  -0.8803  -0.8765  -0.8645
    -0.8635  -0.8597  -0.8441  -0.8350  -0.8285  -0.8207  -0.7847  -0.7452
    -0.7408  -0.7137  -0.7085  -0.7018  -0.7005  -0.6980  -0.6937  -0.6914
    -0.6835  -0.6782  -0.6542  -0.6418  -0.6226  -0.6125  -0.6101  -0.6007
    -0.5949  -0.5926  -0.5858  -0.5829  -0.5816  -0.5748  -0.5670  -0.5625
    -0.5559  -0.5323  -0.5281  -0.5262  -0.5154  -0.5133  -0.4964  -0.4656
    -0.4625  -0.4559  -0.4516  -0.3877  -0.3864  -0.3563  -0.3535  -0.2992
    -0.2964  -0.2923  -0.2730  -0.2600  -0.0385  -0.0091   0.3079   0.3085
     0.3985   0.4247   0.6016   0.6258   0.6385   0.7515   0.7584   1.1874
     1.1892   1.2054   1.4763   1.4975   1.4992   1.7730   1.7979   1.8485
     1.8507   1.8785   1.8961   2.1031   2.1096   2.1998   2.2004   2.2842
     2.3368   2.3606   2.5034   2.6075   3.0308   3.0407   3.0434   3.0486
     3.0909   3.1030   3.3903   3.3932   3.6718   3.6864   3.7913   4.0896
     4.1271   4.1324   4.3598   4.3781   4.4262   4.4336   4.5233   4.6416
     4.6493   4.7586   4.7612   5.0576   5.1244   5.1381   5.3060   5.3366
     5.4829   5.5144   5.5183   5.5441   5.5515   5.6014   5.6141   5.6733
     6.0263   6.0706   6.2075   6.3090   6.3222   6.3365   6.3522   6.3651
     6.3734   6.5963   6.6017   6.6282   6.7804   6.8325   6.8573   6.8900
     6.9161   7.1182   7.1453

          k = 0.2500 0.1443-0.1111 (136898 PWs)   bands (ev):

   -19.1577  -7.0195  -6.6444  -5.8529  -5.5716  -5.5034  -5.5002  -4.9669
    -4.9619  -4.8493  -4.8299  -4.6876  -4.6567  -4.5876  -4.5692  -4.5506
    -4.5170  -4.5150  -4.3867  -4.3450  -4.3443  -4.3060  -4.2752  -4.2656
    -4.1671  -4.1615  -4.1406  -4.1251  -4.1243  -4.1058  -4.0823  -4.0769
    -4.0234  -3.9738  -3.9701  -3.9592  -3.9450  -3.9324  -3.9241  -3.9204
    -3.9141  -3.8916  -3.8785  -3.8776  -3.8749  -3.8572  -3.8480  -3.8439
    -3.8252  -3.8233  -3.8042  -3.7823  -3.7660  -3.7326  -3.7246  -3.7197
    -3.7162  -3.6973  -3.6428  -3.6396  -3.6139  -3.6067  -3.5883  -3.5373
    -3.5367  -3.5211  -3.5075  -3.4967  -3.4949  -3.4920  -3.4695  -3.3351
    -3.3317  -3.3202  -3.3165  -3.3046  -3.2903  -3.2844  -3.2684  -3.2606
    -3.2147  -3.2130  -3.1984  -3.1979  -3.1757  -3.1383  -3.1297  -3.1141
    -3.1054  -3.1000  -3.0662  -3.0644  -3.0545  -3.0522  -3.0401  -3.0346
    -3.0026  -3.0010  -2.9858  -2.9781  -2.9755  -2.9724  -2.9633  -2.9027
    -2.8988  -2.8902  -2.8633  -2.8564  -2.8110  -2.8034  -2.7787  -2.7722
    -2.7623  -2.7601  -2.7505  -2.7281  -2.7255  -2.7134  -2.7024  -2.6831
    -2.6801  -2.6702  -2.6554  -2.6521  -2.6476  -2.6421  -2.6380  -2.6337
    -2.6244  -2.5795  -2.5534  -2.5523  -2.5336  -2.5223  -2.5187  -2.5127
    -2.5056  -2.5049  -2.5029  -2.4788  -2.4757  -2.4701  -2.4635  -2.4597
    -2.4517  -2.4256  -2.4242  -2.4201  -2.4181  -2.4134  -2.3712  -2.3479
    -2.3426  -2.3401  -2.3332  -2.3259  -2.3214  -2.3156  -2.2943  -2.2941
    -2.2717  -2.2657  -2.2618  -2.2532  -2.2488  -2.2435  -2.2205  -2.2106
    -2.1781  -2.1687  -2.1630  -2.1616  -2.1599  -2.1566  -2.1528  -2.1499
    -2.1468  -2.1428  -2.1406  -2.1254  -2.1239  -2.0177  -2.0055  -1.9936
    -1.9625  -1.9607  -1.9498  -1.9488  -1.9414  -1.9388  -1.9320  -1.9307
    -1.9208  -1.9101  -1.9047  -1.9027  -1.8926  -1.8833  -1.8756  -1.8666
    -1.8569  -1.8373  -1.8341  -1.8188  -1.8101  -1.7968  -1.7861  -1.7662
    -1.7632  -1.7618  -1.7481  -1.7340  -1.7317  -1.7248  -1.7241  -1.7055
    -1.7011  -1.6875  -1.6832  -1.6532  -1.6489  -1.6394  -1.6002  -1.5907
    -1.5786  -1.5738  -1.5640  -1.5470  -1.5422  -1.5189  -1.5135  -1.5107
    -1.4869  -1.4742  -1.4699  -1.4517  -1.4502  -1.4362  -1.4296  -1.4174
    -1.4009  -1.3952  -1.3895  -1.3369  -1.3322  -1.3245  -1.3186  -1.3119
    -1.3014  -1.2884  -1.2873  -1.2694  -1.2544  -1.2356  -1.2263  -1.2157
    -1.1982  -1.1802  -1.1756  -1.1679  -1.1650  -1.1627  -1.1609  -1.1587
    -1.1412  -1.1268  -1.1181  -1.1060  -1.1006  -1.0983  -1.0910  -1.0835
    -1.0613  -1.0483  -1.0358  -1.0217  -0.9790  -0.9432  -0.9368  -0.9277
    -0.9270  -0.9164  -0.9116  -0.8987  -0.8952  -0.8803  -0.8765  -0.8645
    -0.8635  -0.8597  -0.8441  -0.8350  -0.8285  -0.8207  -0.7847  -0.7452
    -0.7408  -0.7137  -0.7085  -0.7018  -0.7005  -0.6980  -0.6937  -0.6914
    -0.6835  -0.6782  -0.6542  -0.6418  -0.6226  -0.6125  -0.6101  -0.6007
    -0.5949  -0.5926  -0.5858  -0.5829  -0.5816  -0.5748  -0.5670  -0.5625
    -0.5559  -0.5323  -0.5281  -0.5262  -0.5154  -0.5133  -0.4964  -0.4656
    -0.4625  -0.4559  -0.4516  -0.3877  -0.3864  -0.3563  -0.3535  -0.2992
    -0.2964  -0.2923  -0.2730  -0.2600  -0.0385  -0.0091   0.3079   0.3085
     0.3985   0.4247   0.6016   0.6258   0.6385   0.7515   0.7584   1.1874
     1.1892   1.2054   1.4763   1.4975   1.4992   1.7730   1.7979   1.8485
     1.8507   1.8785   1.8961   2.1031   2.1096   2.1998   2.2004   2.2842
     2.3368   2.3606   2.5033   2.6075   3.0308   3.0407   3.0434   3.0486
     3.0909   3.1030   3.3903   3.3932   3.6718   3.6864   3.7913   4.0896
     4.1271   4.1324   4.3598   4.3781   4.4262   4.4336   4.5233   4.6416
     4.6493   4.7586   4.7612   5.0576   5.1244   5.1381   5.3060   5.3366
     5.4829   5.5144   5.5183   5.5441   5.5515   5.6014   5.6141   5.6733
     6.0265   6.0707   6.2075   6.3087   6.3220   6.3365   6.3522   6.3651
     6.3734   6.5967   6.6014   6.6276   6.7767   6.8324   6.8574   6.8902
     6.9165   7.1237   7.1514

          k = 0.0000-0.2887 0.1111 (136898 PWs)   bands (ev):

   -19.1577  -7.0196  -6.6443  -5.8524  -5.5718  -5.5039  -5.5000  -4.9674
    -4.9617  -4.8453  -4.8300  -4.6887  -4.6569  -4.5867  -4.5740  -4.5503
    -4.5173  -4.5152  -4.3864  -4.3454  -4.3443  -4.3033  -4.2775  -4.2652
    -4.1676  -4.1615  -4.1392  -4.1249  -4.1245  -4.1035  -4.0840  -4.0767
    -4.0153  -3.9742  -3.9705  -3.9570  -3.9474  -3.9324  -3.9276  -3.9205
    -3.9116  -3.8979  -3.8786  -3.8780  -3.8748  -3.8570  -3.8480  -3.8411
    -3.8251  -3.8222  -3.8127  -3.7821  -3.7616  -3.7352  -3.7243  -3.7199
    -3.7163  -3.6991  -3.6430  -3.6395  -3.6126  -3.6068  -3.5860  -3.5373
    -3.5365  -3.5207  -3.5081  -3.4967  -3.4961  -3.4921  -3.4688  -3.3348
    -3.3314  -3.3227  -3.3157  -3.3037  -3.2901  -3.2856  -3.2683  -3.2609
    -3.2147  -3.2113  -3.1987  -3.1979  -3.1743  -3.1396  -3.1323  -3.1115
    -3.1049  -3.1016  -3.0665  -3.0638  -3.0552  -3.0518  -3.0397  -3.0335
    -3.0024  -3.0018  -2.9868  -2.9796  -2.9752  -2.9714  -2.9635  -2.9013
    -2.8990  -2.8896  -2.8631  -2.8565  -2.8156  -2.8035  -2.7756  -2.7713
    -2.7630  -2.7623  -2.7505  -2.7285  -2.7264  -2.7133  -2.6994  -2.6841
    -2.6776  -2.6701  -2.6550  -2.6526  -2.6468  -2.6430  -2.6371  -2.6344
    -2.6244  -2.5796  -2.5544  -2.5536  -2.5319  -2.5213  -2.5199  -2.5130
    -2.5050  -2.5041  -2.5035  -2.4809  -2.4762  -2.4693  -2.4637  -2.4610
    -2.4514  -2.4241  -2.4224  -2.4192  -2.4179  -2.4148  -2.3718  -2.3455
    -2.3432  -2.3407  -2.3340  -2.3311  -2.3215  -2.3159  -2.2945  -2.2940
    -2.2697  -2.2633  -2.2616  -2.2551  -2.2475  -2.2435  -2.2161  -2.2116
    -2.1791  -2.1674  -2.1640  -2.1607  -2.1594  -2.1547  -2.1533  -2.1487
    -2.1485  -2.1426  -2.1407  -2.1258  -2.1233  -2.0228  -2.0047  -1.9773
    -1.9699  -1.9609  -1.9502  -1.9490  -1.9434  -1.9355  -1.9318  -1.9287
    -1.9230  -1.9137  -1.9047  -1.9039  -1.8901  -1.8852  -1.8749  -1.8686
    -1.8569  -1.8403  -1.8351  -1.8101  -1.8095  -1.7958  -1.7860  -1.7664
    -1.7627  -1.7619  -1.7483  -1.7381  -1.7319  -1.7244  -1.7231  -1.7027
    -1.7022  -1.6882  -1.6860  -1.6553  -1.6436  -1.6400  -1.5969  -1.5951
    -1.5758  -1.5751  -1.5637  -1.5469  -1.5426  -1.5246  -1.5141  -1.5079
    -1.4803  -1.4792  -1.4706  -1.4521  -1.4501  -1.4338  -1.4316  -1.4169
    -1.4041  -1.3936  -1.3890  -1.3421  -1.3304  -1.3233  -1.3179  -1.3081
    -1.3038  -1.2866  -1.2861  -1.2688  -1.2553  -1.2300  -1.2292  -1.2145
    -1.1933  -1.1861  -1.1746  -1.1684  -1.1677  -1.1628  -1.1621  -1.1562
    -1.1413  -1.1319  -1.1218  -1.1138  -1.0999  -1.0980  -1.0876  -1.0822
    -1.0650  -1.0500  -1.0353  -1.0218  -0.9642  -0.9507  -0.9312  -0.9287
    -0.9246  -0.9200  -0.9090  -0.8994  -0.8878  -0.8861  -0.8748  -0.8645
    -0.8601  -0.8594  -0.8455  -0.8322  -0.8256  -0.8224  -0.7938  -0.7482
    -0.7448  -0.7105  -0.7081  -0.7059  -0.7003  -0.6998  -0.6948  -0.6939
    -0.6803  -0.6686  -0.6595  -0.6417  -0.6274  -0.6144  -0.6077  -0.6004
    -0.5959  -0.5893  -0.5852  -0.5832  -0.5794  -0.5748  -0.5666  -0.5622
    -0.5570  -0.5323  -0.5287  -0.5240  -0.5154  -0.5137  -0.4960  -0.4650
    -0.4630  -0.4551  -0.4530  -0.3872  -0.3860  -0.3560  -0.3541  -0.2982
    -0.2971  -0.2924  -0.2729  -0.2638  -0.0300  -0.0124   0.3073   0.3085
     0.4056   0.4196   0.5957   0.6231   0.6384   0.7540   0.7546   1.1878
     1.1905   1.2014   1.4768   1.4979   1.5005   1.7811   1.7908   1.8496
     1.8546   1.8834   1.8887   2.1050   2.1118   2.1980   2.2012   2.2854
     2.3429   2.3517   2.5007   2.6099   3.0342   3.0412   3.0440   3.0446
     3.0965   3.1009   3.3914   3.3933   3.6777   3.6817   3.7942   4.0878
     4.1292   4.1316   4.3556   4.3755   4.4282   4.4290   4.5272   4.6413
     4.6443   4.7586   4.7603   5.0569   5.1249   5.1344   5.3132   5.3247
     5.4827   5.5095   5.5202   5.5478   5.5491   5.6051   5.6090   5.6816
     6.0320   6.0685   6.2059   6.2874   6.3304   6.3436   6.3549   6.3681
     6.3726   6.5770   6.6062   6.6276   6.7834   6.8444   6.8498   6.8922
     6.9128   7.1250   7.1403

          k = 0.0000 0.2887 0.1111 (136898 PWs)   bands (ev):

   -19.1577  -7.0196  -6.6443  -5.8524  -5.5718  -5.5039  -5.5000  -4.9674
    -4.9617  -4.8453  -4.8300  -4.6887  -4.6569  -4.5867  -4.5740  -4.5503
    -4.5173  -4.5152  -4.3864  -4.3454  -4.3443  -4.3033  -4.2775  -4.2652
    -4.1676  -4.1615  -4.1392  -4.1249  -4.1245  -4.1035  -4.0840  -4.0767
    -4.0153  -3.9742  -3.9705  -3.9570  -3.9474  -3.9324  -3.9276  -3.9205
    -3.9116  -3.8979  -3.8786  -3.8780  -3.8748  -3.8570  -3.8480  -3.8411
    -3.8252  -3.8222  -3.8127  -3.7821  -3.7616  -3.7352  -3.7243  -3.7199
    -3.7163  -3.6991  -3.6430  -3.6395  -3.6126  -3.6068  -3.5860  -3.5373
    -3.5365  -3.5207  -3.5081  -3.4967  -3.4961  -3.4921  -3.4688  -3.3348
    -3.3314  -3.3227  -3.3157  -3.3037  -3.2902  -3.2856  -3.2683  -3.2609
    -3.2147  -3.2113  -3.1987  -3.1979  -3.1743  -3.1396  -3.1323  -3.1115
    -3.1049  -3.1016  -3.0665  -3.0638  -3.0552  -3.0518  -3.0397  -3.0335
    -3.0024  -3.0018  -2.9868  -2.9796  -2.9752  -2.9714  -2.9635  -2.9013
    -2.8990  -2.8896  -2.8631  -2.8565  -2.8156  -2.8035  -2.7756  -2.7713
    -2.7630  -2.7623  -2.7505  -2.7285  -2.7264  -2.7133  -2.6994  -2.6841
    -2.6776  -2.6701  -2.6550  -2.6526  -2.6468  -2.6430  -2.6371  -2.6344
    -2.6244  -2.5796  -2.5544  -2.5536  -2.5319  -2.5213  -2.5199  -2.5130
    -2.5050  -2.5041  -2.5035  -2.4809  -2.4762  -2.4693  -2.4637  -2.4610
    -2.4514  -2.4241  -2.4224  -2.4192  -2.4179  -2.4148  -2.3718  -2.3455
    -2.3432  -2.3407  -2.3340  -2.3311  -2.3215  -2.3159  -2.2945  -2.2940
    -2.2697  -2.2633  -2.2616  -2.2551  -2.2475  -2.2435  -2.2161  -2.2116
    -2.1791  -2.1674  -2.1640  -2.1607  -2.1594  -2.1547  -2.1533  -2.1487
    -2.1485  -2.1426  -2.1407  -2.1258  -2.1233  -2.0228  -2.0047  -1.9773
    -1.9699  -1.9609  -1.9502  -1.9490  -1.9434  -1.9355  -1.9318  -1.9287
    -1.9230  -1.9137  -1.9047  -1.9039  -1.8901  -1.8852  -1.8749  -1.8686
    -1.8569  -1.8403  -1.8351  -1.8101  -1.8095  -1.7958  -1.7860  -1.7664
    -1.7627  -1.7619  -1.7483  -1.7380  -1.7319  -1.7244  -1.7231  -1.7027
    -1.7022  -1.6882  -1.6860  -1.6553  -1.6436  -1.6400  -1.5969  -1.5951
    -1.5758  -1.5751  -1.5637  -1.5469  -1.5425  -1.5246  -1.5141  -1.5079
    -1.4803  -1.4792  -1.4706  -1.4521  -1.4501  -1.4338  -1.4316  -1.4169
    -1.4041  -1.3936  -1.3890  -1.3421  -1.3304  -1.3233  -1.3179  -1.3081
    -1.3038  -1.2866  -1.2861  -1.2688  -1.2553  -1.2300  -1.2292  -1.2145
    -1.1933  -1.1861  -1.1746  -1.1684  -1.1677  -1.1628  -1.1621  -1.1562
    -1.1413  -1.1319  -1.1218  -1.1138  -1.0999  -1.0980  -1.0876  -1.0822
    -1.0650  -1.0500  -1.0353  -1.0218  -0.9642  -0.9507  -0.9312  -0.9287
    -0.9246  -0.9200  -0.9090  -0.8994  -0.8878  -0.8861  -0.8748  -0.8645
    -0.8601  -0.8594  -0.8455  -0.8322  -0.8256  -0.8224  -0.7938  -0.7482
    -0.7448  -0.7105  -0.7081  -0.7059  -0.7003  -0.6998  -0.6948  -0.6939
    -0.6803  -0.6686  -0.6595  -0.6417  -0.6274  -0.6144  -0.6077  -0.6004
    -0.5959  -0.5893  -0.5852  -0.5832  -0.5794  -0.5748  -0.5666  -0.5623
    -0.5570  -0.5323  -0.5287  -0.5240  -0.5154  -0.5137  -0.4960  -0.4650
    -0.4630  -0.4551  -0.4530  -0.3872  -0.3860  -0.3560  -0.3541  -0.2982
    -0.2971  -0.2924  -0.2729  -0.2638  -0.0300  -0.0124   0.3073   0.3085
     0.4056   0.4196   0.5957   0.6231   0.6384   0.7540   0.7546   1.1878
     1.1905   1.2014   1.4768   1.4979   1.5005   1.7811   1.7908   1.8496
     1.8546   1.8834   1.8887   2.1050   2.1118   2.1980   2.2012   2.2854
     2.3429   2.3517   2.5007   2.6099   3.0342   3.0412   3.0440   3.0446
     3.0965   3.1009   3.3914   3.3933   3.6777   3.6817   3.7942   4.0878
     4.1292   4.1316   4.3556   4.3755   4.4282   4.4290   4.5272   4.6413
     4.6443   4.7586   4.7603   5.0569   5.1249   5.1344   5.3132   5.3247
     5.4828   5.5095   5.5202   5.5478   5.5491   5.6051   5.6090   5.6816
     6.0323   6.0686   6.2060   6.2872   6.3302   6.3436   6.3549   6.3681
     6.3725   6.5770   6.6062   6.6273   6.7795   6.8444   6.8498   6.8925
     6.9132   7.1297   7.1453

     the Fermi energy is     1.3372 ev

!    total energy              =   -6604.39177198 Ry
     Harris-Foulkes estimate   =   -6604.39177198 Ry
     estimated scf accuracy    <          5.0E-09 Ry

     The total energy is the sum of the following terms:

     one-electron contribution =  -48859.13543948 Ry
     hartree contribution      =   24927.97050777 Ry
     xc contribution           =   -3205.05647326 Ry
     ewald contribution        =   20531.82687614 Ry
     smearing contrib. (-TS)   =       0.00275684 Ry

     convergence has been achieved in  24 iterations

     Writing output data file 2252202.save

     init_run     :    140.99s CPU    153.41s WALL (       1 calls)
     electrons    :   7851.28s CPU   8419.96s WALL (       1 calls)

     Called by init_run:
     wfcinit      :    111.32s CPU    122.09s WALL (       1 calls)
     potinit      :      9.39s CPU      9.81s WALL (       1 calls)

     Called by electrons:
     c_bands      :   6673.48s CPU   7133.57s WALL (      25 calls)
     sum_band     :    860.79s CPU    956.45s WALL (      25 calls)
     v_of_rho     :     88.27s CPU     97.33s WALL (      25 calls)
     newd         :    236.03s CPU    239.35s WALL (      25 calls)
     mix_rho      :      2.79s CPU      3.13s WALL (      25 calls)
     vdW_energy   :      7.43s CPU      7.94s WALL (      25 calls)
     vdW_ffts     :     43.88s CPU     48.54s WALL (      50 calls)
     vdW_v        :     11.70s CPU     12.42s WALL (      25 calls)

     Called by c_bands:
     init_us_2    :     13.88s CPU     14.29s WALL (     612 calls)
     cegterg      :   6589.44s CPU   7047.78s WALL (     300 calls)

     Called by *egterg:
     h_psi        :   2758.02s CPU   3182.13s WALL (    1565 calls)
     s_psi        :    422.13s CPU    424.61s WALL (    1565 calls)
     g_psi        :      5.96s CPU      5.96s WALL (    1253 calls)
     cdiaghg      :   2059.76s CPU   2066.40s WALL (    1541 calls)

     Called by h_psi:
     add_vuspsi   :    422.56s CPU    425.11s WALL (    1565 calls)

     General routines
     calbec       :    621.10s CPU    623.47s WALL (    1865 calls)
     fft          :    114.72s CPU    123.39s WALL (    1650 calls)
     ffts         :      1.53s CPU      1.70s WALL (      50 calls)
     fftw         :   2081.12s CPU   2540.98s WALL (  723234 calls)
     interpolate  :      3.80s CPU      4.34s WALL (      50 calls)
     davcio       :      0.02s CPU      0.20s WALL (      12 calls)

     Parallel routines
     fft_scatter  :   1420.40s CPU   1755.35s WALL (  724934 calls)

     PWSCF        :     2h13m CPU        2h23m WALL


   This run was terminated on:  11:36:55  27Jun2015            

=------------------------------------------------------------------------------=
   JOB DONE.
=------------------------------------------------------------------------------=
