Setting SGE environment for SCC

     Program PWSCF v.5.1.2 starts on 23Jun2015 at 16:53:28 

     This program is part of the open-source Quantum ESPRESSO suite
     for quantum simulation of materials; please cite
         "P. Giannozzi et al., J. Phys.:Condens. Matter 21 395502 (2009);
          URL http://www.quantum-espresso.org", 
     in publications or presentations arising from this work. More details at
     http://www.quantum-espresso.org/quote

     Parallel version (MPI), running on    32 processors
     R & G space division:  proc/nbgrp/npool/nimage =      32
     Reading input from top.O1.Au50.d.3.4.phi.0.psi.0.in
Warning: card &IONS ignored
Warning: card / ignored
Warning: card &CELL ignored
Warning: card / ignored

     Current dimensions of program PWSCF are:
     Max number of different atomic species (ntypx) = 10
     Max number of k-points (npk) =  40000
     Max angular momentum in pseudopotentials (lmaxx) =  3

     IMPORTANT: XC functional enforced from input :
     Exchange-correlation      = VDW-DF ( 1  4  4  0 1 0)
     Any further DFT definition will be discarded
     Please, verify this is what you really want


     Subspace diagonalization in iterative solution of the eigenvalue problem:
     a serial algorithm will be used


     Parallelization info
     --------------------
     sticks:   dense  smooth     PW     G-vecs:    dense   smooth      PW
     Min         445     223     58                96775    34191    4534
     Max         446     224     59                96790    34246    4540
     Sum       14269    7147   1867              3097177  1095093  145167


     Title: 
     top.O1.Au50.d.3.4.phi.0.psi.0                                              


     bravais-lattice index     =            4
     lattice parameter (alat)  =      22.7436  a.u.
     unit-cell volume          =   22924.1508 (a.u.)^3
     number of atoms/cell      =           67
     number of atomic types    =            3
     number of electrons       =       712.00
     number of Kohn-Sham states=          427
     kinetic-energy cutoff     =      50.0000  Ry
     charge density cutoff     =     400.0000  Ry
     convergence threshold     =      1.0E-08
     mixing beta               =       0.7000
     number of iterations used =            8  plain     mixing
     Exchange-correlation      = VDW-DF ( 1  4  4  0 1 0)

     celldm(1)=  22.743643  celldm(2)=   0.000000  celldm(3)=   2.250000
     celldm(4)=   0.000000  celldm(5)=   0.000000  celldm(6)=   0.000000

     crystal axes: (cart. coord. in units of alat)
               a(1) = (   1.000000   0.000000   0.000000 )  
               a(2) = (  -0.500000   0.866025   0.000000 )  
               a(3) = (   0.000000   0.000000   2.250000 )  

     reciprocal axes: (cart. coord. in units 2 pi/alat)
               b(1) = (  1.000000  0.577350 -0.000000 )  
               b(2) = (  0.000000  1.154701  0.000000 )  
               b(3) = (  0.000000 -0.000000  0.444444 )  


     PseudoPot. # 1 for Au read from file:
     /home/scc/andrejb/qe/pseudo/Au.pbe-nd-van.UPF
     MD5 check sum: 458681b50f36d87ef23c61b04bba420a
     Pseudo is Ultrasoft + core correction, Zval = 11.0
     Generated by new atomic code, or converted to UPF format
     Using radial grid of  985 points,  3 beta functions with: 
                l(1) =   1
                l(2) =   2
                l(3) =   2
     Q(r) pseudized with  8 coefficients,  rinner =    1.100   1.100   1.100
                                                       1.100   1.100

     PseudoPot. # 2 for H  read from file:
     /home/scc/andrejb/qe/pseudo/H.pbe-van_ak.UPF
     MD5 check sum: 403db7282739603aa925980fa9b8608d
     Pseudo is Ultrasoft, Zval =  1.0
     Generated by new atomic code, or converted to UPF format
     Using radial grid of  615 points,  1 beta functions with: 
                l(1) =   0
     Q(r) pseudized with  8 coefficients,  rinner =    0.800

     PseudoPot. # 3 for O  read from file:
     /home/scc/andrejb/qe/pseudo/O.pbe-van_ak.UPF
     MD5 check sum: 4b8c549914a63cae506c6ff22b5af4fe
     Pseudo is Ultrasoft, Zval =  6.0
     Generated by new atomic code, or converted to UPF format
     Using radial grid of  737 points,  4 beta functions with: 
                l(1) =   0
                l(2) =   0
                l(3) =   1
                l(4) =   1
     Q(r) pseudized with  8 coefficients,  rinner =    0.800   0.800   0.800


     vdW kernel table read from file vdW_kernel_table
     MD5 check sum: 48e77a2e26edf626eeb0eaa751ad5cac

     atomic species   valence    mass     pseudopotential
        Au            11.00   196.96657     Au( 1.00)
        H              1.00     1.01000     H ( 1.00)
        O              6.00    16.00000     O ( 1.00)

     No symmetry found



   Cartesian axes

     site n.     atom                  positions (alat units)
         1           O   tau(   1) = (   0.4790780   0.3968269   0.8954964  )
         2           H   tau(   2) = (   0.4291446   0.3552792   0.9437499  )
         3           H   tau(   3) = (   0.5274974   0.4371337   0.9462571  )
         4           Au  tau(   4) = (   0.3540481   0.6132292   0.0000000  )
         5           Au  tau(   5) = (   0.4790062   0.3967954   0.0000000  )
         6           Au  tau(   6) = (   0.6039644   0.1803616   0.0000000  )
         7           Au  tau(   7) = (   0.7289225  -0.0360723   0.0000000  )
         8           Au  tau(   8) = (   0.1041318   0.6132292   0.0000000  )
         9           Au  tau(   9) = (   0.2290899   0.3967954   0.0000000  )
        10           Au  tau(  10) = (   0.3540481   0.1803616   0.0000000  )
        11           Au  tau(  11) = (   0.4790062  -0.0360723   0.0000000  )
        12           Au  tau(  12) = (  -0.1457845   0.6132292   0.0000000  )
        13           Au  tau(  13) = (  -0.0208264   0.3967954   0.0000000  )
        14           Au  tau(  14) = (   0.1041318   0.1803616   0.0000000  )
        15           Au  tau(  15) = (   0.2290899  -0.0360723   0.0000000  )
        16           Au  tau(  16) = (  -0.3957008   0.6132292   0.0000000  )
        17           Au  tau(  17) = (  -0.2707426   0.3967954   0.0000000  )
        18           Au  tau(  18) = (  -0.1457845   0.1803616   0.0000000  )
        19           Au  tau(  19) = (  -0.0208264  -0.0360723   0.0000000  )
        20           Au  tau(  20) = (   0.4790062   0.6853738   0.2040557  )
        21           Au  tau(  21) = (   0.6039644   0.4689400   0.2040557  )
        22           Au  tau(  22) = (   0.7289225   0.2525062   0.2040557  )
        23           Au  tau(  23) = (   0.8538806   0.0360723   0.2040557  )
        24           Au  tau(  24) = (   0.2290899   0.6853738   0.2040557  )
        25           Au  tau(  25) = (   0.3540481   0.4689400   0.2040557  )
        26           Au  tau(  26) = (   0.4790062   0.2525062   0.2040557  )
        27           Au  tau(  27) = (   0.6039644   0.0360723   0.2040557  )
        28           Au  tau(  28) = (  -0.0208264   0.6853738   0.2040557  )
        29           Au  tau(  29) = (   0.1041318   0.4689400   0.2040557  )
        30           Au  tau(  30) = (   0.2290899   0.2525062   0.2040557  )
        31           Au  tau(  31) = (   0.3540481   0.0360723   0.2040557  )
        32           Au  tau(  32) = (  -0.2707426   0.6853738   0.2040557  )
        33           Au  tau(  33) = (  -0.1457845   0.4689400   0.2040557  )
        34           Au  tau(  34) = (  -0.0208264   0.2525062   0.2040557  )
        35           Au  tau(  35) = (   0.1041318   0.0360723   0.2040557  )
        36           Au  tau(  36) = (   0.3541162   0.7576593   0.4066483  )
        37           Au  tau(  37) = (   0.4791000   0.5411421   0.4066696  )
        38           Au  tau(  38) = (   0.6040570   0.3246862   0.4066618  )
        39           Au  tau(  39) = (   0.7290270   0.1081684   0.4066530  )
        40           Au  tau(  40) = (   0.1041162   0.7576236   0.4066247  )
        41           Au  tau(  41) = (   0.2291001   0.5411062   0.4066455  )
        42           Au  tau(  42) = (   0.3540567   0.3246505   0.4066380  )
        43           Au  tau(  43) = (   0.4790276   0.1081324   0.4066292  )
        44           Au  tau(  44) = (  -0.1458201   0.7576104   0.4066225  )
        45           Au  tau(  45) = (  -0.0208365   0.5410930   0.4066438  )
        46           Au  tau(  46) = (   0.1041202   0.3246372   0.4066359  )
        47           Au  tau(  47) = (   0.2290908   0.1081193   0.4066273  )
        48           Au  tau(  48) = (  -0.3958167   0.7575791   0.4065812  )
        49           Au  tau(  49) = (  -0.2708328   0.5410617   0.4066025  )
        50           Au  tau(  50) = (  -0.1458763   0.3246061   0.4065947  )
        51           Au  tau(  51) = (  -0.0209056   0.1080882   0.4065858  )
        52           Au  tau(  52) = (   0.3541084   0.6133344   0.6129762  )
        53           Au  tau(  53) = (   0.4790780   0.3968269   0.6129968  )
        54           Au  tau(  54) = (   0.6040356   0.1803811   0.6129859  )
        55           Au  tau(  55) = (   0.7290165  -0.0361221   0.6129385  )
        56           Au  tau(  56) = (   0.1041243   0.6133091   0.6130023  )
        57           Au  tau(  57) = (   0.2290941   0.3968013   0.6130241  )
        58           Au  tau(  58) = (   0.3540515   0.1803552   0.6130121  )
        59           Au  tau(  59) = (   0.4790323  -0.0361475   0.6129659  )
        60           Au  tau(  60) = (  -0.1458030   0.6133014   0.6129980  )
        61           Au  tau(  61) = (  -0.0208339   0.3967936   0.6130189  )
        62           Au  tau(  62) = (   0.1041239   0.1803477   0.6130083  )
        63           Au  tau(  63) = (   0.2291046  -0.0361554   0.6129607  )
        64           Au  tau(  64) = (  -0.3957908   0.6132739   0.6129471  )
        65           Au  tau(  65) = (  -0.2708208   0.3967658   0.6129688  )
        66           Au  tau(  66) = (  -0.1458636   0.1803200   0.6129569  )
        67           Au  tau(  67) = (  -0.0208823  -0.0361826   0.6129110  )

     number of k points=    12  Marzari-Vanderbilt smearing, width (Ry)=  0.0200
                       cart. coord. in units 2pi/alat
        k(    1) = (   0.2500000   0.4330127   0.1111111), wk =   0.1666667
        k(    2) = (   0.2500000  -0.1443376   0.1111111), wk =   0.1666667
        k(    3) = (  -0.2500000  -0.4330127   0.1111111), wk =   0.1666667
        k(    4) = (  -0.2500000   0.4330127  -0.1111111), wk =   0.1666667
        k(    5) = (   0.2500000  -0.4330127  -0.1111111), wk =   0.1666667
        k(    6) = (   0.5000000   0.0000000   0.1111111), wk =   0.1666667
        k(    7) = (  -0.5000000   0.0000000   0.1111111), wk =   0.1666667
        k(    8) = (  -0.2500000   0.1443376   0.1111111), wk =   0.1666667
        k(    9) = (  -0.2500000  -0.1443376  -0.1111111), wk =   0.1666667
        k(   10) = (   0.2500000   0.1443376  -0.1111111), wk =   0.1666667
        k(   11) = (   0.0000000  -0.2886751   0.1111111), wk =   0.1666667
        k(   12) = (   0.0000000   0.2886751   0.1111111), wk =   0.1666667

     Dense  grid:  3097177 G-vectors     FFT dimensions: ( 150, 150, 360)

     Smooth grid:  1095093 G-vectors     FFT dimensions: ( 108, 108, 240)

     Largest allocated arrays     est. size (Mb)     dimensions
        Kohn-Sham Wavefunctions        28.01 Mb     (    4299,  427)
        NL pseudopotentials            55.23 Mb     (    4299,  842)
        Each V/rho on FFT grid          4.12 Mb     (  270000)
        Each G-vector array             0.74 Mb     (   96788)
        G-vector shells                 0.16 Mb     (   21404)
     Largest temporary arrays     est. size (Mb)     dimensions
        Auxiliary wavefunctions       112.04 Mb     (    4299, 1708)
        Each subspace H/S matrix       44.51 Mb     (    1708, 1708)
        Each <psi_i|beta_j> matrix      5.49 Mb     (     842,  427)
        Arrays for rho mixing          32.96 Mb     (  270000,    8)

     Initial potential from superposition of free atoms
     Check: negative starting charge=   -1.730113

     starting charge  711.25682, renormalised to  712.00000

     negative rho (up, down):  1.732E+00 0.000E+00


     ************************************************************************
     *
     * You are using vdW-DF for exchange-correlation in this calculation.
     * Please cite the following three references that made this development
     * possible:
     *
     *   M. Dion, H. Rydberg, E. Schroder, D. C. Langreth, and
     *   B. I. Lundqvist, Phys. Rev. Lett. 92, 246401 (2004).
     *
     *   T. Thonhauser, V. R. Cooper, S. Li, A. Puzder, P. Hyldgaard, and
     *   D. C. Langreth, Phys. Rev. B 76, 125112 (2007).
     *
     *   G. Roman-Perez and J. M. Soler, Phys. Rev. Lett. 103, 096102 (2009).
     *
     *
     * If you are using vdW-DF2, please also cite:
     *
     *   K. Lee, E. D. Murray, L. Kong, B. I. Lundqvist, and
     *   D. C. Langreth, Phys. Rev. B 82, 081101(R) (2010).
     *
     *
     * If you are calculating the stress with vdW-DF, please also cite:
     *
     *   R. Sabatini, E. Kucukbenli, B. Kolb, T. Thonhauser, and
     *   S. de Gironcoli, J. Phys.: Condens. Matter 24, 424209 (2012).
     *
     ************************************************************************

     Carrying out vdW-DF run using the following parameters:

     Nqs =      20    Nr_points =    1024   r_max =   100.000
     q_mesh =
               0.00001000     0.04494208     0.09755937     0.15916263
               0.23128650     0.31572767     0.41458969     0.53033537
               0.66584808     0.82450364     1.01025438     1.22772762
               1.48234092     1.78043706     2.12944203     2.53805004
               3.01644009     3.57652955     4.23227104     5.00000000

     Gradients computed in reciprocal space

     ************************************************************************


     Starting wfc are  582 randomized atomic wfcs

     total cpu time spent up to now is      169.8 secs

     Self-consistent Calculation

     iteration #  1     ecut=    50.00 Ry     beta=0.70
     Davidson diagonalization with overlap
     ethr =  1.00E-02,  avg # of iterations =  3.0

     Threshold (ethr) on eigenvalues was too large:
     Diagonalizing with lowered threshold

     Davidson diagonalization with overlap
     ethr =  3.55E-04,  avg # of iterations =  5.5

     negative rho (up, down):  1.728E+00 0.000E+00

     total cpu time spent up to now is      851.2 secs

     total energy              =   -6602.76616819 Ry
     Harris-Foulkes estimate   =   -6605.05452707 Ry
     estimated scf accuracy    <       2.86233177 Ry

     iteration #  2     ecut=    50.00 Ry     beta=0.70
     Davidson diagonalization with overlap
     ethr =  4.02E-04,  avg # of iterations = 11.4

     negative rho (up, down):  1.725E+00 0.000E+00

     total cpu time spent up to now is     1976.1 secs

     total energy              =   -6596.27005792 Ry
     Harris-Foulkes estimate   =   -6610.24383096 Ry
     estimated scf accuracy    <      79.15779630 Ry

     iteration #  3     ecut=    50.00 Ry     beta=0.70
     Davidson diagonalization with overlap
     ethr =  4.02E-04,  avg # of iterations =  6.0

     negative rho (up, down):  1.735E+00 0.000E+00

     total cpu time spent up to now is     2730.5 secs

     total energy              =   -6603.11619760 Ry
     Harris-Foulkes estimate   =   -6605.01357052 Ry
     estimated scf accuracy    <       8.82193967 Ry

     iteration #  4     ecut=    50.00 Ry     beta=0.70
     Davidson diagonalization with overlap
     ethr =  4.02E-04,  avg # of iterations =  6.3

     negative rho (up, down):  1.737E+00 0.000E+00

     total cpu time spent up to now is     3188.3 secs

     total energy              =   -6603.61703747 Ry
     Harris-Foulkes estimate   =   -6605.06209310 Ry
     estimated scf accuracy    <      12.43861673 Ry

     iteration #  5     ecut=    50.00 Ry     beta=0.70
     Davidson diagonalization with overlap
     ethr =  4.02E-04,  avg # of iterations =  6.0

     negative rho (up, down):  1.746E+00 0.000E+00

     total cpu time spent up to now is     3581.3 secs

     total energy              =   -6604.28815409 Ry
     Harris-Foulkes estimate   =   -6604.66164516 Ry
     estimated scf accuracy    <       2.97340240 Ry

     iteration #  6     ecut=    50.00 Ry     beta=0.70
     Davidson diagonalization with overlap
     ethr =  4.02E-04,  avg # of iterations =  2.3

     negative rho (up, down):  1.751E+00 0.000E+00

     total cpu time spent up to now is     3907.6 secs

     total energy              =   -6604.42374542 Ry
     Harris-Foulkes estimate   =   -6604.47167005 Ry
     estimated scf accuracy    <       0.14439538 Ry

     iteration #  7     ecut=    50.00 Ry     beta=0.70
     Davidson diagonalization with overlap
     ethr =  2.03E-05,  avg # of iterations = 11.8

     negative rho (up, down):  1.753E+00 0.000E+00

     total cpu time spent up to now is     4502.4 secs

     total energy              =   -6604.43108723 Ry
     Harris-Foulkes estimate   =   -6604.45997129 Ry
     estimated scf accuracy    <       0.12184106 Ry

     iteration #  8     ecut=    50.00 Ry     beta=0.70
     Davidson diagonalization with overlap
     ethr =  1.71E-05,  avg # of iterations =  3.3

     negative rho (up, down):  1.755E+00 0.000E+00

     total cpu time spent up to now is     4873.8 secs

     total energy              =   -6604.43500415 Ry
     Harris-Foulkes estimate   =   -6604.44843696 Ry
     estimated scf accuracy    <       0.04899956 Ry

     iteration #  9     ecut=    50.00 Ry     beta=0.70
     Davidson diagonalization with overlap
     ethr =  6.88E-06,  avg # of iterations = 10.3

     negative rho (up, down):  1.755E+00 0.000E+00

     total cpu time spent up to now is     5386.2 secs

     total energy              =   -6604.43532185 Ry
     Harris-Foulkes estimate   =   -6604.44190099 Ry
     estimated scf accuracy    <       0.02200901 Ry

     iteration # 10     ecut=    50.00 Ry     beta=0.70
     Davidson diagonalization with overlap
     ethr =  3.09E-06,  avg # of iterations = 10.7

     negative rho (up, down):  1.757E+00 0.000E+00

     total cpu time spent up to now is     5881.6 secs

     total energy              =   -6604.43561664 Ry
     Harris-Foulkes estimate   =   -6604.43810794 Ry
     estimated scf accuracy    <       0.00896378 Ry

     iteration # 11     ecut=    50.00 Ry     beta=0.70
     Davidson diagonalization with overlap
     ethr =  1.26E-06,  avg # of iterations = 10.8

     negative rho (up, down):  1.757E+00 0.000E+00

     total cpu time spent up to now is     6398.0 secs

     total energy              =   -6604.43555630 Ry
     Harris-Foulkes estimate   =   -6604.43672639 Ry
     estimated scf accuracy    <       0.00507739 Ry

     iteration # 12     ecut=    50.00 Ry     beta=0.70
     Davidson diagonalization with overlap
     ethr =  7.13E-07,  avg # of iterations =  3.9

     negative rho (up, down):  1.758E+00 0.000E+00

     total cpu time spent up to now is     6773.8 secs

     total energy              =   -6604.43496415 Ry
     Harris-Foulkes estimate   =   -6604.43597687 Ry
     estimated scf accuracy    <       0.00160348 Ry

     iteration # 13     ecut=    50.00 Ry     beta=0.70
     Davidson diagonalization with overlap
     ethr =  2.25E-07,  avg # of iterations = 12.7

     negative rho (up, down):  1.758E+00 0.000E+00

     total cpu time spent up to now is     7340.7 secs

     total energy              =   -6604.43521637 Ry
     Harris-Foulkes estimate   =   -6604.43537005 Ry
     estimated scf accuracy    <       0.00038254 Ry

     iteration # 14     ecut=    50.00 Ry     beta=0.70
     Davidson diagonalization with overlap
     ethr =  5.37E-08,  avg # of iterations =  3.0

     negative rho (up, down):  1.758E+00 0.000E+00

     total cpu time spent up to now is     7726.1 secs

     total energy              =   -6604.43527848 Ry
     Harris-Foulkes estimate   =   -6604.43533281 Ry
     estimated scf accuracy    <       0.00017304 Ry

     iteration # 15     ecut=    50.00 Ry     beta=0.70
     Davidson diagonalization with overlap
     ethr =  2.43E-08,  avg # of iterations =  2.0

     negative rho (up, down):  1.758E+00 0.000E+00

     total cpu time spent up to now is     8104.8 secs

     total energy              =   -6604.43528862 Ry
     Harris-Foulkes estimate   =   -6604.43533010 Ry
     estimated scf accuracy    <       0.00017217 Ry

     iteration # 16     ecut=    50.00 Ry     beta=0.70
     Davidson diagonalization with overlap
     ethr =  2.42E-08,  avg # of iterations =  2.0

     negative rho (up, down):  1.758E+00 0.000E+00

     total cpu time spent up to now is     8400.3 secs

     total energy              =   -6604.43529701 Ry
     Harris-Foulkes estimate   =   -6604.43532091 Ry
     estimated scf accuracy    <       0.00017351 Ry

     iteration # 17     ecut=    50.00 Ry     beta=0.70
     Davidson diagonalization with overlap
     ethr =  2.42E-08,  avg # of iterations =  1.0

     negative rho (up, down):  1.757E+00 0.000E+00

     total cpu time spent up to now is     8701.7 secs

     total energy              =   -6604.43530667 Ry
     Harris-Foulkes estimate   =   -6604.43531726 Ry
     estimated scf accuracy    <       0.00008703 Ry

     iteration # 18     ecut=    50.00 Ry     beta=0.70
     Davidson diagonalization with overlap
     ethr =  1.22E-08,  avg # of iterations =  1.0

     negative rho (up, down):  1.757E+00 0.000E+00

     total cpu time spent up to now is     8982.3 secs

     total energy              =   -6604.43531124 Ry
     Harris-Foulkes estimate   =   -6604.43531372 Ry
     estimated scf accuracy    <       0.00001118 Ry

     iteration # 19     ecut=    50.00 Ry     beta=0.70
     Davidson diagonalization with overlap
     ethr =  1.57E-09,  avg # of iterations =  2.0

     negative rho (up, down):  1.757E+00 0.000E+00

     total cpu time spent up to now is     9323.6 secs

     total energy              =   -6604.43531262 Ry
     Harris-Foulkes estimate   =   -6604.43531300 Ry
     estimated scf accuracy    <       0.00000167 Ry

     iteration # 20     ecut=    50.00 Ry     beta=0.70
     Davidson diagonalization with overlap
     ethr =  2.34E-10,  avg # of iterations =  2.0

     negative rho (up, down):  1.757E+00 0.000E+00

     total cpu time spent up to now is     9672.2 secs

     total energy              =   -6604.43531302 Ry
     Harris-Foulkes estimate   =   -6604.43531313 Ry
     estimated scf accuracy    <       0.00000125 Ry

     iteration # 21     ecut=    50.00 Ry     beta=0.70
     Davidson diagonalization with overlap
     ethr =  1.75E-10,  avg # of iterations =  2.0

     negative rho (up, down):  1.757E+00 0.000E+00

     total cpu time spent up to now is     9991.8 secs

     total energy              =   -6604.43531324 Ry
     Harris-Foulkes estimate   =   -6604.43531320 Ry
     estimated scf accuracy    <       0.00000017 Ry

     iteration # 22     ecut=    50.00 Ry     beta=0.70
     Davidson diagonalization with overlap
     ethr =  2.43E-11,  avg # of iterations =  2.2

     negative rho (up, down):  1.757E+00 0.000E+00

     total cpu time spent up to now is    10340.7 secs

     total energy              =   -6604.43531326 Ry
     Harris-Foulkes estimate   =   -6604.43531327 Ry
     estimated scf accuracy    <       0.00000002 Ry

     iteration # 23     ecut=    50.00 Ry     beta=0.70
     Davidson diagonalization with overlap
     ethr =  3.33E-12,  avg # of iterations =  3.0

     negative rho (up, down):  1.757E+00 0.000E+00

     total cpu time spent up to now is    10844.3 secs

     total energy              =   -6604.43531328 Ry
     Harris-Foulkes estimate   =   -6604.43531327 Ry
     estimated scf accuracy    <       0.00000004 Ry

     iteration # 24     ecut=    50.00 Ry     beta=0.70
     Davidson diagonalization with overlap
     ethr =  3.33E-12,  avg # of iterations =  3.0

     negative rho (up, down):  1.757E+00 0.000E+00

     total cpu time spent up to now is    11249.7 secs

     total energy              =   -6604.43531329 Ry
     Harris-Foulkes estimate   =   -6604.43531328 Ry
     estimated scf accuracy    <       0.00000001 Ry

     iteration # 25     ecut=    50.00 Ry     beta=0.70
     Davidson diagonalization with overlap
     ethr =  1.70E-12,  avg # of iterations =  2.0

     negative rho (up, down):  1.757E+00 0.000E+00

     total cpu time spent up to now is    11539.8 secs

     End of self-consistent calculation

          k = 0.2500 0.4330 0.1111 (136853 PWs)   bands (ev):

   -18.9916  -6.8007  -6.2158  -5.8165  -5.8164  -5.1387  -4.8051  -4.8049
    -4.7661  -4.7656  -4.4048  -4.4046  -4.3060  -4.3060  -4.2920  -4.2708
    -4.2442  -4.1386  -4.1382  -4.1142  -4.0707  -4.0707  -4.0018  -4.0017
    -3.9952  -3.9950  -3.9736  -3.9680  -3.9677  -3.8954  -3.8951  -3.8654
    -3.8652  -3.8532  -3.8530  -3.8298  -3.8298  -3.8073  -3.7989  -3.7987
    -3.7723  -3.7199  -3.7198  -3.6720  -3.6717  -3.6127  -3.6125  -3.5581
    -3.5579  -3.5577  -3.5573  -3.5219  -3.4828  -3.4822  -3.4763  -3.4750
    -3.4750  -3.4447  -3.4441  -3.4358  -3.3740  -3.3733  -3.3643  -3.3482
    -3.3408  -3.2706  -3.2680  -3.2355  -3.2341  -3.2072  -3.2064  -3.1932
    -3.1787  -3.1270  -3.1161  -3.1059  -3.0987  -3.0910  -3.0463  -3.0415
    -3.0403  -3.0037  -2.9720  -2.9711  -2.9632  -2.9615  -2.9496  -2.9488
    -2.9417  -2.9413  -2.9315  -2.8909  -2.8535  -2.8526  -2.8387  -2.8382
    -2.8128  -2.8027  -2.8025  -2.7800  -2.7366  -2.7354  -2.7271  -2.6879
    -2.6813  -2.6700  -2.6693  -2.6405  -2.6401  -2.6109  -2.5735  -2.5733
    -2.5510  -2.5439  -2.5301  -2.5294  -2.4791  -2.4789  -2.4464  -2.4235
    -2.4235  -2.3993  -2.3990  -2.3879  -2.3877  -2.3770  -2.3543  -2.3542
    -2.3098  -2.3093  -2.3082  -2.2913  -2.2910  -2.2860  -2.2764  -2.2759
    -2.2735  -2.2733  -2.2676  -2.2550  -2.2545  -2.2442  -2.2185  -2.2184
    -2.2169  -2.2160  -2.2149  -2.2129  -2.2119  -2.1845  -2.1815  -2.1673
    -2.1671  -2.1495  -2.1491  -2.1393  -2.1391  -2.1378  -2.1371  -2.1181
    -2.1165  -2.1158  -2.1148  -2.0978  -2.0719  -2.0715  -2.0319  -2.0315
    -2.0060  -2.0058  -1.9788  -1.9783  -1.9508  -1.9507  -1.9339  -1.9291
    -1.9023  -1.8798  -1.8795  -1.8746  -1.8733  -1.8697  -1.8627  -1.8607
    -1.8362  -1.8297  -1.8192  -1.7637  -1.7596  -1.7581  -1.7558  -1.7549
    -1.7180  -1.7000  -1.6997  -1.6719  -1.6711  -1.6111  -1.6107  -1.5819
    -1.5642  -1.5624  -1.5026  -1.5023  -1.4909  -1.4898  -1.4797  -1.4788
    -1.4758  -1.4664  -1.4656  -1.4116  -1.4093  -1.3983  -1.3980  -1.3965
    -1.3787  -1.3783  -1.3428  -1.3421  -1.3251  -1.3250  -1.3247  -1.3180
    -1.3127  -1.3040  -1.3027  -1.2842  -1.2837  -1.2440  -1.2403  -1.2303
    -1.2299  -1.2094  -1.1963  -1.1536  -1.1523  -1.1264  -1.1222  -1.1214
    -1.0924  -1.0458  -1.0404  -1.0393  -1.0384  -1.0347  -1.0319  -1.0242
    -1.0092  -1.0040  -0.9948  -0.9640  -0.9630  -0.9332  -0.9326  -0.9277
    -0.9262  -0.9197  -0.9036  -0.9031  -0.9021  -0.8994  -0.8975  -0.8624
    -0.8597  -0.8589  -0.8581  -0.8277  -0.8269  -0.8233  -0.8000  -0.7922
    -0.7910  -0.7453  -0.7388  -0.7367  -0.7032  -0.6949  -0.6842  -0.6841
    -0.6760  -0.6759  -0.6748  -0.6724  -0.6627  -0.6612  -0.6362  -0.6359
    -0.6331  -0.6312  -0.6300  -0.5938  -0.5934  -0.5825  -0.5817  -0.5669
    -0.5601  -0.5579  -0.5475  -0.4922  -0.4898  -0.4810  -0.4808  -0.4795
    -0.4789  -0.4737  -0.4551  -0.4531  -0.4457  -0.4454  -0.4436  -0.4422
    -0.4040  -0.4018  -0.4010  -0.3934  -0.3923  -0.3875  -0.3856  -0.3753
    -0.3698  -0.3665  -0.3648  -0.3240  -0.3236  -0.3153  -0.3119  -0.3112
    -0.2345  -0.2336  -0.2315  -0.2309  -0.2220  -0.2214  -0.1853  -0.1726
    -0.1722  -0.1460  -0.1407  -0.1380  -0.0198  -0.0174   0.0835   0.4988
     0.4992   0.5020   0.5021   0.5617   0.5665   0.9519   0.9524   0.9947
     0.9953   1.1033   1.1839   1.2919   1.2990   1.5112   1.5245   2.1484
     2.1507   2.3100   2.3136   2.4408   2.4475   2.5477   2.5478   2.7019
     2.9393   2.9413   3.0627   3.2843   3.2923   3.3712   3.3721   3.4715
     3.4870   3.6732   3.6842   3.7434   3.9439   3.9445   4.0052   4.0093
     4.2638   4.2691   4.2755   4.5144   4.5558   4.5577   4.6023   4.9367
     4.9398   4.9677   5.0796   5.1032   5.2748   5.2753   5.3258   5.3578
     5.7170   5.9437   6.0485   6.0620   6.0668   6.0761   6.1370   6.1379
     6.2017   6.2466   6.2717   6.2952   6.2994   6.3084   6.3120   6.3445
     6.3597   6.3700   6.5006   6.5839   6.7207   6.7847   6.9014   6.9774
     7.0037   7.0066   7.0186

          k = 0.2500-0.1443 0.1111 (136898 PWs)   bands (ev):

   -18.9916  -6.8007  -6.4258  -5.6337  -5.3426  -5.2835  -5.2832  -4.7451
    -4.7448  -4.6132  -4.6129  -4.4585  -4.4267  -4.3653  -4.3319  -4.3315
    -4.2983  -4.2983  -4.1697  -4.1279  -4.1278  -4.0680  -4.0469  -4.0467
    -3.9445  -3.9444  -3.9083  -3.9080  -3.9079  -3.8812  -3.8595  -3.8594
    -3.7545  -3.7523  -3.7522  -3.7316  -3.7147  -3.7146  -3.7024  -3.7023
    -3.6892  -3.6589  -3.6588  -3.6585  -3.6583  -3.6260  -3.6258  -3.6081
    -3.6080  -3.5935  -3.5502  -3.5495  -3.5203  -3.5051  -3.5047  -3.4997
    -3.4997  -3.4251  -3.4251  -3.3899  -3.3888  -3.3874  -3.3196  -3.3195
    -3.3050  -3.3042  -3.2736  -3.2727  -3.2722  -3.2717  -3.1294  -3.1187
    -3.1090  -3.0926  -3.0909  -3.0863  -3.0715  -3.0671  -3.0454  -3.0433
    -2.9956  -2.9942  -2.9793  -2.9784  -2.9582  -2.9101  -2.9099  -2.8902
    -2.8857  -2.8847  -2.8446  -2.8440  -2.8381  -2.8367  -2.8216  -2.8198
    -2.7818  -2.7814  -2.7599  -2.7597  -2.7566  -2.7557  -2.7530  -2.6763
    -2.6758  -2.6742  -2.6460  -2.6448  -2.5840  -2.5838  -2.5554  -2.5544
    -2.5413  -2.5407  -2.5355  -2.5061  -2.5060  -2.4963  -2.4787  -2.4532
    -2.4529  -2.4526  -2.4321  -2.4318  -2.4208  -2.4200  -2.4176  -2.4164
    -2.4090  -2.3628  -2.3305  -2.3302  -2.3146  -2.3007  -2.2943  -2.2941
    -2.2870  -2.2861  -2.2850  -2.2553  -2.2550  -2.2544  -2.2451  -2.2447
    -2.2278  -2.2005  -2.1998  -2.1994  -2.1986  -2.1972  -2.1531  -2.1216
    -2.1215  -2.1207  -2.1146  -2.1056  -2.0927  -2.0925  -2.0757  -2.0757
    -2.0418  -2.0409  -2.0405  -2.0222  -2.0207  -2.0204  -1.9877  -1.9870
    -1.9461  -1.9453  -1.9384  -1.9364  -1.9359  -1.9298  -1.9292  -1.9271
    -1.9264  -1.9205  -1.9191  -1.9032  -1.9024  -1.7761  -1.7753  -1.7433
    -1.7379  -1.7364  -1.7316  -1.7312  -1.7138  -1.7132  -1.7109  -1.7107
    -1.7084  -1.6859  -1.6782  -1.6775  -1.6722  -1.6658  -1.6640  -1.6426
    -1.6422  -1.6138  -1.6138  -1.5818  -1.5817  -1.5712  -1.5632  -1.5455
    -1.5444  -1.5421  -1.5238  -1.5113  -1.5110  -1.5039  -1.5036  -1.4770
    -1.4770  -1.4602  -1.4600  -1.4283  -1.4262  -1.4182  -1.3669  -1.3667
    -1.3547  -1.3541  -1.3516  -1.3283  -1.3257  -1.2923  -1.2917  -1.2910
    -1.2585  -1.2482  -1.2467  -1.2318  -1.2314  -1.2063  -1.2039  -1.2029
    -1.1736  -1.1713  -1.1706  -1.1085  -1.1077  -1.0955  -1.0938  -1.0787
    -1.0782  -1.0671  -1.0658  -1.0475  -1.0347  -1.0166  -1.0069  -1.0050
    -0.9929  -0.9619  -0.9571  -0.9547  -0.9452  -0.9448  -0.9428  -0.9379
    -0.9330  -0.9241  -0.8934  -0.8927  -0.8833  -0.8816  -0.8805  -0.8747
    -0.8564  -0.8388  -0.8346  -0.8176  -0.8139  -0.7235  -0.7107  -0.7050
    -0.7047  -0.7006  -0.6957  -0.6941  -0.6724  -0.6693  -0.6550  -0.6527
    -0.6395  -0.6382  -0.6301  -0.6107  -0.6078  -0.6075  -0.5995  -0.5277
    -0.5273  -0.4945  -0.4916  -0.4892  -0.4829  -0.4812  -0.4806  -0.4796
    -0.4681  -0.4658  -0.4506  -0.4263  -0.4116  -0.3922  -0.3910  -0.3809
    -0.3794  -0.3681  -0.3668  -0.3664  -0.3648  -0.3637  -0.3472  -0.3432
    -0.3418  -0.3121  -0.3109  -0.3096  -0.2983  -0.2979  -0.2789  -0.2470
    -0.2462  -0.2376  -0.2367  -0.1694  -0.1687  -0.1320  -0.1318  -0.0745
    -0.0723  -0.0718  -0.0602  -0.0432   0.1768   0.1855   0.5272   0.5273
     0.6155   0.6235   0.8110   0.8303   0.8450   0.9750   0.9769   1.4075
     1.4075   1.4258   1.6840   1.7174   1.7175   1.9894   2.0011   2.0734
     2.0742   2.0985   2.1060   2.3302   2.3303   2.4184   2.4190   2.4876
     2.5528   2.5662   2.7225   2.8205   3.2597   3.2613   3.2629   3.2676
     3.3190   3.3195   3.6116   3.6119   3.8896   3.8973   3.9908   4.3075
     4.3481   4.3534   4.5536   4.5689   4.6503   4.6532   4.7422   4.8591
     4.8633   4.9768   4.9792   5.0553   5.2820   5.3485   5.3544   5.4963
     5.5246   5.7376   5.7391   5.7482   5.7652   5.7663   5.8271   5.8295
     5.8779   6.0394   6.2391   6.2616   6.4336   6.4457   6.5685   6.5716
     6.5753   6.5825   6.5972   6.7458   6.8151   6.8240   6.8292   6.9788
     7.0156   7.0372   7.0604

          k =-0.2500-0.4330 0.1111 (136853 PWs)   bands (ev):

   -18.9916  -6.8007  -6.2158  -5.8165  -5.8164  -5.1387  -4.8051  -4.8049
    -4.7661  -4.7656  -4.4048  -4.4046  -4.3060  -4.3060  -4.2920  -4.2708
    -4.2442  -4.1386  -4.1382  -4.1142  -4.0707  -4.0707  -4.0018  -4.0017
    -3.9952  -3.9950  -3.9736  -3.9680  -3.9677  -3.8954  -3.8951  -3.8654
    -3.8652  -3.8532  -3.8530  -3.8298  -3.8298  -3.8073  -3.7989  -3.7987
    -3.7723  -3.7199  -3.7198  -3.6720  -3.6717  -3.6127  -3.6125  -3.5581
    -3.5579  -3.5577  -3.5573  -3.5219  -3.4828  -3.4822  -3.4763  -3.4750
    -3.4750  -3.4447  -3.4441  -3.4358  -3.3740  -3.3733  -3.3643  -3.3482
    -3.3408  -3.2706  -3.2680  -3.2355  -3.2341  -3.2072  -3.2064  -3.1932
    -3.1787  -3.1270  -3.1161  -3.1059  -3.0987  -3.0910  -3.0463  -3.0415
    -3.0403  -3.0037  -2.9720  -2.9711  -2.9632  -2.9615  -2.9496  -2.9488
    -2.9417  -2.9413  -2.9315  -2.8909  -2.8535  -2.8526  -2.8387  -2.8382
    -2.8128  -2.8027  -2.8025  -2.7800  -2.7366  -2.7354  -2.7271  -2.6879
    -2.6813  -2.6700  -2.6693  -2.6405  -2.6401  -2.6109  -2.5735  -2.5733
    -2.5510  -2.5439  -2.5301  -2.5294  -2.4791  -2.4789  -2.4464  -2.4235
    -2.4235  -2.3993  -2.3990  -2.3879  -2.3877  -2.3770  -2.3543  -2.3542
    -2.3098  -2.3093  -2.3082  -2.2913  -2.2910  -2.2860  -2.2764  -2.2759
    -2.2735  -2.2733  -2.2676  -2.2550  -2.2545  -2.2442  -2.2185  -2.2184
    -2.2169  -2.2160  -2.2149  -2.2129  -2.2119  -2.1845  -2.1815  -2.1673
    -2.1671  -2.1495  -2.1491  -2.1393  -2.1391  -2.1378  -2.1371  -2.1181
    -2.1165  -2.1158  -2.1148  -2.0978  -2.0719  -2.0715  -2.0319  -2.0315
    -2.0060  -2.0058  -1.9788  -1.9783  -1.9508  -1.9507  -1.9339  -1.9291
    -1.9023  -1.8798  -1.8795  -1.8746  -1.8733  -1.8697  -1.8627  -1.8607
    -1.8362  -1.8297  -1.8192  -1.7637  -1.7596  -1.7581  -1.7558  -1.7549
    -1.7180  -1.7000  -1.6997  -1.6719  -1.6711  -1.6111  -1.6107  -1.5819
    -1.5642  -1.5624  -1.5026  -1.5023  -1.4909  -1.4898  -1.4797  -1.4788
    -1.4758  -1.4664  -1.4656  -1.4116  -1.4093  -1.3983  -1.3980  -1.3965
    -1.3787  -1.3783  -1.3428  -1.3421  -1.3251  -1.3250  -1.3247  -1.3180
    -1.3127  -1.3040  -1.3027  -1.2842  -1.2837  -1.2440  -1.2403  -1.2303
    -1.2299  -1.2094  -1.1963  -1.1536  -1.1523  -1.1264  -1.1222  -1.1214
    -1.0924  -1.0458  -1.0404  -1.0393  -1.0384  -1.0347  -1.0319  -1.0242
    -1.0092  -1.0040  -0.9948  -0.9640  -0.9630  -0.9332  -0.9326  -0.9277
    -0.9262  -0.9197  -0.9036  -0.9031  -0.9021  -0.8994  -0.8975  -0.8624
    -0.8597  -0.8589  -0.8581  -0.8277  -0.8269  -0.8233  -0.8000  -0.7922
    -0.7910  -0.7453  -0.7388  -0.7367  -0.7032  -0.6949  -0.6842  -0.6841
    -0.6760  -0.6759  -0.6748  -0.6724  -0.6627  -0.6612  -0.6362  -0.6359
    -0.6331  -0.6312  -0.6300  -0.5938  -0.5934  -0.5825  -0.5816  -0.5669
    -0.5601  -0.5579  -0.5475  -0.4922  -0.4898  -0.4810  -0.4808  -0.4795
    -0.4789  -0.4737  -0.4551  -0.4531  -0.4457  -0.4454  -0.4436  -0.4422
    -0.4040  -0.4018  -0.4010  -0.3934  -0.3923  -0.3875  -0.3856  -0.3753
    -0.3698  -0.3665  -0.3648  -0.3240  -0.3236  -0.3153  -0.3119  -0.3112
    -0.2345  -0.2336  -0.2315  -0.2309  -0.2220  -0.2214  -0.1853  -0.1726
    -0.1722  -0.1460  -0.1407  -0.1380  -0.0198  -0.0174   0.0835   0.4988
     0.4992   0.5020   0.5021   0.5617   0.5665   0.9519   0.9524   0.9947
     0.9953   1.1033   1.1839   1.2919   1.2990   1.5112   1.5245   2.1484
     2.1507   2.3100   2.3136   2.4408   2.4475   2.5477   2.5478   2.7019
     2.9393   2.9413   3.0627   3.2843   3.2923   3.3712   3.3721   3.4715
     3.4870   3.6732   3.6842   3.7434   3.9439   3.9445   4.0052   4.0093
     4.2638   4.2691   4.2755   4.5144   4.5558   4.5577   4.6023   4.9367
     4.9398   4.9677   5.0796   5.1032   5.2748   5.2753   5.3258   5.3578
     5.7169   5.9437   6.0489   6.0620   6.0668   6.0761   6.1369   6.1379
     6.2017   6.2466   6.2717   6.2952   6.2994   6.3084   6.3120   6.3443
     6.3598   6.3700   6.5005   6.5822   6.7218   6.7845   6.9043   6.9769
     7.0035   7.0069   7.0184

          k =-0.2500 0.4330-0.1111 (136853 PWs)   bands (ev):

   -18.9916  -6.8007  -6.2158  -5.8179  -5.8150  -5.1387  -4.8054  -4.8047
    -4.7674  -4.7642  -4.4052  -4.4041  -4.3062  -4.3059  -4.2919  -4.2708
    -4.2442  -4.1393  -4.1378  -4.1143  -4.0709  -4.0706  -4.0020  -4.0016
    -3.9952  -3.9949  -3.9735  -3.9692  -3.9666  -3.8965  -3.8939  -3.8660
    -3.8643  -3.8533  -3.8529  -3.8299  -3.8297  -3.8073  -3.7990  -3.7986
    -3.7724  -3.7202  -3.7196  -3.6728  -3.6708  -3.6129  -3.6124  -3.5581
    -3.5579  -3.5576  -3.5573  -3.5221  -3.4830  -3.4822  -3.4763  -3.4751
    -3.4749  -3.4446  -3.4440  -3.4358  -3.3742  -3.3733  -3.3641  -3.3480
    -3.3405  -3.2709  -3.2680  -3.2357  -3.2337  -3.2074  -3.2059  -3.1931
    -3.1788  -3.1270  -3.1164  -3.1061  -3.0984  -3.0908  -3.0462  -3.0415
    -3.0405  -3.0035  -2.9719  -2.9713  -2.9635  -2.9610  -2.9498  -2.9493
    -2.9416  -2.9408  -2.9316  -2.8908  -2.8542  -2.8520  -2.8389  -2.8379
    -2.8129  -2.8028  -2.8024  -2.7800  -2.7372  -2.7348  -2.7273  -2.6877
    -2.6812  -2.6706  -2.6685  -2.6410  -2.6399  -2.6110  -2.5734  -2.5730
    -2.5510  -2.5440  -2.5304  -2.5293  -2.4793  -2.4787  -2.4462  -2.4238
    -2.4235  -2.3996  -2.3989  -2.3882  -2.3872  -2.3771  -2.3548  -2.3538
    -2.3095  -2.3090  -2.3083  -2.2920  -2.2903  -2.2861  -2.2763  -2.2758
    -2.2739  -2.2730  -2.2676  -2.2556  -2.2536  -2.2446  -2.2185  -2.2182
    -2.2170  -2.2160  -2.2149  -2.2130  -2.2114  -2.1846  -2.1816  -2.1674
    -2.1669  -2.1498  -2.1488  -2.1393  -2.1389  -2.1382  -2.1369  -2.1190
    -2.1166  -2.1151  -2.1145  -2.0979  -2.0724  -2.0715  -2.0329  -2.0307
    -2.0066  -2.0052  -1.9787  -1.9779  -1.9509  -1.9504  -1.9339  -1.9290
    -1.9021  -1.8801  -1.8792  -1.8749  -1.8730  -1.8696  -1.8633  -1.8605
    -1.8362  -1.8292  -1.8192  -1.7638  -1.7600  -1.7581  -1.7561  -1.7550
    -1.7183  -1.7007  -1.6989  -1.6721  -1.6710  -1.6117  -1.6099  -1.5823
    -1.5643  -1.5620  -1.5029  -1.5018  -1.4913  -1.4896  -1.4801  -1.4783
    -1.4759  -1.4669  -1.4652  -1.4109  -1.4090  -1.3985  -1.3981  -1.3969
    -1.3791  -1.3767  -1.3431  -1.3427  -1.3253  -1.3249  -1.3243  -1.3178
    -1.3135  -1.3047  -1.3026  -1.2841  -1.2838  -1.2432  -1.2407  -1.2305
    -1.2285  -1.2091  -1.1964  -1.1541  -1.1527  -1.1269  -1.1233  -1.1217
    -1.0925  -1.0437  -1.0409  -1.0396  -1.0384  -1.0344  -1.0325  -1.0237
    -1.0085  -1.0037  -0.9965  -0.9646  -0.9619  -0.9336  -0.9315  -0.9279
    -0.9271  -0.9193  -0.9038  -0.9022  -0.9020  -0.8990  -0.8976  -0.8643
    -0.8599  -0.8588  -0.8556  -0.8284  -0.8276  -0.8234  -0.7998  -0.7931
    -0.7902  -0.7458  -0.7393  -0.7356  -0.7033  -0.6947  -0.6841  -0.6840
    -0.6763  -0.6755  -0.6752  -0.6723  -0.6630  -0.6607  -0.6366  -0.6356
    -0.6331  -0.6316  -0.6300  -0.5937  -0.5932  -0.5838  -0.5811  -0.5666
    -0.5605  -0.5574  -0.5473  -0.4922  -0.4896  -0.4811  -0.4807  -0.4800
    -0.4785  -0.4737  -0.4554  -0.4530  -0.4456  -0.4453  -0.4438  -0.4421
    -0.4040  -0.4020  -0.4006  -0.3939  -0.3919  -0.3872  -0.3857  -0.3753
    -0.3696  -0.3669  -0.3645  -0.3245  -0.3232  -0.3155  -0.3121  -0.3110
    -0.2347  -0.2336  -0.2314  -0.2306  -0.2221  -0.2214  -0.1853  -0.1728
    -0.1721  -0.1477  -0.1405  -0.1366  -0.0205  -0.0162   0.0838   0.4987
     0.4994   0.5018   0.5023   0.5601   0.5675   0.9517   0.9523   0.9941
     0.9958   1.1039   1.1841   1.2901   1.3014   1.5083   1.5269   2.1474
     2.1514   2.3085   2.3155   2.4383   2.4497   2.5473   2.5481   2.7017
     2.9394   2.9420   3.0625   3.2825   3.2938   3.3709   3.3728   3.4710
     3.4870   3.6670   3.6894   3.7437   3.9433   3.9452   4.0041   4.0114
     4.2633   4.2676   4.2769   4.5150   4.5556   4.5578   4.6020   4.9356
     4.9409   4.9668   5.0824   5.1070   5.2745   5.2759   5.3139   5.3501
     5.7776   5.8818   6.0613   6.0654   6.0691   6.0886   6.1369   6.1382
     6.2096   6.2470   6.2724   6.2983   6.2992   6.3007   6.3159   6.3553
     6.3600   6.3849   6.4168   6.5975   6.7206   6.7775   6.9275   6.9580
     7.0022   7.0101   7.0181

          k = 0.2500-0.4330-0.1111 (136853 PWs)   bands (ev):

   -18.9916  -6.8007  -6.2158  -5.8179  -5.8150  -5.1387  -4.8054  -4.8047
    -4.7674  -4.7642  -4.4052  -4.4041  -4.3062  -4.3059  -4.2919  -4.2708
    -4.2442  -4.1393  -4.1378  -4.1143  -4.0709  -4.0706  -4.0020  -4.0016
    -3.9952  -3.9949  -3.9735  -3.9692  -3.9666  -3.8965  -3.8939  -3.8660
    -3.8643  -3.8533  -3.8529  -3.8299  -3.8297  -3.8073  -3.7990  -3.7986
    -3.7724  -3.7202  -3.7196  -3.6728  -3.6708  -3.6129  -3.6124  -3.5581
    -3.5579  -3.5576  -3.5573  -3.5221  -3.4830  -3.4822  -3.4763  -3.4751
    -3.4749  -3.4446  -3.4440  -3.4358  -3.3742  -3.3733  -3.3641  -3.3480
    -3.3405  -3.2709  -3.2680  -3.2357  -3.2337  -3.2074  -3.2059  -3.1931
    -3.1788  -3.1270  -3.1164  -3.1061  -3.0984  -3.0908  -3.0462  -3.0415
    -3.0405  -3.0035  -2.9719  -2.9713  -2.9635  -2.9610  -2.9498  -2.9493
    -2.9416  -2.9408  -2.9316  -2.8908  -2.8542  -2.8520  -2.8389  -2.8379
    -2.8129  -2.8028  -2.8024  -2.7800  -2.7372  -2.7348  -2.7273  -2.6877
    -2.6812  -2.6706  -2.6685  -2.6410  -2.6399  -2.6110  -2.5734  -2.5730
    -2.5510  -2.5440  -2.5304  -2.5293  -2.4793  -2.4787  -2.4462  -2.4238
    -2.4235  -2.3996  -2.3989  -2.3882  -2.3872  -2.3771  -2.3548  -2.3538
    -2.3095  -2.3090  -2.3083  -2.2920  -2.2903  -2.2861  -2.2763  -2.2758
    -2.2739  -2.2730  -2.2676  -2.2556  -2.2536  -2.2446  -2.2185  -2.2182
    -2.2170  -2.2160  -2.2149  -2.2130  -2.2114  -2.1846  -2.1816  -2.1674
    -2.1669  -2.1498  -2.1488  -2.1393  -2.1389  -2.1382  -2.1369  -2.1190
    -2.1166  -2.1151  -2.1145  -2.0979  -2.0724  -2.0715  -2.0329  -2.0307
    -2.0066  -2.0052  -1.9787  -1.9779  -1.9509  -1.9504  -1.9339  -1.9290
    -1.9021  -1.8801  -1.8792  -1.8749  -1.8730  -1.8696  -1.8633  -1.8605
    -1.8362  -1.8292  -1.8192  -1.7638  -1.7600  -1.7581  -1.7561  -1.7550
    -1.7183  -1.7007  -1.6989  -1.6721  -1.6710  -1.6117  -1.6099  -1.5823
    -1.5643  -1.5620  -1.5029  -1.5018  -1.4913  -1.4896  -1.4801  -1.4783
    -1.4759  -1.4669  -1.4652  -1.4109  -1.4090  -1.3985  -1.3981  -1.3969
    -1.3791  -1.3767  -1.3431  -1.3427  -1.3253  -1.3249  -1.3243  -1.3178
    -1.3135  -1.3047  -1.3026  -1.2841  -1.2837  -1.2432  -1.2407  -1.2305
    -1.2285  -1.2091  -1.1964  -1.1541  -1.1527  -1.1269  -1.1233  -1.1217
    -1.0925  -1.0437  -1.0410  -1.0396  -1.0384  -1.0344  -1.0325  -1.0237
    -1.0085  -1.0037  -0.9965  -0.9646  -0.9619  -0.9336  -0.9315  -0.9279
    -0.9271  -0.9193  -0.9038  -0.9022  -0.9020  -0.8990  -0.8976  -0.8643
    -0.8599  -0.8588  -0.8556  -0.8284  -0.8276  -0.8234  -0.7998  -0.7931
    -0.7902  -0.7458  -0.7393  -0.7356  -0.7033  -0.6947  -0.6841  -0.6840
    -0.6763  -0.6755  -0.6752  -0.6723  -0.6630  -0.6607  -0.6366  -0.6356
    -0.6331  -0.6316  -0.6300  -0.5937  -0.5932  -0.5838  -0.5811  -0.5666
    -0.5605  -0.5574  -0.5473  -0.4922  -0.4896  -0.4811  -0.4807  -0.4800
    -0.4785  -0.4737  -0.4554  -0.4530  -0.4456  -0.4453  -0.4438  -0.4421
    -0.4040  -0.4020  -0.4006  -0.3939  -0.3919  -0.3872  -0.3857  -0.3753
    -0.3696  -0.3669  -0.3645  -0.3245  -0.3232  -0.3155  -0.3121  -0.3110
    -0.2347  -0.2336  -0.2314  -0.2306  -0.2221  -0.2214  -0.1853  -0.1728
    -0.1721  -0.1477  -0.1405  -0.1366  -0.0205  -0.0162   0.0838   0.4987
     0.4994   0.5018   0.5023   0.5601   0.5675   0.9517   0.9523   0.9941
     0.9958   1.1039   1.1841   1.2901   1.3014   1.5083   1.5269   2.1474
     2.1514   2.3085   2.3155   2.4383   2.4497   2.5473   2.5481   2.7017
     2.9394   2.9420   3.0625   3.2825   3.2938   3.3709   3.3728   3.4710
     3.4870   3.6670   3.6894   3.7437   3.9433   3.9452   4.0041   4.0114
     4.2633   4.2676   4.2769   4.5150   4.5556   4.5578   4.6020   4.9356
     4.9409   4.9668   5.0824   5.1070   5.2745   5.2759   5.3139   5.3501
     5.7777   5.8818   6.0613   6.0654   6.0692   6.0885   6.1368   6.1382
     6.2095   6.2470   6.2724   6.2982   6.2992   6.3008   6.3159   6.3552
     6.3600   6.3845   6.4175   6.5979   6.7202   6.7775   6.9276   6.9578
     7.0020   7.0103   7.0179

          k = 0.5000 0.0000 0.1111 (136853 PWs)   bands (ev):

   -18.9916  -6.8007  -6.2158  -5.8178  -5.8151  -5.1387  -4.8059  -4.8041
    -4.7670  -4.7647  -4.4054  -4.4039  -4.3061  -4.3059  -4.2918  -4.2708
    -4.2442  -4.1390  -4.1381  -4.1143  -4.0708  -4.0707  -4.0019  -4.0016
    -3.9956  -3.9945  -3.9735  -3.9695  -3.9662  -3.8964  -3.8941  -3.8662
    -3.8641  -3.8534  -3.8528  -3.8298  -3.8298  -3.8073  -3.7991  -3.7986
    -3.7725  -3.7202  -3.7196  -3.6730  -3.6707  -3.6128  -3.6124  -3.5585
    -3.5581  -3.5574  -3.5569  -3.5221  -3.4829  -3.4823  -3.4763  -3.4753
    -3.4748  -3.4451  -3.4437  -3.4357  -3.3742  -3.3733  -3.3641  -3.3480
    -3.3406  -3.2703  -3.2685  -3.2355  -3.2339  -3.2073  -3.2060  -3.1931
    -3.1789  -3.1272  -3.1161  -3.1059  -3.0987  -3.0908  -3.0463  -3.0416
    -3.0404  -3.0035  -2.9725  -2.9707  -2.9630  -2.9615  -2.9495  -2.9486
    -2.9417  -2.9415  -2.9316  -2.8908  -2.8536  -2.8527  -2.8388  -2.8380
    -2.8129  -2.8027  -2.8025  -2.7800  -2.7362  -2.7358  -2.7273  -2.6877
    -2.6812  -2.6702  -2.6688  -2.6408  -2.6401  -2.6110  -2.5735  -2.5728
    -2.5510  -2.5440  -2.5302  -2.5295  -2.4793  -2.4788  -2.4462  -2.4238
    -2.4235  -2.3994  -2.3991  -2.3880  -2.3873  -2.3771  -2.3547  -2.3539
    -2.3098  -2.3087  -2.3082  -2.2919  -2.2903  -2.2861  -2.2763  -2.2758
    -2.2738  -2.2731  -2.2677  -2.2552  -2.2540  -2.2443  -2.2186  -2.2182
    -2.2169  -2.2159  -2.2150  -2.2129  -2.2116  -2.1847  -2.1815  -2.1674
    -2.1671  -2.1498  -2.1488  -2.1392  -2.1390  -2.1382  -2.1368  -2.1180
    -2.1167  -2.1160  -2.1146  -2.0978  -2.0721  -2.0717  -2.0329  -2.0306
    -2.0067  -2.0053  -1.9787  -1.9780  -1.9510  -1.9504  -1.9339  -1.9289
    -1.9022  -1.8800  -1.8792  -1.8748  -1.8730  -1.8698  -1.8630  -1.8606
    -1.8362  -1.8293  -1.8192  -1.7637  -1.7601  -1.7579  -1.7558  -1.7553
    -1.7181  -1.7006  -1.6991  -1.6720  -1.6711  -1.6112  -1.6104  -1.5822
    -1.5642  -1.5622  -1.5027  -1.5021  -1.4909  -1.4899  -1.4797  -1.4788
    -1.4759  -1.4665  -1.4656  -1.4110  -1.4095  -1.3986  -1.3980  -1.3967
    -1.3786  -1.3778  -1.3430  -1.3422  -1.3254  -1.3249  -1.3245  -1.3176
    -1.3130  -1.3041  -1.3028  -1.2846  -1.2833  -1.2438  -1.2402  -1.2303
    -1.2294  -1.2092  -1.1964  -1.1538  -1.1525  -1.1267  -1.1225  -1.1216
    -1.0925  -1.0453  -1.0408  -1.0392  -1.0382  -1.0348  -1.0322  -1.0240
    -1.0089  -1.0039  -0.9953  -0.9640  -0.9627  -0.9334  -0.9323  -0.9279
    -0.9263  -0.9194  -0.9035  -0.9029  -0.9019  -0.8992  -0.8975  -0.8629
    -0.8599  -0.8588  -0.8573  -0.8278  -0.8272  -0.8234  -0.8001  -0.7920
    -0.7910  -0.7455  -0.7390  -0.7362  -0.7033  -0.6948  -0.6843  -0.6839
    -0.6761  -0.6756  -0.6750  -0.6723  -0.6629  -0.6609  -0.6366  -0.6355
    -0.6332  -0.6316  -0.6299  -0.5938  -0.5932  -0.5831  -0.5814  -0.5669
    -0.5601  -0.5578  -0.5474  -0.4921  -0.4897  -0.4811  -0.4808  -0.4797
    -0.4787  -0.4738  -0.4552  -0.4531  -0.4457  -0.4453  -0.4435  -0.4422
    -0.4040  -0.4017  -0.4010  -0.3935  -0.3922  -0.3875  -0.3856  -0.3752
    -0.3697  -0.3667  -0.3647  -0.3243  -0.3234  -0.3154  -0.3120  -0.3112
    -0.2346  -0.2336  -0.2315  -0.2306  -0.2221  -0.2213  -0.1853  -0.1727
    -0.1721  -0.1461  -0.1407  -0.1379  -0.0200  -0.0170   0.0836   0.4988
     0.4994   0.5017   0.5024   0.5609   0.5670   0.9518   0.9524   0.9941
     0.9958   1.1035   1.1840   1.2920   1.2992   1.5107   1.5248   2.1475
     2.1513   2.3091   2.3147   2.4398   2.4485   2.5470   2.5484   2.7017
     2.9395   2.9416   3.0626   3.2843   3.2922   3.3706   3.3729   3.4712
     3.4870   3.6718   3.6852   3.7436   3.9440   3.9445   4.0043   4.0106
     4.2634   4.2681   4.2765   4.5149   4.5550   4.5583   4.6021   4.9369
     4.9395   4.9672   5.0830   5.1023   5.2745   5.2758   5.3211   5.3551
     5.7364   5.9232   6.0578   6.0626   6.0670   6.0785   6.1367   6.1380
     6.2034   6.2465   6.2719   6.2970   6.2985   6.3063   6.3137   6.3463
     6.3597   6.3726   6.4757   6.5907   6.7321   6.7651   6.9115   6.9711
     7.0037   7.0075   7.0182

          k =-0.5000 0.0000 0.1111 (136853 PWs)   bands (ev):

   -18.9916  -6.8007  -6.2158  -5.8178  -5.8151  -5.1387  -4.8059  -4.8041
    -4.7670  -4.7647  -4.4054  -4.4039  -4.3062  -4.3059  -4.2918  -4.2708
    -4.2442  -4.1390  -4.1381  -4.1143  -4.0708  -4.0707  -4.0019  -4.0016
    -3.9956  -3.9945  -3.9735  -3.9695  -3.9662  -3.8964  -3.8941  -3.8662
    -3.8641  -3.8534  -3.8528  -3.8298  -3.8298  -3.8073  -3.7991  -3.7986
    -3.7725  -3.7202  -3.7196  -3.6730  -3.6707  -3.6128  -3.6124  -3.5585
    -3.5581  -3.5574  -3.5569  -3.5221  -3.4829  -3.4823  -3.4763  -3.4753
    -3.4748  -3.4451  -3.4437  -3.4357  -3.3742  -3.3733  -3.3641  -3.3480
    -3.3406  -3.2703  -3.2685  -3.2355  -3.2339  -3.2073  -3.2060  -3.1931
    -3.1789  -3.1272  -3.1161  -3.1059  -3.0987  -3.0908  -3.0463  -3.0416
    -3.0404  -3.0035  -2.9725  -2.9707  -2.9630  -2.9615  -2.9495  -2.9486
    -2.9417  -2.9415  -2.9316  -2.8908  -2.8536  -2.8527  -2.8388  -2.8380
    -2.8129  -2.8027  -2.8025  -2.7800  -2.7362  -2.7358  -2.7273  -2.6877
    -2.6812  -2.6702  -2.6688  -2.6408  -2.6401  -2.6110  -2.5735  -2.5728
    -2.5510  -2.5440  -2.5302  -2.5295  -2.4793  -2.4788  -2.4462  -2.4238
    -2.4235  -2.3994  -2.3991  -2.3880  -2.3873  -2.3771  -2.3547  -2.3539
    -2.3098  -2.3087  -2.3082  -2.2919  -2.2903  -2.2861  -2.2763  -2.2758
    -2.2738  -2.2731  -2.2677  -2.2552  -2.2540  -2.2443  -2.2186  -2.2182
    -2.2169  -2.2159  -2.2150  -2.2129  -2.2116  -2.1847  -2.1815  -2.1674
    -2.1671  -2.1498  -2.1488  -2.1392  -2.1390  -2.1382  -2.1368  -2.1180
    -2.1167  -2.1160  -2.1146  -2.0978  -2.0721  -2.0717  -2.0329  -2.0306
    -2.0067  -2.0053  -1.9787  -1.9780  -1.9510  -1.9504  -1.9339  -1.9289
    -1.9022  -1.8800  -1.8792  -1.8748  -1.8730  -1.8698  -1.8630  -1.8606
    -1.8362  -1.8293  -1.8192  -1.7637  -1.7601  -1.7579  -1.7558  -1.7553
    -1.7181  -1.7006  -1.6991  -1.6720  -1.6711  -1.6112  -1.6104  -1.5822
    -1.5642  -1.5622  -1.5027  -1.5021  -1.4909  -1.4899  -1.4797  -1.4788
    -1.4759  -1.4665  -1.4656  -1.4110  -1.4095  -1.3986  -1.3980  -1.3967
    -1.3786  -1.3778  -1.3430  -1.3422  -1.3254  -1.3249  -1.3245  -1.3176
    -1.3130  -1.3041  -1.3028  -1.2846  -1.2833  -1.2438  -1.2402  -1.2303
    -1.2294  -1.2092  -1.1964  -1.1538  -1.1525  -1.1267  -1.1225  -1.1216
    -1.0925  -1.0453  -1.0408  -1.0392  -1.0382  -1.0348  -1.0322  -1.0240
    -1.0089  -1.0039  -0.9953  -0.9640  -0.9627  -0.9334  -0.9323  -0.9279
    -0.9263  -0.9194  -0.9035  -0.9029  -0.9019  -0.8992  -0.8975  -0.8629
    -0.8599  -0.8588  -0.8573  -0.8278  -0.8272  -0.8234  -0.8001  -0.7920
    -0.7910  -0.7455  -0.7391  -0.7362  -0.7033  -0.6948  -0.6843  -0.6839
    -0.6761  -0.6756  -0.6750  -0.6723  -0.6629  -0.6609  -0.6366  -0.6355
    -0.6332  -0.6316  -0.6299  -0.5938  -0.5932  -0.5831  -0.5814  -0.5669
    -0.5601  -0.5578  -0.5474  -0.4921  -0.4897  -0.4811  -0.4808  -0.4797
    -0.4787  -0.4738  -0.4552  -0.4531  -0.4457  -0.4453  -0.4435  -0.4422
    -0.4040  -0.4017  -0.4010  -0.3935  -0.3922  -0.3875  -0.3856  -0.3752
    -0.3697  -0.3667  -0.3647  -0.3243  -0.3234  -0.3154  -0.3120  -0.3112
    -0.2346  -0.2336  -0.2315  -0.2306  -0.2221  -0.2213  -0.1853  -0.1727
    -0.1721  -0.1461  -0.1407  -0.1379  -0.0200  -0.0170   0.0836   0.4988
     0.4994   0.5017   0.5024   0.5609   0.5670   0.9518   0.9524   0.9941
     0.9958   1.1035   1.1840   1.2920   1.2992   1.5107   1.5248   2.1475
     2.1513   2.3091   2.3147   2.4398   2.4485   2.5470   2.5484   2.7017
     2.9395   2.9416   3.0626   3.2843   3.2922   3.3706   3.3729   3.4712
     3.4870   3.6718   3.6852   3.7436   3.9440   3.9445   4.0043   4.0106
     4.2634   4.2681   4.2765   4.5149   4.5550   4.5583   4.6021   4.9369
     4.9395   4.9672   5.0830   5.1023   5.2745   5.2758   5.3211   5.3551
     5.7364   5.9233   6.0581   6.0627   6.0670   6.0784   6.1367   6.1381
     6.2033   6.2465   6.2719   6.2970   6.2985   6.3062   6.3138   6.3461
     6.3597   6.3725   6.4758   6.5895   6.7337   6.7644   6.9140   6.9702
     7.0034   7.0077   7.0180

          k =-0.2500 0.1443 0.1111 (136898 PWs)   bands (ev):

   -18.9916  -6.8007  -6.4258  -5.6337  -5.3426  -5.2835  -5.2832  -4.7451
    -4.7448  -4.6132  -4.6129  -4.4585  -4.4267  -4.3653  -4.3319  -4.3315
    -4.2983  -4.2983  -4.1697  -4.1279  -4.1278  -4.0680  -4.0469  -4.0467
    -3.9445  -3.9444  -3.9083  -3.9080  -3.9079  -3.8812  -3.8595  -3.8594
    -3.7545  -3.7523  -3.7522  -3.7316  -3.7147  -3.7146  -3.7024  -3.7023
    -3.6892  -3.6589  -3.6588  -3.6585  -3.6583  -3.6260  -3.6258  -3.6081
    -3.6080  -3.5935  -3.5502  -3.5495  -3.5203  -3.5051  -3.5047  -3.4997
    -3.4997  -3.4251  -3.4251  -3.3899  -3.3888  -3.3874  -3.3196  -3.3195
    -3.3050  -3.3042  -3.2736  -3.2727  -3.2722  -3.2717  -3.1294  -3.1187
    -3.1090  -3.0926  -3.0909  -3.0863  -3.0715  -3.0671  -3.0454  -3.0433
    -2.9956  -2.9942  -2.9793  -2.9784  -2.9582  -2.9101  -2.9099  -2.8902
    -2.8857  -2.8847  -2.8446  -2.8440  -2.8381  -2.8367  -2.8216  -2.8198
    -2.7818  -2.7814  -2.7599  -2.7597  -2.7566  -2.7557  -2.7530  -2.6763
    -2.6758  -2.6742  -2.6460  -2.6448  -2.5840  -2.5838  -2.5554  -2.5544
    -2.5413  -2.5407  -2.5355  -2.5061  -2.5060  -2.4963  -2.4787  -2.4532
    -2.4529  -2.4526  -2.4321  -2.4318  -2.4208  -2.4200  -2.4176  -2.4164
    -2.4090  -2.3628  -2.3305  -2.3302  -2.3146  -2.3007  -2.2943  -2.2941
    -2.2870  -2.2861  -2.2850  -2.2553  -2.2550  -2.2544  -2.2451  -2.2447
    -2.2278  -2.2005  -2.1998  -2.1994  -2.1986  -2.1972  -2.1531  -2.1216
    -2.1215  -2.1207  -2.1146  -2.1056  -2.0927  -2.0925  -2.0757  -2.0757
    -2.0418  -2.0409  -2.0405  -2.0222  -2.0207  -2.0204  -1.9877  -1.9870
    -1.9461  -1.9453  -1.9384  -1.9364  -1.9359  -1.9298  -1.9292  -1.9271
    -1.9264  -1.9205  -1.9191  -1.9032  -1.9024  -1.7761  -1.7753  -1.7433
    -1.7379  -1.7364  -1.7316  -1.7312  -1.7138  -1.7132  -1.7109  -1.7107
    -1.7084  -1.6858  -1.6782  -1.6775  -1.6722  -1.6658  -1.6640  -1.6426
    -1.6422  -1.6138  -1.6138  -1.5818  -1.5817  -1.5712  -1.5631  -1.5455
    -1.5444  -1.5421  -1.5238  -1.5113  -1.5110  -1.5039  -1.5036  -1.4770
    -1.4770  -1.4602  -1.4600  -1.4283  -1.4262  -1.4182  -1.3669  -1.3667
    -1.3547  -1.3541  -1.3516  -1.3283  -1.3257  -1.2923  -1.2917  -1.2910
    -1.2585  -1.2482  -1.2467  -1.2318  -1.2314  -1.2063  -1.2039  -1.2029
    -1.1736  -1.1713  -1.1706  -1.1085  -1.1077  -1.0955  -1.0938  -1.0787
    -1.0782  -1.0671  -1.0658  -1.0475  -1.0347  -1.0166  -1.0069  -1.0050
    -0.9929  -0.9619  -0.9571  -0.9547  -0.9452  -0.9448  -0.9428  -0.9379
    -0.9330  -0.9241  -0.8934  -0.8927  -0.8833  -0.8816  -0.8805  -0.8747
    -0.8564  -0.8388  -0.8346  -0.8176  -0.8139  -0.7235  -0.7107  -0.7050
    -0.7047  -0.7006  -0.6956  -0.6941  -0.6724  -0.6693  -0.6550  -0.6527
    -0.6395  -0.6382  -0.6301  -0.6107  -0.6078  -0.6075  -0.5995  -0.5277
    -0.5274  -0.4945  -0.4916  -0.4892  -0.4829  -0.4812  -0.4806  -0.4796
    -0.4681  -0.4658  -0.4506  -0.4263  -0.4116  -0.3922  -0.3910  -0.3809
    -0.3794  -0.3681  -0.3669  -0.3664  -0.3648  -0.3637  -0.3472  -0.3432
    -0.3418  -0.3121  -0.3109  -0.3096  -0.2983  -0.2979  -0.2788  -0.2470
    -0.2462  -0.2376  -0.2367  -0.1694  -0.1687  -0.1320  -0.1318  -0.0745
    -0.0723  -0.0718  -0.0602  -0.0432   0.1768   0.1855   0.5272   0.5273
     0.6155   0.6235   0.8110   0.8303   0.8450   0.9750   0.9769   1.4075
     1.4075   1.4258   1.6840   1.7174   1.7175   1.9894   2.0011   2.0734
     2.0742   2.0985   2.1060   2.3302   2.3303   2.4184   2.4190   2.4876
     2.5528   2.5662   2.7225   2.8205   3.2597   3.2614   3.2629   3.2676
     3.3190   3.3195   3.6116   3.6119   3.8896   3.8973   3.9908   4.3075
     4.3481   4.3534   4.5536   4.5689   4.6503   4.6532   4.7422   4.8591
     4.8633   4.9769   4.9792   5.0553   5.2820   5.3485   5.3544   5.4963
     5.5246   5.7376   5.7390   5.7483   5.7652   5.7663   5.8271   5.8295
     5.8778   6.0394   6.2387   6.2624   6.4334   6.4461   6.5694   6.5716
     6.5765   6.5825   6.5978   6.7452   6.8152   6.8240   6.8292   6.9754
     7.0114   7.0365   7.0586

          k =-0.2500-0.1443-0.1111 (136898 PWs)   bands (ev):

   -18.9916  -6.8007  -6.4258  -5.6337  -5.3426  -5.2835  -5.2832  -4.7450
    -4.7448  -4.6136  -4.6126  -4.4585  -4.4267  -4.3654  -4.3318  -4.3317
    -4.2984  -4.2981  -4.1696  -4.1280  -4.1277  -4.0678  -4.0470  -4.0468
    -3.9444  -3.9443  -3.9083  -3.9081  -3.9079  -3.8812  -3.8597  -3.8592
    -3.7544  -3.7524  -3.7522  -3.7315  -3.7148  -3.7146  -3.7025  -3.7024
    -3.6891  -3.6589  -3.6588  -3.6584  -3.6582  -3.6262  -3.6258  -3.6080
    -3.6079  -3.5933  -3.5504  -3.5494  -3.5205  -3.5053  -3.5044  -3.4998
    -3.4996  -3.4252  -3.4251  -3.3898  -3.3887  -3.3872  -3.3198  -3.3196
    -3.3050  -3.3040  -3.2736  -3.2726  -3.2723  -3.2721  -3.1295  -3.1186
    -3.1090  -3.0925  -3.0912  -3.0861  -3.0715  -3.0672  -3.0453  -3.0432
    -2.9956  -2.9943  -2.9793  -2.9784  -2.9581  -2.9100  -2.9098  -2.8903
    -2.8858  -2.8849  -2.8447  -2.8441  -2.8381  -2.8369  -2.8215  -2.8200
    -2.7815  -2.7812  -2.7601  -2.7594  -2.7565  -2.7558  -2.7528  -2.6763
    -2.6759  -2.6744  -2.6460  -2.6449  -2.5841  -2.5835  -2.5553  -2.5544
    -2.5411  -2.5406  -2.5355  -2.5061  -2.5059  -2.4964  -2.4786  -2.4534
    -2.4529  -2.4527  -2.4320  -2.4318  -2.4210  -2.4204  -2.4173  -2.4165
    -2.4090  -2.3627  -2.3305  -2.3304  -2.3145  -2.3008  -2.2942  -2.2941
    -2.2869  -2.2863  -2.2852  -2.2551  -2.2549  -2.2546  -2.2452  -2.2445
    -2.2276  -2.2008  -2.1998  -2.1989  -2.1986  -2.1975  -2.1533  -2.1217
    -2.1215  -2.1208  -2.1145  -2.1057  -2.0926  -2.0924  -2.0756  -2.0755
    -2.0418  -2.0408  -2.0404  -2.0223  -2.0207  -2.0206  -1.9875  -1.9871
    -1.9464  -1.9450  -1.9381  -1.9362  -1.9358  -1.9297  -1.9295  -1.9280
    -1.9261  -1.9202  -1.9192  -1.9032  -1.9026  -1.7760  -1.7755  -1.7431
    -1.7378  -1.7366  -1.7315  -1.7310  -1.7144  -1.7137  -1.7108  -1.7105
    -1.7079  -1.6858  -1.6781  -1.6776  -1.6718  -1.6659  -1.6637  -1.6429
    -1.6424  -1.6144  -1.6137  -1.5816  -1.5814  -1.5711  -1.5630  -1.5453
    -1.5445  -1.5418  -1.5238  -1.5116  -1.5111  -1.5041  -1.5037  -1.4768
    -1.4767  -1.4607  -1.4599  -1.4290  -1.4266  -1.4177  -1.3674  -1.3665
    -1.3546  -1.3543  -1.3514  -1.3285  -1.3254  -1.2923  -1.2921  -1.2905
    -1.2576  -1.2487  -1.2468  -1.2317  -1.2313  -1.2053  -1.2043  -1.2026
    -1.1737  -1.1711  -1.1709  -1.1088  -1.1084  -1.0964  -1.0941  -1.0794
    -1.0780  -1.0657  -1.0650  -1.0472  -1.0347  -1.0142  -1.0062  -1.0035
    -0.9951  -0.9667  -0.9559  -0.9550  -0.9452  -0.9449  -0.9433  -0.9367
    -0.9359  -0.9240  -0.8935  -0.8929  -0.8820  -0.8817  -0.8772  -0.8762
    -0.8563  -0.8363  -0.8358  -0.8167  -0.8145  -0.7235  -0.7106  -0.7049
    -0.7048  -0.7007  -0.6955  -0.6941  -0.6733  -0.6693  -0.6543  -0.6532
    -0.6394  -0.6386  -0.6303  -0.6099  -0.6084  -0.6078  -0.5995  -0.5277
    -0.5273  -0.4938  -0.4924  -0.4892  -0.4826  -0.4815  -0.4804  -0.4799
    -0.4682  -0.4652  -0.4509  -0.4262  -0.4118  -0.3920  -0.3913  -0.3808
    -0.3796  -0.3682  -0.3666  -0.3663  -0.3648  -0.3639  -0.3470  -0.3432
    -0.3420  -0.3120  -0.3111  -0.3091  -0.2983  -0.2979  -0.2789  -0.2469
    -0.2463  -0.2375  -0.2367  -0.1696  -0.1687  -0.1322  -0.1315  -0.0745
    -0.0726  -0.0714  -0.0608  -0.0432   0.1787   0.1843   0.5272   0.5273
     0.6172   0.6224   0.8089   0.8312   0.8451   0.9754   0.9764   1.4074
     1.4076   1.4257   1.6841   1.7174   1.7177   1.9918   1.9987   2.0736
     2.0741   2.0998   2.1047   2.3297   2.3308   2.4185   2.4188   2.4881
     2.5549   2.5635   2.7222   2.8208   3.2595   3.2613   3.2637   3.2671
     3.3191   3.3201   3.6115   3.6121   3.8912   3.8961   3.9918   4.3075
     4.3488   4.3522   4.5529   4.5631   4.6506   4.6525   4.7431   4.8588
     4.8623   4.9776   4.9792   5.0671   5.2822   5.3472   5.3549   5.5076
     5.5190   5.7340   5.7380   5.7409   5.7653   5.7667   5.8270   5.8316
     5.8632   5.9935   6.2428   6.3537   6.4272   6.4446   6.5657   6.5724
     6.5727   6.5837   6.5923   6.6953   6.8248   6.8270   6.9174   6.9590
     6.9867   7.0437   7.0483

          k = 0.2500 0.1443-0.1111 (136898 PWs)   bands (ev):

   -18.9916  -6.8007  -6.4258  -5.6337  -5.3426  -5.2835  -5.2832  -4.7450
    -4.7448  -4.6136  -4.6126  -4.4585  -4.4267  -4.3654  -4.3318  -4.3317
    -4.2984  -4.2981  -4.1696  -4.1280  -4.1277  -4.0678  -4.0470  -4.0468
    -3.9444  -3.9443  -3.9083  -3.9081  -3.9079  -3.8812  -3.8597  -3.8592
    -3.7544  -3.7524  -3.7522  -3.7315  -3.7148  -3.7146  -3.7025  -3.7024
    -3.6891  -3.6589  -3.6588  -3.6584  -3.6582  -3.6262  -3.6258  -3.6080
    -3.6079  -3.5933  -3.5504  -3.5494  -3.5205  -3.5053  -3.5044  -3.4998
    -3.4996  -3.4252  -3.4250  -3.3898  -3.3887  -3.3872  -3.3198  -3.3196
    -3.3050  -3.3040  -3.2736  -3.2726  -3.2723  -3.2721  -3.1295  -3.1186
    -3.1090  -3.0925  -3.0912  -3.0861  -3.0715  -3.0672  -3.0453  -3.0432
    -2.9956  -2.9943  -2.9793  -2.9784  -2.9581  -2.9100  -2.9098  -2.8902
    -2.8858  -2.8849  -2.8447  -2.8441  -2.8381  -2.8369  -2.8215  -2.8200
    -2.7816  -2.7812  -2.7601  -2.7594  -2.7565  -2.7558  -2.7528  -2.6763
    -2.6759  -2.6744  -2.6460  -2.6449  -2.5841  -2.5835  -2.5553  -2.5544
    -2.5411  -2.5406  -2.5356  -2.5061  -2.5059  -2.4964  -2.4786  -2.4534
    -2.4529  -2.4527  -2.4320  -2.4318  -2.4210  -2.4204  -2.4173  -2.4165
    -2.4090  -2.3627  -2.3305  -2.3304  -2.3145  -2.3008  -2.2942  -2.2941
    -2.2869  -2.2863  -2.2852  -2.2551  -2.2549  -2.2546  -2.2452  -2.2445
    -2.2276  -2.2008  -2.1998  -2.1989  -2.1986  -2.1975  -2.1533  -2.1217
    -2.1215  -2.1208  -2.1145  -2.1056  -2.0926  -2.0924  -2.0756  -2.0755
    -2.0418  -2.0408  -2.0404  -2.0223  -2.0207  -2.0206  -1.9875  -1.9871
    -1.9464  -1.9450  -1.9381  -1.9362  -1.9358  -1.9297  -1.9295  -1.9280
    -1.9260  -1.9202  -1.9192  -1.9032  -1.9026  -1.7760  -1.7755  -1.7431
    -1.7378  -1.7366  -1.7315  -1.7310  -1.7144  -1.7137  -1.7108  -1.7105
    -1.7079  -1.6859  -1.6781  -1.6776  -1.6718  -1.6659  -1.6637  -1.6429
    -1.6424  -1.6144  -1.6137  -1.5816  -1.5814  -1.5711  -1.5630  -1.5453
    -1.5445  -1.5418  -1.5237  -1.5116  -1.5111  -1.5041  -1.5037  -1.4768
    -1.4767  -1.4607  -1.4599  -1.4290  -1.4266  -1.4177  -1.3674  -1.3665
    -1.3546  -1.3543  -1.3514  -1.3285  -1.3254  -1.2923  -1.2921  -1.2905
    -1.2576  -1.2487  -1.2468  -1.2317  -1.2313  -1.2053  -1.2043  -1.2026
    -1.1737  -1.1711  -1.1709  -1.1088  -1.1084  -1.0964  -1.0941  -1.0794
    -1.0780  -1.0657  -1.0650  -1.0472  -1.0347  -1.0142  -1.0062  -1.0035
    -0.9951  -0.9667  -0.9559  -0.9550  -0.9452  -0.9449  -0.9433  -0.9367
    -0.9359  -0.9241  -0.8935  -0.8929  -0.8820  -0.8817  -0.8772  -0.8762
    -0.8563  -0.8363  -0.8358  -0.8167  -0.8145  -0.7235  -0.7106  -0.7049
    -0.7048  -0.7007  -0.6955  -0.6941  -0.6733  -0.6693  -0.6543  -0.6532
    -0.6394  -0.6387  -0.6303  -0.6099  -0.6084  -0.6078  -0.5994  -0.5277
    -0.5273  -0.4938  -0.4924  -0.4892  -0.4826  -0.4815  -0.4804  -0.4799
    -0.4682  -0.4652  -0.4509  -0.4262  -0.4118  -0.3920  -0.3913  -0.3808
    -0.3796  -0.3682  -0.3666  -0.3663  -0.3648  -0.3639  -0.3470  -0.3432
    -0.3420  -0.3120  -0.3111  -0.3091  -0.2983  -0.2979  -0.2789  -0.2469
    -0.2463  -0.2375  -0.2367  -0.1696  -0.1687  -0.1322  -0.1315  -0.0745
    -0.0726  -0.0714  -0.0608  -0.0432   0.1787   0.1843   0.5272   0.5273
     0.6172   0.6224   0.8089   0.8312   0.8451   0.9754   0.9764   1.4074
     1.4076   1.4257   1.6841   1.7174   1.7177   1.9918   1.9987   2.0736
     2.0741   2.0998   2.1047   2.3297   2.3308   2.4185   2.4188   2.4881
     2.5549   2.5635   2.7222   2.8208   3.2595   3.2613   3.2637   3.2671
     3.3191   3.3201   3.6115   3.6121   3.8912   3.8961   3.9918   4.3075
     4.3488   4.3522   4.5529   4.5631   4.6506   4.6525   4.7431   4.8588
     4.8623   4.9776   4.9792   5.0671   5.2822   5.3472   5.3549   5.5076
     5.5190   5.7341   5.7380   5.7406   5.7653   5.7667   5.8270   5.8316
     5.8633   5.9945   6.2427   6.3529   6.4263   6.4428   6.5637   6.5718
     6.5726   6.5837   6.5921   6.6979   6.8248   6.8269   6.9201   6.9616
     6.9920   7.0442   7.0501

          k = 0.0000-0.2887 0.1111 (136898 PWs)   bands (ev):

   -18.9916  -6.8007  -6.4258  -5.6337  -5.3426  -5.2835  -5.2832  -4.7450
    -4.7448  -4.6134  -4.6127  -4.4585  -4.4267  -4.3655  -4.3319  -4.3316
    -4.2983  -4.2982  -4.1696  -4.1279  -4.1278  -4.0678  -4.0470  -4.0468
    -3.9444  -3.9443  -3.9083  -3.9080  -3.9079  -3.8812  -3.8595  -3.8594
    -3.7544  -3.7524  -3.7522  -3.7316  -3.7148  -3.7146  -3.7025  -3.7024
    -3.6891  -3.6589  -3.6588  -3.6584  -3.6582  -3.6262  -3.6258  -3.6080
    -3.6079  -3.5933  -3.5502  -3.5495  -3.5205  -3.5052  -3.5046  -3.4997
    -3.4996  -3.4252  -3.4251  -3.3897  -3.3887  -3.3872  -3.3198  -3.3196
    -3.3050  -3.3041  -3.2737  -3.2726  -3.2724  -3.2719  -3.1295  -3.1187
    -3.1090  -3.0925  -3.0911  -3.0862  -3.0715  -3.0672  -3.0454  -3.0430
    -2.9956  -2.9943  -2.9793  -2.9784  -2.9581  -2.9101  -2.9097  -2.8903
    -2.8858  -2.8848  -2.8447  -2.8441  -2.8381  -2.8368  -2.8216  -2.8199
    -2.7816  -2.7812  -2.7599  -2.7595  -2.7565  -2.7557  -2.7529  -2.6763
    -2.6758  -2.6744  -2.6460  -2.6448  -2.5840  -2.5836  -2.5552  -2.5544
    -2.5412  -2.5406  -2.5356  -2.5060  -2.5059  -2.4964  -2.4786  -2.4534
    -2.4529  -2.4528  -2.4320  -2.4318  -2.4210  -2.4203  -2.4174  -2.4164
    -2.4090  -2.3628  -2.3305  -2.3304  -2.3145  -2.3008  -2.2942  -2.2942
    -2.2870  -2.2862  -2.2851  -2.2552  -2.2549  -2.2545  -2.2449  -2.2448
    -2.2277  -2.2005  -2.2000  -2.1995  -2.1984  -2.1973  -2.1533  -2.1217
    -2.1215  -2.1208  -2.1146  -2.1057  -2.0926  -2.0924  -2.0756  -2.0755
    -2.0418  -2.0408  -2.0405  -2.0223  -2.0207  -2.0205  -1.9876  -1.9870
    -1.9461  -1.9452  -1.9382  -1.9363  -1.9358  -1.9298  -1.9294  -1.9274
    -1.9263  -1.9204  -1.9191  -1.9033  -1.9025  -1.7761  -1.7754  -1.7432
    -1.7379  -1.7364  -1.7316  -1.7311  -1.7146  -1.7134  -1.7109  -1.7106
    -1.7079  -1.6859  -1.6781  -1.6773  -1.6723  -1.6656  -1.6639  -1.6428
    -1.6424  -1.6142  -1.6137  -1.5817  -1.5815  -1.5710  -1.5631  -1.5454
    -1.5444  -1.5419  -1.5238  -1.5115  -1.5111  -1.5041  -1.5037  -1.4769
    -1.4767  -1.4605  -1.4597  -1.4286  -1.4264  -1.4180  -1.3672  -1.3665
    -1.3547  -1.3542  -1.3515  -1.3285  -1.3254  -1.2923  -1.2918  -1.2908
    -1.2582  -1.2484  -1.2467  -1.2317  -1.2312  -1.2059  -1.2041  -1.2028
    -1.1736  -1.1712  -1.1708  -1.1086  -1.1081  -1.0958  -1.0939  -1.0789
    -1.0783  -1.0663  -1.0655  -1.0471  -1.0347  -1.0156  -1.0068  -1.0047
    -0.9935  -0.9638  -0.9564  -0.9548  -0.9453  -0.9449  -0.9431  -0.9377
    -0.9340  -0.9241  -0.8934  -0.8929  -0.8827  -0.8817  -0.8795  -0.8750
    -0.8564  -0.8381  -0.8350  -0.8173  -0.8141  -0.7234  -0.7107  -0.7049
    -0.7048  -0.7005  -0.6957  -0.6941  -0.6726  -0.6693  -0.6548  -0.6529
    -0.6395  -0.6384  -0.6303  -0.6104  -0.6079  -0.6076  -0.5995  -0.5277
    -0.5274  -0.4942  -0.4918  -0.4892  -0.4828  -0.4813  -0.4806  -0.4797
    -0.4683  -0.4655  -0.4508  -0.4261  -0.4118  -0.3922  -0.3912  -0.3808
    -0.3795  -0.3680  -0.3667  -0.3664  -0.3649  -0.3637  -0.3471  -0.3432
    -0.3419  -0.3120  -0.3108  -0.3094  -0.2982  -0.2980  -0.2789  -0.2469
    -0.2462  -0.2376  -0.2367  -0.1695  -0.1687  -0.1322  -0.1316  -0.0745
    -0.0724  -0.0716  -0.0606  -0.0432   0.1775   0.1852   0.5272   0.5273
     0.6161   0.6232   0.8103   0.8307   0.8449   0.9751   0.9767   1.4075
     1.4075   1.4259   1.6840   1.7175   1.7176   1.9902   2.0003   2.0734
     2.0742   2.0989   2.1056   2.3299   2.3305   2.4184   2.4189   2.4877
     2.5535   2.5652   2.7224   2.8206   3.2597   3.2614   3.2631   3.2676
     3.3191   3.3196   3.6116   3.6119   3.8900   3.8969   3.9912   4.3075
     4.3482   4.3529   4.5562   4.5641   4.6505   4.6529   4.7427   4.8588
     4.8632   4.9772   4.9795   5.0587   5.2820   5.3483   5.3543   5.5005
     5.5231   5.7374   5.7384   5.7455   5.7652   5.7667   5.8268   5.8304
     5.8719   6.0165   6.2558   6.2811   6.4316   6.4457   6.5689   6.5717
     6.5758   6.5830   6.5962   6.7323   6.8238   6.8278   6.8438   6.9705
     7.0017   7.0378   7.0570

          k = 0.0000 0.2887 0.1111 (136898 PWs)   bands (ev):

   -18.9916  -6.8007  -6.4258  -5.6337  -5.3426  -5.2835  -5.2832  -4.7450
    -4.7448  -4.6134  -4.6127  -4.4585  -4.4267  -4.3655  -4.3319  -4.3316
    -4.2983  -4.2982  -4.1696  -4.1279  -4.1278  -4.0678  -4.0470  -4.0468
    -3.9444  -3.9443  -3.9083  -3.9080  -3.9079  -3.8812  -3.8595  -3.8594
    -3.7544  -3.7524  -3.7522  -3.7316  -3.7148  -3.7146  -3.7024  -3.7024
    -3.6891  -3.6589  -3.6588  -3.6584  -3.6582  -3.6262  -3.6258  -3.6081
    -3.6079  -3.5933  -3.5502  -3.5495  -3.5205  -3.5052  -3.5046  -3.4997
    -3.4996  -3.4252  -3.4251  -3.3897  -3.3887  -3.3872  -3.3198  -3.3196
    -3.3050  -3.3041  -3.2737  -3.2726  -3.2724  -3.2719  -3.1295  -3.1187
    -3.1090  -3.0925  -3.0911  -3.0862  -3.0715  -3.0672  -3.0454  -3.0430
    -2.9956  -2.9943  -2.9793  -2.9784  -2.9581  -2.9101  -2.9097  -2.8903
    -2.8858  -2.8848  -2.8447  -2.8441  -2.8381  -2.8368  -2.8216  -2.8199
    -2.7816  -2.7812  -2.7599  -2.7595  -2.7565  -2.7557  -2.7529  -2.6763
    -2.6758  -2.6744  -2.6460  -2.6448  -2.5840  -2.5836  -2.5552  -2.5544
    -2.5412  -2.5406  -2.5356  -2.5060  -2.5059  -2.4964  -2.4786  -2.4534
    -2.4529  -2.4528  -2.4320  -2.4318  -2.4210  -2.4203  -2.4174  -2.4164
    -2.4090  -2.3628  -2.3306  -2.3304  -2.3145  -2.3008  -2.2942  -2.2942
    -2.2870  -2.2862  -2.2851  -2.2552  -2.2549  -2.2545  -2.2449  -2.2448
    -2.2277  -2.2005  -2.2000  -2.1995  -2.1984  -2.1973  -2.1533  -2.1217
    -2.1215  -2.1208  -2.1146  -2.1057  -2.0926  -2.0924  -2.0756  -2.0755
    -2.0418  -2.0408  -2.0405  -2.0223  -2.0207  -2.0205  -1.9876  -1.9870
    -1.9461  -1.9452  -1.9382  -1.9363  -1.9358  -1.9298  -1.9294  -1.9274
    -1.9263  -1.9204  -1.9191  -1.9033  -1.9025  -1.7761  -1.7754  -1.7432
    -1.7379  -1.7364  -1.7316  -1.7311  -1.7146  -1.7134  -1.7109  -1.7106
    -1.7079  -1.6859  -1.6781  -1.6773  -1.6723  -1.6656  -1.6639  -1.6428
    -1.6424  -1.6142  -1.6137  -1.5817  -1.5815  -1.5710  -1.5631  -1.5454
    -1.5444  -1.5419  -1.5237  -1.5114  -1.5111  -1.5041  -1.5037  -1.4769
    -1.4767  -1.4605  -1.4597  -1.4286  -1.4264  -1.4180  -1.3672  -1.3665
    -1.3547  -1.3542  -1.3515  -1.3285  -1.3254  -1.2923  -1.2918  -1.2908
    -1.2582  -1.2483  -1.2467  -1.2317  -1.2312  -1.2059  -1.2041  -1.2029
    -1.1736  -1.1712  -1.1708  -1.1086  -1.1081  -1.0958  -1.0939  -1.0789
    -1.0783  -1.0663  -1.0655  -1.0471  -1.0347  -1.0156  -1.0068  -1.0047
    -0.9935  -0.9638  -0.9564  -0.9548  -0.9453  -0.9449  -0.9431  -0.9377
    -0.9340  -0.9241  -0.8934  -0.8929  -0.8827  -0.8817  -0.8795  -0.8750
    -0.8564  -0.8381  -0.8350  -0.8173  -0.8141  -0.7234  -0.7107  -0.7049
    -0.7048  -0.7005  -0.6957  -0.6941  -0.6726  -0.6693  -0.6548  -0.6529
    -0.6395  -0.6384  -0.6303  -0.6104  -0.6079  -0.6076  -0.5995  -0.5277
    -0.5274  -0.4942  -0.4918  -0.4892  -0.4828  -0.4813  -0.4806  -0.4797
    -0.4683  -0.4655  -0.4508  -0.4261  -0.4117  -0.3922  -0.3912  -0.3808
    -0.3795  -0.3681  -0.3667  -0.3664  -0.3649  -0.3637  -0.3471  -0.3432
    -0.3419  -0.3120  -0.3108  -0.3094  -0.2982  -0.2980  -0.2789  -0.2469
    -0.2462  -0.2375  -0.2367  -0.1695  -0.1687  -0.1322  -0.1316  -0.0745
    -0.0724  -0.0716  -0.0606  -0.0432   0.1775   0.1852   0.5272   0.5273
     0.6161   0.6232   0.8103   0.8307   0.8449   0.9751   0.9767   1.4075
     1.4075   1.4259   1.6840   1.7175   1.7176   1.9902   2.0003   2.0734
     2.0742   2.0989   2.1056   2.3299   2.3305   2.4184   2.4189   2.4877
     2.5535   2.5652   2.7224   2.8206   3.2597   3.2614   3.2631   3.2676
     3.3191   3.3196   3.6116   3.6119   3.8900   3.8969   3.9912   4.3075
     4.3482   4.3529   4.5562   4.5641   4.6505   4.6529   4.7427   4.8588
     4.8632   4.9772   4.9795   5.0587   5.2820   5.3483   5.3543   5.5005
     5.5230   5.7374   5.7386   5.7454   5.7652   5.7667   5.8268   5.8304
     5.8720   6.0163   6.2554   6.2811   6.4320   6.4454   6.5682   6.5717
     6.5746   6.5830   6.5956   6.7314   6.8239   6.8278   6.8446   6.9744
     7.0058   7.0384   7.0587

     the Fermi energy is     1.5503 ev

!    total energy              =   -6604.43531330 Ry
     Harris-Foulkes estimate   =   -6604.43531329 Ry
     estimated scf accuracy    <          1.8E-09 Ry

     The total energy is the sum of the following terms:

     one-electron contribution =  -48538.78306688 Ry
     hartree contribution      =   24773.50343370 Ry
     xc contribution           =   -3204.95870639 Ry
     ewald contribution        =   20365.80014417 Ry
     smearing contrib. (-TS)   =       0.00288210 Ry

     convergence has been achieved in  25 iterations

     Writing output data file 4802449.save

     init_run     :    152.42s CPU    167.35s WALL (       1 calls)
     electrons    :  10948.66s CPU  11374.05s WALL (       1 calls)

     Called by init_run:
     wfcinit      :    117.30s CPU    125.91s WALL (       1 calls)
     potinit      :     10.02s CPU     10.42s WALL (       1 calls)

     Called by electrons:
     c_bands      :   9434.77s CPU   9786.32s WALL (      26 calls)
     sum_band     :   1166.42s CPU   1223.33s WALL (      26 calls)
     v_of_rho     :    101.98s CPU    111.14s WALL (      26 calls)
     newd         :    254.53s CPU    256.82s WALL (      26 calls)
     mix_rho      :      3.46s CPU      3.75s WALL (      26 calls)
     vdW_energy   :      5.71s CPU      6.42s WALL (      26 calls)
     vdW_ffts     :     55.48s CPU     59.89s WALL (      52 calls)
     vdW_v        :     14.01s CPU     14.71s WALL (      26 calls)

     Called by c_bands:
     init_us_2    :     12.10s CPU     12.54s WALL (     636 calls)
     cegterg      :   9198.94s CPU   9534.92s WALL (     312 calls)

     Called by *egterg:
     h_psi        :   3627.67s CPU   3867.93s WALL (    1873 calls)
     s_psi        :    440.76s CPU    445.21s WALL (    1873 calls)
     g_psi        :      6.16s CPU      6.18s WALL (    1549 calls)
     cdiaghg      :   2340.07s CPU   2346.05s WALL (    1849 calls)

     Called by h_psi:
     add_vuspsi   :    443.07s CPU    450.48s WALL (    1873 calls)

     General routines
     calbec       :   1105.45s CPU   1108.55s WALL (    2185 calls)
     fft          :    193.26s CPU    204.45s WALL (    1716 calls)
     ffts         :      1.68s CPU      1.84s WALL (      52 calls)
     fftw         :   2770.32s CPU   3035.53s WALL (  757950 calls)
     interpolate  :      4.10s CPU      4.58s WALL (      52 calls)
     davcio       :      0.02s CPU      0.18s WALL (      12 calls)

     Parallel routines
     fft_scatter  :   2216.54s CPU   2431.57s WALL (  759718 calls)

     PWSCF        :     3h 5m CPU        3h13m WALL


   This run was terminated on:  20: 7: 0  23Jun2015            

=------------------------------------------------------------------------------=
   JOB DONE.
=------------------------------------------------------------------------------=
