Setting SGE environment for SCC

     Program PWSCF v.5.1.2 starts on 25Jun2015 at 10:40:40 

     This program is part of the open-source Quantum ESPRESSO suite
     for quantum simulation of materials; please cite
         "P. Giannozzi et al., J. Phys.:Condens. Matter 21 395502 (2009);
          URL http://www.quantum-espresso.org", 
     in publications or presentations arising from this work. More details at
     http://www.quantum-espresso.org/quote

     Parallel version (MPI), running on    32 processors
     R & G space division:  proc/nbgrp/npool/nimage =      32
     Reading input from top.O1.Au50.d.3.0.phi.45.psi.0.in
Warning: card &IONS ignored
Warning: card / ignored
Warning: card &CELL ignored
Warning: card / ignored

     Current dimensions of program PWSCF are:
     Max number of different atomic species (ntypx) = 10
     Max number of k-points (npk) =  40000
     Max angular momentum in pseudopotentials (lmaxx) =  3

     IMPORTANT: XC functional enforced from input :
     Exchange-correlation      = VDW-DF ( 1  4  4  0 1 0)
     Any further DFT definition will be discarded
     Please, verify this is what you really want


     Subspace diagonalization in iterative solution of the eigenvalue problem:
     a serial algorithm will be used


     Parallelization info
     --------------------
     sticks:   dense  smooth     PW     G-vecs:    dense   smooth      PW
     Min         445     223     58                96775    34191    4534
     Max         446     224     59                96790    34246    4540
     Sum       14269    7147   1867              3097177  1095093  145167


     Title: 
     top.O1.Au50.d.3.0.phi.45.psi.0                                             


     bravais-lattice index     =            4
     lattice parameter (alat)  =      22.7436  a.u.
     unit-cell volume          =   22924.1508 (a.u.)^3
     number of atoms/cell      =           67
     number of atomic types    =            3
     number of electrons       =       712.00
     number of Kohn-Sham states=          427
     kinetic-energy cutoff     =      50.0000  Ry
     charge density cutoff     =     400.0000  Ry
     convergence threshold     =      1.0E-08
     mixing beta               =       0.7000
     number of iterations used =            8  plain     mixing
     Exchange-correlation      = VDW-DF ( 1  4  4  0 1 0)

     celldm(1)=  22.743643  celldm(2)=   0.000000  celldm(3)=   2.250000
     celldm(4)=   0.000000  celldm(5)=   0.000000  celldm(6)=   0.000000

     crystal axes: (cart. coord. in units of alat)
               a(1) = (   1.000000   0.000000   0.000000 )  
               a(2) = (  -0.500000   0.866025   0.000000 )  
               a(3) = (   0.000000   0.000000   2.250000 )  

     reciprocal axes: (cart. coord. in units 2 pi/alat)
               b(1) = (  1.000000  0.577350 -0.000000 )  
               b(2) = (  0.000000  1.154701  0.000000 )  
               b(3) = (  0.000000 -0.000000  0.444444 )  


     PseudoPot. # 1 for Au read from file:
     /home/scc/andrejb/qe/pseudo/Au.pbe-nd-van.UPF
     MD5 check sum: 458681b50f36d87ef23c61b04bba420a
     Pseudo is Ultrasoft + core correction, Zval = 11.0
     Generated by new atomic code, or converted to UPF format
     Using radial grid of  985 points,  3 beta functions with: 
                l(1) =   1
                l(2) =   2
                l(3) =   2
     Q(r) pseudized with  8 coefficients,  rinner =    1.100   1.100   1.100
                                                       1.100   1.100

     PseudoPot. # 2 for H  read from file:
     /home/scc/andrejb/qe/pseudo/H.pbe-van_ak.UPF
     MD5 check sum: 403db7282739603aa925980fa9b8608d
     Pseudo is Ultrasoft, Zval =  1.0
     Generated by new atomic code, or converted to UPF format
     Using radial grid of  615 points,  1 beta functions with: 
                l(1) =   0
     Q(r) pseudized with  8 coefficients,  rinner =    0.800

     PseudoPot. # 3 for O  read from file:
     /home/scc/andrejb/qe/pseudo/O.pbe-van_ak.UPF
     MD5 check sum: 4b8c549914a63cae506c6ff22b5af4fe
     Pseudo is Ultrasoft, Zval =  6.0
     Generated by new atomic code, or converted to UPF format
     Using radial grid of  737 points,  4 beta functions with: 
                l(1) =   0
                l(2) =   0
                l(3) =   1
                l(4) =   1
     Q(r) pseudized with  8 coefficients,  rinner =    0.800   0.800   0.800


     vdW kernel table read from file vdW_kernel_table
     MD5 check sum: 48e77a2e26edf626eeb0eaa751ad5cac

     atomic species   valence    mass     pseudopotential
        Au            11.00   196.96657     Au( 1.00)
        H              1.00     1.01000     H ( 1.00)
        O              6.00    16.00000     O ( 1.00)

     No symmetry found



   Cartesian axes

     site n.     atom                  positions (alat units)
         1           O   tau(   1) = (   0.4790780   0.3968269   0.8622611  )
         2           H   tau(   2) = (   0.4731484   0.3321400   0.9105147  )
         3           H   tau(   3) = (   0.4848144   0.4595658   0.9130218  )
         4           Au  tau(   4) = (   0.3540481   0.6132292   0.0000000  )
         5           Au  tau(   5) = (   0.4790062   0.3967954   0.0000000  )
         6           Au  tau(   6) = (   0.6039644   0.1803616   0.0000000  )
         7           Au  tau(   7) = (   0.7289225  -0.0360723   0.0000000  )
         8           Au  tau(   8) = (   0.1041318   0.6132292   0.0000000  )
         9           Au  tau(   9) = (   0.2290899   0.3967954   0.0000000  )
        10           Au  tau(  10) = (   0.3540481   0.1803616   0.0000000  )
        11           Au  tau(  11) = (   0.4790062  -0.0360723   0.0000000  )
        12           Au  tau(  12) = (  -0.1457845   0.6132292   0.0000000  )
        13           Au  tau(  13) = (  -0.0208264   0.3967954   0.0000000  )
        14           Au  tau(  14) = (   0.1041318   0.1803616   0.0000000  )
        15           Au  tau(  15) = (   0.2290899  -0.0360723   0.0000000  )
        16           Au  tau(  16) = (  -0.3957008   0.6132292   0.0000000  )
        17           Au  tau(  17) = (  -0.2707426   0.3967954   0.0000000  )
        18           Au  tau(  18) = (  -0.1457845   0.1803616   0.0000000  )
        19           Au  tau(  19) = (  -0.0208264  -0.0360723   0.0000000  )
        20           Au  tau(  20) = (   0.4790062   0.6853738   0.2040557  )
        21           Au  tau(  21) = (   0.6039644   0.4689400   0.2040557  )
        22           Au  tau(  22) = (   0.7289225   0.2525062   0.2040557  )
        23           Au  tau(  23) = (   0.8538806   0.0360723   0.2040557  )
        24           Au  tau(  24) = (   0.2290899   0.6853738   0.2040557  )
        25           Au  tau(  25) = (   0.3540481   0.4689400   0.2040557  )
        26           Au  tau(  26) = (   0.4790062   0.2525062   0.2040557  )
        27           Au  tau(  27) = (   0.6039644   0.0360723   0.2040557  )
        28           Au  tau(  28) = (  -0.0208264   0.6853738   0.2040557  )
        29           Au  tau(  29) = (   0.1041318   0.4689400   0.2040557  )
        30           Au  tau(  30) = (   0.2290899   0.2525062   0.2040557  )
        31           Au  tau(  31) = (   0.3540481   0.0360723   0.2040557  )
        32           Au  tau(  32) = (  -0.2707426   0.6853738   0.2040557  )
        33           Au  tau(  33) = (  -0.1457845   0.4689400   0.2040557  )
        34           Au  tau(  34) = (  -0.0208264   0.2525062   0.2040557  )
        35           Au  tau(  35) = (   0.1041318   0.0360723   0.2040557  )
        36           Au  tau(  36) = (   0.3541162   0.7576593   0.4066483  )
        37           Au  tau(  37) = (   0.4791000   0.5411421   0.4066696  )
        38           Au  tau(  38) = (   0.6040570   0.3246862   0.4066618  )
        39           Au  tau(  39) = (   0.7290270   0.1081684   0.4066530  )
        40           Au  tau(  40) = (   0.1041162   0.7576236   0.4066247  )
        41           Au  tau(  41) = (   0.2291001   0.5411062   0.4066455  )
        42           Au  tau(  42) = (   0.3540567   0.3246505   0.4066380  )
        43           Au  tau(  43) = (   0.4790276   0.1081324   0.4066292  )
        44           Au  tau(  44) = (  -0.1458201   0.7576104   0.4066225  )
        45           Au  tau(  45) = (  -0.0208365   0.5410930   0.4066438  )
        46           Au  tau(  46) = (   0.1041202   0.3246372   0.4066359  )
        47           Au  tau(  47) = (   0.2290908   0.1081193   0.4066273  )
        48           Au  tau(  48) = (  -0.3958167   0.7575791   0.4065812  )
        49           Au  tau(  49) = (  -0.2708328   0.5410617   0.4066025  )
        50           Au  tau(  50) = (  -0.1458763   0.3246061   0.4065947  )
        51           Au  tau(  51) = (  -0.0209056   0.1080882   0.4065858  )
        52           Au  tau(  52) = (   0.3541084   0.6133344   0.6129762  )
        53           Au  tau(  53) = (   0.4790780   0.3968269   0.6129968  )
        54           Au  tau(  54) = (   0.6040356   0.1803811   0.6129859  )
        55           Au  tau(  55) = (   0.7290165  -0.0361221   0.6129385  )
        56           Au  tau(  56) = (   0.1041243   0.6133091   0.6130023  )
        57           Au  tau(  57) = (   0.2290941   0.3968013   0.6130241  )
        58           Au  tau(  58) = (   0.3540515   0.1803552   0.6130121  )
        59           Au  tau(  59) = (   0.4790323  -0.0361475   0.6129659  )
        60           Au  tau(  60) = (  -0.1458030   0.6133014   0.6129980  )
        61           Au  tau(  61) = (  -0.0208339   0.3967936   0.6130189  )
        62           Au  tau(  62) = (   0.1041239   0.1803477   0.6130083  )
        63           Au  tau(  63) = (   0.2291046  -0.0361554   0.6129607  )
        64           Au  tau(  64) = (  -0.3957908   0.6132739   0.6129471  )
        65           Au  tau(  65) = (  -0.2708208   0.3967658   0.6129688  )
        66           Au  tau(  66) = (  -0.1458636   0.1803200   0.6129569  )
        67           Au  tau(  67) = (  -0.0208823  -0.0361826   0.6129110  )

     number of k points=    12  Marzari-Vanderbilt smearing, width (Ry)=  0.0200
                       cart. coord. in units 2pi/alat
        k(    1) = (   0.2500000   0.4330127   0.1111111), wk =   0.1666667
        k(    2) = (   0.2500000  -0.1443376   0.1111111), wk =   0.1666667
        k(    3) = (  -0.2500000  -0.4330127   0.1111111), wk =   0.1666667
        k(    4) = (  -0.2500000   0.4330127  -0.1111111), wk =   0.1666667
        k(    5) = (   0.2500000  -0.4330127  -0.1111111), wk =   0.1666667
        k(    6) = (   0.5000000   0.0000000   0.1111111), wk =   0.1666667
        k(    7) = (  -0.5000000   0.0000000   0.1111111), wk =   0.1666667
        k(    8) = (  -0.2500000   0.1443376   0.1111111), wk =   0.1666667
        k(    9) = (  -0.2500000  -0.1443376  -0.1111111), wk =   0.1666667
        k(   10) = (   0.2500000   0.1443376  -0.1111111), wk =   0.1666667
        k(   11) = (   0.0000000  -0.2886751   0.1111111), wk =   0.1666667
        k(   12) = (   0.0000000   0.2886751   0.1111111), wk =   0.1666667

     Dense  grid:  3097177 G-vectors     FFT dimensions: ( 150, 150, 360)

     Smooth grid:  1095093 G-vectors     FFT dimensions: ( 108, 108, 240)

     Largest allocated arrays     est. size (Mb)     dimensions
        Kohn-Sham Wavefunctions        28.01 Mb     (    4299,  427)
        NL pseudopotentials            55.23 Mb     (    4299,  842)
        Each V/rho on FFT grid          4.12 Mb     (  270000)
        Each G-vector array             0.74 Mb     (   96788)
        G-vector shells                 0.16 Mb     (   21404)
     Largest temporary arrays     est. size (Mb)     dimensions
        Auxiliary wavefunctions       112.04 Mb     (    4299, 1708)
        Each subspace H/S matrix       44.51 Mb     (    1708, 1708)
        Each <psi_i|beta_j> matrix      5.49 Mb     (     842,  427)
        Arrays for rho mixing          32.96 Mb     (  270000,    8)

     Initial potential from superposition of free atoms
     Check: negative starting charge=   -1.730202

     starting charge  711.25682, renormalised to  712.00000

     negative rho (up, down):  1.732E+00 0.000E+00


     ************************************************************************
     *
     * You are using vdW-DF for exchange-correlation in this calculation.
     * Please cite the following three references that made this development
     * possible:
     *
     *   M. Dion, H. Rydberg, E. Schroder, D. C. Langreth, and
     *   B. I. Lundqvist, Phys. Rev. Lett. 92, 246401 (2004).
     *
     *   T. Thonhauser, V. R. Cooper, S. Li, A. Puzder, P. Hyldgaard, and
     *   D. C. Langreth, Phys. Rev. B 76, 125112 (2007).
     *
     *   G. Roman-Perez and J. M. Soler, Phys. Rev. Lett. 103, 096102 (2009).
     *
     *
     * If you are using vdW-DF2, please also cite:
     *
     *   K. Lee, E. D. Murray, L. Kong, B. I. Lundqvist, and
     *   D. C. Langreth, Phys. Rev. B 82, 081101(R) (2010).
     *
     *
     * If you are calculating the stress with vdW-DF, please also cite:
     *
     *   R. Sabatini, E. Kucukbenli, B. Kolb, T. Thonhauser, and
     *   S. de Gironcoli, J. Phys.: Condens. Matter 24, 424209 (2012).
     *
     ************************************************************************

     Carrying out vdW-DF run using the following parameters:

     Nqs =      20    Nr_points =    1024   r_max =   100.000
     q_mesh =
               0.00001000     0.04494208     0.09755937     0.15916263
               0.23128650     0.31572767     0.41458969     0.53033537
               0.66584808     0.82450364     1.01025438     1.22772762
               1.48234092     1.78043706     2.12944203     2.53805004
               3.01644009     3.57652955     4.23227104     5.00000000

     Gradients computed in reciprocal space

     ************************************************************************


     Starting wfc are  582 randomized atomic wfcs

     total cpu time spent up to now is      226.0 secs

     Self-consistent Calculation

     iteration #  1     ecut=    50.00 Ry     beta=0.70
     Davidson diagonalization with overlap
     ethr =  1.00E-02,  avg # of iterations =  3.0

     Threshold (ethr) on eigenvalues was too large:
     Diagonalizing with lowered threshold

     Davidson diagonalization with overlap
     ethr =  3.56E-04,  avg # of iterations =  5.3

     negative rho (up, down):  1.728E+00 0.000E+00

     total cpu time spent up to now is     1080.5 secs

     total energy              =   -6602.76188324 Ry
     Harris-Foulkes estimate   =   -6605.05460569 Ry
     estimated scf accuracy    <       2.86775122 Ry

     iteration #  2     ecut=    50.00 Ry     beta=0.70
     Davidson diagonalization with overlap
     ethr =  4.03E-04,  avg # of iterations = 11.8

     negative rho (up, down):  1.725E+00 0.000E+00

     total cpu time spent up to now is     2333.1 secs

     total energy              =   -6596.08714382 Ry
     Harris-Foulkes estimate   =   -6610.30186924 Ry
     estimated scf accuracy    <      81.37856274 Ry

     iteration #  3     ecut=    50.00 Ry     beta=0.70
     Davidson diagonalization with overlap
     ethr =  4.03E-04,  avg # of iterations =  6.0

     negative rho (up, down):  1.734E+00 0.000E+00

     total cpu time spent up to now is     3161.1 secs

     total energy              =   -6603.02788180 Ry
     Harris-Foulkes estimate   =   -6605.02427838 Ry
     estimated scf accuracy    <       9.56123668 Ry

     iteration #  4     ecut=    50.00 Ry     beta=0.70
     Davidson diagonalization with overlap
     ethr =  4.03E-04,  avg # of iterations =  6.4

     negative rho (up, down):  1.736E+00 0.000E+00

     total cpu time spent up to now is     3630.9 secs

     total energy              =   -6603.38363987 Ry
     Harris-Foulkes estimate   =   -6605.28022107 Ry
     estimated scf accuracy    <      18.38491117 Ry

     iteration #  5     ecut=    50.00 Ry     beta=0.70
     Davidson diagonalization with overlap
     ethr =  4.03E-04,  avg # of iterations =  5.6

     negative rho (up, down):  1.746E+00 0.000E+00

     total cpu time spent up to now is     4099.4 secs

     total energy              =   -6604.32191723 Ry
     Harris-Foulkes estimate   =   -6604.63051529 Ry
     estimated scf accuracy    <       2.10595098 Ry

     iteration #  6     ecut=    50.00 Ry     beta=0.70
     Davidson diagonalization with overlap
     ethr =  2.96E-04,  avg # of iterations =  2.4

     negative rho (up, down):  1.750E+00 0.000E+00

     total cpu time spent up to now is     4466.8 secs

     total energy              =   -6604.41914064 Ry
     Harris-Foulkes estimate   =   -6604.47541818 Ry
     estimated scf accuracy    <       0.17307709 Ry

     iteration #  7     ecut=    50.00 Ry     beta=0.70
     Davidson diagonalization with overlap
     c_bands:  1 eigenvalues not converged
     c_bands:  1 eigenvalues not converged
     ethr =  2.43E-05,  avg # of iterations = 14.7

     negative rho (up, down):  1.753E+00 0.000E+00

     total cpu time spent up to now is     5123.7 secs

     total energy              =   -6604.43079146 Ry
     Harris-Foulkes estimate   =   -6604.45980427 Ry
     estimated scf accuracy    <       0.12201456 Ry

     iteration #  8     ecut=    50.00 Ry     beta=0.70
     Davidson diagonalization with overlap
     ethr =  1.71E-05,  avg # of iterations =  5.0

     negative rho (up, down):  1.754E+00 0.000E+00

     total cpu time spent up to now is     5514.2 secs

     total energy              =   -6604.43432441 Ry
     Harris-Foulkes estimate   =   -6604.44853509 Ry
     estimated scf accuracy    <       0.05117885 Ry

     iteration #  9     ecut=    50.00 Ry     beta=0.70
     Davidson diagonalization with overlap
     ethr =  7.19E-06,  avg # of iterations =  8.8

     negative rho (up, down):  1.755E+00 0.000E+00

     total cpu time spent up to now is     6013.9 secs

     total energy              =   -6604.43532810 Ry
     Harris-Foulkes estimate   =   -6604.44187159 Ry
     estimated scf accuracy    <       0.02106697 Ry

     iteration # 10     ecut=    50.00 Ry     beta=0.70
     Davidson diagonalization with overlap
     ethr =  2.96E-06,  avg # of iterations =  9.1

     negative rho (up, down):  1.756E+00 0.000E+00

     total cpu time spent up to now is     6517.8 secs

     total energy              =   -6604.43606531 Ry
     Harris-Foulkes estimate   =   -6604.43827765 Ry
     estimated scf accuracy    <       0.00816030 Ry

     iteration # 11     ecut=    50.00 Ry     beta=0.70
     Davidson diagonalization with overlap
     ethr =  1.15E-06,  avg # of iterations =  7.6

     negative rho (up, down):  1.757E+00 0.000E+00

     total cpu time spent up to now is     7001.7 secs

     total energy              =   -6604.43617052 Ry
     Harris-Foulkes estimate   =   -6604.43719289 Ry
     estimated scf accuracy    <       0.00463618 Ry

     iteration # 12     ecut=    50.00 Ry     beta=0.70
     Davidson diagonalization with overlap
     ethr =  6.51E-07,  avg # of iterations =  5.2

     negative rho (up, down):  1.758E+00 0.000E+00

     total cpu time spent up to now is     7419.6 secs

     total energy              =   -6604.43584653 Ry
     Harris-Foulkes estimate   =   -6604.43657925 Ry
     estimated scf accuracy    <       0.00125932 Ry

     iteration # 13     ecut=    50.00 Ry     beta=0.70
     Davidson diagonalization with overlap
     ethr =  1.77E-07,  avg # of iterations = 11.4

     negative rho (up, down):  1.758E+00 0.000E+00

     total cpu time spent up to now is     7996.7 secs

     total energy              =   -6604.43604415 Ry
     Harris-Foulkes estimate   =   -6604.43619488 Ry
     estimated scf accuracy    <       0.00043383 Ry

     iteration # 14     ecut=    50.00 Ry     beta=0.70
     Davidson diagonalization with overlap
     ethr =  6.09E-08,  avg # of iterations =  3.0

     negative rho (up, down):  1.757E+00 0.000E+00

     total cpu time spent up to now is     8387.2 secs

     total energy              =   -6604.43611462 Ry
     Harris-Foulkes estimate   =   -6604.43614634 Ry
     estimated scf accuracy    <       0.00010252 Ry

     iteration # 15     ecut=    50.00 Ry     beta=0.70
     Davidson diagonalization with overlap
     ethr =  1.44E-08,  avg # of iterations =  2.0

     negative rho (up, down):  1.757E+00 0.000E+00

     total cpu time spent up to now is     8766.5 secs

     total energy              =   -6604.43612243 Ry
     Harris-Foulkes estimate   =   -6604.43614423 Ry
     estimated scf accuracy    <       0.00010179 Ry

     iteration # 16     ecut=    50.00 Ry     beta=0.70
     Davidson diagonalization with overlap
     ethr =  1.43E-08,  avg # of iterations =  2.0

     negative rho (up, down):  1.757E+00 0.000E+00

     total cpu time spent up to now is     9140.2 secs

     total energy              =   -6604.43613149 Ry
     Harris-Foulkes estimate   =   -6604.43613756 Ry
     estimated scf accuracy    <       0.00002052 Ry

     iteration # 17     ecut=    50.00 Ry     beta=0.70
     Davidson diagonalization with overlap
     ethr =  2.88E-09,  avg # of iterations =  2.0

     negative rho (up, down):  1.757E+00 0.000E+00

     total cpu time spent up to now is     9501.3 secs

     total energy              =   -6604.43613327 Ry
     Harris-Foulkes estimate   =   -6604.43613692 Ry
     estimated scf accuracy    <       0.00001477 Ry

     iteration # 18     ecut=    50.00 Ry     beta=0.70
     Davidson diagonalization with overlap
     ethr =  2.07E-09,  avg # of iterations =  2.0

     negative rho (up, down):  1.757E+00 0.000E+00

     total cpu time spent up to now is     9875.7 secs

     total energy              =   -6604.43613452 Ry
     Harris-Foulkes estimate   =   -6604.43613635 Ry
     estimated scf accuracy    <       0.00000877 Ry

     iteration # 19     ecut=    50.00 Ry     beta=0.70
     Davidson diagonalization with overlap
     ethr =  1.23E-09,  avg # of iterations =  2.0

     negative rho (up, down):  1.757E+00 0.000E+00

     total cpu time spent up to now is    10243.5 secs

     total energy              =   -6604.43613543 Ry
     Harris-Foulkes estimate   =   -6604.43613569 Ry
     estimated scf accuracy    <       0.00000146 Ry

     iteration # 20     ecut=    50.00 Ry     beta=0.70
     Davidson diagonalization with overlap
     ethr =  2.05E-10,  avg # of iterations =  2.0

     negative rho (up, down):  1.757E+00 0.000E+00

     total cpu time spent up to now is    10578.8 secs

     total energy              =   -6604.43613554 Ry
     Harris-Foulkes estimate   =   -6604.43613591 Ry
     estimated scf accuracy    <       0.00000410 Ry

     iteration # 21     ecut=    50.00 Ry     beta=0.70
     Davidson diagonalization with overlap
     ethr =  2.05E-10,  avg # of iterations =  1.2

     negative rho (up, down):  1.757E+00 0.000E+00

     total cpu time spent up to now is    10937.0 secs

     total energy              =   -6604.43613583 Ry
     Harris-Foulkes estimate   =   -6604.43613582 Ry
     estimated scf accuracy    <       0.00000035 Ry

     iteration # 22     ecut=    50.00 Ry     beta=0.70
     Davidson diagonalization with overlap
     ethr =  4.94E-11,  avg # of iterations =  2.0

     negative rho (up, down):  1.757E+00 0.000E+00

     total cpu time spent up to now is    11317.0 secs

     total energy              =   -6604.43613585 Ry
     Harris-Foulkes estimate   =   -6604.43613588 Ry
     estimated scf accuracy    <       0.00000005 Ry

     iteration # 23     ecut=    50.00 Ry     beta=0.70
     Davidson diagonalization with overlap
     ethr =  6.71E-12,  avg # of iterations =  3.0

     negative rho (up, down):  1.757E+00 0.000E+00

     total cpu time spent up to now is    11733.0 secs

     total energy              =   -6604.43613587 Ry
     Harris-Foulkes estimate   =   -6604.43613587 Ry
     estimated scf accuracy    <       0.00000004 Ry

     iteration # 24     ecut=    50.00 Ry     beta=0.70
     Davidson diagonalization with overlap
     ethr =  5.72E-12,  avg # of iterations =  2.0

     negative rho (up, down):  1.757E+00 0.000E+00

     total cpu time spent up to now is    12125.6 secs

     total energy              =   -6604.43613589 Ry
     Harris-Foulkes estimate   =   -6604.43613588 Ry
     estimated scf accuracy    <       0.00000002 Ry

     iteration # 25     ecut=    50.00 Ry     beta=0.70
     Davidson diagonalization with overlap
     ethr =  2.15E-12,  avg # of iterations =  2.0

     negative rho (up, down):  1.757E+00 0.000E+00

     total cpu time spent up to now is    12467.0 secs

     End of self-consistent calculation

          k = 0.2500 0.4330 0.1111 (136853 PWs)   bands (ev):

   -19.2172  -7.0172  -6.1981  -5.7989  -5.7986  -5.1223  -4.7874  -4.7873
    -4.7506  -4.7486  -4.3871  -4.3868  -4.2885  -4.2881  -4.2743  -4.2528
    -4.2298  -4.1211  -4.1204  -4.0966  -4.0529  -4.0527  -3.9855  -3.9840
    -3.9809  -3.9777  -3.9557  -3.9508  -3.9499  -3.8840  -3.8784  -3.8477
    -3.8475  -3.8359  -3.8353  -3.8126  -3.8119  -3.7897  -3.7815  -3.7808
    -3.7569  -3.7029  -3.7019  -3.6552  -3.6536  -3.6017  -3.5953  -3.5601
    -3.5401  -3.5398  -3.5397  -3.5063  -3.4916  -3.4655  -3.4605  -3.4581
    -3.4570  -3.4519  -3.4271  -3.4189  -3.4121  -3.3563  -3.3545  -3.3447
    -3.3276  -3.3213  -3.2504  -3.2445  -3.2174  -3.2151  -3.1890  -3.1881
    -3.1752  -3.1564  -3.0989  -3.0970  -3.0811  -3.0799  -3.0293  -3.0244
    -3.0237  -2.9858  -2.9548  -2.9541  -2.9455  -2.9438  -2.9324  -2.9314
    -2.9247  -2.9242  -2.9140  -2.8732  -2.8357  -2.8346  -2.8213  -2.8208
    -2.7949  -2.7854  -2.7851  -2.7615  -2.7187  -2.7171  -2.7096  -2.6705
    -2.6632  -2.6522  -2.6511  -2.6231  -2.6227  -2.5929  -2.5563  -2.5559
    -2.5338  -2.5261  -2.5127  -2.5119  -2.4619  -2.4613  -2.4289  -2.4060
    -2.4058  -2.3820  -2.3814  -2.3703  -2.3698  -2.3594  -2.3374  -2.3371
    -2.2920  -2.2915  -2.2905  -2.2740  -2.2737  -2.2679  -2.2591  -2.2581
    -2.2566  -2.2561  -2.2497  -2.2378  -2.2370  -2.2291  -2.2012  -2.2010
    -2.1994  -2.1988  -2.1972  -2.1954  -2.1938  -2.1677  -2.1643  -2.1503
    -2.1501  -2.1317  -2.1312  -2.1218  -2.1215  -2.1206  -2.1195  -2.1006
    -2.0994  -2.0987  -2.0969  -2.0800  -2.0547  -2.0534  -2.0140  -2.0134
    -1.9887  -1.9886  -1.9617  -1.9602  -1.9340  -1.9333  -1.9172  -1.9115
    -1.8848  -1.8647  -1.8627  -1.8578  -1.8555  -1.8522  -1.8456  -1.8429
    -1.8182  -1.8115  -1.8023  -1.7466  -1.7427  -1.7404  -1.7395  -1.7370
    -1.7027  -1.6824  -1.6821  -1.6550  -1.6531  -1.5940  -1.5938  -1.5643
    -1.5475  -1.5434  -1.4868  -1.4850  -1.4739  -1.4728  -1.4626  -1.4616
    -1.4578  -1.4502  -1.4491  -1.4060  -1.3914  -1.3822  -1.3808  -1.3788
    -1.3693  -1.3616  -1.3305  -1.3253  -1.3110  -1.3080  -1.3076  -1.3004
    -1.2972  -1.2896  -1.2866  -1.2684  -1.2664  -1.2509  -1.2229  -1.2189
    -1.2133  -1.1977  -1.1820  -1.1739  -1.1360  -1.1299  -1.1088  -1.1046
    -1.1016  -1.0744  -1.0240  -1.0223  -1.0214  -1.0197  -1.0155  -1.0127
    -1.0041  -0.9867  -0.9856  -0.9468  -0.9462  -0.9162  -0.9156  -0.9100
    -0.9088  -0.9028  -0.8864  -0.8859  -0.8845  -0.8821  -0.8799  -0.8459
    -0.8421  -0.8414  -0.8393  -0.8109  -0.8091  -0.8055  -0.7827  -0.7748
    -0.7727  -0.7281  -0.7217  -0.7182  -0.6859  -0.6775  -0.6670  -0.6668
    -0.6596  -0.6589  -0.6574  -0.6534  -0.6454  -0.6418  -0.6191  -0.6184
    -0.6155  -0.6139  -0.6115  -0.5762  -0.5757  -0.5654  -0.5632  -0.5488
    -0.5427  -0.5385  -0.5296  -0.4745  -0.4723  -0.4638  -0.4635  -0.4620
    -0.4611  -0.4554  -0.4379  -0.4345  -0.4283  -0.4279  -0.4262  -0.4220
    -0.3863  -0.3845  -0.3835  -0.3761  -0.3744  -0.3699  -0.3680  -0.3569
    -0.3517  -0.3491  -0.3425  -0.3067  -0.3059  -0.2980  -0.2943  -0.2932
    -0.2171  -0.2164  -0.2140  -0.2127  -0.2046  -0.2028  -0.1678  -0.1554
    -0.1547  -0.1292  -0.1231  -0.1130  -0.0027   0.0004   0.1008   0.5165
     0.5170   0.5195   0.5198   0.5782   0.5887   0.9692   0.9696   1.0116
     1.0127   1.1215   1.2026   1.3083   1.3200   1.5266   1.5486   2.1650
     2.1699   2.3257   2.3331   2.4563   2.4700   2.5654   2.5655   2.7196
     2.9554   2.9570   3.0814   3.3003   3.3127   3.3880   3.3898   3.4884
     3.5047   3.6863   3.6965   3.7607   3.9617   3.9622   4.0215   4.0287
     4.2810   4.2841   4.2970   4.5320   4.5718   4.5760   4.6201   4.9528
     4.9577   4.9841   5.0444   5.1205   5.2922   5.2931   5.3352   5.3817
     5.7114   5.9352   6.0615   6.0783   6.0823   6.0968   6.1528   6.1550
     6.2092   6.2615   6.2877   6.3107   6.3138   6.3220   6.3265   6.3646
     6.3757   6.4037   6.4990   6.5870   6.7105   6.7691   6.9108   6.9821
     7.0176   7.0214   7.0353

          k = 0.2500-0.1443 0.1111 (136898 PWs)   bands (ev):

   -19.2172  -7.0172  -6.4081  -5.6160  -5.3261  -5.2658  -5.2655  -4.7273
    -4.7272  -4.5971  -4.5951  -4.4415  -4.4111  -4.3476  -4.3167  -4.3147
    -4.2807  -4.2804  -4.1517  -4.1099  -4.1098  -4.0509  -4.0314  -4.0295
    -3.9267  -3.9266  -3.8912  -3.8903  -3.8901  -3.8643  -3.8423  -3.8415
    -3.7420  -3.7347  -3.7345  -3.7150  -3.6994  -3.6970  -3.6864  -3.6848
    -3.6726  -3.6443  -3.6412  -3.6407  -3.6404  -3.6099  -3.6084  -3.5929
    -3.5904  -3.5800  -3.5494  -3.5330  -3.5212  -3.4966  -3.4876  -3.4819
    -3.4817  -3.4508  -3.4073  -3.4049  -3.3724  -3.3700  -3.3545  -3.3018
    -3.3012  -3.2866  -3.2799  -3.2554  -3.2551  -3.2544  -3.2502  -3.1009
    -3.0987  -3.0755  -3.0749  -3.0701  -3.0539  -3.0521  -3.0280  -3.0267
    -2.9780  -2.9767  -2.9618  -2.9608  -2.9406  -2.8929  -2.8926  -2.8729
    -2.8683  -2.8669  -2.8273  -2.8265  -2.8202  -2.8185  -2.8043  -2.8014
    -2.7644  -2.7637  -2.7424  -2.7422  -2.7391  -2.7377  -2.7346  -2.6592
    -2.6586  -2.6562  -2.6284  -2.6262  -2.5667  -2.5665  -2.5374  -2.5370
    -2.5240  -2.5230  -2.5174  -2.4886  -2.4884  -2.4783  -2.4612  -2.4363
    -2.4357  -2.4350  -2.4148  -2.4145  -2.4035  -2.4025  -2.4006  -2.3990
    -2.3909  -2.3448  -2.3131  -2.3128  -2.2968  -2.2831  -2.2768  -2.2766
    -2.2696  -2.2683  -2.2671  -2.2379  -2.2374  -2.2365  -2.2275  -2.2264
    -2.2106  -2.1833  -2.1826  -2.1821  -2.1814  -2.1787  -2.1352  -2.1041
    -2.1040  -2.1026  -2.0972  -2.0877  -2.0757  -2.0754  -2.0580  -2.0579
    -2.0250  -2.0235  -2.0231  -2.0047  -2.0040  -2.0037  -1.9709  -1.9705
    -1.9294  -1.9273  -1.9215  -1.9191  -1.9184  -1.9127  -1.9124  -1.9101
    -1.9089  -1.9041  -1.9024  -1.8865  -1.8858  -1.7603  -1.7592  -1.7269
    -1.7216  -1.7200  -1.7140  -1.7132  -1.6974  -1.6960  -1.6952  -1.6939
    -1.6903  -1.6682  -1.6632  -1.6616  -1.6539  -1.6487  -1.6447  -1.6258
    -1.6247  -1.5970  -1.5965  -1.5681  -1.5653  -1.5540  -1.5467  -1.5283
    -1.5267  -1.5247  -1.5067  -1.4940  -1.4932  -1.4869  -1.4862  -1.4615
    -1.4599  -1.4455  -1.4433  -1.4135  -1.4087  -1.4041  -1.3545  -1.3501
    -1.3423  -1.3375  -1.3330  -1.3105  -1.3078  -1.2801  -1.2752  -1.2739
    -1.2589  -1.2338  -1.2298  -1.2188  -1.2142  -1.2091  -1.1873  -1.1854
    -1.1680  -1.1559  -1.1537  -1.1496  -1.0910  -1.0898  -1.0781  -1.0766
    -1.0613  -1.0601  -1.0489  -1.0448  -1.0301  -1.0174  -0.9897  -0.9885
    -0.9769  -0.9472  -0.9401  -0.9371  -0.9275  -0.9272  -0.9257  -0.9212
    -0.9154  -0.9062  -0.8768  -0.8755  -0.8668  -0.8647  -0.8632  -0.8533
    -0.8396  -0.8221  -0.8153  -0.8007  -0.7933  -0.7064  -0.6935  -0.6879
    -0.6876  -0.6831  -0.6787  -0.6752  -0.6529  -0.6526  -0.6383  -0.6349
    -0.6227  -0.6201  -0.6134  -0.5940  -0.5913  -0.5883  -0.5825  -0.5101
    -0.5096  -0.4778  -0.4731  -0.4716  -0.4661  -0.4635  -0.4628  -0.4608
    -0.4512  -0.4464  -0.4306  -0.4082  -0.3932  -0.3750  -0.3733  -0.3637
    -0.3611  -0.3510  -0.3494  -0.3484  -0.3476  -0.3440  -0.3299  -0.3260
    -0.3225  -0.2947  -0.2937  -0.2905  -0.2805  -0.2796  -0.2611  -0.2295
    -0.2279  -0.2202  -0.2179  -0.1518  -0.1503  -0.1148  -0.1145  -0.0569
    -0.0554  -0.0550  -0.0394  -0.0270   0.1927   0.2093   0.5448   0.5450
     0.6312   0.6458   0.8271   0.8546   0.8633   0.9917   0.9952   1.4251
     1.4252   1.4431   1.7024   1.7350   1.7353   2.0040   2.0224   2.0902
     2.0916   2.1140   2.1281   2.3470   2.3475   2.4360   2.4368   2.5016
     2.5677   2.5899   2.7404   2.8393   3.2757   3.2781   3.2793   3.2886
     3.3355   3.3372   3.6289   3.6297   3.9046   3.9172   4.0031   4.3253
     4.3637   4.3724   4.5630   4.5753   4.6663   4.6719   4.7590   4.8751
     4.8835   4.9934   4.9972   5.0370   5.2987   5.3626   5.3741   5.5034
     5.5429   5.7536   5.7549   5.7657   5.7823   5.7845   5.8420   5.8452
     5.8970   6.0253   6.2188   6.2647   6.4437   6.4536   6.5842   6.5881
     6.5917   6.5980   6.6233   6.7452   6.8180   6.8392   6.8463   6.9816
     7.0189   7.0462   7.0738

          k =-0.2500-0.4330 0.1111 (136853 PWs)   bands (ev):

   -19.2172  -7.0172  -6.1981  -5.7989  -5.7986  -5.1223  -4.7874  -4.7873
    -4.7506  -4.7486  -4.3871  -4.3868  -4.2885  -4.2881  -4.2743  -4.2528
    -4.2298  -4.1211  -4.1204  -4.0966  -4.0529  -4.0527  -3.9855  -3.9840
    -3.9809  -3.9777  -3.9557  -3.9508  -3.9499  -3.8840  -3.8784  -3.8477
    -3.8475  -3.8359  -3.8353  -3.8126  -3.8119  -3.7897  -3.7815  -3.7808
    -3.7569  -3.7029  -3.7019  -3.6552  -3.6536  -3.6017  -3.5953  -3.5601
    -3.5401  -3.5398  -3.5397  -3.5063  -3.4916  -3.4655  -3.4605  -3.4581
    -3.4570  -3.4519  -3.4271  -3.4189  -3.4121  -3.3563  -3.3545  -3.3447
    -3.3276  -3.3213  -3.2504  -3.2445  -3.2174  -3.2151  -3.1890  -3.1881
    -3.1752  -3.1564  -3.0989  -3.0970  -3.0811  -3.0799  -3.0293  -3.0244
    -3.0237  -2.9858  -2.9548  -2.9541  -2.9455  -2.9438  -2.9324  -2.9314
    -2.9247  -2.9242  -2.9140  -2.8732  -2.8357  -2.8346  -2.8213  -2.8208
    -2.7949  -2.7854  -2.7851  -2.7615  -2.7187  -2.7171  -2.7096  -2.6705
    -2.6632  -2.6522  -2.6511  -2.6231  -2.6227  -2.5929  -2.5563  -2.5559
    -2.5338  -2.5261  -2.5127  -2.5119  -2.4619  -2.4613  -2.4289  -2.4060
    -2.4058  -2.3820  -2.3814  -2.3703  -2.3698  -2.3594  -2.3374  -2.3371
    -2.2920  -2.2915  -2.2905  -2.2740  -2.2737  -2.2679  -2.2591  -2.2581
    -2.2566  -2.2561  -2.2497  -2.2378  -2.2370  -2.2291  -2.2012  -2.2010
    -2.1994  -2.1988  -2.1972  -2.1954  -2.1938  -2.1677  -2.1643  -2.1503
    -2.1501  -2.1317  -2.1312  -2.1218  -2.1215  -2.1206  -2.1195  -2.1006
    -2.0994  -2.0987  -2.0969  -2.0800  -2.0547  -2.0534  -2.0140  -2.0134
    -1.9887  -1.9886  -1.9617  -1.9602  -1.9340  -1.9333  -1.9172  -1.9115
    -1.8848  -1.8647  -1.8627  -1.8578  -1.8555  -1.8522  -1.8456  -1.8429
    -1.8182  -1.8115  -1.8023  -1.7466  -1.7427  -1.7404  -1.7395  -1.7370
    -1.7027  -1.6824  -1.6821  -1.6550  -1.6531  -1.5940  -1.5938  -1.5643
    -1.5475  -1.5434  -1.4868  -1.4850  -1.4739  -1.4728  -1.4626  -1.4616
    -1.4578  -1.4502  -1.4491  -1.4060  -1.3914  -1.3822  -1.3808  -1.3788
    -1.3693  -1.3616  -1.3305  -1.3253  -1.3110  -1.3080  -1.3076  -1.3004
    -1.2972  -1.2896  -1.2866  -1.2684  -1.2664  -1.2509  -1.2229  -1.2189
    -1.2133  -1.1977  -1.1820  -1.1739  -1.1360  -1.1299  -1.1088  -1.1046
    -1.1016  -1.0744  -1.0240  -1.0223  -1.0214  -1.0197  -1.0155  -1.0127
    -1.0041  -0.9867  -0.9856  -0.9468  -0.9462  -0.9162  -0.9156  -0.9100
    -0.9088  -0.9028  -0.8864  -0.8859  -0.8845  -0.8821  -0.8799  -0.8459
    -0.8421  -0.8414  -0.8393  -0.8109  -0.8091  -0.8055  -0.7827  -0.7748
    -0.7727  -0.7281  -0.7217  -0.7182  -0.6859  -0.6775  -0.6670  -0.6668
    -0.6596  -0.6589  -0.6574  -0.6534  -0.6454  -0.6418  -0.6191  -0.6184
    -0.6155  -0.6139  -0.6115  -0.5762  -0.5757  -0.5654  -0.5632  -0.5488
    -0.5427  -0.5385  -0.5296  -0.4745  -0.4723  -0.4638  -0.4635  -0.4620
    -0.4611  -0.4554  -0.4379  -0.4345  -0.4283  -0.4279  -0.4262  -0.4220
    -0.3863  -0.3845  -0.3835  -0.3761  -0.3744  -0.3699  -0.3680  -0.3569
    -0.3517  -0.3491  -0.3425  -0.3067  -0.3059  -0.2980  -0.2943  -0.2932
    -0.2171  -0.2164  -0.2140  -0.2127  -0.2046  -0.2028  -0.1678  -0.1554
    -0.1547  -0.1292  -0.1231  -0.1130  -0.0027   0.0004   0.1008   0.5165
     0.5170   0.5195   0.5198   0.5782   0.5887   0.9692   0.9696   1.0116
     1.0127   1.1215   1.2026   1.3083   1.3200   1.5266   1.5486   2.1650
     2.1699   2.3257   2.3331   2.4563   2.4700   2.5654   2.5655   2.7196
     2.9554   2.9570   3.0814   3.3003   3.3127   3.3880   3.3898   3.4884
     3.5047   3.6863   3.6965   3.7607   3.9617   3.9622   4.0215   4.0287
     4.2810   4.2841   4.2970   4.5320   4.5718   4.5760   4.6201   4.9528
     4.9577   4.9841   5.0444   5.1205   5.2922   5.2931   5.3352   5.3817
     5.7113   5.9352   6.0616   6.0783   6.0824   6.0970   6.1529   6.1550
     6.2092   6.2616   6.2877   6.3108   6.3139   6.3220   6.3265   6.3647
     6.3757   6.4036   6.4987   6.5854   6.7111   6.7697   6.9119   6.9828
     7.0180   7.0210   7.0355

          k =-0.2500 0.4330-0.1111 (136853 PWs)   bands (ev):

   -19.2172  -7.0172  -6.1981  -5.8002  -5.7973  -5.1223  -4.7879  -4.7868
    -4.7510  -4.7482  -4.3877  -4.3861  -4.2885  -4.2882  -4.2741  -4.2528
    -4.2298  -4.1214  -4.1203  -4.0966  -4.0529  -4.0528  -3.9854  -3.9840
    -3.9812  -3.9775  -3.9556  -3.9520  -3.9487  -3.8838  -3.8786  -3.8484
    -3.8465  -3.8360  -3.8352  -3.8125  -3.8119  -3.7898  -3.7815  -3.7808
    -3.7571  -3.7028  -3.7022  -3.6559  -3.6529  -3.6017  -3.5952  -3.5601
    -3.5403  -3.5399  -3.5395  -3.5064  -3.4916  -3.4656  -3.4605  -3.4582
    -3.4570  -3.4519  -3.4270  -3.4186  -3.4125  -3.3565  -3.3544  -3.3445
    -3.3273  -3.3211  -3.2504  -3.2448  -3.2173  -3.2151  -3.1891  -3.1878
    -3.1751  -3.1566  -3.0992  -3.0971  -3.0812  -3.0795  -3.0293  -3.0244
    -3.0238  -2.9857  -2.9545  -2.9544  -2.9459  -2.9433  -2.9325  -2.9317
    -2.9246  -2.9239  -2.9142  -2.8731  -2.8364  -2.8340  -2.8213  -2.8206
    -2.7950  -2.7857  -2.7849  -2.7615  -2.7192  -2.7165  -2.7098  -2.6703
    -2.6631  -2.6528  -2.6504  -2.6233  -2.6229  -2.5929  -2.5561  -2.5557
    -2.5338  -2.5261  -2.5128  -2.5120  -2.4621  -2.4611  -2.4288  -2.4062
    -2.4059  -2.3820  -2.3817  -2.3702  -2.3697  -2.3596  -2.3379  -2.3368
    -2.2917  -2.2913  -2.2906  -2.2746  -2.2731  -2.2680  -2.2590  -2.2581
    -2.2567  -2.2561  -2.2496  -2.2382  -2.2362  -2.2294  -2.2011  -2.2009
    -2.1995  -2.1988  -2.1972  -2.1953  -2.1936  -2.1678  -2.1644  -2.1502
    -2.1501  -2.1321  -2.1309  -2.1218  -2.1214  -2.1204  -2.1197  -2.1013
    -2.0993  -2.0986  -2.0966  -2.0801  -2.0550  -2.0535  -2.0149  -2.0126
    -1.9894  -1.9881  -1.9615  -1.9599  -1.9341  -1.9330  -1.9171  -1.9114
    -1.8847  -1.8646  -1.8627  -1.8579  -1.8556  -1.8521  -1.8458  -1.8428
    -1.8181  -1.8111  -1.8022  -1.7468  -1.7430  -1.7407  -1.7393  -1.7374
    -1.7031  -1.6830  -1.6813  -1.6551  -1.6531  -1.5945  -1.5931  -1.5646
    -1.5475  -1.5432  -1.4869  -1.4846  -1.4742  -1.4727  -1.4628  -1.4614
    -1.4579  -1.4501  -1.4492  -1.4046  -1.3914  -1.3825  -1.3810  -1.3791
    -1.3680  -1.3616  -1.3321  -1.3255  -1.3107  -1.3082  -1.3073  -1.3002
    -1.2985  -1.2900  -1.2868  -1.2683  -1.2662  -1.2487  -1.2235  -1.2180
    -1.2133  -1.1978  -1.1831  -1.1751  -1.1362  -1.1297  -1.1089  -1.1046
    -1.1003  -1.0746  -1.0241  -1.0223  -1.0216  -1.0201  -1.0161  -1.0124
    -1.0041  -0.9869  -0.9853  -0.9469  -0.9458  -0.9164  -0.9153  -0.9100
    -0.9091  -0.9027  -0.8865  -0.8858  -0.8844  -0.8820  -0.8798  -0.8463
    -0.8422  -0.8413  -0.8388  -0.8110  -0.8094  -0.8051  -0.7829  -0.7750
    -0.7723  -0.7283  -0.7217  -0.7180  -0.6860  -0.6774  -0.6671  -0.6667
    -0.6594  -0.6589  -0.6575  -0.6534  -0.6455  -0.6417  -0.6194  -0.6182
    -0.6155  -0.6141  -0.6116  -0.5761  -0.5756  -0.5658  -0.5630  -0.5487
    -0.5428  -0.5385  -0.5293  -0.4745  -0.4722  -0.4639  -0.4634  -0.4622
    -0.4610  -0.4553  -0.4379  -0.4346  -0.4283  -0.4278  -0.4262  -0.4220
    -0.3863  -0.3846  -0.3833  -0.3764  -0.3743  -0.3697  -0.3681  -0.3569
    -0.3517  -0.3494  -0.3422  -0.3071  -0.3056  -0.2982  -0.2943  -0.2933
    -0.2171  -0.2165  -0.2140  -0.2126  -0.2046  -0.2028  -0.1677  -0.1554
    -0.1547  -0.1299  -0.1231  -0.1123  -0.0029   0.0007   0.1009   0.5164
     0.5171   0.5194   0.5199   0.5778   0.5888   0.9692   0.9695   1.0113
     1.0129   1.1218   1.2027   1.3076   1.3211   1.5258   1.5492   2.1647
     2.1700   2.3252   2.3340   2.4556   2.4707   2.5651   2.5658   2.7195
     2.9556   2.9572   3.0812   3.2997   3.3129   3.3880   3.3900   3.4881
     3.5047   3.6847   3.6978   3.7610   3.9612   3.9627   4.0216   4.0293
     4.2805   4.2837   4.2972   4.5325   4.5720   4.5755   4.6199   4.9520
     4.9582   4.9839   5.0473   5.1200   5.2923   5.2932   5.3320   5.3797
     5.7231   5.9232   6.0668   6.0785   6.0817   6.0986   6.1529   6.1550
     6.2101   6.2615   6.2878   6.3111   6.3135   6.3207   6.3272   6.3652
     6.3761   6.4046   6.4858   6.5907   6.7171   6.7572   6.9172   6.9796
     7.0174   7.0219   7.0353

          k = 0.2500-0.4330-0.1111 (136853 PWs)   bands (ev):

   -19.2172  -7.0172  -6.1981  -5.8002  -5.7973  -5.1223  -4.7879  -4.7868
    -4.7510  -4.7482  -4.3877  -4.3861  -4.2885  -4.2882  -4.2741  -4.2528
    -4.2298  -4.1214  -4.1203  -4.0966  -4.0529  -4.0528  -3.9854  -3.9840
    -3.9812  -3.9775  -3.9556  -3.9520  -3.9487  -3.8838  -3.8786  -3.8484
    -3.8465  -3.8360  -3.8352  -3.8125  -3.8119  -3.7898  -3.7815  -3.7808
    -3.7571  -3.7028  -3.7022  -3.6559  -3.6529  -3.6017  -3.5952  -3.5601
    -3.5403  -3.5399  -3.5395  -3.5064  -3.4916  -3.4656  -3.4605  -3.4582
    -3.4570  -3.4519  -3.4270  -3.4186  -3.4125  -3.3565  -3.3544  -3.3445
    -3.3273  -3.3211  -3.2504  -3.2448  -3.2173  -3.2151  -3.1891  -3.1878
    -3.1751  -3.1566  -3.0992  -3.0971  -3.0812  -3.0795  -3.0293  -3.0244
    -3.0238  -2.9857  -2.9545  -2.9544  -2.9459  -2.9433  -2.9325  -2.9317
    -2.9246  -2.9239  -2.9142  -2.8731  -2.8364  -2.8340  -2.8213  -2.8206
    -2.7950  -2.7857  -2.7849  -2.7615  -2.7192  -2.7165  -2.7098  -2.6703
    -2.6631  -2.6528  -2.6504  -2.6233  -2.6229  -2.5929  -2.5561  -2.5557
    -2.5338  -2.5261  -2.5128  -2.5120  -2.4621  -2.4611  -2.4288  -2.4062
    -2.4059  -2.3820  -2.3817  -2.3702  -2.3697  -2.3596  -2.3379  -2.3368
    -2.2917  -2.2912  -2.2906  -2.2746  -2.2731  -2.2680  -2.2590  -2.2581
    -2.2567  -2.2561  -2.2496  -2.2382  -2.2362  -2.2294  -2.2011  -2.2009
    -2.1995  -2.1988  -2.1972  -2.1953  -2.1936  -2.1678  -2.1644  -2.1502
    -2.1501  -2.1321  -2.1309  -2.1219  -2.1214  -2.1204  -2.1197  -2.1013
    -2.0993  -2.0986  -2.0966  -2.0801  -2.0550  -2.0535  -2.0149  -2.0126
    -1.9894  -1.9881  -1.9615  -1.9599  -1.9341  -1.9330  -1.9171  -1.9114
    -1.8847  -1.8646  -1.8627  -1.8579  -1.8556  -1.8521  -1.8458  -1.8428
    -1.8181  -1.8111  -1.8022  -1.7468  -1.7430  -1.7407  -1.7393  -1.7374
    -1.7031  -1.6830  -1.6813  -1.6551  -1.6531  -1.5945  -1.5931  -1.5646
    -1.5475  -1.5432  -1.4869  -1.4846  -1.4742  -1.4727  -1.4628  -1.4614
    -1.4579  -1.4501  -1.4492  -1.4046  -1.3914  -1.3825  -1.3810  -1.3791
    -1.3680  -1.3616  -1.3321  -1.3255  -1.3107  -1.3082  -1.3073  -1.3002
    -1.2985  -1.2900  -1.2868  -1.2683  -1.2662  -1.2487  -1.2235  -1.2180
    -1.2133  -1.1978  -1.1831  -1.1751  -1.1362  -1.1297  -1.1089  -1.1046
    -1.1003  -1.0746  -1.0241  -1.0223  -1.0216  -1.0201  -1.0161  -1.0124
    -1.0041  -0.9869  -0.9853  -0.9469  -0.9458  -0.9164  -0.9153  -0.9100
    -0.9091  -0.9027  -0.8865  -0.8858  -0.8844  -0.8820  -0.8798  -0.8463
    -0.8422  -0.8413  -0.8388  -0.8110  -0.8094  -0.8051  -0.7829  -0.7750
    -0.7723  -0.7283  -0.7217  -0.7180  -0.6860  -0.6774  -0.6671  -0.6667
    -0.6594  -0.6589  -0.6575  -0.6534  -0.6455  -0.6417  -0.6194  -0.6182
    -0.6155  -0.6141  -0.6116  -0.5761  -0.5756  -0.5658  -0.5630  -0.5487
    -0.5428  -0.5385  -0.5293  -0.4745  -0.4722  -0.4639  -0.4634  -0.4622
    -0.4610  -0.4553  -0.4379  -0.4346  -0.4283  -0.4278  -0.4262  -0.4220
    -0.3863  -0.3846  -0.3833  -0.3764  -0.3743  -0.3697  -0.3681  -0.3569
    -0.3517  -0.3494  -0.3422  -0.3071  -0.3056  -0.2982  -0.2943  -0.2933
    -0.2171  -0.2165  -0.2140  -0.2126  -0.2046  -0.2028  -0.1677  -0.1554
    -0.1547  -0.1299  -0.1231  -0.1123  -0.0029   0.0007   0.1009   0.5164
     0.5171   0.5194   0.5199   0.5778   0.5888   0.9692   0.9695   1.0113
     1.0129   1.1218   1.2027   1.3076   1.3211   1.5258   1.5492   2.1647
     2.1700   2.3252   2.3340   2.4556   2.4707   2.5651   2.5658   2.7195
     2.9556   2.9572   3.0812   3.2997   3.3129   3.3880   3.3900   3.4881
     3.5047   3.6847   3.6978   3.7610   3.9612   3.9627   4.0216   4.0293
     4.2805   4.2837   4.2972   4.5325   4.5720   4.5755   4.6199   4.9520
     4.9582   4.9839   5.0473   5.1200   5.2923   5.2932   5.3321   5.3797
     5.7232   5.9232   6.0669   6.0785   6.0817   6.0983   6.1528   6.1550
     6.2100   6.2615   6.2879   6.3110   6.3135   6.3208   6.3272   6.3652
     6.3761   6.4046   6.4863   6.5920   6.7164   6.7566   6.9167   6.9790
     7.0170   7.0226   7.0348

          k = 0.5000 0.0000 0.1111 (136853 PWs)   bands (ev):

   -19.2172  -7.0172  -6.1981  -5.8002  -5.7973  -5.1223  -4.7882  -4.7864
    -4.7515  -4.7477  -4.3876  -4.3862  -4.2886  -4.2881  -4.2741  -4.2528
    -4.2299  -4.1215  -4.1202  -4.0967  -4.0530  -4.0528  -3.9852  -3.9840
    -3.9807  -3.9781  -3.9556  -3.9521  -3.9487  -3.8843  -3.8781  -3.8484
    -3.8465  -3.8358  -3.8354  -3.8125  -3.8119  -3.7898  -3.7817  -3.7806
    -3.7569  -3.7032  -3.7018  -3.6561  -3.6527  -3.6019  -3.5952  -3.5600
    -3.5404  -3.5396  -3.5392  -3.5066  -3.4917  -3.4654  -3.4608  -3.4581
    -3.4574  -3.4516  -3.4278  -3.4191  -3.4112  -3.3563  -3.3547  -3.3445
    -3.3276  -3.3208  -3.2511  -3.2441  -3.2180  -3.2142  -3.1887  -3.1883
    -3.1751  -3.1566  -3.0988  -3.0974  -3.0810  -3.0797  -3.0292  -3.0243
    -3.0238  -2.9856  -2.9556  -2.9533  -2.9451  -2.9440  -2.9324  -2.9313
    -2.9246  -2.9243  -2.9142  -2.8731  -2.8357  -2.8348  -2.8215  -2.8204
    -2.7950  -2.7855  -2.7850  -2.7615  -2.7180  -2.7177  -2.7097  -2.6704
    -2.6632  -2.6523  -2.6508  -2.6233  -2.6226  -2.5929  -2.5563  -2.5556
    -2.5338  -2.5261  -2.5130  -2.5121  -2.4618  -2.4613  -2.4287  -2.4062
    -2.4060  -2.3820  -2.3816  -2.3704  -2.3694  -2.3595  -2.3377  -2.3367
    -2.2921  -2.2910  -2.2905  -2.2746  -2.2730  -2.2680  -2.2590  -2.2581
    -2.2569  -2.2558  -2.2497  -2.2379  -2.2366  -2.2303  -2.2015  -2.2006
    -2.1995  -2.1989  -2.1974  -2.1952  -2.1933  -2.1676  -2.1643  -2.1504
    -2.1498  -2.1321  -2.1309  -2.1218  -2.1213  -2.1211  -2.1190  -2.1008
    -2.1001  -2.0979  -2.0969  -2.0801  -2.0547  -2.0538  -2.0150  -2.0124
    -1.9895  -1.9881  -1.9618  -1.9599  -1.9339  -1.9329  -1.9169  -1.9114
    -1.8848  -1.8640  -1.8633  -1.8584  -1.8553  -1.8521  -1.8460  -1.8418
    -1.8183  -1.8109  -1.8022  -1.7474  -1.7438  -1.7404  -1.7384  -1.7377
    -1.7044  -1.6830  -1.6814  -1.6554  -1.6530  -1.5942  -1.5935  -1.5647
    -1.5472  -1.5430  -1.4860  -1.4847  -1.4743  -1.4735  -1.4625  -1.4618
    -1.4579  -1.4495  -1.4492  -1.3968  -1.3936  -1.3838  -1.3811  -1.3789
    -1.3621  -1.3606  -1.3418  -1.3260  -1.3090  -1.3083  -1.3072  -1.3044
    -1.2999  -1.2904  -1.2869  -1.2674  -1.2667  -1.2386  -1.2268  -1.2138
    -1.2119  -1.2037  -1.1896  -1.1771  -1.1361  -1.1287  -1.1086  -1.1051
    -1.0952  -1.0745  -1.0243  -1.0223  -1.0221  -1.0203  -1.0165  -1.0112
    -1.0045  -0.9870  -0.9859  -0.9471  -0.9452  -0.9167  -0.9142  -0.9102
    -0.9097  -0.9021  -0.8865  -0.8850  -0.8845  -0.8819  -0.8808  -0.8476
    -0.8424  -0.8412  -0.8362  -0.8115  -0.8103  -0.8054  -0.7827  -0.7753
    -0.7720  -0.7287  -0.7227  -0.7170  -0.6859  -0.6776  -0.6668  -0.6666
    -0.6599  -0.6586  -0.6583  -0.6529  -0.6460  -0.6407  -0.6196  -0.6181
    -0.6153  -0.6147  -0.6111  -0.5763  -0.5755  -0.5676  -0.5622  -0.5483
    -0.5430  -0.5380  -0.5294  -0.4743  -0.4723  -0.4641  -0.4634  -0.4627
    -0.4605  -0.4553  -0.4385  -0.4344  -0.4282  -0.4275  -0.4264  -0.4221
    -0.3864  -0.3845  -0.3832  -0.3764  -0.3741  -0.3693  -0.3685  -0.3576
    -0.3512  -0.3493  -0.3420  -0.3072  -0.3056  -0.2982  -0.2945  -0.2931
    -0.2174  -0.2162  -0.2141  -0.2122  -0.2047  -0.2028  -0.1677  -0.1557
    -0.1545  -0.1305  -0.1230  -0.1117  -0.0036   0.0023   0.1014   0.5163
     0.5170   0.5194   0.5200   0.5753   0.5907   0.9686   0.9694   1.0103
     1.0141   1.1226   1.2030   1.3071   1.3223   1.5237   1.5503   2.1627
     2.1716   2.3233   2.3364   2.4525   2.4733   2.5648   2.5661   2.7194
     2.9562   2.9571   3.0808   3.2990   3.3132   3.3870   3.3915   3.4876
     3.5048   3.6803   3.7008   3.7609   3.9617   3.9623   4.0191   4.0335
     4.2805   4.2817   4.2990   4.5324   4.5708   4.5771   4.6199   4.9530
     4.9569   4.9837   5.0545   5.1212   5.2915   5.2944   5.3186   5.3742
     5.7806   5.8667   6.0772   6.0808   6.0827   6.1063   6.1528   6.1555
     6.2176   6.2626   6.2889   6.3088   6.3151   6.3171   6.3275   6.3714
     6.3758   6.4148   6.4236   6.6028   6.7016   6.7710   6.9309   6.9671
     7.0158   7.0254   7.0343

          k =-0.5000 0.0000 0.1111 (136853 PWs)   bands (ev):

   -19.2172  -7.0172  -6.1981  -5.8002  -5.7973  -5.1223  -4.7882  -4.7864
    -4.7515  -4.7477  -4.3876  -4.3862  -4.2886  -4.2881  -4.2741  -4.2528
    -4.2299  -4.1215  -4.1202  -4.0967  -4.0530  -4.0528  -3.9852  -3.9840
    -3.9807  -3.9781  -3.9556  -3.9521  -3.9487  -3.8843  -3.8781  -3.8484
    -3.8465  -3.8358  -3.8354  -3.8125  -3.8119  -3.7898  -3.7817  -3.7806
    -3.7569  -3.7032  -3.7018  -3.6561  -3.6527  -3.6019  -3.5952  -3.5600
    -3.5404  -3.5396  -3.5392  -3.5066  -3.4917  -3.4654  -3.4608  -3.4581
    -3.4574  -3.4516  -3.4278  -3.4191  -3.4112  -3.3563  -3.3547  -3.3445
    -3.3276  -3.3208  -3.2511  -3.2441  -3.2180  -3.2142  -3.1887  -3.1883
    -3.1751  -3.1566  -3.0988  -3.0974  -3.0810  -3.0797  -3.0292  -3.0243
    -3.0238  -2.9856  -2.9556  -2.9533  -2.9451  -2.9440  -2.9324  -2.9313
    -2.9246  -2.9243  -2.9142  -2.8731  -2.8357  -2.8348  -2.8215  -2.8204
    -2.7950  -2.7855  -2.7850  -2.7615  -2.7180  -2.7177  -2.7097  -2.6704
    -2.6632  -2.6523  -2.6508  -2.6233  -2.6226  -2.5929  -2.5563  -2.5556
    -2.5338  -2.5261  -2.5130  -2.5121  -2.4618  -2.4613  -2.4287  -2.4062
    -2.4060  -2.3820  -2.3816  -2.3704  -2.3694  -2.3595  -2.3378  -2.3367
    -2.2921  -2.2910  -2.2905  -2.2746  -2.2730  -2.2680  -2.2590  -2.2581
    -2.2569  -2.2558  -2.2497  -2.2379  -2.2366  -2.2303  -2.2015  -2.2006
    -2.1995  -2.1989  -2.1974  -2.1952  -2.1933  -2.1676  -2.1643  -2.1504
    -2.1498  -2.1321  -2.1309  -2.1218  -2.1213  -2.1211  -2.1190  -2.1008
    -2.1001  -2.0979  -2.0969  -2.0801  -2.0547  -2.0538  -2.0150  -2.0124
    -1.9895  -1.9881  -1.9618  -1.9599  -1.9339  -1.9329  -1.9169  -1.9114
    -1.8848  -1.8640  -1.8633  -1.8584  -1.8553  -1.8521  -1.8460  -1.8418
    -1.8183  -1.8109  -1.8022  -1.7474  -1.7438  -1.7404  -1.7384  -1.7377
    -1.7044  -1.6830  -1.6814  -1.6554  -1.6530  -1.5942  -1.5935  -1.5647
    -1.5472  -1.5430  -1.4860  -1.4847  -1.4743  -1.4735  -1.4625  -1.4618
    -1.4579  -1.4495  -1.4492  -1.3968  -1.3936  -1.3838  -1.3811  -1.3789
    -1.3621  -1.3606  -1.3418  -1.3260  -1.3090  -1.3083  -1.3072  -1.3044
    -1.2999  -1.2904  -1.2869  -1.2674  -1.2667  -1.2386  -1.2268  -1.2138
    -1.2119  -1.2037  -1.1896  -1.1771  -1.1361  -1.1287  -1.1086  -1.1051
    -1.0952  -1.0745  -1.0243  -1.0223  -1.0221  -1.0203  -1.0165  -1.0112
    -1.0045  -0.9870  -0.9859  -0.9471  -0.9452  -0.9167  -0.9142  -0.9102
    -0.9097  -0.9021  -0.8865  -0.8850  -0.8845  -0.8819  -0.8808  -0.8476
    -0.8424  -0.8412  -0.8362  -0.8115  -0.8103  -0.8054  -0.7827  -0.7753
    -0.7720  -0.7287  -0.7227  -0.7170  -0.6859  -0.6776  -0.6668  -0.6666
    -0.6599  -0.6586  -0.6583  -0.6529  -0.6460  -0.6407  -0.6196  -0.6181
    -0.6153  -0.6147  -0.6111  -0.5763  -0.5755  -0.5676  -0.5622  -0.5483
    -0.5430  -0.5380  -0.5294  -0.4743  -0.4723  -0.4641  -0.4634  -0.4627
    -0.4605  -0.4553  -0.4385  -0.4344  -0.4282  -0.4275  -0.4264  -0.4221
    -0.3864  -0.3845  -0.3832  -0.3764  -0.3741  -0.3693  -0.3685  -0.3576
    -0.3512  -0.3493  -0.3420  -0.3072  -0.3056  -0.2982  -0.2945  -0.2931
    -0.2174  -0.2162  -0.2141  -0.2122  -0.2047  -0.2028  -0.1677  -0.1557
    -0.1545  -0.1305  -0.1230  -0.1117  -0.0036   0.0023   0.1014   0.5163
     0.5170   0.5194   0.5200   0.5753   0.5907   0.9686   0.9694   1.0103
     1.0141   1.1226   1.2030   1.3071   1.3223   1.5237   1.5503   2.1627
     2.1716   2.3233   2.3364   2.4525   2.4733   2.5648   2.5661   2.7194
     2.9562   2.9571   3.0808   3.2990   3.3132   3.3870   3.3915   3.4876
     3.5048   3.6803   3.7008   3.7609   3.9617   3.9623   4.0191   4.0335
     4.2805   4.2817   4.2990   4.5324   4.5708   4.5771   4.6199   4.9530
     4.9569   4.9837   5.0545   5.1212   5.2915   5.2944   5.3186   5.3742
     5.7806   5.8667   6.0772   6.0809   6.0826   6.1063   6.1527   6.1555
     6.2176   6.2626   6.2889   6.3088   6.3150   6.3171   6.3275   6.3713
     6.3758   6.4140   6.4244   6.6026   6.7018   6.7709   6.9313   6.9670
     7.0157   7.0254   7.0343

          k =-0.2500 0.1443 0.1111 (136898 PWs)   bands (ev):

   -19.2172  -7.0172  -6.4081  -5.6160  -5.3261  -5.2658  -5.2655  -4.7273
    -4.7272  -4.5971  -4.5951  -4.4415  -4.4111  -4.3476  -4.3167  -4.3147
    -4.2807  -4.2804  -4.1517  -4.1099  -4.1098  -4.0509  -4.0314  -4.0295
    -3.9267  -3.9266  -3.8912  -3.8903  -3.8901  -3.8643  -3.8423  -3.8415
    -3.7420  -3.7347  -3.7345  -3.7150  -3.6994  -3.6970  -3.6864  -3.6848
    -3.6726  -3.6443  -3.6412  -3.6407  -3.6404  -3.6099  -3.6084  -3.5929
    -3.5904  -3.5800  -3.5494  -3.5330  -3.5212  -3.4966  -3.4876  -3.4819
    -3.4817  -3.4508  -3.4073  -3.4049  -3.3724  -3.3700  -3.3545  -3.3018
    -3.3012  -3.2866  -3.2799  -3.2554  -3.2551  -3.2544  -3.2502  -3.1009
    -3.0987  -3.0755  -3.0749  -3.0701  -3.0539  -3.0521  -3.0280  -3.0267
    -2.9780  -2.9767  -2.9618  -2.9608  -2.9406  -2.8929  -2.8926  -2.8729
    -2.8683  -2.8669  -2.8273  -2.8265  -2.8202  -2.8185  -2.8043  -2.8014
    -2.7644  -2.7637  -2.7424  -2.7422  -2.7391  -2.7377  -2.7346  -2.6592
    -2.6586  -2.6562  -2.6284  -2.6262  -2.5667  -2.5665  -2.5374  -2.5370
    -2.5240  -2.5230  -2.5174  -2.4886  -2.4884  -2.4783  -2.4611  -2.4363
    -2.4357  -2.4350  -2.4148  -2.4145  -2.4035  -2.4025  -2.4006  -2.3990
    -2.3909  -2.3448  -2.3131  -2.3128  -2.2968  -2.2831  -2.2768  -2.2766
    -2.2696  -2.2683  -2.2671  -2.2379  -2.2374  -2.2365  -2.2275  -2.2264
    -2.2106  -2.1833  -2.1826  -2.1821  -2.1814  -2.1787  -2.1352  -2.1041
    -2.1040  -2.1026  -2.0972  -2.0877  -2.0757  -2.0754  -2.0580  -2.0579
    -2.0250  -2.0235  -2.0231  -2.0047  -2.0040  -2.0037  -1.9709  -1.9705
    -1.9294  -1.9273  -1.9215  -1.9191  -1.9184  -1.9127  -1.9124  -1.9101
    -1.9089  -1.9041  -1.9024  -1.8865  -1.8858  -1.7603  -1.7592  -1.7269
    -1.7216  -1.7200  -1.7140  -1.7132  -1.6974  -1.6960  -1.6952  -1.6939
    -1.6903  -1.6682  -1.6632  -1.6616  -1.6539  -1.6487  -1.6447  -1.6258
    -1.6247  -1.5970  -1.5965  -1.5681  -1.5652  -1.5540  -1.5466  -1.5283
    -1.5267  -1.5247  -1.5067  -1.4940  -1.4932  -1.4869  -1.4862  -1.4615
    -1.4599  -1.4455  -1.4433  -1.4135  -1.4087  -1.4040  -1.3545  -1.3501
    -1.3423  -1.3375  -1.3330  -1.3105  -1.3078  -1.2801  -1.2752  -1.2739
    -1.2589  -1.2338  -1.2298  -1.2188  -1.2142  -1.2091  -1.1873  -1.1854
    -1.1680  -1.1559  -1.1537  -1.1496  -1.0910  -1.0898  -1.0782  -1.0766
    -1.0613  -1.0601  -1.0489  -1.0448  -1.0301  -1.0174  -0.9897  -0.9885
    -0.9769  -0.9472  -0.9401  -0.9371  -0.9275  -0.9272  -0.9257  -0.9212
    -0.9154  -0.9062  -0.8768  -0.8755  -0.8668  -0.8647  -0.8632  -0.8533
    -0.8396  -0.8221  -0.8153  -0.8007  -0.7933  -0.7064  -0.6935  -0.6879
    -0.6876  -0.6831  -0.6787  -0.6752  -0.6529  -0.6526  -0.6383  -0.6349
    -0.6227  -0.6201  -0.6134  -0.5940  -0.5912  -0.5883  -0.5825  -0.5101
    -0.5096  -0.4778  -0.4731  -0.4716  -0.4661  -0.4635  -0.4628  -0.4608
    -0.4512  -0.4464  -0.4306  -0.4082  -0.3932  -0.3750  -0.3733  -0.3637
    -0.3611  -0.3510  -0.3494  -0.3484  -0.3476  -0.3440  -0.3299  -0.3259
    -0.3225  -0.2947  -0.2937  -0.2905  -0.2805  -0.2796  -0.2611  -0.2295
    -0.2279  -0.2202  -0.2179  -0.1518  -0.1503  -0.1148  -0.1145  -0.0569
    -0.0554  -0.0550  -0.0394  -0.0269   0.1927   0.2093   0.5448   0.5450
     0.6312   0.6458   0.8271   0.8546   0.8633   0.9917   0.9952   1.4251
     1.4252   1.4431   1.7024   1.7350   1.7353   2.0040   2.0224   2.0902
     2.0916   2.1140   2.1281   2.3470   2.3475   2.4360   2.4368   2.5016
     2.5677   2.5899   2.7404   2.8393   3.2757   3.2781   3.2793   3.2886
     3.3355   3.3372   3.6289   3.6297   3.9046   3.9172   4.0031   4.3253
     4.3637   4.3724   4.5630   4.5753   4.6663   4.6719   4.7590   4.8751
     4.8835   4.9934   4.9972   5.0370   5.2987   5.3626   5.3741   5.5034
     5.5429   5.7535   5.7547   5.7659   5.7823   5.7845   5.8420   5.8452
     5.8969   6.0246   6.2197   6.2646   6.4438   6.4543   6.5855   6.5881
     6.5927   6.5979   6.6245   6.7431   6.8188   6.8392   6.8464   6.9783
     7.0145   7.0453   7.0719

          k =-0.2500-0.1443-0.1111 (136898 PWs)   bands (ev):

   -19.2172  -7.0172  -6.4081  -5.6160  -5.3261  -5.2658  -5.2655  -4.7272
    -4.7272  -4.5970  -4.5952  -4.4415  -4.4111  -4.3477  -4.3168  -4.3147
    -4.2806  -4.2804  -4.1517  -4.1100  -4.1098  -4.0508  -4.0315  -4.0295
    -3.9267  -3.9266  -3.8912  -3.8903  -3.8901  -3.8642  -3.8421  -3.8417
    -3.7422  -3.7347  -3.7344  -3.7149  -3.6994  -3.6970  -3.6865  -3.6849
    -3.6725  -3.6441  -3.6412  -3.6406  -3.6404  -3.6100  -3.6084  -3.5929
    -3.5903  -3.5799  -3.5495  -3.5331  -3.5212  -3.4966  -3.4876  -3.4818
    -3.4817  -3.4511  -3.4073  -3.4049  -3.3722  -3.3699  -3.3544  -3.3019
    -3.3013  -3.2864  -3.2798  -3.2553  -3.2549  -3.2547  -3.2504  -3.1010
    -3.0987  -3.0755  -3.0750  -3.0700  -3.0539  -3.0521  -3.0280  -3.0265
    -2.9781  -2.9767  -2.9618  -2.9608  -2.9405  -2.8929  -2.8925  -2.8730
    -2.8684  -2.8670  -2.8274  -2.8265  -2.8202  -2.8187  -2.8043  -2.8015
    -2.7642  -2.7635  -2.7425  -2.7421  -2.7390  -2.7377  -2.7344  -2.6592
    -2.6587  -2.6563  -2.6284  -2.6262  -2.5666  -2.5665  -2.5374  -2.5369
    -2.5238  -2.5228  -2.5174  -2.4886  -2.4883  -2.4784  -2.4610  -2.4365
    -2.4357  -2.4352  -2.4148  -2.4144  -2.4038  -2.4027  -2.4005  -2.3989
    -2.3909  -2.3447  -2.3132  -2.3129  -2.2967  -2.2833  -2.2768  -2.2765
    -2.2696  -2.2683  -2.2673  -2.2376  -2.2375  -2.2366  -2.2275  -2.2263
    -2.2104  -2.1837  -2.1826  -2.1816  -2.1815  -2.1789  -2.1354  -2.1042
    -2.1041  -2.1027  -2.0971  -2.0877  -2.0758  -2.0752  -2.0579  -2.0577
    -2.0250  -2.0234  -2.0230  -2.0048  -2.0042  -2.0038  -1.9709  -1.9704
    -1.9296  -1.9272  -1.9212  -1.9190  -1.9183  -1.9128  -1.9125  -1.9106
    -1.9086  -1.9040  -1.9022  -1.8866  -1.8859  -1.7606  -1.7591  -1.7266
    -1.7217  -1.7198  -1.7139  -1.7130  -1.6980  -1.6964  -1.6951  -1.6937
    -1.6900  -1.6682  -1.6636  -1.6615  -1.6536  -1.6486  -1.6444  -1.6261
    -1.6249  -1.5974  -1.5968  -1.5675  -1.5652  -1.5539  -1.5465  -1.5282
    -1.5267  -1.5245  -1.5067  -1.4944  -1.4933  -1.4872  -1.4862  -1.4611
    -1.4597  -1.4462  -1.4431  -1.4145  -1.4085  -1.4035  -1.3548  -1.3501
    -1.3419  -1.3374  -1.3329  -1.3107  -1.3076  -1.2814  -1.2751  -1.2734
    -1.2572  -1.2350  -1.2294  -1.2180  -1.2141  -1.2090  -1.1875  -1.1852
    -1.1699  -1.1561  -1.1537  -1.1489  -1.0912  -1.0897  -1.0776  -1.0767
    -1.0613  -1.0600  -1.0486  -1.0451  -1.0296  -1.0171  -0.9898  -0.9885
    -0.9770  -0.9476  -0.9398  -0.9372  -0.9276  -0.9273  -0.9260  -0.9211
    -0.9160  -0.9061  -0.8767  -0.8757  -0.8663  -0.8648  -0.8627  -0.8538
    -0.8396  -0.8217  -0.8158  -0.8004  -0.7933  -0.7063  -0.6935  -0.6878
    -0.6876  -0.6830  -0.6788  -0.6753  -0.6530  -0.6525  -0.6381  -0.6350
    -0.6227  -0.6203  -0.6135  -0.5937  -0.5913  -0.5885  -0.5826  -0.5101
    -0.5096  -0.4775  -0.4733  -0.4717  -0.4661  -0.4637  -0.4627  -0.4610
    -0.4512  -0.4462  -0.4307  -0.4081  -0.3934  -0.3749  -0.3734  -0.3637
    -0.3612  -0.3510  -0.3495  -0.3483  -0.3475  -0.3440  -0.3298  -0.3260
    -0.3226  -0.2947  -0.2937  -0.2903  -0.2805  -0.2795  -0.2611  -0.2295
    -0.2279  -0.2201  -0.2179  -0.1519  -0.1504  -0.1150  -0.1143  -0.0569
    -0.0555  -0.0549  -0.0397  -0.0269   0.1934   0.2090   0.5448   0.5450
     0.6317   0.6457   0.8263   0.8544   0.8637   0.9918   0.9950   1.4251
     1.4253   1.4431   1.7025   1.7351   1.7353   2.0046   2.0217   2.0902
     2.0916   2.1144   2.1277   2.3470   2.3475   2.4360   2.4368   2.5017
     2.5682   2.5892   2.7401   2.8395   3.2755   3.2784   3.2795   3.2884
     3.3358   3.3373   3.6287   3.6299   3.9049   3.9169   4.0035   4.3253
     4.3637   4.3720   4.5643   4.5719   4.6666   4.6714   4.7597   4.8750
     4.8828   4.9937   4.9977   5.0389   5.2986   5.3625   5.3740   5.5065
     5.5418   5.7530   5.7545   5.7643   5.7823   5.7846   5.8421   5.8457
     5.8914   6.0130   6.2451   6.2612   6.4426   6.4549   6.5852   6.5884
     6.5925   6.5984   6.6232   6.7342   6.8306   6.8403   6.8461   6.9759
     7.0091   7.0461   7.0718

          k = 0.2500 0.1443-0.1111 (136898 PWs)   bands (ev):

   -19.2172  -7.0172  -6.4081  -5.6160  -5.3261  -5.2658  -5.2655  -4.7272
    -4.7272  -4.5970  -4.5952  -4.4415  -4.4111  -4.3477  -4.3168  -4.3147
    -4.2806  -4.2804  -4.1517  -4.1100  -4.1098  -4.0508  -4.0315  -4.0295
    -3.9267  -3.9266  -3.8912  -3.8904  -3.8901  -3.8642  -3.8421  -3.8417
    -3.7422  -3.7347  -3.7344  -3.7149  -3.6994  -3.6970  -3.6865  -3.6849
    -3.6725  -3.6441  -3.6412  -3.6406  -3.6404  -3.6100  -3.6084  -3.5929
    -3.5903  -3.5799  -3.5495  -3.5331  -3.5212  -3.4966  -3.4876  -3.4819
    -3.4817  -3.4511  -3.4073  -3.4049  -3.3722  -3.3699  -3.3544  -3.3019
    -3.3013  -3.2864  -3.2798  -3.2553  -3.2549  -3.2547  -3.2504  -3.1010
    -3.0987  -3.0755  -3.0750  -3.0700  -3.0539  -3.0521  -3.0280  -3.0265
    -2.9781  -2.9767  -2.9618  -2.9608  -2.9405  -2.8929  -2.8925  -2.8730
    -2.8684  -2.8670  -2.8274  -2.8265  -2.8202  -2.8187  -2.8043  -2.8015
    -2.7642  -2.7635  -2.7425  -2.7421  -2.7390  -2.7377  -2.7344  -2.6592
    -2.6587  -2.6563  -2.6284  -2.6262  -2.5666  -2.5665  -2.5374  -2.5369
    -2.5238  -2.5228  -2.5174  -2.4886  -2.4883  -2.4784  -2.4611  -2.4365
    -2.4357  -2.4352  -2.4148  -2.4144  -2.4038  -2.4027  -2.4005  -2.3989
    -2.3909  -2.3447  -2.3132  -2.3129  -2.2967  -2.2833  -2.2768  -2.2765
    -2.2696  -2.2683  -2.2673  -2.2376  -2.2375  -2.2366  -2.2275  -2.2263
    -2.2104  -2.1837  -2.1826  -2.1816  -2.1815  -2.1789  -2.1354  -2.1042
    -2.1040  -2.1027  -2.0971  -2.0877  -2.0758  -2.0752  -2.0579  -2.0577
    -2.0250  -2.0234  -2.0230  -2.0048  -2.0042  -2.0038  -1.9709  -1.9704
    -1.9296  -1.9272  -1.9212  -1.9190  -1.9183  -1.9128  -1.9125  -1.9106
    -1.9086  -1.9040  -1.9022  -1.8867  -1.8859  -1.7606  -1.7591  -1.7266
    -1.7217  -1.7198  -1.7139  -1.7130  -1.6980  -1.6964  -1.6951  -1.6937
    -1.6900  -1.6682  -1.6636  -1.6615  -1.6536  -1.6486  -1.6444  -1.6261
    -1.6249  -1.5974  -1.5968  -1.5675  -1.5652  -1.5539  -1.5465  -1.5282
    -1.5267  -1.5245  -1.5067  -1.4944  -1.4933  -1.4872  -1.4862  -1.4611
    -1.4597  -1.4462  -1.4431  -1.4145  -1.4085  -1.4035  -1.3548  -1.3501
    -1.3419  -1.3374  -1.3329  -1.3107  -1.3076  -1.2814  -1.2751  -1.2734
    -1.2572  -1.2350  -1.2294  -1.2180  -1.2141  -1.2090  -1.1875  -1.1852
    -1.1699  -1.1561  -1.1537  -1.1489  -1.0912  -1.0897  -1.0776  -1.0767
    -1.0613  -1.0600  -1.0486  -1.0451  -1.0296  -1.0171  -0.9898  -0.9885
    -0.9770  -0.9475  -0.9398  -0.9372  -0.9276  -0.9273  -0.9260  -0.9211
    -0.9160  -0.9061  -0.8767  -0.8757  -0.8663  -0.8649  -0.8627  -0.8538
    -0.8396  -0.8217  -0.8158  -0.8004  -0.7933  -0.7063  -0.6935  -0.6878
    -0.6876  -0.6830  -0.6788  -0.6753  -0.6530  -0.6525  -0.6381  -0.6350
    -0.6227  -0.6203  -0.6135  -0.5937  -0.5913  -0.5885  -0.5826  -0.5101
    -0.5096  -0.4775  -0.4733  -0.4717  -0.4661  -0.4637  -0.4627  -0.4610
    -0.4512  -0.4462  -0.4307  -0.4081  -0.3934  -0.3749  -0.3734  -0.3637
    -0.3612  -0.3510  -0.3495  -0.3483  -0.3475  -0.3440  -0.3298  -0.3260
    -0.3226  -0.2947  -0.2937  -0.2903  -0.2805  -0.2795  -0.2611  -0.2295
    -0.2279  -0.2201  -0.2179  -0.1519  -0.1504  -0.1150  -0.1143  -0.0569
    -0.0555  -0.0549  -0.0397  -0.0270   0.1934   0.2090   0.5448   0.5450
     0.6317   0.6457   0.8263   0.8544   0.8637   0.9918   0.9950   1.4251
     1.4253   1.4431   1.7025   1.7351   1.7353   2.0046   2.0217   2.0902
     2.0916   2.1144   2.1277   2.3470   2.3475   2.4360   2.4368   2.5017
     2.5682   2.5892   2.7401   2.8395   3.2755   3.2784   3.2795   3.2884
     3.3358   3.3373   3.6287   3.6299   3.9049   3.9169   4.0035   4.3252
     4.3637   4.3720   4.5643   4.5719   4.6666   4.6714   4.7597   4.8750
     4.8828   4.9937   4.9977   5.0389   5.2986   5.3625   5.3740   5.5064
     5.5418   5.7530   5.7546   5.7640   5.7823   5.7846   5.8421   5.8457
     5.8915   6.0138   6.2440   6.2615   6.4424   6.4540   6.5841   6.5884
     6.5913   6.5985   6.6220   6.7362   6.8306   6.8402   6.8460   6.9793
     7.0132   7.0471   7.0741

          k = 0.0000-0.2887 0.1111 (136898 PWs)   bands (ev):

   -19.2172  -7.0172  -6.4081  -5.6160  -5.3261  -5.2657  -5.2656  -4.7272
    -4.7272  -4.5971  -4.5951  -4.4415  -4.4111  -4.3477  -4.3171  -4.3145
    -4.2806  -4.2804  -4.1516  -4.1100  -4.1098  -4.0508  -4.0316  -4.0294
    -3.9267  -3.9265  -3.8912  -3.8903  -3.8902  -3.8643  -3.8423  -3.8415
    -3.7419  -3.7347  -3.7345  -3.7149  -3.6995  -3.6970  -3.6866  -3.6848
    -3.6725  -3.6444  -3.6411  -3.6406  -3.6404  -3.6101  -3.6082  -3.5930
    -3.5903  -3.5796  -3.5498  -3.5328  -3.5213  -3.4969  -3.4874  -3.4818
    -3.4817  -3.4509  -3.4073  -3.4051  -3.3722  -3.3698  -3.3546  -3.3019
    -3.3013  -3.2863  -3.2798  -3.2552  -3.2550  -3.2547  -3.2505  -3.1008
    -3.0989  -3.0753  -3.0752  -3.0699  -3.0539  -3.0523  -3.0280  -3.0266
    -2.9780  -2.9768  -2.9617  -2.9608  -2.9404  -2.8929  -2.8926  -2.8729
    -2.8684  -2.8671  -2.8273  -2.8266  -2.8202  -2.8187  -2.8041  -2.8017
    -2.7641  -2.7635  -2.7428  -2.7420  -2.7390  -2.7377  -2.7345  -2.6591
    -2.6586  -2.6564  -2.6283  -2.6263  -2.5669  -2.5665  -2.5374  -2.5367
    -2.5237  -2.5229  -2.5174  -2.4886  -2.4884  -2.4784  -2.4609  -2.4363
    -2.4356  -2.4354  -2.4148  -2.4144  -2.4037  -2.4027  -2.4003  -2.3991
    -2.3909  -2.3447  -2.3133  -2.3130  -2.2967  -2.2833  -2.2770  -2.2765
    -2.2694  -2.2684  -2.2673  -2.2378  -2.2375  -2.2365  -2.2273  -2.2266
    -2.2105  -2.1831  -2.1827  -2.1823  -2.1812  -2.1789  -2.1354  -2.1042
    -2.1040  -2.1027  -2.0971  -2.0877  -2.0759  -2.0756  -2.0580  -2.0577
    -2.0250  -2.0233  -2.0230  -2.0048  -2.0044  -2.0038  -1.9708  -1.9702
    -1.9295  -1.9272  -1.9212  -1.9190  -1.9184  -1.9132  -1.9126  -1.9107
    -1.9084  -1.9040  -1.9021  -1.8867  -1.8856  -1.7609  -1.7590  -1.7259
    -1.7223  -1.7193  -1.7140  -1.7131  -1.6988  -1.6957  -1.6942  -1.6935
    -1.6899  -1.6682  -1.6651  -1.6613  -1.6533  -1.6489  -1.6438  -1.6269
    -1.6248  -1.5989  -1.5968  -1.5653  -1.5650  -1.5540  -1.5459  -1.5283
    -1.5266  -1.5246  -1.5067  -1.4952  -1.4934  -1.4876  -1.4861  -1.4600
    -1.4595  -1.4485  -1.4432  -1.4169  -1.4082  -1.4009  -1.3555  -1.3499
    -1.3401  -1.3375  -1.3316  -1.3108  -1.3076  -1.2860  -1.2751  -1.2727
    -1.2495  -1.2401  -1.2291  -1.2150  -1.2136  -1.2082  -1.1887  -1.1842
    -1.1778  -1.1558  -1.1538  -1.1476  -1.0911  -1.0886  -1.0771  -1.0750
    -1.0611  -1.0594  -1.0481  -1.0476  -1.0295  -1.0169  -0.9896  -0.9887
    -0.9776  -0.9492  -0.9388  -0.9379  -0.9276  -0.9273  -0.9262  -0.9195
    -0.9181  -0.9061  -0.8767  -0.8762  -0.8654  -0.8648  -0.8598  -0.8566
    -0.8393  -0.8187  -0.8166  -0.7996  -0.7939  -0.7067  -0.6934  -0.6878
    -0.6877  -0.6836  -0.6779  -0.6753  -0.6542  -0.6526  -0.6372  -0.6357
    -0.6225  -0.6209  -0.6134  -0.5929  -0.5907  -0.5901  -0.5824  -0.5101
    -0.5099  -0.4768  -0.4746  -0.4716  -0.4657  -0.4638  -0.4623  -0.4612
    -0.4511  -0.4456  -0.4312  -0.4080  -0.3934  -0.3745  -0.3738  -0.3636
    -0.3613  -0.3511  -0.3492  -0.3485  -0.3475  -0.3441  -0.3296  -0.3259
    -0.3227  -0.2946  -0.2939  -0.2901  -0.2805  -0.2796  -0.2611  -0.2294
    -0.2279  -0.2199  -0.2180  -0.1521  -0.1503  -0.1150  -0.1142  -0.0569
    -0.0559  -0.0544  -0.0403  -0.0269   0.1955   0.2076   0.5449   0.5449
     0.6336   0.6441   0.8245   0.8552   0.8633   0.9924   0.9944   1.4251
     1.4254   1.4427   1.7025   1.7351   1.7355   2.0074   2.0191   2.0908
     2.0912   2.1160   2.1261   2.3464   2.3485   2.4362   2.4365   2.5024
     2.5705   2.5859   2.7400   2.8401   3.2759   3.2774   3.2804   3.2876
     3.3363   3.3375   3.6293   3.6295   3.9068   3.9157   4.0048   4.3251
     4.3648   4.3709   4.5528   4.5756   4.6667   4.6703   4.7615   4.8747
     4.8797   4.9946   4.9978   5.0509   5.2988   5.3608   5.3744   5.5183
     5.5358   5.7447   5.7546   5.7584   5.7828   5.7854   5.8414   5.8487
     5.8737   5.9908   6.2414   6.3470   6.4325   6.4566   6.5812   6.5882
     6.5897   6.5996   6.6126   6.6888   6.8405   6.8434   6.9156   6.9597
     6.9941   7.0553   7.0598

          k = 0.0000 0.2887 0.1111 (136898 PWs)   bands (ev):

   -19.2172  -7.0172  -6.4081  -5.6160  -5.3261  -5.2657  -5.2656  -4.7272
    -4.7272  -4.5971  -4.5951  -4.4415  -4.4111  -4.3477  -4.3171  -4.3145
    -4.2806  -4.2804  -4.1516  -4.1100  -4.1098  -4.0508  -4.0316  -4.0294
    -3.9267  -3.9265  -3.8912  -3.8903  -3.8902  -3.8643  -3.8423  -3.8415
    -3.7419  -3.7347  -3.7345  -3.7149  -3.6995  -3.6970  -3.6866  -3.6848
    -3.6725  -3.6444  -3.6411  -3.6406  -3.6404  -3.6101  -3.6082  -3.5930
    -3.5903  -3.5796  -3.5498  -3.5328  -3.5213  -3.4969  -3.4874  -3.4818
    -3.4817  -3.4509  -3.4073  -3.4051  -3.3722  -3.3698  -3.3546  -3.3019
    -3.3013  -3.2863  -3.2798  -3.2552  -3.2550  -3.2547  -3.2505  -3.1008
    -3.0989  -3.0753  -3.0752  -3.0699  -3.0539  -3.0523  -3.0280  -3.0266
    -2.9780  -2.9768  -2.9617  -2.9608  -2.9404  -2.8929  -2.8926  -2.8729
    -2.8684  -2.8671  -2.8273  -2.8266  -2.8202  -2.8187  -2.8041  -2.8017
    -2.7641  -2.7635  -2.7428  -2.7420  -2.7390  -2.7377  -2.7345  -2.6591
    -2.6586  -2.6563  -2.6283  -2.6263  -2.5669  -2.5665  -2.5374  -2.5367
    -2.5237  -2.5229  -2.5174  -2.4886  -2.4884  -2.4784  -2.4609  -2.4363
    -2.4356  -2.4354  -2.4148  -2.4144  -2.4037  -2.4027  -2.4003  -2.3991
    -2.3909  -2.3447  -2.3133  -2.3130  -2.2966  -2.2833  -2.2770  -2.2765
    -2.2694  -2.2684  -2.2673  -2.2378  -2.2375  -2.2365  -2.2273  -2.2266
    -2.2105  -2.1831  -2.1827  -2.1823  -2.1812  -2.1789  -2.1354  -2.1042
    -2.1040  -2.1027  -2.0971  -2.0877  -2.0759  -2.0756  -2.0580  -2.0577
    -2.0250  -2.0233  -2.0230  -2.0048  -2.0044  -2.0038  -1.9708  -1.9702
    -1.9295  -1.9272  -1.9212  -1.9190  -1.9184  -1.9132  -1.9126  -1.9107
    -1.9084  -1.9040  -1.9021  -1.8867  -1.8856  -1.7609  -1.7590  -1.7259
    -1.7223  -1.7193  -1.7140  -1.7131  -1.6988  -1.6957  -1.6942  -1.6935
    -1.6899  -1.6682  -1.6651  -1.6613  -1.6533  -1.6489  -1.6438  -1.6269
    -1.6248  -1.5989  -1.5968  -1.5653  -1.5650  -1.5540  -1.5459  -1.5283
    -1.5266  -1.5246  -1.5067  -1.4952  -1.4934  -1.4876  -1.4861  -1.4600
    -1.4595  -1.4485  -1.4432  -1.4169  -1.4082  -1.4009  -1.3555  -1.3499
    -1.3401  -1.3375  -1.3316  -1.3108  -1.3076  -1.2860  -1.2751  -1.2727
    -1.2495  -1.2401  -1.2291  -1.2150  -1.2136  -1.2082  -1.1887  -1.1842
    -1.1778  -1.1558  -1.1538  -1.1476  -1.0911  -1.0886  -1.0771  -1.0750
    -1.0611  -1.0594  -1.0481  -1.0476  -1.0295  -1.0169  -0.9896  -0.9887
    -0.9776  -0.9492  -0.9388  -0.9379  -0.9276  -0.9273  -0.9262  -0.9195
    -0.9181  -0.9061  -0.8767  -0.8762  -0.8654  -0.8648  -0.8598  -0.8567
    -0.8393  -0.8187  -0.8166  -0.7996  -0.7939  -0.7067  -0.6934  -0.6878
    -0.6877  -0.6836  -0.6779  -0.6753  -0.6542  -0.6526  -0.6372  -0.6357
    -0.6225  -0.6209  -0.6135  -0.5929  -0.5907  -0.5901  -0.5824  -0.5101
    -0.5098  -0.4768  -0.4746  -0.4716  -0.4657  -0.4638  -0.4623  -0.4612
    -0.4511  -0.4456  -0.4312  -0.4080  -0.3934  -0.3745  -0.3738  -0.3636
    -0.3613  -0.3511  -0.3492  -0.3485  -0.3475  -0.3441  -0.3296  -0.3259
    -0.3227  -0.2946  -0.2939  -0.2901  -0.2805  -0.2796  -0.2611  -0.2294
    -0.2279  -0.2199  -0.2180  -0.1521  -0.1503  -0.1150  -0.1142  -0.0569
    -0.0559  -0.0544  -0.0403  -0.0269   0.1955   0.2076   0.5449   0.5449
     0.6336   0.6441   0.8245   0.8553   0.8633   0.9924   0.9944   1.4251
     1.4254   1.4427   1.7025   1.7351   1.7355   2.0074   2.0191   2.0908
     2.0912   2.1160   2.1261   2.3464   2.3485   2.4362   2.4365   2.5024
     2.5705   2.5859   2.7400   2.8401   3.2759   3.2774   3.2804   3.2876
     3.3363   3.3375   3.6293   3.6295   3.9068   3.9157   4.0048   4.3251
     4.3648   4.3709   4.5528   4.5756   4.6667   4.6703   4.7615   4.8747
     4.8797   4.9946   4.9978   5.0509   5.2988   5.3608   5.3744   5.5183
     5.5358   5.7451   5.7546   5.7581   5.7828   5.7855   5.8414   5.8487
     5.8737   5.9907   6.2412   6.3464   6.4340   6.4557   6.5794   6.5879
     6.5897   6.5996   6.6125   6.6867   6.8405   6.8434   6.9178   6.9616
     6.9999   7.0557   7.0610

     the Fermi energy is     1.5688 ev

!    total energy              =   -6604.43613591 Ry
     Harris-Foulkes estimate   =   -6604.43613589 Ry
     estimated scf accuracy    <          2.5E-09 Ry

     The total energy is the sum of the following terms:

     one-electron contribution =  -48654.23146278 Ry
     hartree contribution      =   24831.61041975 Ry
     xc contribution           =   -3204.96896913 Ry
     ewald contribution        =   20423.15103221 Ry
     smearing contrib. (-TS)   =       0.00284404 Ry

     convergence has been achieved in  25 iterations

     Writing output data file 8758508.save

     init_run     :    213.64s CPU    221.73s WALL (       1 calls)
     electrons    :  11881.31s CPU  12241.68s WALL (       1 calls)

     Called by init_run:
     wfcinit      :    176.12s CPU    183.28s WALL (       1 calls)
     potinit      :     12.47s CPU     12.90s WALL (       1 calls)

     Called by electrons:
     c_bands      :  10210.25s CPU  10503.77s WALL (      26 calls)
     sum_band     :   1273.92s CPU   1329.33s WALL (      26 calls)
     v_of_rho     :    121.04s CPU    129.37s WALL (      26 calls)
     newd         :    282.60s CPU    285.05s WALL (      26 calls)
     mix_rho      :      2.80s CPU      3.09s WALL (      26 calls)
     vdW_energy   :      5.33s CPU      5.83s WALL (      26 calls)
     vdW_ffts     :     70.61s CPU     74.93s WALL (      52 calls)
     vdW_v        :     15.50s CPU     16.15s WALL (      26 calls)

     Called by c_bands:
     init_us_2    :     11.27s CPU     11.61s WALL (     636 calls)
     cegterg      :   9867.62s CPU  10148.31s WALL (     312 calls)

     Called by *egterg:
     h_psi        :   4032.84s CPU   4273.39s WALL (    1852 calls)
     s_psi        :    421.46s CPU    423.70s WALL (    1852 calls)
     g_psi        :      6.00s CPU      6.01s WALL (    1528 calls)
     cdiaghg      :   2298.69s CPU   2305.31s WALL (    1828 calls)

     Called by h_psi:
     add_vuspsi   :    421.77s CPU    423.96s WALL (    1852 calls)

     General routines
     calbec       :   1206.78s CPU   1210.29s WALL (    2164 calls)
     fft          :    220.69s CPU    228.92s WALL (    1716 calls)
     ffts         :      2.29s CPU      2.44s WALL (      52 calls)
     fftw         :   3234.71s CPU   3510.82s WALL (  750532 calls)
     interpolate  :      4.68s CPU      5.18s WALL (      52 calls)
     davcio       :      0.02s CPU      0.17s WALL (      12 calls)

     Parallel routines
     fft_scatter  :   2701.02s CPU   2943.66s WALL (  752300 calls)

     PWSCF        :     3h21m CPU        3h28m WALL


   This run was terminated on:  14: 8:49  25Jun2015            

=------------------------------------------------------------------------------=
   JOB DONE.
=------------------------------------------------------------------------------=
