Setting SGE environment for SCC

     Program PWSCF v.5.1.2 starts on 29Aug2015 at 15:52:16 

     This program is part of the open-source Quantum ESPRESSO suite
     for quantum simulation of materials; please cite
         "P. Giannozzi et al., J. Phys.:Condens. Matter 21 395502 (2009);
          URL http://www.quantum-espresso.org", 
     in publications or presentations arising from this work. More details at
     http://www.quantum-espresso.org/quote

     Parallel version (MPI), running on    32 processors
     R & G space division:  proc/nbgrp/npool/nimage =      32
     Reading input from top.O1.Au50.d.3.8.phi.0.psi.0.in
Warning: card &IONS ignored
Warning: card / ignored
Warning: card &CELL ignored
Warning: card / ignored

     Current dimensions of program PWSCF are:
     Max number of different atomic species (ntypx) = 10
     Max number of k-points (npk) =  40000
     Max angular momentum in pseudopotentials (lmaxx) =  3

     IMPORTANT: XC functional enforced from input :
     Exchange-correlation      = VDW-DF ( 1  4  4  0 1 0)
     Any further DFT definition will be discarded
     Please, verify this is what you really want


     Subspace diagonalization in iterative solution of the eigenvalue problem:
     a serial algorithm will be used


     Parallelization info
     --------------------
     sticks:   dense  smooth     PW     G-vecs:    dense   smooth      PW
     Min         445     223     58                96775    34191    4534
     Max         446     224     59                96790    34246    4540
     Sum       14269    7147   1867              3097177  1095093  145167


     Title: 
     top.O1.Au50.d.3.8.phi.0.psi.0                                              


     bravais-lattice index     =            4
     lattice parameter (alat)  =      22.7436  a.u.
     unit-cell volume          =   22924.1508 (a.u.)^3
     number of atoms/cell      =           67
     number of atomic types    =            3
     number of electrons       =       712.00
     number of Kohn-Sham states=          427
     kinetic-energy cutoff     =      50.0000  Ry
     charge density cutoff     =     400.0000  Ry
     convergence threshold     =      1.0E-08
     mixing beta               =       0.7000
     number of iterations used =            8  plain     mixing
     Exchange-correlation      = VDW-DF ( 1  4  4  0 1 0)

     celldm(1)=  22.743643  celldm(2)=   0.000000  celldm(3)=   2.250000
     celldm(4)=   0.000000  celldm(5)=   0.000000  celldm(6)=   0.000000

     crystal axes: (cart. coord. in units of alat)
               a(1) = (   1.000000   0.000000   0.000000 )  
               a(2) = (  -0.500000   0.866025   0.000000 )  
               a(3) = (   0.000000   0.000000   2.250000 )  

     reciprocal axes: (cart. coord. in units 2 pi/alat)
               b(1) = (  1.000000  0.577350 -0.000000 )  
               b(2) = (  0.000000  1.154701  0.000000 )  
               b(3) = (  0.000000 -0.000000  0.444444 )  


     PseudoPot. # 1 for Au read from file:
     /home/scc/andrejb/qe/pseudo/Au.pbe-nd-van.UPF
     MD5 check sum: 458681b50f36d87ef23c61b04bba420a
     Pseudo is Ultrasoft + core correction, Zval = 11.0
     Generated by new atomic code, or converted to UPF format
     Using radial grid of  985 points,  3 beta functions with: 
                l(1) =   1
                l(2) =   2
                l(3) =   2
     Q(r) pseudized with  8 coefficients,  rinner =    1.100   1.100   1.100
                                                       1.100   1.100

     PseudoPot. # 2 for H  read from file:
     /home/scc/andrejb/qe/pseudo/H.pbe-van_ak.UPF
     MD5 check sum: 403db7282739603aa925980fa9b8608d
     Pseudo is Ultrasoft, Zval =  1.0
     Generated by new atomic code, or converted to UPF format
     Using radial grid of  615 points,  1 beta functions with: 
                l(1) =   0
     Q(r) pseudized with  8 coefficients,  rinner =    0.800

     PseudoPot. # 3 for O  read from file:
     /home/scc/andrejb/qe/pseudo/O.pbe-van_ak.UPF
     MD5 check sum: 4b8c549914a63cae506c6ff22b5af4fe
     Pseudo is Ultrasoft, Zval =  6.0
     Generated by new atomic code, or converted to UPF format
     Using radial grid of  737 points,  4 beta functions with: 
                l(1) =   0
                l(2) =   0
                l(3) =   1
                l(4) =   1
     Q(r) pseudized with  8 coefficients,  rinner =    0.800   0.800   0.800


     vdW kernel table read from file vdW_kernel_table
     MD5 check sum: 48e77a2e26edf626eeb0eaa751ad5cac

     atomic species   valence    mass     pseudopotential
        Au            11.00   196.96657     Au( 1.00)
        H              1.00     1.01000     H ( 1.00)
        O              6.00    16.00000     O ( 1.00)

     No symmetry found



   Cartesian axes

     site n.     atom                  positions (alat units)
         1           O   tau(   1) = (   0.4790780   0.3968269   0.9287316  )
         2           H   tau(   2) = (   0.4291446   0.3552792   0.9769851  )
         3           H   tau(   3) = (   0.5274974   0.4371337   0.9794923  )
         4           Au  tau(   4) = (   0.3540481   0.6132292   0.0000000  )
         5           Au  tau(   5) = (   0.4790062   0.3967954   0.0000000  )
         6           Au  tau(   6) = (   0.6039644   0.1803616   0.0000000  )
         7           Au  tau(   7) = (   0.7289225  -0.0360723   0.0000000  )
         8           Au  tau(   8) = (   0.1041318   0.6132292   0.0000000  )
         9           Au  tau(   9) = (   0.2290899   0.3967954   0.0000000  )
        10           Au  tau(  10) = (   0.3540481   0.1803616   0.0000000  )
        11           Au  tau(  11) = (   0.4790062  -0.0360723   0.0000000  )
        12           Au  tau(  12) = (  -0.1457845   0.6132292   0.0000000  )
        13           Au  tau(  13) = (  -0.0208264   0.3967954   0.0000000  )
        14           Au  tau(  14) = (   0.1041318   0.1803616   0.0000000  )
        15           Au  tau(  15) = (   0.2290899  -0.0360723   0.0000000  )
        16           Au  tau(  16) = (  -0.3957008   0.6132292   0.0000000  )
        17           Au  tau(  17) = (  -0.2707426   0.3967954   0.0000000  )
        18           Au  tau(  18) = (  -0.1457845   0.1803616   0.0000000  )
        19           Au  tau(  19) = (  -0.0208264  -0.0360723   0.0000000  )
        20           Au  tau(  20) = (   0.4790062   0.6853738   0.2040557  )
        21           Au  tau(  21) = (   0.6039644   0.4689400   0.2040557  )
        22           Au  tau(  22) = (   0.7289225   0.2525061   0.2040557  )
        23           Au  tau(  23) = (   0.8538806   0.0360723   0.2040557  )
        24           Au  tau(  24) = (   0.2290899   0.6853738   0.2040557  )
        25           Au  tau(  25) = (   0.3540481   0.4689400   0.2040557  )
        26           Au  tau(  26) = (   0.4790062   0.2525061   0.2040557  )
        27           Au  tau(  27) = (   0.6039644   0.0360723   0.2040557  )
        28           Au  tau(  28) = (  -0.0208264   0.6853738   0.2040557  )
        29           Au  tau(  29) = (   0.1041318   0.4689400   0.2040557  )
        30           Au  tau(  30) = (   0.2290899   0.2525061   0.2040557  )
        31           Au  tau(  31) = (   0.3540481   0.0360723   0.2040557  )
        32           Au  tau(  32) = (  -0.2707426   0.6853738   0.2040557  )
        33           Au  tau(  33) = (  -0.1457845   0.4689400   0.2040557  )
        34           Au  tau(  34) = (  -0.0208264   0.2525061   0.2040557  )
        35           Au  tau(  35) = (   0.1041318   0.0360723   0.2040557  )
        36           Au  tau(  36) = (   0.3541162   0.7576593   0.4066483  )
        37           Au  tau(  37) = (   0.4791000   0.5411421   0.4066695  )
        38           Au  tau(  38) = (   0.6040570   0.3246862   0.4066617  )
        39           Au  tau(  39) = (   0.7290270   0.1081684   0.4066529  )
        40           Au  tau(  40) = (   0.1041162   0.7576236   0.4066247  )
        41           Au  tau(  41) = (   0.2291001   0.5411063   0.4066455  )
        42           Au  tau(  42) = (   0.3540567   0.3246505   0.4066380  )
        43           Au  tau(  43) = (   0.4790276   0.1081324   0.4066292  )
        44           Au  tau(  44) = (  -0.1458201   0.7576104   0.4066224  )
        45           Au  tau(  45) = (  -0.0208365   0.5410930   0.4066438  )
        46           Au  tau(  46) = (   0.1041202   0.3246372   0.4066359  )
        47           Au  tau(  47) = (   0.2290908   0.1081193   0.4066273  )
        48           Au  tau(  48) = (  -0.3958167   0.7575791   0.4065812  )
        49           Au  tau(  49) = (  -0.2708328   0.5410617   0.4066025  )
        50           Au  tau(  50) = (  -0.1458763   0.3246061   0.4065947  )
        51           Au  tau(  51) = (  -0.0209056   0.1080882   0.4065858  )
        52           Au  tau(  52) = (   0.3541085   0.6133344   0.6129762  )
        53           Au  tau(  53) = (   0.4790780   0.3968269   0.6129968  )
        54           Au  tau(  54) = (   0.6040356   0.1803811   0.6129859  )
        55           Au  tau(  55) = (   0.7290165  -0.0361221   0.6129385  )
        56           Au  tau(  56) = (   0.1041243   0.6133091   0.6130022  )
        57           Au  tau(  57) = (   0.2290941   0.3968013   0.6130241  )
        58           Au  tau(  58) = (   0.3540515   0.1803552   0.6130121  )
        59           Au  tau(  59) = (   0.4790323  -0.0361475   0.6129659  )
        60           Au  tau(  60) = (  -0.1458030   0.6133014   0.6129980  )
        61           Au  tau(  61) = (  -0.0208339   0.3967936   0.6130188  )
        62           Au  tau(  62) = (   0.1041239   0.1803477   0.6130083  )
        63           Au  tau(  63) = (   0.2291046  -0.0361554   0.6129607  )
        64           Au  tau(  64) = (  -0.3957908   0.6132739   0.6129471  )
        65           Au  tau(  65) = (  -0.2708208   0.3967658   0.6129688  )
        66           Au  tau(  66) = (  -0.1458636   0.1803200   0.6129569  )
        67           Au  tau(  67) = (  -0.0208823  -0.0361826   0.6129110  )

     number of k points=    12  Marzari-Vanderbilt smearing, width (Ry)=  0.0200
                       cart. coord. in units 2pi/alat
        k(    1) = (   0.2500000   0.4330127   0.1111111), wk =   0.1666667
        k(    2) = (   0.2500000  -0.1443376   0.1111111), wk =   0.1666667
        k(    3) = (  -0.2500000  -0.4330127   0.1111111), wk =   0.1666667
        k(    4) = (  -0.2500000   0.4330127  -0.1111111), wk =   0.1666667
        k(    5) = (   0.2500000  -0.4330127  -0.1111111), wk =   0.1666667
        k(    6) = (   0.5000000   0.0000000   0.1111111), wk =   0.1666667
        k(    7) = (  -0.5000000   0.0000000   0.1111111), wk =   0.1666667
        k(    8) = (  -0.2500000   0.1443376   0.1111111), wk =   0.1666667
        k(    9) = (  -0.2500000  -0.1443376  -0.1111111), wk =   0.1666667
        k(   10) = (   0.2500000   0.1443376  -0.1111111), wk =   0.1666667
        k(   11) = (   0.0000000  -0.2886751   0.1111111), wk =   0.1666667
        k(   12) = (   0.0000000   0.2886751   0.1111111), wk =   0.1666667

     Dense  grid:  3097177 G-vectors     FFT dimensions: ( 150, 150, 360)

     Smooth grid:  1095093 G-vectors     FFT dimensions: ( 108, 108, 240)

     Largest allocated arrays     est. size (Mb)     dimensions
        Kohn-Sham Wavefunctions        28.01 Mb     (    4299,  427)
        NL pseudopotentials            55.23 Mb     (    4299,  842)
        Each V/rho on FFT grid          4.12 Mb     (  270000)
        Each G-vector array             0.74 Mb     (   96788)
        G-vector shells                 0.16 Mb     (   21404)
     Largest temporary arrays     est. size (Mb)     dimensions
        Auxiliary wavefunctions       112.04 Mb     (    4299, 1708)
        Each subspace H/S matrix       44.51 Mb     (    1708, 1708)
        Each <psi_i|beta_j> matrix      5.49 Mb     (     842,  427)
        Arrays for rho mixing          32.96 Mb     (  270000,    8)

     Initial potential from superposition of free atoms
     Check: negative starting charge=   -1.730054

     starting charge  711.25682, renormalised to  712.00000

     negative rho (up, down):  1.732E+00 0.000E+00


     ************************************************************************
     *
     * You are using vdW-DF for exchange-correlation in this calculation.
     * Please cite the following three references that made this development
     * possible:
     *
     *   M. Dion, H. Rydberg, E. Schroder, D. C. Langreth, and
     *   B. I. Lundqvist, Phys. Rev. Lett. 92, 246401 (2004).
     *
     *   T. Thonhauser, V. R. Cooper, S. Li, A. Puzder, P. Hyldgaard, and
     *   D. C. Langreth, Phys. Rev. B 76, 125112 (2007).
     *
     *   G. Roman-Perez and J. M. Soler, Phys. Rev. Lett. 103, 096102 (2009).
     *
     *
     * If you are using vdW-DF2, please also cite:
     *
     *   K. Lee, E. D. Murray, L. Kong, B. I. Lundqvist, and
     *   D. C. Langreth, Phys. Rev. B 82, 081101(R) (2010).
     *
     *
     * If you are calculating the stress with vdW-DF, please also cite:
     *
     *   R. Sabatini, E. Kucukbenli, B. Kolb, T. Thonhauser, and
     *   S. de Gironcoli, J. Phys.: Condens. Matter 24, 424209 (2012).
     *
     ************************************************************************

     Carrying out vdW-DF run using the following parameters:

     Nqs =      20    Nr_points =    1024   r_max =   100.000
     q_mesh =
               0.00001000     0.04494208     0.09755937     0.15916263
               0.23128650     0.31572767     0.41458969     0.53033537
               0.66584808     0.82450364     1.01025438     1.22772762
               1.48234092     1.78043706     2.12944203     2.53805004
               3.01644009     3.57652955     4.23227104     5.00000000

     Gradients computed in reciprocal space

     ************************************************************************


     Starting wfc are  582 randomized atomic wfcs

     total cpu time spent up to now is      156.5 secs

     Self-consistent Calculation

     iteration #  1     ecut=    50.00 Ry     beta=0.70
     Davidson diagonalization with overlap
     ethr =  1.00E-02,  avg # of iterations =  3.0

     Threshold (ethr) on eigenvalues was too large:
     Diagonalizing with lowered threshold

     Davidson diagonalization with overlap
     ethr =  3.55E-04,  avg # of iterations =  4.5

     negative rho (up, down):  1.728E+00 0.000E+00

     total cpu time spent up to now is      811.7 secs

     total energy              =   -6602.76580951 Ry
     Harris-Foulkes estimate   =   -6605.05291784 Ry
     estimated scf accuracy    <       2.86011777 Ry

     iteration #  2     ecut=    50.00 Ry     beta=0.70
     Davidson diagonalization with overlap
     ethr =  4.02E-04,  avg # of iterations = 11.1

     negative rho (up, down):  1.725E+00 0.000E+00

     total cpu time spent up to now is     1857.9 secs

     total energy              =   -6596.34018082 Ry
     Harris-Foulkes estimate   =   -6610.22672406 Ry
     estimated scf accuracy    <      78.36465006 Ry

     iteration #  3     ecut=    50.00 Ry     beta=0.70
     Davidson diagonalization with overlap
     ethr =  4.02E-04,  avg # of iterations =  6.0

     negative rho (up, down):  1.735E+00 0.000E+00

     total cpu time spent up to now is     2467.9 secs

     total energy              =   -6603.15987966 Ry
     Harris-Foulkes estimate   =   -6605.00869152 Ry
     estimated scf accuracy    <       8.47447980 Ry

     iteration #  4     ecut=    50.00 Ry     beta=0.70
     Davidson diagonalization with overlap
     ethr =  4.02E-04,  avg # of iterations =  6.2

     negative rho (up, down):  1.737E+00 0.000E+00

     total cpu time spent up to now is     2824.0 secs

     total energy              =   -6603.74391862 Ry
     Harris-Foulkes estimate   =   -6604.93218073 Ry
     estimated scf accuracy    <       9.23694367 Ry

     iteration #  5     ecut=    50.00 Ry     beta=0.70
     Davidson diagonalization with overlap
     ethr =  4.02E-04,  avg # of iterations =  6.0

     negative rho (up, down):  1.747E+00 0.000E+00

     total cpu time spent up to now is     3173.7 secs

     total energy              =   -6604.25062101 Ry
     Harris-Foulkes estimate   =   -6604.69231104 Ry
     estimated scf accuracy    <       3.87535879 Ry

     iteration #  6     ecut=    50.00 Ry     beta=0.70
     Davidson diagonalization with overlap
     ethr =  4.02E-04,  avg # of iterations =  3.0

     negative rho (up, down):  1.751E+00 0.000E+00

     total cpu time spent up to now is     3453.3 secs

     total energy              =   -6604.42555874 Ry
     Harris-Foulkes estimate   =   -6604.46778330 Ry
     estimated scf accuracy    <       0.12656348 Ry

     iteration #  7     ecut=    50.00 Ry     beta=0.70
     Davidson diagonalization with overlap
     ethr =  1.78E-05,  avg # of iterations = 12.3

     negative rho (up, down):  1.753E+00 0.000E+00

     total cpu time spent up to now is     3970.0 secs

     total energy              =   -6604.43030271 Ry
     Harris-Foulkes estimate   =   -6604.45764342 Ry
     estimated scf accuracy    <       0.11433931 Ry

     iteration #  8     ecut=    50.00 Ry     beta=0.70
     Davidson diagonalization with overlap
     ethr =  1.61E-05,  avg # of iterations =  3.6

     negative rho (up, down):  1.755E+00 0.000E+00

     total cpu time spent up to now is     4255.3 secs

     total energy              =   -6604.43378507 Ry
     Harris-Foulkes estimate   =   -6604.44684209 Ry
     estimated scf accuracy    <       0.04796703 Ry

     iteration #  9     ecut=    50.00 Ry     beta=0.70
     Davidson diagonalization with overlap
     ethr =  6.74E-06,  avg # of iterations =  8.2

     negative rho (up, down):  1.756E+00 0.000E+00

     total cpu time spent up to now is     4635.9 secs

     total energy              =   -6604.43382033 Ry
     Harris-Foulkes estimate   =   -6604.44019761 Ry
     estimated scf accuracy    <       0.02181366 Ry

     iteration # 10     ecut=    50.00 Ry     beta=0.70
     Davidson diagonalization with overlap
     ethr =  3.06E-06,  avg # of iterations = 10.1

     negative rho (up, down):  1.757E+00 0.000E+00

     total cpu time spent up to now is     5035.1 secs

     total energy              =   -6604.43379172 Ry
     Harris-Foulkes estimate   =   -6604.43648798 Ry
     estimated scf accuracy    <       0.00941429 Ry

     iteration # 11     ecut=    50.00 Ry     beta=0.70
     Davidson diagonalization with overlap
     c_bands:  1 eigenvalues not converged
     c_bands:  1 eigenvalues not converged
     ethr =  1.32E-06,  avg # of iterations = 12.9

     negative rho (up, down):  1.757E+00 0.000E+00

     total cpu time spent up to now is     5512.0 secs

     total energy              =   -6604.43366555 Ry
     Harris-Foulkes estimate   =   -6604.43488576 Ry
     estimated scf accuracy    <       0.00524604 Ry

     iteration # 12     ecut=    50.00 Ry     beta=0.70
     Davidson diagonalization with overlap
     ethr =  7.37E-07,  avg # of iterations =  3.8

     negative rho (up, down):  1.758E+00 0.000E+00

     total cpu time spent up to now is     5811.9 secs

     total energy              =   -6604.43289493 Ry
     Harris-Foulkes estimate   =   -6604.43408927 Ry
     estimated scf accuracy    <       0.00180630 Ry

     iteration # 13     ecut=    50.00 Ry     beta=0.70
     Davidson diagonalization with overlap
     c_bands:  1 eigenvalues not converged
     ethr =  2.54E-07,  avg # of iterations = 12.0

     negative rho (up, down):  1.758E+00 0.000E+00

     total cpu time spent up to now is     6279.8 secs

     total energy              =   -6604.43317276 Ry
     Harris-Foulkes estimate   =   -6604.43332031 Ry
     estimated scf accuracy    <       0.00033721 Ry

     iteration # 14     ecut=    50.00 Ry     beta=0.70
     Davidson diagonalization with overlap
     ethr =  4.74E-08,  avg # of iterations =  3.0

     negative rho (up, down):  1.758E+00 0.000E+00

     total cpu time spent up to now is     6587.1 secs

     total energy              =   -6604.43322587 Ry
     Harris-Foulkes estimate   =   -6604.43329325 Ry
     estimated scf accuracy    <       0.00021902 Ry

     iteration # 15     ecut=    50.00 Ry     beta=0.70
     Davidson diagonalization with overlap
     ethr =  3.08E-08,  avg # of iterations =  2.0

     negative rho (up, down):  1.758E+00 0.000E+00

     total cpu time spent up to now is     6900.2 secs

     total energy              =   -6604.43324175 Ry
     Harris-Foulkes estimate   =   -6604.43328599 Ry
     estimated scf accuracy    <       0.00018491 Ry

     iteration # 16     ecut=    50.00 Ry     beta=0.70
     Davidson diagonalization with overlap
     ethr =  2.60E-08,  avg # of iterations =  2.0

     negative rho (up, down):  1.758E+00 0.000E+00

     total cpu time spent up to now is     7154.8 secs

     total energy              =   -6604.43325459 Ry
     Harris-Foulkes estimate   =   -6604.43327249 Ry
     estimated scf accuracy    <       0.00008724 Ry

     iteration # 17     ecut=    50.00 Ry     beta=0.70
     Davidson diagonalization with overlap
     ethr =  1.23E-08,  avg # of iterations =  1.0

     negative rho (up, down):  1.758E+00 0.000E+00

     total cpu time spent up to now is     7399.2 secs

     total energy              =   -6604.43325740 Ry
     Harris-Foulkes estimate   =   -6604.43327562 Ry
     estimated scf accuracy    <       0.00017949 Ry

     iteration # 18     ecut=    50.00 Ry     beta=0.70
     Davidson diagonalization with overlap
     ethr =  1.23E-08,  avg # of iterations =  1.0

     negative rho (up, down):  1.758E+00 0.000E+00

     total cpu time spent up to now is     7659.9 secs

     total energy              =   -6604.43326607 Ry
     Harris-Foulkes estimate   =   -6604.43326825 Ry
     estimated scf accuracy    <       0.00001041 Ry

     iteration # 19     ecut=    50.00 Ry     beta=0.70
     Davidson diagonalization with overlap
     ethr =  1.46E-09,  avg # of iterations =  2.0

     negative rho (up, down):  1.758E+00 0.000E+00

     total cpu time spent up to now is     7922.0 secs

     total energy              =   -6604.43326762 Ry
     Harris-Foulkes estimate   =   -6604.43326763 Ry
     estimated scf accuracy    <       0.00000075 Ry

     iteration # 20     ecut=    50.00 Ry     beta=0.70
     Davidson diagonalization with overlap
     ethr =  1.06E-10,  avg # of iterations =  2.0

     negative rho (up, down):  1.758E+00 0.000E+00

     total cpu time spent up to now is     8245.2 secs

     total energy              =   -6604.43326791 Ry
     Harris-Foulkes estimate   =   -6604.43326784 Ry
     estimated scf accuracy    <       0.00000022 Ry

     iteration # 21     ecut=    50.00 Ry     beta=0.70
     Davidson diagonalization with overlap
     ethr =  3.14E-11,  avg # of iterations =  2.0

     negative rho (up, down):  1.758E+00 0.000E+00

     total cpu time spent up to now is     8565.5 secs

     total energy              =   -6604.43326797 Ry
     Harris-Foulkes estimate   =   -6604.43326797 Ry
     estimated scf accuracy    <       0.00000013 Ry

     iteration # 22     ecut=    50.00 Ry     beta=0.70
     Davidson diagonalization with overlap
     ethr =  1.79E-11,  avg # of iterations =  2.0

     negative rho (up, down):  1.758E+00 0.000E+00

     total cpu time spent up to now is     8815.7 secs

     total energy              =   -6604.43326799 Ry
     Harris-Foulkes estimate   =   -6604.43326799 Ry
     estimated scf accuracy    <       0.00000002 Ry

     iteration # 23     ecut=    50.00 Ry     beta=0.70
     Davidson diagonalization with overlap
     ethr =  3.09E-12,  avg # of iterations =  3.0

     negative rho (up, down):  1.758E+00 0.000E+00

     total cpu time spent up to now is     9230.5 secs

     total energy              =   -6604.43326800 Ry
     Harris-Foulkes estimate   =   -6604.43326801 Ry
     estimated scf accuracy    <       0.00000007 Ry

     iteration # 24     ecut=    50.00 Ry     beta=0.70
     Davidson diagonalization with overlap
     ethr =  3.09E-12,  avg # of iterations =  3.0

     negative rho (up, down):  1.758E+00 0.000E+00

     total cpu time spent up to now is     9577.7 secs

     End of self-consistent calculation

          k = 0.2500 0.4330 0.1111 (136853 PWs)   bands (ev):

   -18.8789  -6.6916  -6.2284  -5.8292  -5.8289  -5.1508  -4.8177  -4.8175
    -4.7784  -4.7775  -4.4174  -4.4172  -4.3187  -4.3186  -4.3046  -4.2835
    -4.2557  -4.1512  -4.1508  -4.1269  -4.0834  -4.0834  -4.0144  -4.0142
    -4.0073  -4.0071  -3.9862  -3.9805  -3.9803  -3.9075  -3.9063  -3.8779
    -3.8779  -3.8658  -3.8656  -3.8424  -3.8424  -3.8199  -3.8114  -3.8113
    -3.7846  -3.7324  -3.7324  -3.6845  -3.6844  -3.6249  -3.6248  -3.5705
    -3.5704  -3.5697  -3.5696  -3.5345  -3.4946  -3.4944  -3.4889  -3.4876
    -3.4875  -3.4569  -3.4560  -3.4482  -3.3859  -3.3856  -3.3760  -3.3604
    -3.3533  -3.2806  -3.2804  -3.2473  -3.2460  -3.2192  -3.2188  -3.2058
    -3.1892  -3.1289  -3.1284  -3.1115  -3.1112  -3.0590  -3.0542  -3.0539
    -3.0164  -2.9852  -2.9836  -2.9779  -2.9757  -2.9633  -2.9620  -2.9548
    -2.9540  -2.9444  -2.9365  -2.9032  -2.8660  -2.8653  -2.8511  -2.8507
    -2.8255  -2.8151  -2.8149  -2.7929  -2.7492  -2.7484  -2.7396  -2.7003
    -2.6940  -2.6825  -2.6821  -2.6530  -2.6524  -2.6237  -2.5858  -2.5857
    -2.5633  -2.5565  -2.5425  -2.5419  -2.4915  -2.4915  -2.4588  -2.4360
    -2.4360  -2.4118  -2.4114  -2.4005  -2.4002  -2.3895  -2.3666  -2.3665
    -2.3223  -2.3220  -2.3207  -2.3036  -2.3033  -2.2988  -2.2887  -2.2884
    -2.2858  -2.2857  -2.2803  -2.2673  -2.2670  -2.2559  -2.2309  -2.2308
    -2.2293  -2.2284  -2.2275  -2.2254  -2.2245  -2.1967  -2.1939  -2.1797
    -2.1795  -2.1620  -2.1618  -2.1517  -2.1516  -2.1502  -2.1495  -2.1304
    -2.1290  -2.1285  -2.1271  -2.1104  -2.0843  -2.0842  -2.0446  -2.0442
    -2.0184  -2.0181  -1.9912  -1.9909  -1.9632  -1.9630  -1.9461  -1.9416
    -1.9148  -1.8918  -1.8913  -1.8868  -1.8860  -1.8821  -1.8750  -1.8737
    -1.8490  -1.8423  -1.8314  -1.7760  -1.7718  -1.7706  -1.7681  -1.7677
    -1.7296  -1.7125  -1.7123  -1.6842  -1.6838  -1.6234  -1.6229  -1.5945
    -1.5764  -1.5755  -1.5149  -1.5147  -1.5032  -1.5023  -1.4920  -1.4912
    -1.4884  -1.4787  -1.4779  -1.4229  -1.4221  -1.4104  -1.4103  -1.4094
    -1.3909  -1.3896  -1.3548  -1.3543  -1.3373  -1.3373  -1.3369  -1.3305
    -1.3252  -1.3161  -1.3147  -1.2966  -1.2963  -1.2551  -1.2534  -1.2423
    -1.2413  -1.2214  -1.2087  -1.1652  -1.1642  -1.1388  -1.1340  -1.1335
    -1.1047  -1.0534  -1.0525  -1.0516  -1.0508  -1.0459  -1.0447  -1.0349
    -1.0165  -1.0160  -0.9767  -0.9757  -0.9455  -0.9452  -0.9409  -0.9402
    -0.9320  -0.9160  -0.9157  -0.9147  -0.9124  -0.9117  -0.8922  -0.8731
    -0.8722  -0.8717  -0.8697  -0.8399  -0.8394  -0.8357  -0.8125  -0.8047
    -0.8037  -0.7577  -0.7510  -0.7496  -0.7156  -0.7074  -0.6965  -0.6964
    -0.6882  -0.6880  -0.6872  -0.6857  -0.6750  -0.6743  -0.6485  -0.6483
    -0.6456  -0.6435  -0.6429  -0.6062  -0.6059  -0.5950  -0.5946  -0.5796
    -0.5724  -0.5711  -0.5601  -0.5047  -0.5021  -0.4933  -0.4931  -0.4920
    -0.4916  -0.4865  -0.4674  -0.4660  -0.4581  -0.4579  -0.4560  -0.4555
    -0.4165  -0.4141  -0.4135  -0.4058  -0.4049  -0.4000  -0.3981  -0.3884
    -0.3825  -0.3789  -0.3782  -0.3364  -0.3361  -0.3277  -0.3244  -0.3238
    -0.2469  -0.2460  -0.2439  -0.2435  -0.2345  -0.2341  -0.1978  -0.1850
    -0.1847  -0.1580  -0.1538  -0.1525  -0.0320  -0.0299   0.0711   0.4864
     0.4867   0.4895   0.4896   0.5498   0.5522   0.9395   0.9400   0.9825
     0.9829   1.0904   1.1710   1.2802   1.2851   1.4999   1.5088   2.1364
     2.1377   2.2984   2.3004   2.4293   2.4330   2.5351   2.5352   2.6893
     2.9267   2.9305   3.0497   3.2727   3.2784   3.3591   3.3597   3.4593
     3.4744   3.6634   3.6734   3.7311   3.9314   3.9320   3.9933   3.9961
     4.2516   4.2579   4.2613   4.5020   4.5441   4.5451   4.5898   4.9250
     4.9273   4.9556   5.0896   5.1054   5.2624   5.2628   5.3172   5.3407
     5.7250   5.9478   6.0384   6.0500   6.0555   6.0616   6.1252   6.1257
     6.1956   6.2354   6.2601   6.2839   6.2879   6.2990   6.3007   6.3239
     6.3481   6.3517   6.4992   6.5761   6.7350   6.7920   6.8891   6.9710
     6.9933   6.9958   7.0065

          k = 0.2500-0.1443 0.1111 (136898 PWs)   bands (ev):

   -18.8789  -6.6917  -6.4384  -5.6463  -5.3548  -5.2961  -5.2958  -4.7576
    -4.7574  -4.6255  -4.6253  -4.4709  -4.4385  -4.3779  -4.3441  -4.3435
    -4.3109  -4.3109  -4.1823  -4.1405  -4.1405  -4.0804  -4.0593  -4.0590
    -3.9571  -3.9570  -3.9209  -3.9206  -3.9205  -3.8936  -3.8720  -3.8720
    -3.7663  -3.7649  -3.7648  -3.7441  -3.7272  -3.7271  -3.7149  -3.7147
    -3.7015  -3.6713  -3.6712  -3.6711  -3.6710  -3.6384  -3.6383  -3.6207
    -3.6205  -3.6054  -3.5618  -3.5616  -3.5323  -3.5168  -3.5164  -3.5124
    -3.5123  -3.4376  -3.4376  -3.4020  -3.3998  -3.3997  -3.3322  -3.3320
    -3.3167  -3.3165  -3.2854  -3.2851  -3.2844  -3.2841  -3.1311  -3.1309
    -3.1052  -3.1049  -3.0999  -3.0842  -3.0840  -3.0581  -3.0578  -3.0084
    -3.0081  -2.9917  -2.9917  -2.9722  -2.9425  -2.9224  -2.9216  -2.9024
    -2.8981  -2.8970  -2.8570  -2.8565  -2.8507  -2.8494  -2.8339  -2.8327
    -2.7942  -2.7939  -2.7723  -2.7721  -2.7691  -2.7685  -2.7659  -2.6886
    -2.6883  -2.6869  -2.6585  -2.6578  -2.5963  -2.5961  -2.5680  -2.5668
    -2.5537  -2.5533  -2.5482  -2.5186  -2.5185  -2.5090  -2.4912  -2.4655
    -2.4653  -2.4650  -2.4445  -2.4443  -2.4331  -2.4327  -2.4298  -2.4289
    -2.4217  -2.3755  -2.3429  -2.3427  -2.3273  -2.3131  -2.3068  -2.3066
    -2.2993  -2.2988  -2.2976  -2.2677  -2.2675  -2.2671  -2.2576  -2.2574
    -2.2401  -2.2128  -2.2122  -2.2117  -2.2109  -2.2102  -2.1658  -2.1340
    -2.1339  -2.1335  -2.1270  -2.1182  -2.1050  -2.1048  -2.0883  -2.0883
    -2.0540  -2.0533  -2.0530  -2.0347  -2.0328  -2.0326  -1.9998  -1.9992
    -1.9582  -1.9579  -1.9506  -1.9487  -1.9484  -1.9420  -1.9415  -1.9394
    -1.9390  -1.9325  -1.9315  -1.9153  -1.9147  -1.7881  -1.7874  -1.7555
    -1.7500  -1.7489  -1.7442  -1.7439  -1.7260  -1.7257  -1.7231  -1.7229
    -1.7210  -1.6984  -1.6899  -1.6893  -1.6855  -1.6780  -1.6772  -1.6548
    -1.6547  -1.6262  -1.6261  -1.5937  -1.5934  -1.5835  -1.5754  -1.5577
    -1.5571  -1.5546  -1.5361  -1.5238  -1.5236  -1.5162  -1.5161  -1.4893
    -1.4892  -1.4722  -1.4721  -1.4403  -1.4392  -1.4299  -1.3789  -1.3787
    -1.3667  -1.3660  -1.3648  -1.3408  -1.3383  -1.3045  -1.3039  -1.3035
    -1.2701  -1.2602  -1.2593  -1.2443  -1.2439  -1.2174  -1.2160  -1.2154
    -1.1861  -1.1834  -1.1830  -1.1207  -1.1201  -1.1073  -1.1062  -1.0907
    -1.0904  -1.0780  -1.0777  -1.0599  -1.0471  -1.0193  -1.0190  -1.0078
    -0.9811  -0.9697  -0.9686  -0.9578  -0.9577  -0.9553  -0.9503  -0.9497
    -0.9368  -0.9057  -0.9054  -0.8990  -0.8946  -0.8935  -0.8917  -0.8812
    -0.8686  -0.8506  -0.8474  -0.8296  -0.8274  -0.7358  -0.7230  -0.7173
    -0.7171  -0.7131  -0.7078  -0.7070  -0.6859  -0.6814  -0.6670  -0.6655
    -0.6517  -0.6510  -0.6423  -0.6226  -0.6209  -0.6200  -0.6118  -0.5402
    -0.5399  -0.5064  -0.5047  -0.5017  -0.4949  -0.4938  -0.4932  -0.4927
    -0.4802  -0.4791  -0.4639  -0.4389  -0.4243  -0.4045  -0.4037  -0.3931
    -0.3922  -0.3802  -0.3795  -0.3789  -0.3772  -0.3767  -0.3596  -0.3555
    -0.3548  -0.3245  -0.3232  -0.3225  -0.3108  -0.3107  -0.2914  -0.2594
    -0.2590  -0.2500  -0.2496  -0.1818  -0.1814  -0.1443  -0.1442  -0.0870
    -0.0844  -0.0840  -0.0739  -0.0552   0.1654   0.1702   0.5147   0.5148
     0.6043   0.6088   0.7992   0.8148   0.8324   0.9630   0.9641   1.3949
     1.3949   1.4135   1.6711   1.7050   1.7050   1.9789   1.9862   2.0613
     2.0617   2.0873   2.0915   2.3180   2.3181   2.4059   2.4063   2.4768
     2.5422   2.5501   2.7101   2.8075   3.2482   3.2491   3.2511   3.2537
     3.3070   3.3071   3.5992   3.5994   3.8788   3.8836   3.9810   4.2950
     4.3368   4.3401   4.5467   4.5598   4.6386   4.6400   4.7300   4.8475
     4.8496   4.9649   4.9663   5.0720   5.2700   5.3378   5.3410   5.4913
     5.5115   5.7259   5.7266   5.7316   5.7530   5.7536   5.8161   5.8176
     5.8637   6.0485   6.2571   6.2630   6.4231   6.4416   6.5556   6.5596
     6.5618   6.5713   6.5786   6.7416   6.8117   6.8139   6.8173   6.9773
     7.0109   7.0304   7.0489

          k =-0.2500-0.4330 0.1111 (136853 PWs)   bands (ev):

   -18.8789  -6.6916  -6.2284  -5.8292  -5.8289  -5.1508  -4.8177  -4.8175
    -4.7784  -4.7775  -4.4174  -4.4172  -4.3187  -4.3186  -4.3046  -4.2835
    -4.2557  -4.1512  -4.1508  -4.1269  -4.0834  -4.0834  -4.0144  -4.0142
    -4.0073  -4.0071  -3.9862  -3.9805  -3.9803  -3.9075  -3.9063  -3.8779
    -3.8779  -3.8658  -3.8656  -3.8424  -3.8424  -3.8199  -3.8114  -3.8113
    -3.7846  -3.7324  -3.7324  -3.6845  -3.6844  -3.6249  -3.6248  -3.5705
    -3.5704  -3.5697  -3.5696  -3.5345  -3.4946  -3.4944  -3.4889  -3.4876
    -3.4875  -3.4569  -3.4560  -3.4482  -3.3859  -3.3856  -3.3760  -3.3604
    -3.3533  -3.2806  -3.2804  -3.2473  -3.2460  -3.2192  -3.2188  -3.2058
    -3.1892  -3.1289  -3.1284  -3.1115  -3.1112  -3.0590  -3.0542  -3.0539
    -3.0164  -2.9852  -2.9836  -2.9779  -2.9757  -2.9633  -2.9620  -2.9548
    -2.9540  -2.9444  -2.9365  -2.9032  -2.8660  -2.8653  -2.8511  -2.8507
    -2.8255  -2.8151  -2.8149  -2.7929  -2.7492  -2.7484  -2.7396  -2.7003
    -2.6940  -2.6825  -2.6821  -2.6530  -2.6524  -2.6237  -2.5858  -2.5857
    -2.5633  -2.5565  -2.5425  -2.5419  -2.4915  -2.4915  -2.4588  -2.4360
    -2.4360  -2.4118  -2.4114  -2.4005  -2.4002  -2.3895  -2.3666  -2.3665
    -2.3223  -2.3220  -2.3207  -2.3036  -2.3033  -2.2988  -2.2887  -2.2884
    -2.2858  -2.2857  -2.2803  -2.2673  -2.2670  -2.2559  -2.2309  -2.2308
    -2.2293  -2.2284  -2.2275  -2.2254  -2.2245  -2.1967  -2.1939  -2.1797
    -2.1795  -2.1620  -2.1618  -2.1517  -2.1516  -2.1502  -2.1495  -2.1304
    -2.1290  -2.1285  -2.1271  -2.1104  -2.0843  -2.0842  -2.0446  -2.0442
    -2.0184  -2.0181  -1.9912  -1.9909  -1.9632  -1.9630  -1.9461  -1.9416
    -1.9148  -1.8918  -1.8913  -1.8868  -1.8860  -1.8821  -1.8750  -1.8737
    -1.8490  -1.8423  -1.8314  -1.7760  -1.7718  -1.7706  -1.7681  -1.7677
    -1.7296  -1.7125  -1.7123  -1.6842  -1.6838  -1.6234  -1.6229  -1.5945
    -1.5764  -1.5755  -1.5149  -1.5147  -1.5032  -1.5023  -1.4920  -1.4912
    -1.4884  -1.4787  -1.4779  -1.4229  -1.4221  -1.4104  -1.4103  -1.4094
    -1.3909  -1.3896  -1.3548  -1.3543  -1.3373  -1.3373  -1.3369  -1.3305
    -1.3252  -1.3161  -1.3147  -1.2966  -1.2963  -1.2551  -1.2534  -1.2423
    -1.2413  -1.2214  -1.2087  -1.1652  -1.1642  -1.1388  -1.1340  -1.1335
    -1.1047  -1.0534  -1.0525  -1.0516  -1.0508  -1.0459  -1.0447  -1.0349
    -1.0165  -1.0160  -0.9767  -0.9757  -0.9455  -0.9452  -0.9409  -0.9402
    -0.9320  -0.9160  -0.9157  -0.9147  -0.9124  -0.9117  -0.8922  -0.8731
    -0.8722  -0.8717  -0.8697  -0.8399  -0.8394  -0.8357  -0.8125  -0.8047
    -0.8037  -0.7577  -0.7510  -0.7496  -0.7156  -0.7074  -0.6965  -0.6964
    -0.6882  -0.6880  -0.6872  -0.6857  -0.6750  -0.6743  -0.6485  -0.6483
    -0.6456  -0.6435  -0.6429  -0.6062  -0.6059  -0.5950  -0.5946  -0.5796
    -0.5724  -0.5711  -0.5601  -0.5047  -0.5021  -0.4933  -0.4931  -0.4920
    -0.4916  -0.4865  -0.4674  -0.4660  -0.4581  -0.4579  -0.4560  -0.4555
    -0.4165  -0.4141  -0.4135  -0.4058  -0.4049  -0.4000  -0.3981  -0.3884
    -0.3825  -0.3789  -0.3782  -0.3364  -0.3361  -0.3277  -0.3244  -0.3238
    -0.2469  -0.2460  -0.2439  -0.2435  -0.2345  -0.2341  -0.1978  -0.1850
    -0.1847  -0.1580  -0.1538  -0.1525  -0.0320  -0.0299   0.0711   0.4864
     0.4867   0.4895   0.4896   0.5498   0.5522   0.9395   0.9400   0.9825
     0.9829   1.0904   1.1710   1.2802   1.2851   1.4999   1.5088   2.1364
     2.1377   2.2984   2.3004   2.4293   2.4330   2.5351   2.5352   2.6893
     2.9267   2.9305   3.0497   3.2727   3.2784   3.3591   3.3597   3.4593
     3.4744   3.6634   3.6734   3.7311   3.9314   3.9320   3.9933   3.9961
     4.2516   4.2579   4.2613   4.5020   4.5441   4.5451   4.5898   4.9250
     4.9273   4.9556   5.0896   5.1054   5.2624   5.2628   5.3172   5.3407
     5.7248   5.9479   6.0389   6.0500   6.0556   6.0616   6.1252   6.1257
     6.1956   6.2354   6.2601   6.2839   6.2879   6.2990   6.3007   6.3237
     6.3481   6.3517   6.4991   6.5740   6.7359   6.7918   6.8923   6.9705
     6.9932   6.9959   7.0064

          k =-0.2500 0.4330-0.1111 (136853 PWs)   bands (ev):

   -18.8789  -6.6917  -6.2284  -5.8305  -5.8276  -5.1508  -4.8180  -4.8172
    -4.7796  -4.7763  -4.4178  -4.4167  -4.3188  -4.3185  -4.3044  -4.2835
    -4.2557  -4.1518  -4.1504  -4.1269  -4.0836  -4.0833  -4.0145  -4.0141
    -4.0073  -4.0071  -3.9862  -3.9817  -3.9791  -3.9085  -3.9052  -3.8786
    -3.8769  -3.8659  -3.8655  -3.8425  -3.8423  -3.8199  -3.8116  -3.8112
    -3.7847  -3.7327  -3.7322  -3.6854  -3.6835  -3.6249  -3.6247  -3.5706
    -3.5704  -3.5699  -3.5693  -3.5347  -3.4948  -3.4944  -3.4889  -3.4876
    -3.4875  -3.4569  -3.4559  -3.4483  -3.3861  -3.3855  -3.3759  -3.3602
    -3.3531  -3.2812  -3.2802  -3.2474  -3.2457  -3.2195  -3.2182  -3.2058
    -3.1893  -3.1290  -3.1286  -3.1118  -3.1106  -3.0590  -3.0543  -3.0538
    -3.0163  -2.9851  -2.9838  -2.9779  -2.9756  -2.9634  -2.9621  -2.9547
    -2.9537  -2.9446  -2.9364  -2.9032  -2.8667  -2.8647  -2.8512  -2.8504
    -2.8255  -2.8153  -2.8148  -2.7929  -2.7498  -2.7478  -2.7398  -2.7001
    -2.6939  -2.6831  -2.6814  -2.6535  -2.6524  -2.6237  -2.5858  -2.5854
    -2.5633  -2.5566  -2.5427  -2.5418  -2.4918  -2.4912  -2.4587  -2.4363
    -2.4360  -2.4121  -2.4113  -2.4008  -2.3997  -2.3896  -2.3671  -2.3662
    -2.3220  -2.3216  -2.3208  -2.3043  -2.3027  -2.2988  -2.2887  -2.2883
    -2.2862  -2.2853  -2.2802  -2.2679  -2.2660  -2.2561  -2.2309  -2.2306
    -2.2293  -2.2285  -2.2275  -2.2254  -2.2242  -2.1969  -2.1939  -2.1797
    -2.1793  -2.1624  -2.1615  -2.1518  -2.1514  -2.1507  -2.1493  -2.1313
    -2.1287  -2.1283  -2.1269  -2.1105  -2.0848  -2.0841  -2.0455  -2.0434
    -2.0190  -2.0176  -1.9910  -1.9906  -1.9632  -1.9628  -1.9461  -1.9415
    -1.9146  -1.8920  -1.8911  -1.8870  -1.8858  -1.8821  -1.8756  -1.8735
    -1.8489  -1.8419  -1.8314  -1.7761  -1.7721  -1.7706  -1.7686  -1.7676
    -1.7297  -1.7133  -1.7114  -1.6843  -1.6838  -1.6239  -1.6222  -1.5948
    -1.5765  -1.5752  -1.5153  -1.5142  -1.5035  -1.5020  -1.4924  -1.4908
    -1.4885  -1.4792  -1.4775  -1.4229  -1.4217  -1.4105  -1.4104  -1.4097
    -1.3912  -1.3889  -1.3548  -1.3545  -1.3376  -1.3371  -1.3367  -1.3303
    -1.3254  -1.3167  -1.3143  -1.2965  -1.2962  -1.2551  -1.2532  -1.2425
    -1.2408  -1.2213  -1.2087  -1.1659  -1.1636  -1.1390  -1.1339  -1.1339
    -1.1048  -1.0535  -1.0525  -1.0519  -1.0507  -1.0464  -1.0444  -1.0349
    -1.0170  -1.0153  -0.9769  -0.9753  -0.9457  -0.9452  -0.9405  -0.9402
    -0.9320  -0.9173  -0.9161  -0.9147  -0.9123  -0.9107  -0.8903  -0.8760
    -0.8723  -0.8713  -0.8666  -0.8405  -0.8399  -0.8362  -0.8122  -0.8054
    -0.8031  -0.7580  -0.7513  -0.7487  -0.7157  -0.7071  -0.6965  -0.6963
    -0.6884  -0.6877  -0.6874  -0.6857  -0.6753  -0.6741  -0.6489  -0.6481
    -0.6457  -0.6437  -0.6428  -0.6062  -0.6057  -0.5957  -0.5943  -0.5795
    -0.5727  -0.5707  -0.5599  -0.5047  -0.5019  -0.4933  -0.4931  -0.4924
    -0.4913  -0.4865  -0.4676  -0.4660  -0.4581  -0.4580  -0.4561  -0.4553
    -0.4165  -0.4143  -0.4132  -0.4062  -0.4045  -0.3999  -0.3982  -0.3883
    -0.3824  -0.3793  -0.3780  -0.3368  -0.3358  -0.3278  -0.3246  -0.3237
    -0.2471  -0.2460  -0.2439  -0.2433  -0.2346  -0.2341  -0.1977  -0.1851
    -0.1846  -0.1594  -0.1530  -0.1521  -0.0325  -0.0292   0.0713   0.4863
     0.4869   0.4893   0.4898   0.5488   0.5527   0.9394   0.9401   0.9821
     0.9831   1.0907   1.1712   1.2787   1.2869   1.4977   1.5108   2.1358
     2.1380   2.2974   2.3016   2.4277   2.4343   2.5348   2.5355   2.6892
     2.9270   2.9308   3.0497   3.2713   3.2797   3.3588   3.3602   3.4590
     3.4745   3.6584   3.6780   3.7313   3.9309   3.9326   3.9928   3.9971
     4.2511   4.2570   4.2623   4.5026   4.5439   4.5451   4.5896   4.9239
     4.9284   4.9548   5.0871   5.1111   5.2623   5.2631   5.3088   5.3344
     5.7752   5.8946   6.0496   6.0542   6.0585   6.0744   6.1251   6.1259
     6.2027   6.2355   6.2605   6.2865   6.2885   6.2925   6.3064   6.3431
     6.3484   6.3613   6.4129   6.5899   6.7358   6.7840   6.9196   6.9480
     6.9921   6.9988   7.0061

          k = 0.2500-0.4330-0.1111 (136853 PWs)   bands (ev):

   -18.8789  -6.6917  -6.2284  -5.8305  -5.8276  -5.1508  -4.8180  -4.8172
    -4.7796  -4.7763  -4.4178  -4.4167  -4.3188  -4.3185  -4.3044  -4.2835
    -4.2557  -4.1518  -4.1504  -4.1269  -4.0836  -4.0833  -4.0145  -4.0141
    -4.0073  -4.0071  -3.9862  -3.9817  -3.9791  -3.9085  -3.9052  -3.8786
    -3.8769  -3.8659  -3.8655  -3.8425  -3.8423  -3.8199  -3.8116  -3.8112
    -3.7847  -3.7327  -3.7322  -3.6854  -3.6835  -3.6249  -3.6247  -3.5706
    -3.5704  -3.5699  -3.5693  -3.5347  -3.4948  -3.4944  -3.4889  -3.4876
    -3.4875  -3.4569  -3.4559  -3.4483  -3.3861  -3.3855  -3.3759  -3.3602
    -3.3531  -3.2812  -3.2802  -3.2474  -3.2457  -3.2195  -3.2182  -3.2058
    -3.1893  -3.1290  -3.1286  -3.1118  -3.1106  -3.0590  -3.0543  -3.0538
    -3.0163  -2.9851  -2.9838  -2.9779  -2.9756  -2.9634  -2.9621  -2.9547
    -2.9537  -2.9446  -2.9364  -2.9032  -2.8667  -2.8647  -2.8512  -2.8504
    -2.8255  -2.8153  -2.8148  -2.7929  -2.7498  -2.7478  -2.7398  -2.7001
    -2.6939  -2.6831  -2.6814  -2.6535  -2.6524  -2.6237  -2.5858  -2.5854
    -2.5633  -2.5566  -2.5427  -2.5418  -2.4918  -2.4912  -2.4587  -2.4363
    -2.4360  -2.4121  -2.4113  -2.4008  -2.3997  -2.3896  -2.3671  -2.3662
    -2.3220  -2.3216  -2.3208  -2.3043  -2.3027  -2.2988  -2.2887  -2.2883
    -2.2862  -2.2853  -2.2802  -2.2679  -2.2660  -2.2561  -2.2309  -2.2306
    -2.2293  -2.2285  -2.2275  -2.2254  -2.2242  -2.1969  -2.1939  -2.1797
    -2.1793  -2.1624  -2.1615  -2.1518  -2.1514  -2.1507  -2.1493  -2.1313
    -2.1287  -2.1283  -2.1269  -2.1105  -2.0848  -2.0841  -2.0455  -2.0434
    -2.0190  -2.0176  -1.9910  -1.9906  -1.9632  -1.9628  -1.9461  -1.9415
    -1.9146  -1.8920  -1.8911  -1.8870  -1.8858  -1.8821  -1.8756  -1.8735
    -1.8489  -1.8419  -1.8314  -1.7761  -1.7721  -1.7706  -1.7686  -1.7676
    -1.7297  -1.7133  -1.7114  -1.6843  -1.6838  -1.6239  -1.6222  -1.5948
    -1.5765  -1.5752  -1.5153  -1.5142  -1.5035  -1.5020  -1.4924  -1.4908
    -1.4885  -1.4792  -1.4775  -1.4229  -1.4217  -1.4105  -1.4104  -1.4097
    -1.3912  -1.3889  -1.3548  -1.3545  -1.3376  -1.3371  -1.3367  -1.3303
    -1.3254  -1.3167  -1.3143  -1.2965  -1.2962  -1.2551  -1.2532  -1.2425
    -1.2408  -1.2213  -1.2087  -1.1659  -1.1636  -1.1390  -1.1339  -1.1339
    -1.1048  -1.0535  -1.0525  -1.0519  -1.0507  -1.0464  -1.0444  -1.0349
    -1.0170  -1.0153  -0.9769  -0.9753  -0.9457  -0.9452  -0.9405  -0.9402
    -0.9320  -0.9173  -0.9161  -0.9147  -0.9123  -0.9107  -0.8903  -0.8760
    -0.8723  -0.8713  -0.8666  -0.8405  -0.8399  -0.8362  -0.8122  -0.8054
    -0.8031  -0.7580  -0.7513  -0.7487  -0.7157  -0.7071  -0.6965  -0.6963
    -0.6884  -0.6877  -0.6874  -0.6857  -0.6753  -0.6741  -0.6489  -0.6481
    -0.6457  -0.6437  -0.6428  -0.6062  -0.6057  -0.5957  -0.5943  -0.5795
    -0.5727  -0.5707  -0.5599  -0.5047  -0.5019  -0.4933  -0.4931  -0.4924
    -0.4913  -0.4865  -0.4676  -0.4660  -0.4581  -0.4580  -0.4561  -0.4553
    -0.4165  -0.4143  -0.4132  -0.4062  -0.4045  -0.3999  -0.3982  -0.3883
    -0.3824  -0.3793  -0.3780  -0.3368  -0.3358  -0.3278  -0.3246  -0.3237
    -0.2471  -0.2460  -0.2439  -0.2433  -0.2346  -0.2341  -0.1977  -0.1851
    -0.1846  -0.1594  -0.1530  -0.1521  -0.0325  -0.0292   0.0713   0.4863
     0.4869   0.4893   0.4898   0.5488   0.5527   0.9394   0.9401   0.9821
     0.9831   1.0907   1.1712   1.2787   1.2869   1.4977   1.5108   2.1358
     2.1380   2.2974   2.3016   2.4277   2.4343   2.5348   2.5355   2.6892
     2.9270   2.9308   3.0497   3.2713   3.2797   3.3588   3.3602   3.4590
     3.4745   3.6584   3.6780   3.7313   3.9309   3.9326   3.9928   3.9971
     4.2511   4.2570   4.2623   4.5026   4.5439   4.5451   4.5896   4.9239
     4.9284   4.9548   5.0871   5.1111   5.2623   5.2631   5.3088   5.3344
     5.7752   5.8946   6.0496   6.0542   6.0586   6.0743   6.1251   6.1259
     6.2027   6.2355   6.2605   6.2864   6.2886   6.2925   6.3063   6.3429
     6.3484   6.3611   6.4136   6.5903   6.7354   6.7841   6.9198   6.9476
     6.9920   6.9989   7.0060

          k = 0.5000 0.0000 0.1111 (136853 PWs)   bands (ev):

   -18.8789  -6.6916  -6.2284  -5.8303  -5.8277  -5.1508  -4.8185  -4.8167
    -4.7789  -4.7770  -4.4180  -4.4165  -4.3187  -4.3185  -4.3044  -4.2835
    -4.2558  -4.1515  -4.1507  -4.1269  -4.0835  -4.0834  -4.0145  -4.0141
    -4.0079  -4.0066  -3.9861  -3.9820  -3.9788  -3.9080  -3.9058  -3.8787
    -3.8768  -3.8660  -3.8654  -3.8424  -3.8424  -3.8199  -3.8116  -3.8112
    -3.7848  -3.7327  -3.7322  -3.6855  -3.6834  -3.6249  -3.6247  -3.5707
    -3.5705  -3.5696  -3.5693  -3.5347  -3.4948  -3.4944  -3.4888  -3.4879
    -3.4873  -3.4574  -3.4556  -3.4481  -3.3860  -3.3856  -3.3759  -3.3602
    -3.3530  -3.2810  -3.2804  -3.2475  -3.2457  -3.2192  -3.2185  -3.2058
    -3.1893  -3.1292  -3.1284  -3.1114  -3.1109  -3.0590  -3.0543  -3.0538
    -3.0162  -2.9856  -2.9832  -2.9781  -2.9754  -2.9632  -2.9619  -2.9547
    -2.9539  -2.9446  -2.9365  -2.9032  -2.8662  -2.8652  -2.8512  -2.8504
    -2.8255  -2.8151  -2.8149  -2.7929  -2.7491  -2.7485  -2.7398  -2.7001
    -2.6939  -2.6829  -2.6815  -2.6533  -2.6526  -2.6237  -2.5859  -2.5853
    -2.5633  -2.5566  -2.5426  -2.5420  -2.4918  -2.4912  -2.4587  -2.4364
    -2.4360  -2.4119  -2.4115  -2.4005  -2.3999  -2.3896  -2.3670  -2.3662
    -2.3223  -2.3213  -2.3207  -2.3043  -2.3027  -2.2988  -2.2886  -2.2884
    -2.2861  -2.2854  -2.2803  -2.2676  -2.2664  -2.2560  -2.2309  -2.2306
    -2.2292  -2.2283  -2.2276  -2.2254  -2.2242  -2.1970  -2.1939  -2.1797
    -2.1795  -2.1623  -2.1615  -2.1517  -2.1515  -2.1506  -2.1493  -2.1304
    -2.1292  -2.1287  -2.1268  -2.1104  -2.0846  -2.0842  -2.0455  -2.0433
    -2.0191  -2.0176  -1.9911  -1.9906  -1.9633  -1.9628  -1.9462  -1.9414
    -1.9146  -1.8919  -1.8911  -1.8869  -1.8858  -1.8822  -1.8753  -1.8736
    -1.8489  -1.8419  -1.8314  -1.7760  -1.7723  -1.7704  -1.7683  -1.7678
    -1.7297  -1.7131  -1.7116  -1.6843  -1.6838  -1.6235  -1.6227  -1.5948
    -1.5764  -1.5753  -1.5150  -1.5145  -1.5032  -1.5023  -1.4920  -1.4912
    -1.4885  -1.4788  -1.4779  -1.4227  -1.4221  -1.4107  -1.4103  -1.4095
    -1.3908  -1.3894  -1.3550  -1.3542  -1.3377  -1.3371  -1.3368  -1.3302
    -1.3253  -1.3161  -1.3148  -1.2970  -1.2958  -1.2551  -1.2531  -1.2424
    -1.2410  -1.2213  -1.2087  -1.1650  -1.1644  -1.1390  -1.1342  -1.1335
    -1.1048  -1.0534  -1.0527  -1.0516  -1.0508  -1.0460  -1.0449  -1.0349
    -1.0163  -1.0160  -0.9766  -0.9757  -0.9456  -0.9452  -0.9408  -0.9402
    -0.9319  -0.9165  -0.9157  -0.9147  -0.9122  -0.9113  -0.8916  -0.8740
    -0.8723  -0.8714  -0.8686  -0.8400  -0.8395  -0.8359  -0.8126  -0.8045
    -0.8037  -0.7579  -0.7512  -0.7492  -0.7157  -0.7072  -0.6967  -0.6962
    -0.6883  -0.6877  -0.6873  -0.6856  -0.6752  -0.6741  -0.6488  -0.6480
    -0.6457  -0.6438  -0.6427  -0.6063  -0.6057  -0.5954  -0.5944  -0.5796
    -0.5724  -0.5710  -0.5600  -0.5046  -0.5021  -0.4934  -0.4931  -0.4921
    -0.4914  -0.4865  -0.4675  -0.4660  -0.4582  -0.4578  -0.4559  -0.4554
    -0.4166  -0.4140  -0.4135  -0.4058  -0.4049  -0.4000  -0.3982  -0.3883
    -0.3824  -0.3791  -0.3781  -0.3366  -0.3359  -0.3278  -0.3244  -0.3238
    -0.2470  -0.2460  -0.2439  -0.2433  -0.2346  -0.2341  -0.1977  -0.1850
    -0.1846  -0.1581  -0.1539  -0.1526  -0.0321  -0.0297   0.0712   0.4863
     0.4868   0.4892   0.4899   0.5492   0.5525   0.9395   0.9401   0.9819
     0.9833   1.0904   1.1711   1.2804   1.2851   1.4997   1.5090   2.1356
     2.1382   2.2977   2.3012   2.4286   2.4336   2.5345   2.5359   2.6892
     2.9270   2.9306   3.0497   3.2729   3.2782   3.3584   3.3605   3.4591
     3.4745   3.6625   3.6742   3.7313   3.9315   3.9320   3.9926   3.9970
     4.2512   4.2571   4.2621   4.5025   4.5433   4.5456   4.5896   4.9252
     4.9269   4.9551   5.0900   5.1062   5.2621   5.2632   5.3139   5.3385
     5.7415   5.9297   6.0479   6.0510   6.0558   6.0634   6.1249   6.1259
     6.1973   6.2353   6.2602   6.2857   6.2872   6.2974   6.3030   6.3277
     6.3481   6.3532   6.4731   6.5823   6.7463   6.7746   6.9001   6.9635
     6.9934   6.9965   7.0061

          k =-0.5000 0.0000 0.1111 (136853 PWs)   bands (ev):

   -18.8789  -6.6916  -6.2284  -5.8303  -5.8277  -5.1508  -4.8185  -4.8167
    -4.7789  -4.7770  -4.4180  -4.4165  -4.3188  -4.3185  -4.3044  -4.2835
    -4.2558  -4.1515  -4.1507  -4.1269  -4.0835  -4.0834  -4.0145  -4.0141
    -4.0079  -4.0066  -3.9861  -3.9820  -3.9788  -3.9080  -3.9058  -3.8787
    -3.8768  -3.8660  -3.8654  -3.8424  -3.8424  -3.8199  -3.8116  -3.8112
    -3.7848  -3.7327  -3.7322  -3.6855  -3.6834  -3.6249  -3.6247  -3.5707
    -3.5705  -3.5696  -3.5693  -3.5347  -3.4948  -3.4944  -3.4888  -3.4879
    -3.4873  -3.4574  -3.4556  -3.4481  -3.3860  -3.3856  -3.3759  -3.3602
    -3.3530  -3.2810  -3.2804  -3.2475  -3.2457  -3.2192  -3.2185  -3.2058
    -3.1893  -3.1292  -3.1284  -3.1114  -3.1109  -3.0590  -3.0543  -3.0538
    -3.0162  -2.9856  -2.9832  -2.9781  -2.9754  -2.9632  -2.9619  -2.9547
    -2.9539  -2.9446  -2.9365  -2.9032  -2.8662  -2.8652  -2.8512  -2.8504
    -2.8255  -2.8151  -2.8149  -2.7929  -2.7491  -2.7485  -2.7398  -2.7001
    -2.6939  -2.6829  -2.6815  -2.6533  -2.6526  -2.6237  -2.5859  -2.5853
    -2.5633  -2.5566  -2.5426  -2.5420  -2.4918  -2.4912  -2.4587  -2.4364
    -2.4360  -2.4119  -2.4115  -2.4005  -2.3999  -2.3896  -2.3670  -2.3662
    -2.3223  -2.3213  -2.3207  -2.3043  -2.3027  -2.2988  -2.2886  -2.2884
    -2.2861  -2.2854  -2.2803  -2.2676  -2.2664  -2.2560  -2.2309  -2.2306
    -2.2292  -2.2283  -2.2276  -2.2254  -2.2242  -2.1970  -2.1939  -2.1797
    -2.1795  -2.1623  -2.1615  -2.1517  -2.1515  -2.1506  -2.1493  -2.1304
    -2.1292  -2.1287  -2.1268  -2.1104  -2.0846  -2.0842  -2.0455  -2.0433
    -2.0191  -2.0176  -1.9911  -1.9906  -1.9633  -1.9628  -1.9462  -1.9414
    -1.9146  -1.8919  -1.8911  -1.8869  -1.8858  -1.8822  -1.8753  -1.8736
    -1.8489  -1.8419  -1.8314  -1.7760  -1.7723  -1.7704  -1.7683  -1.7678
    -1.7297  -1.7131  -1.7116  -1.6843  -1.6838  -1.6235  -1.6227  -1.5948
    -1.5764  -1.5753  -1.5150  -1.5145  -1.5032  -1.5023  -1.4920  -1.4912
    -1.4885  -1.4788  -1.4779  -1.4227  -1.4221  -1.4107  -1.4103  -1.4095
    -1.3908  -1.3894  -1.3550  -1.3542  -1.3377  -1.3371  -1.3368  -1.3302
    -1.3253  -1.3161  -1.3148  -1.2970  -1.2958  -1.2551  -1.2531  -1.2424
    -1.2410  -1.2213  -1.2087  -1.1650  -1.1644  -1.1390  -1.1342  -1.1335
    -1.1048  -1.0534  -1.0527  -1.0516  -1.0508  -1.0460  -1.0449  -1.0349
    -1.0163  -1.0160  -0.9766  -0.9757  -0.9456  -0.9452  -0.9408  -0.9402
    -0.9319  -0.9165  -0.9157  -0.9147  -0.9122  -0.9113  -0.8916  -0.8740
    -0.8723  -0.8714  -0.8686  -0.8400  -0.8395  -0.8359  -0.8126  -0.8045
    -0.8037  -0.7579  -0.7512  -0.7492  -0.7157  -0.7072  -0.6967  -0.6962
    -0.6883  -0.6877  -0.6873  -0.6856  -0.6752  -0.6741  -0.6488  -0.6480
    -0.6457  -0.6438  -0.6427  -0.6063  -0.6057  -0.5954  -0.5944  -0.5796
    -0.5724  -0.5710  -0.5600  -0.5046  -0.5021  -0.4934  -0.4931  -0.4921
    -0.4914  -0.4865  -0.4675  -0.4660  -0.4582  -0.4578  -0.4559  -0.4554
    -0.4166  -0.4140  -0.4135  -0.4058  -0.4049  -0.4000  -0.3982  -0.3883
    -0.3824  -0.3791  -0.3781  -0.3366  -0.3359  -0.3278  -0.3244  -0.3238
    -0.2470  -0.2460  -0.2439  -0.2433  -0.2346  -0.2341  -0.1977  -0.1850
    -0.1846  -0.1581  -0.1539  -0.1526  -0.0321  -0.0297   0.0712   0.4863
     0.4868   0.4892   0.4899   0.5492   0.5525   0.9395   0.9401   0.9819
     0.9833   1.0904   1.1711   1.2804   1.2851   1.4997   1.5090   2.1356
     2.1382   2.2977   2.3012   2.4286   2.4336   2.5345   2.5359   2.6892
     2.9270   2.9306   3.0497   3.2729   3.2782   3.3584   3.3605   3.4591
     3.4745   3.6625   3.6742   3.7313   3.9315   3.9320   3.9926   3.9970
     4.2512   4.2571   4.2621   4.5025   4.5433   4.5456   4.5896   4.9252
     4.9269   4.9551   5.0900   5.1062   5.2621   5.2632   5.3139   5.3385
     5.7414   5.9298   6.0481   6.0512   6.0557   6.0634   6.1249   6.1259
     6.1973   6.2353   6.2602   6.2856   6.2872   6.2972   6.3031   6.3274
     6.3481   6.3532   6.4730   6.5808   6.7478   6.7740   6.9030   6.9625
     6.9932   6.9966   7.0060

          k =-0.2500 0.1443 0.1111 (136898 PWs)   bands (ev):

   -18.8789  -6.6917  -6.4384  -5.6463  -5.3548  -5.2961  -5.2958  -4.7576
    -4.7574  -4.6255  -4.6253  -4.4709  -4.4385  -4.3779  -4.3441  -4.3435
    -4.3109  -4.3109  -4.1823  -4.1405  -4.1405  -4.0804  -4.0593  -4.0590
    -3.9571  -3.9570  -3.9209  -3.9206  -3.9205  -3.8936  -3.8720  -3.8720
    -3.7663  -3.7649  -3.7648  -3.7441  -3.7272  -3.7271  -3.7149  -3.7147
    -3.7015  -3.6713  -3.6712  -3.6711  -3.6710  -3.6384  -3.6383  -3.6207
    -3.6205  -3.6054  -3.5618  -3.5616  -3.5323  -3.5168  -3.5164  -3.5123
    -3.5123  -3.4376  -3.4376  -3.4020  -3.3997  -3.3997  -3.3322  -3.3320
    -3.3167  -3.3165  -3.2854  -3.2851  -3.2844  -3.2841  -3.1311  -3.1309
    -3.1052  -3.1049  -3.0999  -3.0842  -3.0840  -3.0581  -3.0578  -3.0084
    -3.0081  -2.9917  -2.9917  -2.9722  -2.9425  -2.9224  -2.9216  -2.9024
    -2.8981  -2.8970  -2.8570  -2.8565  -2.8507  -2.8494  -2.8339  -2.8327
    -2.7942  -2.7939  -2.7723  -2.7721  -2.7691  -2.7685  -2.7659  -2.6886
    -2.6883  -2.6869  -2.6585  -2.6578  -2.5963  -2.5962  -2.5681  -2.5668
    -2.5537  -2.5533  -2.5482  -2.5186  -2.5185  -2.5090  -2.4912  -2.4655
    -2.4653  -2.4651  -2.4445  -2.4443  -2.4331  -2.4327  -2.4298  -2.4289
    -2.4217  -2.3755  -2.3429  -2.3427  -2.3273  -2.3131  -2.3068  -2.3066
    -2.2993  -2.2988  -2.2976  -2.2677  -2.2675  -2.2671  -2.2576  -2.2574
    -2.2401  -2.2128  -2.2122  -2.2117  -2.2109  -2.2102  -2.1658  -2.1340
    -2.1339  -2.1335  -2.1270  -2.1182  -2.1050  -2.1048  -2.0883  -2.0883
    -2.0540  -2.0533  -2.0530  -2.0347  -2.0328  -2.0326  -1.9998  -1.9992
    -1.9582  -1.9579  -1.9506  -1.9487  -1.9484  -1.9420  -1.9415  -1.9394
    -1.9390  -1.9325  -1.9315  -1.9153  -1.9147  -1.7881  -1.7874  -1.7555
    -1.7500  -1.7489  -1.7442  -1.7439  -1.7260  -1.7257  -1.7231  -1.7229
    -1.7210  -1.6984  -1.6899  -1.6893  -1.6855  -1.6780  -1.6772  -1.6548
    -1.6547  -1.6262  -1.6261  -1.5937  -1.5934  -1.5836  -1.5754  -1.5577
    -1.5571  -1.5546  -1.5361  -1.5238  -1.5236  -1.5162  -1.5161  -1.4893
    -1.4892  -1.4722  -1.4721  -1.4403  -1.4392  -1.4299  -1.3789  -1.3787
    -1.3667  -1.3660  -1.3648  -1.3408  -1.3383  -1.3045  -1.3039  -1.3035
    -1.2701  -1.2603  -1.2593  -1.2443  -1.2439  -1.2174  -1.2160  -1.2154
    -1.1861  -1.1834  -1.1830  -1.1207  -1.1201  -1.1073  -1.1062  -1.0907
    -1.0904  -1.0780  -1.0777  -1.0599  -1.0471  -1.0193  -1.0190  -1.0078
    -0.9811  -0.9697  -0.9686  -0.9578  -0.9577  -0.9553  -0.9503  -0.9497
    -0.9368  -0.9057  -0.9054  -0.8990  -0.8946  -0.8935  -0.8917  -0.8812
    -0.8686  -0.8506  -0.8474  -0.8296  -0.8274  -0.7358  -0.7230  -0.7173
    -0.7171  -0.7131  -0.7078  -0.7070  -0.6859  -0.6814  -0.6670  -0.6655
    -0.6517  -0.6510  -0.6423  -0.6226  -0.6209  -0.6200  -0.6118  -0.5402
    -0.5400  -0.5064  -0.5047  -0.5017  -0.4949  -0.4938  -0.4932  -0.4927
    -0.4802  -0.4791  -0.4639  -0.4390  -0.4243  -0.4045  -0.4037  -0.3931
    -0.3922  -0.3802  -0.3795  -0.3789  -0.3772  -0.3767  -0.3596  -0.3555
    -0.3548  -0.3245  -0.3232  -0.3225  -0.3108  -0.3107  -0.2914  -0.2594
    -0.2590  -0.2500  -0.2496  -0.1818  -0.1814  -0.1443  -0.1442  -0.0870
    -0.0844  -0.0840  -0.0739  -0.0552   0.1654   0.1702   0.5147   0.5148
     0.6043   0.6088   0.7992   0.8148   0.8324   0.9630   0.9641   1.3949
     1.3949   1.4135   1.6711   1.7050   1.7050   1.9789   1.9862   2.0613
     2.0617   2.0873   2.0915   2.3180   2.3181   2.4059   2.4063   2.4768
     2.5422   2.5501   2.7101   2.8075   3.2482   3.2491   3.2511   3.2537
     3.3070   3.3071   3.5992   3.5994   3.8788   3.8836   3.9810   4.2950
     4.3368   4.3401   4.5467   4.5598   4.6386   4.6400   4.7300   4.8475
     4.8496   4.9649   4.9663   5.0720   5.2700   5.3378   5.3410   5.4913
     5.5115   5.7258   5.7265   5.7316   5.7530   5.7535   5.8161   5.8176
     5.8636   6.0486   6.2569   6.2637   6.4231   6.4420   6.5567   6.5596
     6.5628   6.5713   6.5787   6.7410   6.8117   6.8140   6.8174   6.9741
     7.0068   7.0299   7.0472

          k =-0.2500-0.1443-0.1111 (136898 PWs)   bands (ev):

   -18.8789  -6.6917  -6.4384  -5.6463  -5.3548  -5.2960  -5.2958  -4.7576
    -4.7574  -4.6260  -4.6249  -4.4709  -4.4385  -4.3781  -4.3440  -4.3437
    -4.3110  -4.3107  -4.1823  -4.1407  -4.1404  -4.0803  -4.0593  -4.0591
    -3.9570  -3.9569  -3.9209  -3.9207  -3.9205  -3.8936  -3.8723  -3.8718
    -3.7662  -3.7650  -3.7648  -3.7439  -3.7274  -3.7271  -3.7149  -3.7148
    -3.7014  -3.6713  -3.6712  -3.6710  -3.6709  -3.6385  -3.6383  -3.6206
    -3.6205  -3.6052  -3.5620  -3.5615  -3.5324  -3.5167  -3.5166  -3.5124
    -3.5122  -3.4377  -3.4376  -3.4018  -3.3997  -3.3995  -3.3324  -3.3322
    -3.3165  -3.3164  -3.2852  -3.2850  -3.2847  -3.2845  -3.1311  -3.1310
    -3.1053  -3.1048  -3.0999  -3.0843  -3.0840  -3.0581  -3.0577  -3.0085
    -3.0081  -2.9918  -2.9917  -2.9721  -2.9425  -2.9223  -2.9215  -2.9024
    -2.8981  -2.8972  -2.8570  -2.8565  -2.8507  -2.8496  -2.8339  -2.8329
    -2.7940  -2.7938  -2.7725  -2.7719  -2.7689  -2.7685  -2.7658  -2.6886
    -2.6884  -2.6871  -2.6585  -2.6579  -2.5964  -2.5959  -2.5680  -2.5668
    -2.5535  -2.5532  -2.5483  -2.5186  -2.5183  -2.5090  -2.4912  -2.4657
    -2.4654  -2.4651  -2.4444  -2.4443  -2.4334  -2.4330  -2.4295  -2.4289
    -2.4217  -2.3754  -2.3429  -2.3428  -2.3272  -2.3133  -2.3067  -2.3066
    -2.2993  -2.2989  -2.2978  -2.2676  -2.2674  -2.2672  -2.2576  -2.2572
    -2.2400  -2.2131  -2.2123  -2.2114  -2.2109  -2.2104  -2.1659  -2.1342
    -2.1339  -2.1335  -2.1269  -2.1183  -2.1049  -2.1047  -2.0881  -2.0881
    -2.0540  -2.0532  -2.0530  -2.0347  -2.0328  -2.0328  -1.9996  -1.9993
    -1.9587  -1.9575  -1.9503  -1.9486  -1.9483  -1.9420  -1.9417  -1.9402
    -1.9388  -1.9321  -1.9316  -1.9153  -1.9149  -1.7879  -1.7876  -1.7554
    -1.7497  -1.7491  -1.7440  -1.7438  -1.7265  -1.7262  -1.7230  -1.7228
    -1.7205  -1.6984  -1.6896  -1.6894  -1.6854  -1.6780  -1.6768  -1.6550
    -1.6549  -1.6267  -1.6259  -1.5936  -1.5935  -1.5834  -1.5753  -1.5576
    -1.5571  -1.5543  -1.5360  -1.5239  -1.5237  -1.5164  -1.5162  -1.4891
    -1.4890  -1.4725  -1.4719  -1.4405  -1.4396  -1.4299  -1.3792  -1.3785
    -1.3665  -1.3663  -1.3649  -1.3411  -1.3381  -1.3044  -1.3039  -1.3032
    -1.2700  -1.2601  -1.2594  -1.2441  -1.2438  -1.2173  -1.2160  -1.2154
    -1.1862  -1.1833  -1.1830  -1.1207  -1.1204  -1.1072  -1.1064  -1.0908
    -1.0904  -1.0777  -1.0774  -1.0595  -1.0469  -1.0196  -1.0187  -1.0077
    -0.9795  -0.9702  -0.9687  -0.9579  -0.9578  -0.9556  -0.9506  -0.9494
    -0.9367  -0.9081  -0.9052  -0.9047  -0.8940  -0.8938  -0.8911  -0.8769
    -0.8685  -0.8493  -0.8470  -0.8289  -0.8279  -0.7357  -0.7230  -0.7172
    -0.7171  -0.7130  -0.7079  -0.7071  -0.6863  -0.6814  -0.6665  -0.6658
    -0.6516  -0.6512  -0.6425  -0.6221  -0.6212  -0.6201  -0.6118  -0.5402
    -0.5399  -0.5060  -0.5052  -0.5017  -0.4947  -0.4941  -0.4931  -0.4929
    -0.4804  -0.4786  -0.4641  -0.4389  -0.4245  -0.4044  -0.4039  -0.3930
    -0.3924  -0.3803  -0.3791  -0.3789  -0.3772  -0.3769  -0.3595  -0.3555
    -0.3550  -0.3245  -0.3233  -0.3221  -0.3109  -0.3106  -0.2915  -0.2593
    -0.2590  -0.2499  -0.2496  -0.1820  -0.1815  -0.1446  -0.1439  -0.0870
    -0.0846  -0.0838  -0.0743  -0.0552   0.1666   0.1695   0.5147   0.5148
     0.6054   0.6081   0.7978   0.8156   0.8325   0.9633   0.9638   1.3948
     1.3951   1.4136   1.6711   1.7049   1.7051   1.9805   1.9846   2.0613
     2.0617   2.0882   2.0907   2.3176   2.3183   2.4060   2.4062   2.4770
     2.5435   2.5484   2.7098   2.8076   3.2479   3.2493   3.2516   3.2534
     3.3070   3.3075   3.5990   3.5996   3.8799   3.8827   3.9815   4.2950
     4.3373   4.3392   4.5491   4.5537   4.6388   4.6397   4.7303   4.8472
     4.8494   4.9655   4.9664   5.0817   5.2701   5.3370   5.3414   5.4995
     5.5073   5.7205   5.7262   5.7278   5.7530   5.7537   5.8159   5.8188
     5.8550   6.0020   6.2433   6.3604   6.4189   6.4347   6.5505   6.5600
     6.5602   6.5721   6.5765   6.7018   6.8134   6.8149   6.9202   6.9567
     6.9834   7.0384   7.0660

          k = 0.2500 0.1443-0.1111 (136898 PWs)   bands (ev):

   -18.8789  -6.6917  -6.4384  -5.6463  -5.3548  -5.2960  -5.2958  -4.7576
    -4.7574  -4.6260  -4.6249  -4.4709  -4.4385  -4.3780  -4.3440  -4.3437
    -4.3110  -4.3107  -4.1823  -4.1407  -4.1404  -4.0803  -4.0593  -4.0591
    -3.9570  -3.9569  -3.9209  -3.9207  -3.9205  -3.8936  -3.8723  -3.8718
    -3.7662  -3.7650  -3.7648  -3.7439  -3.7274  -3.7271  -3.7149  -3.7148
    -3.7014  -3.6713  -3.6712  -3.6710  -3.6709  -3.6385  -3.6383  -3.6206
    -3.6205  -3.6052  -3.5620  -3.5615  -3.5324  -3.5167  -3.5166  -3.5124
    -3.5122  -3.4377  -3.4376  -3.4018  -3.3997  -3.3995  -3.3324  -3.3322
    -3.3165  -3.3164  -3.2852  -3.2850  -3.2847  -3.2845  -3.1311  -3.1310
    -3.1053  -3.1048  -3.0999  -3.0843  -3.0840  -3.0581  -3.0577  -3.0085
    -3.0081  -2.9918  -2.9917  -2.9721  -2.9425  -2.9223  -2.9215  -2.9024
    -2.8981  -2.8972  -2.8570  -2.8565  -2.8507  -2.8496  -2.8339  -2.8329
    -2.7940  -2.7938  -2.7725  -2.7719  -2.7689  -2.7685  -2.7658  -2.6886
    -2.6884  -2.6871  -2.6585  -2.6579  -2.5964  -2.5959  -2.5680  -2.5668
    -2.5535  -2.5532  -2.5483  -2.5186  -2.5183  -2.5090  -2.4912  -2.4657
    -2.4654  -2.4651  -2.4444  -2.4443  -2.4334  -2.4330  -2.4295  -2.4289
    -2.4217  -2.3754  -2.3429  -2.3428  -2.3271  -2.3133  -2.3067  -2.3066
    -2.2993  -2.2989  -2.2978  -2.2676  -2.2674  -2.2673  -2.2576  -2.2572
    -2.2400  -2.2131  -2.2123  -2.2114  -2.2109  -2.2104  -2.1659  -2.1342
    -2.1339  -2.1335  -2.1269  -2.1183  -2.1049  -2.1047  -2.0881  -2.0881
    -2.0540  -2.0532  -2.0529  -2.0347  -2.0328  -2.0328  -1.9996  -1.9993
    -1.9587  -1.9575  -1.9503  -1.9486  -1.9483  -1.9420  -1.9417  -1.9402
    -1.9388  -1.9321  -1.9316  -1.9153  -1.9149  -1.7879  -1.7876  -1.7554
    -1.7497  -1.7491  -1.7440  -1.7438  -1.7265  -1.7262  -1.7230  -1.7228
    -1.7205  -1.6984  -1.6896  -1.6894  -1.6854  -1.6780  -1.6768  -1.6550
    -1.6549  -1.6267  -1.6259  -1.5936  -1.5935  -1.5834  -1.5753  -1.5576
    -1.5571  -1.5543  -1.5360  -1.5239  -1.5237  -1.5164  -1.5162  -1.4891
    -1.4890  -1.4725  -1.4719  -1.4405  -1.4396  -1.4299  -1.3792  -1.3785
    -1.3665  -1.3663  -1.3649  -1.3411  -1.3380  -1.3044  -1.3039  -1.3032
    -1.2700  -1.2601  -1.2594  -1.2441  -1.2438  -1.2173  -1.2161  -1.2154
    -1.1862  -1.1833  -1.1830  -1.1207  -1.1204  -1.1072  -1.1064  -1.0908
    -1.0904  -1.0777  -1.0774  -1.0595  -1.0469  -1.0196  -1.0187  -1.0077
    -0.9795  -0.9702  -0.9687  -0.9579  -0.9578  -0.9556  -0.9506  -0.9494
    -0.9367  -0.9081  -0.9052  -0.9047  -0.8940  -0.8938  -0.8911  -0.8769
    -0.8685  -0.8493  -0.8470  -0.8289  -0.8279  -0.7357  -0.7230  -0.7172
    -0.7171  -0.7131  -0.7079  -0.7071  -0.6863  -0.6814  -0.6665  -0.6658
    -0.6516  -0.6512  -0.6425  -0.6221  -0.6212  -0.6201  -0.6118  -0.5402
    -0.5399  -0.5060  -0.5052  -0.5017  -0.4947  -0.4941  -0.4931  -0.4929
    -0.4804  -0.4786  -0.4640  -0.4389  -0.4245  -0.4043  -0.4039  -0.3930
    -0.3924  -0.3803  -0.3792  -0.3789  -0.3772  -0.3769  -0.3595  -0.3556
    -0.3550  -0.3245  -0.3233  -0.3221  -0.3109  -0.3106  -0.2915  -0.2593
    -0.2590  -0.2499  -0.2496  -0.1820  -0.1815  -0.1446  -0.1439  -0.0870
    -0.0846  -0.0838  -0.0743  -0.0552   0.1666   0.1695   0.5147   0.5148
     0.6054   0.6081   0.7978   0.8156   0.8325   0.9633   0.9638   1.3948
     1.3951   1.4136   1.6711   1.7049   1.7051   1.9805   1.9846   2.0613
     2.0617   2.0882   2.0907   2.3176   2.3183   2.4060   2.4062   2.4770
     2.5435   2.5484   2.7098   2.8076   3.2479   3.2493   3.2516   3.2533
     3.3070   3.3075   3.5990   3.5996   3.8799   3.8827   3.9815   4.2950
     4.3373   4.3392   4.5491   4.5537   4.6388   4.6397   4.7303   4.8472
     4.8494   4.9655   4.9664   5.0817   5.2701   5.3370   5.3414   5.4995
     5.5073   5.7205   5.7262   5.7276   5.7530   5.7537   5.8159   5.8188
     5.8551   6.0032   6.2434   6.3595   6.4181   6.4325   6.5476   6.5597
     6.5602   6.5721   6.5764   6.7045   6.8134   6.8149   6.9238   6.9598
     6.9884   7.0401   7.0702

          k = 0.0000-0.2887 0.1111 (136898 PWs)   bands (ev):

   -18.8789  -6.6917  -6.4384  -5.6463  -5.3547  -5.2960  -5.2958  -4.7576
    -4.7574  -4.6258  -4.6251  -4.4709  -4.4385  -4.3781  -4.3441  -4.3436
    -4.3109  -4.3108  -4.1823  -4.1406  -4.1405  -4.0803  -4.0594  -4.0591
    -3.9570  -3.9569  -3.9209  -3.9206  -3.9205  -3.8936  -3.8721  -3.8719
    -3.7662  -3.7650  -3.7648  -3.7440  -3.7273  -3.7271  -3.7149  -3.7147
    -3.7014  -3.6714  -3.6712  -3.6710  -3.6708  -3.6385  -3.6382  -3.6206
    -3.6205  -3.6053  -3.5619  -3.5616  -3.5324  -3.5168  -3.5165  -3.5124
    -3.5123  -3.4377  -3.4376  -3.4018  -3.3997  -3.3995  -3.3323  -3.3322
    -3.3166  -3.3164  -3.2853  -3.2849  -3.2847  -3.2844  -3.1312  -3.1310
    -3.1053  -3.1048  -3.0999  -3.0843  -3.0840  -3.0581  -3.0577  -3.0085
    -3.0081  -2.9918  -2.9917  -2.9721  -2.9424  -2.9225  -2.9214  -2.9025
    -2.8982  -2.8971  -2.8570  -2.8565  -2.8507  -2.8495  -2.8339  -2.8328
    -2.7940  -2.7937  -2.7724  -2.7720  -2.7690  -2.7684  -2.7658  -2.6887
    -2.6883  -2.6871  -2.6585  -2.6579  -2.5964  -2.5960  -2.5679  -2.5668
    -2.5535  -2.5532  -2.5483  -2.5185  -2.5183  -2.5090  -2.4911  -2.4656
    -2.4654  -2.4652  -2.4444  -2.4442  -2.4334  -2.4329  -2.4296  -2.4289
    -2.4217  -2.3754  -2.3429  -2.3428  -2.3272  -2.3133  -2.3067  -2.3066
    -2.2994  -2.2989  -2.2977  -2.2677  -2.2674  -2.2672  -2.2576  -2.2573
    -2.2400  -2.2129  -2.2124  -2.2119  -2.2108  -2.2102  -2.1659  -2.1341
    -2.1339  -2.1335  -2.1270  -2.1183  -2.1049  -2.1047  -2.0881  -2.0881
    -2.0540  -2.0533  -2.0530  -2.0347  -2.0328  -2.0327  -1.9997  -1.9992
    -1.9583  -1.9578  -1.9504  -1.9487  -1.9483  -1.9420  -1.9417  -1.9397
    -1.9390  -1.9323  -1.9315  -1.9154  -1.9148  -1.7880  -1.7874  -1.7554
    -1.7499  -1.7489  -1.7441  -1.7438  -1.7268  -1.7259  -1.7230  -1.7228
    -1.7205  -1.6984  -1.6897  -1.6892  -1.6857  -1.6778  -1.6770  -1.6550
    -1.6549  -1.6265  -1.6260  -1.5936  -1.5934  -1.5834  -1.5753  -1.5577
    -1.5571  -1.5543  -1.5360  -1.5239  -1.5237  -1.5164  -1.5162  -1.4891
    -1.4890  -1.4725  -1.4718  -1.4405  -1.4394  -1.4299  -1.3791  -1.3786
    -1.3666  -1.3662  -1.3649  -1.3411  -1.3380  -1.3045  -1.3038  -1.3033
    -1.2701  -1.2602  -1.2593  -1.2442  -1.2438  -1.2173  -1.2161  -1.2155
    -1.1861  -1.1833  -1.1830  -1.1208  -1.1203  -1.1073  -1.1063  -1.0908
    -1.0904  -1.0778  -1.0774  -1.0595  -1.0469  -1.0195  -1.0188  -1.0078
    -0.9804  -0.9699  -0.9686  -0.9579  -0.9578  -0.9556  -0.9506  -0.9496
    -0.9367  -0.9061  -0.9053  -0.9020  -0.8942  -0.8938  -0.8911  -0.8795
    -0.8686  -0.8500  -0.8475  -0.8293  -0.8275  -0.7357  -0.7230  -0.7172
    -0.7171  -0.7130  -0.7079  -0.7071  -0.6859  -0.6814  -0.6668  -0.6656
    -0.6516  -0.6511  -0.6425  -0.6224  -0.6209  -0.6201  -0.6118  -0.5401
    -0.5399  -0.5062  -0.5048  -0.5017  -0.4949  -0.4938  -0.4932  -0.4928
    -0.4804  -0.4788  -0.4640  -0.4388  -0.4245  -0.4045  -0.4038  -0.3931
    -0.3923  -0.3802  -0.3793  -0.3789  -0.3773  -0.3768  -0.3595  -0.3556
    -0.3549  -0.3245  -0.3231  -0.3224  -0.3108  -0.3107  -0.2915  -0.2593
    -0.2590  -0.2500  -0.2495  -0.1819  -0.1815  -0.1445  -0.1440  -0.0870
    -0.0845  -0.0839  -0.0742  -0.0551   0.1659   0.1701   0.5147   0.5148
     0.6047   0.6086   0.7987   0.8150   0.8324   0.9631   0.9640   1.3949
     1.3949   1.4136   1.6711   1.7050   1.7050   1.9794   1.9857   2.0613
     2.0618   2.0875   2.0913   2.3177   2.3182   2.4060   2.4063   2.4768
     2.5426   2.5495   2.7099   2.8076   3.2482   3.2492   3.2513   3.2537
     3.3070   3.3073   3.5992   3.5994   3.8791   3.8833   3.9812   4.2950
     4.3369   4.3397   4.5488   4.5565   4.6388   4.6399   4.7302   4.8473
     4.8497   4.9652   4.9666   5.0750   5.2700   5.3377   5.3409   5.4945
     5.5103   5.7250   5.7260   5.7297   5.7530   5.7537   5.8157   5.8183
     5.8602   6.0268   6.2533   6.2980   6.4219   6.4394   6.5554   6.5596
     6.5618   6.5717   6.5779   6.7311   6.8128   6.8155   6.8442   6.9695
     6.9980   7.0310   7.0454

          k = 0.0000 0.2887 0.1111 (136898 PWs)   bands (ev):

   -18.8789  -6.6917  -6.4384  -5.6463  -5.3547  -5.2960  -5.2958  -4.7576
    -4.7574  -4.6258  -4.6251  -4.4709  -4.4385  -4.3781  -4.3441  -4.3436
    -4.3109  -4.3108  -4.1823  -4.1406  -4.1405  -4.0803  -4.0594  -4.0591
    -3.9570  -3.9569  -3.9209  -3.9206  -3.9205  -3.8936  -3.8721  -3.8719
    -3.7662  -3.7650  -3.7648  -3.7440  -3.7273  -3.7271  -3.7149  -3.7147
    -3.7014  -3.6714  -3.6712  -3.6710  -3.6708  -3.6385  -3.6382  -3.6206
    -3.6205  -3.6053  -3.5619  -3.5616  -3.5324  -3.5168  -3.5165  -3.5124
    -3.5123  -3.4377  -3.4376  -3.4018  -3.3997  -3.3996  -3.3323  -3.3322
    -3.3166  -3.3164  -3.2853  -3.2849  -3.2847  -3.2844  -3.1312  -3.1310
    -3.1053  -3.1048  -3.0999  -3.0843  -3.0840  -3.0581  -3.0577  -3.0085
    -3.0081  -2.9918  -2.9917  -2.9721  -2.9424  -2.9225  -2.9214  -2.9025
    -2.8982  -2.8971  -2.8570  -2.8565  -2.8508  -2.8495  -2.8339  -2.8328
    -2.7940  -2.7937  -2.7724  -2.7720  -2.7690  -2.7684  -2.7658  -2.6887
    -2.6883  -2.6871  -2.6585  -2.6579  -2.5964  -2.5960  -2.5679  -2.5668
    -2.5535  -2.5532  -2.5483  -2.5185  -2.5183  -2.5090  -2.4911  -2.4656
    -2.4653  -2.4652  -2.4444  -2.4442  -2.4334  -2.4329  -2.4296  -2.4289
    -2.4217  -2.3754  -2.3429  -2.3428  -2.3272  -2.3133  -2.3067  -2.3066
    -2.2994  -2.2989  -2.2977  -2.2677  -2.2674  -2.2672  -2.2576  -2.2573
    -2.2400  -2.2129  -2.2124  -2.2120  -2.2108  -2.2102  -2.1659  -2.1341
    -2.1339  -2.1335  -2.1270  -2.1183  -2.1049  -2.1047  -2.0881  -2.0881
    -2.0540  -2.0533  -2.0530  -2.0347  -2.0328  -2.0327  -1.9997  -1.9992
    -1.9583  -1.9578  -1.9504  -1.9487  -1.9483  -1.9420  -1.9417  -1.9397
    -1.9390  -1.9323  -1.9315  -1.9154  -1.9148  -1.7880  -1.7874  -1.7554
    -1.7499  -1.7489  -1.7441  -1.7438  -1.7268  -1.7259  -1.7230  -1.7228
    -1.7205  -1.6984  -1.6897  -1.6892  -1.6857  -1.6778  -1.6770  -1.6550
    -1.6549  -1.6265  -1.6260  -1.5937  -1.5934  -1.5834  -1.5753  -1.5577
    -1.5571  -1.5543  -1.5360  -1.5239  -1.5237  -1.5164  -1.5162  -1.4891
    -1.4890  -1.4725  -1.4718  -1.4405  -1.4394  -1.4299  -1.3791  -1.3786
    -1.3666  -1.3662  -1.3649  -1.3411  -1.3380  -1.3045  -1.3038  -1.3033
    -1.2701  -1.2602  -1.2593  -1.2442  -1.2438  -1.2173  -1.2161  -1.2155
    -1.1861  -1.1833  -1.1830  -1.1208  -1.1203  -1.1073  -1.1063  -1.0908
    -1.0904  -1.0778  -1.0774  -1.0595  -1.0469  -1.0195  -1.0188  -1.0078
    -0.9804  -0.9699  -0.9686  -0.9579  -0.9578  -0.9556  -0.9506  -0.9496
    -0.9367  -0.9061  -0.9053  -0.9020  -0.8942  -0.8938  -0.8911  -0.8795
    -0.8686  -0.8500  -0.8475  -0.8293  -0.8275  -0.7357  -0.7230  -0.7172
    -0.7171  -0.7130  -0.7079  -0.7071  -0.6859  -0.6814  -0.6668  -0.6656
    -0.6516  -0.6511  -0.6425  -0.6224  -0.6209  -0.6201  -0.6118  -0.5401
    -0.5399  -0.5063  -0.5048  -0.5017  -0.4949  -0.4938  -0.4932  -0.4928
    -0.4804  -0.4788  -0.4640  -0.4388  -0.4244  -0.4045  -0.4038  -0.3931
    -0.3923  -0.3802  -0.3793  -0.3789  -0.3773  -0.3768  -0.3595  -0.3556
    -0.3549  -0.3245  -0.3231  -0.3224  -0.3108  -0.3107  -0.2915  -0.2593
    -0.2590  -0.2500  -0.2495  -0.1819  -0.1815  -0.1445  -0.1440  -0.0870
    -0.0845  -0.0839  -0.0742  -0.0551   0.1659   0.1701   0.5147   0.5148
     0.6047   0.6086   0.7987   0.8150   0.8324   0.9631   0.9640   1.3949
     1.3949   1.4136   1.6711   1.7050   1.7050   1.9794   1.9857   2.0613
     2.0617   2.0875   2.0913   2.3177   2.3182   2.4060   2.4063   2.4768
     2.5426   2.5495   2.7099   2.8076   3.2482   3.2492   3.2513   3.2537
     3.3070   3.3073   3.5992   3.5994   3.8791   3.8833   3.9812   4.2950
     4.3369   4.3397   4.5488   4.5565   4.6388   4.6399   4.7302   4.8473
     4.8497   4.9652   4.9666   5.0750   5.2700   5.3377   5.3409   5.4945
     5.5103   5.7252   5.7261   5.7296   5.7530   5.7537   5.8157   5.8183
     5.8602   6.0265   6.2529   6.2981   6.4220   6.4391   6.5542   6.5596
     6.5611   6.5717   6.5778   6.7299   6.8128   6.8155   6.8453   6.9732
     7.0021   7.0314   7.0470

     the Fermi energy is     1.5375 ev

!    total energy              =   -6604.43326801 Ry
     Harris-Foulkes estimate   =   -6604.43326801 Ry
     estimated scf accuracy    <          6.6E-09 Ry

     The total energy is the sum of the following terms:

     one-electron contribution =  -48430.65411335 Ry
     hartree contribution      =   24719.15390310 Ry
     xc contribution           =   -3204.95310769 Ry
     ewald contribution        =   20312.01715745 Ry
     smearing contrib. (-TS)   =       0.00289247 Ry

     convergence has been achieved in  24 iterations

     Writing output data file 5482052.save

     init_run     :    146.94s CPU    155.72s WALL (       1 calls)
     electrons    :   8960.76s CPU   9422.01s WALL (       1 calls)

     Called by init_run:
     wfcinit      :    118.10s CPU    126.20s WALL (       1 calls)
     potinit      :      9.45s CPU      9.85s WALL (       1 calls)

     Called by electrons:
     c_bands      :   7743.12s CPU   8111.80s WALL (      25 calls)
     sum_band     :    910.00s CPU    990.45s WALL (      25 calls)
     v_of_rho     :     88.22s CPU     96.79s WALL (      25 calls)
     newd         :    226.19s CPU    229.27s WALL (      25 calls)
     mix_rho      :      2.78s CPU      3.03s WALL (      25 calls)
     vdW_energy   :      7.04s CPU      7.50s WALL (      25 calls)
     vdW_ffts     :     43.48s CPU     47.77s WALL (      50 calls)
     vdW_v        :     11.68s CPU     12.48s WALL (      25 calls)

     Called by c_bands:
     init_us_2    :     11.67s CPU     11.99s WALL (     612 calls)
     cegterg      :   7651.93s CPU   8019.24s WALL (     300 calls)

     Called by *egterg:
     h_psi        :   3076.60s CPU   3406.45s WALL (    1818 calls)
     s_psi        :    472.74s CPU    475.31s WALL (    1818 calls)
     g_psi        :      6.59s CPU      6.49s WALL (    1506 calls)
     cdiaghg      :   2496.74s CPU   2504.94s WALL (    1794 calls)

     Called by h_psi:
     add_vuspsi   :    472.13s CPU    474.78s WALL (    1818 calls)

     General routines
     calbec       :    707.44s CPU    710.23s WALL (    2118 calls)
     fft          :    105.46s CPU    113.75s WALL (    1650 calls)
     ffts         :      1.19s CPU      1.39s WALL (      50 calls)
     fftw         :   2345.63s CPU   2708.93s WALL (  739668 calls)
     interpolate  :      3.14s CPU      3.69s WALL (      50 calls)
     davcio       :      0.00s CPU      0.20s WALL (      12 calls)

     Parallel routines
     fft_scatter  :   1631.09s CPU   1907.55s WALL (  741368 calls)

     PWSCF        :     2h32m CPU        2h40m WALL


   This run was terminated on:  18:32:22  29Aug2015            

=------------------------------------------------------------------------------=
   JOB DONE.
=------------------------------------------------------------------------------=
