Setting SGE environment for SCC

     Program PWSCF v.5.1.2 starts on 23Jun2015 at 14:31: 1 

     This program is part of the open-source Quantum ESPRESSO suite
     for quantum simulation of materials; please cite
         "P. Giannozzi et al., J. Phys.:Condens. Matter 21 395502 (2009);
          URL http://www.quantum-espresso.org", 
     in publications or presentations arising from this work. More details at
     http://www.quantum-espresso.org/quote

     Parallel version (MPI), running on    32 processors
     R & G space division:  proc/nbgrp/npool/nimage =      32
     Reading input from top.O1.Au50.d.3.0.phi.0.psi.0.in
Warning: card &IONS ignored
Warning: card / ignored
Warning: card &CELL ignored
Warning: card / ignored

     Current dimensions of program PWSCF are:
     Max number of different atomic species (ntypx) = 10
     Max number of k-points (npk) =  40000
     Max angular momentum in pseudopotentials (lmaxx) =  3

     IMPORTANT: XC functional enforced from input :
     Exchange-correlation      = VDW-DF ( 1  4  4  0 1 0)
     Any further DFT definition will be discarded
     Please, verify this is what you really want


     Subspace diagonalization in iterative solution of the eigenvalue problem:
     a serial algorithm will be used


     Parallelization info
     --------------------
     sticks:   dense  smooth     PW     G-vecs:    dense   smooth      PW
     Min         445     223     58                96775    34191    4534
     Max         446     224     59                96790    34246    4540
     Sum       14269    7147   1867              3097177  1095093  145167


     Title: 
     top.O1.Au50.d.3.0.phi.0.psi.0                                              


     bravais-lattice index     =            4
     lattice parameter (alat)  =      22.7436  a.u.
     unit-cell volume          =   22924.1508 (a.u.)^3
     number of atoms/cell      =           67
     number of atomic types    =            3
     number of electrons       =       712.00
     number of Kohn-Sham states=          427
     kinetic-energy cutoff     =      50.0000  Ry
     charge density cutoff     =     400.0000  Ry
     convergence threshold     =      1.0E-08
     mixing beta               =       0.7000
     number of iterations used =            8  plain     mixing
     Exchange-correlation      = VDW-DF ( 1  4  4  0 1 0)

     celldm(1)=  22.743643  celldm(2)=   0.000000  celldm(3)=   2.250000
     celldm(4)=   0.000000  celldm(5)=   0.000000  celldm(6)=   0.000000

     crystal axes: (cart. coord. in units of alat)
               a(1) = (   1.000000   0.000000   0.000000 )  
               a(2) = (  -0.500000   0.866025   0.000000 )  
               a(3) = (   0.000000   0.000000   2.250000 )  

     reciprocal axes: (cart. coord. in units 2 pi/alat)
               b(1) = (  1.000000  0.577350 -0.000000 )  
               b(2) = (  0.000000  1.154701  0.000000 )  
               b(3) = (  0.000000 -0.000000  0.444444 )  


     PseudoPot. # 1 for Au read from file:
     /home/scc/andrejb/qe/pseudo/Au.pbe-nd-van.UPF
     MD5 check sum: 458681b50f36d87ef23c61b04bba420a
     Pseudo is Ultrasoft + core correction, Zval = 11.0
     Generated by new atomic code, or converted to UPF format
     Using radial grid of  985 points,  3 beta functions with: 
                l(1) =   1
                l(2) =   2
                l(3) =   2
     Q(r) pseudized with  8 coefficients,  rinner =    1.100   1.100   1.100
                                                       1.100   1.100

     PseudoPot. # 2 for H  read from file:
     /home/scc/andrejb/qe/pseudo/H.pbe-van_ak.UPF
     MD5 check sum: 403db7282739603aa925980fa9b8608d
     Pseudo is Ultrasoft, Zval =  1.0
     Generated by new atomic code, or converted to UPF format
     Using radial grid of  615 points,  1 beta functions with: 
                l(1) =   0
     Q(r) pseudized with  8 coefficients,  rinner =    0.800

     PseudoPot. # 3 for O  read from file:
     /home/scc/andrejb/qe/pseudo/O.pbe-van_ak.UPF
     MD5 check sum: 4b8c549914a63cae506c6ff22b5af4fe
     Pseudo is Ultrasoft, Zval =  6.0
     Generated by new atomic code, or converted to UPF format
     Using radial grid of  737 points,  4 beta functions with: 
                l(1) =   0
                l(2) =   0
                l(3) =   1
                l(4) =   1
     Q(r) pseudized with  8 coefficients,  rinner =    0.800   0.800   0.800


     vdW kernel table read from file vdW_kernel_table
     MD5 check sum: 48e77a2e26edf626eeb0eaa751ad5cac

     atomic species   valence    mass     pseudopotential
        Au            11.00   196.96657     Au( 1.00)
        H              1.00     1.01000     H ( 1.00)
        O              6.00    16.00000     O ( 1.00)

     No symmetry found



   Cartesian axes

     site n.     atom                  positions (alat units)
         1           O   tau(   1) = (   0.4790780   0.3968269   0.8622611  )
         2           H   tau(   2) = (   0.4291446   0.3552792   0.9105147  )
         3           H   tau(   3) = (   0.5274974   0.4371337   0.9130218  )
         4           Au  tau(   4) = (   0.3540481   0.6132292   0.0000000  )
         5           Au  tau(   5) = (   0.4790062   0.3967954   0.0000000  )
         6           Au  tau(   6) = (   0.6039644   0.1803616   0.0000000  )
         7           Au  tau(   7) = (   0.7289225  -0.0360723   0.0000000  )
         8           Au  tau(   8) = (   0.1041318   0.6132292   0.0000000  )
         9           Au  tau(   9) = (   0.2290899   0.3967954   0.0000000  )
        10           Au  tau(  10) = (   0.3540481   0.1803616   0.0000000  )
        11           Au  tau(  11) = (   0.4790062  -0.0360723   0.0000000  )
        12           Au  tau(  12) = (  -0.1457845   0.6132292   0.0000000  )
        13           Au  tau(  13) = (  -0.0208264   0.3967954   0.0000000  )
        14           Au  tau(  14) = (   0.1041318   0.1803616   0.0000000  )
        15           Au  tau(  15) = (   0.2290899  -0.0360723   0.0000000  )
        16           Au  tau(  16) = (  -0.3957008   0.6132292   0.0000000  )
        17           Au  tau(  17) = (  -0.2707426   0.3967954   0.0000000  )
        18           Au  tau(  18) = (  -0.1457845   0.1803616   0.0000000  )
        19           Au  tau(  19) = (  -0.0208264  -0.0360723   0.0000000  )
        20           Au  tau(  20) = (   0.4790062   0.6853738   0.2040557  )
        21           Au  tau(  21) = (   0.6039644   0.4689400   0.2040557  )
        22           Au  tau(  22) = (   0.7289225   0.2525062   0.2040557  )
        23           Au  tau(  23) = (   0.8538806   0.0360723   0.2040557  )
        24           Au  tau(  24) = (   0.2290899   0.6853738   0.2040557  )
        25           Au  tau(  25) = (   0.3540481   0.4689400   0.2040557  )
        26           Au  tau(  26) = (   0.4790062   0.2525062   0.2040557  )
        27           Au  tau(  27) = (   0.6039644   0.0360723   0.2040557  )
        28           Au  tau(  28) = (  -0.0208264   0.6853738   0.2040557  )
        29           Au  tau(  29) = (   0.1041318   0.4689400   0.2040557  )
        30           Au  tau(  30) = (   0.2290899   0.2525062   0.2040557  )
        31           Au  tau(  31) = (   0.3540481   0.0360723   0.2040557  )
        32           Au  tau(  32) = (  -0.2707426   0.6853738   0.2040557  )
        33           Au  tau(  33) = (  -0.1457845   0.4689400   0.2040557  )
        34           Au  tau(  34) = (  -0.0208264   0.2525062   0.2040557  )
        35           Au  tau(  35) = (   0.1041318   0.0360723   0.2040557  )
        36           Au  tau(  36) = (   0.3541162   0.7576593   0.4066483  )
        37           Au  tau(  37) = (   0.4791000   0.5411421   0.4066696  )
        38           Au  tau(  38) = (   0.6040570   0.3246862   0.4066618  )
        39           Au  tau(  39) = (   0.7290270   0.1081684   0.4066530  )
        40           Au  tau(  40) = (   0.1041162   0.7576236   0.4066247  )
        41           Au  tau(  41) = (   0.2291001   0.5411062   0.4066455  )
        42           Au  tau(  42) = (   0.3540567   0.3246505   0.4066380  )
        43           Au  tau(  43) = (   0.4790276   0.1081324   0.4066292  )
        44           Au  tau(  44) = (  -0.1458201   0.7576104   0.4066225  )
        45           Au  tau(  45) = (  -0.0208365   0.5410930   0.4066438  )
        46           Au  tau(  46) = (   0.1041202   0.3246372   0.4066359  )
        47           Au  tau(  47) = (   0.2290908   0.1081193   0.4066273  )
        48           Au  tau(  48) = (  -0.3958167   0.7575791   0.4065812  )
        49           Au  tau(  49) = (  -0.2708328   0.5410617   0.4066025  )
        50           Au  tau(  50) = (  -0.1458763   0.3246061   0.4065947  )
        51           Au  tau(  51) = (  -0.0209056   0.1080882   0.4065858  )
        52           Au  tau(  52) = (   0.3541084   0.6133344   0.6129762  )
        53           Au  tau(  53) = (   0.4790780   0.3968269   0.6129968  )
        54           Au  tau(  54) = (   0.6040356   0.1803811   0.6129859  )
        55           Au  tau(  55) = (   0.7290165  -0.0361221   0.6129385  )
        56           Au  tau(  56) = (   0.1041243   0.6133091   0.6130023  )
        57           Au  tau(  57) = (   0.2290941   0.3968013   0.6130241  )
        58           Au  tau(  58) = (   0.3540515   0.1803552   0.6130121  )
        59           Au  tau(  59) = (   0.4790323  -0.0361475   0.6129659  )
        60           Au  tau(  60) = (  -0.1458030   0.6133014   0.6129980  )
        61           Au  tau(  61) = (  -0.0208339   0.3967936   0.6130189  )
        62           Au  tau(  62) = (   0.1041239   0.1803477   0.6130083  )
        63           Au  tau(  63) = (   0.2291046  -0.0361554   0.6129607  )
        64           Au  tau(  64) = (  -0.3957908   0.6132739   0.6129471  )
        65           Au  tau(  65) = (  -0.2708208   0.3967658   0.6129688  )
        66           Au  tau(  66) = (  -0.1458636   0.1803200   0.6129569  )
        67           Au  tau(  67) = (  -0.0208823  -0.0361826   0.6129110  )

     number of k points=    12  Marzari-Vanderbilt smearing, width (Ry)=  0.0200
                       cart. coord. in units 2pi/alat
        k(    1) = (   0.2500000   0.4330127   0.1111111), wk =   0.1666667
        k(    2) = (   0.2500000  -0.1443376   0.1111111), wk =   0.1666667
        k(    3) = (  -0.2500000  -0.4330127   0.1111111), wk =   0.1666667
        k(    4) = (  -0.2500000   0.4330127  -0.1111111), wk =   0.1666667
        k(    5) = (   0.2500000  -0.4330127  -0.1111111), wk =   0.1666667
        k(    6) = (   0.5000000   0.0000000   0.1111111), wk =   0.1666667
        k(    7) = (  -0.5000000   0.0000000   0.1111111), wk =   0.1666667
        k(    8) = (  -0.2500000   0.1443376   0.1111111), wk =   0.1666667
        k(    9) = (  -0.2500000  -0.1443376  -0.1111111), wk =   0.1666667
        k(   10) = (   0.2500000   0.1443376  -0.1111111), wk =   0.1666667
        k(   11) = (   0.0000000  -0.2886751   0.1111111), wk =   0.1666667
        k(   12) = (   0.0000000   0.2886751   0.1111111), wk =   0.1666667

     Dense  grid:  3097177 G-vectors     FFT dimensions: ( 150, 150, 360)

     Smooth grid:  1095093 G-vectors     FFT dimensions: ( 108, 108, 240)

     Largest allocated arrays     est. size (Mb)     dimensions
        Kohn-Sham Wavefunctions        28.01 Mb     (    4299,  427)
        NL pseudopotentials            55.23 Mb     (    4299,  842)
        Each V/rho on FFT grid          4.12 Mb     (  270000)
        Each G-vector array             0.74 Mb     (   96788)
        G-vector shells                 0.16 Mb     (   21404)
     Largest temporary arrays     est. size (Mb)     dimensions
        Auxiliary wavefunctions       112.04 Mb     (    4299, 1708)
        Each subspace H/S matrix       44.51 Mb     (    1708, 1708)
        Each <psi_i|beta_j> matrix      5.49 Mb     (     842,  427)
        Arrays for rho mixing          32.96 Mb     (  270000,    8)

     Initial potential from superposition of free atoms
     Check: negative starting charge=   -1.730202

     starting charge  711.25682, renormalised to  712.00000

     negative rho (up, down):  1.732E+00 0.000E+00


     ************************************************************************
     *
     * You are using vdW-DF for exchange-correlation in this calculation.
     * Please cite the following three references that made this development
     * possible:
     *
     *   M. Dion, H. Rydberg, E. Schroder, D. C. Langreth, and
     *   B. I. Lundqvist, Phys. Rev. Lett. 92, 246401 (2004).
     *
     *   T. Thonhauser, V. R. Cooper, S. Li, A. Puzder, P. Hyldgaard, and
     *   D. C. Langreth, Phys. Rev. B 76, 125112 (2007).
     *
     *   G. Roman-Perez and J. M. Soler, Phys. Rev. Lett. 103, 096102 (2009).
     *
     *
     * If you are using vdW-DF2, please also cite:
     *
     *   K. Lee, E. D. Murray, L. Kong, B. I. Lundqvist, and
     *   D. C. Langreth, Phys. Rev. B 82, 081101(R) (2010).
     *
     *
     * If you are calculating the stress with vdW-DF, please also cite:
     *
     *   R. Sabatini, E. Kucukbenli, B. Kolb, T. Thonhauser, and
     *   S. de Gironcoli, J. Phys.: Condens. Matter 24, 424209 (2012).
     *
     ************************************************************************

     Carrying out vdW-DF run using the following parameters:

     Nqs =      20    Nr_points =    1024   r_max =   100.000
     q_mesh =
               0.00001000     0.04494208     0.09755937     0.15916263
               0.23128650     0.31572767     0.41458969     0.53033537
               0.66584808     0.82450364     1.01025438     1.22772762
               1.48234092     1.78043706     2.12944203     2.53805004
               3.01644009     3.57652955     4.23227104     5.00000000

     Gradients computed in reciprocal space

     ************************************************************************


     Starting wfc are  582 randomized atomic wfcs

     total cpu time spent up to now is      148.3 secs

     Self-consistent Calculation

     iteration #  1     ecut=    50.00 Ry     beta=0.70
     Davidson diagonalization with overlap
     ethr =  1.00E-02,  avg # of iterations =  3.0

     Threshold (ethr) on eigenvalues was too large:
     Diagonalizing with lowered threshold

     Davidson diagonalization with overlap
     ethr =  3.56E-04,  avg # of iterations =  5.5

     negative rho (up, down):  1.728E+00 0.000E+00

     total cpu time spent up to now is      746.5 secs

     total energy              =   -6602.76144448 Ry
     Harris-Foulkes estimate   =   -6605.05463418 Ry
     estimated scf accuracy    <       2.86832364 Ry

     iteration #  2     ecut=    50.00 Ry     beta=0.70
     Davidson diagonalization with overlap
     ethr =  4.03E-04,  avg # of iterations = 11.6

     negative rho (up, down):  1.725E+00 0.000E+00

     total cpu time spent up to now is     1694.2 secs

     total energy              =   -6596.08388685 Ry
     Harris-Foulkes estimate   =   -6610.30329494 Ry
     estimated scf accuracy    <      81.41276288 Ry

     iteration #  3     ecut=    50.00 Ry     beta=0.70
     Davidson diagonalization with overlap
     ethr =  4.03E-04,  avg # of iterations =  6.0

     negative rho (up, down):  1.734E+00 0.000E+00

     total cpu time spent up to now is     2235.8 secs

     total energy              =   -6603.02743500 Ry
     Harris-Foulkes estimate   =   -6605.02467690 Ry
     estimated scf accuracy    <       9.56607030 Ry

     iteration #  4     ecut=    50.00 Ry     beta=0.70
     Davidson diagonalization with overlap
     ethr =  4.03E-04,  avg # of iterations =  6.3

     negative rho (up, down):  1.736E+00 0.000E+00

     total cpu time spent up to now is     2580.2 secs

     total energy              =   -6603.38284582 Ry
     Harris-Foulkes estimate   =   -6605.28093095 Ry
     estimated scf accuracy    <      18.40442154 Ry

     iteration #  5     ecut=    50.00 Ry     beta=0.70
     Davidson diagonalization with overlap
     ethr =  4.03E-04,  avg # of iterations =  5.5

     negative rho (up, down):  1.746E+00 0.000E+00

     total cpu time spent up to now is     2897.9 secs

     total energy              =   -6604.32197109 Ry
     Harris-Foulkes estimate   =   -6604.63051996 Ry
     estimated scf accuracy    <       2.10488009 Ry

     iteration #  6     ecut=    50.00 Ry     beta=0.70
     Davidson diagonalization with overlap
     ethr =  2.96E-04,  avg # of iterations =  2.4

     negative rho (up, down):  1.750E+00 0.000E+00

     total cpu time spent up to now is     3159.0 secs

     total energy              =   -6604.41920962 Ry
     Harris-Foulkes estimate   =   -6604.47546663 Ry
     estimated scf accuracy    <       0.17289587 Ry

     iteration #  7     ecut=    50.00 Ry     beta=0.70
     Davidson diagonalization with overlap
     c_bands:  1 eigenvalues not converged
     c_bands:  1 eigenvalues not converged
     ethr =  2.43E-05,  avg # of iterations = 14.8

     negative rho (up, down):  1.753E+00 0.000E+00

     total cpu time spent up to now is     3654.8 secs

     total energy              =   -6604.43080343 Ry
     Harris-Foulkes estimate   =   -6604.45981148 Ry
     estimated scf accuracy    <       0.12206095 Ry

     iteration #  8     ecut=    50.00 Ry     beta=0.70
     Davidson diagonalization with overlap
     ethr =  1.71E-05,  avg # of iterations =  4.8

     negative rho (up, down):  1.754E+00 0.000E+00

     total cpu time spent up to now is     3944.2 secs

     total energy              =   -6604.43432307 Ry
     Harris-Foulkes estimate   =   -6604.44854466 Ry
     estimated scf accuracy    <       0.05120879 Ry

     iteration #  9     ecut=    50.00 Ry     beta=0.70
     Davidson diagonalization with overlap
     ethr =  7.19E-06,  avg # of iterations =  8.4

     negative rho (up, down):  1.755E+00 0.000E+00

     total cpu time spent up to now is     4298.0 secs

     total energy              =   -6604.43532442 Ry
     Harris-Foulkes estimate   =   -6604.44187350 Ry
     estimated scf accuracy    <       0.02107882 Ry

     iteration # 10     ecut=    50.00 Ry     beta=0.70
     Davidson diagonalization with overlap
     ethr =  2.96E-06,  avg # of iterations =  9.2

     negative rho (up, down):  1.756E+00 0.000E+00

     total cpu time spent up to now is     4670.5 secs

     total energy              =   -6604.43606733 Ry
     Harris-Foulkes estimate   =   -6604.43827683 Ry
     estimated scf accuracy    <       0.00815736 Ry

     iteration # 11     ecut=    50.00 Ry     beta=0.70
     Davidson diagonalization with overlap
     ethr =  1.15E-06,  avg # of iterations =  7.8

     negative rho (up, down):  1.757E+00 0.000E+00

     total cpu time spent up to now is     5013.1 secs

     total energy              =   -6604.43617209 Ry
     Harris-Foulkes estimate   =   -6604.43719376 Ry
     estimated scf accuracy    <       0.00463396 Ry

     iteration # 12     ecut=    50.00 Ry     beta=0.70
     Davidson diagonalization with overlap
     ethr =  6.51E-07,  avg # of iterations =  4.4

     negative rho (up, down):  1.758E+00 0.000E+00

     total cpu time spent up to now is     5316.9 secs

     total energy              =   -6604.43584783 Ry
     Harris-Foulkes estimate   =   -6604.43657991 Ry
     estimated scf accuracy    <       0.00125864 Ry

     iteration # 13     ecut=    50.00 Ry     beta=0.70
     Davidson diagonalization with overlap
     ethr =  1.77E-07,  avg # of iterations = 11.1

     negative rho (up, down):  1.758E+00 0.000E+00

     total cpu time spent up to now is     5765.9 secs

     total energy              =   -6604.43604562 Ry
     Harris-Foulkes estimate   =   -6604.43619529 Ry
     estimated scf accuracy    <       0.00043085 Ry

     iteration # 14     ecut=    50.00 Ry     beta=0.70
     Davidson diagonalization with overlap
     ethr =  6.05E-08,  avg # of iterations =  3.0

     negative rho (up, down):  1.757E+00 0.000E+00

     total cpu time spent up to now is     6044.6 secs

     total energy              =   -6604.43611659 Ry
     Harris-Foulkes estimate   =   -6604.43614680 Ry
     estimated scf accuracy    <       0.00009854 Ry

     iteration # 15     ecut=    50.00 Ry     beta=0.70
     Davidson diagonalization with overlap
     ethr =  1.38E-08,  avg # of iterations =  2.0

     negative rho (up, down):  1.757E+00 0.000E+00

     total cpu time spent up to now is     6288.3 secs

     total energy              =   -6604.43612431 Ry
     Harris-Foulkes estimate   =   -6604.43614384 Ry
     estimated scf accuracy    <       0.00009560 Ry

     iteration # 16     ecut=    50.00 Ry     beta=0.70
     Davidson diagonalization with overlap
     ethr =  1.34E-08,  avg # of iterations =  1.8

     negative rho (up, down):  1.757E+00 0.000E+00

     total cpu time spent up to now is     6527.4 secs

     total energy              =   -6604.43613143 Ry
     Harris-Foulkes estimate   =   -6604.43613903 Ry
     estimated scf accuracy    <       0.00003462 Ry

     iteration # 17     ecut=    50.00 Ry     beta=0.70
     Davidson diagonalization with overlap
     ethr =  4.86E-09,  avg # of iterations =  2.0

     negative rho (up, down):  1.757E+00 0.000E+00

     total cpu time spent up to now is     6753.7 secs

     total energy              =   -6604.43613372 Ry
     Harris-Foulkes estimate   =   -6604.43613790 Ry
     estimated scf accuracy    <       0.00002094 Ry

     iteration # 18     ecut=    50.00 Ry     beta=0.70
     Davidson diagonalization with overlap
     ethr =  2.94E-09,  avg # of iterations =  2.0

     negative rho (up, down):  1.757E+00 0.000E+00

     total cpu time spent up to now is     6992.6 secs

     total energy              =   -6604.43613499 Ry
     Harris-Foulkes estimate   =   -6604.43613754 Ry
     estimated scf accuracy    <       0.00001659 Ry

     iteration # 19     ecut=    50.00 Ry     beta=0.70
     Davidson diagonalization with overlap
     ethr =  2.33E-09,  avg # of iterations =  1.8

     negative rho (up, down):  1.757E+00 0.000E+00

     total cpu time spent up to now is     7214.7 secs

     total energy              =   -6604.43613621 Ry
     Harris-Foulkes estimate   =   -6604.43613664 Ry
     estimated scf accuracy    <       0.00000248 Ry

     iteration # 20     ecut=    50.00 Ry     beta=0.70
     Davidson diagonalization with overlap
     ethr =  3.49E-10,  avg # of iterations =  2.5

     negative rho (up, down):  1.757E+00 0.000E+00

     total cpu time spent up to now is     7456.6 secs

     total energy              =   -6604.43613653 Ry
     Harris-Foulkes estimate   =   -6604.43613667 Ry
     estimated scf accuracy    <       0.00000130 Ry

     iteration # 21     ecut=    50.00 Ry     beta=0.70
     Davidson diagonalization with overlap
     ethr =  1.83E-10,  avg # of iterations =  2.0

     negative rho (up, down):  1.757E+00 0.000E+00

     total cpu time spent up to now is     7704.4 secs

     total energy              =   -6604.43613673 Ry
     Harris-Foulkes estimate   =   -6604.43613671 Ry
     estimated scf accuracy    <       0.00000030 Ry

     iteration # 22     ecut=    50.00 Ry     beta=0.70
     Davidson diagonalization with overlap
     ethr =  4.19E-11,  avg # of iterations =  2.0

     negative rho (up, down):  1.757E+00 0.000E+00

     total cpu time spent up to now is     7956.4 secs

     total energy              =   -6604.43613674 Ry
     Harris-Foulkes estimate   =   -6604.43613678 Ry
     estimated scf accuracy    <       0.00000005 Ry

     iteration # 23     ecut=    50.00 Ry     beta=0.70
     Davidson diagonalization with overlap
     ethr =  6.61E-12,  avg # of iterations =  3.0

     negative rho (up, down):  1.757E+00 0.000E+00

     total cpu time spent up to now is     8258.5 secs

     total energy              =   -6604.43613677 Ry
     Harris-Foulkes estimate   =   -6604.43613676 Ry
     estimated scf accuracy    <       0.00000004 Ry

     iteration # 24     ecut=    50.00 Ry     beta=0.70
     Davidson diagonalization with overlap
     ethr =  6.00E-12,  avg # of iterations =  2.0

     negative rho (up, down):  1.757E+00 0.000E+00

     total cpu time spent up to now is     8494.6 secs

     total energy              =   -6604.43613679 Ry
     Harris-Foulkes estimate   =   -6604.43613678 Ry
     estimated scf accuracy    <       0.00000002 Ry

     iteration # 25     ecut=    50.00 Ry     beta=0.70
     Davidson diagonalization with overlap
     ethr =  2.26E-12,  avg # of iterations =  2.0

     negative rho (up, down):  1.757E+00 0.000E+00

     total cpu time spent up to now is     8733.8 secs

     End of self-consistent calculation

          k = 0.2500 0.4330 0.1111 (136853 PWs)   bands (ev):

   -19.2173  -7.0172  -6.1981  -5.7990  -5.7986  -5.1223  -4.7874  -4.7873
    -4.7506  -4.7486  -4.3871  -4.3868  -4.2885  -4.2881  -4.2743  -4.2528
    -4.2298  -4.1211  -4.1204  -4.0966  -4.0529  -4.0527  -3.9856  -3.9840
    -3.9809  -3.9776  -3.9558  -3.9509  -3.9499  -3.8841  -3.8783  -3.8477
    -3.8475  -3.8359  -3.8353  -3.8126  -3.8119  -3.7898  -3.7815  -3.7808
    -3.7569  -3.7029  -3.7019  -3.6552  -3.6536  -3.6017  -3.5953  -3.5602
    -3.5401  -3.5398  -3.5397  -3.5063  -3.4916  -3.4655  -3.4605  -3.4582
    -3.4570  -3.4518  -3.4271  -3.4189  -3.4122  -3.3563  -3.3545  -3.3447
    -3.3276  -3.3213  -3.2504  -3.2445  -3.2174  -3.2152  -3.1890  -3.1881
    -3.1752  -3.1565  -3.0989  -3.0970  -3.0812  -3.0799  -3.0294  -3.0244
    -3.0237  -2.9858  -2.9548  -2.9542  -2.9455  -2.9438  -2.9324  -2.9314
    -2.9247  -2.9242  -2.9140  -2.8732  -2.8357  -2.8346  -2.8213  -2.8208
    -2.7950  -2.7854  -2.7851  -2.7615  -2.7187  -2.7171  -2.7096  -2.6705
    -2.6632  -2.6522  -2.6511  -2.6231  -2.6227  -2.5929  -2.5563  -2.5559
    -2.5338  -2.5261  -2.5127  -2.5120  -2.4619  -2.4613  -2.4289  -2.4060
    -2.4058  -2.3821  -2.3814  -2.3704  -2.3698  -2.3594  -2.3375  -2.3371
    -2.2920  -2.2915  -2.2905  -2.2740  -2.2737  -2.2680  -2.2591  -2.2581
    -2.2566  -2.2561  -2.2497  -2.2378  -2.2370  -2.2291  -2.2012  -2.2010
    -2.1995  -2.1987  -2.1973  -2.1954  -2.1939  -2.1677  -2.1643  -2.1504
    -2.1501  -2.1317  -2.1312  -2.1218  -2.1215  -2.1206  -2.1195  -2.1006
    -2.0994  -2.0987  -2.0969  -2.0800  -2.0547  -2.0534  -2.0140  -2.0134
    -1.9888  -1.9886  -1.9617  -1.9602  -1.9341  -1.9333  -1.9172  -1.9115
    -1.8848  -1.8647  -1.8627  -1.8577  -1.8556  -1.8523  -1.8455  -1.8429
    -1.8181  -1.8116  -1.8023  -1.7466  -1.7427  -1.7405  -1.7396  -1.7369
    -1.7026  -1.6824  -1.6821  -1.6550  -1.6531  -1.5940  -1.5938  -1.5643
    -1.5475  -1.5435  -1.4869  -1.4850  -1.4739  -1.4728  -1.4626  -1.4616
    -1.4578  -1.4503  -1.4491  -1.4065  -1.3914  -1.3821  -1.3808  -1.3789
    -1.3697  -1.3616  -1.3299  -1.3253  -1.3112  -1.3080  -1.3076  -1.3004
    -1.2969  -1.2893  -1.2865  -1.2687  -1.2664  -1.2515  -1.2226  -1.2193
    -1.2133  -1.1976  -1.1816  -1.1734  -1.1359  -1.1301  -1.1088  -1.1045
    -1.1021  -1.0744  -1.0239  -1.0223  -1.0214  -1.0197  -1.0155  -1.0129
    -1.0041  -0.9867  -0.9856  -0.9468  -0.9463  -0.9162  -0.9157  -0.9100
    -0.9088  -0.9029  -0.8864  -0.8860  -0.8845  -0.8821  -0.8799  -0.8458
    -0.8421  -0.8413  -0.8396  -0.8109  -0.8090  -0.8055  -0.7827  -0.7747
    -0.7728  -0.7280  -0.7217  -0.7183  -0.6859  -0.6775  -0.6670  -0.6669
    -0.6596  -0.6589  -0.6573  -0.6535  -0.6454  -0.6418  -0.6191  -0.6184
    -0.6155  -0.6139  -0.6115  -0.5762  -0.5757  -0.5652  -0.5634  -0.5488
    -0.5427  -0.5385  -0.5296  -0.4745  -0.4724  -0.4638  -0.4635  -0.4619
    -0.4612  -0.4554  -0.4379  -0.4346  -0.4284  -0.4279  -0.4262  -0.4220
    -0.3863  -0.3845  -0.3835  -0.3761  -0.3745  -0.3699  -0.3680  -0.3569
    -0.3517  -0.3491  -0.3426  -0.3067  -0.3060  -0.2980  -0.2943  -0.2933
    -0.2171  -0.2164  -0.2140  -0.2127  -0.2046  -0.2029  -0.1678  -0.1554
    -0.1547  -0.1290  -0.1232  -0.1131  -0.0026   0.0002   0.1007   0.5165
     0.5169   0.5195   0.5198   0.5784   0.5885   0.9693   0.9696   1.0116
     1.0126   1.1214   1.2026   1.3084   1.3198   1.5268   1.5485   2.1651
     2.1698   2.3259   2.3330   2.4565   2.4698   2.5654   2.5655   2.7196
     2.9553   2.9570   3.0814   3.3004   3.3126   3.3881   3.3897   3.4885
     3.5047   3.6868   3.6962   3.7607   3.9617   3.9622   4.0217   4.0283
     4.2810   4.2844   4.2968   4.5319   4.5719   4.5759   4.6201   4.9529
     4.9576   4.9841   5.0429   5.1208   5.2922   5.2930   5.3365   5.3823
     5.7069   5.9394   6.0591   6.0782   6.0824   6.0966   6.1529   6.1548
     6.2090   6.2615   6.2876   6.3104   6.3142   6.3225   6.3260   6.3646
     6.3757   6.4033   6.5034   6.5844   6.7076   6.7753   6.9076   6.9838
     7.0180   7.0210   7.0354

          k = 0.2500-0.1443 0.1111 (136898 PWs)   bands (ev):

   -19.2173  -7.0172  -6.4081  -5.6160  -5.3261  -5.2658  -5.2655  -4.7273
    -4.7272  -4.5971  -4.5951  -4.4415  -4.4111  -4.3476  -4.3167  -4.3147
    -4.2807  -4.2804  -4.1517  -4.1100  -4.1098  -4.0509  -4.0314  -4.0295
    -3.9267  -3.9266  -3.8912  -3.8904  -3.8901  -3.8643  -3.8423  -3.8415
    -3.7421  -3.7347  -3.7345  -3.7150  -3.6994  -3.6970  -3.6864  -3.6848
    -3.6726  -3.6443  -3.6412  -3.6407  -3.6404  -3.6099  -3.6084  -3.5929
    -3.5904  -3.5800  -3.5494  -3.5330  -3.5212  -3.4966  -3.4877  -3.4819
    -3.4817  -3.4509  -3.4073  -3.4050  -3.3724  -3.3700  -3.3545  -3.3018
    -3.3012  -3.2866  -3.2799  -3.2554  -3.2551  -3.2544  -3.2502  -3.1010
    -3.0987  -3.0755  -3.0749  -3.0701  -3.0539  -3.0521  -3.0280  -3.0267
    -2.9780  -2.9767  -2.9618  -2.9608  -2.9406  -2.8930  -2.8926  -2.8729
    -2.8684  -2.8669  -2.8273  -2.8265  -2.8202  -2.8185  -2.8043  -2.8014
    -2.7644  -2.7637  -2.7424  -2.7422  -2.7391  -2.7377  -2.7346  -2.6592
    -2.6586  -2.6562  -2.6284  -2.6262  -2.5666  -2.5666  -2.5374  -2.5370
    -2.5240  -2.5230  -2.5174  -2.4886  -2.4885  -2.4783  -2.4612  -2.4363
    -2.4357  -2.4350  -2.4148  -2.4145  -2.4035  -2.4025  -2.4006  -2.3990
    -2.3909  -2.3448  -2.3131  -2.3129  -2.2968  -2.2831  -2.2768  -2.2766
    -2.2696  -2.2683  -2.2671  -2.2379  -2.2375  -2.2365  -2.2275  -2.2264
    -2.2106  -2.1833  -2.1825  -2.1823  -2.1814  -2.1787  -2.1352  -2.1041
    -2.1040  -2.1027  -2.0972  -2.0877  -2.0757  -2.0754  -2.0581  -2.0579
    -2.0251  -2.0235  -2.0231  -2.0048  -2.0040  -2.0038  -1.9710  -1.9706
    -1.9295  -1.9273  -1.9215  -1.9191  -1.9185  -1.9128  -1.9122  -1.9099
    -1.9090  -1.9040  -1.9024  -1.8865  -1.8859  -1.7603  -1.7593  -1.7269
    -1.7215  -1.7201  -1.7139  -1.7132  -1.6971  -1.6962  -1.6954  -1.6939
    -1.6903  -1.6682  -1.6631  -1.6617  -1.6541  -1.6487  -1.6448  -1.6257
    -1.6248  -1.5970  -1.5965  -1.5684  -1.5653  -1.5540  -1.5467  -1.5283
    -1.5267  -1.5247  -1.5067  -1.4940  -1.4932  -1.4868  -1.4863  -1.4616
    -1.4599  -1.4454  -1.4433  -1.4130  -1.4090  -1.4043  -1.3544  -1.3501
    -1.3425  -1.3376  -1.3330  -1.3105  -1.3078  -1.2795  -1.2752  -1.2741
    -1.2595  -1.2333  -1.2300  -1.2190  -1.2143  -1.2092  -1.1872  -1.1855
    -1.1674  -1.1559  -1.1537  -1.1498  -1.0910  -1.0900  -1.0784  -1.0766
    -1.0614  -1.0601  -1.0489  -1.0446  -1.0301  -1.0174  -0.9897  -0.9886
    -0.9768  -0.9470  -0.9403  -0.9371  -0.9275  -0.9272  -0.9257  -0.9213
    -0.9153  -0.9062  -0.8768  -0.8756  -0.8669  -0.8646  -0.8634  -0.8531
    -0.8397  -0.8224  -0.8153  -0.8008  -0.7933  -0.7064  -0.6935  -0.6879
    -0.6875  -0.6831  -0.6788  -0.6752  -0.6529  -0.6525  -0.6384  -0.6348
    -0.6227  -0.6200  -0.6134  -0.5940  -0.5913  -0.5883  -0.5825  -0.5101
    -0.5096  -0.4778  -0.4730  -0.4717  -0.4661  -0.4635  -0.4628  -0.4608
    -0.4512  -0.4465  -0.4305  -0.4082  -0.3932  -0.3750  -0.3733  -0.3637
    -0.3611  -0.3510  -0.3495  -0.3483  -0.3476  -0.3440  -0.3299  -0.3260
    -0.3225  -0.2948  -0.2937  -0.2905  -0.2805  -0.2796  -0.2611  -0.2295
    -0.2279  -0.2202  -0.2179  -0.1518  -0.1504  -0.1148  -0.1145  -0.0569
    -0.0554  -0.0550  -0.0394  -0.0270   0.1926   0.2094   0.5448   0.5450
     0.6310   0.6459   0.8272   0.8545   0.8633   0.9916   0.9952   1.4251
     1.4252   1.4431   1.7023   1.7350   1.7353   2.0037   2.0226   2.0901
     2.0916   2.1139   2.1282   2.3470   2.3475   2.4359   2.4368   2.5016
     2.5675   2.5902   2.7404   2.8392   3.2756   3.2782   3.2792   3.2887
     3.3354   3.3372   3.6289   3.6297   3.9045   3.9173   4.0029   4.3252
     4.3636   4.3725   4.5624   4.5766   4.6664   4.6720   4.7587   4.8752
     4.8835   4.9935   4.9971   5.0360   5.2987   5.3626   5.3740   5.5023
     5.5432   5.7534   5.7549   5.7662   5.7823   5.7844   5.8420   5.8452
     5.8991   6.0301   6.2087   6.2657   6.4443   6.4533   6.5844   6.5880
     6.5917   6.5978   6.6238   6.7469   6.8141   6.8390   6.8465   6.9831
     7.0206   7.0460   7.0730

          k =-0.2500-0.4330 0.1111 (136853 PWs)   bands (ev):

   -19.2173  -7.0172  -6.1981  -5.7990  -5.7986  -5.1223  -4.7874  -4.7873
    -4.7506  -4.7486  -4.3871  -4.3868  -4.2885  -4.2881  -4.2743  -4.2528
    -4.2298  -4.1211  -4.1204  -4.0966  -4.0529  -4.0527  -3.9856  -3.9840
    -3.9809  -3.9776  -3.9558  -3.9509  -3.9499  -3.8841  -3.8783  -3.8477
    -3.8475  -3.8359  -3.8353  -3.8126  -3.8119  -3.7898  -3.7815  -3.7808
    -3.7569  -3.7029  -3.7019  -3.6552  -3.6536  -3.6017  -3.5953  -3.5602
    -3.5401  -3.5398  -3.5397  -3.5063  -3.4916  -3.4655  -3.4605  -3.4582
    -3.4570  -3.4518  -3.4271  -3.4189  -3.4122  -3.3563  -3.3545  -3.3447
    -3.3276  -3.3213  -3.2504  -3.2445  -3.2174  -3.2152  -3.1890  -3.1881
    -3.1752  -3.1565  -3.0989  -3.0970  -3.0812  -3.0799  -3.0294  -3.0244
    -3.0237  -2.9858  -2.9548  -2.9542  -2.9455  -2.9438  -2.9324  -2.9314
    -2.9247  -2.9242  -2.9140  -2.8732  -2.8357  -2.8346  -2.8212  -2.8208
    -2.7950  -2.7854  -2.7851  -2.7615  -2.7187  -2.7171  -2.7096  -2.6705
    -2.6632  -2.6522  -2.6511  -2.6231  -2.6227  -2.5929  -2.5563  -2.5559
    -2.5338  -2.5261  -2.5127  -2.5120  -2.4619  -2.4613  -2.4289  -2.4060
    -2.4058  -2.3821  -2.3814  -2.3704  -2.3698  -2.3594  -2.3375  -2.3371
    -2.2920  -2.2915  -2.2905  -2.2740  -2.2737  -2.2680  -2.2591  -2.2581
    -2.2566  -2.2561  -2.2497  -2.2378  -2.2370  -2.2291  -2.2012  -2.2010
    -2.1995  -2.1987  -2.1973  -2.1954  -2.1939  -2.1677  -2.1643  -2.1504
    -2.1501  -2.1317  -2.1312  -2.1218  -2.1215  -2.1206  -2.1195  -2.1006
    -2.0994  -2.0987  -2.0969  -2.0800  -2.0547  -2.0534  -2.0140  -2.0134
    -1.9888  -1.9886  -1.9617  -1.9602  -1.9341  -1.9333  -1.9172  -1.9115
    -1.8848  -1.8647  -1.8627  -1.8577  -1.8556  -1.8523  -1.8455  -1.8429
    -1.8181  -1.8116  -1.8023  -1.7466  -1.7427  -1.7405  -1.7396  -1.7369
    -1.7026  -1.6824  -1.6821  -1.6550  -1.6531  -1.5940  -1.5938  -1.5643
    -1.5475  -1.5435  -1.4869  -1.4850  -1.4739  -1.4728  -1.4626  -1.4616
    -1.4578  -1.4503  -1.4491  -1.4065  -1.3914  -1.3821  -1.3808  -1.3789
    -1.3697  -1.3616  -1.3299  -1.3253  -1.3112  -1.3080  -1.3076  -1.3004
    -1.2969  -1.2893  -1.2865  -1.2687  -1.2664  -1.2515  -1.2226  -1.2193
    -1.2133  -1.1976  -1.1816  -1.1734  -1.1359  -1.1301  -1.1088  -1.1045
    -1.1021  -1.0744  -1.0239  -1.0223  -1.0214  -1.0197  -1.0155  -1.0129
    -1.0041  -0.9867  -0.9856  -0.9468  -0.9463  -0.9162  -0.9157  -0.9100
    -0.9088  -0.9029  -0.8864  -0.8860  -0.8845  -0.8821  -0.8799  -0.8458
    -0.8421  -0.8413  -0.8396  -0.8109  -0.8090  -0.8055  -0.7827  -0.7747
    -0.7728  -0.7280  -0.7217  -0.7183  -0.6859  -0.6775  -0.6670  -0.6669
    -0.6596  -0.6589  -0.6573  -0.6535  -0.6454  -0.6418  -0.6191  -0.6184
    -0.6155  -0.6139  -0.6115  -0.5762  -0.5757  -0.5652  -0.5634  -0.5488
    -0.5427  -0.5385  -0.5296  -0.4745  -0.4724  -0.4638  -0.4635  -0.4619
    -0.4612  -0.4554  -0.4379  -0.4346  -0.4284  -0.4279  -0.4262  -0.4220
    -0.3863  -0.3845  -0.3835  -0.3761  -0.3745  -0.3699  -0.3680  -0.3569
    -0.3517  -0.3491  -0.3426  -0.3067  -0.3060  -0.2980  -0.2943  -0.2933
    -0.2171  -0.2164  -0.2140  -0.2127  -0.2046  -0.2029  -0.1678  -0.1554
    -0.1547  -0.1290  -0.1232  -0.1131  -0.0026   0.0002   0.1007   0.5165
     0.5169   0.5195   0.5198   0.5784   0.5885   0.9693   0.9696   1.0116
     1.0126   1.1214   1.2026   1.3084   1.3198   1.5268   1.5485   2.1651
     2.1698   2.3259   2.3330   2.4565   2.4698   2.5654   2.5655   2.7196
     2.9553   2.9570   3.0814   3.3004   3.3126   3.3881   3.3897   3.4885
     3.5047   3.6868   3.6962   3.7607   3.9617   3.9622   4.0217   4.0283
     4.2810   4.2844   4.2968   4.5319   4.5719   4.5759   4.6201   4.9529
     4.9576   4.9841   5.0429   5.1208   5.2922   5.2930   5.3365   5.3823
     5.7069   5.9394   6.0595   6.0782   6.0824   6.0965   6.1528   6.1548
     6.2089   6.2615   6.2876   6.3104   6.3142   6.3225   6.3260   6.3646
     6.3757   6.4031   6.5034   6.5830   6.7089   6.7749   6.9101   6.9833
     7.0176   7.0215   7.0351

          k =-0.2500 0.4330-0.1111 (136853 PWs)   bands (ev):

   -19.2173  -7.0172  -6.1981  -5.8002  -5.7973  -5.1223  -4.7878  -4.7870
    -4.7510  -4.7483  -4.3876  -4.3862  -4.2885  -4.2882  -4.2741  -4.2528
    -4.2299  -4.1215  -4.1202  -4.0966  -4.0529  -4.0528  -3.9854  -3.9841
    -3.9809  -3.9777  -3.9556  -3.9520  -3.9488  -3.8834  -3.8791  -3.8484
    -3.8465  -3.8359  -3.8353  -3.8125  -3.8120  -3.7898  -3.7815  -3.7808
    -3.7570  -3.7028  -3.7022  -3.6559  -3.6529  -3.6018  -3.5952  -3.5599
    -3.5404  -3.5399  -3.5395  -3.5064  -3.4917  -3.4654  -3.4607  -3.4582
    -3.4571  -3.4521  -3.4273  -3.4185  -3.4122  -3.3566  -3.3545  -3.3444
    -3.3274  -3.3211  -3.2506  -3.2445  -3.2176  -3.2146  -3.1893  -3.1876
    -3.1751  -3.1567  -3.0992  -3.0971  -3.0812  -3.0795  -3.0292  -3.0244
    -3.0239  -2.9857  -2.9548  -2.9541  -2.9458  -2.9433  -2.9326  -2.9320
    -2.9245  -2.9237  -2.9142  -2.8731  -2.8365  -2.8340  -2.8215  -2.8205
    -2.7950  -2.7854  -2.7851  -2.7615  -2.7192  -2.7165  -2.7098  -2.6704
    -2.6631  -2.6528  -2.6504  -2.6234  -2.6226  -2.5929  -2.5561  -2.5558
    -2.5338  -2.5261  -2.5130  -2.5120  -2.4620  -2.4612  -2.4287  -2.4062
    -2.4060  -2.3819  -2.3816  -2.3703  -2.3696  -2.3596  -2.3378  -2.3368
    -2.2917  -2.2912  -2.2907  -2.2747  -2.2730  -2.2680  -2.2590  -2.2581
    -2.2568  -2.2560  -2.2496  -2.2383  -2.2361  -2.2303  -2.2013  -2.2009
    -2.1995  -2.1989  -2.1974  -2.1954  -2.1933  -2.1676  -2.1644  -2.1504
    -2.1497  -2.1321  -2.1309  -2.1219  -2.1214  -2.1205  -2.1195  -2.1016
    -2.0996  -2.0984  -2.0961  -2.0802  -2.0550  -2.0535  -2.0149  -2.0125
    -1.9894  -1.9881  -1.9618  -1.9598  -1.9337  -1.9330  -1.9169  -1.9114
    -1.8848  -1.8640  -1.8633  -1.8583  -1.8557  -1.8518  -1.8461  -1.8420
    -1.8182  -1.8109  -1.8022  -1.7473  -1.7436  -1.7406  -1.7386  -1.7376
    -1.7044  -1.6831  -1.6813  -1.6554  -1.6530  -1.5946  -1.5931  -1.5647
    -1.5473  -1.5430  -1.4857  -1.4850  -1.4745  -1.4734  -1.4628  -1.4615
    -1.4579  -1.4497  -1.4491  -1.3971  -1.3937  -1.3836  -1.3809  -1.3790
    -1.3622  -1.3608  -1.3414  -1.3257  -1.3093  -1.3079  -1.3075  -1.3043
    -1.3000  -1.2901  -1.2875  -1.2676  -1.2663  -1.2390  -1.2265  -1.2137
    -1.2123  -1.2030  -1.1894  -1.1771  -1.1371  -1.1284  -1.1087  -1.1047
    -1.0953  -1.0746  -1.0244  -1.0225  -1.0220  -1.0203  -1.0168  -1.0109
    -1.0044  -0.9869  -0.9858  -0.9473  -0.9450  -0.9167  -0.9143  -0.9103
    -0.9095  -0.9022  -0.8867  -0.8851  -0.8845  -0.8819  -0.8805  -0.8477
    -0.8424  -0.8413  -0.8363  -0.8116  -0.8105  -0.8050  -0.7827  -0.7758
    -0.7716  -0.7287  -0.7225  -0.7172  -0.6860  -0.6776  -0.6669  -0.6666
    -0.6597  -0.6588  -0.6581  -0.6530  -0.6458  -0.6410  -0.6196  -0.6182
    -0.6153  -0.6144  -0.6114  -0.5762  -0.5756  -0.5675  -0.5623  -0.5483
    -0.5431  -0.5381  -0.5293  -0.4744  -0.4722  -0.4641  -0.4634  -0.4627
    -0.4606  -0.4553  -0.4384  -0.4345  -0.4282  -0.4276  -0.4265  -0.4220
    -0.3864  -0.3848  -0.3831  -0.3766  -0.3740  -0.3693  -0.3684  -0.3575
    -0.3513  -0.3495  -0.3420  -0.3074  -0.3055  -0.2982  -0.2944  -0.2931
    -0.2173  -0.2163  -0.2140  -0.2123  -0.2046  -0.2029  -0.1677  -0.1556
    -0.1546  -0.1312  -0.1230  -0.1111  -0.0036   0.0022   0.1014   0.5163
     0.5170   0.5194   0.5200   0.5756   0.5903   0.9689   0.9692   1.0106
     1.0138   1.1226   1.2030   1.3062   1.3232   1.5232   1.5509   2.1632
     2.1712   2.3236   2.3361   2.4527   2.4730   2.5650   2.5659   2.7194
     2.9562   2.9570   3.0807   3.2983   3.3137   3.3876   3.3910   3.4876
     3.5048   3.6794   3.7016   3.7610   3.9610   3.9630   4.0199   4.0327
     4.2804   4.2823   4.2984   4.5326   4.5714   4.5763   4.6198   4.9520
     4.9580   4.9837   5.0540   5.1211   5.2919   5.2940   5.3195   5.3737
     5.7782   5.8686   6.0771   6.0806   6.0824   6.1064   6.1530   6.1554
     6.2172   6.2625   6.2888   6.3089   6.3148   6.3171   6.3277   6.3708
     6.3762   6.4135   6.4262   6.6022   6.7027   6.7695   6.9309   6.9674
     7.0158   7.0250   7.0347

          k = 0.2500-0.4330-0.1111 (136853 PWs)   bands (ev):

   -19.2173  -7.0172  -6.1981  -5.8002  -5.7973  -5.1223  -4.7878  -4.7870
    -4.7510  -4.7483  -4.3876  -4.3862  -4.2885  -4.2882  -4.2741  -4.2528
    -4.2299  -4.1215  -4.1202  -4.0966  -4.0529  -4.0528  -3.9854  -3.9841
    -3.9809  -3.9777  -3.9556  -3.9520  -3.9488  -3.8834  -3.8791  -3.8484
    -3.8465  -3.8359  -3.8353  -3.8125  -3.8120  -3.7898  -3.7815  -3.7808
    -3.7570  -3.7028  -3.7022  -3.6559  -3.6529  -3.6018  -3.5952  -3.5599
    -3.5404  -3.5399  -3.5395  -3.5064  -3.4917  -3.4654  -3.4607  -3.4582
    -3.4571  -3.4521  -3.4273  -3.4185  -3.4122  -3.3566  -3.3545  -3.3444
    -3.3274  -3.3211  -3.2506  -3.2445  -3.2176  -3.2146  -3.1893  -3.1876
    -3.1751  -3.1567  -3.0992  -3.0971  -3.0812  -3.0795  -3.0292  -3.0244
    -3.0239  -2.9857  -2.9548  -2.9541  -2.9458  -2.9433  -2.9326  -2.9320
    -2.9245  -2.9237  -2.9142  -2.8731  -2.8365  -2.8340  -2.8215  -2.8205
    -2.7950  -2.7854  -2.7851  -2.7615  -2.7192  -2.7165  -2.7098  -2.6704
    -2.6631  -2.6528  -2.6504  -2.6234  -2.6226  -2.5929  -2.5561  -2.5558
    -2.5338  -2.5261  -2.5130  -2.5120  -2.4620  -2.4612  -2.4287  -2.4062
    -2.4060  -2.3819  -2.3816  -2.3703  -2.3696  -2.3596  -2.3378  -2.3368
    -2.2917  -2.2912  -2.2907  -2.2747  -2.2730  -2.2680  -2.2590  -2.2581
    -2.2568  -2.2560  -2.2496  -2.2383  -2.2361  -2.2303  -2.2013  -2.2009
    -2.1995  -2.1989  -2.1974  -2.1954  -2.1933  -2.1676  -2.1644  -2.1504
    -2.1497  -2.1321  -2.1309  -2.1219  -2.1214  -2.1205  -2.1195  -2.1016
    -2.0996  -2.0984  -2.0961  -2.0802  -2.0550  -2.0535  -2.0149  -2.0125
    -1.9894  -1.9881  -1.9618  -1.9598  -1.9337  -1.9330  -1.9169  -1.9114
    -1.8848  -1.8640  -1.8633  -1.8583  -1.8557  -1.8518  -1.8461  -1.8420
    -1.8182  -1.8109  -1.8022  -1.7473  -1.7436  -1.7406  -1.7386  -1.7376
    -1.7044  -1.6831  -1.6813  -1.6554  -1.6530  -1.5946  -1.5931  -1.5647
    -1.5473  -1.5430  -1.4857  -1.4850  -1.4745  -1.4734  -1.4628  -1.4615
    -1.4579  -1.4497  -1.4491  -1.3971  -1.3937  -1.3836  -1.3809  -1.3790
    -1.3622  -1.3608  -1.3414  -1.3257  -1.3093  -1.3079  -1.3075  -1.3043
    -1.3000  -1.2901  -1.2875  -1.2676  -1.2663  -1.2390  -1.2265  -1.2137
    -1.2123  -1.2030  -1.1894  -1.1771  -1.1371  -1.1284  -1.1087  -1.1047
    -1.0953  -1.0746  -1.0244  -1.0225  -1.0220  -1.0203  -1.0168  -1.0109
    -1.0044  -0.9869  -0.9858  -0.9473  -0.9450  -0.9167  -0.9143  -0.9103
    -0.9095  -0.9022  -0.8867  -0.8851  -0.8845  -0.8819  -0.8805  -0.8477
    -0.8424  -0.8413  -0.8363  -0.8116  -0.8105  -0.8050  -0.7827  -0.7758
    -0.7716  -0.7287  -0.7225  -0.7172  -0.6860  -0.6776  -0.6669  -0.6666
    -0.6597  -0.6588  -0.6581  -0.6530  -0.6458  -0.6410  -0.6196  -0.6182
    -0.6153  -0.6144  -0.6114  -0.5762  -0.5756  -0.5675  -0.5623  -0.5483
    -0.5431  -0.5381  -0.5293  -0.4744  -0.4722  -0.4641  -0.4634  -0.4627
    -0.4606  -0.4553  -0.4384  -0.4345  -0.4282  -0.4276  -0.4265  -0.4220
    -0.3864  -0.3848  -0.3831  -0.3766  -0.3740  -0.3693  -0.3684  -0.3575
    -0.3513  -0.3495  -0.3420  -0.3074  -0.3055  -0.2982  -0.2944  -0.2931
    -0.2173  -0.2163  -0.2140  -0.2123  -0.2046  -0.2029  -0.1677  -0.1556
    -0.1546  -0.1312  -0.1230  -0.1111  -0.0036   0.0022   0.1014   0.5163
     0.5170   0.5194   0.5200   0.5756   0.5903   0.9689   0.9692   1.0106
     1.0138   1.1226   1.2030   1.3062   1.3232   1.5232   1.5509   2.1632
     2.1712   2.3236   2.3361   2.4527   2.4730   2.5650   2.5659   2.7194
     2.9562   2.9570   3.0807   3.2983   3.3137   3.3876   3.3910   3.4876
     3.5048   3.6794   3.7016   3.7610   3.9610   3.9630   4.0199   4.0327
     4.2804   4.2823   4.2984   4.5326   4.5714   4.5763   4.6198   4.9520
     4.9580   4.9837   5.0540   5.1211   5.2919   5.2940   5.3195   5.3737
     5.7782   5.8686   6.0771   6.0807   6.0824   6.1062   6.1529   6.1554
     6.2171   6.2625   6.2888   6.3089   6.3146   6.3172   6.3277   6.3707
     6.3762   6.4127   6.4272   6.6024   6.7023   6.7696   6.9309   6.9673
     7.0156   7.0255   7.0343

          k = 0.5000 0.0000 0.1111 (136853 PWs)   bands (ev):

   -19.2173  -7.0172  -6.1981  -5.8003  -5.7972  -5.1223  -4.7882  -4.7865
    -4.7518  -4.7474  -4.3876  -4.3862  -4.2886  -4.2881  -4.2741  -4.2528
    -4.2299  -4.1216  -4.1201  -4.0967  -4.0530  -4.0527  -3.9852  -3.9839
    -3.9810  -3.9779  -3.9557  -3.9520  -3.9488  -3.8846  -3.8777  -3.8484
    -3.8465  -3.8358  -3.8354  -3.8126  -3.8119  -3.7898  -3.7817  -3.7807
    -3.7570  -3.7032  -3.7018  -3.6561  -3.6527  -3.6018  -3.5952  -3.5602
    -3.5403  -3.5396  -3.5393  -3.5066  -3.4917  -3.4656  -3.4607  -3.4581
    -3.4574  -3.4515  -3.4276  -3.4192  -3.4115  -3.3563  -3.3546  -3.3446
    -3.3276  -3.3209  -3.2510  -3.2443  -3.2178  -3.2145  -3.1885  -3.1884
    -3.1751  -3.1566  -3.0989  -3.0973  -3.0811  -3.0796  -3.0293  -3.0244
    -3.0238  -2.9856  -2.9553  -2.9537  -2.9452  -2.9440  -2.9324  -2.9312
    -2.9246  -2.9244  -2.9142  -2.8731  -2.8358  -2.8347  -2.8214  -2.8206
    -2.7950  -2.7854  -2.7851  -2.7615  -2.7181  -2.7177  -2.7098  -2.6704
    -2.6632  -2.6523  -2.6508  -2.6235  -2.6227  -2.5929  -2.5563  -2.5555
    -2.5338  -2.5261  -2.5128  -2.5121  -2.4619  -2.4613  -2.4287  -2.4062
    -2.4060  -2.3821  -2.3816  -2.3705  -2.3694  -2.3595  -2.3378  -2.3368
    -2.2921  -2.2910  -2.2905  -2.2746  -2.2731  -2.2680  -2.2590  -2.2581
    -2.2568  -2.2560  -2.2497  -2.2379  -2.2366  -2.2295  -2.2012  -2.2009
    -2.1994  -2.1987  -2.1973  -2.1951  -2.1937  -2.1678  -2.1644  -2.1503
    -2.1501  -2.1320  -2.1309  -2.1218  -2.1215  -2.1211  -2.1192  -2.1005
    -2.0997  -2.0983  -2.0973  -2.0800  -2.0547  -2.0538  -2.0149  -2.0125
    -1.9894  -1.9881  -1.9616  -1.9599  -1.9340  -1.9332  -1.9171  -1.9114
    -1.8847  -1.8646  -1.8627  -1.8580  -1.8553  -1.8524  -1.8458  -1.8425
    -1.8182  -1.8111  -1.8022  -1.7468  -1.7434  -1.7405  -1.7391  -1.7374
    -1.7033  -1.6830  -1.6814  -1.6550  -1.6532  -1.5943  -1.5934  -1.5646
    -1.5474  -1.5432  -1.4864  -1.4850  -1.4740  -1.4730  -1.4625  -1.4617
    -1.4579  -1.4502  -1.4492  -1.4035  -1.3918  -1.3827  -1.3811  -1.3789
    -1.3676  -1.3616  -1.3332  -1.3256  -1.3104  -1.3082  -1.3076  -1.3004
    -1.2988  -1.2901  -1.2866  -1.2681  -1.2664  -1.2476  -1.2239  -1.2176
    -1.2134  -1.1981  -1.1839  -1.1757  -1.1359  -1.1294  -1.1088  -1.1048
    -1.0998  -1.0746  -1.0242  -1.0221  -1.0217  -1.0199  -1.0158  -1.0126
    -1.0043  -0.9868  -0.9856  -0.9468  -0.9459  -0.9164  -0.9152  -0.9102
    -0.9089  -0.9025  -0.8863  -0.8858  -0.8844  -0.8821  -0.8801  -0.8463
    -0.8423  -0.8413  -0.8385  -0.8109  -0.8095  -0.8054  -0.7829  -0.7747
    -0.7726  -0.7283  -0.7220  -0.7178  -0.6859  -0.6775  -0.6671  -0.6667
    -0.6594  -0.6590  -0.6577  -0.6532  -0.6457  -0.6414  -0.6195  -0.6181
    -0.6155  -0.6143  -0.6114  -0.5762  -0.5755  -0.5662  -0.5629  -0.5487
    -0.5428  -0.5384  -0.5294  -0.4744  -0.4723  -0.4639  -0.4634  -0.4623
    -0.4609  -0.4554  -0.4381  -0.4345  -0.4283  -0.4277  -0.4262  -0.4221
    -0.3864  -0.3845  -0.3834  -0.3762  -0.3743  -0.3698  -0.3682  -0.3571
    -0.3516  -0.3493  -0.3423  -0.3070  -0.3058  -0.2982  -0.2944  -0.2933
    -0.2172  -0.2164  -0.2141  -0.2125  -0.2047  -0.2028  -0.1677  -0.1555
    -0.1546  -0.1294  -0.1231  -0.1128  -0.0029   0.0009   0.1010   0.5164
     0.5171   0.5192   0.5200   0.5772   0.5893   0.9690   0.9696   1.0109
     1.0133   1.1218   1.2028   1.3083   1.3204   1.5261   1.5488   2.1640
     2.1706   2.3247   2.3345   2.4550   2.4711   2.5647   2.5661   2.7195
     2.9556   2.9572   3.0812   3.3003   3.3125   3.3874   3.3906   3.4881
     3.5047   3.6850   3.6973   3.7609   3.9617   3.9623   4.0205   4.0304
     4.2806   4.2829   4.2979   4.5324   4.5710   4.5765   4.6199   4.9529
     4.9573   4.9840   5.0484   5.1198   5.2919   5.2936   5.3299   5.3793
     5.7287   5.9172   6.0685   6.0784   6.0826   6.0987   6.1528   6.1550
     6.2105   6.2615   6.2880   6.3122   6.3128   6.3201   6.3273   6.3652
     6.3756   6.4059   6.4795   6.5940   6.7174   6.7536   6.9177   6.9785
     7.0176   7.0222   7.0349

          k =-0.5000 0.0000 0.1111 (136853 PWs)   bands (ev):

   -19.2173  -7.0172  -6.1981  -5.8003  -5.7972  -5.1223  -4.7882  -4.7865
    -4.7518  -4.7474  -4.3876  -4.3862  -4.2886  -4.2881  -4.2741  -4.2528
    -4.2299  -4.1216  -4.1201  -4.0967  -4.0530  -4.0527  -3.9852  -3.9839
    -3.9810  -3.9779  -3.9557  -3.9520  -3.9488  -3.8846  -3.8777  -3.8484
    -3.8465  -3.8358  -3.8354  -3.8126  -3.8119  -3.7898  -3.7817  -3.7807
    -3.7570  -3.7032  -3.7018  -3.6561  -3.6527  -3.6018  -3.5952  -3.5602
    -3.5403  -3.5396  -3.5393  -3.5066  -3.4917  -3.4656  -3.4607  -3.4581
    -3.4574  -3.4515  -3.4276  -3.4192  -3.4115  -3.3563  -3.3546  -3.3446
    -3.3276  -3.3209  -3.2510  -3.2443  -3.2178  -3.2145  -3.1885  -3.1884
    -3.1751  -3.1566  -3.0989  -3.0973  -3.0811  -3.0796  -3.0293  -3.0244
    -3.0238  -2.9856  -2.9553  -2.9537  -2.9452  -2.9440  -2.9324  -2.9312
    -2.9246  -2.9244  -2.9142  -2.8731  -2.8358  -2.8347  -2.8214  -2.8206
    -2.7950  -2.7854  -2.7851  -2.7615  -2.7181  -2.7177  -2.7098  -2.6704
    -2.6632  -2.6523  -2.6508  -2.6235  -2.6227  -2.5929  -2.5563  -2.5555
    -2.5338  -2.5261  -2.5128  -2.5121  -2.4619  -2.4613  -2.4287  -2.4062
    -2.4060  -2.3821  -2.3816  -2.3705  -2.3694  -2.3595  -2.3378  -2.3368
    -2.2921  -2.2910  -2.2905  -2.2746  -2.2731  -2.2680  -2.2590  -2.2581
    -2.2568  -2.2560  -2.2497  -2.2379  -2.2366  -2.2295  -2.2012  -2.2009
    -2.1994  -2.1987  -2.1973  -2.1951  -2.1937  -2.1678  -2.1644  -2.1503
    -2.1501  -2.1320  -2.1309  -2.1218  -2.1215  -2.1211  -2.1192  -2.1005
    -2.0997  -2.0983  -2.0973  -2.0800  -2.0547  -2.0538  -2.0149  -2.0125
    -1.9894  -1.9881  -1.9616  -1.9599  -1.9340  -1.9332  -1.9171  -1.9114
    -1.8847  -1.8646  -1.8627  -1.8580  -1.8553  -1.8524  -1.8458  -1.8425
    -1.8182  -1.8111  -1.8022  -1.7468  -1.7434  -1.7405  -1.7391  -1.7374
    -1.7033  -1.6830  -1.6814  -1.6550  -1.6532  -1.5943  -1.5934  -1.5646
    -1.5474  -1.5432  -1.4864  -1.4850  -1.4740  -1.4730  -1.4625  -1.4617
    -1.4579  -1.4502  -1.4492  -1.4035  -1.3918  -1.3827  -1.3811  -1.3789
    -1.3676  -1.3616  -1.3332  -1.3256  -1.3104  -1.3082  -1.3076  -1.3004
    -1.2988  -1.2901  -1.2866  -1.2681  -1.2664  -1.2476  -1.2239  -1.2176
    -1.2134  -1.1981  -1.1839  -1.1757  -1.1359  -1.1294  -1.1088  -1.1048
    -1.0998  -1.0746  -1.0242  -1.0221  -1.0217  -1.0199  -1.0158  -1.0126
    -1.0043  -0.9868  -0.9856  -0.9468  -0.9459  -0.9164  -0.9152  -0.9102
    -0.9089  -0.9025  -0.8863  -0.8858  -0.8844  -0.8821  -0.8801  -0.8463
    -0.8423  -0.8413  -0.8385  -0.8109  -0.8095  -0.8054  -0.7829  -0.7747
    -0.7726  -0.7283  -0.7220  -0.7178  -0.6859  -0.6775  -0.6671  -0.6667
    -0.6594  -0.6590  -0.6577  -0.6532  -0.6457  -0.6414  -0.6195  -0.6181
    -0.6155  -0.6143  -0.6114  -0.5762  -0.5755  -0.5662  -0.5629  -0.5487
    -0.5428  -0.5384  -0.5294  -0.4744  -0.4723  -0.4639  -0.4634  -0.4623
    -0.4609  -0.4554  -0.4381  -0.4345  -0.4283  -0.4277  -0.4262  -0.4221
    -0.3864  -0.3845  -0.3834  -0.3762  -0.3743  -0.3698  -0.3682  -0.3571
    -0.3516  -0.3493  -0.3423  -0.3070  -0.3058  -0.2982  -0.2944  -0.2933
    -0.2172  -0.2164  -0.2141  -0.2125  -0.2047  -0.2028  -0.1677  -0.1555
    -0.1546  -0.1294  -0.1231  -0.1128  -0.0029   0.0009   0.1010   0.5164
     0.5171   0.5192   0.5200   0.5772   0.5893   0.9690   0.9696   1.0109
     1.0133   1.1218   1.2028   1.3083   1.3204   1.5261   1.5488   2.1640
     2.1706   2.3247   2.3345   2.4550   2.4711   2.5647   2.5661   2.7195
     2.9556   2.9572   3.0812   3.3003   3.3125   3.3874   3.3906   3.4881
     3.5047   3.6850   3.6973   3.7609   3.9617   3.9623   4.0205   4.0304
     4.2806   4.2829   4.2979   4.5324   4.5710   4.5765   4.6199   4.9529
     4.9573   4.9840   5.0484   5.1198   5.2919   5.2936   5.3299   5.3793
     5.7286   5.9173   6.0690   6.0784   6.0825   6.0985   6.1527   6.1550
     6.2105   6.2615   6.2880   6.3122   6.3127   6.3200   6.3273   6.3651
     6.3756   6.4056   6.4799   6.5928   6.7194   6.7525   6.9198   6.9778
     7.0173   7.0227   7.0344

          k =-0.2500 0.1443 0.1111 (136898 PWs)   bands (ev):

   -19.2173  -7.0172  -6.4081  -5.6160  -5.3261  -5.2658  -5.2655  -4.7273
    -4.7272  -4.5971  -4.5951  -4.4415  -4.4111  -4.3476  -4.3167  -4.3147
    -4.2807  -4.2804  -4.1517  -4.1100  -4.1098  -4.0509  -4.0314  -4.0295
    -3.9267  -3.9266  -3.8912  -3.8904  -3.8901  -3.8643  -3.8423  -3.8415
    -3.7421  -3.7347  -3.7345  -3.7150  -3.6994  -3.6970  -3.6864  -3.6848
    -3.6726  -3.6443  -3.6412  -3.6407  -3.6404  -3.6099  -3.6084  -3.5929
    -3.5904  -3.5800  -3.5494  -3.5330  -3.5212  -3.4966  -3.4877  -3.4819
    -3.4817  -3.4509  -3.4073  -3.4050  -3.3724  -3.3700  -3.3545  -3.3018
    -3.3012  -3.2866  -3.2799  -3.2554  -3.2551  -3.2544  -3.2502  -3.1010
    -3.0987  -3.0755  -3.0749  -3.0701  -3.0539  -3.0521  -3.0280  -3.0267
    -2.9780  -2.9767  -2.9618  -2.9608  -2.9406  -2.8930  -2.8926  -2.8730
    -2.8683  -2.8669  -2.8273  -2.8265  -2.8202  -2.8185  -2.8043  -2.8014
    -2.7644  -2.7637  -2.7424  -2.7422  -2.7391  -2.7377  -2.7346  -2.6592
    -2.6586  -2.6562  -2.6284  -2.6262  -2.5666  -2.5666  -2.5374  -2.5370
    -2.5240  -2.5230  -2.5174  -2.4886  -2.4885  -2.4783  -2.4612  -2.4363
    -2.4357  -2.4350  -2.4148  -2.4145  -2.4035  -2.4025  -2.4006  -2.3990
    -2.3909  -2.3448  -2.3131  -2.3128  -2.2968  -2.2831  -2.2768  -2.2766
    -2.2696  -2.2683  -2.2671  -2.2379  -2.2375  -2.2365  -2.2275  -2.2264
    -2.2106  -2.1833  -2.1825  -2.1823  -2.1814  -2.1787  -2.1352  -2.1041
    -2.1040  -2.1027  -2.0972  -2.0877  -2.0757  -2.0754  -2.0580  -2.0579
    -2.0251  -2.0235  -2.0231  -2.0048  -2.0040  -2.0038  -1.9710  -1.9706
    -1.9295  -1.9273  -1.9215  -1.9191  -1.9185  -1.9128  -1.9122  -1.9099
    -1.9090  -1.9040  -1.9024  -1.8865  -1.8859  -1.7603  -1.7593  -1.7269
    -1.7215  -1.7201  -1.7139  -1.7132  -1.6971  -1.6962  -1.6954  -1.6939
    -1.6903  -1.6682  -1.6631  -1.6617  -1.6541  -1.6487  -1.6448  -1.6256
    -1.6248  -1.5970  -1.5965  -1.5684  -1.5653  -1.5540  -1.5467  -1.5283
    -1.5267  -1.5247  -1.5067  -1.4940  -1.4932  -1.4868  -1.4863  -1.4616
    -1.4599  -1.4454  -1.4433  -1.4130  -1.4090  -1.4043  -1.3544  -1.3501
    -1.3425  -1.3376  -1.3330  -1.3105  -1.3078  -1.2795  -1.2752  -1.2741
    -1.2595  -1.2333  -1.2300  -1.2190  -1.2143  -1.2092  -1.1872  -1.1855
    -1.1674  -1.1559  -1.1537  -1.1498  -1.0910  -1.0900  -1.0784  -1.0766
    -1.0614  -1.0601  -1.0489  -1.0446  -1.0301  -1.0174  -0.9897  -0.9886
    -0.9768  -0.9470  -0.9403  -0.9371  -0.9275  -0.9272  -0.9257  -0.9213
    -0.9153  -0.9062  -0.8768  -0.8756  -0.8669  -0.8646  -0.8634  -0.8531
    -0.8397  -0.8224  -0.8153  -0.8008  -0.7933  -0.7064  -0.6935  -0.6879
    -0.6875  -0.6831  -0.6788  -0.6752  -0.6529  -0.6525  -0.6384  -0.6348
    -0.6227  -0.6200  -0.6134  -0.5940  -0.5912  -0.5883  -0.5825  -0.5101
    -0.5096  -0.4778  -0.4730  -0.4717  -0.4661  -0.4635  -0.4628  -0.4608
    -0.4512  -0.4465  -0.4305  -0.4082  -0.3932  -0.3750  -0.3733  -0.3637
    -0.3611  -0.3510  -0.3495  -0.3483  -0.3476  -0.3440  -0.3299  -0.3260
    -0.3225  -0.2948  -0.2937  -0.2905  -0.2805  -0.2796  -0.2611  -0.2295
    -0.2279  -0.2202  -0.2179  -0.1518  -0.1504  -0.1148  -0.1145  -0.0569
    -0.0554  -0.0550  -0.0394  -0.0270   0.1926   0.2094   0.5448   0.5450
     0.6310   0.6459   0.8272   0.8545   0.8633   0.9916   0.9952   1.4251
     1.4252   1.4431   1.7023   1.7350   1.7353   2.0037   2.0226   2.0901
     2.0916   2.1139   2.1282   2.3470   2.3475   2.4359   2.4368   2.5016
     2.5675   2.5902   2.7404   2.8392   3.2756   3.2782   3.2792   3.2887
     3.3354   3.3372   3.6289   3.6297   3.9045   3.9173   4.0029   4.3252
     4.3636   4.3725   4.5624   4.5766   4.6664   4.6720   4.7587   4.8752
     4.8835   4.9935   4.9971   5.0360   5.2987   5.3626   5.3740   5.5023
     5.5432   5.7534   5.7548   5.7663   5.7823   5.7844   5.8420   5.8452
     5.8990   6.0302   6.2085   6.2662   6.4439   6.4539   6.5856   6.5880
     6.5927   6.5978   6.6248   6.7465   6.8145   6.8390   6.8465   6.9794
     7.0162   7.0451   7.0722

          k =-0.2500-0.1443-0.1111 (136898 PWs)   bands (ev):

   -19.2173  -7.0172  -6.4081  -5.6160  -5.3261  -5.2657  -5.2656  -4.7272
    -4.7272  -4.5970  -4.5953  -4.4415  -4.4111  -4.3477  -4.3170  -4.3145
    -4.2806  -4.2804  -4.1517  -4.1100  -4.1098  -4.0508  -4.0316  -4.0294
    -3.9267  -3.9266  -3.8913  -3.8903  -3.8902  -3.8642  -3.8421  -3.8418
    -3.7421  -3.7347  -3.7344  -3.7149  -3.6994  -3.6970  -3.6867  -3.6848
    -3.6725  -3.6442  -3.6412  -3.6406  -3.6404  -3.6101  -3.6083  -3.5929
    -3.5903  -3.5798  -3.5498  -3.5328  -3.5213  -3.4967  -3.4874  -3.4819
    -3.4817  -3.4513  -3.4073  -3.4049  -3.3722  -3.3698  -3.3546  -3.3019
    -3.3013  -3.2863  -3.2799  -3.2553  -3.2550  -3.2547  -3.2505  -3.1008
    -3.0989  -3.0754  -3.0752  -3.0699  -3.0539  -3.0522  -3.0279  -3.0267
    -2.9780  -2.9768  -2.9617  -2.9608  -2.9405  -2.8928  -2.8927  -2.8729
    -2.8684  -2.8671  -2.8274  -2.8266  -2.8202  -2.8188  -2.8041  -2.8016
    -2.7641  -2.7635  -2.7428  -2.7419  -2.7390  -2.7378  -2.7345  -2.6591
    -2.6587  -2.6563  -2.6283  -2.6263  -2.5668  -2.5665  -2.5375  -2.5367
    -2.5237  -2.5229  -2.5174  -2.4886  -2.4884  -2.4784  -2.4610  -2.4363
    -2.4357  -2.4354  -2.4148  -2.4144  -2.4037  -2.4026  -2.4003  -2.3991
    -2.3909  -2.3447  -2.3133  -2.3130  -2.2967  -2.2833  -2.2770  -2.2765
    -2.2695  -2.2684  -2.2673  -2.2377  -2.2376  -2.2366  -2.2276  -2.2263
    -2.2105  -2.1835  -2.1824  -2.1817  -2.1815  -2.1789  -2.1354  -2.1043
    -2.1040  -2.1027  -2.0971  -2.0877  -2.0760  -2.0755  -2.0580  -2.0577
    -2.0250  -2.0233  -2.0230  -2.0049  -2.0044  -2.0038  -1.9708  -1.9702
    -1.9297  -1.9271  -1.9211  -1.9190  -1.9183  -1.9131  -1.9127  -1.9110
    -1.9082  -1.9040  -1.9020  -1.8868  -1.8857  -1.7609  -1.7591  -1.7259
    -1.7222  -1.7194  -1.7141  -1.7130  -1.6986  -1.6961  -1.6942  -1.6935
    -1.6899  -1.6682  -1.6651  -1.6614  -1.6530  -1.6490  -1.6438  -1.6269
    -1.6248  -1.5986  -1.5971  -1.5654  -1.5650  -1.5540  -1.5459  -1.5282
    -1.5266  -1.5246  -1.5067  -1.4952  -1.4933  -1.4877  -1.4862  -1.4600
    -1.4595  -1.4483  -1.4433  -1.4169  -1.4081  -1.4010  -1.3554  -1.3500
    -1.3401  -1.3375  -1.3318  -1.3108  -1.3076  -1.2859  -1.2751  -1.2726
    -1.2497  -1.2399  -1.2291  -1.2148  -1.2137  -1.2087  -1.1887  -1.1842
    -1.1774  -1.1559  -1.1538  -1.1475  -1.0911  -1.0888  -1.0771  -1.0752
    -1.0608  -1.0596  -1.0481  -1.0475  -1.0294  -1.0169  -0.9897  -0.9886
    -0.9776  -0.9492  -0.9389  -0.9379  -0.9276  -0.9273  -0.9262  -0.9196
    -0.9181  -0.9061  -0.8767  -0.8761  -0.8652  -0.8648  -0.8600  -0.8566
    -0.8393  -0.8189  -0.8167  -0.7995  -0.7938  -0.7067  -0.6934  -0.6878
    -0.6877  -0.6835  -0.6780  -0.6754  -0.6540  -0.6526  -0.6373  -0.6358
    -0.6225  -0.6209  -0.6134  -0.5929  -0.5909  -0.5900  -0.5824  -0.5102
    -0.5098  -0.4768  -0.4745  -0.4716  -0.4657  -0.4639  -0.4624  -0.4613
    -0.4510  -0.4456  -0.4312  -0.4081  -0.3934  -0.3745  -0.3738  -0.3636
    -0.3614  -0.3511  -0.3493  -0.3484  -0.3475  -0.3442  -0.3297  -0.3260
    -0.3227  -0.2946  -0.2940  -0.2900  -0.2806  -0.2795  -0.2611  -0.2294
    -0.2280  -0.2199  -0.2180  -0.1521  -0.1503  -0.1151  -0.1142  -0.0569
    -0.0559  -0.0544  -0.0403  -0.0270   0.1955   0.2075   0.5449   0.5449
     0.6336   0.6443   0.8243   0.8547   0.8639   0.9923   0.9944   1.4251
     1.4254   1.4427   1.7026   1.7350   1.7355   2.0073   2.0191   2.0907
     2.0912   2.1160   2.1261   2.3465   2.3484   2.4362   2.4365   2.5023
     2.5704   2.5861   2.7399   2.8401   3.2755   3.2777   3.2804   3.2875
     3.3363   3.3377   3.6290   3.6298   3.9067   3.9158   4.0048   4.3251
     4.3648   4.3710   4.5532   4.5752   4.6667   4.6703   4.7614   4.8748
     4.8797   4.9946   4.9977   5.0500   5.2987   5.3608   5.3745   5.5178
     5.5361   5.7453   5.7545   5.7585   5.7827   5.7850   5.8419   5.8484
     5.8739   5.9906   6.2418   6.3432   6.4347   6.4567   6.5813   6.5882
     6.5897   6.5995   6.6131   6.6885   6.8404   6.8435   6.9108   6.9618
     6.9939   7.0544   7.0605

          k = 0.2500 0.1443-0.1111 (136898 PWs)   bands (ev):

   -19.2173  -7.0172  -6.4081  -5.6160  -5.3261  -5.2657  -5.2656  -4.7272
    -4.7272  -4.5970  -4.5953  -4.4415  -4.4111  -4.3477  -4.3170  -4.3145
    -4.2806  -4.2804  -4.1517  -4.1100  -4.1098  -4.0508  -4.0316  -4.0294
    -3.9267  -3.9266  -3.8913  -3.8903  -3.8902  -3.8642  -3.8421  -3.8418
    -3.7421  -3.7347  -3.7344  -3.7149  -3.6994  -3.6970  -3.6867  -3.6848
    -3.6725  -3.6442  -3.6412  -3.6406  -3.6404  -3.6101  -3.6083  -3.5929
    -3.5903  -3.5798  -3.5498  -3.5328  -3.5213  -3.4967  -3.4874  -3.4819
    -3.4817  -3.4513  -3.4073  -3.4049  -3.3722  -3.3698  -3.3546  -3.3019
    -3.3013  -3.2863  -3.2799  -3.2553  -3.2550  -3.2547  -3.2505  -3.1008
    -3.0989  -3.0754  -3.0752  -3.0699  -3.0539  -3.0522  -3.0279  -3.0267
    -2.9780  -2.9768  -2.9617  -2.9608  -2.9405  -2.8928  -2.8927  -2.8729
    -2.8684  -2.8671  -2.8274  -2.8266  -2.8202  -2.8188  -2.8041  -2.8016
    -2.7641  -2.7636  -2.7428  -2.7419  -2.7390  -2.7378  -2.7345  -2.6591
    -2.6587  -2.6563  -2.6283  -2.6263  -2.5668  -2.5665  -2.5375  -2.5367
    -2.5237  -2.5229  -2.5174  -2.4886  -2.4884  -2.4784  -2.4610  -2.4363
    -2.4357  -2.4354  -2.4148  -2.4144  -2.4037  -2.4026  -2.4003  -2.3991
    -2.3909  -2.3447  -2.3133  -2.3130  -2.2967  -2.2833  -2.2770  -2.2765
    -2.2695  -2.2684  -2.2673  -2.2377  -2.2376  -2.2366  -2.2276  -2.2263
    -2.2105  -2.1835  -2.1824  -2.1817  -2.1815  -2.1789  -2.1354  -2.1043
    -2.1040  -2.1027  -2.0971  -2.0877  -2.0760  -2.0755  -2.0580  -2.0577
    -2.0250  -2.0233  -2.0229  -2.0049  -2.0044  -2.0038  -1.9708  -1.9702
    -1.9297  -1.9271  -1.9211  -1.9190  -1.9183  -1.9131  -1.9127  -1.9110
    -1.9082  -1.9040  -1.9020  -1.8868  -1.8857  -1.7609  -1.7591  -1.7259
    -1.7222  -1.7194  -1.7141  -1.7130  -1.6986  -1.6961  -1.6942  -1.6935
    -1.6899  -1.6682  -1.6651  -1.6614  -1.6530  -1.6490  -1.6438  -1.6269
    -1.6248  -1.5986  -1.5971  -1.5654  -1.5650  -1.5540  -1.5459  -1.5282
    -1.5266  -1.5246  -1.5067  -1.4952  -1.4933  -1.4877  -1.4862  -1.4600
    -1.4595  -1.4483  -1.4433  -1.4169  -1.4081  -1.4010  -1.3554  -1.3500
    -1.3401  -1.3375  -1.3318  -1.3108  -1.3076  -1.2859  -1.2751  -1.2726
    -1.2497  -1.2399  -1.2291  -1.2148  -1.2137  -1.2087  -1.1887  -1.1842
    -1.1774  -1.1559  -1.1538  -1.1475  -1.0911  -1.0888  -1.0771  -1.0752
    -1.0608  -1.0596  -1.0481  -1.0475  -1.0294  -1.0169  -0.9897  -0.9886
    -0.9776  -0.9492  -0.9389  -0.9379  -0.9276  -0.9273  -0.9262  -0.9196
    -0.9181  -0.9061  -0.8767  -0.8761  -0.8652  -0.8648  -0.8600  -0.8566
    -0.8393  -0.8189  -0.8167  -0.7995  -0.7938  -0.7067  -0.6934  -0.6878
    -0.6877  -0.6835  -0.6780  -0.6754  -0.6540  -0.6526  -0.6373  -0.6358
    -0.6225  -0.6209  -0.6134  -0.5929  -0.5909  -0.5900  -0.5824  -0.5102
    -0.5098  -0.4768  -0.4745  -0.4716  -0.4657  -0.4639  -0.4624  -0.4613
    -0.4510  -0.4456  -0.4312  -0.4081  -0.3934  -0.3745  -0.3738  -0.3636
    -0.3614  -0.3511  -0.3493  -0.3484  -0.3475  -0.3442  -0.3297  -0.3260
    -0.3227  -0.2946  -0.2940  -0.2900  -0.2806  -0.2795  -0.2611  -0.2294
    -0.2280  -0.2199  -0.2180  -0.1521  -0.1503  -0.1151  -0.1142  -0.0569
    -0.0559  -0.0544  -0.0403  -0.0270   0.1955   0.2075   0.5449   0.5449
     0.6336   0.6443   0.8243   0.8548   0.8639   0.9923   0.9944   1.4251
     1.4254   1.4427   1.7026   1.7350   1.7355   2.0073   2.0191   2.0907
     2.0912   2.1160   2.1261   2.3465   2.3484   2.4362   2.4365   2.5023
     2.5704   2.5861   2.7399   2.8401   3.2755   3.2777   3.2804   3.2875
     3.3363   3.3377   3.6290   3.6297   3.9067   3.9158   4.0048   4.3251
     4.3648   4.3710   4.5532   4.5752   4.6667   4.6703   4.7614   4.8748
     4.8797   4.9946   4.9977   5.0500   5.2987   5.3608   5.3745   5.5178
     5.5361   5.7454   5.7545   5.7581   5.7827   5.7851   5.8419   5.8484
     5.8740   5.9913   6.2418   6.3425   6.4332   6.4556   6.5796   6.5879
     6.5897   6.5995   6.6130   6.6899   6.8404   6.8434   6.9130   6.9638
     6.9994   7.0550   7.0624

          k = 0.0000-0.2887 0.1111 (136898 PWs)   bands (ev):

   -19.2173  -7.0172  -6.4081  -5.6160  -5.3261  -5.2658  -5.2656  -4.7272
    -4.7272  -4.5973  -4.5950  -4.4415  -4.4111  -4.3477  -4.3169  -4.3147
    -4.2806  -4.2804  -4.1517  -4.1100  -4.1098  -4.0508  -4.0315  -4.0295
    -3.9266  -3.9266  -3.8912  -3.8904  -3.8902  -3.8643  -3.8423  -3.8415
    -3.7420  -3.7347  -3.7345  -3.7149  -3.6995  -3.6970  -3.6865  -3.6849
    -3.6726  -3.6444  -3.6412  -3.6406  -3.6404  -3.6100  -3.6083  -3.5930
    -3.5903  -3.5797  -3.5495  -3.5330  -3.5213  -3.4968  -3.4876  -3.4818
    -3.4817  -3.4508  -3.4073  -3.4051  -3.3723  -3.3699  -3.3545  -3.3019
    -3.3013  -3.2864  -3.2798  -3.2553  -3.2550  -3.2546  -3.2505  -3.1010
    -3.0988  -3.0754  -3.0751  -3.0700  -3.0539  -3.0522  -3.0281  -3.0265
    -2.9781  -2.9767  -2.9618  -2.9608  -2.9404  -2.8930  -2.8924  -2.8730
    -2.8684  -2.8671  -2.8273  -2.8265  -2.8203  -2.8186  -2.8043  -2.8016
    -2.7642  -2.7635  -2.7425  -2.7421  -2.7390  -2.7376  -2.7345  -2.6592
    -2.6586  -2.6564  -2.6284  -2.6262  -2.5668  -2.5664  -2.5373  -2.5369
    -2.5238  -2.5228  -2.5174  -2.4886  -2.4883  -2.4784  -2.4610  -2.4365
    -2.4357  -2.4353  -2.4148  -2.4144  -2.4038  -2.4028  -2.4004  -2.3989
    -2.3909  -2.3447  -2.3132  -2.3130  -2.2967  -2.2833  -2.2769  -2.2766
    -2.2696  -2.2683  -2.2673  -2.2377  -2.2375  -2.2365  -2.2273  -2.2266
    -2.2105  -2.1832  -2.1828  -2.1822  -2.1812  -2.1789  -2.1354  -2.1042
    -2.1040  -2.1027  -2.0972  -2.0877  -2.0757  -2.0754  -2.0579  -2.0577
    -2.0250  -2.0234  -2.0230  -2.0048  -2.0042  -2.0038  -1.9710  -1.9703
    -1.9295  -1.9272  -1.9213  -1.9191  -1.9184  -1.9129  -1.9125  -1.9102
    -1.9088  -1.9040  -1.9022  -1.8867  -1.8858  -1.7607  -1.7590  -1.7265
    -1.7219  -1.7197  -1.7139  -1.7131  -1.6982  -1.6960  -1.6950  -1.6937
    -1.6900  -1.6682  -1.6639  -1.6612  -1.6539  -1.6486  -1.6444  -1.6262
    -1.6249  -1.5978  -1.5966  -1.5673  -1.5652  -1.5539  -1.5464  -1.5283
    -1.5267  -1.5245  -1.5067  -1.4944  -1.4934  -1.4873  -1.4862  -1.4609
    -1.4597  -1.4466  -1.4431  -1.4149  -1.4084  -1.4032  -1.3550  -1.3501
    -1.3417  -1.3374  -1.3327  -1.3108  -1.3076  -1.2819  -1.2752  -1.2734
    -1.2563  -1.2355  -1.2293  -1.2176  -1.2140  -1.2089  -1.1876  -1.1852
    -1.1708  -1.1559  -1.1538  -1.1489  -1.0912  -1.0895  -1.0773  -1.0767
    -1.0612  -1.0602  -1.0487  -1.0452  -1.0296  -1.0172  -0.9898  -0.9886
    -0.9771  -0.9478  -0.9396  -0.9373  -0.9277  -0.9273  -0.9260  -0.9209
    -0.9162  -0.9061  -0.8767  -0.8759  -0.8661  -0.8649  -0.8625  -0.8540
    -0.8396  -0.8213  -0.8157  -0.8003  -0.7935  -0.7064  -0.6935  -0.6878
    -0.6876  -0.6831  -0.6787  -0.6753  -0.6533  -0.6525  -0.6380  -0.6351
    -0.6227  -0.6204  -0.6135  -0.5936  -0.5912  -0.5887  -0.5826  -0.5101
    -0.5097  -0.4775  -0.4735  -0.4717  -0.4660  -0.4636  -0.4627  -0.4609
    -0.4513  -0.4461  -0.4308  -0.4081  -0.3934  -0.3749  -0.3735  -0.3637
    -0.3612  -0.3510  -0.3494  -0.3483  -0.3476  -0.3440  -0.3298  -0.3260
    -0.3227  -0.2947  -0.2936  -0.2904  -0.2805  -0.2796  -0.2611  -0.2295
    -0.2279  -0.2201  -0.2179  -0.1520  -0.1504  -0.1150  -0.1143  -0.0570
    -0.0556  -0.0548  -0.0399  -0.0269   0.1936   0.2090   0.5448   0.5450
     0.6319   0.6453   0.8263   0.8549   0.8631   0.9918   0.9949   1.4251
     1.4253   1.4431   1.7024   1.7351   1.7353   2.0049   2.0215   2.0903
     2.0915   2.1145   2.1276   2.3469   2.3476   2.4360   2.4367   2.5018
     2.5685   2.5887   2.7402   2.8396   3.2755   3.2782   3.2795   3.2885
     3.3359   3.3372   3.6290   3.6297   3.9050   3.9168   4.0037   4.3252
     4.3638   4.3719   4.5645   4.5707   4.6665   4.6713   4.7601   4.8748
     4.8827   4.9937   4.9978   5.0398   5.2986   5.3624   5.3739   5.5078
     5.5411   5.7525   5.7544   5.7634   5.7824   5.7850   5.8415   5.8462
     5.8887   6.0090   6.2520   6.2631   6.4415   6.4553   6.5850   6.5884
     6.5923   6.5986   6.6221   6.7305   6.8357   6.8417   6.8463   6.9748
     7.0062   7.0467   7.0714

          k = 0.0000 0.2887 0.1111 (136898 PWs)   bands (ev):

   -19.2173  -7.0172  -6.4081  -5.6160  -5.3261  -5.2658  -5.2656  -4.7272
    -4.7272  -4.5973  -4.5950  -4.4415  -4.4111  -4.3477  -4.3169  -4.3147
    -4.2806  -4.2804  -4.1517  -4.1100  -4.1098  -4.0508  -4.0315  -4.0295
    -3.9266  -3.9266  -3.8912  -3.8904  -3.8902  -3.8643  -3.8423  -3.8415
    -3.7420  -3.7347  -3.7345  -3.7149  -3.6995  -3.6970  -3.6865  -3.6849
    -3.6725  -3.6444  -3.6412  -3.6406  -3.6404  -3.6100  -3.6083  -3.5930
    -3.5903  -3.5797  -3.5495  -3.5330  -3.5213  -3.4968  -3.4876  -3.4818
    -3.4817  -3.4507  -3.4073  -3.4051  -3.3723  -3.3699  -3.3545  -3.3019
    -3.3013  -3.2864  -3.2798  -3.2553  -3.2550  -3.2546  -3.2505  -3.1010
    -3.0988  -3.0754  -3.0751  -3.0700  -3.0539  -3.0522  -3.0281  -3.0265
    -2.9781  -2.9767  -2.9618  -2.9608  -2.9404  -2.8930  -2.8924  -2.8730
    -2.8684  -2.8671  -2.8273  -2.8265  -2.8203  -2.8186  -2.8043  -2.8016
    -2.7642  -2.7635  -2.7425  -2.7421  -2.7390  -2.7376  -2.7345  -2.6592
    -2.6586  -2.6564  -2.6284  -2.6262  -2.5668  -2.5664  -2.5373  -2.5369
    -2.5238  -2.5229  -2.5174  -2.4886  -2.4883  -2.4784  -2.4610  -2.4365
    -2.4357  -2.4353  -2.4148  -2.4144  -2.4038  -2.4028  -2.4004  -2.3989
    -2.3909  -2.3447  -2.3132  -2.3130  -2.2967  -2.2833  -2.2769  -2.2766
    -2.2696  -2.2683  -2.2673  -2.2377  -2.2375  -2.2365  -2.2273  -2.2266
    -2.2105  -2.1832  -2.1828  -2.1822  -2.1812  -2.1789  -2.1354  -2.1042
    -2.1040  -2.1027  -2.0972  -2.0877  -2.0757  -2.0754  -2.0579  -2.0577
    -2.0250  -2.0234  -2.0230  -2.0048  -2.0042  -2.0038  -1.9710  -1.9703
    -1.9295  -1.9272  -1.9213  -1.9191  -1.9184  -1.9129  -1.9125  -1.9102
    -1.9088  -1.9040  -1.9022  -1.8867  -1.8858  -1.7607  -1.7590  -1.7265
    -1.7219  -1.7197  -1.7139  -1.7131  -1.6982  -1.6960  -1.6950  -1.6937
    -1.6900  -1.6682  -1.6639  -1.6612  -1.6539  -1.6486  -1.6444  -1.6262
    -1.6249  -1.5978  -1.5966  -1.5673  -1.5652  -1.5539  -1.5464  -1.5283
    -1.5267  -1.5245  -1.5067  -1.4944  -1.4934  -1.4873  -1.4862  -1.4609
    -1.4597  -1.4466  -1.4431  -1.4149  -1.4084  -1.4032  -1.3550  -1.3501
    -1.3417  -1.3374  -1.3327  -1.3108  -1.3076  -1.2819  -1.2752  -1.2734
    -1.2563  -1.2355  -1.2293  -1.2176  -1.2140  -1.2089  -1.1876  -1.1852
    -1.1708  -1.1559  -1.1538  -1.1489  -1.0912  -1.0895  -1.0773  -1.0767
    -1.0612  -1.0602  -1.0487  -1.0452  -1.0296  -1.0172  -0.9898  -0.9886
    -0.9771  -0.9478  -0.9396  -0.9373  -0.9277  -0.9273  -0.9260  -0.9209
    -0.9162  -0.9061  -0.8767  -0.8759  -0.8661  -0.8649  -0.8625  -0.8540
    -0.8396  -0.8213  -0.8157  -0.8003  -0.7935  -0.7064  -0.6935  -0.6878
    -0.6876  -0.6831  -0.6787  -0.6753  -0.6533  -0.6525  -0.6380  -0.6351
    -0.6227  -0.6204  -0.6135  -0.5936  -0.5912  -0.5887  -0.5826  -0.5101
    -0.5097  -0.4775  -0.4735  -0.4717  -0.4660  -0.4636  -0.4627  -0.4609
    -0.4513  -0.4461  -0.4308  -0.4081  -0.3934  -0.3749  -0.3735  -0.3637
    -0.3612  -0.3510  -0.3494  -0.3483  -0.3476  -0.3440  -0.3298  -0.3260
    -0.3227  -0.2947  -0.2936  -0.2904  -0.2805  -0.2796  -0.2611  -0.2295
    -0.2279  -0.2201  -0.2179  -0.1520  -0.1504  -0.1150  -0.1143  -0.0570
    -0.0556  -0.0548  -0.0399  -0.0270   0.1936   0.2090   0.5448   0.5450
     0.6319   0.6453   0.8263   0.8549   0.8631   0.9918   0.9949   1.4251
     1.4253   1.4431   1.7024   1.7351   1.7353   2.0049   2.0215   2.0903
     2.0915   2.1145   2.1276   2.3469   2.3476   2.4360   2.4367   2.5018
     2.5685   2.5887   2.7402   2.8396   3.2755   3.2782   3.2795   3.2885
     3.3359   3.3372   3.6290   3.6297   3.9050   3.9168   4.0037   4.3252
     4.3638   4.3719   4.5645   4.5707   4.6665   4.6713   4.7601   4.8748
     4.8827   4.9937   4.9978   5.0398   5.2986   5.3624   5.3739   5.5078
     5.5411   5.7527   5.7545   5.7632   5.7824   5.7850   5.8415   5.8462
     5.8889   6.0088   6.2525   6.2624   6.4420   6.4546   6.5842   6.5884
     6.5912   6.5986   6.6212   6.7296   6.8361   6.8418   6.8462   6.9788
     7.0104   7.0476   7.0734

     the Fermi energy is     1.5688 ev

!    total energy              =   -6604.43613681 Ry
     Harris-Foulkes estimate   =   -6604.43613679 Ry
     estimated scf accuracy    <          2.7E-09 Ry

     The total energy is the sum of the following terms:

     one-electron contribution =  -48654.23023043 Ry
     hartree contribution      =   24831.60901410 Ry
     xc contribution           =   -3204.96895875 Ry
     ewald contribution        =   20423.15119461 Ry
     smearing contrib. (-TS)   =       0.00284366 Ry

     convergence has been achieved in  25 iterations

     Writing output data file 7721285.save

     init_run     :    137.26s CPU    147.49s WALL (       1 calls)
     electrons    :   8030.12s CPU   8585.85s WALL (       1 calls)

     Called by init_run:
     wfcinit      :    107.66s CPU    117.22s WALL (       1 calls)
     potinit      :      8.12s CPU      8.53s WALL (       1 calls)

     Called by electrons:
     c_bands      :   6969.38s CPU   7423.49s WALL (      26 calls)
     sum_band     :    839.20s CPU    928.01s WALL (      26 calls)
     v_of_rho     :     71.37s CPU     80.96s WALL (      26 calls)
     newd         :    157.83s CPU    160.76s WALL (      26 calls)
     mix_rho      :      1.97s CPU      2.27s WALL (      26 calls)
     vdW_energy   :      7.02s CPU      7.90s WALL (      26 calls)
     vdW_ffts     :     34.02s CPU     38.48s WALL (      52 calls)
     vdW_v        :      9.11s CPU      9.87s WALL (      26 calls)

     Called by c_bands:
     init_us_2    :     17.39s CPU     17.69s WALL (     636 calls)
     cegterg      :   6885.46s CPU   7333.53s WALL (     312 calls)

     Called by *egterg:
     h_psi        :   2831.82s CPU   3222.89s WALL (    1847 calls)
     s_psi        :    445.20s CPU    448.12s WALL (    1847 calls)
     g_psi        :      6.10s CPU      6.12s WALL (    1523 calls)
     cdiaghg      :   2303.41s CPU   2309.03s WALL (    1823 calls)

     Called by h_psi:
     add_vuspsi   :    446.98s CPU    449.54s WALL (    1847 calls)

     General routines
     calbec       :    614.30s CPU    616.72s WALL (    2159 calls)
     fft          :     69.23s CPU     77.51s WALL (    1716 calls)
     ffts         :      0.83s CPU      1.02s WALL (      52 calls)
     fftw         :   2125.24s CPU   2534.94s WALL (  748390 calls)
     interpolate  :      2.43s CPU      2.99s WALL (      52 calls)
     davcio       :      0.01s CPU      0.28s WALL (      12 calls)

     Parallel routines
     fft_scatter  :   1452.98s CPU   1704.14s WALL (  750158 calls)

     PWSCF        :     2h16m CPU        2h26m WALL


   This run was terminated on:  16:57:13  23Jun2015            

=------------------------------------------------------------------------------=
   JOB DONE.
=------------------------------------------------------------------------------=
