
     Program PWSCF v.5.1.2 starts on 29Aug2015 at 18:33:24 

     This program is part of the open-source Quantum ESPRESSO suite
     for quantum simulation of materials; please cite
         "P. Giannozzi et al., J. Phys.:Condens. Matter 21 395502 (2009);
          URL http://www.quantum-espresso.org", 
     in publications or presentations arising from this work. More details at
     http://www.quantum-espresso.org/quote

     Parallel version (MPI), running on    32 processors
     R & G space division:  proc/nbgrp/npool/nimage =      32
     Reading input from top.O1.Au50.d.3.2.phi.0.psi.90.in
Warning: card &IONS ignored
Warning: card / ignored
Warning: card &CELL ignored
Warning: card / ignored

     Current dimensions of program PWSCF are:
     Max number of different atomic species (ntypx) = 10
     Max number of k-points (npk) =  40000
     Max angular momentum in pseudopotentials (lmaxx) =  3

     IMPORTANT: XC functional enforced from input :
     Exchange-correlation      = VDW-DF ( 1  4  4  0 1 0)
     Any further DFT definition will be discarded
     Please, verify this is what you really want


     Subspace diagonalization in iterative solution of the eigenvalue problem:
     a serial algorithm will be used


     Parallelization info
     --------------------
     sticks:   dense  smooth     PW     G-vecs:    dense   smooth      PW
     Min         445     223     58                96775    34191    4534
     Max         446     224     59                96790    34246    4540
     Sum       14269    7147   1867              3097177  1095093  145167


     Title: 
     top.O1.Au50.d.3.2.phi.0.psi.90                                             


     bravais-lattice index     =            4
     lattice parameter (alat)  =      22.7436  a.u.
     unit-cell volume          =   22924.1508 (a.u.)^3
     number of atoms/cell      =           67
     number of atomic types    =            3
     number of electrons       =       712.00
     number of Kohn-Sham states=          427
     kinetic-energy cutoff     =      50.0000  Ry
     charge density cutoff     =     400.0000  Ry
     convergence threshold     =      1.0E-08
     mixing beta               =       0.7000
     number of iterations used =            8  plain     mixing
     Exchange-correlation      = VDW-DF ( 1  4  4  0 1 0)

     celldm(1)=  22.743643  celldm(2)=   0.000000  celldm(3)=   2.250000
     celldm(4)=   0.000000  celldm(5)=   0.000000  celldm(6)=   0.000000

     crystal axes: (cart. coord. in units of alat)
               a(1) = (   1.000000   0.000000   0.000000 )  
               a(2) = (  -0.500000   0.866025   0.000000 )  
               a(3) = (   0.000000   0.000000   2.250000 )  

     reciprocal axes: (cart. coord. in units 2 pi/alat)
               b(1) = (  1.000000  0.577350 -0.000000 )  
               b(2) = (  0.000000  1.154701  0.000000 )  
               b(3) = (  0.000000 -0.000000  0.444444 )  


     PseudoPot. # 1 for Au read from file:
     /home/scc/andrejb/qe/pseudo/Au.pbe-nd-van.UPF
     MD5 check sum: 458681b50f36d87ef23c61b04bba420a
     Pseudo is Ultrasoft + core correction, Zval = 11.0
     Generated by new atomic code, or converted to UPF format
     Using radial grid of  985 points,  3 beta functions with: 
                l(1) =   1
                l(2) =   2
                l(3) =   2
     Q(r) pseudized with  8 coefficients,  rinner =    1.100   1.100   1.100
                                                       1.100   1.100

     PseudoPot. # 2 for H  read from file:
     /home/scc/andrejb/qe/pseudo/H.pbe-van_ak.UPF
     MD5 check sum: 403db7282739603aa925980fa9b8608d
     Pseudo is Ultrasoft, Zval =  1.0
     Generated by new atomic code, or converted to UPF format
     Using radial grid of  615 points,  1 beta functions with: 
                l(1) =   0
     Q(r) pseudized with  8 coefficients,  rinner =    0.800

     PseudoPot. # 3 for O  read from file:
     /home/scc/andrejb/qe/pseudo/O.pbe-van_ak.UPF
     MD5 check sum: 4b8c549914a63cae506c6ff22b5af4fe
     Pseudo is Ultrasoft, Zval =  6.0
     Generated by new atomic code, or converted to UPF format
     Using radial grid of  737 points,  4 beta functions with: 
                l(1) =   0
                l(2) =   0
                l(3) =   1
                l(4) =   1
     Q(r) pseudized with  8 coefficients,  rinner =    0.800   0.800   0.800


     vdW kernel table read from file vdW_kernel_table
     MD5 check sum: 48e77a2e26edf626eeb0eaa751ad5cac

     atomic species   valence    mass     pseudopotential
        Au            11.00   196.96657     Au( 1.00)
        H              1.00     1.01000     H ( 1.00)
        O              6.00    16.00000     O ( 1.00)

     No symmetry found



   Cartesian axes

     site n.     atom                  positions (alat units)
         1           O   tau(   1) = (   0.4790780   0.3968269   0.8788788  )
         2           H   tau(   2) = (   0.4291446   0.3485733   0.8373311  )
         3           H   tau(   3) = (   0.5274974   0.3460662   0.9191856  )
         4           Au  tau(   4) = (   0.3540481   0.6132292   0.0000000  )
         5           Au  tau(   5) = (   0.4790062   0.3967954   0.0000000  )
         6           Au  tau(   6) = (   0.6039644   0.1803616   0.0000000  )
         7           Au  tau(   7) = (   0.7289225  -0.0360723   0.0000000  )
         8           Au  tau(   8) = (   0.1041318   0.6132292   0.0000000  )
         9           Au  tau(   9) = (   0.2290899   0.3967954   0.0000000  )
        10           Au  tau(  10) = (   0.3540481   0.1803616   0.0000000  )
        11           Au  tau(  11) = (   0.4790062  -0.0360723   0.0000000  )
        12           Au  tau(  12) = (  -0.1457845   0.6132292   0.0000000  )
        13           Au  tau(  13) = (  -0.0208264   0.3967954   0.0000000  )
        14           Au  tau(  14) = (   0.1041318   0.1803616   0.0000000  )
        15           Au  tau(  15) = (   0.2290899  -0.0360723   0.0000000  )
        16           Au  tau(  16) = (  -0.3957008   0.6132292   0.0000000  )
        17           Au  tau(  17) = (  -0.2707426   0.3967954   0.0000000  )
        18           Au  tau(  18) = (  -0.1457845   0.1803616   0.0000000  )
        19           Au  tau(  19) = (  -0.0208264  -0.0360723   0.0000000  )
        20           Au  tau(  20) = (   0.4790062   0.6853738   0.2040557  )
        21           Au  tau(  21) = (   0.6039644   0.4689400   0.2040557  )
        22           Au  tau(  22) = (   0.7289225   0.2525061   0.2040557  )
        23           Au  tau(  23) = (   0.8538806   0.0360723   0.2040557  )
        24           Au  tau(  24) = (   0.2290899   0.6853738   0.2040557  )
        25           Au  tau(  25) = (   0.3540481   0.4689400   0.2040557  )
        26           Au  tau(  26) = (   0.4790062   0.2525061   0.2040557  )
        27           Au  tau(  27) = (   0.6039644   0.0360723   0.2040557  )
        28           Au  tau(  28) = (  -0.0208264   0.6853738   0.2040557  )
        29           Au  tau(  29) = (   0.1041318   0.4689400   0.2040557  )
        30           Au  tau(  30) = (   0.2290899   0.2525061   0.2040557  )
        31           Au  tau(  31) = (   0.3540481   0.0360723   0.2040557  )
        32           Au  tau(  32) = (  -0.2707426   0.6853738   0.2040557  )
        33           Au  tau(  33) = (  -0.1457845   0.4689400   0.2040557  )
        34           Au  tau(  34) = (  -0.0208264   0.2525061   0.2040557  )
        35           Au  tau(  35) = (   0.1041318   0.0360723   0.2040557  )
        36           Au  tau(  36) = (   0.3541162   0.7576593   0.4066483  )
        37           Au  tau(  37) = (   0.4791000   0.5411421   0.4066695  )
        38           Au  tau(  38) = (   0.6040570   0.3246862   0.4066617  )
        39           Au  tau(  39) = (   0.7290270   0.1081684   0.4066529  )
        40           Au  tau(  40) = (   0.1041162   0.7576236   0.4066247  )
        41           Au  tau(  41) = (   0.2291001   0.5411063   0.4066455  )
        42           Au  tau(  42) = (   0.3540567   0.3246505   0.4066380  )
        43           Au  tau(  43) = (   0.4790276   0.1081324   0.4066292  )
        44           Au  tau(  44) = (  -0.1458201   0.7576104   0.4066224  )
        45           Au  tau(  45) = (  -0.0208365   0.5410930   0.4066438  )
        46           Au  tau(  46) = (   0.1041202   0.3246372   0.4066359  )
        47           Au  tau(  47) = (   0.2290908   0.1081193   0.4066273  )
        48           Au  tau(  48) = (  -0.3958167   0.7575791   0.4065812  )
        49           Au  tau(  49) = (  -0.2708328   0.5410617   0.4066025  )
        50           Au  tau(  50) = (  -0.1458763   0.3246061   0.4065947  )
        51           Au  tau(  51) = (  -0.0209056   0.1080882   0.4065858  )
        52           Au  tau(  52) = (   0.3541085   0.6133344   0.6129762  )
        53           Au  tau(  53) = (   0.4790780   0.3968269   0.6129968  )
        54           Au  tau(  54) = (   0.6040356   0.1803811   0.6129859  )
        55           Au  tau(  55) = (   0.7290165  -0.0361221   0.6129385  )
        56           Au  tau(  56) = (   0.1041243   0.6133091   0.6130022  )
        57           Au  tau(  57) = (   0.2290941   0.3968013   0.6130241  )
        58           Au  tau(  58) = (   0.3540515   0.1803552   0.6130121  )
        59           Au  tau(  59) = (   0.4790323  -0.0361475   0.6129659  )
        60           Au  tau(  60) = (  -0.1458030   0.6133014   0.6129980  )
        61           Au  tau(  61) = (  -0.0208339   0.3967936   0.6130188  )
        62           Au  tau(  62) = (   0.1041239   0.1803477   0.6130083  )
        63           Au  tau(  63) = (   0.2291046  -0.0361554   0.6129607  )
        64           Au  tau(  64) = (  -0.3957908   0.6132739   0.6129471  )
        65           Au  tau(  65) = (  -0.2708208   0.3967658   0.6129688  )
        66           Au  tau(  66) = (  -0.1458636   0.1803200   0.6129569  )
        67           Au  tau(  67) = (  -0.0208823  -0.0361826   0.6129110  )

     number of k points=    12  Marzari-Vanderbilt smearing, width (Ry)=  0.0200
                       cart. coord. in units 2pi/alat
        k(    1) = (   0.2500000   0.4330127   0.1111111), wk =   0.1666667
        k(    2) = (   0.2500000  -0.1443376   0.1111111), wk =   0.1666667
        k(    3) = (  -0.2500000  -0.4330127   0.1111111), wk =   0.1666667
        k(    4) = (  -0.2500000   0.4330127  -0.1111111), wk =   0.1666667
        k(    5) = (   0.2500000  -0.4330127  -0.1111111), wk =   0.1666667
        k(    6) = (   0.5000000   0.0000000   0.1111111), wk =   0.1666667
        k(    7) = (  -0.5000000   0.0000000   0.1111111), wk =   0.1666667
        k(    8) = (  -0.2500000   0.1443376   0.1111111), wk =   0.1666667
        k(    9) = (  -0.2500000  -0.1443376  -0.1111111), wk =   0.1666667
        k(   10) = (   0.2500000   0.1443376  -0.1111111), wk =   0.1666667
        k(   11) = (   0.0000000  -0.2886751   0.1111111), wk =   0.1666667
        k(   12) = (   0.0000000   0.2886751   0.1111111), wk =   0.1666667

     Dense  grid:  3097177 G-vectors     FFT dimensions: ( 150, 150, 360)

     Smooth grid:  1095093 G-vectors     FFT dimensions: ( 108, 108, 240)

     Largest allocated arrays     est. size (Mb)     dimensions
        Kohn-Sham Wavefunctions        28.01 Mb     (    4299,  427)
        NL pseudopotentials            55.23 Mb     (    4299,  842)
        Each V/rho on FFT grid          4.12 Mb     (  270000)
        Each G-vector array             0.74 Mb     (   96788)
        G-vector shells                 0.16 Mb     (   21404)
     Largest temporary arrays     est. size (Mb)     dimensions
        Auxiliary wavefunctions       112.04 Mb     (    4299, 1708)
        Each subspace H/S matrix       44.51 Mb     (    1708, 1708)
        Each <psi_i|beta_j> matrix      5.49 Mb     (     842,  427)
        Arrays for rho mixing          32.96 Mb     (  270000,    8)

     Initial potential from superposition of free atoms
     Check: negative starting charge=   -1.730252

     starting charge  711.25682, renormalised to  712.00000

     negative rho (up, down):  1.732E+00 0.000E+00


     ************************************************************************
     *
     * You are using vdW-DF for exchange-correlation in this calculation.
     * Please cite the following three references that made this development
     * possible:
     *
     *   M. Dion, H. Rydberg, E. Schroder, D. C. Langreth, and
     *   B. I. Lundqvist, Phys. Rev. Lett. 92, 246401 (2004).
     *
     *   T. Thonhauser, V. R. Cooper, S. Li, A. Puzder, P. Hyldgaard, and
     *   D. C. Langreth, Phys. Rev. B 76, 125112 (2007).
     *
     *   G. Roman-Perez and J. M. Soler, Phys. Rev. Lett. 103, 096102 (2009).
     *
     *
     * If you are using vdW-DF2, please also cite:
     *
     *   K. Lee, E. D. Murray, L. Kong, B. I. Lundqvist, and
     *   D. C. Langreth, Phys. Rev. B 82, 081101(R) (2010).
     *
     *
     * If you are calculating the stress with vdW-DF, please also cite:
     *
     *   R. Sabatini, E. Kucukbenli, B. Kolb, T. Thonhauser, and
     *   S. de Gironcoli, J. Phys.: Condens. Matter 24, 424209 (2012).
     *
     ************************************************************************

     Carrying out vdW-DF run using the following parameters:

     Nqs =      20    Nr_points =    1024   r_max =   100.000
     q_mesh =
               0.00001000     0.04494208     0.09755937     0.15916263
               0.23128650     0.31572767     0.41458969     0.53033537
               0.66584808     0.82450364     1.01025438     1.22772762
               1.48234092     1.78043706     2.12944203     2.53805004
               3.01644009     3.57652955     4.23227104     5.00000000

     Gradients computed in reciprocal space

     ************************************************************************


     Starting wfc are  582 randomized atomic wfcs

     total cpu time spent up to now is      147.6 secs

     Self-consistent Calculation

     iteration #  1     ecut=    50.00 Ry     beta=0.70
     Davidson diagonalization with overlap
     ethr =  1.00E-02,  avg # of iterations =  3.0

     Threshold (ethr) on eigenvalues was too large:
     Diagonalizing with lowered threshold

     Davidson diagonalization with overlap
     ethr =  3.49E-04,  avg # of iterations =  4.0

     negative rho (up, down):  1.727E+00 0.000E+00

     total cpu time spent up to now is      717.8 secs

     total energy              =   -6602.78577927 Ry
     Harris-Foulkes estimate   =   -6605.03881692 Ry
     estimated scf accuracy    <       2.82361816 Ry

     iteration #  2     ecut=    50.00 Ry     beta=0.70
     Davidson diagonalization with overlap
     ethr =  3.97E-04,  avg # of iterations = 11.1

     negative rho (up, down):  1.726E+00 0.000E+00

     total cpu time spent up to now is     1696.9 secs

     total energy              =   -6596.71166951 Ry
     Harris-Foulkes estimate   =   -6610.16131268 Ry
     estimated scf accuracy    <      74.96902654 Ry

     iteration #  3     ecut=    50.00 Ry     beta=0.70
     Davidson diagonalization with overlap
     ethr =  3.97E-04,  avg # of iterations =  6.5

     negative rho (up, down):  1.737E+00 0.000E+00

     total cpu time spent up to now is     2340.2 secs

     total energy              =   -6603.14956855 Ry
     Harris-Foulkes estimate   =   -6605.01049042 Ry
     estimated scf accuracy    <       8.47726257 Ry

     iteration #  4     ecut=    50.00 Ry     beta=0.70
     Davidson diagonalization with overlap
     ethr =  3.97E-04,  avg # of iterations =  6.5

     negative rho (up, down):  1.738E+00 0.000E+00

     total cpu time spent up to now is     2732.7 secs

     total energy              =   -6603.45363576 Ry
     Harris-Foulkes estimate   =   -6605.23102071 Ry
     estimated scf accuracy    <      17.20672675 Ry

     iteration #  5     ecut=    50.00 Ry     beta=0.70
     Davidson diagonalization with overlap
     ethr =  3.97E-04,  avg # of iterations =  6.7

     negative rho (up, down):  1.748E+00 0.000E+00

     total cpu time spent up to now is     3148.0 secs

     total energy              =   -6604.33782034 Ry
     Harris-Foulkes estimate   =   -6604.61227305 Ry
     estimated scf accuracy    <       1.82220407 Ry

     iteration #  6     ecut=    50.00 Ry     beta=0.70
     Davidson diagonalization with overlap
     ethr =  2.56E-04,  avg # of iterations =  3.3

     negative rho (up, down):  1.752E+00 0.000E+00

     total cpu time spent up to now is     3424.5 secs

     total energy              =   -6604.42502382 Ry
     Harris-Foulkes estimate   =   -6604.46865516 Ry
     estimated scf accuracy    <       0.13061109 Ry

     iteration #  7     ecut=    50.00 Ry     beta=0.70
     Davidson diagonalization with overlap
     ethr =  1.83E-05,  avg # of iterations = 12.0

     negative rho (up, down):  1.754E+00 0.000E+00

     total cpu time spent up to now is     3939.4 secs

     total energy              =   -6604.43117391 Ry
     Harris-Foulkes estimate   =   -6604.45813349 Ry
     estimated scf accuracy    <       0.11325680 Ry

     iteration #  8     ecut=    50.00 Ry     beta=0.70
     Davidson diagonalization with overlap
     ethr =  1.59E-05,  avg # of iterations =  3.2

     negative rho (up, down):  1.755E+00 0.000E+00

     total cpu time spent up to now is     4216.4 secs

     total energy              =   -6604.43425649 Ry
     Harris-Foulkes estimate   =   -6604.44712220 Ry
     estimated scf accuracy    <       0.04670842 Ry

     iteration #  9     ecut=    50.00 Ry     beta=0.70
     Davidson diagonalization with overlap
     ethr =  6.56E-06,  avg # of iterations =  5.8

     negative rho (up, down):  1.756E+00 0.000E+00

     total cpu time spent up to now is     4544.6 secs

     total energy              =   -6604.43466900 Ry
     Harris-Foulkes estimate   =   -6604.44052277 Ry
     estimated scf accuracy    <       0.01930348 Ry

     iteration # 10     ecut=    50.00 Ry     beta=0.70
     Davidson diagonalization with overlap
     ethr =  2.71E-06,  avg # of iterations =  6.7

     negative rho (up, down):  1.757E+00 0.000E+00

     total cpu time spent up to now is     4898.7 secs

     total energy              =   -6604.43478986 Ry
     Harris-Foulkes estimate   =   -6604.43717331 Ry
     estimated scf accuracy    <       0.00831930 Ry

     iteration # 11     ecut=    50.00 Ry     beta=0.70
     Davidson diagonalization with overlap
     ethr =  1.17E-06,  avg # of iterations =  4.1

     negative rho (up, down):  1.757E+00 0.000E+00

     total cpu time spent up to now is     5180.2 secs

     total energy              =   -6604.43488730 Ry
     Harris-Foulkes estimate   =   -6604.43591093 Ry
     estimated scf accuracy    <       0.00417745 Ry

     iteration # 12     ecut=    50.00 Ry     beta=0.70
     Davidson diagonalization with overlap
     ethr =  5.87E-07,  avg # of iterations =  2.2

     negative rho (up, down):  1.758E+00 0.000E+00

     total cpu time spent up to now is     5430.0 secs

     total energy              =   -6604.43478181 Ry
     Harris-Foulkes estimate   =   -6604.43530995 Ry
     estimated scf accuracy    <       0.00095636 Ry

     iteration # 13     ecut=    50.00 Ry     beta=0.70
     Davidson diagonalization with overlap
     ethr =  1.34E-07,  avg # of iterations =  7.7

     negative rho (up, down):  1.758E+00 0.000E+00

     total cpu time spent up to now is     5814.6 secs

     total energy              =   -6604.43491858 Ry
     Harris-Foulkes estimate   =   -6604.43506550 Ry
     estimated scf accuracy    <       0.00043971 Ry

     iteration # 14     ecut=    50.00 Ry     beta=0.70
     Davidson diagonalization with overlap
     ethr =  6.18E-08,  avg # of iterations =  2.0

     negative rho (up, down):  1.757E+00 0.000E+00

     total cpu time spent up to now is     6063.9 secs

     total energy              =   -6604.43497363 Ry
     Harris-Foulkes estimate   =   -6604.43503179 Ry
     estimated scf accuracy    <       0.00024003 Ry

     iteration # 15     ecut=    50.00 Ry     beta=0.70
     Davidson diagonalization with overlap
     ethr =  3.37E-08,  avg # of iterations =  2.0

     negative rho (up, down):  1.757E+00 0.000E+00

     total cpu time spent up to now is     6322.0 secs

     total energy              =   -6604.43499785 Ry
     Harris-Foulkes estimate   =   -6604.43501562 Ry
     estimated scf accuracy    <       0.00006828 Ry

     iteration # 16     ecut=    50.00 Ry     beta=0.70
     Davidson diagonalization with overlap
     ethr =  9.59E-09,  avg # of iterations =  2.0

     negative rho (up, down):  1.757E+00 0.000E+00

     total cpu time spent up to now is     6592.5 secs

     total energy              =   -6604.43500056 Ry
     Harris-Foulkes estimate   =   -6604.43501189 Ry
     estimated scf accuracy    <       0.00008340 Ry

     iteration # 17     ecut=    50.00 Ry     beta=0.70
     Davidson diagonalization with overlap
     ethr =  9.59E-09,  avg # of iterations =  1.0

     negative rho (up, down):  1.757E+00 0.000E+00

     total cpu time spent up to now is     6822.9 secs

     total energy              =   -6604.43500614 Ry
     Harris-Foulkes estimate   =   -6604.43500949 Ry
     estimated scf accuracy    <       0.00002849 Ry

     iteration # 18     ecut=    50.00 Ry     beta=0.70
     Davidson diagonalization with overlap
     ethr =  4.00E-09,  avg # of iterations =  1.0

     negative rho (up, down):  1.757E+00 0.000E+00

     total cpu time spent up to now is     7052.8 secs

     total energy              =   -6604.43500704 Ry
     Harris-Foulkes estimate   =   -6604.43500890 Ry
     estimated scf accuracy    <       0.00000756 Ry

     iteration # 19     ecut=    50.00 Ry     beta=0.70
     Davidson diagonalization with overlap
     ethr =  1.06E-09,  avg # of iterations =  2.0

     negative rho (up, down):  1.757E+00 0.000E+00

     total cpu time spent up to now is     7295.6 secs

     total energy              =   -6604.43500802 Ry
     Harris-Foulkes estimate   =   -6604.43500823 Ry
     estimated scf accuracy    <       0.00000093 Ry

     iteration # 20     ecut=    50.00 Ry     beta=0.70
     Davidson diagonalization with overlap
     ethr =  1.30E-10,  avg # of iterations =  2.0

     negative rho (up, down):  1.757E+00 0.000E+00

     total cpu time spent up to now is     7553.3 secs

     total energy              =   -6604.43500821 Ry
     Harris-Foulkes estimate   =   -6604.43500821 Ry
     estimated scf accuracy    <       0.00000012 Ry

     iteration # 21     ecut=    50.00 Ry     beta=0.70
     Davidson diagonalization with overlap
     ethr =  1.66E-11,  avg # of iterations =  3.0

     negative rho (up, down):  1.757E+00 0.000E+00

     total cpu time spent up to now is     7922.3 secs

     total energy              =   -6604.43500824 Ry
     Harris-Foulkes estimate   =   -6604.43500827 Ry
     estimated scf accuracy    <       0.00000021 Ry

     iteration # 22     ecut=    50.00 Ry     beta=0.70
     Davidson diagonalization with overlap
     ethr =  1.66E-11,  avg # of iterations =  2.0

     negative rho (up, down):  1.757E+00 0.000E+00

     total cpu time spent up to now is     8176.2 secs

     total energy              =   -6604.43500826 Ry
     Harris-Foulkes estimate   =   -6604.43500826 Ry
     estimated scf accuracy    <       0.00000001 Ry

     iteration # 23     ecut=    50.00 Ry     beta=0.70
     Davidson diagonalization with overlap
     ethr =  1.97E-12,  avg # of iterations =  3.0

     negative rho (up, down):  1.757E+00 0.000E+00

     total cpu time spent up to now is     8523.2 secs

     total energy              =   -6604.43500826 Ry
     Harris-Foulkes estimate   =   -6604.43500827 Ry
     estimated scf accuracy    <       0.00000002 Ry

     iteration # 24     ecut=    50.00 Ry     beta=0.70
     Davidson diagonalization with overlap
     ethr =  1.97E-12,  avg # of iterations =  3.0

     negative rho (up, down):  1.757E+00 0.000E+00

     total cpu time spent up to now is     8817.1 secs

     total energy              =   -6604.43500827 Ry
     Harris-Foulkes estimate   =   -6604.43500826 Ry
     estimated scf accuracy    <       0.00000001 Ry

     iteration # 25     ecut=    50.00 Ry     beta=0.70
     Davidson diagonalization with overlap
     ethr =  1.77E-12,  avg # of iterations =  2.0

     negative rho (up, down):  1.757E+00 0.000E+00

     total cpu time spent up to now is     9060.3 secs

     End of self-consistent calculation

          k = 0.2500 0.4330 0.1111 (136853 PWs)   bands (ev):

   -18.9181  -6.7516  -6.3330  -5.9341  -5.9337  -5.2564  -4.9227  -4.9225
    -4.8842  -4.8831  -4.5224  -4.5221  -4.4237  -4.4236  -4.4096  -4.3875
    -4.3639  -4.2563  -4.2557  -4.2318  -4.1885  -4.1881  -4.1196  -4.1194
    -4.1130  -4.1125  -4.0912  -4.0857  -4.0849  -4.0151  -4.0127  -3.9832
    -3.9827  -3.9708  -3.9706  -3.9474  -3.9474  -3.9248  -3.9165  -3.9164
    -3.8900  -3.8377  -3.8374  -3.7897  -3.7890  -3.7309  -3.7305  -3.6758
    -3.6754  -3.6753  -3.6752  -3.6395  -3.6016  -3.6012  -3.5943  -3.5926
    -3.5925  -3.5628  -3.5619  -3.5536  -3.4923  -3.4920  -3.4834  -3.4656
    -3.4584  -3.3862  -3.3857  -3.3537  -3.3523  -3.3252  -3.3244  -3.3108
    -3.2942  -3.2348  -3.2343  -3.2170  -3.2165  -3.1656  -3.1620  -3.1601
    -3.1213  -3.0916  -3.0898  -3.0815  -3.0810  -3.0712  -3.0680  -3.0618
    -3.0602  -3.0505  -3.0099  -2.9727  -2.9713  -2.9688  -2.9566  -2.9506
    -2.9291  -2.9210  -2.9199  -2.8995  -2.8541  -2.8537  -2.8453  -2.8059
    -2.7994  -2.7878  -2.7876  -2.7591  -2.7581  -2.7287  -2.6917  -2.6905
    -2.6698  -2.6616  -2.6478  -2.6472  -2.5977  -2.5972  -2.5644  -2.5416
    -2.5412  -2.5179  -2.5172  -2.5060  -2.5056  -2.4951  -2.4728  -2.4725
    -2.4277  -2.4273  -2.4260  -2.4097  -2.4093  -2.4033  -2.3949  -2.3927
    -2.3921  -2.3915  -2.3854  -2.3741  -2.3730  -2.3644  -2.3373  -2.3363
    -2.3354  -2.3337  -2.3332  -2.3306  -2.3303  -2.3030  -2.3000  -2.2858
    -2.2856  -2.2674  -2.2672  -2.2577  -2.2572  -2.2565  -2.2554  -2.2370
    -2.2351  -2.2346  -2.2335  -2.2175  -2.1902  -2.1899  -2.1495  -2.1493
    -2.1248  -2.1245  -2.0974  -2.0968  -2.0699  -2.0691  -2.0519  -2.0476
    -2.0200  -2.0004  -1.9986  -1.9941  -1.9922  -1.9885  -1.9816  -1.9802
    -1.9555  -1.9485  -1.9398  -1.8815  -1.8784  -1.8769  -1.8743  -1.8741
    -1.8382  -1.8179  -1.8176  -1.7908  -1.7899  -1.7301  -1.7299  -1.7011
    -1.6847  -1.6817  -1.6211  -1.6209  -1.6096  -1.6085  -1.5979  -1.5971
    -1.5936  -1.5848  -1.5839  -1.5341  -1.5296  -1.5176  -1.5160  -1.5153
    -1.4977  -1.4962  -1.4620  -1.4606  -1.4456  -1.4433  -1.4430  -1.4362
    -1.4343  -1.4222  -1.4210  -1.4025  -1.4017  -1.3703  -1.3617  -1.3491
    -1.3481  -1.3283  -1.3140  -1.2736  -1.2716  -1.2493  -1.2412  -1.2401
    -1.2109  -1.1906  -1.1595  -1.1583  -1.1571  -1.1535  -1.1514  -1.1425
    -1.1258  -1.1232  -1.0901  -1.0821  -1.0760  -1.0514  -1.0506  -1.0459
    -1.0423  -1.0384  -1.0219  -1.0212  -1.0202  -1.0176  -1.0117  -0.9799
    -0.9778  -0.9773  -0.9636  -0.9471  -0.9435  -0.9369  -0.9144  -0.9113
    -0.8934  -0.8643  -0.8568  -0.8490  -0.8194  -0.8111  -0.8029  -0.8017
    -0.7947  -0.7942  -0.7925  -0.7864  -0.7805  -0.7694  -0.7551  -0.7534
    -0.7510  -0.7489  -0.7429  -0.7116  -0.7113  -0.7023  -0.6953  -0.6821
    -0.6776  -0.6684  -0.6620  -0.6098  -0.6066  -0.5996  -0.5992  -0.5978
    -0.5951  -0.5879  -0.5728  -0.5685  -0.5640  -0.5629  -0.5617  -0.5541
    -0.5219  -0.5198  -0.5186  -0.5110  -0.5096  -0.5050  -0.5041  -0.4907
    -0.4857  -0.4846  -0.4710  -0.4421  -0.4415  -0.4335  -0.4297  -0.4286
    -0.3529  -0.3514  -0.3495  -0.3479  -0.3402  -0.3375  -0.3032  -0.2908
    -0.2902  -0.2625  -0.2585  -0.2443  -0.1371  -0.1359  -0.0346   0.3808
     0.3809   0.3840   0.3846   0.4438   0.4525   0.8327   0.8344   0.8760
     0.8768   0.9886   1.0673   1.1761   1.1809   1.3968   1.4078   2.0292
     2.0333   2.1916   2.1954   2.3234   2.3310   2.4298   2.4299   2.5840
     2.8209   2.8262   2.9457   3.1690   3.1727   3.2520   3.2534   3.3524
     3.3691   3.5625   3.5671   3.6243   3.8259   3.8268   3.8873   3.8910
     4.1457   4.1515   4.1573   4.3963   4.4357   4.4397   4.4838   4.8184
     4.8207   4.8493   4.9830   5.1528   5.1573   5.1911   5.2143   5.3934
     5.7766   5.9137   5.9421   5.9499   5.9530   6.0181   6.0197   6.0860
     6.1178   6.1345   6.1539   6.1802   6.1835   6.2009   6.2141   6.2397
     6.2465   6.4162   6.5548   6.7002   6.7420   6.7614   6.8891   6.8920
     6.9006   7.0043   7.0106

          k = 0.2500-0.1443 0.1111 (136898 PWs)   bands (ev):

   -18.9181  -6.7521  -6.5424  -5.7512  -5.4603  -5.4011  -5.4008  -4.8626
    -4.8624  -4.7311  -4.7304  -4.5756  -4.5459  -4.4829  -4.4500  -4.4491
    -4.4159  -4.4158  -4.2873  -4.2457  -4.2452  -4.1857  -4.1648  -4.1644
    -4.0621  -4.0620  -4.0258  -4.0256  -4.0255  -3.9989  -3.9771  -3.9770
    -3.8730  -3.8701  -3.8697  -3.8495  -3.8324  -3.8322  -3.8204  -3.8199
    -3.8072  -3.7768  -3.7766  -3.7760  -3.7759  -3.7439  -3.7435  -3.7257
    -3.7256  -3.7128  -3.6695  -3.6690  -3.6379  -3.6237  -3.6222  -3.6173
    -3.6171  -3.5428  -3.5427  -3.5083  -3.5057  -3.5050  -3.4372  -3.4372
    -3.4219  -3.4216  -3.3917  -3.3910  -3.3899  -3.3896  -3.2363  -3.2358
    -3.2136  -3.2111  -3.2061  -3.1896  -3.1892  -3.1639  -3.1635  -3.1136
    -3.1134  -3.0976  -3.0971  -3.0768  -3.0330  -3.0286  -3.0096  -3.0048
    -3.0036  -2.9768  -2.9628  -2.9601  -2.9556  -2.9494  -2.9393  -2.9367
    -2.9000  -2.8999  -2.8780  -2.8761  -2.8748  -2.8734  -2.8709  -2.7949
    -2.7941  -2.7927  -2.7639  -2.7634  -2.7021  -2.7003  -2.6735  -2.6725
    -2.6595  -2.6591  -2.6533  -2.6242  -2.6236  -2.6141  -2.5970  -2.5721
    -2.5715  -2.5704  -2.5502  -2.5498  -2.5389  -2.5384  -2.5363  -2.5347
    -2.5263  -2.4805  -2.4486  -2.4483  -2.4330  -2.4190  -2.4128  -2.4123
    -2.4051  -2.4045  -2.4026  -2.3737  -2.3731  -2.3726  -2.3634  -2.3628
    -2.3462  -2.3193  -2.3180  -2.3178  -2.3171  -2.3166  -2.2708  -2.2407
    -2.2395  -2.2389  -2.2326  -2.2232  -2.2112  -2.2109  -2.1936  -2.1934
    -2.1618  -2.1589  -2.1585  -2.1401  -2.1398  -2.1382  -2.1067  -2.1052
    -2.0659  -2.0628  -2.0570  -2.0546  -2.0544  -2.0485  -2.0480  -2.0457
    -2.0449  -2.0404  -2.0375  -2.0225  -2.0209  -1.8962  -1.8934  -1.8643
    -1.8570  -1.8549  -1.8496  -1.8491  -1.8339  -1.8318  -1.8299  -1.8286
    -1.8273  -1.8038  -1.8003  -1.7957  -1.7952  -1.7849  -1.7835  -1.7612
    -1.7607  -1.7322  -1.7317  -1.7017  -1.6999  -1.6896  -1.6819  -1.6645
    -1.6634  -1.6602  -1.6424  -1.6300  -1.6293  -1.6225  -1.6220  -1.5962
    -1.5953  -1.5792  -1.5784  -1.5506  -1.5460  -1.5368  -1.4869  -1.4854
    -1.4794  -1.4723  -1.4717  -1.4460  -1.4439  -1.4126  -1.4107  -1.4097
    -1.3837  -1.3678  -1.3658  -1.3500  -1.3494  -1.3261  -1.3242  -1.3218
    -1.2919  -1.2896  -1.2895  -1.2271  -1.2260  -1.2178  -1.2134  -1.1988
    -1.1968  -1.1866  -1.1839  -1.1657  -1.1612  -1.1530  -1.1249  -1.1216
    -1.1102  -1.0794  -1.0754  -1.0673  -1.0631  -1.0627  -1.0595  -1.0563
    -1.0418  -1.0357  -1.0122  -1.0116  -1.0018  -0.9989  -0.9979  -0.9759
    -0.9751  -0.9568  -0.9415  -0.9351  -0.8954  -0.8390  -0.8289  -0.8234
    -0.8229  -0.8191  -0.8138  -0.8066  -0.7887  -0.7807  -0.7730  -0.7653
    -0.7582  -0.7519  -0.7491  -0.7287  -0.7274  -0.7189  -0.7171  -0.6459
    -0.6453  -0.6125  -0.6080  -0.6068  -0.6010  -0.5985  -0.5982  -0.5947
    -0.5859  -0.5796  -0.5598  -0.5437  -0.5258  -0.5102  -0.5091  -0.4988
    -0.4954  -0.4858  -0.4852  -0.4839  -0.4827  -0.4770  -0.4655  -0.4611
    -0.4568  -0.4304  -0.4286  -0.4251  -0.4159  -0.4152  -0.3967  -0.3648
    -0.3632  -0.3555  -0.3526  -0.2868  -0.2864  -0.2502  -0.2500  -0.1917
    -0.1913  -0.1908  -0.1726  -0.1636   0.0597   0.0750   0.4093   0.4094
     0.4978   0.5096   0.6952   0.7166   0.7268   0.8562   0.8590   1.2894
     1.2897   1.3072   1.5674   1.5995   1.5998   1.8720   1.8859   1.9546
     1.9558   1.9798   1.9887   2.2109   2.2120   2.3004   2.3011   2.3724
     2.4359   2.4493   2.6037   2.7029   3.1405   3.1425   3.1461   3.1484
     3.1990   3.2018   3.4930   3.4941   3.7705   3.7808   3.8775   4.1894
     4.2289   4.2353   4.4301   4.4685   4.5320   4.5339   4.6244   4.7413
     4.7450   4.8591   4.8616   5.1632   5.2288   5.2335   5.2655   5.4115
     5.4262   5.6176   5.6220   5.6466   5.6488   5.7047   5.7131   5.7492
     5.8144   6.0410   6.2569   6.3129   6.3427   6.4510   6.4528   6.4646
     6.4703   6.5284   6.6364   6.7022   6.7106   6.8072   6.9073   6.9163
     6.9538   7.0243   7.0605

          k =-0.2500-0.4330 0.1111 (136853 PWs)   bands (ev):

   -18.9181  -6.7516  -6.3330  -5.9341  -5.9337  -5.2564  -4.9227  -4.9225
    -4.8842  -4.8831  -4.5224  -4.5221  -4.4237  -4.4236  -4.4096  -4.3875
    -4.3639  -4.2563  -4.2557  -4.2318  -4.1885  -4.1881  -4.1196  -4.1194
    -4.1130  -4.1125  -4.0912  -4.0857  -4.0849  -4.0151  -4.0127  -3.9832
    -3.9827  -3.9708  -3.9706  -3.9474  -3.9474  -3.9248  -3.9165  -3.9164
    -3.8900  -3.8377  -3.8374  -3.7897  -3.7890  -3.7309  -3.7305  -3.6758
    -3.6754  -3.6753  -3.6752  -3.6395  -3.6016  -3.6012  -3.5943  -3.5926
    -3.5925  -3.5628  -3.5619  -3.5536  -3.4923  -3.4920  -3.4834  -3.4656
    -3.4584  -3.3862  -3.3857  -3.3537  -3.3523  -3.3252  -3.3244  -3.3108
    -3.2942  -3.2348  -3.2343  -3.2170  -3.2165  -3.1656  -3.1620  -3.1601
    -3.1213  -3.0916  -3.0898  -3.0815  -3.0810  -3.0712  -3.0680  -3.0618
    -3.0602  -3.0505  -3.0099  -2.9727  -2.9713  -2.9688  -2.9566  -2.9506
    -2.9291  -2.9210  -2.9199  -2.8995  -2.8541  -2.8537  -2.8453  -2.8059
    -2.7994  -2.7878  -2.7876  -2.7591  -2.7582  -2.7287  -2.6917  -2.6905
    -2.6698  -2.6616  -2.6478  -2.6472  -2.5977  -2.5972  -2.5644  -2.5416
    -2.5412  -2.5179  -2.5172  -2.5060  -2.5056  -2.4951  -2.4728  -2.4725
    -2.4277  -2.4273  -2.4260  -2.4097  -2.4093  -2.4033  -2.3949  -2.3927
    -2.3921  -2.3915  -2.3854  -2.3741  -2.3730  -2.3644  -2.3373  -2.3363
    -2.3354  -2.3337  -2.3332  -2.3306  -2.3303  -2.3030  -2.3000  -2.2858
    -2.2856  -2.2674  -2.2672  -2.2577  -2.2572  -2.2565  -2.2554  -2.2370
    -2.2351  -2.2346  -2.2335  -2.2175  -2.1902  -2.1899  -2.1495  -2.1493
    -2.1248  -2.1245  -2.0974  -2.0968  -2.0699  -2.0691  -2.0519  -2.0476
    -2.0200  -2.0004  -1.9986  -1.9941  -1.9922  -1.9885  -1.9816  -1.9802
    -1.9555  -1.9485  -1.9398  -1.8815  -1.8784  -1.8769  -1.8743  -1.8741
    -1.8382  -1.8179  -1.8176  -1.7908  -1.7899  -1.7301  -1.7299  -1.7011
    -1.6847  -1.6817  -1.6211  -1.6209  -1.6096  -1.6085  -1.5979  -1.5971
    -1.5936  -1.5848  -1.5839  -1.5341  -1.5296  -1.5176  -1.5160  -1.5153
    -1.4977  -1.4962  -1.4620  -1.4606  -1.4456  -1.4433  -1.4430  -1.4362
    -1.4343  -1.4222  -1.4210  -1.4025  -1.4017  -1.3703  -1.3617  -1.3491
    -1.3481  -1.3283  -1.3140  -1.2736  -1.2716  -1.2493  -1.2412  -1.2401
    -1.2109  -1.1906  -1.1595  -1.1583  -1.1571  -1.1535  -1.1514  -1.1425
    -1.1258  -1.1232  -1.0901  -1.0821  -1.0760  -1.0514  -1.0506  -1.0459
    -1.0423  -1.0384  -1.0219  -1.0212  -1.0202  -1.0176  -1.0117  -0.9799
    -0.9778  -0.9773  -0.9636  -0.9471  -0.9435  -0.9369  -0.9144  -0.9113
    -0.8934  -0.8643  -0.8568  -0.8490  -0.8194  -0.8111  -0.8029  -0.8017
    -0.7947  -0.7942  -0.7925  -0.7864  -0.7805  -0.7694  -0.7551  -0.7534
    -0.7510  -0.7489  -0.7429  -0.7116  -0.7113  -0.7023  -0.6953  -0.6821
    -0.6776  -0.6684  -0.6620  -0.6098  -0.6066  -0.5996  -0.5992  -0.5978
    -0.5951  -0.5879  -0.5728  -0.5685  -0.5640  -0.5629  -0.5617  -0.5541
    -0.5219  -0.5198  -0.5186  -0.5110  -0.5096  -0.5050  -0.5041  -0.4907
    -0.4857  -0.4846  -0.4710  -0.4421  -0.4415  -0.4335  -0.4297  -0.4286
    -0.3529  -0.3514  -0.3495  -0.3479  -0.3402  -0.3375  -0.3032  -0.2908
    -0.2902  -0.2625  -0.2585  -0.2443  -0.1371  -0.1359  -0.0346   0.3808
     0.3809   0.3840   0.3846   0.4438   0.4525   0.8327   0.8344   0.8760
     0.8768   0.9886   1.0673   1.1761   1.1809   1.3968   1.4078   2.0292
     2.0333   2.1916   2.1954   2.3234   2.3310   2.4298   2.4299   2.5840
     2.8209   2.8262   2.9457   3.1690   3.1727   3.2520   3.2534   3.3524
     3.3691   3.5625   3.5671   3.6243   3.8259   3.8268   3.8873   3.8910
     4.1457   4.1515   4.1573   4.3963   4.4357   4.4397   4.4838   4.8184
     4.8207   4.8493   4.9830   5.1528   5.1573   5.1911   5.2143   5.3934
     5.7758   5.9138   5.9421   5.9499   5.9530   6.0181   6.0197   6.0858
     6.1193   6.1368   6.1538   6.1801   6.1836   6.2010   6.2128   6.2398
     6.2464   6.4167   6.5558   6.6863   6.7434   6.7613   6.8887   6.8919
     6.9003   7.0101   7.0210

          k =-0.2500 0.4330-0.1111 (136853 PWs)   bands (ev):

   -18.9181  -6.7516  -6.3330  -5.9354  -5.9324  -5.2564  -4.9232  -4.9221
    -4.8858  -4.8816  -4.5228  -4.5216  -4.4239  -4.4233  -4.4094  -4.3875
    -4.3639  -4.2567  -4.2555  -4.2318  -4.1887  -4.1881  -4.1197  -4.1192
    -4.1129  -4.1126  -4.0912  -4.0869  -4.0838  -4.0166  -4.0113  -3.9836
    -3.9820  -3.9708  -3.9705  -3.9475  -3.9473  -3.9249  -3.9166  -3.9164
    -3.8901  -3.8379  -3.8374  -3.7903  -3.7884  -3.7310  -3.7305  -3.6760
    -3.6756  -3.6752  -3.6748  -3.6397  -3.6019  -3.6013  -3.5940  -3.5929
    -3.5923  -3.5631  -3.5616  -3.5535  -3.4925  -3.4921  -3.4831  -3.4654
    -3.4581  -3.3868  -3.3855  -3.3539  -3.3517  -3.3252  -3.3240  -3.3107
    -3.2943  -3.2355  -3.2343  -3.2169  -3.2162  -3.1664  -3.1615  -3.1599
    -3.1211  -3.0924  -3.0899  -3.0820  -3.0805  -3.0704  -3.0680  -3.0618
    -3.0598  -3.0505  -3.0096  -2.9728  -2.9713  -2.9685  -2.9566  -2.9520
    -2.9297  -2.9213  -2.9191  -2.8996  -2.8548  -2.8530  -2.8450  -2.8059
    -2.7993  -2.7880  -2.7872  -2.7592  -2.7576  -2.7288  -2.6918  -2.6902
    -2.6698  -2.6617  -2.6483  -2.6473  -2.5975  -2.5973  -2.5642  -2.5419
    -2.5413  -2.5182  -2.5169  -2.5062  -2.5052  -2.4952  -2.4731  -2.4722
    -2.4276  -2.4269  -2.4262  -2.4100  -2.4090  -2.4035  -2.3949  -2.3926
    -2.3923  -2.3917  -2.3853  -2.3738  -2.3728  -2.3654  -2.3373  -2.3364
    -2.3349  -2.3342  -2.3331  -2.3310  -2.3295  -2.3031  -2.3001  -2.2861
    -2.2851  -2.2675  -2.2671  -2.2578  -2.2571  -2.2565  -2.2550  -2.2373
    -2.2357  -2.2351  -2.2324  -2.2176  -2.1906  -2.1899  -2.1501  -2.1488
    -2.1251  -2.1242  -2.0976  -2.0964  -2.0700  -2.0686  -2.0518  -2.0474
    -2.0199  -2.0006  -1.9980  -1.9935  -1.9923  -1.9883  -1.9817  -1.9798
    -1.9553  -1.9485  -1.9397  -1.8818  -1.8792  -1.8771  -1.8746  -1.8740
    -1.8385  -1.8189  -1.8165  -1.7910  -1.7901  -1.7309  -1.7290  -1.7016
    -1.6840  -1.6818  -1.6210  -1.6204  -1.6099  -1.6082  -1.5978  -1.5972
    -1.5938  -1.5856  -1.5835  -1.5346  -1.5299  -1.5182  -1.5166  -1.5157
    -1.4983  -1.4959  -1.4621  -1.4606  -1.4443  -1.4438  -1.4424  -1.4361
    -1.4341  -1.4228  -1.4210  -1.4025  -1.4013  -1.3701  -1.3622  -1.3503
    -1.3477  -1.3284  -1.3140  -1.2725  -1.2712  -1.2496  -1.2408  -1.2400
    -1.2108  -1.1877  -1.1595  -1.1583  -1.1571  -1.1539  -1.1514  -1.1417
    -1.1253  -1.1231  -1.0954  -1.0816  -1.0767  -1.0519  -1.0494  -1.0462
    -1.0418  -1.0378  -1.0224  -1.0207  -1.0192  -1.0170  -1.0135  -0.9809
    -0.9778  -0.9772  -0.9631  -0.9474  -0.9448  -0.9361  -0.9148  -0.9110
    -0.8932  -0.8641  -0.8570  -0.8466  -0.8198  -0.8104  -0.8022  -0.8014
    -0.7949  -0.7940  -0.7925  -0.7857  -0.7805  -0.7704  -0.7550  -0.7535
    -0.7507  -0.7490  -0.7438  -0.7116  -0.7112  -0.7028  -0.6941  -0.6820
    -0.6777  -0.6698  -0.6628  -0.6097  -0.6067  -0.5996  -0.5991  -0.5976
    -0.5946  -0.5884  -0.5728  -0.5691  -0.5641  -0.5628  -0.5619  -0.5532
    -0.5215  -0.5202  -0.5186  -0.5115  -0.5092  -0.5046  -0.5037  -0.4903
    -0.4854  -0.4847  -0.4726  -0.4426  -0.4408  -0.4337  -0.4302  -0.4274
    -0.3534  -0.3511  -0.3494  -0.3477  -0.3403  -0.3378  -0.3032  -0.2910
    -0.2904  -0.2642  -0.2585  -0.2424  -0.1390  -0.1337  -0.0345   0.3808
     0.3811   0.3838   0.3846   0.4422   0.4544   0.8319   0.8349   0.8752
     0.8776   0.9893   1.0669   1.1731   1.1835   1.3928   1.4111   2.0287
     2.0342   2.1894   2.1979   2.3212   2.3333   2.4294   2.4302   2.5838
     2.8195   2.8283   2.9450   3.1649   3.1757   3.2520   3.2544   3.3519
     3.3691   3.5503   3.5778   3.6259   3.8253   3.8274   3.8880   3.8921
     4.1451   4.1492   4.1590   4.3970   4.4356   4.4392   4.4839   4.8165
     4.8231   4.8468   4.9840   5.1543   5.1579   5.1781   5.2250   5.3966
     5.7821   5.9073   5.9436   5.9464   5.9561   6.0164   6.0214   6.0891
     6.1151   6.1410   6.1530   6.1798   6.1855   6.1942   6.2186   6.2406
     6.2456   6.4191   6.5418   6.6927   6.7365   6.7651   6.8858   6.8936
     6.9001   7.0067   7.0352

          k = 0.2500-0.4330-0.1111 (136853 PWs)   bands (ev):

   -18.9181  -6.7516  -6.3330  -5.9354  -5.9324  -5.2564  -4.9232  -4.9221
    -4.8858  -4.8816  -4.5228  -4.5216  -4.4239  -4.4233  -4.4094  -4.3875
    -4.3639  -4.2567  -4.2555  -4.2318  -4.1887  -4.1881  -4.1197  -4.1192
    -4.1129  -4.1126  -4.0912  -4.0869  -4.0838  -4.0166  -4.0113  -3.9836
    -3.9820  -3.9708  -3.9705  -3.9475  -3.9473  -3.9249  -3.9166  -3.9164
    -3.8901  -3.8379  -3.8374  -3.7903  -3.7884  -3.7310  -3.7305  -3.6760
    -3.6756  -3.6752  -3.6748  -3.6397  -3.6019  -3.6013  -3.5940  -3.5929
    -3.5923  -3.5631  -3.5616  -3.5535  -3.4925  -3.4921  -3.4831  -3.4654
    -3.4581  -3.3868  -3.3855  -3.3539  -3.3517  -3.3252  -3.3240  -3.3107
    -3.2943  -3.2355  -3.2343  -3.2169  -3.2162  -3.1664  -3.1615  -3.1599
    -3.1211  -3.0924  -3.0899  -3.0820  -3.0805  -3.0704  -3.0680  -3.0618
    -3.0598  -3.0505  -3.0096  -2.9728  -2.9713  -2.9685  -2.9566  -2.9520
    -2.9297  -2.9213  -2.9191  -2.8996  -2.8548  -2.8530  -2.8450  -2.8059
    -2.7993  -2.7880  -2.7872  -2.7592  -2.7576  -2.7288  -2.6918  -2.6902
    -2.6698  -2.6617  -2.6483  -2.6473  -2.5975  -2.5973  -2.5642  -2.5419
    -2.5413  -2.5182  -2.5169  -2.5062  -2.5052  -2.4952  -2.4731  -2.4722
    -2.4276  -2.4269  -2.4262  -2.4100  -2.4090  -2.4035  -2.3949  -2.3926
    -2.3923  -2.3917  -2.3853  -2.3738  -2.3728  -2.3654  -2.3373  -2.3364
    -2.3349  -2.3342  -2.3331  -2.3310  -2.3295  -2.3031  -2.3001  -2.2861
    -2.2851  -2.2675  -2.2671  -2.2578  -2.2571  -2.2565  -2.2550  -2.2373
    -2.2357  -2.2351  -2.2324  -2.2176  -2.1906  -2.1899  -2.1501  -2.1488
    -2.1251  -2.1242  -2.0976  -2.0964  -2.0700  -2.0686  -2.0518  -2.0474
    -2.0199  -2.0006  -1.9980  -1.9935  -1.9923  -1.9883  -1.9817  -1.9798
    -1.9553  -1.9485  -1.9397  -1.8818  -1.8792  -1.8771  -1.8746  -1.8740
    -1.8385  -1.8189  -1.8165  -1.7910  -1.7901  -1.7309  -1.7290  -1.7016
    -1.6840  -1.6818  -1.6210  -1.6204  -1.6099  -1.6082  -1.5978  -1.5972
    -1.5938  -1.5856  -1.5835  -1.5346  -1.5299  -1.5182  -1.5166  -1.5157
    -1.4983  -1.4959  -1.4621  -1.4606  -1.4443  -1.4438  -1.4424  -1.4361
    -1.4341  -1.4228  -1.4210  -1.4025  -1.4013  -1.3701  -1.3622  -1.3503
    -1.3477  -1.3284  -1.3140  -1.2725  -1.2712  -1.2496  -1.2408  -1.2400
    -1.2108  -1.1877  -1.1595  -1.1583  -1.1571  -1.1539  -1.1514  -1.1417
    -1.1253  -1.1231  -1.0954  -1.0816  -1.0767  -1.0519  -1.0494  -1.0462
    -1.0418  -1.0378  -1.0224  -1.0207  -1.0192  -1.0170  -1.0135  -0.9809
    -0.9778  -0.9772  -0.9631  -0.9474  -0.9448  -0.9361  -0.9148  -0.9110
    -0.8932  -0.8641  -0.8570  -0.8466  -0.8198  -0.8104  -0.8022  -0.8014
    -0.7949  -0.7940  -0.7925  -0.7857  -0.7805  -0.7704  -0.7550  -0.7535
    -0.7507  -0.7490  -0.7438  -0.7116  -0.7112  -0.7028  -0.6941  -0.6820
    -0.6777  -0.6698  -0.6628  -0.6097  -0.6067  -0.5996  -0.5990  -0.5976
    -0.5946  -0.5884  -0.5728  -0.5691  -0.5641  -0.5628  -0.5619  -0.5532
    -0.5215  -0.5202  -0.5186  -0.5115  -0.5092  -0.5046  -0.5037  -0.4903
    -0.4854  -0.4847  -0.4726  -0.4426  -0.4408  -0.4337  -0.4302  -0.4274
    -0.3534  -0.3511  -0.3494  -0.3477  -0.3403  -0.3378  -0.3032  -0.2910
    -0.2904  -0.2642  -0.2585  -0.2424  -0.1390  -0.1337  -0.0345   0.3808
     0.3811   0.3838   0.3846   0.4422   0.4544   0.8319   0.8349   0.8752
     0.8776   0.9893   1.0669   1.1731   1.1835   1.3928   1.4111   2.0287
     2.0342   2.1894   2.1979   2.3212   2.3333   2.4294   2.4302   2.5838
     2.8195   2.8283   2.9450   3.1649   3.1757   3.2520   3.2544   3.3519
     3.3691   3.5503   3.5778   3.6259   3.8253   3.8274   3.8880   3.8921
     4.1451   4.1492   4.1590   4.3970   4.4356   4.4392   4.4839   4.8165
     4.8231   4.8468   4.9840   5.1543   5.1579   5.1781   5.2250   5.3966
     5.7821   5.9076   5.9436   5.9464   5.9561   6.0164   6.0214   6.0894
     6.1151   6.1391   6.1531   6.1796   6.1849   6.1942   6.2194   6.2406
     6.2457   6.4203   6.5406   6.6925   6.7463   6.7650   6.8862   6.8936
     6.9006   7.0077   7.0172

          k = 0.5000 0.0000 0.1111 (136853 PWs)   bands (ev):

   -18.9181  -6.7516  -6.3330  -5.9355  -5.9323  -5.2564  -4.9236  -4.9216
    -4.8861  -4.8813  -4.5231  -4.5213  -4.4238  -4.4235  -4.4093  -4.3874
    -4.3638  -4.2566  -4.2556  -4.2319  -4.1886  -4.1881  -4.1199  -4.1190
    -4.1135  -4.1122  -4.0912  -4.0873  -4.0834  -4.0173  -4.0106  -3.9840
    -3.9816  -3.9710  -3.9704  -3.9474  -3.9474  -3.9249  -3.9166  -3.9163
    -3.8901  -3.8379  -3.8374  -3.7907  -3.7881  -3.7309  -3.7305  -3.6760
    -3.6754  -3.6753  -3.6749  -3.6397  -3.6018  -3.6014  -3.5941  -3.5930
    -3.5923  -3.5632  -3.5613  -3.5537  -3.4924  -3.4920  -3.4832  -3.4654
    -3.4581  -3.3868  -3.3857  -3.3538  -3.3520  -3.3252  -3.3239  -3.3107
    -3.2942  -3.2354  -3.2342  -3.2171  -3.2160  -3.1671  -3.1611  -3.1600
    -3.1209  -3.0939  -3.0891  -3.0821  -3.0810  -3.0696  -3.0681  -3.0613
    -3.0598  -3.0505  -3.0092  -2.9746  -2.9705  -2.9665  -2.9566  -2.9538
    -2.9302  -2.9213  -2.9195  -2.8993  -2.8551  -2.8527  -2.8437  -2.8060
    -2.7993  -2.7882  -2.7870  -2.7590  -2.7564  -2.7288  -2.6918  -2.6908
    -2.6698  -2.6617  -2.6487  -2.6476  -2.5981  -2.5965  -2.5641  -2.5419
    -2.5417  -2.5181  -2.5167  -2.5060  -2.5055  -2.4953  -2.4730  -2.4721
    -2.4282  -2.4266  -2.4261  -2.4099  -2.4090  -2.4034  -2.3948  -2.3931
    -2.3922  -2.3913  -2.3854  -2.3740  -2.3725  -2.3663  -2.3372  -2.3362
    -2.3349  -2.3346  -2.3333  -2.3315  -2.3290  -2.3029  -2.3001  -2.2857
    -2.2851  -2.2675  -2.2671  -2.2575  -2.2573  -2.2570  -2.2543  -2.2376
    -2.2362  -2.2348  -2.2319  -2.2177  -2.1905  -2.1900  -2.1502  -2.1486
    -2.1252  -2.1243  -2.0973  -2.0970  -2.0697  -2.0684  -2.0517  -2.0474
    -2.0200  -2.0006  -1.9981  -1.9932  -1.9921  -1.9881  -1.9815  -1.9797
    -1.9557  -1.9484  -1.9397  -1.8818  -1.8800  -1.8769  -1.8752  -1.8731
    -1.8390  -1.8189  -1.8166  -1.7914  -1.7898  -1.7310  -1.7289  -1.7018
    -1.6837  -1.6818  -1.6214  -1.6200  -1.6103  -1.6078  -1.5983  -1.5967
    -1.5938  -1.5856  -1.5835  -1.5359  -1.5278  -1.5194  -1.5161  -1.5155
    -1.4987  -1.4948  -1.4623  -1.4608  -1.4441  -1.4435  -1.4426  -1.4362
    -1.4347  -1.4233  -1.4207  -1.4022  -1.4017  -1.3716  -1.3610  -1.3497
    -1.3469  -1.3282  -1.3140  -1.2736  -1.2707  -1.2500  -1.2413  -1.2403
    -1.2107  -1.1868  -1.1599  -1.1587  -1.1571  -1.1539  -1.1508  -1.1422
    -1.1263  -1.1226  -1.0943  -1.0837  -1.0764  -1.0514  -1.0501  -1.0454
    -1.0422  -1.0382  -1.0227  -1.0210  -1.0190  -1.0175  -1.0117  -0.9800
    -0.9779  -0.9769  -0.9643  -0.9467  -0.9425  -0.9369  -0.9158  -0.9095
    -0.8955  -0.8637  -0.8569  -0.8466  -0.8198  -0.8102  -0.8030  -0.8015
    -0.7947  -0.7943  -0.7921  -0.7862  -0.7809  -0.7695  -0.7555  -0.7525
    -0.7510  -0.7496  -0.7431  -0.7119  -0.7110  -0.7017  -0.6957  -0.6826
    -0.6777  -0.6690  -0.6624  -0.6096  -0.6069  -0.5995  -0.5987  -0.5976
    -0.5948  -0.5889  -0.5727  -0.5689  -0.5639  -0.5634  -0.5612  -0.5537
    -0.5220  -0.5195  -0.5189  -0.5110  -0.5094  -0.5049  -0.5040  -0.4910
    -0.4860  -0.4844  -0.4716  -0.4423  -0.4413  -0.4338  -0.4292  -0.4286
    -0.3528  -0.3517  -0.3493  -0.3479  -0.3400  -0.3379  -0.3032  -0.2909
    -0.2903  -0.2623  -0.2585  -0.2444  -0.1376  -0.1349  -0.0344   0.3807
     0.3813   0.3836   0.3846   0.4437   0.4526   0.8321   0.8350   0.8757
     0.8769   0.9890   1.0672   1.1741   1.1829   1.3937   1.4106   2.0292
     2.0336   2.1905   2.1965   2.3222   2.3321   2.4290   2.4306   2.5839
     2.8202   2.8278   2.9453   3.1653   3.1757   3.2516   3.2543   3.3521
     3.3691   3.5482   3.5805   3.6246   3.8255   3.8273   3.8876   3.8922
     4.1443   4.1506   4.1585   4.3968   4.4351   4.4401   4.4836   4.8179
     4.8211   4.8478   4.9839   5.1515   5.1573   5.1683   5.2317   5.4152
     5.7517   5.9370   5.9424   5.9496   5.9536   6.0177   6.0191   6.0880
     6.1030   6.1288   6.1544   6.1791   6.1846   6.1945   6.2173   6.2404
     6.2495   6.4076   6.5733   6.6872   6.7344   6.7907   6.8861   6.8937
     6.8996   6.9973   7.0138

          k =-0.5000 0.0000 0.1111 (136853 PWs)   bands (ev):

   -18.9181  -6.7516  -6.3330  -5.9355  -5.9323  -5.2564  -4.9236  -4.9216
    -4.8861  -4.8813  -4.5231  -4.5213  -4.4238  -4.4235  -4.4093  -4.3874
    -4.3638  -4.2566  -4.2556  -4.2319  -4.1886  -4.1881  -4.1199  -4.1190
    -4.1135  -4.1122  -4.0912  -4.0873  -4.0834  -4.0173  -4.0106  -3.9840
    -3.9816  -3.9710  -3.9704  -3.9474  -3.9473  -3.9249  -3.9166  -3.9163
    -3.8901  -3.8379  -3.8374  -3.7907  -3.7881  -3.7309  -3.7305  -3.6760
    -3.6754  -3.6753  -3.6749  -3.6397  -3.6018  -3.6014  -3.5941  -3.5930
    -3.5923  -3.5632  -3.5613  -3.5537  -3.4924  -3.4920  -3.4832  -3.4654
    -3.4581  -3.3868  -3.3857  -3.3538  -3.3520  -3.3252  -3.3239  -3.3107
    -3.2942  -3.2354  -3.2342  -3.2171  -3.2160  -3.1671  -3.1611  -3.1600
    -3.1209  -3.0939  -3.0891  -3.0821  -3.0810  -3.0697  -3.0681  -3.0613
    -3.0598  -3.0505  -3.0092  -2.9746  -2.9705  -2.9665  -2.9566  -2.9538
    -2.9302  -2.9213  -2.9195  -2.8993  -2.8551  -2.8527  -2.8437  -2.8060
    -2.7993  -2.7882  -2.7870  -2.7590  -2.7564  -2.7288  -2.6918  -2.6908
    -2.6698  -2.6617  -2.6487  -2.6476  -2.5981  -2.5965  -2.5641  -2.5419
    -2.5417  -2.5181  -2.5167  -2.5060  -2.5055  -2.4953  -2.4730  -2.4721
    -2.4282  -2.4266  -2.4261  -2.4099  -2.4090  -2.4034  -2.3948  -2.3931
    -2.3922  -2.3913  -2.3854  -2.3740  -2.3725  -2.3663  -2.3372  -2.3362
    -2.3349  -2.3346  -2.3333  -2.3315  -2.3290  -2.3029  -2.3001  -2.2857
    -2.2851  -2.2675  -2.2671  -2.2575  -2.2573  -2.2570  -2.2543  -2.2376
    -2.2362  -2.2348  -2.2319  -2.2177  -2.1905  -2.1900  -2.1502  -2.1486
    -2.1252  -2.1243  -2.0973  -2.0970  -2.0697  -2.0684  -2.0517  -2.0474
    -2.0200  -2.0006  -1.9981  -1.9932  -1.9921  -1.9881  -1.9815  -1.9797
    -1.9557  -1.9484  -1.9397  -1.8818  -1.8800  -1.8769  -1.8752  -1.8731
    -1.8390  -1.8189  -1.8166  -1.7914  -1.7898  -1.7310  -1.7289  -1.7018
    -1.6837  -1.6818  -1.6214  -1.6200  -1.6103  -1.6078  -1.5983  -1.5967
    -1.5938  -1.5856  -1.5835  -1.5359  -1.5278  -1.5194  -1.5161  -1.5155
    -1.4987  -1.4948  -1.4623  -1.4608  -1.4441  -1.4435  -1.4426  -1.4362
    -1.4347  -1.4233  -1.4207  -1.4022  -1.4017  -1.3716  -1.3610  -1.3497
    -1.3469  -1.3282  -1.3140  -1.2736  -1.2707  -1.2500  -1.2413  -1.2403
    -1.2107  -1.1868  -1.1599  -1.1587  -1.1571  -1.1539  -1.1508  -1.1422
    -1.1263  -1.1226  -1.0943  -1.0837  -1.0764  -1.0514  -1.0501  -1.0454
    -1.0422  -1.0382  -1.0227  -1.0210  -1.0190  -1.0175  -1.0117  -0.9800
    -0.9779  -0.9769  -0.9643  -0.9467  -0.9425  -0.9369  -0.9158  -0.9095
    -0.8955  -0.8637  -0.8569  -0.8466  -0.8198  -0.8102  -0.8030  -0.8015
    -0.7947  -0.7943  -0.7921  -0.7862  -0.7809  -0.7695  -0.7555  -0.7525
    -0.7510  -0.7496  -0.7431  -0.7119  -0.7110  -0.7017  -0.6957  -0.6826
    -0.6777  -0.6690  -0.6624  -0.6096  -0.6069  -0.5995  -0.5987  -0.5976
    -0.5948  -0.5889  -0.5727  -0.5689  -0.5639  -0.5634  -0.5612  -0.5537
    -0.5220  -0.5196  -0.5189  -0.5110  -0.5094  -0.5049  -0.5040  -0.4910
    -0.4860  -0.4844  -0.4716  -0.4423  -0.4413  -0.4338  -0.4292  -0.4286
    -0.3528  -0.3517  -0.3493  -0.3479  -0.3400  -0.3379  -0.3032  -0.2909
    -0.2903  -0.2623  -0.2585  -0.2444  -0.1376  -0.1349  -0.0344   0.3807
     0.3813   0.3836   0.3846   0.4437   0.4526   0.8321   0.8350   0.8757
     0.8769   0.9890   1.0672   1.1741   1.1829   1.3937   1.4106   2.0292
     2.0336   2.1905   2.1965   2.3222   2.3321   2.4290   2.4306   2.5839
     2.8202   2.8278   2.9453   3.1653   3.1757   3.2516   3.2543   3.3521
     3.3691   3.5482   3.5805   3.6246   3.8255   3.8273   3.8876   3.8922
     4.1443   4.1506   4.1585   4.3968   4.4351   4.4401   4.4836   4.8179
     4.8211   4.8478   4.9839   5.1515   5.1573   5.1683   5.2317   5.4153
     5.7510   5.9370   5.9424   5.9496   5.9535   6.0177   6.0191   6.0887
     6.1043   6.1289   6.1542   6.1788   6.1846   6.1941   6.2172   6.2404
     6.2493   6.4094   6.5733   6.6736   6.7401   6.7941   6.8870   6.8938
     6.8996   7.0072   7.0154

          k =-0.2500 0.1443 0.1111 (136898 PWs)   bands (ev):

   -18.9181  -6.7521  -6.5424  -5.7512  -5.4603  -5.4011  -5.4008  -4.8626
    -4.8624  -4.7311  -4.7304  -4.5756  -4.5459  -4.4829  -4.4500  -4.4491
    -4.4159  -4.4158  -4.2873  -4.2457  -4.2452  -4.1857  -4.1648  -4.1644
    -4.0621  -4.0620  -4.0258  -4.0256  -4.0255  -3.9989  -3.9771  -3.9770
    -3.8730  -3.8701  -3.8697  -3.8495  -3.8324  -3.8322  -3.8204  -3.8199
    -3.8072  -3.7768  -3.7766  -3.7760  -3.7759  -3.7439  -3.7436  -3.7257
    -3.7256  -3.7128  -3.6695  -3.6690  -3.6379  -3.6237  -3.6222  -3.6173
    -3.6171  -3.5428  -3.5427  -3.5083  -3.5057  -3.5050  -3.4372  -3.4372
    -3.4219  -3.4216  -3.3917  -3.3910  -3.3899  -3.3896  -3.2363  -3.2358
    -3.2136  -3.2111  -3.2061  -3.1896  -3.1892  -3.1639  -3.1635  -3.1136
    -3.1134  -3.0976  -3.0971  -3.0768  -3.0330  -3.0286  -3.0096  -3.0048
    -3.0036  -2.9768  -2.9628  -2.9601  -2.9556  -2.9494  -2.9393  -2.9367
    -2.9000  -2.8999  -2.8780  -2.8761  -2.8748  -2.8734  -2.8709  -2.7949
    -2.7941  -2.7927  -2.7639  -2.7634  -2.7021  -2.7003  -2.6735  -2.6725
    -2.6595  -2.6591  -2.6533  -2.6242  -2.6236  -2.6141  -2.5970  -2.5721
    -2.5715  -2.5704  -2.5502  -2.5498  -2.5389  -2.5384  -2.5363  -2.5347
    -2.5263  -2.4805  -2.4486  -2.4483  -2.4330  -2.4190  -2.4128  -2.4123
    -2.4051  -2.4045  -2.4026  -2.3737  -2.3731  -2.3726  -2.3634  -2.3628
    -2.3462  -2.3193  -2.3180  -2.3178  -2.3171  -2.3166  -2.2707  -2.2407
    -2.2395  -2.2389  -2.2326  -2.2232  -2.2112  -2.2109  -2.1936  -2.1934
    -2.1618  -2.1589  -2.1585  -2.1401  -2.1398  -2.1382  -2.1067  -2.1052
    -2.0659  -2.0628  -2.0570  -2.0546  -2.0544  -2.0485  -2.0480  -2.0457
    -2.0449  -2.0404  -2.0375  -2.0225  -2.0209  -1.8962  -1.8934  -1.8643
    -1.8570  -1.8549  -1.8496  -1.8491  -1.8339  -1.8318  -1.8299  -1.8286
    -1.8273  -1.8038  -1.8003  -1.7957  -1.7952  -1.7849  -1.7835  -1.7612
    -1.7607  -1.7322  -1.7317  -1.7017  -1.6999  -1.6896  -1.6819  -1.6645
    -1.6634  -1.6602  -1.6424  -1.6300  -1.6293  -1.6225  -1.6220  -1.5962
    -1.5953  -1.5792  -1.5784  -1.5506  -1.5460  -1.5368  -1.4869  -1.4854
    -1.4794  -1.4723  -1.4717  -1.4460  -1.4439  -1.4126  -1.4107  -1.4097
    -1.3837  -1.3678  -1.3658  -1.3500  -1.3494  -1.3261  -1.3242  -1.3218
    -1.2919  -1.2896  -1.2895  -1.2271  -1.2260  -1.2178  -1.2134  -1.1988
    -1.1968  -1.1866  -1.1839  -1.1657  -1.1612  -1.1530  -1.1249  -1.1216
    -1.1102  -1.0794  -1.0754  -1.0673  -1.0631  -1.0627  -1.0595  -1.0563
    -1.0418  -1.0357  -1.0122  -1.0116  -1.0018  -0.9989  -0.9979  -0.9759
    -0.9751  -0.9568  -0.9415  -0.9351  -0.8954  -0.8390  -0.8289  -0.8234
    -0.8229  -0.8191  -0.8138  -0.8066  -0.7887  -0.7807  -0.7730  -0.7653
    -0.7582  -0.7519  -0.7491  -0.7287  -0.7274  -0.7189  -0.7171  -0.6459
    -0.6453  -0.6125  -0.6080  -0.6068  -0.6010  -0.5985  -0.5982  -0.5947
    -0.5859  -0.5796  -0.5598  -0.5437  -0.5258  -0.5102  -0.5091  -0.4988
    -0.4954  -0.4857  -0.4852  -0.4839  -0.4827  -0.4770  -0.4655  -0.4610
    -0.4568  -0.4304  -0.4286  -0.4251  -0.4159  -0.4152  -0.3966  -0.3648
    -0.3632  -0.3555  -0.3526  -0.2868  -0.2864  -0.2502  -0.2500  -0.1917
    -0.1913  -0.1908  -0.1726  -0.1636   0.0597   0.0750   0.4093   0.4094
     0.4978   0.5096   0.6952   0.7166   0.7268   0.8562   0.8590   1.2894
     1.2897   1.3072   1.5674   1.5995   1.5998   1.8720   1.8859   1.9546
     1.9558   1.9798   1.9887   2.2109   2.2120   2.3004   2.3011   2.3724
     2.4359   2.4493   2.6037   2.7028   3.1405   3.1425   3.1461   3.1484
     3.1990   3.2018   3.4930   3.4941   3.7705   3.7808   3.8775   4.1894
     4.2289   4.2353   4.4301   4.4685   4.5320   4.5339   4.6244   4.7413
     4.7450   4.8591   4.8616   5.1632   5.2288   5.2335   5.2655   5.4116
     5.4261   5.6176   5.6220   5.6466   5.6488   5.7047   5.7131   5.7489
     5.8140   6.0417   6.2580   6.3126   6.3407   6.4506   6.4528   6.4645
     6.4703   6.5326   6.6373   6.7024   6.7104   6.8106   6.9051   6.9155
     6.9549   7.0205   7.0593

          k =-0.2500-0.1443-0.1111 (136898 PWs)   bands (ev):

   -18.9181  -6.7521  -6.5424  -5.7512  -5.4603  -5.4011  -5.4007  -4.8626
    -4.8624  -4.7313  -4.7302  -4.5756  -4.5459  -4.4830  -4.4500  -4.4492
    -4.4161  -4.4155  -4.2872  -4.2458  -4.2451  -4.1856  -4.1648  -4.1645
    -4.0621  -4.0619  -4.0259  -4.0256  -4.0255  -3.9989  -3.9774  -3.9767
    -3.8729  -3.8702  -3.8697  -3.8494  -3.8325  -3.8322  -3.8204  -3.8200
    -3.8070  -3.7768  -3.7766  -3.7760  -3.7758  -3.7441  -3.7436  -3.7257
    -3.7255  -3.7125  -3.6698  -3.6690  -3.6381  -3.6235  -3.6224  -3.6173
    -3.6171  -3.5429  -3.5427  -3.5080  -3.5056  -3.5050  -3.4375  -3.4373
    -3.4218  -3.4215  -3.3915  -3.3908  -3.3905  -3.3900  -3.2363  -3.2359
    -3.2130  -3.2112  -3.2066  -3.1896  -3.1893  -3.1637  -3.1634  -3.1139
    -3.1134  -3.0980  -3.0970  -3.0768  -3.0321  -3.0283  -3.0110  -3.0048
    -3.0037  -2.9762  -2.9627  -2.9598  -2.9557  -2.9520  -2.9394  -2.9338
    -2.8997  -2.8996  -2.8784  -2.8764  -2.8747  -2.8740  -2.8706  -2.7946
    -2.7940  -2.7927  -2.7639  -2.7634  -2.7024  -2.7006  -2.6734  -2.6722
    -2.6593  -2.6590  -2.6533  -2.6242  -2.6236  -2.6141  -2.5968  -2.5720
    -2.5715  -2.5707  -2.5502  -2.5498  -2.5395  -2.5385  -2.5356  -2.5349
    -2.5264  -2.4804  -2.4487  -2.4485  -2.4329  -2.4192  -2.4126  -2.4124
    -2.4050  -2.4047  -2.4028  -2.3738  -2.3729  -2.3727  -2.3632  -2.3628
    -2.3461  -2.3194  -2.3185  -2.3178  -2.3167  -2.3163  -2.2709  -2.2409
    -2.2394  -2.2391  -2.2324  -2.2232  -2.2114  -2.2104  -2.1934  -2.1933
    -2.1617  -2.1587  -2.1585  -2.1401  -2.1398  -2.1386  -2.1065  -2.1054
    -2.0659  -2.0627  -2.0568  -2.0547  -2.0542  -2.0487  -2.0482  -2.0462
    -2.0451  -2.0395  -2.0377  -2.0224  -2.0211  -1.8958  -1.8939  -1.8631
    -1.8568  -1.8550  -1.8495  -1.8489  -1.8340  -1.8326  -1.8294  -1.8286
    -1.8276  -1.8038  -1.8002  -1.7965  -1.7949  -1.7842  -1.7835  -1.7616
    -1.7609  -1.7324  -1.7320  -1.7012  -1.7004  -1.6894  -1.6819  -1.6642
    -1.6632  -1.6599  -1.6425  -1.6302  -1.6294  -1.6224  -1.6220  -1.5957
    -1.5952  -1.5795  -1.5783  -1.5514  -1.5459  -1.5369  -1.4866  -1.4855
    -1.4783  -1.4721  -1.4715  -1.4463  -1.4438  -1.4139  -1.4109  -1.4100
    -1.3826  -1.3678  -1.3655  -1.3499  -1.3493  -1.3281  -1.3241  -1.3219
    -1.2917  -1.2896  -1.2892  -1.2280  -1.2262  -1.2185  -1.2130  -1.1999
    -1.1968  -1.1872  -1.1839  -1.1653  -1.1563  -1.1526  -1.1253  -1.1225
    -1.1100  -1.0794  -1.0749  -1.0669  -1.0631  -1.0630  -1.0588  -1.0562
    -1.0417  -1.0388  -1.0124  -1.0117  -1.0009  -0.9992  -0.9983  -0.9763
    -0.9749  -0.9563  -0.9423  -0.9346  -0.8957  -0.8394  -0.8287  -0.8233
    -0.8230  -0.8174  -0.8139  -0.8069  -0.7887  -0.7803  -0.7724  -0.7680
    -0.7582  -0.7521  -0.7491  -0.7288  -0.7268  -0.7183  -0.7170  -0.6457
    -0.6453  -0.6118  -0.6080  -0.6070  -0.6005  -0.5988  -0.5984  -0.5943
    -0.5859  -0.5797  -0.5595  -0.5436  -0.5277  -0.5100  -0.5091  -0.4987
    -0.4956  -0.4861  -0.4850  -0.4836  -0.4828  -0.4772  -0.4653  -0.4611
    -0.4564  -0.4303  -0.4289  -0.4250  -0.4162  -0.4142  -0.3967  -0.3648
    -0.3633  -0.3553  -0.3535  -0.2879  -0.2849  -0.2503  -0.2498  -0.1918
    -0.1913  -0.1906  -0.1721  -0.1636   0.0614   0.0724   0.4093   0.4094
     0.4997   0.5081   0.6928   0.7165   0.7294   0.8569   0.8584   1.2895
     1.2897   1.3071   1.5683   1.5993   1.5998   1.8746   1.8824   1.9550
     1.9552   1.9819   1.9870   2.2112   2.2118   2.3005   2.3009   2.3731
     2.4379   2.4461   2.6040   2.7036   3.1406   3.1415   3.1461   3.1483
     3.2006   3.2009   3.4933   3.4936   3.7733   3.7786   3.8774   4.1894
     4.2306   4.2337   4.4369   4.4603   4.5307   4.5364   4.6247   4.7404
     4.7456   4.8597   4.8605   5.1631   5.2256   5.2358   5.2682   5.4060
     5.4287   5.6193   5.6217   5.6465   5.6482   5.7077   5.7109   5.7441
     5.8176   6.0342   6.2614   6.3125   6.3490   6.4524   6.4544   6.4656
     6.4676   6.5319   6.6302   6.7026   6.7078   6.8060   6.9073   6.9239
     6.9525   7.0178   7.0670

          k = 0.2500 0.1443-0.1111 (136898 PWs)   bands (ev):

   -18.9181  -6.7521  -6.5424  -5.7512  -5.4603  -5.4011  -5.4007  -4.8626
    -4.8624  -4.7313  -4.7303  -4.5756  -4.5459  -4.4830  -4.4500  -4.4492
    -4.4161  -4.4155  -4.2872  -4.2458  -4.2451  -4.1856  -4.1648  -4.1645
    -4.0621  -4.0619  -4.0259  -4.0256  -4.0255  -3.9989  -3.9774  -3.9767
    -3.8729  -3.8702  -3.8697  -3.8494  -3.8325  -3.8322  -3.8204  -3.8200
    -3.8070  -3.7768  -3.7766  -3.7760  -3.7758  -3.7441  -3.7436  -3.7257
    -3.7256  -3.7125  -3.6698  -3.6690  -3.6381  -3.6235  -3.6224  -3.6173
    -3.6171  -3.5429  -3.5427  -3.5080  -3.5056  -3.5050  -3.4375  -3.4373
    -3.4218  -3.4215  -3.3915  -3.3908  -3.3905  -3.3900  -3.2363  -3.2359
    -3.2130  -3.2112  -3.2066  -3.1896  -3.1893  -3.1637  -3.1634  -3.1139
    -3.1134  -3.0980  -3.0970  -3.0768  -3.0321  -3.0283  -3.0110  -3.0048
    -3.0037  -2.9762  -2.9627  -2.9598  -2.9557  -2.9520  -2.9394  -2.9338
    -2.8997  -2.8996  -2.8784  -2.8764  -2.8747  -2.8740  -2.8706  -2.7946
    -2.7940  -2.7927  -2.7639  -2.7634  -2.7024  -2.7006  -2.6734  -2.6722
    -2.6593  -2.6590  -2.6533  -2.6242  -2.6236  -2.6141  -2.5968  -2.5720
    -2.5715  -2.5707  -2.5502  -2.5498  -2.5395  -2.5385  -2.5356  -2.5349
    -2.5264  -2.4804  -2.4487  -2.4485  -2.4329  -2.4192  -2.4126  -2.4124
    -2.4050  -2.4047  -2.4028  -2.3738  -2.3729  -2.3727  -2.3632  -2.3628
    -2.3461  -2.3194  -2.3185  -2.3178  -2.3167  -2.3163  -2.2709  -2.2409
    -2.2394  -2.2391  -2.2325  -2.2232  -2.2114  -2.2104  -2.1934  -2.1933
    -2.1617  -2.1587  -2.1585  -2.1401  -2.1398  -2.1386  -2.1065  -2.1054
    -2.0659  -2.0627  -2.0568  -2.0547  -2.0542  -2.0487  -2.0482  -2.0462
    -2.0450  -2.0395  -2.0377  -2.0224  -2.0211  -1.8958  -1.8939  -1.8631
    -1.8568  -1.8550  -1.8495  -1.8489  -1.8340  -1.8326  -1.8294  -1.8286
    -1.8276  -1.8038  -1.8002  -1.7965  -1.7949  -1.7842  -1.7835  -1.7616
    -1.7609  -1.7324  -1.7320  -1.7012  -1.7004  -1.6894  -1.6819  -1.6642
    -1.6632  -1.6599  -1.6425  -1.6302  -1.6294  -1.6224  -1.6220  -1.5957
    -1.5952  -1.5795  -1.5783  -1.5514  -1.5459  -1.5369  -1.4866  -1.4855
    -1.4783  -1.4721  -1.4715  -1.4463  -1.4438  -1.4139  -1.4109  -1.4100
    -1.3826  -1.3678  -1.3655  -1.3499  -1.3493  -1.3281  -1.3241  -1.3219
    -1.2918  -1.2896  -1.2892  -1.2280  -1.2262  -1.2185  -1.2130  -1.1999
    -1.1968  -1.1872  -1.1839  -1.1653  -1.1563  -1.1526  -1.1253  -1.1225
    -1.1100  -1.0794  -1.0749  -1.0669  -1.0631  -1.0630  -1.0588  -1.0562
    -1.0417  -1.0388  -1.0124  -1.0117  -1.0009  -0.9992  -0.9983  -0.9763
    -0.9749  -0.9563  -0.9423  -0.9346  -0.8957  -0.8394  -0.8287  -0.8233
    -0.8230  -0.8174  -0.8139  -0.8069  -0.7887  -0.7803  -0.7724  -0.7680
    -0.7582  -0.7521  -0.7491  -0.7288  -0.7269  -0.7183  -0.7170  -0.6457
    -0.6452  -0.6118  -0.6080  -0.6070  -0.6005  -0.5988  -0.5984  -0.5943
    -0.5859  -0.5797  -0.5595  -0.5436  -0.5277  -0.5100  -0.5091  -0.4987
    -0.4956  -0.4862  -0.4849  -0.4836  -0.4828  -0.4772  -0.4653  -0.4611
    -0.4564  -0.4303  -0.4289  -0.4250  -0.4162  -0.4142  -0.3967  -0.3648
    -0.3633  -0.3553  -0.3534  -0.2879  -0.2849  -0.2503  -0.2498  -0.1918
    -0.1913  -0.1906  -0.1721  -0.1636   0.0614   0.0724   0.4093   0.4094
     0.4997   0.5081   0.6928   0.7165   0.7294   0.8569   0.8584   1.2895
     1.2897   1.3071   1.5683   1.5993   1.5998   1.8746   1.8824   1.9550
     1.9552   1.9819   1.9870   2.2112   2.2118   2.3005   2.3009   2.3731
     2.4379   2.4461   2.6040   2.7036   3.1406   3.1415   3.1461   3.1483
     3.2006   3.2009   3.4933   3.4936   3.7733   3.7786   3.8774   4.1894
     4.2306   4.2337   4.4369   4.4603   4.5307   4.5364   4.6247   4.7404
     4.7456   4.8597   4.8605   5.1630   5.2256   5.2358   5.2681   5.4059
     5.4289   5.6193   5.6217   5.6465   5.6482   5.7077   5.7109   5.7446
     5.8152   6.0380   6.2635   6.3121   6.3489   6.4523   6.4545   6.4653
     6.4675   6.5234   6.6265   6.7020   6.7075   6.8129   6.9075   6.9240
     6.9531   7.0193   7.0715

          k = 0.0000-0.2887 0.1111 (136898 PWs)   bands (ev):

   -18.9181  -6.7521  -6.5425  -5.7512  -5.4603  -5.4011  -5.4008  -4.8626
    -4.8624  -4.7312  -4.7305  -4.5757  -4.5459  -4.4830  -4.4497  -4.4494
    -4.4159  -4.4157  -4.2872  -4.2457  -4.2452  -4.1856  -4.1648  -4.1646
    -4.0620  -4.0619  -4.0259  -4.0256  -4.0255  -3.9989  -3.9771  -3.9769
    -3.8730  -3.8701  -3.8697  -3.8494  -3.8325  -3.8322  -3.8203  -3.8200
    -3.8071  -3.7768  -3.7766  -3.7760  -3.7757  -3.7440  -3.7436  -3.7257
    -3.7256  -3.7126  -3.6695  -3.6691  -3.6381  -3.6233  -3.6224  -3.6173
    -3.6171  -3.5429  -3.5427  -3.5081  -3.5055  -3.5050  -3.4375  -3.4373
    -3.4218  -3.4216  -3.3915  -3.3908  -3.3904  -3.3899  -3.2365  -3.2360
    -3.2124  -3.2112  -3.2071  -3.1895  -3.1893  -3.1638  -3.1633  -3.1139
    -3.1135  -3.0983  -3.0972  -3.0768  -3.0294  -3.0286  -3.0126  -3.0053
    -3.0037  -2.9751  -2.9628  -2.9577  -2.9556  -2.9543  -2.9393  -2.9342
    -2.8997  -2.8992  -2.8782  -2.8777  -2.8746  -2.8744  -2.8704  -2.7947
    -2.7935  -2.7925  -2.7638  -2.7635  -2.7027  -2.7015  -2.6734  -2.6717
    -2.6593  -2.6590  -2.6533  -2.6243  -2.6238  -2.6141  -2.5965  -2.5720
    -2.5713  -2.5704  -2.5502  -2.5499  -2.5392  -2.5387  -2.5359  -2.5346
    -2.5264  -2.4804  -2.4487  -2.4486  -2.4329  -2.4192  -2.4128  -2.4123
    -2.4051  -2.4046  -2.4028  -2.3738  -2.3732  -2.3727  -2.3634  -2.3625
    -2.3461  -2.3191  -2.3184  -2.3180  -2.3166  -2.3162  -2.2709  -2.2410
    -2.2393  -2.2391  -2.2325  -2.2233  -2.2120  -2.2103  -2.1934  -2.1933
    -2.1617  -2.1588  -2.1585  -2.1402  -2.1397  -2.1387  -2.1064  -2.1055
    -2.0658  -2.0627  -2.0567  -2.0547  -2.0543  -2.0487  -2.0484  -2.0463
    -2.0451  -2.0395  -2.0380  -2.0220  -2.0209  -1.8957  -1.8941  -1.8619
    -1.8565  -1.8558  -1.8493  -1.8491  -1.8346  -1.8326  -1.8294  -1.8286
    -1.8272  -1.8038  -1.7994  -1.7978  -1.7946  -1.7842  -1.7834  -1.7615
    -1.7612  -1.7326  -1.7323  -1.7011  -1.7001  -1.6895  -1.6815  -1.6640
    -1.6632  -1.6600  -1.6424  -1.6300  -1.6296  -1.6224  -1.6222  -1.5956
    -1.5952  -1.5796  -1.5783  -1.5516  -1.5467  -1.5363  -1.4862  -1.4858
    -1.4775  -1.4726  -1.4721  -1.4463  -1.4437  -1.4142  -1.4108  -1.4097
    -1.3821  -1.3674  -1.3666  -1.3497  -1.3493  -1.3284  -1.3228  -1.3221
    -1.2918  -1.2897  -1.2892  -1.2273  -1.2270  -1.2186  -1.2140  -1.2004
    -1.1968  -1.1874  -1.1838  -1.1654  -1.1542  -1.1522  -1.1254  -1.1227
    -1.1094  -1.0787  -1.0757  -1.0663  -1.0631  -1.0629  -1.0596  -1.0567
    -1.0417  -1.0405  -1.0121  -1.0118  -1.0014  -0.9993  -0.9981  -0.9758
    -0.9725  -0.9575  -0.9418  -0.9349  -0.8961  -0.8382  -0.8288  -0.8234
    -0.8231  -0.8175  -0.8145  -0.8059  -0.7887  -0.7813  -0.7734  -0.7667
    -0.7582  -0.7523  -0.7492  -0.7288  -0.7272  -0.7185  -0.7162  -0.6457
    -0.6452  -0.6124  -0.6077  -0.6069  -0.6007  -0.5988  -0.5983  -0.5946
    -0.5863  -0.5794  -0.5596  -0.5436  -0.5272  -0.5101  -0.5088  -0.4988
    -0.4958  -0.4861  -0.4850  -0.4837  -0.4825  -0.4769  -0.4654  -0.4611
    -0.4567  -0.4303  -0.4284  -0.4250  -0.4157  -0.4150  -0.3967  -0.3648
    -0.3632  -0.3554  -0.3530  -0.2868  -0.2863  -0.2503  -0.2498  -0.1919
    -0.1911  -0.1908  -0.1726  -0.1635   0.0597   0.0749   0.4093   0.4094
     0.4982   0.5095   0.6935   0.7181   0.7269   0.8563   0.8588   1.2894
     1.2898   1.3073   1.5679   1.5995   1.5997   1.8726   1.8846   1.9544
     1.9558   1.9807   1.9882   2.2109   2.2118   2.3005   2.3010   2.3731
     2.4361   2.4479   2.6038   2.7034   3.1389   3.1435   3.1459   3.1486
     3.1992   3.2022   3.4928   3.4943   3.7721   3.7799   3.8772   4.1895
     4.2298   4.2343   4.4406   4.4581   4.5321   4.5335   4.6252   4.7408
     4.7448   4.8594   4.8617   5.1629   5.2305   5.2342   5.2686   5.3924
     5.4290   5.6186   5.6215   5.6455   5.6490   5.7036   5.7146   5.7439
     5.8292   6.0639   6.2674   6.2963   6.3166   6.4518   6.4533   6.4645
     6.4698   6.5249   6.6394   6.7006   6.7086   6.8436   6.8631   6.9333
     6.9521   7.0214   7.0543

          k = 0.0000 0.2887 0.1111 (136898 PWs)   bands (ev):

   -18.9181  -6.7521  -6.5425  -5.7512  -5.4603  -5.4011  -5.4008  -4.8626
    -4.8624  -4.7312  -4.7305  -4.5757  -4.5459  -4.4830  -4.4497  -4.4494
    -4.4159  -4.4157  -4.2872  -4.2457  -4.2452  -4.1856  -4.1648  -4.1646
    -4.0620  -4.0619  -4.0259  -4.0256  -4.0255  -3.9989  -3.9771  -3.9769
    -3.8730  -3.8701  -3.8697  -3.8494  -3.8325  -3.8322  -3.8203  -3.8200
    -3.8071  -3.7768  -3.7766  -3.7760  -3.7757  -3.7440  -3.7436  -3.7257
    -3.7256  -3.7126  -3.6695  -3.6691  -3.6381  -3.6233  -3.6224  -3.6173
    -3.6171  -3.5429  -3.5427  -3.5081  -3.5055  -3.5051  -3.4375  -3.4373
    -3.4218  -3.4216  -3.3915  -3.3908  -3.3904  -3.3899  -3.2365  -3.2360
    -3.2124  -3.2112  -3.2071  -3.1895  -3.1893  -3.1638  -3.1633  -3.1139
    -3.1135  -3.0983  -3.0972  -3.0768  -3.0294  -3.0286  -3.0126  -3.0053
    -3.0037  -2.9751  -2.9628  -2.9577  -2.9556  -2.9543  -2.9393  -2.9342
    -2.8997  -2.8992  -2.8782  -2.8777  -2.8746  -2.8744  -2.8704  -2.7947
    -2.7935  -2.7925  -2.7638  -2.7635  -2.7026  -2.7015  -2.6734  -2.6717
    -2.6593  -2.6590  -2.6533  -2.6243  -2.6238  -2.6141  -2.5965  -2.5720
    -2.5713  -2.5704  -2.5502  -2.5499  -2.5392  -2.5387  -2.5359  -2.5346
    -2.5264  -2.4804  -2.4487  -2.4486  -2.4329  -2.4192  -2.4128  -2.4123
    -2.4051  -2.4046  -2.4028  -2.3738  -2.3732  -2.3727  -2.3634  -2.3625
    -2.3461  -2.3191  -2.3184  -2.3180  -2.3166  -2.3162  -2.2709  -2.2410
    -2.2393  -2.2390  -2.2325  -2.2232  -2.2120  -2.2103  -2.1934  -2.1933
    -2.1617  -2.1588  -2.1585  -2.1402  -2.1397  -2.1387  -2.1064  -2.1055
    -2.0658  -2.0627  -2.0567  -2.0547  -2.0543  -2.0487  -2.0484  -2.0463
    -2.0451  -2.0395  -2.0380  -2.0220  -2.0209  -1.8957  -1.8941  -1.8619
    -1.8565  -1.8558  -1.8493  -1.8491  -1.8346  -1.8326  -1.8294  -1.8286
    -1.8272  -1.8038  -1.7994  -1.7978  -1.7946  -1.7842  -1.7834  -1.7615
    -1.7612  -1.7326  -1.7323  -1.7011  -1.7001  -1.6895  -1.6815  -1.6640
    -1.6632  -1.6600  -1.6424  -1.6300  -1.6296  -1.6224  -1.6222  -1.5956
    -1.5952  -1.5795  -1.5783  -1.5516  -1.5467  -1.5363  -1.4862  -1.4858
    -1.4775  -1.4726  -1.4721  -1.4463  -1.4437  -1.4142  -1.4108  -1.4097
    -1.3821  -1.3674  -1.3666  -1.3497  -1.3493  -1.3284  -1.3228  -1.3221
    -1.2918  -1.2897  -1.2892  -1.2273  -1.2270  -1.2186  -1.2140  -1.2004
    -1.1968  -1.1874  -1.1838  -1.1654  -1.1542  -1.1522  -1.1254  -1.1227
    -1.1094  -1.0787  -1.0757  -1.0663  -1.0631  -1.0629  -1.0596  -1.0567
    -1.0417  -1.0405  -1.0121  -1.0118  -1.0014  -0.9993  -0.9981  -0.9758
    -0.9725  -0.9575  -0.9418  -0.9349  -0.8961  -0.8382  -0.8288  -0.8234
    -0.8231  -0.8175  -0.8145  -0.8059  -0.7887  -0.7813  -0.7734  -0.7667
    -0.7582  -0.7523  -0.7492  -0.7288  -0.7272  -0.7185  -0.7162  -0.6457
    -0.6452  -0.6124  -0.6077  -0.6069  -0.6007  -0.5988  -0.5983  -0.5946
    -0.5863  -0.5794  -0.5596  -0.5436  -0.5272  -0.5101  -0.5088  -0.4988
    -0.4958  -0.4861  -0.4850  -0.4837  -0.4825  -0.4769  -0.4654  -0.4611
    -0.4567  -0.4303  -0.4284  -0.4250  -0.4157  -0.4150  -0.3967  -0.3648
    -0.3632  -0.3554  -0.3530  -0.2868  -0.2863  -0.2503  -0.2498  -0.1919
    -0.1911  -0.1908  -0.1726  -0.1635   0.0597   0.0749   0.4093   0.4094
     0.4982   0.5095   0.6935   0.7181   0.7269   0.8563   0.8588   1.2894
     1.2898   1.3073   1.5679   1.5995   1.5997   1.8726   1.8846   1.9544
     1.9558   1.9807   1.9882   2.2109   2.2118   2.3005   2.3010   2.3731
     2.4361   2.4479   2.6038   2.7034   3.1389   3.1435   3.1459   3.1486
     3.1992   3.2022   3.4928   3.4943   3.7721   3.7799   3.8772   4.1895
     4.2298   4.2343   4.4406   4.4581   4.5321   4.5335   4.6252   4.7408
     4.7448   4.8594   4.8617   5.1629   5.2304   5.2342   5.2687   5.3924
     5.4289   5.6186   5.6215   5.6455   5.6490   5.7036   5.7146   5.7433
     5.8315   6.0611   6.2645   6.2966   6.3166   6.4518   6.4533   6.4645
     6.4697   6.5351   6.6359   6.7015   6.7087   6.8374   6.8624   6.9333
     6.9520   7.0271   7.0610

     the Fermi energy is     1.4333 ev

!    total energy              =   -6604.43500827 Ry
     Harris-Foulkes estimate   =   -6604.43500827 Ry
     estimated scf accuracy    <          3.2E-09 Ry

     The total energy is the sum of the following terms:

     one-electron contribution =  -48632.74269058 Ry
     hartree contribution      =   24817.45113946 Ry
     xc contribution           =   -3204.96833323 Ry
     ewald contribution        =   20415.82199715 Ry
     smearing contrib. (-TS)   =       0.00287893 Ry

     convergence has been achieved in  25 iterations

     Writing output data file 4277357.save

     init_run     :    138.02s CPU    146.68s WALL (       1 calls)
     electrons    :   8134.84s CPU   8913.33s WALL (       1 calls)

     Called by init_run:
     wfcinit      :    112.48s CPU    120.56s WALL (       1 calls)
     potinit      :      8.50s CPU      8.84s WALL (       1 calls)

     Called by electrons:
     c_bands      :   7029.02s CPU   7694.19s WALL (      26 calls)
     sum_band     :    856.12s CPU    948.57s WALL (      26 calls)
     v_of_rho     :     87.76s CPU     99.30s WALL (      26 calls)
     newd         :    165.84s CPU    168.88s WALL (      26 calls)
     mix_rho      :      3.07s CPU      3.48s WALL (      26 calls)
     vdW_energy   :      8.96s CPU     10.06s WALL (      26 calls)
     vdW_ffts     :     39.23s CPU     44.79s WALL (      52 calls)
     vdW_v        :     11.01s CPU     11.82s WALL (      26 calls)

     Called by c_bands:
     init_us_2    :     17.16s CPU     17.68s WALL (     636 calls)
     cegterg      :   6949.80s CPU   7389.05s WALL (     312 calls)

     Called by *egterg:
     h_psi        :   2858.28s CPU   3232.79s WALL (    1614 calls)
     s_psi        :    458.08s CPU    460.99s WALL (    1614 calls)
     g_psi        :      6.37s CPU      6.41s WALL (    1290 calls)
     cdiaghg      :   2170.35s CPU   2176.75s WALL (    1590 calls)

     Called by h_psi:
     add_vuspsi   :    459.82s CPU    462.81s WALL (    1614 calls)

     General routines
     calbec       :    668.28s CPU    670.80s WALL (    1926 calls)
     fft          :     90.06s CPU    100.21s WALL (    1716 calls)
     ffts         :      1.36s CPU      1.55s WALL (      52 calls)
     fftw         :   1994.44s CPU   2386.42s WALL (  754712 calls)
     interpolate  :      4.40s CPU      5.06s WALL (      52 calls)
     davcio       :      0.00s CPU      0.19s WALL (      12 calls)

     Parallel routines
     fft_scatter  :   1302.22s CPU   1580.20s WALL (  756480 calls)

     PWSCF        :     2h18m CPU        2h31m WALL


   This run was terminated on:  21: 4:49  29Aug2015            

=------------------------------------------------------------------------------=
   JOB DONE.
=------------------------------------------------------------------------------=
