
     Program PWSCF v.5.1.2 starts on 25Jun2015 at  1:48:47 

     This program is part of the open-source Quantum ESPRESSO suite
     for quantum simulation of materials; please cite
         "P. Giannozzi et al., J. Phys.:Condens. Matter 21 395502 (2009);
          URL http://www.quantum-espresso.org", 
     in publications or presentations arising from this work. More details at
     http://www.quantum-espresso.org/quote

     Parallel version (MPI), running on    32 processors
     R & G space division:  proc/nbgrp/npool/nimage =      32
     Reading input from top.O1.Au50.d.3.4.phi.25.psi.90.in
Warning: card &IONS ignored
Warning: card / ignored
Warning: card &CELL ignored
Warning: card / ignored

     Current dimensions of program PWSCF are:
     Max number of different atomic species (ntypx) = 10
     Max number of k-points (npk) =  40000
     Max angular momentum in pseudopotentials (lmaxx) =  3

     IMPORTANT: XC functional enforced from input :
     Exchange-correlation      = VDW-DF ( 1  4  4  0 1 0)
     Any further DFT definition will be discarded
     Please, verify this is what you really want


     Subspace diagonalization in iterative solution of the eigenvalue problem:
     a serial algorithm will be used


     Parallelization info
     --------------------
     sticks:   dense  smooth     PW     G-vecs:    dense   smooth      PW
     Min         445     223     58                96775    34191    4534
     Max         446     224     59                96790    34246    4540
     Sum       14269    7147   1867              3097177  1095093  145167


     Title: 
     top.O1.Au50.d.3.4.phi.25.psi.90                                            


     bravais-lattice index     =            4
     lattice parameter (alat)  =      22.7436  a.u.
     unit-cell volume          =   22924.1508 (a.u.)^3
     number of atoms/cell      =           67
     number of atomic types    =            3
     number of electrons       =       712.00
     number of Kohn-Sham states=          427
     kinetic-energy cutoff     =      50.0000  Ry
     charge density cutoff     =     400.0000  Ry
     convergence threshold     =      1.0E-08
     mixing beta               =       0.7000
     number of iterations used =            8  plain     mixing
     Exchange-correlation      = VDW-DF ( 1  4  4  0 1 0)

     celldm(1)=  22.743643  celldm(2)=   0.000000  celldm(3)=   2.250000
     celldm(4)=   0.000000  celldm(5)=   0.000000  celldm(6)=   0.000000

     crystal axes: (cart. coord. in units of alat)
               a(1) = (   1.000000   0.000000   0.000000 )  
               a(2) = (  -0.500000   0.866025   0.000000 )  
               a(3) = (   0.000000   0.000000   2.250000 )  

     reciprocal axes: (cart. coord. in units 2 pi/alat)
               b(1) = (  1.000000  0.577350 -0.000000 )  
               b(2) = (  0.000000  1.154701  0.000000 )  
               b(3) = (  0.000000 -0.000000  0.444444 )  


     PseudoPot. # 1 for Au read from file:
     /home/scc/andrejb/qe/pseudo/Au.pbe-nd-van.UPF
     MD5 check sum: 458681b50f36d87ef23c61b04bba420a
     Pseudo is Ultrasoft + core correction, Zval = 11.0
     Generated by new atomic code, or converted to UPF format
     Using radial grid of  985 points,  3 beta functions with: 
                l(1) =   1
                l(2) =   2
                l(3) =   2
     Q(r) pseudized with  8 coefficients,  rinner =    1.100   1.100   1.100
                                                       1.100   1.100

     PseudoPot. # 2 for H  read from file:
     /home/scc/andrejb/qe/pseudo/H.pbe-van_ak.UPF
     MD5 check sum: 403db7282739603aa925980fa9b8608d
     Pseudo is Ultrasoft, Zval =  1.0
     Generated by new atomic code, or converted to UPF format
     Using radial grid of  615 points,  1 beta functions with: 
                l(1) =   0
     Q(r) pseudized with  8 coefficients,  rinner =    0.800

     PseudoPot. # 3 for O  read from file:
     /home/scc/andrejb/qe/pseudo/O.pbe-van_ak.UPF
     MD5 check sum: 4b8c549914a63cae506c6ff22b5af4fe
     Pseudo is Ultrasoft, Zval =  6.0
     Generated by new atomic code, or converted to UPF format
     Using radial grid of  737 points,  4 beta functions with: 
                l(1) =   0
                l(2) =   0
                l(3) =   1
                l(4) =   1
     Q(r) pseudized with  8 coefficients,  rinner =    0.800   0.800   0.800


     vdW kernel table read from file vdW_kernel_table
     MD5 check sum: 48e77a2e26edf626eeb0eaa751ad5cac

     atomic species   valence    mass     pseudopotential
        Au            11.00   196.96657     Au( 1.00)
        H              1.00     1.01000     H ( 1.00)
        O              6.00    16.00000     O ( 1.00)

     No symmetry found



   Cartesian axes

     site n.     atom                  positions (alat units)
         1           O   tau(   1) = (   0.4790780   0.3968269   0.8954964  )
         2           H   tau(   2) = (   0.4518956   0.3485733   0.8364992  )
         3           H   tau(   3) = (   0.5054281   0.3460662   0.9527219  )
         4           Au  tau(   4) = (   0.3540481   0.6132292   0.0000000  )
         5           Au  tau(   5) = (   0.4790062   0.3967954   0.0000000  )
         6           Au  tau(   6) = (   0.6039644   0.1803616   0.0000000  )
         7           Au  tau(   7) = (   0.7289225  -0.0360723   0.0000000  )
         8           Au  tau(   8) = (   0.1041318   0.6132292   0.0000000  )
         9           Au  tau(   9) = (   0.2290899   0.3967954   0.0000000  )
        10           Au  tau(  10) = (   0.3540481   0.1803616   0.0000000  )
        11           Au  tau(  11) = (   0.4790062  -0.0360723   0.0000000  )
        12           Au  tau(  12) = (  -0.1457845   0.6132292   0.0000000  )
        13           Au  tau(  13) = (  -0.0208264   0.3967954   0.0000000  )
        14           Au  tau(  14) = (   0.1041318   0.1803616   0.0000000  )
        15           Au  tau(  15) = (   0.2290899  -0.0360723   0.0000000  )
        16           Au  tau(  16) = (  -0.3957008   0.6132292   0.0000000  )
        17           Au  tau(  17) = (  -0.2707426   0.3967954   0.0000000  )
        18           Au  tau(  18) = (  -0.1457845   0.1803616   0.0000000  )
        19           Au  tau(  19) = (  -0.0208264  -0.0360723   0.0000000  )
        20           Au  tau(  20) = (   0.4790062   0.6853738   0.2040557  )
        21           Au  tau(  21) = (   0.6039644   0.4689400   0.2040557  )
        22           Au  tau(  22) = (   0.7289225   0.2525062   0.2040557  )
        23           Au  tau(  23) = (   0.8538806   0.0360723   0.2040557  )
        24           Au  tau(  24) = (   0.2290899   0.6853738   0.2040557  )
        25           Au  tau(  25) = (   0.3540481   0.4689400   0.2040557  )
        26           Au  tau(  26) = (   0.4790062   0.2525062   0.2040557  )
        27           Au  tau(  27) = (   0.6039644   0.0360723   0.2040557  )
        28           Au  tau(  28) = (  -0.0208264   0.6853738   0.2040557  )
        29           Au  tau(  29) = (   0.1041318   0.4689400   0.2040557  )
        30           Au  tau(  30) = (   0.2290899   0.2525062   0.2040557  )
        31           Au  tau(  31) = (   0.3540481   0.0360723   0.2040557  )
        32           Au  tau(  32) = (  -0.2707426   0.6853738   0.2040557  )
        33           Au  tau(  33) = (  -0.1457845   0.4689400   0.2040557  )
        34           Au  tau(  34) = (  -0.0208264   0.2525062   0.2040557  )
        35           Au  tau(  35) = (   0.1041318   0.0360723   0.2040557  )
        36           Au  tau(  36) = (   0.3541162   0.7576593   0.4066483  )
        37           Au  tau(  37) = (   0.4791000   0.5411421   0.4066696  )
        38           Au  tau(  38) = (   0.6040570   0.3246862   0.4066618  )
        39           Au  tau(  39) = (   0.7290270   0.1081684   0.4066530  )
        40           Au  tau(  40) = (   0.1041162   0.7576236   0.4066247  )
        41           Au  tau(  41) = (   0.2291001   0.5411062   0.4066455  )
        42           Au  tau(  42) = (   0.3540567   0.3246505   0.4066380  )
        43           Au  tau(  43) = (   0.4790276   0.1081324   0.4066292  )
        44           Au  tau(  44) = (  -0.1458201   0.7576104   0.4066225  )
        45           Au  tau(  45) = (  -0.0208365   0.5410930   0.4066438  )
        46           Au  tau(  46) = (   0.1041202   0.3246372   0.4066359  )
        47           Au  tau(  47) = (   0.2290908   0.1081193   0.4066273  )
        48           Au  tau(  48) = (  -0.3958167   0.7575791   0.4065812  )
        49           Au  tau(  49) = (  -0.2708328   0.5410617   0.4066025  )
        50           Au  tau(  50) = (  -0.1458763   0.3246061   0.4065947  )
        51           Au  tau(  51) = (  -0.0209056   0.1080882   0.4065858  )
        52           Au  tau(  52) = (   0.3541084   0.6133344   0.6129762  )
        53           Au  tau(  53) = (   0.4790780   0.3968269   0.6129968  )
        54           Au  tau(  54) = (   0.6040356   0.1803811   0.6129859  )
        55           Au  tau(  55) = (   0.7290165  -0.0361221   0.6129385  )
        56           Au  tau(  56) = (   0.1041243   0.6133091   0.6130023  )
        57           Au  tau(  57) = (   0.2290941   0.3968013   0.6130241  )
        58           Au  tau(  58) = (   0.3540515   0.1803552   0.6130121  )
        59           Au  tau(  59) = (   0.4790323  -0.0361475   0.6129659  )
        60           Au  tau(  60) = (  -0.1458030   0.6133014   0.6129980  )
        61           Au  tau(  61) = (  -0.0208339   0.3967936   0.6130189  )
        62           Au  tau(  62) = (   0.1041239   0.1803477   0.6130083  )
        63           Au  tau(  63) = (   0.2291046  -0.0361554   0.6129607  )
        64           Au  tau(  64) = (  -0.3957908   0.6132739   0.6129471  )
        65           Au  tau(  65) = (  -0.2708208   0.3967658   0.6129688  )
        66           Au  tau(  66) = (  -0.1458636   0.1803200   0.6129569  )
        67           Au  tau(  67) = (  -0.0208823  -0.0361826   0.6129110  )

     number of k points=    12  Marzari-Vanderbilt smearing, width (Ry)=  0.0200
                       cart. coord. in units 2pi/alat
        k(    1) = (   0.2500000   0.4330127   0.1111111), wk =   0.1666667
        k(    2) = (   0.2500000  -0.1443376   0.1111111), wk =   0.1666667
        k(    3) = (  -0.2500000  -0.4330127   0.1111111), wk =   0.1666667
        k(    4) = (  -0.2500000   0.4330127  -0.1111111), wk =   0.1666667
        k(    5) = (   0.2500000  -0.4330127  -0.1111111), wk =   0.1666667
        k(    6) = (   0.5000000   0.0000000   0.1111111), wk =   0.1666667
        k(    7) = (  -0.5000000   0.0000000   0.1111111), wk =   0.1666667
        k(    8) = (  -0.2500000   0.1443376   0.1111111), wk =   0.1666667
        k(    9) = (  -0.2500000  -0.1443376  -0.1111111), wk =   0.1666667
        k(   10) = (   0.2500000   0.1443376  -0.1111111), wk =   0.1666667
        k(   11) = (   0.0000000  -0.2886751   0.1111111), wk =   0.1666667
        k(   12) = (   0.0000000   0.2886751   0.1111111), wk =   0.1666667

     Dense  grid:  3097177 G-vectors     FFT dimensions: ( 150, 150, 360)

     Smooth grid:  1095093 G-vectors     FFT dimensions: ( 108, 108, 240)

     Largest allocated arrays     est. size (Mb)     dimensions
        Kohn-Sham Wavefunctions        28.01 Mb     (    4299,  427)
        NL pseudopotentials            55.23 Mb     (    4299,  842)
        Each V/rho on FFT grid          4.12 Mb     (  270000)
        Each G-vector array             0.74 Mb     (   96788)
        G-vector shells                 0.16 Mb     (   21404)
     Largest temporary arrays     est. size (Mb)     dimensions
        Auxiliary wavefunctions       112.04 Mb     (    4299, 1708)
        Each subspace H/S matrix       44.51 Mb     (    1708, 1708)
        Each <psi_i|beta_j> matrix      5.49 Mb     (     842,  427)
        Arrays for rho mixing          32.96 Mb     (  270000,    8)

     Initial potential from superposition of free atoms
     Check: negative starting charge=   -1.730206

     starting charge  711.25682, renormalised to  712.00000

     negative rho (up, down):  1.732E+00 0.000E+00


     ************************************************************************
     *
     * You are using vdW-DF for exchange-correlation in this calculation.
     * Please cite the following three references that made this development
     * possible:
     *
     *   M. Dion, H. Rydberg, E. Schroder, D. C. Langreth, and
     *   B. I. Lundqvist, Phys. Rev. Lett. 92, 246401 (2004).
     *
     *   T. Thonhauser, V. R. Cooper, S. Li, A. Puzder, P. Hyldgaard, and
     *   D. C. Langreth, Phys. Rev. B 76, 125112 (2007).
     *
     *   G. Roman-Perez and J. M. Soler, Phys. Rev. Lett. 103, 096102 (2009).
     *
     *
     * If you are using vdW-DF2, please also cite:
     *
     *   K. Lee, E. D. Murray, L. Kong, B. I. Lundqvist, and
     *   D. C. Langreth, Phys. Rev. B 82, 081101(R) (2010).
     *
     *
     * If you are calculating the stress with vdW-DF, please also cite:
     *
     *   R. Sabatini, E. Kucukbenli, B. Kolb, T. Thonhauser, and
     *   S. de Gironcoli, J. Phys.: Condens. Matter 24, 424209 (2012).
     *
     ************************************************************************

     Carrying out vdW-DF run using the following parameters:

     Nqs =      20    Nr_points =    1024   r_max =   100.000
     q_mesh =
               0.00001000     0.04494208     0.09755937     0.15916263
               0.23128650     0.31572767     0.41458969     0.53033537
               0.66584808     0.82450364     1.01025438     1.22772762
               1.48234092     1.78043706     2.12944203     2.53805004
               3.01644009     3.57652955     4.23227104     5.00000000

     Gradients computed in reciprocal space

     ************************************************************************


     Starting wfc are  582 randomized atomic wfcs

     total cpu time spent up to now is      154.4 secs

     Self-consistent Calculation

     iteration #  1     ecut=    50.00 Ry     beta=0.70
     Davidson diagonalization with overlap
     ethr =  1.00E-02,  avg # of iterations =  3.0

     Threshold (ethr) on eigenvalues was too large:
     Diagonalizing with lowered threshold

     Davidson diagonalization with overlap
     ethr =  3.48E-04,  avg # of iterations =  4.3

     negative rho (up, down):  1.727E+00 0.000E+00

     total cpu time spent up to now is      693.5 secs

     total energy              =   -6602.78959983 Ry
     Harris-Foulkes estimate   =   -6605.03753759 Ry
     estimated scf accuracy    <       2.81755481 Ry

     iteration #  2     ecut=    50.00 Ry     beta=0.70
     Davidson diagonalization with overlap
     ethr =  3.96E-04,  avg # of iterations = 11.5

     negative rho (up, down):  1.726E+00 0.000E+00

     total cpu time spent up to now is     1622.1 secs

     total energy              =   -6596.81229076 Ry
     Harris-Foulkes estimate   =   -6610.11834582 Ry
     estimated scf accuracy    <      73.72492191 Ry

     iteration #  3     ecut=    50.00 Ry     beta=0.70
     Davidson diagonalization with overlap
     ethr =  3.96E-04,  avg # of iterations =  6.4

     negative rho (up, down):  1.737E+00 0.000E+00

     total cpu time spent up to now is     2237.8 secs

     total energy              =   -6603.13900962 Ry
     Harris-Foulkes estimate   =   -6605.00738602 Ry
     estimated scf accuracy    <       8.55978539 Ry

     iteration #  4     ecut=    50.00 Ry     beta=0.70
     Davidson diagonalization with overlap
     ethr =  3.96E-04,  avg # of iterations =  6.7

     negative rho (up, down):  1.738E+00 0.000E+00

     total cpu time spent up to now is     2603.6 secs

     total energy              =   -6603.59438486 Ry
     Harris-Foulkes estimate   =   -6605.09011148 Ry
     estimated scf accuracy    <      13.18328352 Ry

     iteration #  5     ecut=    50.00 Ry     beta=0.70
     Davidson diagonalization with overlap
     ethr =  3.96E-04,  avg # of iterations =  6.3

     negative rho (up, down):  1.748E+00 0.000E+00

     total cpu time spent up to now is     2941.8 secs

     total energy              =   -6604.30290001 Ry
     Harris-Foulkes estimate   =   -6604.65046327 Ry
     estimated scf accuracy    <       2.64412680 Ry

     iteration #  6     ecut=    50.00 Ry     beta=0.70
     Davidson diagonalization with overlap
     ethr =  3.71E-04,  avg # of iterations =  2.6

     negative rho (up, down):  1.752E+00 0.000E+00

     total cpu time spent up to now is     3205.5 secs

     total energy              =   -6604.42789573 Ry
     Harris-Foulkes estimate   =   -6604.46972410 Ry
     estimated scf accuracy    <       0.12812201 Ry

     iteration #  7     ecut=    50.00 Ry     beta=0.70
     Davidson diagonalization with overlap
     ethr =  1.80E-05,  avg # of iterations = 11.3

     negative rho (up, down):  1.755E+00 0.000E+00

     total cpu time spent up to now is     3678.5 secs

     total energy              =   -6604.43246420 Ry
     Harris-Foulkes estimate   =   -6604.45962947 Ry
     estimated scf accuracy    <       0.11726108 Ry

     iteration #  8     ecut=    50.00 Ry     beta=0.70
     Davidson diagonalization with overlap
     ethr =  1.65E-05,  avg # of iterations =  3.4

     negative rho (up, down):  1.756E+00 0.000E+00

     total cpu time spent up to now is     3957.9 secs

     total energy              =   -6604.43517159 Ry
     Harris-Foulkes estimate   =   -6604.44831568 Ry
     estimated scf accuracy    <       0.04970815 Ry

     iteration #  9     ecut=    50.00 Ry     beta=0.70
     Davidson diagonalization with overlap
     ethr =  6.98E-06,  avg # of iterations =  5.6

     negative rho (up, down):  1.756E+00 0.000E+00

     total cpu time spent up to now is     4286.4 secs

     total energy              =   -6604.43473172 Ry
     Harris-Foulkes estimate   =   -6604.44113015 Ry
     estimated scf accuracy    <       0.02273280 Ry

     iteration # 10     ecut=    50.00 Ry     beta=0.70
     Davidson diagonalization with overlap
     ethr =  3.19E-06,  avg # of iterations =  6.1

     negative rho (up, down):  1.757E+00 0.000E+00

     total cpu time spent up to now is     4631.1 secs

     total energy              =   -6604.43418877 Ry
     Harris-Foulkes estimate   =   -6604.43716625 Ry
     estimated scf accuracy    <       0.01049858 Ry

     iteration # 11     ecut=    50.00 Ry     beta=0.70
     Davidson diagonalization with overlap
     ethr =  1.47E-06,  avg # of iterations =  5.6

     negative rho (up, down):  1.758E+00 0.000E+00

     total cpu time spent up to now is     4962.2 secs

     total energy              =   -6604.43397685 Ry
     Harris-Foulkes estimate   =   -6604.43534558 Ry
     estimated scf accuracy    <       0.00554914 Ry

     iteration # 12     ecut=    50.00 Ry     beta=0.70
     Davidson diagonalization with overlap
     ethr =  7.79E-07,  avg # of iterations =  4.5

     negative rho (up, down):  1.758E+00 0.000E+00

     total cpu time spent up to now is     5275.5 secs

     total energy              =   -6604.43352587 Ry
     Harris-Foulkes estimate   =   -6604.43444993 Ry
     estimated scf accuracy    <       0.00153972 Ry

     iteration # 13     ecut=    50.00 Ry     beta=0.70
     Davidson diagonalization with overlap
     ethr =  2.16E-07,  avg # of iterations =  7.2

     negative rho (up, down):  1.758E+00 0.000E+00

     total cpu time spent up to now is     5665.0 secs

     total energy              =   -6604.43374618 Ry
     Harris-Foulkes estimate   =   -6604.43394508 Ry
     estimated scf accuracy    <       0.00055865 Ry

     iteration # 14     ecut=    50.00 Ry     beta=0.70
     Davidson diagonalization with overlap
     ethr =  7.85E-08,  avg # of iterations =  2.0

     negative rho (up, down):  1.758E+00 0.000E+00

     total cpu time spent up to now is     5927.0 secs

     total energy              =   -6604.43381938 Ry
     Harris-Foulkes estimate   =   -6604.43390600 Ry
     estimated scf accuracy    <       0.00034095 Ry

     iteration # 15     ecut=    50.00 Ry     beta=0.70
     Davidson diagonalization with overlap
     ethr =  4.79E-08,  avg # of iterations =  2.0

     negative rho (up, down):  1.758E+00 0.000E+00

     total cpu time spent up to now is     6184.2 secs

     total energy              =   -6604.43384950 Ry
     Harris-Foulkes estimate   =   -6604.43388431 Ry
     estimated scf accuracy    <       0.00012680 Ry

     iteration # 16     ecut=    50.00 Ry     beta=0.70
     Davidson diagonalization with overlap
     ethr =  1.78E-08,  avg # of iterations =  2.0

     negative rho (up, down):  1.758E+00 0.000E+00

     total cpu time spent up to now is     6442.8 secs

     total energy              =   -6604.43384905 Ry
     Harris-Foulkes estimate   =   -6604.43388526 Ry
     estimated scf accuracy    <       0.00034733 Ry

     iteration # 17     ecut=    50.00 Ry     beta=0.70
     Davidson diagonalization with overlap
     ethr =  1.78E-08,  avg # of iterations =  1.0

     negative rho (up, down):  1.758E+00 0.000E+00

     total cpu time spent up to now is     6665.2 secs

     total energy              =   -6604.43386795 Ry
     Harris-Foulkes estimate   =   -6604.43387162 Ry
     estimated scf accuracy    <       0.00002583 Ry

     iteration # 18     ecut=    50.00 Ry     beta=0.70
     Davidson diagonalization with overlap
     ethr =  3.63E-09,  avg # of iterations =  2.0

     negative rho (up, down):  1.758E+00 0.000E+00

     total cpu time spent up to now is     7012.8 secs

     total energy              =   -6604.43386864 Ry
     Harris-Foulkes estimate   =   -6604.43387147 Ry
     estimated scf accuracy    <       0.00001058 Ry

     iteration # 19     ecut=    50.00 Ry     beta=0.70
     Davidson diagonalization with overlap
     ethr =  1.49E-09,  avg # of iterations =  2.0

     negative rho (up, down):  1.758E+00 0.000E+00

     total cpu time spent up to now is     7359.2 secs

     total energy              =   -6604.43387010 Ry
     Harris-Foulkes estimate   =   -6604.43387052 Ry
     estimated scf accuracy    <       0.00000175 Ry

     iteration # 20     ecut=    50.00 Ry     beta=0.70
     Davidson diagonalization with overlap
     ethr =  2.46E-10,  avg # of iterations =  2.0

     negative rho (up, down):  1.758E+00 0.000E+00

     total cpu time spent up to now is     7683.7 secs

     total energy              =   -6604.43387045 Ry
     Harris-Foulkes estimate   =   -6604.43387044 Ry
     estimated scf accuracy    <       0.00000017 Ry

     iteration # 21     ecut=    50.00 Ry     beta=0.70
     Davidson diagonalization with overlap
     ethr =  2.32E-11,  avg # of iterations =  2.7

     negative rho (up, down):  1.758E+00 0.000E+00

     total cpu time spent up to now is     8130.1 secs

     total energy              =   -6604.43387048 Ry
     Harris-Foulkes estimate   =   -6604.43387052 Ry
     estimated scf accuracy    <       0.00000019 Ry

     iteration # 22     ecut=    50.00 Ry     beta=0.70
     Davidson diagonalization with overlap
     ethr =  2.32E-11,  avg # of iterations =  2.0

     negative rho (up, down):  1.758E+00 0.000E+00

     total cpu time spent up to now is     8466.5 secs

     total energy              =   -6604.43387051 Ry
     Harris-Foulkes estimate   =   -6604.43387051 Ry
     estimated scf accuracy    <       0.00000001 Ry

     iteration # 23     ecut=    50.00 Ry     beta=0.70
     Davidson diagonalization with overlap
     ethr =  1.79E-12,  avg # of iterations =  3.5

     negative rho (up, down):  1.758E+00 0.000E+00

     total cpu time spent up to now is     8993.2 secs

     total energy              =   -6604.43387052 Ry
     Harris-Foulkes estimate   =   -6604.43387052 Ry
     estimated scf accuracy    <       0.00000001 Ry

     iteration # 24     ecut=    50.00 Ry     beta=0.70
     Davidson diagonalization with overlap
     ethr =  1.64E-12,  avg # of iterations =  3.0

     negative rho (up, down):  1.758E+00 0.000E+00

     total cpu time spent up to now is     9441.0 secs

     total energy              =   -6604.43387052 Ry
     Harris-Foulkes estimate   =   -6604.43387052 Ry
     estimated scf accuracy    <       0.00000001 Ry

     iteration # 25     ecut=    50.00 Ry     beta=0.70
     Davidson diagonalization with overlap
     ethr =  1.64E-12,  avg # of iterations =  2.0

     negative rho (up, down):  1.758E+00 0.000E+00

     total cpu time spent up to now is     9815.7 secs

     End of self-consistent calculation

          k = 0.2500 0.4330 0.1111 (136853 PWs)   bands (ev):

   -18.6979  -6.5553  -6.3517  -5.9533  -5.9531  -5.2751  -4.9420  -4.9419
    -4.9029  -4.9019  -4.5418  -4.5416  -4.4431  -4.4430  -4.4290  -4.4070
    -4.3818  -4.2758  -4.2751  -4.2513  -4.2079  -4.2077  -4.1391  -4.1387
    -4.1321  -4.1315  -4.1107  -4.1049  -4.1043  -4.0334  -4.0311  -4.0026
    -4.0022  -3.9902  -3.9901  -3.9669  -3.9668  -3.9443  -3.9359  -3.9358
    -3.9092  -3.8570  -3.8568  -3.8091  -3.8087  -3.7498  -3.7494  -3.6950
    -3.6948  -3.6945  -3.6942  -3.6590  -3.6204  -3.6196  -3.6136  -3.6121
    -3.6118  -3.5820  -3.5807  -3.5728  -3.5112  -3.5108  -3.5019  -3.4849
    -3.4778  -3.4053  -3.4048  -3.3727  -3.3709  -3.3442  -3.3434  -3.3303
    -3.3135  -3.2538  -3.2532  -3.2362  -3.2356  -3.1842  -3.1799  -3.1788
    -3.1406  -3.1101  -3.1085  -3.1005  -3.1004  -3.0879  -3.0869  -3.0798
    -3.0789  -3.0694  -3.0285  -2.9907  -2.9901  -2.9764  -2.9756  -2.9498
    -2.9407  -2.9397  -2.9186  -2.8741  -2.8735  -2.8646  -2.8255  -2.8187
    -2.8074  -2.8070  -2.7809  -2.7778  -2.7592  -2.7470  -2.7108  -2.7062
    -2.6886  -2.6810  -2.6668  -2.6647  -2.6168  -2.6160  -2.5835  -2.5607
    -2.5603  -2.5368  -2.5361  -2.5252  -2.5248  -2.5143  -2.4916  -2.4913
    -2.4469  -2.4466  -2.4452  -2.4288  -2.4282  -2.4229  -2.4139  -2.4117
    -2.4112  -2.4104  -2.4049  -2.3930  -2.3918  -2.3818  -2.3564  -2.3552
    -2.3543  -2.3527  -2.3521  -2.3500  -2.3493  -2.3219  -2.3189  -2.3050
    -2.3042  -2.2866  -2.2865  -2.2767  -2.2765  -2.2752  -2.2742  -2.2555
    -2.2540  -2.2536  -2.2520  -2.2359  -2.2091  -2.2090  -2.1690  -2.1687
    -2.1438  -2.1432  -2.1162  -2.1158  -2.0887  -2.0877  -2.0706  -2.0664
    -2.0392  -2.0183  -2.0170  -2.0122  -2.0107  -2.0069  -2.0000  -1.9990
    -1.9736  -1.9673  -1.9579  -1.9002  -1.8967  -1.8955  -1.8935  -1.8924
    -1.8563  -1.8372  -1.8368  -1.8096  -1.8085  -1.7490  -1.7484  -1.7195
    -1.7018  -1.7004  -1.6401  -1.6396  -1.6284  -1.6272  -1.6170  -1.6160
    -1.6129  -1.6040  -1.6027  -1.5486  -1.5477  -1.5362  -1.5347  -1.5342
    -1.5165  -1.5144  -1.4799  -1.4794  -1.4630  -1.4620  -1.4617  -1.4552
    -1.4507  -1.4413  -1.4395  -1.4216  -1.4207  -1.3814  -1.3792  -1.3681
    -1.3665  -1.3470  -1.3332  -1.2910  -1.2896  -1.2642  -1.2593  -1.2588
    -1.2296  -1.1799  -1.1783  -1.1767  -1.1759  -1.1711  -1.1702  -1.1603
    -1.1423  -1.1414  -1.1024  -1.1004  -1.0715  -1.0698  -1.0657  -1.0648
    -1.0573  -1.0416  -1.0406  -1.0398  -1.0381  -1.0359  -1.0040  -0.9979
    -0.9970  -0.9964  -0.9677  -0.9659  -0.9619  -0.9406  -0.9306  -0.9299
    -0.8835  -0.8793  -0.8753  -0.8448  -0.8343  -0.8232  -0.8218  -0.8195
    -0.8131  -0.8124  -0.8113  -0.8029  -0.7992  -0.7764  -0.7739  -0.7714
    -0.7702  -0.7675  -0.7468  -0.7308  -0.7303  -0.7207  -0.7105  -0.6999
    -0.6963  -0.6857  -0.6741  -0.6291  -0.6254  -0.6186  -0.6181  -0.6169
    -0.6138  -0.6075  -0.5917  -0.5888  -0.5830  -0.5821  -0.5807  -0.5772
    -0.5412  -0.5387  -0.5380  -0.5302  -0.5294  -0.5245  -0.5231  -0.5096
    -0.5063  -0.5036  -0.5009  -0.4615  -0.4607  -0.4527  -0.4491  -0.4485
    -0.3721  -0.3704  -0.3685  -0.3681  -0.3594  -0.3583  -0.3226  -0.3100
    -0.3095  -0.2801  -0.2777  -0.2761  -0.1568  -0.1550  -0.0539   0.3615
     0.3618   0.3649   0.3652   0.4259   0.4284   0.8145   0.8150   0.8571
     0.8581   0.9680   1.0468   1.1575   1.1591   1.3809   1.3820   2.0108
     2.0132   2.1732   2.1755   2.3059   2.3086   2.4104   2.4107   2.5647
     2.8022   2.8102   2.9259   3.1504   3.1525   3.2333   3.2347   3.3343
     3.3498   3.5463   3.5533   3.6057   3.8064   3.8076   3.8673   3.8718
     4.1265   4.1339   4.1360   4.3770   4.4173   4.4204   4.4645   4.7991
     4.8018   4.8302   4.9626   5.1351   5.1385   5.1806   5.2092   5.4452
     5.7841   5.9214   5.9274   5.9319   5.9344   5.9988   6.0014   6.0745
     6.1064   6.1180   6.1354   6.1635   6.1655   6.1887   6.1939   6.2221
     6.2254   6.4086   6.5707   6.6999   6.7476   6.7828   6.8690   6.8759
     6.8819   6.9844   6.9930

          k = 0.2500-0.1443 0.1111 (136898 PWs)   bands (ev):

   -18.6979  -6.5752  -6.5416  -5.7705  -5.4788  -5.4203  -5.4202  -4.8820
    -4.8819  -4.7500  -4.7497  -4.5947  -4.5642  -4.5023  -4.4687  -4.4681
    -4.4353  -4.4353  -4.3068  -4.2651  -4.2648  -4.2050  -4.1838  -4.1836
    -4.0815  -4.0814  -4.0453  -4.0451  -4.0450  -4.0181  -3.9965  -3.9965
    -3.8915  -3.8894  -3.8892  -3.8687  -3.8518  -3.8516  -3.8396  -3.8391
    -3.8261  -3.7960  -3.7959  -3.7955  -3.7953  -3.7630  -3.7626  -3.7452
    -3.7450  -3.7313  -3.6882  -3.6871  -3.6569  -3.6422  -3.6409  -3.6368
    -3.6367  -3.5622  -3.5621  -3.5272  -3.5247  -3.5240  -3.4567  -3.4565
    -3.4413  -3.4409  -3.4107  -3.4101  -3.4090  -3.4088  -3.2557  -3.2552
    -3.2313  -3.2298  -3.2250  -3.2088  -3.2084  -3.1829  -3.1825  -3.1328
    -3.1326  -3.1167  -3.1162  -3.0960  -3.0487  -3.0472  -3.0280  -3.0231
    -3.0226  -2.9823  -2.9818  -2.9754  -2.9748  -2.9589  -2.9581  -2.9192
    -2.9189  -2.8990  -2.8968  -2.8942  -2.8937  -2.8904  -2.8147  -2.8136
    -2.8120  -2.7840  -2.7829  -2.7624  -2.7209  -2.7134  -2.6927  -2.6913
    -2.6785  -2.6779  -2.6727  -2.6433  -2.6424  -2.6335  -2.6160  -2.5906
    -2.5900  -2.5890  -2.5693  -2.5688  -2.5578  -2.5573  -2.5548  -2.5535
    -2.5459  -2.5000  -2.4677  -2.4673  -2.4521  -2.4381  -2.4318  -2.4312
    -2.4243  -2.4235  -2.4221  -2.3925  -2.3921  -2.3919  -2.3825  -2.3820
    -2.3652  -2.3380  -2.3369  -2.3366  -2.3360  -2.3357  -2.2902  -2.2593
    -2.2587  -2.2581  -2.2516  -2.2427  -2.2302  -2.2295  -2.2130  -2.2128
    -2.1802  -2.1780  -2.1776  -2.1591  -2.1584  -2.1571  -2.1253  -2.1241
    -2.0844  -2.0824  -2.0758  -2.0737  -2.0733  -2.0673  -2.0667  -2.0645
    -2.0638  -2.0585  -2.0561  -2.0410  -2.0398  -1.9145  -1.9120  -1.8812
    -1.8752  -1.8735  -1.8686  -1.8684  -1.8515  -1.8507  -1.8486  -1.8473
    -1.8458  -1.8231  -1.8167  -1.8142  -1.8112  -1.8037  -1.8020  -1.7799
    -1.7796  -1.7510  -1.7508  -1.7200  -1.7185  -1.7086  -1.7004  -1.6829
    -1.6822  -1.6794  -1.6613  -1.6486  -1.6485  -1.6413  -1.6410  -1.6149
    -1.6142  -1.5976  -1.5970  -1.5655  -1.5645  -1.5552  -1.5050  -1.5040
    -1.4928  -1.4907  -1.4903  -1.4654  -1.4629  -1.4299  -1.4292  -1.4284
    -1.3964  -1.3857  -1.3842  -1.3691  -1.3686  -1.3432  -1.3412  -1.3406
    -1.3111  -1.3085  -1.3081  -1.2461  -1.2450  -1.2332  -1.2313  -1.2163
    -1.2153  -1.2032  -1.2027  -1.1848  -1.1721  -1.1455  -1.1436  -1.1330
    -1.1080  -1.0952  -1.0939  -1.0827  -1.0823  -1.0808  -1.0761  -1.0747
    -1.0612  -1.0317  -1.0303  -1.0234  -1.0198  -1.0174  -1.0167  -0.9941
    -0.9789  -0.9749  -0.9558  -0.9533  -0.8642  -0.8478  -0.8439  -0.8422
    -0.8395  -0.8380  -0.8323  -0.8186  -0.8073  -0.7938  -0.7913  -0.7782
    -0.7768  -0.7678  -0.7543  -0.7473  -0.7455  -0.7371  -0.7081  -0.6650
    -0.6644  -0.6309  -0.6269  -0.6260  -0.6195  -0.6178  -0.6174  -0.6145
    -0.6041  -0.6002  -0.5832  -0.5633  -0.5464  -0.5294  -0.5284  -0.5174
    -0.5163  -0.5049  -0.5042  -0.5034  -0.5019  -0.5004  -0.4846  -0.4799
    -0.4792  -0.4495  -0.4473  -0.4472  -0.4354  -0.4352  -0.4160  -0.3839
    -0.3835  -0.3747  -0.3738  -0.3067  -0.3060  -0.2693  -0.2688  -0.2109
    -0.2104  -0.2093  -0.1963  -0.1819   0.0417   0.0479   0.3900   0.3901
     0.4799   0.4857   0.6764   0.6914   0.7077   0.8376   0.8395   1.2702
     1.2704   1.2886   1.5475   1.5802   1.5805   1.8552   1.8633   1.9358
     1.9369   1.9618   1.9673   2.1920   2.1934   2.2812   2.2818   2.3563
     2.4186   2.4261   2.5849   2.6830   3.1223   3.1242   3.1263   3.1285
     3.1805   3.1830   3.4741   3.4747   3.7530   3.7599   3.8628   4.1703
     4.2103   4.2154   4.4217   4.4523   4.5131   4.5147   4.6047   4.7227
     4.7249   4.8401   4.8415   5.1438   5.2120   5.2146   5.3028   5.4006
     5.4229   5.5995   5.6033   5.6279   5.6294   5.6903   5.6927   5.7317
     5.8144   6.0571   6.2664   6.2980   6.3542   6.4316   6.4348   6.4467
     6.4494   6.5119   6.6276   6.6859   6.6926   6.8349   6.9067   6.9218
     6.9389   7.0061   7.0703

          k =-0.2500-0.4330 0.1111 (136853 PWs)   bands (ev):

   -18.6979  -6.5553  -6.3517  -5.9533  -5.9531  -5.2751  -4.9420  -4.9419
    -4.9029  -4.9019  -4.5418  -4.5416  -4.4431  -4.4430  -4.4290  -4.4070
    -4.3818  -4.2758  -4.2751  -4.2513  -4.2079  -4.2077  -4.1391  -4.1387
    -4.1321  -4.1315  -4.1107  -4.1049  -4.1043  -4.0334  -4.0311  -4.0026
    -4.0022  -3.9902  -3.9901  -3.9669  -3.9668  -3.9443  -3.9359  -3.9358
    -3.9092  -3.8570  -3.8568  -3.8091  -3.8087  -3.7498  -3.7494  -3.6950
    -3.6948  -3.6945  -3.6942  -3.6590  -3.6204  -3.6196  -3.6136  -3.6121
    -3.6118  -3.5820  -3.5807  -3.5728  -3.5112  -3.5108  -3.5019  -3.4849
    -3.4778  -3.4053  -3.4048  -3.3727  -3.3709  -3.3442  -3.3434  -3.3303
    -3.3135  -3.2538  -3.2532  -3.2362  -3.2356  -3.1842  -3.1799  -3.1788
    -3.1406  -3.1101  -3.1085  -3.1005  -3.1004  -3.0879  -3.0869  -3.0798
    -3.0789  -3.0694  -3.0285  -2.9907  -2.9901  -2.9764  -2.9756  -2.9498
    -2.9407  -2.9397  -2.9186  -2.8741  -2.8735  -2.8646  -2.8255  -2.8187
    -2.8074  -2.8070  -2.7809  -2.7778  -2.7592  -2.7470  -2.7108  -2.7062
    -2.6886  -2.6810  -2.6668  -2.6647  -2.6168  -2.6160  -2.5835  -2.5607
    -2.5603  -2.5368  -2.5361  -2.5252  -2.5248  -2.5143  -2.4916  -2.4913
    -2.4469  -2.4466  -2.4452  -2.4288  -2.4282  -2.4229  -2.4139  -2.4117
    -2.4112  -2.4104  -2.4049  -2.3930  -2.3918  -2.3818  -2.3564  -2.3552
    -2.3543  -2.3527  -2.3521  -2.3500  -2.3493  -2.3219  -2.3189  -2.3050
    -2.3042  -2.2866  -2.2865  -2.2767  -2.2765  -2.2752  -2.2742  -2.2555
    -2.2540  -2.2536  -2.2520  -2.2359  -2.2091  -2.2090  -2.1690  -2.1687
    -2.1438  -2.1432  -2.1162  -2.1158  -2.0887  -2.0877  -2.0706  -2.0664
    -2.0392  -2.0183  -2.0170  -2.0122  -2.0107  -2.0069  -2.0000  -1.9990
    -1.9736  -1.9673  -1.9579  -1.9002  -1.8967  -1.8955  -1.8935  -1.8924
    -1.8563  -1.8372  -1.8368  -1.8096  -1.8085  -1.7490  -1.7484  -1.7195
    -1.7018  -1.7004  -1.6401  -1.6396  -1.6284  -1.6272  -1.6170  -1.6160
    -1.6129  -1.6040  -1.6027  -1.5486  -1.5477  -1.5362  -1.5347  -1.5342
    -1.5165  -1.5144  -1.4799  -1.4794  -1.4630  -1.4620  -1.4617  -1.4552
    -1.4507  -1.4413  -1.4395  -1.4216  -1.4207  -1.3814  -1.3792  -1.3681
    -1.3665  -1.3470  -1.3332  -1.2910  -1.2896  -1.2642  -1.2593  -1.2588
    -1.2296  -1.1799  -1.1783  -1.1767  -1.1759  -1.1711  -1.1702  -1.1603
    -1.1423  -1.1414  -1.1024  -1.1004  -1.0715  -1.0698  -1.0657  -1.0648
    -1.0573  -1.0416  -1.0406  -1.0398  -1.0381  -1.0359  -1.0040  -0.9979
    -0.9970  -0.9964  -0.9677  -0.9659  -0.9619  -0.9406  -0.9306  -0.9299
    -0.8835  -0.8793  -0.8753  -0.8448  -0.8343  -0.8232  -0.8218  -0.8195
    -0.8131  -0.8124  -0.8113  -0.8029  -0.7992  -0.7764  -0.7739  -0.7714
    -0.7702  -0.7675  -0.7468  -0.7308  -0.7303  -0.7207  -0.7105  -0.6999
    -0.6963  -0.6857  -0.6741  -0.6291  -0.6254  -0.6186  -0.6181  -0.6169
    -0.6138  -0.6075  -0.5917  -0.5888  -0.5830  -0.5821  -0.5807  -0.5772
    -0.5412  -0.5387  -0.5380  -0.5302  -0.5294  -0.5245  -0.5231  -0.5096
    -0.5063  -0.5036  -0.5009  -0.4615  -0.4607  -0.4527  -0.4491  -0.4485
    -0.3721  -0.3704  -0.3685  -0.3681  -0.3594  -0.3583  -0.3226  -0.3100
    -0.3095  -0.2801  -0.2777  -0.2761  -0.1568  -0.1550  -0.0539   0.3615
     0.3618   0.3649   0.3652   0.4259   0.4284   0.8145   0.8150   0.8571
     0.8581   0.9680   1.0468   1.1575   1.1591   1.3809   1.3820   2.0108
     2.0132   2.1732   2.1755   2.3059   2.3086   2.4104   2.4107   2.5647
     2.8022   2.8102   2.9259   3.1504   3.1525   3.2333   3.2347   3.3343
     3.3498   3.5463   3.5533   3.6057   3.8064   3.8076   3.8673   3.8718
     4.1265   4.1339   4.1360   4.3770   4.4173   4.4204   4.4645   4.7991
     4.8018   4.8302   4.9626   5.1351   5.1385   5.1806   5.2092   5.4453
     5.7829   5.9214   5.9274   5.9319   5.9344   5.9988   6.0013   6.0746
     6.1069   6.1220   6.1355   6.1635   6.1655   6.1883   6.1930   6.2221
     6.2254   6.4104   6.5717   6.6780   6.7487   6.7831   6.8687   6.8758
     6.8817   6.9928   7.0079

          k =-0.2500 0.4330-0.1111 (136853 PWs)   bands (ev):

   -18.6979  -6.5553  -6.3517  -5.9546  -5.9517  -5.2751  -4.9427  -4.9414
    -4.9044  -4.9004  -4.5423  -4.5410  -4.4433  -4.4428  -4.4289  -4.4070
    -4.3818  -4.2760  -4.2751  -4.2513  -4.2082  -4.2076  -4.1391  -4.1386
    -4.1320  -4.1315  -4.1106  -4.1062  -4.1031  -4.0347  -4.0298  -4.0030
    -4.0014  -3.9903  -3.9899  -3.9669  -3.9668  -3.9444  -3.9360  -3.9358
    -3.9093  -3.8572  -3.8567  -3.8098  -3.8079  -3.7498  -3.7495  -3.6952
    -3.6949  -3.6946  -3.6939  -3.6592  -3.6207  -3.6197  -3.6134  -3.6123
    -3.6117  -3.5822  -3.5805  -3.5727  -3.5112  -3.5109  -3.5016  -3.4848
    -3.4775  -3.4059  -3.4045  -3.3727  -3.3706  -3.3440  -3.3433  -3.3302
    -3.3137  -3.2543  -3.2532  -3.2360  -3.2355  -3.1844  -3.1799  -3.1788
    -3.1404  -3.1104  -3.1083  -3.1011  -3.0996  -3.0879  -3.0869  -3.0799
    -3.0787  -3.0694  -3.0284  -2.9915  -2.9896  -2.9760  -2.9757  -2.9498
    -2.9408  -2.9397  -2.9187  -2.8749  -2.8727  -2.8654  -2.8253  -2.8187
    -2.8077  -2.8067  -2.7847  -2.7773  -2.7550  -2.7469  -2.7107  -2.7063
    -2.6886  -2.6810  -2.6670  -2.6655  -2.6167  -2.6159  -2.5833  -2.5610
    -2.5605  -2.5370  -2.5360  -2.5252  -2.5245  -2.5144  -2.4919  -2.4910
    -2.4468  -2.4461  -2.4454  -2.4290  -2.4280  -2.4230  -2.4139  -2.4117
    -2.4111  -2.4107  -2.4048  -2.3926  -2.3918  -2.3826  -2.3563  -2.3552
    -2.3539  -2.3532  -2.3521  -2.3502  -2.3487  -2.3221  -2.3189  -2.3052
    -2.3039  -2.2869  -2.2863  -2.2768  -2.2763  -2.2754  -2.2740  -2.2556
    -2.2545  -2.2540  -2.2512  -2.2360  -2.2096  -2.2089  -2.1696  -2.1682
    -2.1440  -2.1430  -2.1161  -2.1155  -2.0889  -2.0873  -2.0706  -2.0662
    -2.0390  -2.0186  -2.0166  -2.0120  -2.0107  -2.0071  -2.0003  -1.9988
    -1.9735  -1.9670  -1.9578  -1.9003  -1.8972  -1.8956  -1.8935  -1.8926
    -1.8564  -1.8381  -1.8358  -1.8094  -1.8088  -1.7495  -1.7478  -1.7198
    -1.7014  -1.7005  -1.6401  -1.6394  -1.6288  -1.6269  -1.6167  -1.6162
    -1.6131  -1.6045  -1.6024  -1.5486  -1.5476  -1.5361  -1.5350  -1.5347
    -1.5168  -1.5140  -1.4801  -1.4794  -1.4630  -1.4625  -1.4612  -1.4549
    -1.4508  -1.4414  -1.4397  -1.4218  -1.4203  -1.3809  -1.3796  -1.3685
    -1.3662  -1.3469  -1.3332  -1.2908  -1.2897  -1.2644  -1.2595  -1.2586
    -1.2298  -1.1794  -1.1788  -1.1769  -1.1757  -1.1716  -1.1698  -1.1601
    -1.1425  -1.1408  -1.1024  -1.1004  -1.0713  -1.0701  -1.0658  -1.0648
    -1.0571  -1.0422  -1.0407  -1.0398  -1.0373  -1.0354  -1.0038  -0.9986
    -0.9970  -0.9963  -0.9677  -0.9657  -0.9621  -0.9412  -0.9316  -0.9289
    -0.8854  -0.8791  -0.8753  -0.8441  -0.8350  -0.8231  -0.8210  -0.8172
    -0.8136  -0.8125  -0.8109  -0.8019  -0.7992  -0.7771  -0.7739  -0.7711
    -0.7695  -0.7675  -0.7467  -0.7308  -0.7305  -0.7208  -0.7090  -0.6999
    -0.6966  -0.6859  -0.6772  -0.6290  -0.6261  -0.6185  -0.6179  -0.6162
    -0.6127  -0.6091  -0.5912  -0.5900  -0.5834  -0.5818  -0.5807  -0.5757
    -0.5408  -0.5392  -0.5379  -0.5303  -0.5291  -0.5238  -0.5230  -0.5096
    -0.5060  -0.5039  -0.5022  -0.4613  -0.4607  -0.4529  -0.4492  -0.4480
    -0.3724  -0.3703  -0.3685  -0.3682  -0.3594  -0.3585  -0.3226  -0.3101
    -0.3096  -0.2826  -0.2776  -0.2734  -0.1577  -0.1538  -0.0537   0.3616
     0.3619   0.3646   0.3653   0.4249   0.4296   0.8134   0.8158   0.8568
     0.8585   0.9682   1.0466   1.1547   1.1616   1.3758   1.3868   2.0109
     2.0133   2.1718   2.1771   2.3045   2.3102   2.4102   2.4109   2.5645
     2.8011   2.8116   2.9254   3.1467   3.1552   3.2333   3.2353   3.3337
     3.3498   3.5383   3.5609   3.6066   3.8061   3.8079   3.8688   3.8718
     4.1257   4.1319   4.1374   4.3776   4.4169   4.4203   4.4645   4.7983
     4.8030   4.8276   4.9647   5.1362   5.1386   5.1738   5.2152   5.4476
     5.7865   5.9217   5.9242   5.9311   5.9358   5.9982   6.0022   6.0761
     6.1086   6.1206   6.1346   6.1614   6.1686   6.1802   6.1974   6.2220
     6.2267   6.4134   6.5613   6.6817   6.7480   6.7828   6.8663   6.8764
     6.8819   6.9897   7.0196

          k = 0.2500-0.4330-0.1111 (136853 PWs)   bands (ev):

   -18.6979  -6.5553  -6.3517  -5.9546  -5.9517  -5.2751  -4.9427  -4.9414
    -4.9044  -4.9004  -4.5423  -4.5410  -4.4433  -4.4428  -4.4289  -4.4070
    -4.3818  -4.2760  -4.2751  -4.2513  -4.2082  -4.2076  -4.1391  -4.1386
    -4.1320  -4.1315  -4.1106  -4.1062  -4.1031  -4.0347  -4.0298  -4.0030
    -4.0014  -3.9903  -3.9899  -3.9669  -3.9668  -3.9444  -3.9360  -3.9358
    -3.9093  -3.8572  -3.8567  -3.8098  -3.8079  -3.7498  -3.7495  -3.6952
    -3.6949  -3.6946  -3.6939  -3.6592  -3.6207  -3.6197  -3.6134  -3.6123
    -3.6117  -3.5822  -3.5805  -3.5727  -3.5112  -3.5109  -3.5016  -3.4848
    -3.4775  -3.4059  -3.4045  -3.3727  -3.3706  -3.3440  -3.3433  -3.3302
    -3.3137  -3.2543  -3.2532  -3.2360  -3.2355  -3.1844  -3.1799  -3.1788
    -3.1404  -3.1104  -3.1083  -3.1011  -3.0996  -3.0879  -3.0869  -3.0799
    -3.0787  -3.0694  -3.0284  -2.9915  -2.9896  -2.9760  -2.9757  -2.9498
    -2.9408  -2.9397  -2.9187  -2.8749  -2.8727  -2.8654  -2.8253  -2.8187
    -2.8077  -2.8067  -2.7846  -2.7773  -2.7550  -2.7469  -2.7107  -2.7063
    -2.6886  -2.6810  -2.6670  -2.6655  -2.6167  -2.6159  -2.5833  -2.5610
    -2.5605  -2.5370  -2.5360  -2.5252  -2.5245  -2.5144  -2.4919  -2.4910
    -2.4468  -2.4461  -2.4454  -2.4290  -2.4280  -2.4230  -2.4139  -2.4117
    -2.4111  -2.4107  -2.4048  -2.3926  -2.3918  -2.3826  -2.3563  -2.3552
    -2.3539  -2.3532  -2.3521  -2.3502  -2.3487  -2.3221  -2.3189  -2.3052
    -2.3039  -2.2869  -2.2863  -2.2768  -2.2763  -2.2754  -2.2740  -2.2556
    -2.2545  -2.2540  -2.2512  -2.2360  -2.2096  -2.2089  -2.1696  -2.1682
    -2.1440  -2.1430  -2.1161  -2.1155  -2.0889  -2.0873  -2.0706  -2.0662
    -2.0390  -2.0186  -2.0166  -2.0120  -2.0107  -2.0071  -2.0003  -1.9988
    -1.9735  -1.9670  -1.9578  -1.9003  -1.8972  -1.8956  -1.8935  -1.8926
    -1.8564  -1.8381  -1.8358  -1.8094  -1.8088  -1.7495  -1.7478  -1.7198
    -1.7015  -1.7005  -1.6401  -1.6394  -1.6288  -1.6269  -1.6167  -1.6162
    -1.6131  -1.6045  -1.6024  -1.5486  -1.5476  -1.5361  -1.5350  -1.5347
    -1.5168  -1.5140  -1.4801  -1.4794  -1.4630  -1.4625  -1.4612  -1.4549
    -1.4508  -1.4414  -1.4397  -1.4218  -1.4203  -1.3809  -1.3796  -1.3685
    -1.3662  -1.3469  -1.3332  -1.2908  -1.2897  -1.2644  -1.2595  -1.2586
    -1.2298  -1.1794  -1.1788  -1.1769  -1.1757  -1.1716  -1.1698  -1.1601
    -1.1425  -1.1408  -1.1024  -1.1004  -1.0713  -1.0701  -1.0658  -1.0648
    -1.0571  -1.0422  -1.0407  -1.0398  -1.0373  -1.0354  -1.0038  -0.9986
    -0.9970  -0.9963  -0.9677  -0.9657  -0.9621  -0.9412  -0.9316  -0.9289
    -0.8854  -0.8791  -0.8753  -0.8441  -0.8350  -0.8231  -0.8210  -0.8172
    -0.8136  -0.8125  -0.8109  -0.8019  -0.7992  -0.7771  -0.7739  -0.7711
    -0.7695  -0.7675  -0.7467  -0.7308  -0.7305  -0.7208  -0.7090  -0.6999
    -0.6966  -0.6859  -0.6772  -0.6290  -0.6261  -0.6185  -0.6179  -0.6162
    -0.6127  -0.6091  -0.5912  -0.5900  -0.5834  -0.5818  -0.5807  -0.5757
    -0.5408  -0.5392  -0.5379  -0.5303  -0.5291  -0.5238  -0.5230  -0.5096
    -0.5060  -0.5039  -0.5022  -0.4613  -0.4607  -0.4529  -0.4492  -0.4480
    -0.3724  -0.3703  -0.3685  -0.3682  -0.3594  -0.3585  -0.3226  -0.3101
    -0.3096  -0.2826  -0.2776  -0.2734  -0.1577  -0.1538  -0.0537   0.3616
     0.3619   0.3646   0.3653   0.4249   0.4296   0.8134   0.8158   0.8568
     0.8585   0.9682   1.0466   1.1547   1.1616   1.3758   1.3868   2.0109
     2.0133   2.1718   2.1771   2.3045   2.3102   2.4102   2.4109   2.5645
     2.8011   2.8116   2.9254   3.1467   3.1552   3.2333   3.2353   3.3337
     3.3498   3.5383   3.5609   3.6066   3.8061   3.8079   3.8688   3.8718
     4.1257   4.1319   4.1374   4.3776   4.4169   4.4203   4.4645   4.7983
     4.8030   4.8276   4.9647   5.1362   5.1386   5.1738   5.2152   5.4476
     5.7870   5.9218   5.9242   5.9311   5.9358   5.9983   6.0023   6.0761
     6.1081   6.1184   6.1343   6.1613   6.1681   6.1806   6.1978   6.2220
     6.2267   6.4131   6.5603   6.6951   6.7477   6.7865   6.8664   6.8766
     6.8821   6.9888   6.9991

          k = 0.5000 0.0000 0.1111 (136853 PWs)   bands (ev):

   -18.6979  -6.5553  -6.3517  -5.9546  -5.9517  -5.2750  -4.9430  -4.9410
    -4.9046  -4.9002  -4.5425  -4.5408  -4.4433  -4.4430  -4.4288  -4.4070
    -4.3818  -4.2760  -4.2750  -4.2513  -4.2081  -4.2076  -4.1392  -4.1385
    -4.1325  -4.1312  -4.1106  -4.1065  -4.1028  -4.0352  -4.0293  -4.0034
    -4.0011  -3.9904  -3.9899  -3.9669  -3.9668  -3.9444  -3.9360  -3.9358
    -3.9093  -3.8572  -3.8568  -3.8101  -3.8077  -3.7498  -3.7495  -3.6951
    -3.6949  -3.6945  -3.6940  -3.6592  -3.6204  -3.6201  -3.6135  -3.6124
    -3.6117  -3.5821  -3.5804  -3.5728  -3.5112  -3.5109  -3.5016  -3.4847
    -3.4776  -3.4058  -3.4047  -3.3724  -3.3709  -3.3444  -3.3430  -3.3302
    -3.3136  -3.2543  -3.2531  -3.2363  -3.2352  -3.1849  -3.1794  -3.1789
    -3.1403  -3.1113  -3.1080  -3.1009  -3.0999  -3.0877  -3.0869  -3.0795
    -3.0786  -3.0695  -3.0284  -2.9915  -2.9896  -2.9761  -2.9756  -2.9497
    -2.9405  -2.9401  -2.9186  -2.8746  -2.8732  -2.8657  -2.8251  -2.8187
    -2.8075  -2.8070  -2.7874  -2.7776  -2.7498  -2.7467  -2.7107  -2.7068
    -2.6886  -2.6811  -2.6674  -2.6666  -2.6169  -2.6155  -2.5832  -2.5611
    -2.5607  -2.5368  -2.5358  -2.5250  -2.5245  -2.5145  -2.4917  -2.4909
    -2.4472  -2.4458  -2.4453  -2.4290  -2.4279  -2.4230  -2.4139  -2.4120
    -2.4112  -2.4102  -2.4049  -2.3930  -2.3914  -2.3837  -2.3564  -2.3551
    -2.3538  -2.3537  -2.3522  -2.3504  -2.3482  -2.3217  -2.3189  -2.3045
    -2.3042  -2.2868  -2.2863  -2.2768  -2.2763  -2.2758  -2.2734  -2.2559
    -2.2548  -2.2538  -2.2509  -2.2360  -2.2095  -2.2091  -2.1696  -2.1681
    -2.1440  -2.1432  -2.1160  -2.1158  -2.0885  -2.0873  -2.0705  -2.0662
    -2.0392  -2.0187  -2.0166  -2.0117  -2.0108  -2.0068  -2.0003  -1.9985
    -1.9737  -1.9670  -1.9577  -1.9004  -1.8978  -1.8956  -1.8937  -1.8920
    -1.8569  -1.8381  -1.8358  -1.8096  -1.8086  -1.7496  -1.7475  -1.7200
    -1.7011  -1.7005  -1.6403  -1.6391  -1.6287  -1.6269  -1.6172  -1.6159
    -1.6131  -1.6045  -1.6025  -1.5492  -1.5464  -1.5370  -1.5348  -1.5345
    -1.5167  -1.5136  -1.4805  -1.4795  -1.4626  -1.4623  -1.4613  -1.4549
    -1.4511  -1.4419  -1.4394  -1.4213  -1.4209  -1.3814  -1.3794  -1.3682
    -1.3657  -1.3469  -1.3332  -1.2915  -1.2892  -1.2645  -1.2597  -1.2588
    -1.2297  -1.1792  -1.1783  -1.1769  -1.1759  -1.1716  -1.1697  -1.1600
    -1.1427  -1.1406  -1.1027  -1.1001  -1.0721  -1.0701  -1.0658  -1.0646
    -1.0572  -1.0425  -1.0415  -1.0397  -1.0365  -1.0360  -1.0044  -0.9974
    -0.9970  -0.9961  -0.9675  -0.9652  -0.9613  -0.9414  -0.9317  -0.9282
    -0.8855  -0.8804  -0.8749  -0.8444  -0.8352  -0.8224  -0.8215  -0.8180
    -0.8132  -0.8123  -0.8109  -0.8028  -0.7996  -0.7762  -0.7743  -0.7704
    -0.7693  -0.7683  -0.7443  -0.7311  -0.7301  -0.7200  -0.7126  -0.7003
    -0.6967  -0.6857  -0.6748  -0.6289  -0.6258  -0.6184  -0.6177  -0.6165
    -0.6137  -0.6095  -0.5915  -0.5896  -0.5829  -0.5824  -0.5803  -0.5768
    -0.5413  -0.5386  -0.5381  -0.5302  -0.5292  -0.5244  -0.5229  -0.5101
    -0.5058  -0.5034  -0.5013  -0.4612  -0.4609  -0.4529  -0.4491  -0.4483
    -0.3720  -0.3706  -0.3685  -0.3679  -0.3591  -0.3587  -0.3225  -0.3099
    -0.3097  -0.2812  -0.2776  -0.2753  -0.1569  -0.1540  -0.0534   0.3615
     0.3619   0.3646   0.3653   0.4259   0.4279   0.8132   0.8160   0.8571
     0.8582   0.9684   1.0470   1.1548   1.1620   1.3754   1.3872   2.0108
     2.0131   2.1726   2.1763   2.3052   2.3093   2.4098   2.4113   2.5645
     2.8014   2.8115   2.9254   3.1463   3.1555   3.2329   3.2356   3.3334
     3.3498   3.5358   3.5632   3.6058   3.8062   3.8079   3.8699   3.8711
     4.1261   4.1323   4.1368   4.3774   4.4177   4.4206   4.4639   4.7972
     4.8031   4.8296   4.9651   5.1364   5.1386   5.1730   5.2158   5.4527
     5.7711   5.9239   5.9265   5.9349   5.9417   5.9973   6.0016   6.0729
     6.1048   6.1113   6.1360   6.1622   6.1669   6.1785   6.2005   6.2237
     6.2269   6.4065   6.5786   6.6890   6.7464   6.7989   6.8702   6.8764
     6.8789   6.9853   6.9995

          k =-0.5000 0.0000 0.1111 (136853 PWs)   bands (ev):

   -18.6979  -6.5553  -6.3517  -5.9546  -5.9517  -5.2750  -4.9430  -4.9410
    -4.9046  -4.9002  -4.5425  -4.5408  -4.4433  -4.4429  -4.4288  -4.4070
    -4.3818  -4.2760  -4.2750  -4.2513  -4.2081  -4.2076  -4.1392  -4.1385
    -4.1325  -4.1312  -4.1106  -4.1065  -4.1028  -4.0352  -4.0293  -4.0034
    -4.0011  -3.9904  -3.9899  -3.9669  -3.9668  -3.9444  -3.9360  -3.9358
    -3.9093  -3.8572  -3.8568  -3.8101  -3.8077  -3.7498  -3.7495  -3.6951
    -3.6949  -3.6945  -3.6940  -3.6592  -3.6204  -3.6201  -3.6135  -3.6124
    -3.6117  -3.5821  -3.5804  -3.5728  -3.5112  -3.5109  -3.5016  -3.4847
    -3.4776  -3.4058  -3.4047  -3.3724  -3.3709  -3.3444  -3.3430  -3.3302
    -3.3136  -3.2543  -3.2531  -3.2363  -3.2352  -3.1849  -3.1794  -3.1789
    -3.1403  -3.1113  -3.1080  -3.1009  -3.0999  -3.0878  -3.0869  -3.0795
    -3.0786  -3.0695  -3.0284  -2.9915  -2.9896  -2.9761  -2.9756  -2.9497
    -2.9405  -2.9401  -2.9186  -2.8746  -2.8732  -2.8657  -2.8251  -2.8187
    -2.8075  -2.8070  -2.7874  -2.7776  -2.7498  -2.7467  -2.7107  -2.7068
    -2.6886  -2.6811  -2.6674  -2.6666  -2.6169  -2.6155  -2.5832  -2.5611
    -2.5607  -2.5368  -2.5358  -2.5250  -2.5245  -2.5145  -2.4917  -2.4909
    -2.4472  -2.4458  -2.4453  -2.4290  -2.4279  -2.4230  -2.4139  -2.4120
    -2.4112  -2.4102  -2.4049  -2.3930  -2.3914  -2.3837  -2.3564  -2.3551
    -2.3538  -2.3537  -2.3522  -2.3504  -2.3482  -2.3217  -2.3189  -2.3045
    -2.3042  -2.2868  -2.2863  -2.2768  -2.2763  -2.2758  -2.2734  -2.2559
    -2.2548  -2.2538  -2.2509  -2.2360  -2.2095  -2.2091  -2.1696  -2.1681
    -2.1440  -2.1432  -2.1160  -2.1158  -2.0885  -2.0873  -2.0705  -2.0662
    -2.0392  -2.0187  -2.0166  -2.0117  -2.0108  -2.0068  -2.0003  -1.9985
    -1.9737  -1.9670  -1.9577  -1.9004  -1.8978  -1.8956  -1.8937  -1.8920
    -1.8569  -1.8381  -1.8358  -1.8096  -1.8086  -1.7496  -1.7475  -1.7200
    -1.7011  -1.7005  -1.6403  -1.6391  -1.6287  -1.6269  -1.6172  -1.6159
    -1.6131  -1.6045  -1.6025  -1.5492  -1.5464  -1.5370  -1.5348  -1.5345
    -1.5167  -1.5136  -1.4805  -1.4795  -1.4626  -1.4623  -1.4613  -1.4549
    -1.4511  -1.4419  -1.4394  -1.4213  -1.4209  -1.3814  -1.3794  -1.3682
    -1.3657  -1.3469  -1.3332  -1.2915  -1.2892  -1.2645  -1.2597  -1.2588
    -1.2297  -1.1792  -1.1783  -1.1769  -1.1759  -1.1716  -1.1697  -1.1600
    -1.1427  -1.1406  -1.1027  -1.1001  -1.0721  -1.0701  -1.0658  -1.0646
    -1.0572  -1.0425  -1.0415  -1.0397  -1.0365  -1.0360  -1.0044  -0.9974
    -0.9970  -0.9961  -0.9675  -0.9652  -0.9613  -0.9414  -0.9317  -0.9282
    -0.8855  -0.8804  -0.8749  -0.8444  -0.8352  -0.8224  -0.8215  -0.8180
    -0.8132  -0.8123  -0.8109  -0.8028  -0.7996  -0.7762  -0.7743  -0.7704
    -0.7693  -0.7683  -0.7443  -0.7311  -0.7301  -0.7200  -0.7126  -0.7003
    -0.6967  -0.6857  -0.6748  -0.6289  -0.6258  -0.6185  -0.6177  -0.6165
    -0.6137  -0.6095  -0.5915  -0.5896  -0.5829  -0.5824  -0.5803  -0.5768
    -0.5413  -0.5386  -0.5381  -0.5302  -0.5292  -0.5244  -0.5229  -0.5101
    -0.5058  -0.5034  -0.5013  -0.4612  -0.4610  -0.4529  -0.4491  -0.4483
    -0.3720  -0.3706  -0.3685  -0.3679  -0.3591  -0.3587  -0.3225  -0.3099
    -0.3097  -0.2812  -0.2776  -0.2753  -0.1569  -0.1540  -0.0534   0.3615
     0.3619   0.3646   0.3653   0.4259   0.4279   0.8132   0.8160   0.8571
     0.8582   0.9684   1.0470   1.1548   1.1620   1.3754   1.3872   2.0108
     2.0131   2.1726   2.1763   2.3052   2.3093   2.4098   2.4113   2.5645
     2.8014   2.8115   2.9254   3.1463   3.1555   3.2329   3.2356   3.3334
     3.3498   3.5358   3.5632   3.6058   3.8062   3.8079   3.8699   3.8711
     4.1261   4.1323   4.1368   4.3774   4.4177   4.4206   4.4639   4.7972
     4.8031   4.8296   4.9651   5.1364   5.1386   5.1730   5.2158   5.4528
     5.7704   5.9239   5.9265   5.9350   5.9417   5.9974   6.0016   6.0729
     6.1059   6.1120   6.1359   6.1620   6.1669   6.1780   6.2005   6.2237
     6.2269   6.4080   6.5784   6.6789   6.7495   6.8021   6.8708   6.8764
     6.8789   6.9887   7.0022

          k =-0.2500 0.1443 0.1111 (136898 PWs)   bands (ev):

   -18.6979  -6.5752  -6.5416  -5.7705  -5.4788  -5.4203  -5.4202  -4.8820
    -4.8819  -4.7500  -4.7497  -4.5947  -4.5642  -4.5024  -4.4687  -4.4681
    -4.4353  -4.4353  -4.3068  -4.2651  -4.2648  -4.2050  -4.1838  -4.1836
    -4.0815  -4.0814  -4.0453  -4.0451  -4.0450  -4.0181  -3.9965  -3.9965
    -3.8915  -3.8894  -3.8892  -3.8687  -3.8518  -3.8516  -3.8396  -3.8391
    -3.8261  -3.7960  -3.7959  -3.7955  -3.7953  -3.7630  -3.7626  -3.7452
    -3.7450  -3.7313  -3.6882  -3.6871  -3.6569  -3.6423  -3.6409  -3.6368
    -3.6367  -3.5622  -3.5621  -3.5272  -3.5247  -3.5240  -3.4567  -3.4565
    -3.4412  -3.4409  -3.4107  -3.4101  -3.4090  -3.4088  -3.2557  -3.2552
    -3.2313  -3.2298  -3.2250  -3.2088  -3.2084  -3.1829  -3.1825  -3.1328
    -3.1326  -3.1167  -3.1162  -3.0960  -3.0487  -3.0472  -3.0280  -3.0231
    -3.0226  -2.9823  -2.9817  -2.9754  -2.9748  -2.9589  -2.9581  -2.9192
    -2.9189  -2.8990  -2.8968  -2.8942  -2.8937  -2.8904  -2.8147  -2.8136
    -2.8120  -2.7840  -2.7829  -2.7624  -2.7209  -2.7134  -2.6927  -2.6913
    -2.6785  -2.6779  -2.6726  -2.6433  -2.6424  -2.6335  -2.6160  -2.5906
    -2.5900  -2.5891  -2.5693  -2.5688  -2.5578  -2.5573  -2.5548  -2.5535
    -2.5459  -2.5000  -2.4677  -2.4673  -2.4521  -2.4381  -2.4318  -2.4312
    -2.4243  -2.4235  -2.4221  -2.3925  -2.3921  -2.3919  -2.3825  -2.3820
    -2.3652  -2.3380  -2.3369  -2.3366  -2.3360  -2.3357  -2.2902  -2.2593
    -2.2587  -2.2581  -2.2516  -2.2427  -2.2302  -2.2295  -2.2130  -2.2128
    -2.1802  -2.1780  -2.1776  -2.1591  -2.1584  -2.1571  -2.1253  -2.1241
    -2.0844  -2.0824  -2.0758  -2.0737  -2.0733  -2.0673  -2.0667  -2.0645
    -2.0638  -2.0585  -2.0561  -2.0410  -2.0398  -1.9145  -1.9120  -1.8812
    -1.8752  -1.8735  -1.8686  -1.8684  -1.8515  -1.8507  -1.8486  -1.8473
    -1.8458  -1.8231  -1.8167  -1.8142  -1.8112  -1.8037  -1.8020  -1.7799
    -1.7796  -1.7510  -1.7509  -1.7200  -1.7185  -1.7086  -1.7004  -1.6829
    -1.6822  -1.6794  -1.6613  -1.6486  -1.6485  -1.6413  -1.6410  -1.6149
    -1.6142  -1.5976  -1.5970  -1.5655  -1.5645  -1.5552  -1.5050  -1.5040
    -1.4928  -1.4907  -1.4903  -1.4654  -1.4630  -1.4299  -1.4292  -1.4284
    -1.3964  -1.3857  -1.3842  -1.3691  -1.3686  -1.3432  -1.3412  -1.3406
    -1.3111  -1.3085  -1.3081  -1.2461  -1.2450  -1.2332  -1.2313  -1.2163
    -1.2153  -1.2032  -1.2027  -1.1848  -1.1721  -1.1455  -1.1436  -1.1330
    -1.1080  -1.0952  -1.0939  -1.0827  -1.0823  -1.0808  -1.0761  -1.0747
    -1.0612  -1.0317  -1.0303  -1.0234  -1.0198  -1.0174  -1.0167  -0.9941
    -0.9789  -0.9749  -0.9558  -0.9533  -0.8642  -0.8478  -0.8439  -0.8422
    -0.8395  -0.8380  -0.8323  -0.8186  -0.8073  -0.7938  -0.7913  -0.7782
    -0.7768  -0.7678  -0.7543  -0.7473  -0.7455  -0.7371  -0.7081  -0.6650
    -0.6644  -0.6309  -0.6269  -0.6260  -0.6195  -0.6178  -0.6174  -0.6146
    -0.6041  -0.6002  -0.5832  -0.5633  -0.5464  -0.5294  -0.5284  -0.5174
    -0.5163  -0.5049  -0.5042  -0.5034  -0.5019  -0.5004  -0.4846  -0.4799
    -0.4792  -0.4495  -0.4473  -0.4472  -0.4354  -0.4352  -0.4160  -0.3839
    -0.3835  -0.3747  -0.3738  -0.3067  -0.3060  -0.2693  -0.2688  -0.2109
    -0.2104  -0.2093  -0.1963  -0.1819   0.0417   0.0479   0.3901   0.3901
     0.4799   0.4857   0.6764   0.6914   0.7077   0.8376   0.8395   1.2702
     1.2704   1.2886   1.5475   1.5802   1.5805   1.8552   1.8633   1.9358
     1.9369   1.9618   1.9673   2.1920   2.1934   2.2812   2.2818   2.3563
     2.4186   2.4261   2.5849   2.6830   3.1223   3.1242   3.1263   3.1285
     3.1805   3.1830   3.4741   3.4747   3.7530   3.7599   3.8628   4.1703
     4.2103   4.2154   4.4217   4.4522   4.5131   4.5147   4.6047   4.7227
     4.7249   4.8401   4.8415   5.1438   5.2120   5.2146   5.3028   5.4006
     5.4228   5.5995   5.6033   5.6279   5.6294   5.6903   5.6927   5.7315
     5.8146   6.0562   6.2668   6.2978   6.3526   6.4314   6.4348   6.4468
     6.4494   6.5179   6.6306   6.6862   6.6925   6.8338   6.9070   6.9196
     6.9389   7.0043   7.0686

          k =-0.2500-0.1443-0.1111 (136898 PWs)   bands (ev):

   -18.6979  -6.5752  -6.5416  -5.7705  -5.4788  -5.4204  -5.4202  -4.8820
    -4.8819  -4.7505  -4.7493  -4.5947  -4.5642  -4.5025  -4.4688  -4.4681
    -4.4355  -4.4350  -4.3067  -4.2653  -4.2647  -4.2049  -4.1839  -4.1836
    -4.0815  -4.0814  -4.0453  -4.0451  -4.0449  -4.0180  -3.9968  -3.9962
    -3.8914  -3.8897  -3.8891  -3.8686  -3.8519  -3.8516  -3.8396  -3.8392
    -3.8260  -3.7960  -3.7958  -3.7955  -3.7952  -3.7630  -3.7628  -3.7451
    -3.7450  -3.7310  -3.6885  -3.6871  -3.6571  -3.6421  -3.6411  -3.6368
    -3.6366  -3.5623  -3.5621  -3.5269  -3.5245  -3.5239  -3.4569  -3.4567
    -3.4411  -3.4408  -3.4106  -3.4098  -3.4094  -3.4092  -3.2558  -3.2552
    -3.2311  -3.2300  -3.2251  -3.2088  -3.2085  -3.1828  -3.1824  -3.1330
    -3.1326  -3.1169  -3.1162  -3.0959  -3.0487  -3.0470  -3.0281  -3.0232
    -3.0227  -2.9825  -2.9818  -2.9752  -2.9749  -2.9591  -2.9582  -2.9191
    -2.9187  -2.8980  -2.8971  -2.8941  -2.8937  -2.8905  -2.8159  -2.8135
    -2.8122  -2.7839  -2.7829  -2.7604  -2.7210  -2.7154  -2.6926  -2.6906
    -2.6784  -2.6778  -2.6727  -2.6433  -2.6425  -2.6336  -2.6158  -2.5908
    -2.5899  -2.5890  -2.5692  -2.5687  -2.5582  -2.5573  -2.5546  -2.5536
    -2.5460  -2.4999  -2.4678  -2.4675  -2.4519  -2.4382  -2.4317  -2.4312
    -2.4242  -2.4236  -2.4223  -2.3926  -2.3921  -2.3918  -2.3823  -2.3820
    -2.3650  -2.3383  -2.3374  -2.3367  -2.3357  -2.3353  -2.2904  -2.2594
    -2.2587  -2.2582  -2.2515  -2.2427  -2.2299  -2.2296  -2.2127  -2.2127
    -2.1801  -2.1779  -2.1776  -2.1592  -2.1583  -2.1574  -2.1253  -2.1241
    -2.0844  -2.0823  -2.0757  -2.0737  -2.0732  -2.0673  -2.0668  -2.0648
    -2.0639  -2.0580  -2.0563  -2.0411  -2.0399  -1.9140  -1.9124  -1.8808
    -1.8750  -1.8736  -1.8685  -1.8682  -1.8517  -1.8514  -1.8483  -1.8474
    -1.8455  -1.8231  -1.8161  -1.8146  -1.8113  -1.8032  -1.8019  -1.7801
    -1.7798  -1.7513  -1.7509  -1.7196  -1.7188  -1.7084  -1.7005  -1.6829
    -1.6820  -1.6791  -1.6613  -1.6488  -1.6486  -1.6413  -1.6411  -1.6146
    -1.6141  -1.5980  -1.5967  -1.5659  -1.5645  -1.5552  -1.5049  -1.5041
    -1.4925  -1.4907  -1.4902  -1.4656  -1.4627  -1.4298  -1.4292  -1.4286
    -1.3963  -1.3854  -1.3842  -1.3690  -1.3684  -1.3437  -1.3412  -1.3406
    -1.3110  -1.3084  -1.3080  -1.2462  -1.2451  -1.2332  -1.2315  -1.2165
    -1.2154  -1.2030  -1.2025  -1.1843  -1.1719  -1.1450  -1.1439  -1.1333
    -1.1077  -1.0956  -1.0936  -1.0827  -1.0824  -1.0814  -1.0758  -1.0747
    -1.0612  -1.0318  -1.0306  -1.0245  -1.0189  -1.0174  -1.0168  -0.9941
    -0.9796  -0.9744  -0.9560  -0.9530  -0.8642  -0.8480  -0.8453  -0.8422
    -0.8416  -0.8339  -0.8325  -0.8179  -0.8073  -0.7936  -0.7908  -0.7798
    -0.7768  -0.7681  -0.7553  -0.7474  -0.7451  -0.7371  -0.7078  -0.6648
    -0.6641  -0.6300  -0.6268  -0.6257  -0.6189  -0.6178  -0.6177  -0.6140
    -0.6045  -0.6009  -0.5832  -0.5632  -0.5487  -0.5288  -0.5285  -0.5174
    -0.5166  -0.5046  -0.5041  -0.5033  -0.5018  -0.5009  -0.4844  -0.4800
    -0.4790  -0.4494  -0.4474  -0.4472  -0.4355  -0.4348  -0.4160  -0.3839
    -0.3838  -0.3744  -0.3743  -0.3068  -0.3057  -0.2693  -0.2687  -0.2109
    -0.2100  -0.2096  -0.1961  -0.1819   0.0440   0.0450   0.3900   0.3901
     0.4820   0.4838   0.6748   0.6925   0.7084   0.8382   0.8390   1.2702
     1.2704   1.2885   1.5482   1.5801   1.5806   1.8572   1.8606   1.9360
     1.9367   1.9634   1.9659   2.1926   2.1930   2.2812   2.2817   2.3567
     2.4202   2.4237   2.5849   2.6836   3.1213   3.1240   3.1270   3.1285
     3.1815   3.1826   3.4740   3.4746   3.7548   3.7586   3.8630   4.1704
     4.2115   4.2145   4.4256   4.4470   4.5132   4.5154   4.6049   4.7227
     4.7241   4.8394   4.8417   5.1436   5.2099   5.2153   5.3068   5.3949
     5.4242   5.6013   5.6030   5.6267   5.6294   5.6868   5.6943   5.7306
     5.8184   6.0508   6.2697   6.2984   6.3576   6.4334   6.4359   6.4449
     6.4496   6.5152   6.6273   6.6853   6.6909   6.8317   6.9076   6.9269
     6.9392   7.0001   7.0757

          k = 0.2500 0.1443-0.1111 (136898 PWs)   bands (ev):

   -18.6979  -6.5752  -6.5416  -5.7705  -5.4788  -5.4204  -5.4202  -4.8820
    -4.8819  -4.7505  -4.7493  -4.5947  -4.5642  -4.5025  -4.4688  -4.4681
    -4.4355  -4.4350  -4.3067  -4.2653  -4.2647  -4.2049  -4.1839  -4.1836
    -4.0815  -4.0814  -4.0453  -4.0451  -4.0449  -4.0180  -3.9968  -3.9962
    -3.8914  -3.8897  -3.8891  -3.8686  -3.8519  -3.8516  -3.8396  -3.8392
    -3.8260  -3.7960  -3.7958  -3.7955  -3.7952  -3.7630  -3.7628  -3.7451
    -3.7450  -3.7310  -3.6885  -3.6871  -3.6571  -3.6421  -3.6411  -3.6368
    -3.6366  -3.5623  -3.5621  -3.5269  -3.5245  -3.5239  -3.4569  -3.4567
    -3.4411  -3.4408  -3.4106  -3.4098  -3.4095  -3.4092  -3.2558  -3.2552
    -3.2311  -3.2300  -3.2251  -3.2088  -3.2085  -3.1828  -3.1824  -3.1330
    -3.1326  -3.1169  -3.1162  -3.0959  -3.0487  -3.0470  -3.0281  -3.0232
    -3.0227  -2.9825  -2.9818  -2.9752  -2.9749  -2.9591  -2.9582  -2.9191
    -2.9187  -2.8980  -2.8971  -2.8941  -2.8937  -2.8905  -2.8159  -2.8135
    -2.8122  -2.7839  -2.7829  -2.7604  -2.7210  -2.7154  -2.6926  -2.6906
    -2.6784  -2.6778  -2.6727  -2.6433  -2.6425  -2.6336  -2.6158  -2.5908
    -2.5899  -2.5890  -2.5692  -2.5687  -2.5582  -2.5573  -2.5546  -2.5536
    -2.5460  -2.4999  -2.4678  -2.4675  -2.4519  -2.4382  -2.4317  -2.4312
    -2.4242  -2.4236  -2.4223  -2.3926  -2.3921  -2.3918  -2.3823  -2.3820
    -2.3650  -2.3383  -2.3374  -2.3367  -2.3357  -2.3353  -2.2904  -2.2594
    -2.2587  -2.2582  -2.2515  -2.2427  -2.2299  -2.2296  -2.2128  -2.2127
    -2.1801  -2.1779  -2.1776  -2.1592  -2.1583  -2.1574  -2.1253  -2.1241
    -2.0844  -2.0823  -2.0757  -2.0737  -2.0732  -2.0673  -2.0668  -2.0648
    -2.0639  -2.0580  -2.0563  -2.0411  -2.0399  -1.9140  -1.9124  -1.8808
    -1.8750  -1.8736  -1.8685  -1.8682  -1.8517  -1.8514  -1.8483  -1.8474
    -1.8455  -1.8231  -1.8161  -1.8146  -1.8113  -1.8032  -1.8019  -1.7801
    -1.7798  -1.7513  -1.7509  -1.7196  -1.7188  -1.7084  -1.7005  -1.6829
    -1.6820  -1.6791  -1.6613  -1.6488  -1.6486  -1.6413  -1.6411  -1.6146
    -1.6141  -1.5980  -1.5967  -1.5659  -1.5645  -1.5553  -1.5049  -1.5041
    -1.4925  -1.4907  -1.4902  -1.4656  -1.4627  -1.4298  -1.4292  -1.4286
    -1.3963  -1.3854  -1.3842  -1.3690  -1.3684  -1.3437  -1.3412  -1.3406
    -1.3110  -1.3084  -1.3080  -1.2462  -1.2451  -1.2332  -1.2315  -1.2165
    -1.2154  -1.2030  -1.2025  -1.1843  -1.1719  -1.1450  -1.1439  -1.1333
    -1.1077  -1.0956  -1.0936  -1.0827  -1.0824  -1.0814  -1.0758  -1.0747
    -1.0612  -1.0318  -1.0306  -1.0245  -1.0189  -1.0174  -1.0168  -0.9941
    -0.9796  -0.9744  -0.9560  -0.9530  -0.8642  -0.8480  -0.8453  -0.8422
    -0.8416  -0.8339  -0.8325  -0.8179  -0.8073  -0.7936  -0.7908  -0.7798
    -0.7768  -0.7681  -0.7553  -0.7474  -0.7451  -0.7371  -0.7078  -0.6648
    -0.6641  -0.6300  -0.6268  -0.6257  -0.6189  -0.6178  -0.6177  -0.6140
    -0.6045  -0.6009  -0.5832  -0.5632  -0.5487  -0.5288  -0.5285  -0.5174
    -0.5166  -0.5046  -0.5041  -0.5033  -0.5018  -0.5009  -0.4844  -0.4800
    -0.4790  -0.4494  -0.4474  -0.4472  -0.4355  -0.4348  -0.4161  -0.3839
    -0.3838  -0.3744  -0.3743  -0.3068  -0.3057  -0.2693  -0.2687  -0.2109
    -0.2100  -0.2096  -0.1961  -0.1819   0.0440   0.0450   0.3900   0.3901
     0.4820   0.4838   0.6748   0.6925   0.7084   0.8382   0.8390   1.2702
     1.2704   1.2885   1.5482   1.5801   1.5806   1.8572   1.8606   1.9360
     1.9367   1.9634   1.9659   2.1926   2.1930   2.2812   2.2817   2.3567
     2.4202   2.4237   2.5849   2.6836   3.1213   3.1239   3.1270   3.1285
     3.1815   3.1826   3.4740   3.4746   3.7548   3.7586   3.8630   4.1704
     4.2115   4.2145   4.4256   4.4470   4.5132   4.5154   4.6049   4.7227
     4.7241   4.8394   4.8417   5.1436   5.2099   5.2153   5.3067   5.3949
     5.4244   5.6013   5.6030   5.6267   5.6294   5.6868   5.6943   5.7310
     5.8159   6.0550   6.2720   6.2985   6.3575   6.4333   6.4359   6.4448
     6.4496   6.5077   6.6202   6.6842   6.6908   6.8366   6.9103   6.9266
     6.9397   7.0015   7.0814

          k = 0.0000-0.2887 0.1111 (136898 PWs)   bands (ev):

   -18.6979  -6.5752  -6.5416  -5.7706  -5.4788  -5.4203  -5.4203  -4.8820
    -4.8818  -4.7502  -4.7496  -4.5947  -4.5642  -4.5025  -4.4686  -4.4682
    -4.4354  -4.4351  -4.3067  -4.2652  -4.2648  -4.2049  -4.1840  -4.1837
    -4.0815  -4.0813  -4.0454  -4.0450  -4.0450  -4.0181  -3.9966  -3.9964
    -3.8915  -3.8895  -3.8891  -3.8686  -3.8519  -3.8516  -3.8396  -3.8392
    -3.8260  -3.7962  -3.7958  -3.7955  -3.7951  -3.7631  -3.7627  -3.7452
    -3.7449  -3.7310  -3.6880  -3.6876  -3.6571  -3.6421  -3.6411  -3.6368
    -3.6366  -3.5623  -3.5621  -3.5270  -3.5244  -3.5240  -3.4570  -3.4566
    -3.4413  -3.4408  -3.4105  -3.4099  -3.4095  -3.4090  -3.2557  -3.2552
    -3.2305  -3.2302  -3.2255  -3.2087  -3.2085  -3.1829  -3.1823  -3.1328
    -3.1327  -3.1168  -3.1162  -3.0959  -3.0477  -3.0474  -3.0286  -3.0232
    -3.0226  -2.9823  -2.9818  -2.9751  -2.9749  -2.9600  -2.9580  -2.9190
    -2.9187  -2.8978  -2.8969  -2.8939  -2.8936  -2.8906  -2.8170  -2.8135
    -2.8123  -2.7837  -2.7828  -2.7580  -2.7216  -2.7181  -2.6926  -2.6894
    -2.6783  -2.6780  -2.6727  -2.6435  -2.6426  -2.6336  -2.6155  -2.5905
    -2.5903  -2.5887  -2.5692  -2.5689  -2.5579  -2.5573  -2.5546  -2.5536
    -2.5460  -2.4999  -2.4678  -2.4676  -2.4518  -2.4383  -2.4318  -2.4312
    -2.4244  -2.4235  -2.4223  -2.3926  -2.3924  -2.3918  -2.3826  -2.3817
    -2.3650  -2.3380  -2.3372  -2.3369  -2.3356  -2.3353  -2.2904  -2.2596
    -2.2586  -2.2581  -2.2515  -2.2427  -2.2309  -2.2291  -2.2128  -2.2126
    -2.1801  -2.1778  -2.1776  -2.1592  -2.1582  -2.1575  -2.1250  -2.1244
    -2.0843  -2.0823  -2.0756  -2.0737  -2.0732  -2.0675  -2.0668  -2.0650
    -2.0639  -2.0578  -2.0565  -2.0406  -2.0400  -1.9138  -1.9126  -1.8802
    -1.8747  -1.8740  -1.8685  -1.8684  -1.8521  -1.8515  -1.8479  -1.8474
    -1.8454  -1.8231  -1.8159  -1.8149  -1.8115  -1.8029  -1.8021  -1.7802
    -1.7800  -1.7515  -1.7510  -1.7193  -1.7186  -1.7085  -1.7002  -1.6827
    -1.6821  -1.6791  -1.6612  -1.6488  -1.6486  -1.6413  -1.6411  -1.6144
    -1.6141  -1.5979  -1.5970  -1.5659  -1.5654  -1.5548  -1.5050  -1.5042
    -1.4919  -1.4909  -1.4906  -1.4657  -1.4627  -1.4300  -1.4295  -1.4283
    -1.3955  -1.3852  -1.3849  -1.3690  -1.3684  -1.3434  -1.3411  -1.3406
    -1.3111  -1.3085  -1.3080  -1.2464  -1.2452  -1.2330  -1.2318  -1.2166
    -1.2154  -1.2032  -1.2024  -1.1844  -1.1719  -1.1445  -1.1440  -1.1331
    -1.1066  -1.0951  -1.0943  -1.0826  -1.0824  -1.0809  -1.0753  -1.0752
    -1.0612  -1.0324  -1.0306  -1.0260  -1.0195  -1.0177  -1.0169  -0.9942
    -0.9779  -0.9756  -0.9556  -0.9531  -0.8642  -0.8480  -0.8437  -0.8423
    -0.8411  -0.8350  -0.8329  -0.8152  -0.8073  -0.7940  -0.7918  -0.7789
    -0.7768  -0.7681  -0.7561  -0.7472  -0.7458  -0.7371  -0.7078  -0.6650
    -0.6641  -0.6308  -0.6269  -0.6258  -0.6192  -0.6184  -0.6176  -0.6142
    -0.6047  -0.5990  -0.5834  -0.5632  -0.5481  -0.5295  -0.5280  -0.5174
    -0.5166  -0.5051  -0.5038  -0.5029  -0.5018  -0.5006  -0.4844  -0.4799
    -0.4793  -0.4494  -0.4473  -0.4470  -0.4355  -0.4350  -0.4160  -0.3838
    -0.3836  -0.3745  -0.3740  -0.3070  -0.3058  -0.2693  -0.2688  -0.2110
    -0.2102  -0.2093  -0.1970  -0.1819   0.0423   0.0481   0.3900   0.3901
     0.4807   0.4852   0.6742   0.6929   0.7078   0.8378   0.8392   1.2701
     1.2705   1.2884   1.5479   1.5804   1.5804   1.8560   1.8619   1.9359
     1.9369   1.9629   1.9664   2.1924   2.1933   2.2811   2.2817   2.3569
     2.4195   2.4242   2.5846   2.6836   3.1210   3.1247   3.1268   3.1284
     3.1815   3.1830   3.4742   3.4749   3.7546   3.7590   3.8631   4.1701
     4.2111   4.2147   4.4261   4.4456   4.5114   4.5157   4.6059   4.7207
     4.7252   4.8409   4.8418   5.1448   5.2068   5.2159   5.3112   5.3913
     5.4203   5.5985   5.6030   5.6278   5.6294   5.6890   5.6938   5.7351
     5.8180   6.0704   6.2679   6.2980   6.3345   6.4326   6.4359   6.4472
     6.4493   6.5080   6.6300   6.6828   6.6908   6.8535   6.8921   6.9312
     6.9342   7.0001   7.0652

          k = 0.0000 0.2887 0.1111 (136898 PWs)   bands (ev):

   -18.6979  -6.5752  -6.5416  -5.7706  -5.4788  -5.4203  -5.4203  -4.8820
    -4.8818  -4.7502  -4.7496  -4.5947  -4.5642  -4.5025  -4.4686  -4.4682
    -4.4354  -4.4351  -4.3067  -4.2652  -4.2648  -4.2049  -4.1840  -4.1837
    -4.0815  -4.0813  -4.0454  -4.0450  -4.0450  -4.0181  -3.9966  -3.9964
    -3.8915  -3.8895  -3.8891  -3.8686  -3.8519  -3.8516  -3.8396  -3.8392
    -3.8260  -3.7962  -3.7958  -3.7955  -3.7951  -3.7631  -3.7627  -3.7452
    -3.7449  -3.7310  -3.6880  -3.6876  -3.6571  -3.6421  -3.6411  -3.6368
    -3.6366  -3.5623  -3.5621  -3.5270  -3.5244  -3.5240  -3.4570  -3.4566
    -3.4413  -3.4408  -3.4105  -3.4099  -3.4095  -3.4090  -3.2557  -3.2552
    -3.2305  -3.2302  -3.2255  -3.2087  -3.2085  -3.1829  -3.1823  -3.1328
    -3.1327  -3.1168  -3.1162  -3.0959  -3.0477  -3.0474  -3.0286  -3.0232
    -3.0226  -2.9823  -2.9818  -2.9751  -2.9749  -2.9600  -2.9580  -2.9190
    -2.9187  -2.8978  -2.8969  -2.8939  -2.8936  -2.8906  -2.8170  -2.8135
    -2.8123  -2.7837  -2.7828  -2.7580  -2.7216  -2.7181  -2.6926  -2.6894
    -2.6783  -2.6780  -2.6727  -2.6435  -2.6426  -2.6336  -2.6155  -2.5905
    -2.5903  -2.5887  -2.5692  -2.5689  -2.5579  -2.5573  -2.5546  -2.5536
    -2.5459  -2.4999  -2.4678  -2.4676  -2.4518  -2.4382  -2.4318  -2.4312
    -2.4244  -2.4235  -2.4223  -2.3926  -2.3924  -2.3918  -2.3826  -2.3817
    -2.3650  -2.3380  -2.3372  -2.3369  -2.3356  -2.3353  -2.2904  -2.2596
    -2.2586  -2.2581  -2.2515  -2.2427  -2.2309  -2.2291  -2.2128  -2.2126
    -2.1801  -2.1778  -2.1776  -2.1592  -2.1582  -2.1575  -2.1250  -2.1244
    -2.0843  -2.0823  -2.0756  -2.0737  -2.0732  -2.0675  -2.0668  -2.0650
    -2.0639  -2.0578  -2.0565  -2.0406  -2.0400  -1.9138  -1.9126  -1.8802
    -1.8747  -1.8740  -1.8685  -1.8684  -1.8521  -1.8515  -1.8479  -1.8474
    -1.8454  -1.8231  -1.8159  -1.8149  -1.8115  -1.8029  -1.8021  -1.7802
    -1.7800  -1.7515  -1.7510  -1.7193  -1.7186  -1.7085  -1.7002  -1.6827
    -1.6821  -1.6791  -1.6612  -1.6488  -1.6486  -1.6413  -1.6411  -1.6144
    -1.6141  -1.5979  -1.5970  -1.5659  -1.5654  -1.5548  -1.5050  -1.5042
    -1.4919  -1.4909  -1.4906  -1.4657  -1.4627  -1.4300  -1.4295  -1.4283
    -1.3955  -1.3852  -1.3849  -1.3689  -1.3684  -1.3434  -1.3411  -1.3406
    -1.3111  -1.3085  -1.3080  -1.2464  -1.2451  -1.2330  -1.2318  -1.2166
    -1.2154  -1.2032  -1.2024  -1.1844  -1.1719  -1.1445  -1.1440  -1.1331
    -1.1066  -1.0951  -1.0943  -1.0826  -1.0824  -1.0809  -1.0753  -1.0751
    -1.0612  -1.0324  -1.0306  -1.0260  -1.0195  -1.0177  -1.0169  -0.9942
    -0.9779  -0.9756  -0.9556  -0.9531  -0.8642  -0.8480  -0.8437  -0.8423
    -0.8411  -0.8350  -0.8329  -0.8152  -0.8073  -0.7940  -0.7918  -0.7789
    -0.7768  -0.7681  -0.7561  -0.7472  -0.7458  -0.7371  -0.7078  -0.6650
    -0.6641  -0.6308  -0.6269  -0.6259  -0.6192  -0.6184  -0.6176  -0.6142
    -0.6047  -0.5990  -0.5834  -0.5632  -0.5481  -0.5295  -0.5280  -0.5174
    -0.5166  -0.5051  -0.5038  -0.5029  -0.5018  -0.5006  -0.4844  -0.4799
    -0.4793  -0.4494  -0.4473  -0.4470  -0.4355  -0.4350  -0.4160  -0.3838
    -0.3836  -0.3745  -0.3740  -0.3070  -0.3058  -0.2693  -0.2688  -0.2110
    -0.2102  -0.2093  -0.1970  -0.1819   0.0423   0.0481   0.3900   0.3901
     0.4807   0.4852   0.6742   0.6929   0.7078   0.8378   0.8392   1.2701
     1.2705   1.2884   1.5479   1.5804   1.5804   1.8560   1.8619   1.9359
     1.9369   1.9629   1.9664   2.1924   2.1933   2.2811   2.2817   2.3569
     2.4195   2.4242   2.5846   2.6836   3.1210   3.1247   3.1268   3.1284
     3.1815   3.1830   3.4742   3.4749   3.7546   3.7590   3.8631   4.1701
     4.2111   4.2147   4.4261   4.4456   4.5114   4.5157   4.6059   4.7207
     4.7252   4.8409   4.8418   5.1448   5.2068   5.2159   5.3113   5.3914
     5.4200   5.5985   5.6030   5.6278   5.6294   5.6890   5.6938   5.7345
     5.8210   6.0659   6.2637   6.2980   6.3344   6.4325   6.4358   6.4472
     6.4493   6.5204   6.6314   6.6841   6.6909   6.8444   6.8921   6.9286
     6.9343   7.0088   7.0722

     the Fermi energy is     1.4134 ev

!    total energy              =   -6604.43387052 Ry
     Harris-Foulkes estimate   =   -6604.43387052 Ry
     estimated scf accuracy    <          2.8E-09 Ry

     The total energy is the sum of the following terms:

     one-electron contribution =  -48575.67976118 Ry
     hartree contribution      =   24788.49095819 Ry
     xc contribution           =   -3204.96767694 Ry
     ewald contribution        =   20387.71970985 Ry
     smearing contrib. (-TS)   =       0.00289955 Ry

     convergence has been achieved in  25 iterations

     Writing output data file 6188590.save

     init_run     :    144.76s CPU    153.40s WALL (       1 calls)
     electrons    :   9206.25s CPU   9662.03s WALL (       1 calls)

     Called by init_run:
     wfcinit      :    113.75s CPU    121.20s WALL (       1 calls)
     potinit      :      9.81s CPU     10.44s WALL (       1 calls)

     Called by electrons:
     c_bands      :   7785.29s CPU   8137.79s WALL (      26 calls)
     sum_band     :   1058.94s CPU   1146.11s WALL (      26 calls)
     v_of_rho     :    116.92s CPU    129.07s WALL (      26 calls)
     newd         :    253.74s CPU    256.71s WALL (      26 calls)
     mix_rho      :      3.02s CPU      3.46s WALL (      26 calls)
     vdW_energy   :      7.22s CPU      7.87s WALL (      26 calls)
     vdW_ffts     :     62.82s CPU     69.65s WALL (      52 calls)
     vdW_v        :     15.34s CPU     16.28s WALL (      26 calls)

     Called by c_bands:
     init_us_2    :     13.13s CPU     13.55s WALL (     636 calls)
     cegterg      :   7640.73s CPU   7991.17s WALL (     312 calls)

     Called by *egterg:
     h_psi        :   3260.00s CPU   3572.02s WALL (    1650 calls)
     s_psi        :    433.53s CPU    436.27s WALL (    1650 calls)
     g_psi        :      6.07s CPU      6.16s WALL (    1326 calls)
     cdiaghg      :   2033.14s CPU   2038.91s WALL (    1626 calls)

     Called by h_psi:
     add_vuspsi   :    435.00s CPU    437.73s WALL (    1650 calls)

     General routines
     calbec       :    841.62s CPU    844.69s WALL (    1962 calls)
     fft          :    161.63s CPU    173.31s WALL (    1716 calls)
     ffts         :      1.80s CPU      2.11s WALL (      52 calls)
     fftw         :   2441.63s CPU   2792.52s WALL (  754926 calls)
     interpolate  :      4.80s CPU      5.64s WALL (      52 calls)
     davcio       :      0.01s CPU      0.27s WALL (      12 calls)

     Parallel routines
     fft_scatter  :   1831.89s CPU   2103.12s WALL (  756694 calls)

     PWSCF        :     2h36m CPU        2h44m WALL


   This run was terminated on:   4:33:12  25Jun2015            

=------------------------------------------------------------------------------=
   JOB DONE.
=------------------------------------------------------------------------------=
