Setting SGE environment for SCC

     Program PWSCF v.5.1.2 starts on 29Aug2015 at 20:47:50 

     This program is part of the open-source Quantum ESPRESSO suite
     for quantum simulation of materials; please cite
         "P. Giannozzi et al., J. Phys.:Condens. Matter 21 395502 (2009);
          URL http://www.quantum-espresso.org", 
     in publications or presentations arising from this work. More details at
     http://www.quantum-espresso.org/quote

     Parallel version (MPI), running on    32 processors
     R & G space division:  proc/nbgrp/npool/nimage =      32
     Reading input from top.O1.Au50.d.3.8.phi.0.psi.90.in
Warning: card &IONS ignored
Warning: card / ignored
Warning: card &CELL ignored
Warning: card / ignored

     Current dimensions of program PWSCF are:
     Max number of different atomic species (ntypx) = 10
     Max number of k-points (npk) =  40000
     Max angular momentum in pseudopotentials (lmaxx) =  3

     IMPORTANT: XC functional enforced from input :
     Exchange-correlation      = VDW-DF ( 1  4  4  0 1 0)
     Any further DFT definition will be discarded
     Please, verify this is what you really want


     Subspace diagonalization in iterative solution of the eigenvalue problem:
     a serial algorithm will be used


     Parallelization info
     --------------------
     sticks:   dense  smooth     PW     G-vecs:    dense   smooth      PW
     Min         445     223     58                96775    34191    4534
     Max         446     224     59                96790    34246    4540
     Sum       14269    7147   1867              3097177  1095093  145167


     Title: 
     top.O1.Au50.d.3.8.phi.0.psi.90                                             


     bravais-lattice index     =            4
     lattice parameter (alat)  =      22.7436  a.u.
     unit-cell volume          =   22924.1508 (a.u.)^3
     number of atoms/cell      =           67
     number of atomic types    =            3
     number of electrons       =       712.00
     number of Kohn-Sham states=          427
     kinetic-energy cutoff     =      50.0000  Ry
     charge density cutoff     =     400.0000  Ry
     convergence threshold     =      1.0E-08
     mixing beta               =       0.7000
     number of iterations used =            8  plain     mixing
     Exchange-correlation      = VDW-DF ( 1  4  4  0 1 0)

     celldm(1)=  22.743643  celldm(2)=   0.000000  celldm(3)=   2.250000
     celldm(4)=   0.000000  celldm(5)=   0.000000  celldm(6)=   0.000000

     crystal axes: (cart. coord. in units of alat)
               a(1) = (   1.000000   0.000000   0.000000 )  
               a(2) = (  -0.500000   0.866025   0.000000 )  
               a(3) = (   0.000000   0.000000   2.250000 )  

     reciprocal axes: (cart. coord. in units 2 pi/alat)
               b(1) = (  1.000000  0.577350 -0.000000 )  
               b(2) = (  0.000000  1.154701  0.000000 )  
               b(3) = (  0.000000 -0.000000  0.444444 )  


     PseudoPot. # 1 for Au read from file:
     /home/scc/andrejb/qe/pseudo/Au.pbe-nd-van.UPF
     MD5 check sum: 458681b50f36d87ef23c61b04bba420a
     Pseudo is Ultrasoft + core correction, Zval = 11.0
     Generated by new atomic code, or converted to UPF format
     Using radial grid of  985 points,  3 beta functions with: 
                l(1) =   1
                l(2) =   2
                l(3) =   2
     Q(r) pseudized with  8 coefficients,  rinner =    1.100   1.100   1.100
                                                       1.100   1.100

     PseudoPot. # 2 for H  read from file:
     /home/scc/andrejb/qe/pseudo/H.pbe-van_ak.UPF
     MD5 check sum: 403db7282739603aa925980fa9b8608d
     Pseudo is Ultrasoft, Zval =  1.0
     Generated by new atomic code, or converted to UPF format
     Using radial grid of  615 points,  1 beta functions with: 
                l(1) =   0
     Q(r) pseudized with  8 coefficients,  rinner =    0.800

     PseudoPot. # 3 for O  read from file:
     /home/scc/andrejb/qe/pseudo/O.pbe-van_ak.UPF
     MD5 check sum: 4b8c549914a63cae506c6ff22b5af4fe
     Pseudo is Ultrasoft, Zval =  6.0
     Generated by new atomic code, or converted to UPF format
     Using radial grid of  737 points,  4 beta functions with: 
                l(1) =   0
                l(2) =   0
                l(3) =   1
                l(4) =   1
     Q(r) pseudized with  8 coefficients,  rinner =    0.800   0.800   0.800


     vdW kernel table read from file vdW_kernel_table
     MD5 check sum: 48e77a2e26edf626eeb0eaa751ad5cac

     atomic species   valence    mass     pseudopotential
        Au            11.00   196.96657     Au( 1.00)
        H              1.00     1.01000     H ( 1.00)
        O              6.00    16.00000     O ( 1.00)

     No symmetry found



   Cartesian axes

     site n.     atom                  positions (alat units)
         1           O   tau(   1) = (   0.4790780   0.3968269   0.9287316  )
         2           H   tau(   2) = (   0.4291446   0.3485733   0.8871839  )
         3           H   tau(   3) = (   0.5274974   0.3460662   0.9690385  )
         4           Au  tau(   4) = (   0.3540481   0.6132292   0.0000000  )
         5           Au  tau(   5) = (   0.4790062   0.3967954   0.0000000  )
         6           Au  tau(   6) = (   0.6039644   0.1803616   0.0000000  )
         7           Au  tau(   7) = (   0.7289225  -0.0360723   0.0000000  )
         8           Au  tau(   8) = (   0.1041318   0.6132292   0.0000000  )
         9           Au  tau(   9) = (   0.2290899   0.3967954   0.0000000  )
        10           Au  tau(  10) = (   0.3540481   0.1803616   0.0000000  )
        11           Au  tau(  11) = (   0.4790062  -0.0360723   0.0000000  )
        12           Au  tau(  12) = (  -0.1457845   0.6132292   0.0000000  )
        13           Au  tau(  13) = (  -0.0208264   0.3967954   0.0000000  )
        14           Au  tau(  14) = (   0.1041318   0.1803616   0.0000000  )
        15           Au  tau(  15) = (   0.2290899  -0.0360723   0.0000000  )
        16           Au  tau(  16) = (  -0.3957008   0.6132292   0.0000000  )
        17           Au  tau(  17) = (  -0.2707426   0.3967954   0.0000000  )
        18           Au  tau(  18) = (  -0.1457845   0.1803616   0.0000000  )
        19           Au  tau(  19) = (  -0.0208264  -0.0360723   0.0000000  )
        20           Au  tau(  20) = (   0.4790062   0.6853738   0.2040557  )
        21           Au  tau(  21) = (   0.6039644   0.4689400   0.2040557  )
        22           Au  tau(  22) = (   0.7289225   0.2525061   0.2040557  )
        23           Au  tau(  23) = (   0.8538806   0.0360723   0.2040557  )
        24           Au  tau(  24) = (   0.2290899   0.6853738   0.2040557  )
        25           Au  tau(  25) = (   0.3540481   0.4689400   0.2040557  )
        26           Au  tau(  26) = (   0.4790062   0.2525061   0.2040557  )
        27           Au  tau(  27) = (   0.6039644   0.0360723   0.2040557  )
        28           Au  tau(  28) = (  -0.0208264   0.6853738   0.2040557  )
        29           Au  tau(  29) = (   0.1041318   0.4689400   0.2040557  )
        30           Au  tau(  30) = (   0.2290899   0.2525061   0.2040557  )
        31           Au  tau(  31) = (   0.3540481   0.0360723   0.2040557  )
        32           Au  tau(  32) = (  -0.2707426   0.6853738   0.2040557  )
        33           Au  tau(  33) = (  -0.1457845   0.4689400   0.2040557  )
        34           Au  tau(  34) = (  -0.0208264   0.2525061   0.2040557  )
        35           Au  tau(  35) = (   0.1041318   0.0360723   0.2040557  )
        36           Au  tau(  36) = (   0.3541162   0.7576593   0.4066483  )
        37           Au  tau(  37) = (   0.4791000   0.5411421   0.4066695  )
        38           Au  tau(  38) = (   0.6040570   0.3246862   0.4066617  )
        39           Au  tau(  39) = (   0.7290270   0.1081684   0.4066529  )
        40           Au  tau(  40) = (   0.1041162   0.7576236   0.4066247  )
        41           Au  tau(  41) = (   0.2291001   0.5411063   0.4066455  )
        42           Au  tau(  42) = (   0.3540567   0.3246505   0.4066380  )
        43           Au  tau(  43) = (   0.4790276   0.1081324   0.4066292  )
        44           Au  tau(  44) = (  -0.1458201   0.7576104   0.4066224  )
        45           Au  tau(  45) = (  -0.0208365   0.5410930   0.4066438  )
        46           Au  tau(  46) = (   0.1041202   0.3246372   0.4066359  )
        47           Au  tau(  47) = (   0.2290908   0.1081193   0.4066273  )
        48           Au  tau(  48) = (  -0.3958167   0.7575791   0.4065812  )
        49           Au  tau(  49) = (  -0.2708328   0.5410617   0.4066025  )
        50           Au  tau(  50) = (  -0.1458763   0.3246061   0.4065947  )
        51           Au  tau(  51) = (  -0.0209056   0.1080882   0.4065858  )
        52           Au  tau(  52) = (   0.3541085   0.6133344   0.6129762  )
        53           Au  tau(  53) = (   0.4790780   0.3968269   0.6129968  )
        54           Au  tau(  54) = (   0.6040356   0.1803811   0.6129859  )
        55           Au  tau(  55) = (   0.7290165  -0.0361221   0.6129385  )
        56           Au  tau(  56) = (   0.1041243   0.6133091   0.6130022  )
        57           Au  tau(  57) = (   0.2290941   0.3968013   0.6130241  )
        58           Au  tau(  58) = (   0.3540515   0.1803552   0.6130121  )
        59           Au  tau(  59) = (   0.4790323  -0.0361475   0.6129659  )
        60           Au  tau(  60) = (  -0.1458030   0.6133014   0.6129980  )
        61           Au  tau(  61) = (  -0.0208339   0.3967936   0.6130188  )
        62           Au  tau(  62) = (   0.1041239   0.1803477   0.6130083  )
        63           Au  tau(  63) = (   0.2291046  -0.0361554   0.6129607  )
        64           Au  tau(  64) = (  -0.3957908   0.6132739   0.6129471  )
        65           Au  tau(  65) = (  -0.2708208   0.3967658   0.6129688  )
        66           Au  tau(  66) = (  -0.1458636   0.1803200   0.6129569  )
        67           Au  tau(  67) = (  -0.0208823  -0.0361826   0.6129110  )

     number of k points=    12  Marzari-Vanderbilt smearing, width (Ry)=  0.0200
                       cart. coord. in units 2pi/alat
        k(    1) = (   0.2500000   0.4330127   0.1111111), wk =   0.1666667
        k(    2) = (   0.2500000  -0.1443376   0.1111111), wk =   0.1666667
        k(    3) = (  -0.2500000  -0.4330127   0.1111111), wk =   0.1666667
        k(    4) = (  -0.2500000   0.4330127  -0.1111111), wk =   0.1666667
        k(    5) = (   0.2500000  -0.4330127  -0.1111111), wk =   0.1666667
        k(    6) = (   0.5000000   0.0000000   0.1111111), wk =   0.1666667
        k(    7) = (  -0.5000000   0.0000000   0.1111111), wk =   0.1666667
        k(    8) = (  -0.2500000   0.1443376   0.1111111), wk =   0.1666667
        k(    9) = (  -0.2500000  -0.1443376  -0.1111111), wk =   0.1666667
        k(   10) = (   0.2500000   0.1443376  -0.1111111), wk =   0.1666667
        k(   11) = (   0.0000000  -0.2886751   0.1111111), wk =   0.1666667
        k(   12) = (   0.0000000   0.2886751   0.1111111), wk =   0.1666667

     Dense  grid:  3097177 G-vectors     FFT dimensions: ( 150, 150, 360)

     Smooth grid:  1095093 G-vectors     FFT dimensions: ( 108, 108, 240)

     Largest allocated arrays     est. size (Mb)     dimensions
        Kohn-Sham Wavefunctions        28.01 Mb     (    4299,  427)
        NL pseudopotentials            55.23 Mb     (    4299,  842)
        Each V/rho on FFT grid          4.12 Mb     (  270000)
        Each G-vector array             0.74 Mb     (   96788)
        G-vector shells                 0.16 Mb     (   21404)
     Largest temporary arrays     est. size (Mb)     dimensions
        Auxiliary wavefunctions       112.04 Mb     (    4299, 1708)
        Each subspace H/S matrix       44.51 Mb     (    1708, 1708)
        Each <psi_i|beta_j> matrix      5.49 Mb     (     842,  427)
        Arrays for rho mixing          32.96 Mb     (  270000,    8)

     Initial potential from superposition of free atoms
     Check: negative starting charge=   -1.730174

     starting charge  711.25682, renormalised to  712.00000

     negative rho (up, down):  1.732E+00 0.000E+00


     ************************************************************************
     *
     * You are using vdW-DF for exchange-correlation in this calculation.
     * Please cite the following three references that made this development
     * possible:
     *
     *   M. Dion, H. Rydberg, E. Schroder, D. C. Langreth, and
     *   B. I. Lundqvist, Phys. Rev. Lett. 92, 246401 (2004).
     *
     *   T. Thonhauser, V. R. Cooper, S. Li, A. Puzder, P. Hyldgaard, and
     *   D. C. Langreth, Phys. Rev. B 76, 125112 (2007).
     *
     *   G. Roman-Perez and J. M. Soler, Phys. Rev. Lett. 103, 096102 (2009).
     *
     *
     * If you are using vdW-DF2, please also cite:
     *
     *   K. Lee, E. D. Murray, L. Kong, B. I. Lundqvist, and
     *   D. C. Langreth, Phys. Rev. B 82, 081101(R) (2010).
     *
     *
     * If you are calculating the stress with vdW-DF, please also cite:
     *
     *   R. Sabatini, E. Kucukbenli, B. Kolb, T. Thonhauser, and
     *   S. de Gironcoli, J. Phys.: Condens. Matter 24, 424209 (2012).
     *
     ************************************************************************

     Carrying out vdW-DF run using the following parameters:

     Nqs =      20    Nr_points =    1024   r_max =   100.000
     q_mesh =
               0.00001000     0.04494208     0.09755937     0.15916263
               0.23128650     0.31572767     0.41458969     0.53033537
               0.66584808     0.82450364     1.01025438     1.22772762
               1.48234092     1.78043706     2.12944203     2.53805004
               3.01644009     3.57652955     4.23227104     5.00000000

     Gradients computed in reciprocal space

     ************************************************************************


     Starting wfc are  582 randomized atomic wfcs

     total cpu time spent up to now is      173.3 secs

     Self-consistent Calculation

     iteration #  1     ecut=    50.00 Ry     beta=0.70
     Davidson diagonalization with overlap
     ethr =  1.00E-02,  avg # of iterations =  3.0

     Threshold (ethr) on eigenvalues was too large:
     Diagonalizing with lowered threshold

     Davidson diagonalization with overlap
     ethr =  3.52E-04,  avg # of iterations =  6.2

     negative rho (up, down):  1.728E+00 0.000E+00

     total cpu time spent up to now is      965.8 secs

     total energy              =   -6602.77477976 Ry
     Harris-Foulkes estimate   =   -6605.04598853 Ry
     estimated scf accuracy    <       2.84396585 Ry

     iteration #  2     ecut=    50.00 Ry     beta=0.70
     Davidson diagonalization with overlap
     ethr =  3.99E-04,  avg # of iterations = 11.4

     negative rho (up, down):  1.726E+00 0.000E+00

     total cpu time spent up to now is     1932.4 secs

     total energy              =   -6596.64256893 Ry
     Harris-Foulkes estimate   =   -6610.19012987 Ry
     estimated scf accuracy    <      75.54273952 Ry

     iteration #  3     ecut=    50.00 Ry     beta=0.70
     Davidson diagonalization with overlap
     ethr =  3.99E-04,  avg # of iterations =  6.5

     negative rho (up, down):  1.737E+00 0.000E+00

     total cpu time spent up to now is     2604.7 secs

     total energy              =   -6603.09460716 Ry
     Harris-Foulkes estimate   =   -6605.03153025 Ry
     estimated scf accuracy    <       9.03296333 Ry

     iteration #  4     ecut=    50.00 Ry     beta=0.70
     Davidson diagonalization with overlap
     ethr =  3.99E-04,  avg # of iterations =  6.7

     negative rho (up, down):  1.738E+00 0.000E+00

     total cpu time spent up to now is     3004.3 secs

     total energy              =   -6603.50260104 Ry
     Harris-Foulkes estimate   =   -6605.16540471 Ry
     estimated scf accuracy    <      15.30455792 Ry

     iteration #  5     ecut=    50.00 Ry     beta=0.70
     Davidson diagonalization with overlap
     ethr =  3.99E-04,  avg # of iterations =  5.9

     negative rho (up, down):  1.748E+00 0.000E+00

     total cpu time spent up to now is     3385.6 secs

     total energy              =   -6604.32147783 Ry
     Harris-Foulkes estimate   =   -6604.63485296 Ry
     estimated scf accuracy    <       2.30301404 Ry

     iteration #  6     ecut=    50.00 Ry     beta=0.70
     Davidson diagonalization with overlap
     ethr =  3.23E-04,  avg # of iterations =  2.3

     negative rho (up, down):  1.753E+00 0.000E+00

     total cpu time spent up to now is     3684.5 secs

     total energy              =   -6604.43011837 Ry
     Harris-Foulkes estimate   =   -6604.46815786 Ry
     estimated scf accuracy    <       0.11335781 Ry

     iteration #  7     ecut=    50.00 Ry     beta=0.70
     Davidson diagonalization with overlap
     ethr =  1.59E-05,  avg # of iterations = 10.5

     negative rho (up, down):  1.754E+00 0.000E+00

     total cpu time spent up to now is     4215.0 secs

     total energy              =   -6604.43293289 Ry
     Harris-Foulkes estimate   =   -6604.45892309 Ry
     estimated scf accuracy    <       0.10850580 Ry

     iteration #  8     ecut=    50.00 Ry     beta=0.70
     Davidson diagonalization with overlap
     ethr =  1.52E-05,  avg # of iterations =  3.3

     negative rho (up, down):  1.755E+00 0.000E+00

     total cpu time spent up to now is     4529.8 secs

     total energy              =   -6604.43541106 Ry
     Harris-Foulkes estimate   =   -6604.44821729 Ry
     estimated scf accuracy    <       0.04702569 Ry

     iteration #  9     ecut=    50.00 Ry     beta=0.70
     Davidson diagonalization with overlap
     c_bands:  1 eigenvalues not converged
     ethr =  6.60E-06,  avg # of iterations =  8.3

     negative rho (up, down):  1.756E+00 0.000E+00

     total cpu time spent up to now is     4952.6 secs

     total energy              =   -6604.43508507 Ry
     Harris-Foulkes estimate   =   -6604.44125611 Ry
     estimated scf accuracy    <       0.02176167 Ry

     iteration # 10     ecut=    50.00 Ry     beta=0.70
     Davidson diagonalization with overlap
     ethr =  3.06E-06,  avg # of iterations =  6.1

     negative rho (up, down):  1.757E+00 0.000E+00

     total cpu time spent up to now is     5313.8 secs

     total energy              =   -6604.43454402 Ry
     Harris-Foulkes estimate   =   -6604.43751420 Ry
     estimated scf accuracy    <       0.01056480 Ry

     iteration # 11     ecut=    50.00 Ry     beta=0.70
     Davidson diagonalization with overlap
     ethr =  1.48E-06,  avg # of iterations =  6.3

     negative rho (up, down):  1.757E+00 0.000E+00

     total cpu time spent up to now is     5695.1 secs

     total energy              =   -6604.43436310 Ry
     Harris-Foulkes estimate   =   -6604.43566553 Ry
     estimated scf accuracy    <       0.00554939 Ry

     iteration # 12     ecut=    50.00 Ry     beta=0.70
     Davidson diagonalization with overlap
     ethr =  7.79E-07,  avg # of iterations =  4.4

     negative rho (up, down):  1.758E+00 0.000E+00

     total cpu time spent up to now is     5973.8 secs

     total energy              =   -6604.43377047 Ry
     Harris-Foulkes estimate   =   -6604.43481588 Ry
     estimated scf accuracy    <       0.00169944 Ry

     iteration # 13     ecut=    50.00 Ry     beta=0.70
     Davidson diagonalization with overlap
     c_bands:  1 eigenvalues not converged
     ethr =  2.39E-07,  avg # of iterations =  8.1

     negative rho (up, down):  1.758E+00 0.000E+00

     total cpu time spent up to now is     6341.9 secs

     total energy              =   -6604.43403111 Ry
     Harris-Foulkes estimate   =   -6604.43418259 Ry
     estimated scf accuracy    <       0.00036735 Ry

     iteration # 14     ecut=    50.00 Ry     beta=0.70
     Davidson diagonalization with overlap
     ethr =  5.16E-08,  avg # of iterations =  2.8

     negative rho (up, down):  1.758E+00 0.000E+00

     total cpu time spent up to now is     6686.8 secs

     total energy              =   -6604.43407420 Ry
     Harris-Foulkes estimate   =   -6604.43416519 Ry
     estimated scf accuracy    <       0.00035428 Ry

     iteration # 15     ecut=    50.00 Ry     beta=0.70
     Davidson diagonalization with overlap
     ethr =  4.98E-08,  avg # of iterations =  2.0

     negative rho (up, down):  1.758E+00 0.000E+00

     total cpu time spent up to now is     6992.2 secs

     total energy              =   -6604.43410761 Ry
     Harris-Foulkes estimate   =   -6604.43414238 Ry
     estimated scf accuracy    <       0.00013921 Ry

     iteration # 16     ecut=    50.00 Ry     beta=0.70
     Davidson diagonalization with overlap
     ethr =  1.96E-08,  avg # of iterations =  2.0

     negative rho (up, down):  1.758E+00 0.000E+00

     total cpu time spent up to now is     7306.8 secs

     total energy              =   -6604.43411513 Ry
     Harris-Foulkes estimate   =   -6604.43413299 Ry
     estimated scf accuracy    <       0.00010563 Ry

     iteration # 17     ecut=    50.00 Ry     beta=0.70
     Davidson diagonalization with overlap
     ethr =  1.48E-08,  avg # of iterations =  1.0

     negative rho (up, down):  1.757E+00 0.000E+00

     total cpu time spent up to now is     7573.8 secs

     total energy              =   -6604.43412210 Ry
     Harris-Foulkes estimate   =   -6604.43413252 Ry
     estimated scf accuracy    <       0.00010350 Ry

     iteration # 18     ecut=    50.00 Ry     beta=0.70
     Davidson diagonalization with overlap
     ethr =  1.45E-08,  avg # of iterations =  1.0

     negative rho (up, down):  1.757E+00 0.000E+00

     total cpu time spent up to now is     7860.3 secs

     total energy              =   -6604.43412686 Ry
     Harris-Foulkes estimate   =   -6604.43412809 Ry
     estimated scf accuracy    <       0.00000358 Ry

     iteration # 19     ecut=    50.00 Ry     beta=0.70
     Davidson diagonalization with overlap
     ethr =  5.03E-10,  avg # of iterations =  2.8

     negative rho (up, down):  1.757E+00 0.000E+00

     total cpu time spent up to now is     8211.4 secs

     total energy              =   -6604.43412741 Ry
     Harris-Foulkes estimate   =   -6604.43412806 Ry
     estimated scf accuracy    <       0.00000309 Ry

     iteration # 20     ecut=    50.00 Ry     beta=0.70
     Davidson diagonalization with overlap
     ethr =  4.34E-10,  avg # of iterations =  2.0

     negative rho (up, down):  1.757E+00 0.000E+00

     total cpu time spent up to now is     8478.3 secs

     total energy              =   -6604.43412788 Ry
     Harris-Foulkes estimate   =   -6604.43412789 Ry
     estimated scf accuracy    <       0.00000035 Ry

     iteration # 21     ecut=    50.00 Ry     beta=0.70
     Davidson diagonalization with overlap
     ethr =  4.85E-11,  avg # of iterations =  2.0

     negative rho (up, down):  1.757E+00 0.000E+00

     total cpu time spent up to now is     8820.2 secs

     total energy              =   -6604.43412794 Ry
     Harris-Foulkes estimate   =   -6604.43412796 Ry
     estimated scf accuracy    <       0.00000019 Ry

     iteration # 22     ecut=    50.00 Ry     beta=0.70
     Davidson diagonalization with overlap
     ethr =  2.71E-11,  avg # of iterations =  2.0

     negative rho (up, down):  1.757E+00 0.000E+00

     total cpu time spent up to now is     9135.9 secs

     total energy              =   -6604.43412797 Ry
     Harris-Foulkes estimate   =   -6604.43412797 Ry
     estimated scf accuracy    <       0.00000001 Ry

     iteration # 23     ecut=    50.00 Ry     beta=0.70
     Davidson diagonalization with overlap
     ethr =  1.92E-12,  avg # of iterations =  3.0

     negative rho (up, down):  1.757E+00 0.000E+00

     total cpu time spent up to now is     9543.2 secs

     total energy              =   -6604.43412797 Ry
     Harris-Foulkes estimate   =   -6604.43412797 Ry
     estimated scf accuracy    <       0.00000001 Ry

     iteration # 24     ecut=    50.00 Ry     beta=0.70
     Davidson diagonalization with overlap
     ethr =  1.84E-12,  avg # of iterations =  3.0

     negative rho (up, down):  1.757E+00 0.000E+00

     total cpu time spent up to now is     9884.2 secs

     End of self-consistent calculation

          k = 0.2500 0.4330 0.1111 (136853 PWs)   bands (ev):

   -18.7416  -6.5593  -6.3470  -5.9478  -5.9476  -5.2696  -4.9363  -4.9362
    -4.8969  -4.8966  -4.5360  -4.5359  -4.4374  -4.4373  -4.4233  -4.4014
    -4.3754  -4.2698  -4.2696  -4.2455  -4.2021  -4.2020  -4.1331  -4.1331
    -4.1260  -4.1259  -4.1049  -4.0989  -4.0987  -4.0263  -4.0257  -3.9967
    -3.9965  -3.9844  -3.9844  -3.9611  -3.9611  -3.9386  -3.9301  -3.9300
    -3.9033  -3.8511  -3.8510  -3.8032  -3.8030  -3.7436  -3.7434  -3.6891
    -3.6891  -3.6885  -3.6884  -3.6532  -3.6137  -3.6136  -3.6077  -3.6063
    -3.6061  -3.5752  -3.5752  -3.5668  -3.5048  -3.5047  -3.4953  -3.4791
    -3.4720  -3.3992  -3.3991  -3.3657  -3.3654  -3.3378  -3.3376  -3.3245
    -3.3077  -3.2474  -3.2473  -3.2300  -3.2299  -3.1779  -3.1730  -3.1728
    -3.1347  -3.1031  -3.1029  -3.0946  -3.0945  -3.0809  -3.0808  -3.0732
    -3.0730  -3.0632  -3.0225  -2.9846  -2.9845  -2.9699  -2.9698  -2.9439
    -2.9341  -2.9340  -2.9126  -2.8680  -2.8678  -2.8584  -2.8192  -2.8129
    -2.8014  -2.8012  -2.7774  -2.7717  -2.7700  -2.7424  -2.7046  -2.7040
    -2.6823  -2.6752  -2.6610  -2.6607  -2.6105  -2.6103  -2.5776  -2.5548
    -2.5547  -2.5305  -2.5304  -2.5192  -2.5191  -2.5084  -2.4854  -2.4852
    -2.4409  -2.4408  -2.4394  -2.4224  -2.4223  -2.4173  -2.4078  -2.4060
    -2.4047  -2.4045  -2.3991  -2.3863  -2.3859  -2.3762  -2.3500  -2.3496
    -2.3483  -2.3469  -2.3466  -2.3438  -2.3438  -2.3156  -2.3126  -2.2986
    -2.2985  -2.2807  -2.2807  -2.2705  -2.2705  -2.2689  -2.2686  -2.2490
    -2.2485  -2.2469  -2.2467  -2.2298  -2.2031  -2.2030  -2.1631  -2.1631
    -2.1373  -2.1372  -2.1100  -2.1099  -2.0821  -2.0820  -2.0644  -2.0604
    -2.0333  -2.0112  -2.0107  -2.0055  -2.0053  -2.0009  -1.9935  -1.9934
    -1.9678  -1.9613  -1.9512  -1.8941  -1.8902  -1.8899  -1.8870  -1.8869
    -1.8495  -1.8311  -1.8310  -1.8031  -1.8029  -1.7423  -1.7423  -1.7135
    -1.6952  -1.6949  -1.6337  -1.6336  -1.6217  -1.6216  -1.6105  -1.6104
    -1.6072  -1.5973  -1.5971  -1.5422  -1.5417  -1.5293  -1.5290  -1.5286
    -1.5092  -1.5089  -1.4735  -1.4733  -1.4561  -1.4559  -1.4558  -1.4493
    -1.4447  -1.4343  -1.4341  -1.4153  -1.4152  -1.3749  -1.3737  -1.3609
    -1.3607  -1.3406  -1.3272  -1.2838  -1.2836  -1.2582  -1.2528  -1.2527
    -1.2235  -1.1732  -1.1718  -1.1706  -1.1701  -1.1647  -1.1643  -1.1539
    -1.1354  -1.1352  -1.0954  -1.0949  -1.0645  -1.0641  -1.0594  -1.0590
    -1.0509  -1.0351  -1.0345  -1.0340  -1.0308  -1.0305  -0.9987  -0.9928
    -0.9907  -0.9907  -0.9611  -0.9591  -0.9561  -0.9358  -0.9243  -0.9236
    -0.8770  -0.8735  -0.8694  -0.8394  -0.8306  -0.8172  -0.8153  -0.8131
    -0.8070  -0.8064  -0.8056  -0.7966  -0.7937  -0.7738  -0.7676  -0.7650
    -0.7643  -0.7621  -0.7517  -0.7249  -0.7246  -0.7145  -0.7070  -0.6953
    -0.6908  -0.6835  -0.6776  -0.6231  -0.6204  -0.6122  -0.6120  -0.6108
    -0.6089  -0.6040  -0.5857  -0.5840  -0.5769  -0.5763  -0.5747  -0.5730
    -0.5352  -0.5327  -0.5321  -0.5242  -0.5237  -0.5186  -0.5170  -0.5045
    -0.5004  -0.4976  -0.4958  -0.4551  -0.4549  -0.4466  -0.4429  -0.4427
    -0.3654  -0.3650  -0.3626  -0.3623  -0.3533  -0.3527  -0.3166  -0.3038
    -0.3036  -0.2755  -0.2717  -0.2700  -0.1499  -0.1496  -0.0477   0.3677
     0.3677   0.3708   0.3710   0.4313   0.4338   0.8206   0.8210   0.8636
     0.8639   0.9727   1.0525   1.1634   1.1645   1.3845   1.3878   2.0174
     2.0186   2.1798   2.1811   2.3112   2.3137   2.4164   2.4164   2.5706
     2.8079   2.8130   2.9312   3.1565   3.1573   3.2401   3.2406   3.3403
     3.3557   3.5503   3.5527   3.6119   3.8128   3.8130   3.8750   3.8765
     4.1328   4.1398   4.1416   4.3833   4.4247   4.4261   4.4707   4.8069
     4.8075   4.8366   4.9708   5.1402   5.1439   5.1689   5.2028   5.3321
     5.7608   5.8995   5.9307   5.9384   5.9393   6.0065   6.0070   6.0675
     6.1030   6.1175   6.1415   6.1680   6.1701   6.1893   6.1959   6.2287
     6.2310   6.3880   6.5331   6.6920   6.7291   6.7526   6.8776   6.8790
     6.8878   6.9791   7.0590

          k = 0.2500-0.1443 0.1111 (136898 PWs)   bands (ev):

   -18.7416  -6.5638  -6.5524  -5.7650  -5.4735  -5.4147  -5.4146  -4.8763
    -4.8762  -4.7442  -4.7440  -4.5890  -4.5580  -4.4966  -4.4629  -4.4623
    -4.4296  -4.4295  -4.3010  -4.2593  -4.2591  -4.1992  -4.1780  -4.1778
    -4.0757  -4.0757  -4.0395  -4.0393  -4.0393  -4.0122  -3.9907  -3.9907
    -3.8853  -3.8836  -3.8834  -3.8628  -3.8459  -3.8458  -3.8336  -3.8333
    -3.8200  -3.7901  -3.7899  -3.7897  -3.7896  -3.7569  -3.7567  -3.7393
    -3.7392  -3.7247  -3.6811  -3.6811  -3.6510  -3.6359  -3.6350  -3.6310
    -3.6310  -3.5564  -3.5563  -3.5209  -3.5186  -3.5182  -3.4508  -3.4508
    -3.4354  -3.4352  -3.4044  -3.4041  -3.4030  -3.4028  -3.2497  -3.2494
    -3.2241  -3.2238  -3.2188  -3.2028  -3.2025  -3.1767  -3.1766  -3.1268
    -3.1267  -3.1105  -3.1103  -3.0901  -3.0415  -3.0414  -3.0218  -3.0168
    -3.0166  -2.9759  -2.9757  -2.9694  -2.9692  -2.9527  -2.9522  -2.9130
    -2.9130  -2.8915  -2.8911  -2.8882  -2.8878  -2.8847  -2.8079  -2.8074
    -2.8060  -2.7791  -2.7771  -2.7737  -2.7151  -2.7140  -2.6869  -2.6856
    -2.6725  -2.6723  -2.6670  -2.6374  -2.6372  -2.6277  -2.6101  -2.5844
    -2.5843  -2.5839  -2.5633  -2.5631  -2.5519  -2.5516  -2.5487  -2.5478
    -2.5403  -2.4943  -2.4616  -2.4615  -2.4462  -2.4320  -2.4256  -2.4253
    -2.4181  -2.4177  -2.4163  -2.3865  -2.3863  -2.3862  -2.3764  -2.3763
    -2.3590  -2.3318  -2.3308  -2.3305  -2.3299  -2.3298  -2.2845  -2.2531
    -2.2527  -2.2524  -2.2455  -2.2369  -2.2239  -2.2236  -2.2070  -2.2070
    -2.1736  -2.1719  -2.1717  -2.1531  -2.1518  -2.1511  -2.1188  -2.1181
    -2.0776  -2.0767  -2.0695  -2.0675  -2.0673  -2.0608  -2.0607  -2.0583
    -2.0581  -2.0517  -2.0503  -2.0345  -2.0337  -1.9075  -1.9061  -1.8746
    -1.8688  -1.8676  -1.8628  -1.8627  -1.8449  -1.8447  -1.8421  -1.8414
    -1.8399  -1.8171  -1.8099  -1.8081  -1.8058  -1.7968  -1.7966  -1.7738
    -1.7736  -1.7450  -1.7449  -1.7130  -1.7122  -1.7024  -1.6943  -1.6766
    -1.6762  -1.6734  -1.6550  -1.6427  -1.6425  -1.6352  -1.6350  -1.6084
    -1.6081  -1.5910  -1.5909  -1.5597  -1.5587  -1.5488  -1.4980  -1.4979
    -1.4859  -1.4848  -1.4846  -1.4595  -1.4571  -1.4235  -1.4228  -1.4226
    -1.3901  -1.3794  -1.3783  -1.3630  -1.3627  -1.3365  -1.3351  -1.3345
    -1.3049  -1.3022  -1.3020  -1.2396  -1.2390  -1.2266  -1.2253  -1.2096
    -1.2094  -1.1969  -1.1967  -1.1787  -1.1660  -1.1383  -1.1380  -1.1270
    -1.1023  -1.0889  -1.0881  -1.0765  -1.0764  -1.0747  -1.0696  -1.0685
    -1.0555  -1.0247  -1.0243  -1.0176  -1.0139  -1.0118  -1.0110  -0.9876
    -0.9725  -0.9690  -0.9491  -0.9477  -0.8599  -0.8415  -0.8370  -0.8359
    -0.8342  -0.8304  -0.8265  -0.8140  -0.8007  -0.7885  -0.7854  -0.7737
    -0.7707  -0.7613  -0.7559  -0.7410  -0.7394  -0.7309  -0.7252  -0.6589
    -0.6588  -0.6250  -0.6219  -0.6204  -0.6136  -0.6121  -0.6118  -0.6103
    -0.5988  -0.5961  -0.5788  -0.5576  -0.5420  -0.5232  -0.5224  -0.5117
    -0.5106  -0.4987  -0.4980  -0.4974  -0.4961  -0.4951  -0.4785  -0.4741
    -0.4733  -0.4434  -0.4417  -0.4411  -0.4295  -0.4295  -0.4102  -0.3781
    -0.3777  -0.3688  -0.3682  -0.3004  -0.3003  -0.2629  -0.2629  -0.2050
    -0.2036  -0.2034  -0.1912  -0.1751   0.0472   0.0529   0.3960   0.3960
     0.4858   0.4906   0.6817   0.6962   0.7136   0.8440   0.8453   1.2761
     1.2762   1.2945   1.5526   1.5862   1.5863   1.8606   1.8679   1.9424
     1.9428   1.9684   1.9724   2.1988   2.1992   2.2872   2.2876   2.3594
     2.4242   2.4306   2.5910   2.6886   3.1293   3.1301   3.1328   3.1340
     3.1876   3.1885   3.4802   3.4806   3.7596   3.7651   3.8642   4.1761
     4.2178   4.2211   4.4214   4.4517   4.5201   4.5204   4.6112   4.7290
     4.7302   4.8462   4.8474   5.1510   5.2073   5.2203   5.2271   5.3982
     5.4061   5.6067   5.6091   5.6340   5.6350   5.6956   5.6993   5.7306
     5.7711   6.0242   6.2493   6.3031   6.3304   6.4400   6.4406   6.4527
     6.4557   6.5062   6.6165   6.6919   6.6974   6.7749   6.8984   6.9081
     6.9344   6.9974   7.0435

          k =-0.2500-0.4330 0.1111 (136853 PWs)   bands (ev):

   -18.7416  -6.5593  -6.3470  -5.9478  -5.9476  -5.2696  -4.9363  -4.9362
    -4.8969  -4.8966  -4.5360  -4.5359  -4.4374  -4.4373  -4.4233  -4.4014
    -4.3754  -4.2698  -4.2696  -4.2455  -4.2021  -4.2020  -4.1331  -4.1331
    -4.1260  -4.1259  -4.1049  -4.0989  -4.0987  -4.0263  -4.0257  -3.9967
    -3.9965  -3.9844  -3.9844  -3.9611  -3.9611  -3.9386  -3.9301  -3.9300
    -3.9033  -3.8511  -3.8510  -3.8032  -3.8030  -3.7436  -3.7434  -3.6891
    -3.6891  -3.6885  -3.6884  -3.6532  -3.6137  -3.6136  -3.6077  -3.6063
    -3.6061  -3.5752  -3.5752  -3.5668  -3.5048  -3.5047  -3.4953  -3.4791
    -3.4720  -3.3992  -3.3991  -3.3657  -3.3654  -3.3378  -3.3376  -3.3245
    -3.3077  -3.2474  -3.2473  -3.2300  -3.2299  -3.1779  -3.1730  -3.1728
    -3.1347  -3.1031  -3.1029  -3.0946  -3.0945  -3.0809  -3.0808  -3.0732
    -3.0730  -3.0632  -3.0225  -2.9846  -2.9845  -2.9699  -2.9698  -2.9439
    -2.9341  -2.9340  -2.9126  -2.8680  -2.8678  -2.8584  -2.8192  -2.8129
    -2.8014  -2.8012  -2.7774  -2.7717  -2.7700  -2.7424  -2.7046  -2.7040
    -2.6823  -2.6752  -2.6610  -2.6607  -2.6105  -2.6103  -2.5776  -2.5548
    -2.5547  -2.5305  -2.5304  -2.5192  -2.5191  -2.5084  -2.4854  -2.4852
    -2.4409  -2.4408  -2.4394  -2.4224  -2.4223  -2.4173  -2.4078  -2.4060
    -2.4047  -2.4045  -2.3991  -2.3863  -2.3859  -2.3762  -2.3500  -2.3496
    -2.3483  -2.3469  -2.3466  -2.3438  -2.3438  -2.3156  -2.3126  -2.2986
    -2.2985  -2.2807  -2.2807  -2.2705  -2.2705  -2.2689  -2.2686  -2.2490
    -2.2485  -2.2469  -2.2467  -2.2298  -2.2031  -2.2030  -2.1631  -2.1631
    -2.1373  -2.1372  -2.1100  -2.1099  -2.0821  -2.0820  -2.0644  -2.0604
    -2.0333  -2.0112  -2.0107  -2.0055  -2.0053  -2.0009  -1.9935  -1.9934
    -1.9678  -1.9613  -1.9512  -1.8941  -1.8902  -1.8899  -1.8870  -1.8869
    -1.8495  -1.8311  -1.8310  -1.8031  -1.8029  -1.7423  -1.7423  -1.7135
    -1.6952  -1.6949  -1.6337  -1.6336  -1.6217  -1.6216  -1.6105  -1.6104
    -1.6072  -1.5973  -1.5971  -1.5422  -1.5417  -1.5293  -1.5290  -1.5286
    -1.5092  -1.5089  -1.4735  -1.4733  -1.4561  -1.4559  -1.4558  -1.4493
    -1.4447  -1.4343  -1.4341  -1.4153  -1.4152  -1.3749  -1.3737  -1.3609
    -1.3607  -1.3406  -1.3272  -1.2838  -1.2836  -1.2582  -1.2528  -1.2527
    -1.2235  -1.1732  -1.1718  -1.1706  -1.1701  -1.1647  -1.1643  -1.1539
    -1.1354  -1.1352  -1.0954  -1.0949  -1.0645  -1.0641  -1.0594  -1.0590
    -1.0509  -1.0351  -1.0345  -1.0340  -1.0308  -1.0305  -0.9987  -0.9928
    -0.9907  -0.9907  -0.9611  -0.9591  -0.9561  -0.9358  -0.9243  -0.9236
    -0.8770  -0.8735  -0.8694  -0.8394  -0.8306  -0.8172  -0.8153  -0.8131
    -0.8070  -0.8064  -0.8056  -0.7966  -0.7937  -0.7738  -0.7676  -0.7650
    -0.7643  -0.7621  -0.7517  -0.7249  -0.7246  -0.7145  -0.7070  -0.6953
    -0.6908  -0.6835  -0.6776  -0.6231  -0.6204  -0.6121  -0.6120  -0.6108
    -0.6089  -0.6040  -0.5857  -0.5840  -0.5769  -0.5763  -0.5747  -0.5730
    -0.5352  -0.5327  -0.5321  -0.5242  -0.5237  -0.5186  -0.5170  -0.5045
    -0.5004  -0.4976  -0.4958  -0.4551  -0.4549  -0.4466  -0.4429  -0.4427
    -0.3654  -0.3650  -0.3626  -0.3623  -0.3533  -0.3527  -0.3166  -0.3038
    -0.3036  -0.2755  -0.2717  -0.2700  -0.1499  -0.1496  -0.0477   0.3677
     0.3677   0.3708   0.3710   0.4313   0.4338   0.8206   0.8210   0.8636
     0.8639   0.9727   1.0525   1.1634   1.1645   1.3845   1.3878   2.0174
     2.0186   2.1798   2.1811   2.3112   2.3137   2.4164   2.4164   2.5706
     2.8079   2.8130   2.9312   3.1565   3.1573   3.2401   3.2406   3.3403
     3.3557   3.5503   3.5527   3.6119   3.8128   3.8130   3.8750   3.8765
     4.1328   4.1398   4.1416   4.3833   4.4247   4.4261   4.4707   4.8069
     4.8075   4.8366   4.9708   5.1402   5.1439   5.1689   5.2028   5.3322
     5.7595   5.8996   5.9307   5.9384   5.9393   6.0065   6.0069   6.0688
     6.1058   6.1182   6.1414   6.1680   6.1702   6.1892   6.1945   6.2287
     6.2309   6.3901   6.5334   6.6668   6.7348   6.7527   6.8773   6.8790
     6.8877   7.0028   7.0593

          k =-0.2500 0.4330-0.1111 (136853 PWs)   bands (ev):

   -18.7416  -6.5593  -6.3470  -5.9492  -5.9461  -5.2696  -4.9368  -4.9358
    -4.8987  -4.8948  -4.5366  -4.5353  -4.4375  -4.4371  -4.4231  -4.4014
    -4.3754  -4.2703  -4.2693  -4.2456  -4.2024  -4.2019  -4.1333  -4.1328
    -4.1260  -4.1258  -4.1049  -4.1003  -4.0974  -4.0282  -4.0239  -3.9973
    -3.9956  -3.9845  -3.9842  -3.9612  -3.9610  -3.9386  -3.9302  -3.9300
    -3.9035  -3.8514  -3.8509  -3.8041  -3.8022  -3.7436  -3.7434  -3.6892
    -3.6891  -3.6887  -3.6880  -3.6534  -3.6139  -3.6136  -3.6076  -3.6064
    -3.6061  -3.5756  -3.5748  -3.5668  -3.5049  -3.5047  -3.4951  -3.4789
    -3.4718  -3.3999  -3.3988  -3.3661  -3.3648  -3.3381  -3.3371  -3.3245
    -3.3079  -3.2479  -3.2472  -3.2302  -3.2293  -3.1779  -3.1731  -3.1727
    -3.1346  -3.1037  -3.1024  -3.0952  -3.0938  -3.0812  -3.0808  -3.0732
    -3.0726  -3.0633  -3.0224  -2.9856  -2.9837  -2.9699  -2.9696  -2.9440
    -2.9344  -2.9337  -2.9126  -2.8689  -2.8670  -2.8588  -2.8190  -2.8128
    -2.8018  -2.8007  -2.7796  -2.7718  -2.7679  -2.7425  -2.7046  -2.7038
    -2.6824  -2.6753  -2.6613  -2.6607  -2.6105  -2.6102  -2.5774  -2.5550
    -2.5548  -2.5310  -2.5301  -2.5195  -2.5186  -2.5085  -2.4858  -2.4850
    -2.4410  -2.4402  -2.4395  -2.4229  -2.4218  -2.4174  -2.4077  -2.4059
    -2.4049  -2.4045  -2.3990  -2.3865  -2.3853  -2.3765  -2.3499  -2.3494
    -2.3479  -2.3474  -2.3465  -2.3443  -2.3429  -2.3159  -2.3127  -2.2988
    -2.2982  -2.2810  -2.2804  -2.2706  -2.2703  -2.2697  -2.2681  -2.2497
    -2.2481  -2.2479  -2.2455  -2.2298  -2.2036  -2.2029  -2.1639  -2.1624
    -2.1378  -2.1368  -2.1099  -2.1095  -2.0824  -2.0816  -2.0644  -2.0602
    -2.0331  -2.0116  -2.0103  -2.0056  -2.0050  -2.0010  -1.9943  -1.9929
    -1.9677  -1.9609  -1.9512  -1.8941  -1.8910  -1.8895  -1.8873  -1.8869
    -1.8496  -1.8321  -1.8299  -1.8031  -1.8029  -1.7431  -1.7414  -1.7138
    -1.6952  -1.6947  -1.6341  -1.6331  -1.6224  -1.6209  -1.6107  -1.6101
    -1.6073  -1.5982  -1.5963  -1.5425  -1.5412  -1.5292  -1.5292  -1.5290
    -1.5099  -1.5080  -1.4739  -1.4731  -1.4565  -1.4560  -1.4553  -1.4490
    -1.4447  -1.4349  -1.4336  -1.4156  -1.4147  -1.3747  -1.3737  -1.3614
    -1.3601  -1.3405  -1.3272  -1.2844  -1.2830  -1.2583  -1.2530  -1.2525
    -1.2236  -1.1736  -1.1717  -1.1708  -1.1699  -1.1653  -1.1640  -1.1538
    -1.1359  -1.1344  -1.0959  -1.0941  -1.0645  -1.0640  -1.0593  -1.0592
    -1.0508  -1.0353  -1.0349  -1.0338  -1.0304  -1.0300  -0.9987  -0.9930
    -0.9908  -0.9905  -0.9608  -0.9593  -0.9560  -0.9363  -0.9243  -0.9234
    -0.8778  -0.8735  -0.8692  -0.8391  -0.8306  -0.8174  -0.8150  -0.8123
    -0.8071  -0.8064  -0.8055  -0.7961  -0.7936  -0.7741  -0.7677  -0.7655
    -0.7637  -0.7621  -0.7522  -0.7248  -0.7245  -0.7147  -0.7063  -0.6953
    -0.6909  -0.6843  -0.6775  -0.6231  -0.6203  -0.6122  -0.6120  -0.6108
    -0.6085  -0.6043  -0.5859  -0.5842  -0.5770  -0.5762  -0.5749  -0.5724
    -0.5352  -0.5330  -0.5319  -0.5246  -0.5233  -0.5184  -0.5170  -0.5043
    -0.5003  -0.4979  -0.4961  -0.4555  -0.4546  -0.4467  -0.4432  -0.4423
    -0.3659  -0.3646  -0.3626  -0.3622  -0.3534  -0.3527  -0.3165  -0.3039
    -0.3035  -0.2771  -0.2716  -0.2684  -0.1512  -0.1482  -0.0477   0.3676
     0.3679   0.3705   0.3711   0.4304   0.4346   0.8202   0.8215   0.8631
     0.8643   0.9729   1.0524   1.1608   1.1671   1.3804   1.3916   2.0173
     2.0188   2.1785   2.1825   2.3097   2.3153   2.4160   2.4168   2.5704
     2.8074   2.8139   2.9308   3.1528   3.1605   3.2399   3.2411   3.3400
     3.3557   3.5394   3.5630   3.6125   3.8121   3.8138   3.8757   3.8765
     4.1324   4.1383   4.1428   4.3839   4.4246   4.4259   4.4706   4.8053
     4.8092   4.8354   4.9714   5.1404   5.1442   5.1556   5.2122   5.3402
     5.7582   5.8993   5.9312   5.9361   5.9418   6.0055   6.0079   6.0710
     6.1011   6.1193   6.1412   6.1677   6.1712   6.1806   6.2012   6.2292
     6.2314   6.3904   6.5255   6.6794   6.7199   6.7643   6.8747   6.8805
     6.8874   6.9957   7.0148

          k = 0.2500-0.4330-0.1111 (136853 PWs)   bands (ev):

   -18.7416  -6.5593  -6.3470  -5.9492  -5.9461  -5.2696  -4.9368  -4.9358
    -4.8987  -4.8948  -4.5366  -4.5353  -4.4376  -4.4371  -4.4231  -4.4014
    -4.3754  -4.2703  -4.2693  -4.2456  -4.2024  -4.2019  -4.1333  -4.1328
    -4.1260  -4.1258  -4.1049  -4.1003  -4.0974  -4.0282  -4.0239  -3.9973
    -3.9956  -3.9845  -3.9842  -3.9612  -3.9610  -3.9386  -3.9302  -3.9300
    -3.9035  -3.8514  -3.8509  -3.8041  -3.8022  -3.7436  -3.7434  -3.6892
    -3.6891  -3.6887  -3.6880  -3.6534  -3.6139  -3.6136  -3.6076  -3.6064
    -3.6061  -3.5756  -3.5748  -3.5668  -3.5049  -3.5047  -3.4951  -3.4789
    -3.4718  -3.3999  -3.3988  -3.3661  -3.3648  -3.3381  -3.3371  -3.3245
    -3.3079  -3.2479  -3.2472  -3.2302  -3.2293  -3.1779  -3.1731  -3.1727
    -3.1346  -3.1037  -3.1024  -3.0952  -3.0938  -3.0812  -3.0808  -3.0732
    -3.0726  -3.0633  -3.0224  -2.9856  -2.9837  -2.9699  -2.9696  -2.9440
    -2.9344  -2.9337  -2.9126  -2.8689  -2.8670  -2.8588  -2.8190  -2.8128
    -2.8018  -2.8007  -2.7796  -2.7718  -2.7679  -2.7425  -2.7046  -2.7038
    -2.6824  -2.6753  -2.6613  -2.6607  -2.6105  -2.6102  -2.5774  -2.5550
    -2.5548  -2.5310  -2.5301  -2.5195  -2.5186  -2.5085  -2.4858  -2.4850
    -2.4410  -2.4402  -2.4395  -2.4229  -2.4218  -2.4174  -2.4077  -2.4059
    -2.4049  -2.4045  -2.3990  -2.3865  -2.3853  -2.3765  -2.3499  -2.3494
    -2.3479  -2.3474  -2.3465  -2.3443  -2.3429  -2.3159  -2.3127  -2.2988
    -2.2982  -2.2810  -2.2804  -2.2706  -2.2703  -2.2697  -2.2681  -2.2497
    -2.2481  -2.2479  -2.2455  -2.2298  -2.2036  -2.2029  -2.1639  -2.1624
    -2.1378  -2.1368  -2.1099  -2.1095  -2.0824  -2.0816  -2.0644  -2.0602
    -2.0331  -2.0116  -2.0103  -2.0056  -2.0050  -2.0010  -1.9943  -1.9929
    -1.9677  -1.9609  -1.9512  -1.8941  -1.8910  -1.8895  -1.8873  -1.8869
    -1.8496  -1.8321  -1.8299  -1.8031  -1.8029  -1.7431  -1.7414  -1.7138
    -1.6952  -1.6947  -1.6341  -1.6331  -1.6224  -1.6209  -1.6107  -1.6101
    -1.6073  -1.5982  -1.5963  -1.5425  -1.5412  -1.5292  -1.5292  -1.5290
    -1.5099  -1.5080  -1.4739  -1.4731  -1.4565  -1.4560  -1.4553  -1.4490
    -1.4447  -1.4349  -1.4336  -1.4156  -1.4147  -1.3747  -1.3737  -1.3614
    -1.3601  -1.3405  -1.3272  -1.2844  -1.2830  -1.2583  -1.2530  -1.2525
    -1.2236  -1.1736  -1.1717  -1.1708  -1.1699  -1.1653  -1.1640  -1.1538
    -1.1359  -1.1344  -1.0959  -1.0942  -1.0645  -1.0640  -1.0593  -1.0592
    -1.0508  -1.0353  -1.0349  -1.0338  -1.0304  -1.0300  -0.9987  -0.9930
    -0.9908  -0.9905  -0.9608  -0.9593  -0.9560  -0.9363  -0.9243  -0.9234
    -0.8778  -0.8735  -0.8692  -0.8391  -0.8306  -0.8174  -0.8150  -0.8123
    -0.8071  -0.8064  -0.8055  -0.7961  -0.7936  -0.7741  -0.7677  -0.7655
    -0.7637  -0.7621  -0.7522  -0.7248  -0.7245  -0.7147  -0.7063  -0.6953
    -0.6909  -0.6843  -0.6775  -0.6231  -0.6203  -0.6122  -0.6119  -0.6108
    -0.6085  -0.6043  -0.5859  -0.5842  -0.5770  -0.5762  -0.5749  -0.5724
    -0.5352  -0.5330  -0.5319  -0.5246  -0.5233  -0.5184  -0.5170  -0.5043
    -0.5003  -0.4979  -0.4961  -0.4555  -0.4546  -0.4467  -0.4432  -0.4423
    -0.3659  -0.3646  -0.3626  -0.3622  -0.3534  -0.3527  -0.3165  -0.3039
    -0.3035  -0.2771  -0.2716  -0.2684  -0.1512  -0.1482  -0.0477   0.3676
     0.3679   0.3705   0.3711   0.4304   0.4346   0.8202   0.8215   0.8631
     0.8643   0.9729   1.0524   1.1608   1.1671   1.3804   1.3916   2.0173
     2.0188   2.1785   2.1825   2.3097   2.3153   2.4160   2.4168   2.5704
     2.8074   2.8139   2.9308   3.1528   3.1605   3.2399   3.2411   3.3400
     3.3557   3.5394   3.5630   3.6125   3.8121   3.8138   3.8757   3.8765
     4.1324   4.1383   4.1428   4.3839   4.4246   4.4259   4.4706   4.8053
     4.8092   4.8354   4.9714   5.1404   5.1442   5.1556   5.2122   5.3402
     5.7580   5.8998   5.9312   5.9361   5.9418   6.0055   6.0079   6.0708
     6.1005   6.1186   6.1412   6.1677   6.1708   6.1807   6.2017   6.2292
     6.2315   6.3931   6.5223   6.6716   6.7370   6.7653   6.8752   6.8807
     6.8876   6.9965   7.0485

          k = 0.5000 0.0000 0.1111 (136853 PWs)   bands (ev):

   -18.7416  -6.5593  -6.3470  -5.9492  -5.9461  -5.2696  -4.9372  -4.9354
    -4.8987  -4.8947  -4.5367  -4.5351  -4.4375  -4.4372  -4.4231  -4.4014
    -4.3754  -4.2702  -4.2694  -4.2456  -4.2022  -4.2020  -4.1334  -4.1327
    -4.1266  -4.1254  -4.1048  -4.1005  -4.0971  -4.0284  -4.0236  -3.9975
    -3.9954  -3.9846  -3.9841  -3.9611  -3.9611  -3.9386  -3.9302  -3.9300
    -3.9035  -3.8513  -3.8509  -3.8042  -3.8020  -3.7435  -3.7434  -3.6893
    -3.6892  -3.6885  -3.6880  -3.6534  -3.6138  -3.6137  -3.6076  -3.6066
    -3.6059  -3.5759  -3.5745  -3.5668  -3.5049  -3.5047  -3.4951  -3.4789
    -3.4717  -3.3997  -3.3989  -3.3660  -3.3650  -3.3380  -3.3372  -3.3245
    -3.3079  -3.2479  -3.2471  -3.2302  -3.2294  -3.1780  -3.1730  -3.1727
    -3.1346  -3.1041  -3.1021  -3.0951  -3.0939  -3.0811  -3.0807  -3.0733
    -3.0726  -3.0633  -3.0224  -2.9854  -2.9839  -2.9699  -2.9696  -2.9439
    -2.9342  -2.9340  -2.9126  -2.8687  -2.8672  -2.8590  -2.8190  -2.8128
    -2.8017  -2.8007  -2.7814  -2.7719  -2.7653  -2.7426  -2.7045  -2.7041
    -2.6824  -2.6753  -2.6615  -2.6608  -2.6108  -2.6098  -2.5774  -2.5551
    -2.5549  -2.5309  -2.5301  -2.5193  -2.5188  -2.5085  -2.4858  -2.4849
    -2.4412  -2.4399  -2.4394  -2.4229  -2.4218  -2.4173  -2.4076  -2.4060
    -2.4050  -2.4043  -2.3991  -2.3865  -2.3853  -2.3767  -2.3500  -2.3493
    -2.3479  -2.3475  -2.3465  -2.3445  -2.3428  -2.3159  -2.3127  -2.2986
    -2.2983  -2.2810  -2.2805  -2.2705  -2.2704  -2.2698  -2.2678  -2.2494
    -2.2483  -2.2480  -2.2454  -2.2298  -2.2035  -2.2031  -2.1640  -2.1623
    -2.1379  -2.1368  -2.1099  -2.1096  -2.0824  -2.0815  -2.0644  -2.0602
    -2.0332  -2.0114  -2.0106  -2.0055  -2.0050  -2.0010  -1.9943  -1.9927
    -1.9678  -1.9610  -1.9512  -1.8941  -1.8912  -1.8894  -1.8877  -1.8864
    -1.8497  -1.8320  -1.8300  -1.8032  -1.8028  -1.7431  -1.7414  -1.7138
    -1.6951  -1.6947  -1.6340  -1.6332  -1.6223  -1.6210  -1.6108  -1.6100
    -1.6073  -1.5978  -1.5966  -1.5427  -1.5409  -1.5296  -1.5290  -1.5288
    -1.5101  -1.5078  -1.4738  -1.4732  -1.4565  -1.4560  -1.4554  -1.4490
    -1.4447  -1.4350  -1.4336  -1.4156  -1.4148  -1.3755  -1.3730  -1.3616
    -1.3598  -1.3405  -1.3272  -1.2844  -1.2831  -1.2583  -1.2531  -1.2525
    -1.2236  -1.1731  -1.1722  -1.1708  -1.1700  -1.1652  -1.1639  -1.1538
    -1.1360  -1.1344  -1.0959  -1.0942  -1.0646  -1.0641  -1.0599  -1.0586
    -1.0507  -1.0356  -1.0346  -1.0339  -1.0304  -1.0302  -0.9993  -0.9922
    -0.9910  -0.9902  -0.9616  -0.9592  -0.9555  -0.9358  -0.9251  -0.9225
    -0.8780  -0.8738  -0.8692  -0.8391  -0.8308  -0.8166  -0.8153  -0.8130
    -0.8070  -0.8066  -0.8052  -0.7962  -0.7939  -0.7737  -0.7679  -0.7645
    -0.7640  -0.7625  -0.7515  -0.7251  -0.7243  -0.7143  -0.7074  -0.6956
    -0.6908  -0.6837  -0.6774  -0.6230  -0.6205  -0.6122  -0.6118  -0.6107
    -0.6088  -0.6044  -0.5858  -0.5840  -0.5768  -0.5765  -0.5745  -0.5728
    -0.5353  -0.5325  -0.5323  -0.5243  -0.5235  -0.5186  -0.5170  -0.5045
    -0.5004  -0.4976  -0.4960  -0.4553  -0.4548  -0.4467  -0.4430  -0.4426
    -0.3657  -0.3649  -0.3626  -0.3621  -0.3532  -0.3528  -0.3165  -0.3039
    -0.3036  -0.2757  -0.2717  -0.2698  -0.1509  -0.1485  -0.0476   0.3676
     0.3679   0.3704   0.3712   0.4312   0.4337   0.8200   0.8217   0.8633
     0.8641   0.9729   1.0525   1.1611   1.1668   1.3810   1.3911   2.0172
     2.0188   2.1792   2.1817   2.3106   2.3143   2.4157   2.4171   2.5704
     2.8078   2.8136   2.9310   3.1531   3.1603   3.2395   3.2414   3.3401
     3.3557   3.5387   3.5639   3.6122   3.8124   3.8136   3.8751   3.8770
     4.1322   4.1390   4.1424   4.3837   4.4242   4.4264   4.4705   4.8057
     4.8086   4.8357   4.9713   5.1376   5.1439   5.1513   5.2139   5.3556
     5.7307   5.9282   5.9313   5.9370   5.9409   6.0059   6.0069   6.0591
     6.0901   6.1170   6.1416   6.1678   6.1706   6.1811   6.2018   6.2293
     6.2324   6.3734   6.5673   6.6817   6.7222   6.7770   6.8749   6.8809
     6.8871   6.9718   6.9996

          k =-0.5000 0.0000 0.1111 (136853 PWs)   bands (ev):

   -18.7416  -6.5593  -6.3470  -5.9492  -5.9461  -5.2696  -4.9372  -4.9354
    -4.8987  -4.8947  -4.5367  -4.5351  -4.4375  -4.4372  -4.4231  -4.4014
    -4.3754  -4.2702  -4.2694  -4.2456  -4.2022  -4.2020  -4.1334  -4.1327
    -4.1266  -4.1254  -4.1048  -4.1005  -4.0971  -4.0284  -4.0236  -3.9975
    -3.9954  -3.9846  -3.9841  -3.9611  -3.9611  -3.9386  -3.9302  -3.9300
    -3.9035  -3.8513  -3.8509  -3.8042  -3.8020  -3.7435  -3.7434  -3.6893
    -3.6892  -3.6885  -3.6880  -3.6534  -3.6138  -3.6137  -3.6076  -3.6066
    -3.6059  -3.5759  -3.5745  -3.5668  -3.5049  -3.5047  -3.4951  -3.4789
    -3.4717  -3.3997  -3.3989  -3.3660  -3.3650  -3.3380  -3.3372  -3.3245
    -3.3079  -3.2479  -3.2471  -3.2302  -3.2294  -3.1780  -3.1730  -3.1727
    -3.1346  -3.1041  -3.1021  -3.0951  -3.0939  -3.0811  -3.0807  -3.0733
    -3.0726  -3.0633  -3.0224  -2.9854  -2.9839  -2.9699  -2.9696  -2.9439
    -2.9342  -2.9340  -2.9126  -2.8687  -2.8672  -2.8590  -2.8190  -2.8128
    -2.8017  -2.8007  -2.7814  -2.7719  -2.7653  -2.7426  -2.7045  -2.7041
    -2.6824  -2.6753  -2.6615  -2.6608  -2.6108  -2.6098  -2.5774  -2.5551
    -2.5549  -2.5309  -2.5301  -2.5192  -2.5188  -2.5085  -2.4858  -2.4849
    -2.4412  -2.4399  -2.4394  -2.4229  -2.4218  -2.4173  -2.4076  -2.4060
    -2.4050  -2.4043  -2.3991  -2.3865  -2.3853  -2.3767  -2.3500  -2.3493
    -2.3479  -2.3475  -2.3465  -2.3445  -2.3428  -2.3159  -2.3127  -2.2986
    -2.2983  -2.2810  -2.2804  -2.2705  -2.2704  -2.2698  -2.2678  -2.2494
    -2.2483  -2.2480  -2.2454  -2.2298  -2.2035  -2.2031  -2.1640  -2.1623
    -2.1379  -2.1368  -2.1099  -2.1096  -2.0824  -2.0815  -2.0644  -2.0602
    -2.0332  -2.0114  -2.0106  -2.0055  -2.0050  -2.0010  -1.9943  -1.9927
    -1.9678  -1.9610  -1.9512  -1.8941  -1.8912  -1.8894  -1.8877  -1.8864
    -1.8497  -1.8320  -1.8300  -1.8032  -1.8028  -1.7431  -1.7414  -1.7138
    -1.6951  -1.6947  -1.6340  -1.6332  -1.6223  -1.6210  -1.6108  -1.6100
    -1.6073  -1.5978  -1.5966  -1.5427  -1.5409  -1.5296  -1.5290  -1.5288
    -1.5101  -1.5078  -1.4738  -1.4732  -1.4565  -1.4560  -1.4554  -1.4490
    -1.4447  -1.4350  -1.4336  -1.4156  -1.4148  -1.3755  -1.3730  -1.3616
    -1.3598  -1.3405  -1.3272  -1.2844  -1.2831  -1.2583  -1.2531  -1.2525
    -1.2236  -1.1731  -1.1722  -1.1708  -1.1700  -1.1652  -1.1639  -1.1538
    -1.1360  -1.1344  -1.0959  -1.0942  -1.0646  -1.0641  -1.0599  -1.0586
    -1.0507  -1.0356  -1.0346  -1.0339  -1.0304  -1.0302  -0.9993  -0.9922
    -0.9910  -0.9902  -0.9616  -0.9592  -0.9555  -0.9358  -0.9251  -0.9225
    -0.8780  -0.8738  -0.8692  -0.8391  -0.8308  -0.8166  -0.8153  -0.8130
    -0.8070  -0.8066  -0.8052  -0.7962  -0.7939  -0.7737  -0.7679  -0.7645
    -0.7640  -0.7625  -0.7516  -0.7251  -0.7243  -0.7143  -0.7074  -0.6956
    -0.6908  -0.6837  -0.6774  -0.6230  -0.6205  -0.6122  -0.6118  -0.6107
    -0.6088  -0.6044  -0.5858  -0.5840  -0.5768  -0.5765  -0.5745  -0.5728
    -0.5353  -0.5325  -0.5323  -0.5243  -0.5235  -0.5186  -0.5170  -0.5045
    -0.5004  -0.4976  -0.4960  -0.4553  -0.4548  -0.4467  -0.4430  -0.4426
    -0.3657  -0.3649  -0.3626  -0.3621  -0.3532  -0.3528  -0.3165  -0.3039
    -0.3035  -0.2757  -0.2717  -0.2698  -0.1509  -0.1485  -0.0476   0.3676
     0.3679   0.3704   0.3712   0.4312   0.4337   0.8200   0.8217   0.8633
     0.8641   0.9729   1.0525   1.1611   1.1668   1.3810   1.3911   2.0172
     2.0188   2.1792   2.1817   2.3106   2.3143   2.4157   2.4171   2.5704
     2.8078   2.8136   2.9310   3.1531   3.1603   3.2395   3.2414   3.3401
     3.3557   3.5387   3.5639   3.6122   3.8124   3.8136   3.8751   3.8770
     4.1322   4.1390   4.1424   4.3837   4.4242   4.4264   4.4705   4.8057
     4.8086   4.8357   4.9713   5.1376   5.1439   5.1512   5.2139   5.3558
     5.7296   5.9282   5.9313   5.9370   5.9409   6.0059   6.0069   6.0618
     6.0906   6.1171   6.1415   6.1677   6.1706   6.1806   6.2016   6.2293
     6.2323   6.3768   6.5675   6.6522   6.7348   6.7805   6.8756   6.8808
     6.8871   6.9909   6.9995

          k =-0.2500 0.1443 0.1111 (136898 PWs)   bands (ev):

   -18.7416  -6.5638  -6.5524  -5.7650  -5.4735  -5.4147  -5.4146  -4.8763
    -4.8762  -4.7442  -4.7440  -4.5890  -4.5580  -4.4966  -4.4629  -4.4623
    -4.4296  -4.4295  -4.3010  -4.2593  -4.2591  -4.1992  -4.1780  -4.1778
    -4.0757  -4.0757  -4.0395  -4.0393  -4.0393  -4.0122  -3.9907  -3.9907
    -3.8853  -3.8836  -3.8834  -3.8628  -3.8459  -3.8458  -3.8336  -3.8333
    -3.8200  -3.7901  -3.7899  -3.7897  -3.7896  -3.7569  -3.7567  -3.7393
    -3.7392  -3.7247  -3.6811  -3.6811  -3.6510  -3.6359  -3.6350  -3.6310
    -3.6310  -3.5564  -3.5563  -3.5209  -3.5186  -3.5182  -3.4508  -3.4508
    -3.4354  -3.4352  -3.4044  -3.4041  -3.4030  -3.4028  -3.2497  -3.2494
    -3.2241  -3.2238  -3.2188  -3.2028  -3.2025  -3.1767  -3.1766  -3.1268
    -3.1267  -3.1105  -3.1103  -3.0901  -3.0415  -3.0414  -3.0218  -3.0168
    -3.0166  -2.9759  -2.9757  -2.9694  -2.9691  -2.9527  -2.9522  -2.9130
    -2.9129  -2.8915  -2.8911  -2.8882  -2.8878  -2.8847  -2.8079  -2.8074
    -2.8060  -2.7791  -2.7771  -2.7737  -2.7151  -2.7140  -2.6869  -2.6855
    -2.6725  -2.6723  -2.6670  -2.6374  -2.6372  -2.6277  -2.6101  -2.5844
    -2.5843  -2.5839  -2.5633  -2.5631  -2.5519  -2.5516  -2.5487  -2.5478
    -2.5403  -2.4943  -2.4616  -2.4615  -2.4462  -2.4320  -2.4256  -2.4253
    -2.4181  -2.4177  -2.4163  -2.3865  -2.3863  -2.3862  -2.3764  -2.3763
    -2.3590  -2.3318  -2.3308  -2.3305  -2.3299  -2.3298  -2.2844  -2.2531
    -2.2527  -2.2524  -2.2455  -2.2369  -2.2239  -2.2236  -2.2070  -2.2070
    -2.1736  -2.1719  -2.1717  -2.1531  -2.1518  -2.1511  -2.1188  -2.1181
    -2.0776  -2.0767  -2.0695  -2.0675  -2.0673  -2.0608  -2.0607  -2.0583
    -2.0581  -2.0517  -2.0503  -2.0345  -2.0337  -1.9075  -1.9061  -1.8746
    -1.8688  -1.8676  -1.8628  -1.8627  -1.8449  -1.8447  -1.8421  -1.8414
    -1.8399  -1.8171  -1.8099  -1.8081  -1.8058  -1.7968  -1.7966  -1.7738
    -1.7736  -1.7450  -1.7449  -1.7130  -1.7122  -1.7024  -1.6943  -1.6766
    -1.6762  -1.6734  -1.6550  -1.6427  -1.6425  -1.6352  -1.6350  -1.6084
    -1.6081  -1.5910  -1.5909  -1.5597  -1.5587  -1.5488  -1.4981  -1.4979
    -1.4859  -1.4848  -1.4846  -1.4595  -1.4571  -1.4235  -1.4228  -1.4226
    -1.3901  -1.3794  -1.3783  -1.3630  -1.3627  -1.3365  -1.3351  -1.3345
    -1.3049  -1.3022  -1.3020  -1.2396  -1.2390  -1.2266  -1.2253  -1.2096
    -1.2094  -1.1969  -1.1967  -1.1787  -1.1660  -1.1383  -1.1380  -1.1270
    -1.1023  -1.0889  -1.0881  -1.0765  -1.0764  -1.0747  -1.0696  -1.0685
    -1.0555  -1.0247  -1.0243  -1.0176  -1.0139  -1.0118  -1.0110  -0.9876
    -0.9725  -0.9690  -0.9491  -0.9477  -0.8599  -0.8415  -0.8370  -0.8359
    -0.8342  -0.8304  -0.8265  -0.8139  -0.8007  -0.7885  -0.7854  -0.7737
    -0.7707  -0.7613  -0.7559  -0.7410  -0.7394  -0.7310  -0.7252  -0.6590
    -0.6588  -0.6250  -0.6219  -0.6204  -0.6136  -0.6121  -0.6118  -0.6103
    -0.5987  -0.5961  -0.5788  -0.5576  -0.5420  -0.5232  -0.5224  -0.5117
    -0.5106  -0.4987  -0.4980  -0.4974  -0.4961  -0.4951  -0.4785  -0.4741
    -0.4732  -0.4434  -0.4417  -0.4411  -0.4295  -0.4295  -0.4102  -0.3781
    -0.3777  -0.3688  -0.3682  -0.3004  -0.3003  -0.2629  -0.2629  -0.2050
    -0.2036  -0.2034  -0.1912  -0.1751   0.0473   0.0529   0.3960   0.3960
     0.4858   0.4906   0.6817   0.6962   0.7136   0.8440   0.8453   1.2761
     1.2762   1.2945   1.5526   1.5862   1.5863   1.8606   1.8679   1.9424
     1.9428   1.9684   1.9724   2.1988   2.1992   2.2872   2.2876   2.3594
     2.4242   2.4306   2.5910   2.6886   3.1293   3.1301   3.1328   3.1340
     3.1876   3.1885   3.4802   3.4806   3.7596   3.7651   3.8642   4.1761
     4.2178   4.2211   4.4214   4.4517   4.5201   4.5204   4.6112   4.7290
     4.7302   4.8462   4.8474   5.1510   5.2073   5.2203   5.2271   5.3984
     5.4061   5.6067   5.6091   5.6340   5.6350   5.6956   5.6993   5.7302
     5.7701   6.0266   6.2523   6.3027   6.3266   6.4398   6.4406   6.4526
     6.4557   6.5098   6.6089   6.6923   6.6973   6.7866   6.8944   6.9082
     6.9349   6.9929   7.0455

          k =-0.2500-0.1443-0.1111 (136898 PWs)   bands (ev):

   -18.7416  -6.5638  -6.5524  -5.7650  -5.4735  -5.4147  -5.4145  -4.8762
    -4.8761  -4.7447  -4.7437  -4.5890  -4.5580  -4.4967  -4.4628  -4.4625
    -4.4297  -4.4293  -4.3010  -4.2595  -4.2590  -4.1991  -4.1780  -4.1779
    -4.0757  -4.0756  -4.0396  -4.0393  -4.0393  -4.0122  -3.9910  -3.9904
    -3.8852  -3.8838  -3.8834  -3.8626  -3.8460  -3.8458  -3.8336  -3.8334
    -3.8199  -3.7901  -3.7900  -3.7897  -3.7895  -3.7570  -3.7567  -3.7392
    -3.7392  -3.7245  -3.6814  -3.6809  -3.6511  -3.6357  -3.6353  -3.6311
    -3.6309  -3.5565  -3.5563  -3.5207  -3.5184  -3.5182  -3.4511  -3.4509
    -3.4352  -3.4351  -3.4042  -3.4037  -3.4035  -3.4032  -3.2497  -3.2496
    -3.2240  -3.2239  -3.2188  -3.2028  -3.2026  -3.1767  -3.1764  -3.1269
    -3.1268  -3.1106  -3.1104  -3.0900  -3.0416  -3.0411  -3.0219  -3.0169
    -3.0168  -2.9760  -2.9758  -2.9694  -2.9693  -2.9527  -2.9524  -2.9128
    -2.9127  -2.8914  -2.8910  -2.8880  -2.8878  -2.8847  -2.8083  -2.8074
    -2.8063  -2.7787  -2.7772  -2.7736  -2.7150  -2.7142  -2.6868  -2.6855
    -2.6723  -2.6722  -2.6670  -2.6374  -2.6371  -2.6278  -2.6100  -2.5845
    -2.5843  -2.5841  -2.5632  -2.5631  -2.5523  -2.5519  -2.5482  -2.5480
    -2.5403  -2.4942  -2.4617  -2.4616  -2.4460  -2.4322  -2.4255  -2.4254
    -2.4181  -2.4179  -2.4165  -2.3865  -2.3862  -2.3860  -2.3765  -2.3761
    -2.3588  -2.3320  -2.3314  -2.3304  -2.3297  -2.3293  -2.2846  -2.2533
    -2.2526  -2.2524  -2.2454  -2.2370  -2.2238  -2.2235  -2.2069  -2.2068
    -2.1735  -2.1718  -2.1716  -2.1532  -2.1517  -2.1513  -2.1186  -2.1182
    -2.0778  -2.0765  -2.0693  -2.0674  -2.0672  -2.0609  -2.0607  -2.0590
    -2.0578  -2.0513  -2.0506  -2.0344  -2.0340  -1.9071  -1.9065  -1.8745
    -1.8684  -1.8679  -1.8627  -1.8626  -1.8454  -1.8452  -1.8418  -1.8414
    -1.8395  -1.8171  -1.8093  -1.8084  -1.8060  -1.7967  -1.7962  -1.7739
    -1.7738  -1.7453  -1.7448  -1.7128  -1.7125  -1.7023  -1.6943  -1.6765
    -1.6762  -1.6731  -1.6550  -1.6429  -1.6427  -1.6353  -1.6351  -1.6081
    -1.6080  -1.5914  -1.5906  -1.5598  -1.5589  -1.5488  -1.4984  -1.4977
    -1.4859  -1.4849  -1.4846  -1.4598  -1.4569  -1.4234  -1.4228  -1.4224
    -1.3901  -1.3791  -1.3784  -1.3629  -1.3627  -1.3365  -1.3351  -1.3346
    -1.3049  -1.3021  -1.3020  -1.2396  -1.2393  -1.2263  -1.2256  -1.2097
    -1.2094  -1.1967  -1.1965  -1.1782  -1.1658  -1.1383  -1.1381  -1.1271
    -1.1020  -1.0891  -1.0880  -1.0767  -1.0765  -1.0752  -1.0695  -1.0687
    -1.0554  -1.0247  -1.0245  -1.0179  -1.0131  -1.0121  -1.0112  -0.9877
    -0.9730  -0.9690  -0.9491  -0.9475  -0.8595  -0.8415  -0.8377  -0.8358
    -0.8351  -0.8287  -0.8267  -0.8138  -0.8007  -0.7885  -0.7851  -0.7745
    -0.7707  -0.7615  -0.7560  -0.7409  -0.7394  -0.7309  -0.7251  -0.6590
    -0.6586  -0.6245  -0.6219  -0.6205  -0.6133  -0.6123  -0.6120  -0.6102
    -0.5988  -0.5962  -0.5788  -0.5575  -0.5427  -0.5231  -0.5225  -0.5117
    -0.5107  -0.4989  -0.4977  -0.4973  -0.4960  -0.4954  -0.4784  -0.4742
    -0.4733  -0.4433  -0.4419  -0.4408  -0.4297  -0.4291  -0.4102  -0.3780
    -0.3777  -0.3687  -0.3683  -0.3009  -0.2999  -0.2632  -0.2626  -0.2050
    -0.2037  -0.2032  -0.1913  -0.1751   0.0485   0.0515   0.3960   0.3960
     0.4872   0.4895   0.6801   0.6972   0.7139   0.8444   0.8448   1.2761
     1.2763   1.2946   1.5530   1.5861   1.5864   1.8627   1.8654   1.9424
     1.9426   1.9697   1.9712   2.1988   2.1991   2.2873   2.2874   2.3598
     2.4258   2.4285   2.5909   2.6889   3.1292   3.1298   3.1332   3.1338
     3.1881   3.1884   3.4803   3.4805   3.7615   3.7635   3.8641   4.1761
     4.2187   4.2200   4.4283   4.4443   4.5194   4.5215   4.6113   4.7286
     4.7304   4.8467   4.8473   5.1510   5.2080   5.2205   5.2271   5.3906
     5.4096   5.6075   5.6086   5.6336   5.6347   5.6963   5.6989   5.7275
     5.7770   6.0224   6.2514   6.3032   6.3290   6.4403   6.4415   6.4534
     6.4548   6.5084   6.6132   6.6927   6.6957   6.7800   6.8931   6.9142
     6.9344   6.9919   7.0507

          k = 0.2500 0.1443-0.1111 (136898 PWs)   bands (ev):

   -18.7416  -6.5638  -6.5525  -5.7650  -5.4735  -5.4147  -5.4145  -4.8762
    -4.8761  -4.7447  -4.7437  -4.5890  -4.5580  -4.4967  -4.4628  -4.4625
    -4.4297  -4.4293  -4.3010  -4.2595  -4.2590  -4.1991  -4.1780  -4.1779
    -4.0757  -4.0756  -4.0396  -4.0393  -4.0393  -4.0122  -3.9910  -3.9904
    -3.8852  -3.8838  -3.8834  -3.8626  -3.8460  -3.8458  -3.8336  -3.8334
    -3.8199  -3.7901  -3.7900  -3.7897  -3.7895  -3.7570  -3.7567  -3.7392
    -3.7392  -3.7245  -3.6814  -3.6809  -3.6511  -3.6357  -3.6353  -3.6311
    -3.6309  -3.5564  -3.5563  -3.5207  -3.5184  -3.5182  -3.4511  -3.4509
    -3.4352  -3.4351  -3.4042  -3.4037  -3.4035  -3.4032  -3.2497  -3.2496
    -3.2240  -3.2239  -3.2188  -3.2028  -3.2026  -3.1767  -3.1764  -3.1269
    -3.1268  -3.1106  -3.1103  -3.0900  -3.0416  -3.0411  -3.0219  -3.0169
    -3.0168  -2.9760  -2.9758  -2.9694  -2.9693  -2.9527  -2.9524  -2.9128
    -2.9127  -2.8914  -2.8910  -2.8880  -2.8878  -2.8847  -2.8083  -2.8074
    -2.8063  -2.7787  -2.7772  -2.7736  -2.7150  -2.7142  -2.6868  -2.6855
    -2.6723  -2.6722  -2.6670  -2.6374  -2.6371  -2.6278  -2.6100  -2.5845
    -2.5843  -2.5841  -2.5632  -2.5631  -2.5523  -2.5519  -2.5482  -2.5480
    -2.5403  -2.4942  -2.4617  -2.4616  -2.4460  -2.4322  -2.4255  -2.4254
    -2.4181  -2.4179  -2.4165  -2.3865  -2.3862  -2.3860  -2.3765  -2.3761
    -2.3588  -2.3320  -2.3314  -2.3304  -2.3297  -2.3293  -2.2846  -2.2533
    -2.2526  -2.2524  -2.2454  -2.2370  -2.2238  -2.2235  -2.2069  -2.2068
    -2.1735  -2.1718  -2.1716  -2.1532  -2.1517  -2.1513  -2.1186  -2.1182
    -2.0778  -2.0765  -2.0693  -2.0674  -2.0672  -2.0609  -2.0607  -2.0590
    -2.0578  -2.0513  -2.0506  -2.0344  -2.0340  -1.9071  -1.9065  -1.8745
    -1.8684  -1.8679  -1.8627  -1.8626  -1.8454  -1.8452  -1.8418  -1.8414
    -1.8395  -1.8171  -1.8093  -1.8084  -1.8060  -1.7967  -1.7962  -1.7739
    -1.7738  -1.7453  -1.7448  -1.7128  -1.7125  -1.7023  -1.6943  -1.6765
    -1.6762  -1.6731  -1.6550  -1.6429  -1.6427  -1.6353  -1.6351  -1.6081
    -1.6080  -1.5914  -1.5906  -1.5598  -1.5589  -1.5488  -1.4984  -1.4976
    -1.4859  -1.4849  -1.4846  -1.4598  -1.4569  -1.4234  -1.4228  -1.4224
    -1.3901  -1.3791  -1.3784  -1.3629  -1.3627  -1.3365  -1.3351  -1.3346
    -1.3050  -1.3021  -1.3020  -1.2396  -1.2393  -1.2263  -1.2256  -1.2097
    -1.2094  -1.1967  -1.1965  -1.1782  -1.1658  -1.1383  -1.1381  -1.1271
    -1.1020  -1.0891  -1.0880  -1.0767  -1.0765  -1.0752  -1.0695  -1.0687
    -1.0554  -1.0247  -1.0245  -1.0179  -1.0131  -1.0121  -1.0112  -0.9877
    -0.9730  -0.9690  -0.9491  -0.9475  -0.8595  -0.8415  -0.8377  -0.8358
    -0.8351  -0.8287  -0.8267  -0.8138  -0.8007  -0.7885  -0.7851  -0.7745
    -0.7707  -0.7615  -0.7560  -0.7409  -0.7394  -0.7309  -0.7251  -0.6590
    -0.6586  -0.6246  -0.6219  -0.6205  -0.6133  -0.6123  -0.6120  -0.6102
    -0.5988  -0.5962  -0.5788  -0.5575  -0.5427  -0.5231  -0.5225  -0.5117
    -0.5107  -0.4989  -0.4977  -0.4973  -0.4960  -0.4954  -0.4784  -0.4742
    -0.4733  -0.4433  -0.4419  -0.4408  -0.4297  -0.4291  -0.4102  -0.3780
    -0.3777  -0.3687  -0.3683  -0.3009  -0.2999  -0.2632  -0.2626  -0.2050
    -0.2037  -0.2032  -0.1913  -0.1751   0.0485   0.0515   0.3960   0.3960
     0.4872   0.4895   0.6801   0.6972   0.7139   0.8444   0.8448   1.2761
     1.2763   1.2946   1.5530   1.5861   1.5864   1.8627   1.8654   1.9424
     1.9426   1.9697   1.9712   2.1988   2.1991   2.2873   2.2874   2.3598
     2.4258   2.4285   2.5909   2.6889   3.1292   3.1298   3.1332   3.1338
     3.1881   3.1884   3.4803   3.4805   3.7615   3.7635   3.8641   4.1761
     4.2187   4.2199   4.4283   4.4443   4.5194   4.5215   4.6113   4.7286
     4.7304   4.8467   4.8473   5.1510   5.2080   5.2205   5.2271   5.3905
     5.4098   5.6075   5.6086   5.6336   5.6347   5.6963   5.6989   5.7277
     5.7741   6.0282   6.2553   6.3028   6.3288   6.4402   6.4415   6.4531
     6.4547   6.4971   6.5992   6.6928   6.6956   6.7967   6.8937   6.9149
     6.9352   6.9901   7.0554

          k = 0.0000-0.2887 0.1111 (136898 PWs)   bands (ev):

   -18.7416  -6.5638  -6.5525  -5.7650  -5.4735  -5.4147  -5.4146  -4.8762
    -4.8761  -4.7446  -4.7438  -4.5890  -4.5580  -4.4967  -4.4628  -4.4624
    -4.4296  -4.4294  -4.3010  -4.2594  -4.2591  -4.1990  -4.1781  -4.1779
    -4.0757  -4.0756  -4.0396  -4.0393  -4.0393  -4.0122  -3.9908  -3.9906
    -3.8853  -3.8837  -3.8834  -3.8627  -3.8460  -3.8458  -3.8336  -3.8334
    -3.8200  -3.7901  -3.7900  -3.7897  -3.7894  -3.7570  -3.7567  -3.7392
    -3.7392  -3.7245  -3.6813  -3.6810  -3.6511  -3.6358  -3.6352  -3.6310
    -3.6309  -3.5564  -3.5563  -3.5208  -3.5185  -3.5181  -3.4511  -3.4509
    -3.4352  -3.4351  -3.4043  -3.4038  -3.4035  -3.4031  -3.2498  -3.2495
    -3.2241  -3.2238  -3.2188  -3.2028  -3.2026  -3.1768  -3.1763  -3.1269
    -3.1267  -3.1106  -3.1103  -3.0900  -3.0414  -3.0412  -3.0219  -3.0169
    -3.0168  -2.9760  -2.9758  -2.9694  -2.9692  -2.9527  -2.9524  -2.9128
    -2.9128  -2.8913  -2.8909  -2.8879  -2.8877  -2.8848  -2.8087  -2.8074
    -2.8063  -2.7785  -2.7772  -2.7732  -2.7153  -2.7146  -2.6868  -2.6853
    -2.6723  -2.6721  -2.6670  -2.6373  -2.6371  -2.6278  -2.6099  -2.5846
    -2.5842  -2.5839  -2.5632  -2.5631  -2.5522  -2.5519  -2.5485  -2.5478
    -2.5403  -2.4942  -2.4617  -2.4616  -2.4460  -2.4322  -2.4255  -2.4254
    -2.4181  -2.4178  -2.4165  -2.3865  -2.3863  -2.3860  -2.3766  -2.3759
    -2.3588  -2.3317  -2.3314  -2.3308  -2.3296  -2.3292  -2.2846  -2.2533
    -2.2526  -2.2524  -2.2455  -2.2370  -2.2241  -2.2233  -2.2069  -2.2068
    -2.1735  -2.1719  -2.1716  -2.1531  -2.1518  -2.1513  -2.1187  -2.1182
    -2.0777  -2.0766  -2.0693  -2.0674  -2.0672  -2.0609  -2.0608  -2.0585
    -2.0582  -2.0515  -2.0505  -2.0344  -2.0338  -1.9073  -1.9063  -1.8743
    -1.8686  -1.8678  -1.8627  -1.8626  -1.8454  -1.8452  -1.8418  -1.8414
    -1.8396  -1.8171  -1.8094  -1.8084  -1.8060  -1.7967  -1.7962  -1.7739
    -1.7739  -1.7453  -1.7449  -1.7129  -1.7123  -1.7023  -1.6942  -1.6765
    -1.6762  -1.6731  -1.6550  -1.6428  -1.6427  -1.6352  -1.6351  -1.6082
    -1.6079  -1.5914  -1.5907  -1.5597  -1.5592  -1.5488  -1.4982  -1.4978
    -1.4855  -1.4851  -1.4848  -1.4598  -1.4569  -1.4234  -1.4230  -1.4223
    -1.3899  -1.3791  -1.3786  -1.3629  -1.3626  -1.3367  -1.3348  -1.3347
    -1.3049  -1.3021  -1.3020  -1.2396  -1.2393  -1.2263  -1.2256  -1.2099
    -1.2092  -1.1968  -1.1965  -1.1783  -1.1658  -1.1384  -1.1379  -1.1271
    -1.1018  -1.0888  -1.0883  -1.0766  -1.0765  -1.0749  -1.0693  -1.0689
    -1.0554  -1.0249  -1.0243  -1.0183  -1.0136  -1.0121  -1.0113  -0.9877
    -0.9720  -0.9696  -0.9488  -0.9477  -0.8600  -0.8415  -0.8367  -0.8360
    -0.8353  -0.8289  -0.8269  -0.8127  -0.8007  -0.7886  -0.7856  -0.7743
    -0.7707  -0.7615  -0.7567  -0.7411  -0.7394  -0.7309  -0.7247  -0.6589
    -0.6587  -0.6249  -0.6217  -0.6204  -0.6134  -0.6123  -0.6119  -0.6104
    -0.5990  -0.5959  -0.5788  -0.5575  -0.5426  -0.5232  -0.5224  -0.5117
    -0.5107  -0.4988  -0.4978  -0.4975  -0.4960  -0.4952  -0.4784  -0.4742
    -0.4733  -0.4433  -0.4416  -0.4410  -0.4295  -0.4293  -0.4102  -0.3781
    -0.3777  -0.3687  -0.3682  -0.3006  -0.3003  -0.2631  -0.2626  -0.2050
    -0.2036  -0.2033  -0.1914  -0.1751   0.0474   0.0529   0.3960   0.3960
     0.4862   0.4904   0.6803   0.6972   0.7136   0.8441   0.8451   1.2761
     1.2763   1.2947   1.5528   1.5862   1.5863   1.8611   1.8671   1.9423
     1.9427   1.9689   1.9720   2.1988   2.1991   2.2872   2.2875   2.3598
     2.4245   2.4298   2.5909   2.6889   3.1286   3.1305   3.1331   3.1339
     3.1876   3.1888   3.4801   3.4807   3.7605   3.7645   3.8639   4.1762
     4.2181   4.2205   4.4282   4.4455   4.5196   4.5208   4.6114   4.7286
     4.7303   4.8466   4.8476   5.1507   5.2120   5.2205   5.2227   5.3844
     5.4088   5.6070   5.6086   5.6334   5.6351   5.6949   5.7003   5.7262
     5.7862   6.0566   6.2610   6.2726   6.3051   6.4404   6.4409   6.4530
     6.4554   6.5015   6.6158   6.6917   6.6964   6.8250   6.8454   6.9196
     6.9344   6.9949   7.0349

          k = 0.0000 0.2887 0.1111 (136898 PWs)   bands (ev):

   -18.7416  -6.5638  -6.5525  -5.7650  -5.4735  -5.4147  -5.4146  -4.8762
    -4.8761  -4.7446  -4.7438  -4.5890  -4.5580  -4.4967  -4.4628  -4.4624
    -4.4296  -4.4294  -4.3010  -4.2594  -4.2591  -4.1991  -4.1781  -4.1779
    -4.0757  -4.0756  -4.0396  -4.0393  -4.0393  -4.0122  -3.9908  -3.9906
    -3.8853  -3.8837  -3.8834  -3.8627  -3.8460  -3.8458  -3.8336  -3.8334
    -3.8200  -3.7901  -3.7900  -3.7897  -3.7894  -3.7570  -3.7567  -3.7392
    -3.7392  -3.7245  -3.6813  -3.6810  -3.6511  -3.6358  -3.6352  -3.6310
    -3.6309  -3.5564  -3.5563  -3.5208  -3.5185  -3.5181  -3.4511  -3.4509
    -3.4352  -3.4351  -3.4043  -3.4038  -3.4035  -3.4031  -3.2498  -3.2495
    -3.2241  -3.2238  -3.2188  -3.2028  -3.2026  -3.1768  -3.1763  -3.1269
    -3.1267  -3.1106  -3.1103  -3.0900  -3.0414  -3.0412  -3.0219  -3.0169
    -3.0168  -2.9760  -2.9758  -2.9694  -2.9692  -2.9527  -2.9524  -2.9128
    -2.9128  -2.8913  -2.8909  -2.8879  -2.8877  -2.8848  -2.8087  -2.8074
    -2.8063  -2.7785  -2.7772  -2.7732  -2.7153  -2.7146  -2.6868  -2.6853
    -2.6723  -2.6721  -2.6670  -2.6373  -2.6371  -2.6278  -2.6099  -2.5846
    -2.5842  -2.5839  -2.5632  -2.5631  -2.5522  -2.5519  -2.5485  -2.5478
    -2.5403  -2.4942  -2.4617  -2.4616  -2.4460  -2.4322  -2.4255  -2.4254
    -2.4181  -2.4178  -2.4165  -2.3865  -2.3863  -2.3860  -2.3766  -2.3759
    -2.3588  -2.3317  -2.3314  -2.3308  -2.3296  -2.3292  -2.2846  -2.2533
    -2.2526  -2.2524  -2.2455  -2.2370  -2.2241  -2.2233  -2.2069  -2.2068
    -2.1735  -2.1719  -2.1716  -2.1531  -2.1518  -2.1513  -2.1187  -2.1182
    -2.0777  -2.0766  -2.0693  -2.0674  -2.0672  -2.0609  -2.0608  -2.0585
    -2.0582  -2.0515  -2.0505  -2.0344  -2.0338  -1.9073  -1.9063  -1.8743
    -1.8686  -1.8678  -1.8627  -1.8626  -1.8454  -1.8452  -1.8418  -1.8414
    -1.8396  -1.8171  -1.8094  -1.8084  -1.8060  -1.7967  -1.7962  -1.7740
    -1.7739  -1.7453  -1.7448  -1.7129  -1.7123  -1.7023  -1.6942  -1.6765
    -1.6762  -1.6731  -1.6550  -1.6428  -1.6427  -1.6352  -1.6351  -1.6082
    -1.6079  -1.5914  -1.5907  -1.5597  -1.5592  -1.5488  -1.4982  -1.4978
    -1.4855  -1.4851  -1.4848  -1.4598  -1.4569  -1.4234  -1.4230  -1.4223
    -1.3899  -1.3791  -1.3786  -1.3629  -1.3626  -1.3367  -1.3348  -1.3347
    -1.3049  -1.3021  -1.3020  -1.2396  -1.2393  -1.2263  -1.2256  -1.2099
    -1.2092  -1.1968  -1.1965  -1.1783  -1.1658  -1.1384  -1.1379  -1.1271
    -1.1018  -1.0888  -1.0883  -1.0766  -1.0765  -1.0749  -1.0693  -1.0689
    -1.0554  -1.0249  -1.0243  -1.0183  -1.0136  -1.0121  -1.0113  -0.9877
    -0.9720  -0.9696  -0.9488  -0.9477  -0.8600  -0.8415  -0.8367  -0.8360
    -0.8353  -0.8289  -0.8269  -0.8127  -0.8007  -0.7886  -0.7856  -0.7743
    -0.7707  -0.7615  -0.7567  -0.7411  -0.7394  -0.7309  -0.7247  -0.6589
    -0.6587  -0.6249  -0.6217  -0.6204  -0.6134  -0.6122  -0.6119  -0.6104
    -0.5990  -0.5959  -0.5788  -0.5575  -0.5426  -0.5232  -0.5224  -0.5117
    -0.5107  -0.4988  -0.4978  -0.4975  -0.4960  -0.4952  -0.4784  -0.4742
    -0.4733  -0.4433  -0.4416  -0.4410  -0.4295  -0.4293  -0.4102  -0.3781
    -0.3777  -0.3687  -0.3682  -0.3006  -0.3003  -0.2631  -0.2626  -0.2050
    -0.2036  -0.2033  -0.1914  -0.1751   0.0474   0.0529   0.3960   0.3960
     0.4862   0.4904   0.6803   0.6972   0.7136   0.8441   0.8451   1.2761
     1.2763   1.2947   1.5528   1.5862   1.5863   1.8611   1.8671   1.9423
     1.9427   1.9689   1.9720   2.1988   2.1991   2.2872   2.2875   2.3598
     2.4245   2.4298   2.5909   2.6889   3.1286   3.1305   3.1331   3.1339
     3.1876   3.1888   3.4801   3.4807   3.7605   3.7645   3.8639   4.1762
     4.2181   4.2205   4.4282   4.4455   4.5196   4.5208   4.6114   4.7286
     4.7303   4.8466   4.8476   5.1507   5.2120   5.2205   5.2227   5.3844
     5.4086   5.6070   5.6086   5.6334   5.6351   5.6949   5.7003   5.7257
     5.7883   6.0533   6.2565   6.2732   6.3051   6.4403   6.4408   6.4530
     6.4555   6.5147   6.6130   6.6923   6.6965   6.8237   6.8382   6.9196
     6.9337   7.0015   7.0391

     the Fermi energy is     1.4189 ev

!    total energy              =   -6604.43412798 Ry
     Harris-Foulkes estimate   =   -6604.43412798 Ry
     estimated scf accuracy    <          7.8E-09 Ry

     The total energy is the sum of the following terms:

     one-electron contribution =  -48464.16784984 Ry
     hartree contribution      =   24732.87499399 Ry
     xc contribution           =   -3204.95531344 Ry
     ewald contribution        =   20331.81113988 Ry
     smearing contrib. (-TS)   =       0.00290143 Ry

     convergence has been achieved in  24 iterations

     Writing output data file 3096002.save

     init_run     :    163.32s CPU    171.68s WALL (       1 calls)
     electrons    :   9174.71s CPU   9711.27s WALL (       1 calls)

     Called by init_run:
     wfcinit      :    132.52s CPU    140.22s WALL (       1 calls)
     potinit      :      9.68s CPU     10.10s WALL (       1 calls)

     Called by electrons:
     c_bands      :   7967.88s CPU   8404.75s WALL (      25 calls)
     sum_band     :    933.72s CPU   1014.53s WALL (      25 calls)
     v_of_rho     :     95.78s CPU    106.49s WALL (      25 calls)
     newd         :    183.88s CPU    191.66s WALL (      25 calls)
     mix_rho      :      2.36s CPU      2.67s WALL (      25 calls)
     vdW_energy   :      6.30s CPU      7.13s WALL (      25 calls)
     vdW_ffts     :     51.98s CPU     57.29s WALL (      50 calls)
     vdW_v        :     12.09s CPU     13.14s WALL (      25 calls)

     Called by c_bands:
     init_us_2    :     16.35s CPU     16.85s WALL (     612 calls)
     cegterg      :   7757.50s CPU   8189.88s WALL (     300 calls)

     Called by *egterg:
     h_psi        :   3221.02s CPU   3581.11s WALL (    1663 calls)
     s_psi        :    288.90s CPU    293.61s WALL (    1663 calls)
     g_psi        :      6.72s CPU      6.70s WALL (    1351 calls)
     cdiaghg      :   1873.28s CPU   1890.56s WALL (    1639 calls)

     Called by h_psi:
     add_vuspsi   :    289.49s CPU    294.49s WALL (    1663 calls)

     General routines
     calbec       :    764.40s CPU    772.80s WALL (    1963 calls)
     fft          :    118.82s CPU    128.79s WALL (    1650 calls)
     ffts         :      1.11s CPU      1.31s WALL (      50 calls)
     fftw         :   2456.49s CPU   2818.57s WALL (  730158 calls)
     interpolate  :      3.08s CPU      3.66s WALL (      50 calls)
     davcio       :      0.01s CPU      0.16s WALL (      12 calls)

     Parallel routines
     fft_scatter  :   1857.42s CPU   2142.31s WALL (  731858 calls)

     PWSCF        :     2h35m CPU        2h45m WALL


   This run was terminated on:  23:32:52  29Aug2015            

=------------------------------------------------------------------------------=
   JOB DONE.
=------------------------------------------------------------------------------=
