Setting SGE environment for SCC

     Program PWSCF v.5.1.2 starts on 25Jun2015 at  1:35: 0 

     This program is part of the open-source Quantum ESPRESSO suite
     for quantum simulation of materials; please cite
         "P. Giannozzi et al., J. Phys.:Condens. Matter 21 395502 (2009);
          URL http://www.quantum-espresso.org", 
     in publications or presentations arising from this work. More details at
     http://www.quantum-espresso.org/quote

     Parallel version (MPI), running on    32 processors
     R & G space division:  proc/nbgrp/npool/nimage =      32
     Reading input from top.O1.Au50.d.3.0.phi.25.psi.90.in
Warning: card &IONS ignored
Warning: card / ignored
Warning: card &CELL ignored
Warning: card / ignored

     Current dimensions of program PWSCF are:
     Max number of different atomic species (ntypx) = 10
     Max number of k-points (npk) =  40000
     Max angular momentum in pseudopotentials (lmaxx) =  3

     IMPORTANT: XC functional enforced from input :
     Exchange-correlation      = VDW-DF ( 1  4  4  0 1 0)
     Any further DFT definition will be discarded
     Please, verify this is what you really want


     Subspace diagonalization in iterative solution of the eigenvalue problem:
     a serial algorithm will be used


     Parallelization info
     --------------------
     sticks:   dense  smooth     PW     G-vecs:    dense   smooth      PW
     Min         445     223     58                96775    34191    4534
     Max         446     224     59                96790    34246    4540
     Sum       14269    7147   1867              3097177  1095093  145167


     Title: 
     top.O1.Au50.d.3.0.phi.25.psi.90                                            


     bravais-lattice index     =            4
     lattice parameter (alat)  =      22.7436  a.u.
     unit-cell volume          =   22924.1508 (a.u.)^3
     number of atoms/cell      =           67
     number of atomic types    =            3
     number of electrons       =       712.00
     number of Kohn-Sham states=          427
     kinetic-energy cutoff     =      50.0000  Ry
     charge density cutoff     =     400.0000  Ry
     convergence threshold     =      1.0E-08
     mixing beta               =       0.7000
     number of iterations used =            8  plain     mixing
     Exchange-correlation      = VDW-DF ( 1  4  4  0 1 0)

     celldm(1)=  22.743643  celldm(2)=   0.000000  celldm(3)=   2.250000
     celldm(4)=   0.000000  celldm(5)=   0.000000  celldm(6)=   0.000000

     crystal axes: (cart. coord. in units of alat)
               a(1) = (   1.000000   0.000000   0.000000 )  
               a(2) = (  -0.500000   0.866025   0.000000 )  
               a(3) = (   0.000000   0.000000   2.250000 )  

     reciprocal axes: (cart. coord. in units 2 pi/alat)
               b(1) = (  1.000000  0.577350 -0.000000 )  
               b(2) = (  0.000000  1.154701  0.000000 )  
               b(3) = (  0.000000 -0.000000  0.444444 )  


     PseudoPot. # 1 for Au read from file:
     /home/scc/andrejb/qe/pseudo/Au.pbe-nd-van.UPF
     MD5 check sum: 458681b50f36d87ef23c61b04bba420a
     Pseudo is Ultrasoft + core correction, Zval = 11.0
     Generated by new atomic code, or converted to UPF format
     Using radial grid of  985 points,  3 beta functions with: 
                l(1) =   1
                l(2) =   2
                l(3) =   2
     Q(r) pseudized with  8 coefficients,  rinner =    1.100   1.100   1.100
                                                       1.100   1.100

     PseudoPot. # 2 for H  read from file:
     /home/scc/andrejb/qe/pseudo/H.pbe-van_ak.UPF
     MD5 check sum: 403db7282739603aa925980fa9b8608d
     Pseudo is Ultrasoft, Zval =  1.0
     Generated by new atomic code, or converted to UPF format
     Using radial grid of  615 points,  1 beta functions with: 
                l(1) =   0
     Q(r) pseudized with  8 coefficients,  rinner =    0.800

     PseudoPot. # 3 for O  read from file:
     /home/scc/andrejb/qe/pseudo/O.pbe-van_ak.UPF
     MD5 check sum: 4b8c549914a63cae506c6ff22b5af4fe
     Pseudo is Ultrasoft, Zval =  6.0
     Generated by new atomic code, or converted to UPF format
     Using radial grid of  737 points,  4 beta functions with: 
                l(1) =   0
                l(2) =   0
                l(3) =   1
                l(4) =   1
     Q(r) pseudized with  8 coefficients,  rinner =    0.800   0.800   0.800


     vdW kernel table read from file vdW_kernel_table
     MD5 check sum: 48e77a2e26edf626eeb0eaa751ad5cac

     atomic species   valence    mass     pseudopotential
        Au            11.00   196.96657     Au( 1.00)
        H              1.00     1.01000     H ( 1.00)
        O              6.00    16.00000     O ( 1.00)

     No symmetry found



   Cartesian axes

     site n.     atom                  positions (alat units)
         1           O   tau(   1) = (   0.4790780   0.3968269   0.8622611  )
         2           H   tau(   2) = (   0.4518956   0.3485733   0.8032640  )
         3           H   tau(   3) = (   0.5054281   0.3460662   0.9194866  )
         4           Au  tau(   4) = (   0.3540481   0.6132292   0.0000000  )
         5           Au  tau(   5) = (   0.4790062   0.3967954   0.0000000  )
         6           Au  tau(   6) = (   0.6039644   0.1803616   0.0000000  )
         7           Au  tau(   7) = (   0.7289225  -0.0360723   0.0000000  )
         8           Au  tau(   8) = (   0.1041318   0.6132292   0.0000000  )
         9           Au  tau(   9) = (   0.2290899   0.3967954   0.0000000  )
        10           Au  tau(  10) = (   0.3540481   0.1803616   0.0000000  )
        11           Au  tau(  11) = (   0.4790062  -0.0360723   0.0000000  )
        12           Au  tau(  12) = (  -0.1457845   0.6132292   0.0000000  )
        13           Au  tau(  13) = (  -0.0208264   0.3967954   0.0000000  )
        14           Au  tau(  14) = (   0.1041318   0.1803616   0.0000000  )
        15           Au  tau(  15) = (   0.2290899  -0.0360723   0.0000000  )
        16           Au  tau(  16) = (  -0.3957008   0.6132292   0.0000000  )
        17           Au  tau(  17) = (  -0.2707426   0.3967954   0.0000000  )
        18           Au  tau(  18) = (  -0.1457845   0.1803616   0.0000000  )
        19           Au  tau(  19) = (  -0.0208264  -0.0360723   0.0000000  )
        20           Au  tau(  20) = (   0.4790062   0.6853738   0.2040557  )
        21           Au  tau(  21) = (   0.6039644   0.4689400   0.2040557  )
        22           Au  tau(  22) = (   0.7289225   0.2525062   0.2040557  )
        23           Au  tau(  23) = (   0.8538806   0.0360723   0.2040557  )
        24           Au  tau(  24) = (   0.2290899   0.6853738   0.2040557  )
        25           Au  tau(  25) = (   0.3540481   0.4689400   0.2040557  )
        26           Au  tau(  26) = (   0.4790062   0.2525062   0.2040557  )
        27           Au  tau(  27) = (   0.6039644   0.0360723   0.2040557  )
        28           Au  tau(  28) = (  -0.0208264   0.6853738   0.2040557  )
        29           Au  tau(  29) = (   0.1041318   0.4689400   0.2040557  )
        30           Au  tau(  30) = (   0.2290899   0.2525062   0.2040557  )
        31           Au  tau(  31) = (   0.3540481   0.0360723   0.2040557  )
        32           Au  tau(  32) = (  -0.2707426   0.6853738   0.2040557  )
        33           Au  tau(  33) = (  -0.1457845   0.4689400   0.2040557  )
        34           Au  tau(  34) = (  -0.0208264   0.2525062   0.2040557  )
        35           Au  tau(  35) = (   0.1041318   0.0360723   0.2040557  )
        36           Au  tau(  36) = (   0.3541162   0.7576593   0.4066483  )
        37           Au  tau(  37) = (   0.4791000   0.5411421   0.4066696  )
        38           Au  tau(  38) = (   0.6040570   0.3246862   0.4066618  )
        39           Au  tau(  39) = (   0.7290270   0.1081684   0.4066530  )
        40           Au  tau(  40) = (   0.1041162   0.7576236   0.4066247  )
        41           Au  tau(  41) = (   0.2291001   0.5411062   0.4066455  )
        42           Au  tau(  42) = (   0.3540567   0.3246505   0.4066380  )
        43           Au  tau(  43) = (   0.4790276   0.1081324   0.4066292  )
        44           Au  tau(  44) = (  -0.1458201   0.7576104   0.4066225  )
        45           Au  tau(  45) = (  -0.0208365   0.5410930   0.4066438  )
        46           Au  tau(  46) = (   0.1041202   0.3246372   0.4066359  )
        47           Au  tau(  47) = (   0.2290908   0.1081193   0.4066273  )
        48           Au  tau(  48) = (  -0.3958167   0.7575791   0.4065812  )
        49           Au  tau(  49) = (  -0.2708328   0.5410617   0.4066025  )
        50           Au  tau(  50) = (  -0.1458763   0.3246061   0.4065947  )
        51           Au  tau(  51) = (  -0.0209056   0.1080882   0.4065858  )
        52           Au  tau(  52) = (   0.3541084   0.6133344   0.6129762  )
        53           Au  tau(  53) = (   0.4790780   0.3968269   0.6129968  )
        54           Au  tau(  54) = (   0.6040356   0.1803811   0.6129859  )
        55           Au  tau(  55) = (   0.7290165  -0.0361221   0.6129385  )
        56           Au  tau(  56) = (   0.1041243   0.6133091   0.6130023  )
        57           Au  tau(  57) = (   0.2290941   0.3968013   0.6130241  )
        58           Au  tau(  58) = (   0.3540515   0.1803552   0.6130121  )
        59           Au  tau(  59) = (   0.4790323  -0.0361475   0.6129659  )
        60           Au  tau(  60) = (  -0.1458030   0.6133014   0.6129980  )
        61           Au  tau(  61) = (  -0.0208339   0.3967936   0.6130189  )
        62           Au  tau(  62) = (   0.1041239   0.1803477   0.6130083  )
        63           Au  tau(  63) = (   0.2291046  -0.0361554   0.6129607  )
        64           Au  tau(  64) = (  -0.3957908   0.6132739   0.6129471  )
        65           Au  tau(  65) = (  -0.2708208   0.3967658   0.6129688  )
        66           Au  tau(  66) = (  -0.1458636   0.1803200   0.6129569  )
        67           Au  tau(  67) = (  -0.0208823  -0.0361826   0.6129110  )

     number of k points=    12  Marzari-Vanderbilt smearing, width (Ry)=  0.0200
                       cart. coord. in units 2pi/alat
        k(    1) = (   0.2500000   0.4330127   0.1111111), wk =   0.1666667
        k(    2) = (   0.2500000  -0.1443376   0.1111111), wk =   0.1666667
        k(    3) = (  -0.2500000  -0.4330127   0.1111111), wk =   0.1666667
        k(    4) = (  -0.2500000   0.4330127  -0.1111111), wk =   0.1666667
        k(    5) = (   0.2500000  -0.4330127  -0.1111111), wk =   0.1666667
        k(    6) = (   0.5000000   0.0000000   0.1111111), wk =   0.1666667
        k(    7) = (  -0.5000000   0.0000000   0.1111111), wk =   0.1666667
        k(    8) = (  -0.2500000   0.1443376   0.1111111), wk =   0.1666667
        k(    9) = (  -0.2500000  -0.1443376  -0.1111111), wk =   0.1666667
        k(   10) = (   0.2500000   0.1443376  -0.1111111), wk =   0.1666667
        k(   11) = (   0.0000000  -0.2886751   0.1111111), wk =   0.1666667
        k(   12) = (   0.0000000   0.2886751   0.1111111), wk =   0.1666667

     Dense  grid:  3097177 G-vectors     FFT dimensions: ( 150, 150, 360)

     Smooth grid:  1095093 G-vectors     FFT dimensions: ( 108, 108, 240)

     Largest allocated arrays     est. size (Mb)     dimensions
        Kohn-Sham Wavefunctions        28.01 Mb     (    4299,  427)
        NL pseudopotentials            55.23 Mb     (    4299,  842)
        Each V/rho on FFT grid          4.12 Mb     (  270000)
        Each G-vector array             0.74 Mb     (   96788)
        G-vector shells                 0.16 Mb     (   21404)
     Largest temporary arrays     est. size (Mb)     dimensions
        Auxiliary wavefunctions       112.04 Mb     (    4299, 1708)
        Each subspace H/S matrix       44.51 Mb     (    1708, 1708)
        Each <psi_i|beta_j> matrix      5.49 Mb     (     842,  427)
        Arrays for rho mixing          32.96 Mb     (  270000,    8)

     Initial potential from superposition of free atoms
     Check: negative starting charge=   -1.730269

     starting charge  711.25682, renormalised to  712.00000

     negative rho (up, down):  1.732E+00 0.000E+00


     ************************************************************************
     *
     * You are using vdW-DF for exchange-correlation in this calculation.
     * Please cite the following three references that made this development
     * possible:
     *
     *   M. Dion, H. Rydberg, E. Schroder, D. C. Langreth, and
     *   B. I. Lundqvist, Phys. Rev. Lett. 92, 246401 (2004).
     *
     *   T. Thonhauser, V. R. Cooper, S. Li, A. Puzder, P. Hyldgaard, and
     *   D. C. Langreth, Phys. Rev. B 76, 125112 (2007).
     *
     *   G. Roman-Perez and J. M. Soler, Phys. Rev. Lett. 103, 096102 (2009).
     *
     *
     * If you are using vdW-DF2, please also cite:
     *
     *   K. Lee, E. D. Murray, L. Kong, B. I. Lundqvist, and
     *   D. C. Langreth, Phys. Rev. B 82, 081101(R) (2010).
     *
     *
     * If you are calculating the stress with vdW-DF, please also cite:
     *
     *   R. Sabatini, E. Kucukbenli, B. Kolb, T. Thonhauser, and
     *   S. de Gironcoli, J. Phys.: Condens. Matter 24, 424209 (2012).
     *
     ************************************************************************

     Carrying out vdW-DF run using the following parameters:

     Nqs =      20    Nr_points =    1024   r_max =   100.000
     q_mesh =
               0.00001000     0.04494208     0.09755937     0.15916263
               0.23128650     0.31572767     0.41458969     0.53033537
               0.66584808     0.82450364     1.01025438     1.22772762
               1.48234092     1.78043706     2.12944203     2.53805004
               3.01644009     3.57652955     4.23227104     5.00000000

     Gradients computed in reciprocal space

     ************************************************************************


     Starting wfc are  582 randomized atomic wfcs

     total cpu time spent up to now is      149.4 secs

     Self-consistent Calculation

     iteration #  1     ecut=    50.00 Ry     beta=0.70
     Davidson diagonalization with overlap
     ethr =  1.00E-02,  avg # of iterations =  3.0

     Threshold (ethr) on eigenvalues was too large:
     Diagonalizing with lowered threshold

     Davidson diagonalization with overlap
     ethr =  3.44E-04,  avg # of iterations =  4.8

     negative rho (up, down):  1.727E+00 0.000E+00

     total cpu time spent up to now is      767.8 secs

     total energy              =   -6602.79833347 Ry
     Harris-Foulkes estimate   =   -6605.02597176 Ry
     estimated scf accuracy    <       2.79282136 Ry

     iteration #  2     ecut=    50.00 Ry     beta=0.70
     Davidson diagonalization with overlap
     ethr =  3.92E-04,  avg # of iterations = 11.4

     negative rho (up, down):  1.726E+00 0.000E+00

     total cpu time spent up to now is     1740.0 secs

     total energy              =   -6596.91626877 Ry
     Harris-Foulkes estimate   =   -6610.04784139 Ry
     estimated scf accuracy    <      72.52061751 Ry

     iteration #  3     ecut=    50.00 Ry     beta=0.70
     Davidson diagonalization with overlap
     ethr =  3.92E-04,  avg # of iterations =  6.6

     negative rho (up, down):  1.737E+00 0.000E+00

     total cpu time spent up to now is     2381.6 secs

     total energy              =   -6603.19077367 Ry
     Harris-Foulkes estimate   =   -6604.98038732 Ry
     estimated scf accuracy    <       8.01493626 Ry

     iteration #  4     ecut=    50.00 Ry     beta=0.70
     Davidson diagonalization with overlap
     ethr =  3.92E-04,  avg # of iterations =  6.8

     negative rho (up, down):  1.739E+00 0.000E+00

     total cpu time spent up to now is     2781.4 secs

     total energy              =   -6603.64309969 Ry
     Harris-Foulkes estimate   =   -6605.04617988 Ry
     estimated scf accuracy    <      12.18255708 Ry

     iteration #  5     ecut=    50.00 Ry     beta=0.70
     Davidson diagonalization with overlap
     ethr =  3.92E-04,  avg # of iterations =  6.5

     negative rho (up, down):  1.748E+00 0.000E+00

     total cpu time spent up to now is     3145.3 secs

     total energy              =   -6604.28945285 Ry
     Harris-Foulkes estimate   =   -6604.64540028 Ry
     estimated scf accuracy    <       2.70109774 Ry

     iteration #  6     ecut=    50.00 Ry     beta=0.70
     Davidson diagonalization with overlap
     ethr =  3.79E-04,  avg # of iterations =  2.5

     negative rho (up, down):  1.752E+00 0.000E+00

     total cpu time spent up to now is     3417.6 secs

     total energy              =   -6604.41754266 Ry
     Harris-Foulkes estimate   =   -6604.46425823 Ry
     estimated scf accuracy    <       0.14512451 Ry

     iteration #  7     ecut=    50.00 Ry     beta=0.70
     Davidson diagonalization with overlap
     ethr =  2.04E-05,  avg # of iterations = 11.9

     negative rho (up, down):  1.754E+00 0.000E+00

     total cpu time spent up to now is     3904.4 secs

     total energy              =   -6604.42488596 Ry
     Harris-Foulkes estimate   =   -6604.45263478 Ry
     estimated scf accuracy    <       0.12128529 Ry

     iteration #  8     ecut=    50.00 Ry     beta=0.70
     Davidson diagonalization with overlap
     ethr =  1.70E-05,  avg # of iterations =  3.2

     negative rho (up, down):  1.756E+00 0.000E+00

     total cpu time spent up to now is     4191.7 secs

     total energy              =   -6604.42791340 Ry
     Harris-Foulkes estimate   =   -6604.44121628 Ry
     estimated scf accuracy    <       0.05065647 Ry

     iteration #  9     ecut=    50.00 Ry     beta=0.70
     Davidson diagonalization with overlap
     ethr =  7.11E-06,  avg # of iterations =  5.1

     negative rho (up, down):  1.756E+00 0.000E+00

     total cpu time spent up to now is     4520.8 secs

     total energy              =   -6604.42794274 Ry
     Harris-Foulkes estimate   =   -6604.43419040 Ry
     estimated scf accuracy    <       0.02152766 Ry

     iteration # 10     ecut=    50.00 Ry     beta=0.70
     Davidson diagonalization with overlap
     ethr =  3.02E-06,  avg # of iterations =  5.8

     negative rho (up, down):  1.757E+00 0.000E+00

     total cpu time spent up to now is     4854.5 secs

     total energy              =   -6604.42785993 Ry
     Harris-Foulkes estimate   =   -6604.43045127 Ry
     estimated scf accuracy    <       0.00892169 Ry

     iteration # 11     ecut=    50.00 Ry     beta=0.70
     Davidson diagonalization with overlap
     ethr =  1.25E-06,  avg # of iterations =  4.3

     negative rho (up, down):  1.757E+00 0.000E+00

     total cpu time spent up to now is     5171.1 secs

     total energy              =   -6604.42784223 Ry
     Harris-Foulkes estimate   =   -6604.42900762 Ry
     estimated scf accuracy    <       0.00450870 Ry

     iteration # 12     ecut=    50.00 Ry     beta=0.70
     Davidson diagonalization with overlap
     ethr =  6.33E-07,  avg # of iterations =  2.8

     negative rho (up, down):  1.758E+00 0.000E+00

     total cpu time spent up to now is     5442.2 secs

     total energy              =   -6604.42769719 Ry
     Harris-Foulkes estimate   =   -6604.42828892 Ry
     estimated scf accuracy    <       0.00104478 Ry

     iteration # 13     ecut=    50.00 Ry     beta=0.70
     Davidson diagonalization with overlap
     ethr =  1.47E-07,  avg # of iterations =  5.9

     negative rho (up, down):  1.758E+00 0.000E+00

     total cpu time spent up to now is     5816.7 secs

     total energy              =   -6604.42782946 Ry
     Harris-Foulkes estimate   =   -6604.42804052 Ry
     estimated scf accuracy    <       0.00070486 Ry

     iteration # 14     ecut=    50.00 Ry     beta=0.70
     Davidson diagonalization with overlap
     ethr =  9.90E-08,  avg # of iterations =  2.0

     negative rho (up, down):  1.758E+00 0.000E+00

     total cpu time spent up to now is     6077.4 secs

     total energy              =   -6604.42792046 Ry
     Harris-Foulkes estimate   =   -6604.42797508 Ry
     estimated scf accuracy    <       0.00020493 Ry

     iteration # 15     ecut=    50.00 Ry     beta=0.70
     Davidson diagonalization with overlap
     ethr =  2.88E-08,  avg # of iterations =  2.0

     negative rho (up, down):  1.757E+00 0.000E+00

     total cpu time spent up to now is     6355.1 secs

     total energy              =   -6604.42793990 Ry
     Harris-Foulkes estimate   =   -6604.42796384 Ry
     estimated scf accuracy    <       0.00008666 Ry

     iteration # 16     ecut=    50.00 Ry     beta=0.70
     Davidson diagonalization with overlap
     ethr =  1.22E-08,  avg # of iterations =  2.0

     negative rho (up, down):  1.757E+00 0.000E+00

     total cpu time spent up to now is     6624.9 secs

     total energy              =   -6604.42793836 Ry
     Harris-Foulkes estimate   =   -6604.42796548 Ry
     estimated scf accuracy    <       0.00026733 Ry

     iteration # 17     ecut=    50.00 Ry     beta=0.70
     Davidson diagonalization with overlap
     ethr =  1.22E-08,  avg # of iterations =  1.0

     negative rho (up, down):  1.757E+00 0.000E+00

     total cpu time spent up to now is     6877.0 secs

     total energy              =   -6604.42795242 Ry
     Harris-Foulkes estimate   =   -6604.42795480 Ry
     estimated scf accuracy    <       0.00001512 Ry

     iteration # 18     ecut=    50.00 Ry     beta=0.70
     Davidson diagonalization with overlap
     ethr =  2.12E-09,  avg # of iterations =  2.0

     negative rho (up, down):  1.757E+00 0.000E+00

     total cpu time spent up to now is     7143.9 secs

     total energy              =   -6604.42795252 Ry
     Harris-Foulkes estimate   =   -6604.42795528 Ry
     estimated scf accuracy    <       0.00001138 Ry

     iteration # 19     ecut=    50.00 Ry     beta=0.70
     Davidson diagonalization with overlap
     ethr =  1.60E-09,  avg # of iterations =  2.0

     negative rho (up, down):  1.757E+00 0.000E+00

     total cpu time spent up to now is     7412.3 secs

     total energy              =   -6604.42795390 Ry
     Harris-Foulkes estimate   =   -6604.42795415 Ry
     estimated scf accuracy    <       0.00000094 Ry

     iteration # 20     ecut=    50.00 Ry     beta=0.70
     Davidson diagonalization with overlap
     ethr =  1.31E-10,  avg # of iterations =  3.0

     negative rho (up, down):  1.757E+00 0.000E+00

     total cpu time spent up to now is     7729.5 secs

     total energy              =   -6604.42795410 Ry
     Harris-Foulkes estimate   =   -6604.42795414 Ry
     estimated scf accuracy    <       0.00000021 Ry

     iteration # 21     ecut=    50.00 Ry     beta=0.70
     Davidson diagonalization with overlap
     ethr =  2.98E-11,  avg # of iterations =  2.0

     negative rho (up, down):  1.757E+00 0.000E+00

     total cpu time spent up to now is     8022.9 secs

     total energy              =   -6604.42795414 Ry
     Harris-Foulkes estimate   =   -6604.42795418 Ry
     estimated scf accuracy    <       0.00000024 Ry

     iteration # 22     ecut=    50.00 Ry     beta=0.70
     Davidson diagonalization with overlap
     ethr =  2.98E-11,  avg # of iterations =  2.0

     negative rho (up, down):  1.757E+00 0.000E+00

     total cpu time spent up to now is     8280.9 secs

     total energy              =   -6604.42795416 Ry
     Harris-Foulkes estimate   =   -6604.42795417 Ry
     estimated scf accuracy    <       0.00000002 Ry

     iteration # 23     ecut=    50.00 Ry     beta=0.70
     Davidson diagonalization with overlap
     ethr =  2.12E-12,  avg # of iterations =  3.0

     negative rho (up, down):  1.757E+00 0.000E+00

     total cpu time spent up to now is     8644.5 secs

     total energy              =   -6604.42795417 Ry
     Harris-Foulkes estimate   =   -6604.42795417 Ry
     estimated scf accuracy    <       0.00000002 Ry

     iteration # 24     ecut=    50.00 Ry     beta=0.70
     Davidson diagonalization with overlap
     ethr =  2.12E-12,  avg # of iterations =  2.2

     negative rho (up, down):  1.757E+00 0.000E+00

     total cpu time spent up to now is     8950.9 secs

     total energy              =   -6604.42795417 Ry
     Harris-Foulkes estimate   =   -6604.42795418 Ry
     estimated scf accuracy    <       0.00000002 Ry

     iteration # 25     ecut=    50.00 Ry     beta=0.70
     Davidson diagonalization with overlap
     ethr =  2.12E-12,  avg # of iterations =  2.0

     negative rho (up, down):  1.757E+00 0.000E+00

     total cpu time spent up to now is     9214.5 secs

     End of self-consistent calculation

          k = 0.2500 0.4330 0.1111 (136853 PWs)   bands (ev):

   -18.8219  -6.7669  -6.3388  -5.9408  -5.9402  -5.2627  -4.9298  -4.9297
    -4.8909  -4.8897  -4.5298  -4.5293  -4.4310  -4.4308  -4.4169  -4.3945
    -4.3718  -4.2640  -4.2627  -4.2391  -4.1960  -4.1955  -4.1272  -4.1266
    -4.1203  -4.1196  -4.0986  -4.0934  -4.0921  -4.0240  -4.0196  -3.9908
    -3.9898  -3.9782  -3.9779  -3.9548  -3.9547  -3.9321  -3.9241  -3.9237
    -3.8973  -3.8452  -3.8448  -3.7972  -3.7962  -3.7392  -3.7380  -3.6838
    -3.6828  -3.6826  -3.6824  -3.6469  -3.6106  -3.6089  -3.6020  -3.6002
    -3.5996  -3.5716  -3.5690  -3.5613  -3.5006  -3.5000  -3.4922  -3.4729
    -3.4657  -3.3939  -3.3930  -3.3632  -3.3593  -3.3337  -3.3319  -3.3181
    -3.3015  -3.2434  -3.2417  -3.2252  -3.2236  -3.1763  -3.1718  -3.1679
    -3.1291  -3.1018  -3.0971  -3.0896  -3.0888  -3.0830  -3.0762  -3.0696
    -3.0677  -3.0585  -3.0175  -2.9793  -2.9782  -2.9692  -2.9643  -2.9416
    -2.9317  -2.9283  -2.9089  -2.9028  -2.8613  -2.8588  -2.8521  -2.8134
    -2.8067  -2.7951  -2.7948  -2.7677  -2.7642  -2.7356  -2.6997  -2.6956
    -2.6779  -2.6690  -2.6553  -2.6527  -2.6061  -2.6044  -2.5720  -2.5492
    -2.5483  -2.5261  -2.5243  -2.5137  -2.5127  -2.5028  -2.4808  -2.4804
    -2.4352  -2.4348  -2.4334  -2.4182  -2.4169  -2.4105  -2.4030  -2.4009
    -2.4000  -2.3987  -2.3927  -2.3830  -2.3806  -2.3706  -2.3462  -2.3434
    -2.3429  -2.3411  -2.3397  -2.3380  -2.3372  -2.3113  -2.3081  -2.2944
    -2.2927  -2.2748  -2.2746  -2.2664  -2.2649  -2.2637  -2.2623  -2.2446
    -2.2433  -2.2418  -2.2402  -2.2251  -2.1978  -2.1974  -2.1568  -2.1564
    -2.1333  -2.1321  -2.1048  -2.1041  -2.0789  -2.0761  -2.0602  -2.0551
    -2.0276  -2.0112  -2.0060  -2.0017  -1.9988  -1.9959  -1.9893  -1.9873
    -1.9620  -1.9560  -1.9483  -1.8892  -1.8858  -1.8841  -1.8826  -1.8806
    -1.8466  -1.8258  -1.8249  -1.7987  -1.7970  -1.7389  -1.7376  -1.7082
    -1.6918  -1.6886  -1.6298  -1.6286  -1.6184  -1.6157  -1.6064  -1.6045
    -1.6009  -1.5939  -1.5910  -1.5409  -1.5363  -1.5258  -1.5231  -1.5225
    -1.5080  -1.5031  -1.4703  -1.4682  -1.4546  -1.4511  -1.4503  -1.4435
    -1.4400  -1.4313  -1.4279  -1.4106  -1.4086  -1.3745  -1.3678  -1.3585
    -1.3555  -1.3368  -1.3215  -1.2829  -1.2793  -1.2537  -1.2499  -1.2478
    -1.2191  -1.1800  -1.1679  -1.1656  -1.1646  -1.1605  -1.1592  -1.1504
    -1.1334  -1.1310  -1.0933  -1.0888  -1.0636  -1.0590  -1.0573  -1.0530
    -1.0469  -1.0393  -1.0314  -1.0284  -1.0282  -1.0243  -1.0059  -0.9868
    -0.9856  -0.9845  -0.9657  -0.9563  -0.9505  -0.9368  -0.9208  -0.9198
    -0.8879  -0.8720  -0.8645  -0.8521  -0.8251  -0.8201  -0.8116  -0.8092
    -0.8026  -0.8018  -0.7998  -0.7938  -0.7874  -0.7725  -0.7634  -0.7617
    -0.7584  -0.7557  -0.7477  -0.7192  -0.7188  -0.7097  -0.7013  -0.6887
    -0.6846  -0.6744  -0.6660  -0.6175  -0.6135  -0.6080  -0.6070  -0.6054
    -0.6022  -0.5938  -0.5803  -0.5760  -0.5719  -0.5703  -0.5692  -0.5615
    -0.5299  -0.5275  -0.5262  -0.5186  -0.5172  -0.5130  -0.5116  -0.4973
    -0.4934  -0.4923  -0.4819  -0.4507  -0.4491  -0.4416  -0.4376  -0.4365
    -0.3618  -0.3584  -0.3569  -0.3556  -0.3481  -0.3453  -0.3110  -0.2988
    -0.2980  -0.2683  -0.2662  -0.2569  -0.1458  -0.1431  -0.0426   0.3727
     0.3733   0.3766   0.3774   0.4385   0.4435   0.8254   0.8266   0.8681
     0.8693   0.9827   1.0599   1.1703   1.1724   1.3925   1.3996   2.0224
     2.0256   2.1852   2.1870   2.3193   2.3219   2.4221   2.4225   2.5765
     2.8141   2.8242   2.9391   3.1631   3.1654   3.2435   3.2459   3.3453
     3.3615   3.5598   3.5681   3.6165   3.8176   3.8198   3.8792   3.8840
     4.1376   4.1469   4.1478   4.3881   4.4270   4.4322   4.4757   4.8084
     4.8134   4.8413   4.9728   5.1465   5.1506   5.1982   5.2218   5.4831
     5.7974   5.9287   5.9353   5.9428   5.9465   6.0079   6.0127   6.0872
     6.1162   6.1368   6.1467   6.1757   6.1780   6.1994   6.2113   6.2322
     6.2384   6.4257   6.5755   6.7033   6.7553   6.7947   6.8787   6.8861
     6.8938   6.9995   7.0050

          k = 0.2500-0.1443 0.1111 (136898 PWs)   bands (ev):

   -18.8219  -6.7687  -6.5466  -5.7580  -5.4662  -5.4083  -5.4076  -4.8699
    -4.8696  -4.7379  -4.7376  -4.5827  -4.5536  -4.4902  -4.4572  -4.4559
    -4.4232  -4.4231  -4.2946  -4.2531  -4.2526  -4.1931  -4.1720  -4.1717
    -4.0695  -4.0693  -4.0331  -4.0329  -4.0329  -4.0064  -3.9845  -3.9843
    -3.8811  -3.8776  -3.8770  -3.8571  -3.8399  -3.8396  -3.8280  -3.8273
    -3.8151  -3.7843  -3.7842  -3.7834  -3.7832  -3.7519  -3.7510  -3.7333
    -3.7330  -3.7216  -3.6791  -3.6766  -3.6453  -3.6317  -3.6298  -3.6246
    -3.6244  -3.5503  -3.5500  -3.5166  -3.5134  -3.5121  -3.4449  -3.4444
    -3.4292  -3.4289  -3.3999  -3.3988  -3.3978  -3.3972  -3.2442  -3.2431
    -3.2259  -3.2189  -3.2142  -3.1973  -3.1967  -3.1721  -3.1710  -3.1212
    -3.1211  -3.1058  -3.1047  -3.0844  -3.0450  -3.0361  -3.0176  -3.0128
    -3.0113  -2.9772  -2.9706  -2.9654  -2.9625  -2.9494  -2.9468  -2.9235
    -2.9077  -2.9068  -2.8852  -2.8830  -2.8821  -2.8783  -2.8683  -2.8030
    -2.8011  -2.7996  -2.7713  -2.7705  -2.7095  -2.7041  -2.6811  -2.6800
    -2.6674  -2.6664  -2.6604  -2.6319  -2.6305  -2.6215  -2.6048  -2.5804
    -2.5784  -2.5768  -2.5581  -2.5571  -2.5466  -2.5456  -2.5439  -2.5414
    -2.5335  -2.4878  -2.4567  -2.4555  -2.4404  -2.4268  -2.4209  -2.4196
    -2.4131  -2.4118  -2.4100  -2.3811  -2.3807  -2.3795  -2.3710  -2.3700
    -2.3543  -2.3278  -2.3261  -2.3257  -2.3245  -2.3240  -2.2781  -2.2484
    -2.2475  -2.2462  -2.2403  -2.2305  -2.2194  -2.2180  -2.2012  -2.2008
    -2.1706  -2.1667  -2.1661  -2.1487  -2.1477  -2.1457  -2.1156  -2.1130
    -2.0749  -2.0700  -2.0654  -2.0629  -2.0620  -2.0568  -2.0557  -2.0532
    -2.0522  -2.0490  -2.0446  -2.0310  -2.0284  -1.9054  -1.9009  -1.8728
    -1.8651  -1.8622  -1.8566  -1.8563  -1.8415  -1.8396  -1.8382  -1.8361
    -1.8342  -1.8116  -1.8073  -1.8034  -1.7999  -1.7937  -1.7902  -1.7689
    -1.7683  -1.7396  -1.7394  -1.7113  -1.7083  -1.6978  -1.6898  -1.6725
    -1.6708  -1.6680  -1.6506  -1.6374  -1.6368  -1.6303  -1.6296  -1.6049
    -1.6034  -1.5882  -1.5856  -1.5545  -1.5535  -1.5453  -1.4967  -1.4929
    -1.4845  -1.4794  -1.4786  -1.4536  -1.4512  -1.4197  -1.4185  -1.4170
    -1.3887  -1.3753  -1.3734  -1.3579  -1.3568  -1.3338  -1.3306  -1.3298
    -1.3005  -1.2974  -1.2971  -1.2358  -1.2335  -1.2236  -1.2207  -1.2069
    -1.2043  -1.1931  -1.1917  -1.1737  -1.1609  -1.1435  -1.1320  -1.1228
    -1.1084  -1.0863  -1.0828  -1.0743  -1.0706  -1.0698  -1.0664  -1.0642
    -1.0491  -1.0273  -1.0205  -1.0191  -1.0086  -1.0062  -1.0054  -0.9840
    -0.9767  -0.9641  -0.9474  -0.9420  -0.8788  -0.8464  -0.8374  -0.8316
    -0.8306  -0.8271  -0.8210  -0.8121  -0.7974  -0.7859  -0.7805  -0.7689
    -0.7661  -0.7582  -0.7537  -0.7372  -0.7348  -0.7264  -0.7180  -0.6536
    -0.6525  -0.6198  -0.6154  -0.6142  -0.6081  -0.6058  -0.6054  -0.6016
    -0.5924  -0.5867  -0.5679  -0.5509  -0.5318  -0.5184  -0.5169  -0.5060
    -0.5032  -0.4945  -0.4928  -0.4916  -0.4900  -0.4853  -0.4733  -0.4684
    -0.4659  -0.4383  -0.4355  -0.4340  -0.4232  -0.4232  -0.4041  -0.3723
    -0.3710  -0.3629  -0.3606  -0.2950  -0.2940  -0.2586  -0.2576  -0.2004
    -0.1994  -0.1982  -0.1809  -0.1725   0.0538   0.0655   0.4017   0.4018
     0.4916   0.5015   0.6892   0.7086   0.7194   0.8483   0.8515   1.2817
     1.2823   1.3000   1.5611   1.5919   1.5924   1.8672   1.8784   1.9462
     1.9482   1.9726   1.9812   2.2022   2.2047   2.2929   2.2937   2.3702
     2.4303   2.4419   2.5964   2.6958   3.1322   3.1351   3.1386   3.1402
     3.1904   3.1950   3.4853   3.4866   3.7642   3.7731   3.8770   4.1822
     4.2203   4.2273   4.4348   4.4675   4.5232   4.5264   4.6163   4.7344
     4.7372   4.8518   4.8534   5.1543   5.2222   5.2264   5.3305   5.4151
     5.4385   5.6091   5.6145   5.6391   5.6417   5.6999   5.7044   5.7463
     5.8463   6.0656   6.2749   6.3067   6.3616   6.4399   6.4456   6.4581
     6.4611   6.5257   6.6404   6.6956   6.7045   6.8472   6.9173   6.9328
     6.9541   7.0243   7.0757

          k =-0.2500-0.4330 0.1111 (136853 PWs)   bands (ev):

   -18.8219  -6.7669  -6.3388  -5.9408  -5.9402  -5.2627  -4.9298  -4.9297
    -4.8909  -4.8897  -4.5298  -4.5293  -4.4310  -4.4308  -4.4169  -4.3945
    -4.3718  -4.2640  -4.2627  -4.2391  -4.1960  -4.1955  -4.1272  -4.1266
    -4.1203  -4.1196  -4.0986  -4.0934  -4.0921  -4.0240  -4.0196  -3.9908
    -3.9898  -3.9782  -3.9779  -3.9548  -3.9547  -3.9321  -3.9241  -3.9237
    -3.8973  -3.8452  -3.8448  -3.7972  -3.7962  -3.7392  -3.7380  -3.6838
    -3.6828  -3.6826  -3.6824  -3.6469  -3.6106  -3.6089  -3.6020  -3.6002
    -3.5996  -3.5716  -3.5690  -3.5613  -3.5006  -3.5000  -3.4922  -3.4729
    -3.4657  -3.3939  -3.3930  -3.3632  -3.3593  -3.3337  -3.3319  -3.3181
    -3.3015  -3.2434  -3.2417  -3.2252  -3.2236  -3.1763  -3.1718  -3.1679
    -3.1291  -3.1018  -3.0971  -3.0896  -3.0888  -3.0830  -3.0762  -3.0696
    -3.0677  -3.0585  -3.0175  -2.9793  -2.9782  -2.9692  -2.9643  -2.9416
    -2.9317  -2.9283  -2.9089  -2.9028  -2.8613  -2.8588  -2.8521  -2.8134
    -2.8067  -2.7951  -2.7948  -2.7677  -2.7642  -2.7356  -2.6997  -2.6956
    -2.6779  -2.6690  -2.6553  -2.6527  -2.6061  -2.6044  -2.5720  -2.5492
    -2.5483  -2.5261  -2.5243  -2.5137  -2.5127  -2.5028  -2.4808  -2.4804
    -2.4352  -2.4348  -2.4334  -2.4182  -2.4169  -2.4105  -2.4030  -2.4009
    -2.4000  -2.3987  -2.3927  -2.3830  -2.3806  -2.3706  -2.3462  -2.3434
    -2.3429  -2.3411  -2.3397  -2.3380  -2.3372  -2.3113  -2.3081  -2.2944
    -2.2927  -2.2748  -2.2746  -2.2664  -2.2649  -2.2637  -2.2623  -2.2446
    -2.2433  -2.2418  -2.2402  -2.2251  -2.1978  -2.1974  -2.1568  -2.1564
    -2.1333  -2.1321  -2.1048  -2.1041  -2.0789  -2.0761  -2.0602  -2.0551
    -2.0276  -2.0112  -2.0060  -2.0017  -1.9988  -1.9959  -1.9893  -1.9873
    -1.9620  -1.9560  -1.9483  -1.8892  -1.8858  -1.8841  -1.8826  -1.8806
    -1.8466  -1.8258  -1.8249  -1.7987  -1.7970  -1.7389  -1.7376  -1.7082
    -1.6918  -1.6886  -1.6298  -1.6286  -1.6184  -1.6157  -1.6064  -1.6045
    -1.6009  -1.5939  -1.5910  -1.5409  -1.5363  -1.5258  -1.5231  -1.5225
    -1.5080  -1.5031  -1.4703  -1.4682  -1.4546  -1.4511  -1.4503  -1.4435
    -1.4400  -1.4313  -1.4279  -1.4106  -1.4086  -1.3745  -1.3678  -1.3585
    -1.3555  -1.3368  -1.3215  -1.2829  -1.2793  -1.2537  -1.2499  -1.2478
    -1.2191  -1.1800  -1.1679  -1.1656  -1.1646  -1.1605  -1.1592  -1.1504
    -1.1334  -1.1310  -1.0933  -1.0888  -1.0636  -1.0590  -1.0573  -1.0530
    -1.0469  -1.0393  -1.0314  -1.0284  -1.0282  -1.0243  -1.0059  -0.9868
    -0.9856  -0.9845  -0.9657  -0.9563  -0.9505  -0.9368  -0.9208  -0.9198
    -0.8879  -0.8720  -0.8645  -0.8521  -0.8251  -0.8201  -0.8116  -0.8092
    -0.8026  -0.8018  -0.7998  -0.7938  -0.7874  -0.7725  -0.7634  -0.7617
    -0.7584  -0.7557  -0.7477  -0.7192  -0.7188  -0.7097  -0.7013  -0.6887
    -0.6846  -0.6744  -0.6660  -0.6175  -0.6135  -0.6080  -0.6070  -0.6054
    -0.6022  -0.5938  -0.5803  -0.5760  -0.5719  -0.5703  -0.5692  -0.5615
    -0.5299  -0.5275  -0.5262  -0.5186  -0.5172  -0.5130  -0.5116  -0.4973
    -0.4934  -0.4923  -0.4819  -0.4507  -0.4491  -0.4416  -0.4376  -0.4365
    -0.3618  -0.3584  -0.3569  -0.3556  -0.3481  -0.3453  -0.3110  -0.2988
    -0.2980  -0.2683  -0.2662  -0.2569  -0.1458  -0.1431  -0.0426   0.3727
     0.3733   0.3766   0.3774   0.4385   0.4435   0.8254   0.8266   0.8681
     0.8693   0.9827   1.0599   1.1703   1.1724   1.3925   1.3996   2.0224
     2.0256   2.1852   2.1870   2.3193   2.3219   2.4221   2.4225   2.5765
     2.8141   2.8242   2.9391   3.1631   3.1654   3.2435   3.2459   3.3453
     3.3615   3.5598   3.5681   3.6165   3.8176   3.8198   3.8792   3.8840
     4.1376   4.1469   4.1478   4.3881   4.4270   4.4322   4.4757   4.8084
     4.8134   4.8413   4.9728   5.1465   5.1506   5.1982   5.2218   5.4832
     5.7965   5.9286   5.9352   5.9427   5.9464   6.0079   6.0126   6.0871
     6.1163   6.1401   6.1475   6.1759   6.1780   6.1992   6.2103   6.2323
     6.2384   6.4265   6.5766   6.6869   6.7553   6.7946   6.8784   6.8861
     6.8934   7.0045   7.0195

          k =-0.2500 0.4330-0.1111 (136853 PWs)   bands (ev):

   -18.8219  -6.7670  -6.3388  -5.9419  -5.9391  -5.2626  -4.9305  -4.9292
    -4.8922  -4.8883  -4.5301  -4.5289  -4.4313  -4.4305  -4.4167  -4.3946
    -4.3718  -4.2641  -4.2627  -4.2391  -4.1961  -4.1954  -4.1271  -4.1266
    -4.1202  -4.1197  -4.0986  -4.0945  -4.0909  -4.0250  -4.0187  -3.9911
    -3.9893  -3.9783  -3.9778  -3.9548  -3.9546  -3.9321  -3.9241  -3.9237
    -3.8974  -3.8454  -3.8448  -3.7977  -3.7957  -3.7391  -3.7382  -3.6840
    -3.6828  -3.6825  -3.6823  -3.6471  -3.6111  -3.6091  -3.6016  -3.6006
    -3.5995  -3.5715  -3.5689  -3.5611  -3.5007  -3.5002  -3.4916  -3.4728
    -3.4654  -3.3943  -3.3928  -3.3626  -3.3590  -3.3331  -3.3320  -3.3180
    -3.3017  -3.2444  -3.2417  -3.2244  -3.2239  -3.1778  -3.1708  -3.1677
    -3.1288  -3.1026  -3.0973  -3.0899  -3.0881  -3.0817  -3.0760  -3.0699
    -3.0676  -3.0585  -3.0173  -2.9800  -2.9778  -2.9678  -2.9646  -2.9414
    -2.9325  -2.9290  -2.9112  -2.9046  -2.8613  -2.8593  -2.8488  -2.8135
    -2.8066  -2.7954  -2.7943  -2.7663  -2.7634  -2.7358  -2.7000  -2.6955
    -2.6780  -2.6691  -2.6557  -2.6537  -2.6058  -2.6043  -2.5718  -2.5497
    -2.5485  -2.5257  -2.5244  -2.5134  -2.5128  -2.5029  -2.4812  -2.4798
    -2.4353  -2.4345  -2.4336  -2.4181  -2.4170  -2.4107  -2.4032  -2.4010
    -2.4000  -2.3990  -2.3927  -2.3824  -2.3807  -2.3725  -2.3464  -2.3434
    -2.3424  -2.3413  -2.3400  -2.3381  -2.3366  -2.3110  -2.3082  -2.2943
    -2.2923  -2.2750  -2.2744  -2.2656  -2.2651  -2.2635  -2.2624  -2.2455
    -2.2431  -2.2423  -2.2395  -2.2252  -2.1981  -2.1975  -2.1573  -2.1561
    -2.1333  -2.1321  -2.1053  -2.1038  -2.0780  -2.0759  -2.0599  -2.0549
    -2.0275  -2.0096  -2.0057  -2.0009  -1.9992  -1.9957  -1.9889  -1.9871
    -1.9619  -1.9562  -1.9481  -1.8905  -1.8867  -1.8844  -1.8824  -1.8808
    -1.8471  -1.8266  -1.8241  -1.7991  -1.7972  -1.7393  -1.7371  -1.7089
    -1.6905  -1.6889  -1.6294  -1.6282  -1.6185  -1.6155  -1.6060  -1.6049
    -1.6012  -1.5945  -1.5911  -1.5425  -1.5362  -1.5270  -1.5237  -1.5230
    -1.5075  -1.5032  -1.4698  -1.4686  -1.4528  -1.4519  -1.4499  -1.4432
    -1.4401  -1.4316  -1.4284  -1.4104  -1.4083  -1.3731  -1.3694  -1.3600
    -1.3554  -1.3370  -1.3215  -1.2816  -1.2790  -1.2547  -1.2492  -1.2476
    -1.2190  -1.1752  -1.1691  -1.1658  -1.1644  -1.1610  -1.1584  -1.1495
    -1.1332  -1.1304  -1.0941  -1.0898  -1.0688  -1.0592  -1.0560  -1.0533
    -1.0470  -1.0382  -1.0298  -1.0285  -1.0267  -1.0239  -1.0086  -0.9876
    -0.9858  -0.9846  -0.9657  -0.9547  -0.9524  -0.9389  -0.9234  -0.9174
    -0.8915  -0.8706  -0.8645  -0.8457  -0.8266  -0.8162  -0.8100  -0.8086
    -0.8034  -0.8018  -0.7993  -0.7926  -0.7874  -0.7740  -0.7632  -0.7606
    -0.7583  -0.7557  -0.7499  -0.7195  -0.7188  -0.7097  -0.6995  -0.6888
    -0.6851  -0.6758  -0.6696  -0.6173  -0.6144  -0.6076  -0.6067  -0.6045
    -0.6011  -0.5958  -0.5797  -0.5774  -0.5723  -0.5701  -0.5692  -0.5595
    -0.5292  -0.5281  -0.5265  -0.5187  -0.5168  -0.5119  -0.5109  -0.4970
    -0.4928  -0.4921  -0.4855  -0.4500  -0.4491  -0.4418  -0.4376  -0.4350
    -0.3620  -0.3584  -0.3570  -0.3559  -0.3480  -0.3460  -0.3111  -0.2989
    -0.2984  -0.2706  -0.2662  -0.2537  -0.1471  -0.1412  -0.0424   0.3728
     0.3733   0.3764   0.3774   0.4367   0.4459   0.8236   0.8277   0.8676
     0.8702   0.9832   1.0594   1.1663   1.1756   1.3885   1.4031   2.0216
     2.0269   2.1823   2.1903   2.3169   2.3246   2.4220   2.4226   2.5762
     2.8122   2.8261   2.9383   3.1585   3.1682   3.2436   3.2468   3.3443
     3.3615   3.5521   3.5749   3.6184   3.8174   3.8201   3.8809   3.8845
     4.1363   4.1431   4.1507   4.3889   4.4267   4.4316   4.4762   4.8077
     4.8151   4.8370   4.9755   5.1481   5.1507   5.1920   5.2282   5.4831
     5.8043   5.9271   5.9337   5.9401   5.9481   6.0071   6.0140   6.0886
     6.1183   6.1403   6.1469   6.1728   6.1830   6.1933   6.2117   6.2319
     6.2391   6.4302   6.5650   6.6886   6.7570   6.7890   6.8741   6.8877
     6.8935   7.0001   7.0323

          k = 0.2500-0.4330-0.1111 (136853 PWs)   bands (ev):

   -18.8219  -6.7670  -6.3388  -5.9419  -5.9391  -5.2626  -4.9305  -4.9292
    -4.8922  -4.8883  -4.5301  -4.5289  -4.4313  -4.4305  -4.4167  -4.3946
    -4.3718  -4.2641  -4.2627  -4.2391  -4.1961  -4.1954  -4.1271  -4.1266
    -4.1202  -4.1197  -4.0986  -4.0945  -4.0909  -4.0250  -4.0187  -3.9911
    -3.9893  -3.9783  -3.9778  -3.9548  -3.9546  -3.9321  -3.9241  -3.9237
    -3.8974  -3.8454  -3.8448  -3.7977  -3.7957  -3.7391  -3.7382  -3.6840
    -3.6828  -3.6825  -3.6823  -3.6471  -3.6111  -3.6091  -3.6016  -3.6006
    -3.5995  -3.5715  -3.5689  -3.5611  -3.5007  -3.5002  -3.4916  -3.4728
    -3.4654  -3.3943  -3.3928  -3.3626  -3.3590  -3.3331  -3.3320  -3.3180
    -3.3017  -3.2444  -3.2417  -3.2244  -3.2239  -3.1778  -3.1708  -3.1677
    -3.1288  -3.1026  -3.0973  -3.0899  -3.0881  -3.0817  -3.0760  -3.0699
    -3.0676  -3.0585  -3.0173  -2.9800  -2.9778  -2.9678  -2.9646  -2.9414
    -2.9325  -2.9290  -2.9112  -2.9046  -2.8613  -2.8593  -2.8488  -2.8135
    -2.8066  -2.7954  -2.7943  -2.7663  -2.7634  -2.7358  -2.7000  -2.6955
    -2.6780  -2.6691  -2.6557  -2.6537  -2.6058  -2.6043  -2.5718  -2.5497
    -2.5485  -2.5257  -2.5244  -2.5135  -2.5128  -2.5029  -2.4812  -2.4798
    -2.4353  -2.4345  -2.4336  -2.4181  -2.4170  -2.4107  -2.4032  -2.4010
    -2.4000  -2.3990  -2.3927  -2.3824  -2.3807  -2.3725  -2.3464  -2.3434
    -2.3424  -2.3413  -2.3400  -2.3381  -2.3366  -2.3110  -2.3082  -2.2943
    -2.2923  -2.2750  -2.2744  -2.2656  -2.2651  -2.2635  -2.2624  -2.2455
    -2.2431  -2.2423  -2.2395  -2.2252  -2.1981  -2.1975  -2.1573  -2.1561
    -2.1333  -2.1321  -2.1053  -2.1038  -2.0780  -2.0759  -2.0599  -2.0549
    -2.0275  -2.0096  -2.0057  -2.0009  -1.9992  -1.9957  -1.9889  -1.9871
    -1.9619  -1.9562  -1.9481  -1.8905  -1.8867  -1.8844  -1.8824  -1.8808
    -1.8471  -1.8266  -1.8241  -1.7991  -1.7972  -1.7393  -1.7371  -1.7089
    -1.6905  -1.6889  -1.6294  -1.6282  -1.6185  -1.6155  -1.6060  -1.6049
    -1.6012  -1.5945  -1.5911  -1.5425  -1.5362  -1.5270  -1.5237  -1.5230
    -1.5075  -1.5032  -1.4698  -1.4686  -1.4528  -1.4519  -1.4499  -1.4432
    -1.4401  -1.4316  -1.4284  -1.4104  -1.4083  -1.3731  -1.3694  -1.3600
    -1.3554  -1.3370  -1.3215  -1.2816  -1.2790  -1.2547  -1.2492  -1.2476
    -1.2190  -1.1752  -1.1691  -1.1658  -1.1644  -1.1610  -1.1584  -1.1495
    -1.1332  -1.1304  -1.0941  -1.0898  -1.0688  -1.0592  -1.0560  -1.0533
    -1.0470  -1.0382  -1.0298  -1.0285  -1.0267  -1.0239  -1.0086  -0.9876
    -0.9858  -0.9846  -0.9657  -0.9547  -0.9524  -0.9389  -0.9234  -0.9174
    -0.8915  -0.8706  -0.8645  -0.8457  -0.8266  -0.8162  -0.8100  -0.8086
    -0.8034  -0.8018  -0.7993  -0.7926  -0.7874  -0.7740  -0.7632  -0.7606
    -0.7583  -0.7557  -0.7499  -0.7195  -0.7188  -0.7097  -0.6995  -0.6888
    -0.6851  -0.6758  -0.6696  -0.6173  -0.6144  -0.6076  -0.6067  -0.6045
    -0.6011  -0.5958  -0.5797  -0.5774  -0.5723  -0.5701  -0.5692  -0.5595
    -0.5292  -0.5281  -0.5265  -0.5187  -0.5168  -0.5119  -0.5109  -0.4970
    -0.4928  -0.4921  -0.4855  -0.4500  -0.4491  -0.4418  -0.4376  -0.4350
    -0.3620  -0.3584  -0.3570  -0.3559  -0.3480  -0.3460  -0.3111  -0.2989
    -0.2984  -0.2706  -0.2662  -0.2537  -0.1471  -0.1412  -0.0424   0.3728
     0.3733   0.3764   0.3774   0.4367   0.4459   0.8236   0.8277   0.8676
     0.8702   0.9832   1.0594   1.1663   1.1756   1.3885   1.4031   2.0216
     2.0269   2.1823   2.1903   2.3169   2.3246   2.4220   2.4226   2.5762
     2.8122   2.8261   2.9383   3.1585   3.1682   3.2436   3.2468   3.3443
     3.3615   3.5521   3.5749   3.6184   3.8174   3.8201   3.8809   3.8845
     4.1363   4.1431   4.1507   4.3889   4.4267   4.4316   4.4762   4.8077
     4.8151   4.8370   4.9755   5.1481   5.1507   5.1920   5.2282   5.4831
     5.8050   5.9272   5.9337   5.9401   5.9482   6.0071   6.0141   6.0888
     6.1180   6.1387   6.1456   6.1728   6.1822   6.1936   6.2125   6.2319
     6.2390   6.4295   6.5642   6.7039   6.7563   6.7915   6.8741   6.8878
     6.8941   7.0000   7.0103

          k = 0.5000 0.0000 0.1111 (136853 PWs)   bands (ev):

   -18.8219  -6.7670  -6.3388  -5.9417  -5.9393  -5.2626  -4.9309  -4.9286
    -4.8925  -4.8881  -4.5305  -4.5285  -4.4311  -4.4308  -4.4166  -4.3945
    -4.3718  -4.2641  -4.2628  -4.2392  -4.1961  -4.1954  -4.1273  -4.1264
    -4.1209  -4.1191  -4.0986  -4.0949  -4.0906  -4.0257  -4.0180  -3.9917
    -3.9888  -3.9784  -3.9777  -3.9547  -3.9546  -3.9322  -3.9240  -3.9238
    -3.8974  -3.8453  -3.8449  -3.7982  -3.7953  -3.7391  -3.7382  -3.6834
    -3.6831  -3.6826  -3.6824  -3.6471  -3.6104  -3.6097  -3.6016  -3.6003
    -3.5997  -3.5713  -3.5687  -3.5614  -3.5008  -3.5002  -3.4916  -3.4727
    -3.4655  -3.3947  -3.3928  -3.3622  -3.3594  -3.3337  -3.3314  -3.3180
    -3.3015  -3.2442  -3.2419  -3.2252  -3.2233  -3.1799  -3.1690  -3.1681
    -3.1284  -3.1064  -3.0966  -3.0896  -3.0884  -3.0784  -3.0762  -3.0693
    -3.0676  -3.0587  -3.0168  -2.9801  -2.9776  -2.9672  -2.9645  -2.9395
    -2.9365  -2.9293  -2.9120  -2.9069  -2.8619  -2.8591  -2.8455  -2.8139
    -2.8067  -2.7955  -2.7941  -2.7661  -2.7593  -2.7360  -2.7001  -2.6961
    -2.6780  -2.6691  -2.6567  -2.6550  -2.6059  -2.6041  -2.5715  -2.5500
    -2.5490  -2.5252  -2.5240  -2.5134  -2.5125  -2.5031  -2.4804  -2.4799
    -2.4357  -2.4342  -2.4336  -2.4180  -2.4170  -2.4106  -2.4030  -2.4014
    -2.3996  -2.3986  -2.3928  -2.3835  -2.3802  -2.3750  -2.3467  -2.3432
    -2.3423  -2.3419  -2.3404  -2.3384  -2.3357  -2.3101  -2.3082  -2.2932
    -2.2922  -2.2749  -2.2744  -2.2660  -2.2649  -2.2642  -2.2611  -2.2457
    -2.2443  -2.2419  -2.2388  -2.2253  -2.1980  -2.1976  -2.1574  -2.1560
    -2.1333  -2.1324  -2.1054  -2.1044  -2.0774  -2.0757  -2.0592  -2.0550
    -2.0281  -2.0100  -2.0057  -2.0008  -1.9993  -1.9953  -1.9890  -1.9869
    -1.9623  -1.9557  -1.9481  -1.8910  -1.8872  -1.8848  -1.8822  -1.8801
    -1.8489  -1.8267  -1.8240  -1.7991  -1.7971  -1.7394  -1.7368  -1.7091
    -1.6901  -1.6889  -1.6300  -1.6275  -1.6184  -1.6156  -1.6065  -1.6044
    -1.6011  -1.5943  -1.5909  -1.5399  -1.5347  -1.5292  -1.5234  -1.5227
    -1.5061  -1.5023  -1.4726  -1.4687  -1.4521  -1.4513  -1.4505  -1.4436
    -1.4415  -1.4323  -1.4281  -1.4097  -1.4093  -1.3725  -1.3695  -1.3579
    -1.3547  -1.3367  -1.3216  -1.2840  -1.2784  -1.2556  -1.2502  -1.2481
    -1.2187  -1.1743  -1.1686  -1.1659  -1.1647  -1.1614  -1.1583  -1.1497
    -1.1334  -1.1305  -1.0946  -1.0893  -1.0701  -1.0594  -1.0550  -1.0534
    -1.0474  -1.0389  -1.0311  -1.0283  -1.0262  -1.0248  -1.0054  -0.9866
    -0.9857  -0.9844  -0.9636  -0.9545  -0.9499  -0.9410  -0.9229  -0.9168
    -0.8940  -0.8711  -0.8641  -0.8472  -0.8262  -0.8171  -0.8116  -0.8087
    -0.8026  -0.8016  -0.7993  -0.7945  -0.7880  -0.7718  -0.7638  -0.7601
    -0.7582  -0.7568  -0.7475  -0.7196  -0.7185  -0.7090  -0.7031  -0.6893
    -0.6852  -0.6747  -0.6673  -0.6172  -0.6140  -0.6078  -0.6063  -0.6049
    -0.6017  -0.5963  -0.5800  -0.5772  -0.5717  -0.5707  -0.5687  -0.5610
    -0.5303  -0.5273  -0.5264  -0.5185  -0.5170  -0.5128  -0.5111  -0.4983
    -0.4933  -0.4918  -0.4826  -0.4500  -0.4495  -0.4418  -0.4371  -0.4362
    -0.3613  -0.3589  -0.3569  -0.3554  -0.3476  -0.3460  -0.3109  -0.2986
    -0.2984  -0.2690  -0.2662  -0.2563  -0.1449  -0.1420  -0.0416   0.3727
     0.3733   0.3766   0.3773   0.4376   0.4436   0.8235   0.8275   0.8678
     0.8699   0.9834   1.0603   1.1671   1.1762   1.3878   1.4038   2.0217
     2.0261   2.1831   2.1896   2.3166   2.3248   2.4215   2.4231   2.5763
     2.8126   2.8261   2.9381   3.1579   3.1687   3.2432   3.2470   3.3436
     3.3616   3.5481   3.5788   3.6163   3.8176   3.8201   3.8814   3.8850
     4.1370   4.1435   4.1502   4.3886   4.4277   4.4327   4.4749   4.8067
     4.8143   4.8406   4.9763   5.1483   5.1508   5.1892   5.2323   5.4891
     5.7863   5.9316   5.9369   5.9453   5.9494   6.0066   6.0125   6.0855
     6.1201   6.1249   6.1481   6.1736   6.1801   6.1902   6.2142   6.2340
     6.2416   6.4252   6.5806   6.6925   6.7548   6.8083   6.8808   6.8858
     6.8898   6.9980   7.0141

          k =-0.5000 0.0000 0.1111 (136853 PWs)   bands (ev):

   -18.8219  -6.7670  -6.3388  -5.9417  -5.9393  -5.2626  -4.9309  -4.9286
    -4.8925  -4.8881  -4.5305  -4.5285  -4.4311  -4.4308  -4.4166  -4.3945
    -4.3718  -4.2641  -4.2628  -4.2392  -4.1961  -4.1954  -4.1273  -4.1264
    -4.1209  -4.1191  -4.0986  -4.0949  -4.0906  -4.0257  -4.0180  -3.9917
    -3.9888  -3.9784  -3.9777  -3.9547  -3.9546  -3.9322  -3.9240  -3.9238
    -3.8974  -3.8453  -3.8449  -3.7982  -3.7953  -3.7391  -3.7382  -3.6834
    -3.6831  -3.6826  -3.6824  -3.6471  -3.6104  -3.6097  -3.6016  -3.6003
    -3.5997  -3.5713  -3.5687  -3.5614  -3.5008  -3.5002  -3.4916  -3.4727
    -3.4655  -3.3947  -3.3928  -3.3622  -3.3594  -3.3337  -3.3314  -3.3180
    -3.3015  -3.2442  -3.2419  -3.2252  -3.2233  -3.1799  -3.1690  -3.1681
    -3.1284  -3.1064  -3.0966  -3.0896  -3.0884  -3.0784  -3.0762  -3.0693
    -3.0676  -3.0587  -3.0168  -2.9801  -2.9776  -2.9672  -2.9645  -2.9395
    -2.9365  -2.9293  -2.9120  -2.9069  -2.8619  -2.8591  -2.8455  -2.8139
    -2.8067  -2.7955  -2.7941  -2.7661  -2.7593  -2.7360  -2.7001  -2.6961
    -2.6780  -2.6691  -2.6567  -2.6550  -2.6059  -2.6041  -2.5715  -2.5500
    -2.5490  -2.5252  -2.5240  -2.5134  -2.5125  -2.5031  -2.4804  -2.4799
    -2.4357  -2.4342  -2.4336  -2.4180  -2.4170  -2.4106  -2.4030  -2.4014
    -2.3996  -2.3986  -2.3928  -2.3835  -2.3802  -2.3750  -2.3467  -2.3432
    -2.3423  -2.3419  -2.3404  -2.3384  -2.3357  -2.3101  -2.3082  -2.2932
    -2.2922  -2.2749  -2.2744  -2.2660  -2.2649  -2.2642  -2.2611  -2.2457
    -2.2443  -2.2419  -2.2388  -2.2253  -2.1980  -2.1976  -2.1574  -2.1560
    -2.1333  -2.1324  -2.1054  -2.1044  -2.0774  -2.0757  -2.0592  -2.0550
    -2.0281  -2.0100  -2.0057  -2.0008  -1.9993  -1.9953  -1.9890  -1.9869
    -1.9623  -1.9557  -1.9481  -1.8910  -1.8872  -1.8848  -1.8822  -1.8801
    -1.8489  -1.8267  -1.8240  -1.7991  -1.7971  -1.7394  -1.7368  -1.7091
    -1.6901  -1.6889  -1.6300  -1.6275  -1.6184  -1.6156  -1.6065  -1.6044
    -1.6011  -1.5943  -1.5909  -1.5399  -1.5347  -1.5292  -1.5234  -1.5227
    -1.5061  -1.5023  -1.4726  -1.4687  -1.4521  -1.4513  -1.4505  -1.4436
    -1.4415  -1.4323  -1.4281  -1.4097  -1.4093  -1.3725  -1.3695  -1.3579
    -1.3547  -1.3367  -1.3216  -1.2840  -1.2784  -1.2556  -1.2502  -1.2481
    -1.2187  -1.1743  -1.1686  -1.1659  -1.1646  -1.1614  -1.1583  -1.1497
    -1.1334  -1.1305  -1.0946  -1.0893  -1.0701  -1.0594  -1.0550  -1.0534
    -1.0474  -1.0389  -1.0311  -1.0283  -1.0262  -1.0248  -1.0054  -0.9866
    -0.9857  -0.9844  -0.9636  -0.9545  -0.9499  -0.9410  -0.9229  -0.9168
    -0.8940  -0.8711  -0.8641  -0.8472  -0.8262  -0.8171  -0.8116  -0.8087
    -0.8026  -0.8016  -0.7993  -0.7945  -0.7880  -0.7717  -0.7638  -0.7601
    -0.7582  -0.7568  -0.7475  -0.7196  -0.7185  -0.7090  -0.7031  -0.6893
    -0.6852  -0.6747  -0.6673  -0.6172  -0.6140  -0.6078  -0.6063  -0.6049
    -0.6017  -0.5963  -0.5800  -0.5772  -0.5717  -0.5707  -0.5687  -0.5610
    -0.5303  -0.5273  -0.5264  -0.5185  -0.5170  -0.5128  -0.5111  -0.4983
    -0.4933  -0.4918  -0.4826  -0.4500  -0.4495  -0.4418  -0.4371  -0.4362
    -0.3613  -0.3589  -0.3569  -0.3554  -0.3476  -0.3460  -0.3109  -0.2986
    -0.2984  -0.2690  -0.2662  -0.2563  -0.1449  -0.1420  -0.0416   0.3727
     0.3733   0.3766   0.3773   0.4376   0.4436   0.8235   0.8275   0.8678
     0.8699   0.9834   1.0603   1.1671   1.1762   1.3878   1.4038   2.0217
     2.0261   2.1831   2.1896   2.3166   2.3248   2.4215   2.4231   2.5763
     2.8126   2.8261   2.9381   3.1579   3.1687   3.2432   3.2470   3.3436
     3.3616   3.5481   3.5788   3.6163   3.8176   3.8201   3.8814   3.8850
     4.1370   4.1435   4.1502   4.3886   4.4277   4.4327   4.4749   4.8067
     4.8143   4.8406   4.9763   5.1483   5.1508   5.1892   5.2323   5.4892
     5.7859   5.9316   5.9369   5.9453   5.9494   6.0066   6.0125   6.0853
     6.1198   6.1263   6.1480   6.1735   6.1801   6.1898   6.2143   6.2340
     6.2415   6.4257   6.5802   6.6888   6.7564   6.8112   6.8814   6.8862
     6.8898   6.9996   7.0144

          k =-0.2500 0.1443 0.1111 (136898 PWs)   bands (ev):

   -18.8219  -6.7687  -6.5466  -5.7580  -5.4662  -5.4083  -5.4076  -4.8699
    -4.8696  -4.7379  -4.7376  -4.5827  -4.5536  -4.4902  -4.4572  -4.4559
    -4.4232  -4.4231  -4.2946  -4.2531  -4.2526  -4.1930  -4.1720  -4.1717
    -4.0695  -4.0693  -4.0331  -4.0329  -4.0329  -4.0064  -3.9845  -3.9843
    -3.8811  -3.8776  -3.8770  -3.8571  -3.8399  -3.8396  -3.8280  -3.8273
    -3.8151  -3.7843  -3.7842  -3.7834  -3.7832  -3.7519  -3.7510  -3.7332
    -3.7330  -3.7216  -3.6791  -3.6766  -3.6453  -3.6317  -3.6298  -3.6246
    -3.6244  -3.5503  -3.5500  -3.5166  -3.5134  -3.5121  -3.4449  -3.4444
    -3.4292  -3.4289  -3.3999  -3.3988  -3.3978  -3.3972  -3.2442  -3.2431
    -3.2259  -3.2189  -3.2141  -3.1973  -3.1967  -3.1721  -3.1710  -3.1212
    -3.1211  -3.1058  -3.1047  -3.0844  -3.0450  -3.0361  -3.0176  -3.0128
    -3.0113  -2.9772  -2.9706  -2.9654  -2.9625  -2.9494  -2.9468  -2.9235
    -2.9077  -2.9068  -2.8852  -2.8830  -2.8821  -2.8783  -2.8683  -2.8030
    -2.8011  -2.7996  -2.7713  -2.7705  -2.7095  -2.7041  -2.6811  -2.6800
    -2.6674  -2.6664  -2.6604  -2.6319  -2.6305  -2.6215  -2.6048  -2.5805
    -2.5784  -2.5768  -2.5581  -2.5571  -2.5466  -2.5456  -2.5439  -2.5414
    -2.5335  -2.4878  -2.4567  -2.4555  -2.4405  -2.4268  -2.4209  -2.4196
    -2.4131  -2.4118  -2.4100  -2.3811  -2.3807  -2.3795  -2.3710  -2.3700
    -2.3543  -2.3278  -2.3261  -2.3257  -2.3245  -2.3240  -2.2781  -2.2484
    -2.2475  -2.2462  -2.2403  -2.2305  -2.2194  -2.2180  -2.2012  -2.2008
    -2.1706  -2.1667  -2.1661  -2.1487  -2.1477  -2.1457  -2.1156  -2.1130
    -2.0749  -2.0700  -2.0654  -2.0629  -2.0620  -2.0568  -2.0557  -2.0532
    -2.0522  -2.0490  -2.0446  -2.0310  -2.0284  -1.9054  -1.9009  -1.8728
    -1.8651  -1.8622  -1.8566  -1.8563  -1.8415  -1.8396  -1.8382  -1.8361
    -1.8342  -1.8116  -1.8073  -1.8034  -1.7999  -1.7937  -1.7902  -1.7689
    -1.7683  -1.7396  -1.7394  -1.7113  -1.7083  -1.6978  -1.6898  -1.6725
    -1.6708  -1.6680  -1.6506  -1.6374  -1.6368  -1.6303  -1.6296  -1.6049
    -1.6034  -1.5882  -1.5856  -1.5545  -1.5535  -1.5453  -1.4967  -1.4929
    -1.4845  -1.4794  -1.4786  -1.4536  -1.4512  -1.4197  -1.4185  -1.4170
    -1.3887  -1.3753  -1.3734  -1.3579  -1.3568  -1.3338  -1.3306  -1.3298
    -1.3005  -1.2974  -1.2971  -1.2358  -1.2335  -1.2236  -1.2207  -1.2069
    -1.2043  -1.1931  -1.1917  -1.1737  -1.1609  -1.1435  -1.1320  -1.1228
    -1.1084  -1.0863  -1.0828  -1.0743  -1.0706  -1.0698  -1.0665  -1.0642
    -1.0491  -1.0273  -1.0205  -1.0191  -1.0086  -1.0062  -1.0054  -0.9840
    -0.9767  -0.9641  -0.9474  -0.9420  -0.8788  -0.8464  -0.8374  -0.8316
    -0.8306  -0.8271  -0.8209  -0.8121  -0.7974  -0.7859  -0.7805  -0.7689
    -0.7661  -0.7582  -0.7537  -0.7372  -0.7348  -0.7264  -0.7180  -0.6536
    -0.6525  -0.6198  -0.6154  -0.6142  -0.6081  -0.6058  -0.6054  -0.6016
    -0.5924  -0.5867  -0.5679  -0.5509  -0.5318  -0.5184  -0.5169  -0.5060
    -0.5032  -0.4945  -0.4928  -0.4916  -0.4900  -0.4853  -0.4733  -0.4684
    -0.4659  -0.4383  -0.4355  -0.4340  -0.4232  -0.4232  -0.4041  -0.3723
    -0.3710  -0.3629  -0.3606  -0.2950  -0.2940  -0.2586  -0.2576  -0.2004
    -0.1994  -0.1982  -0.1809  -0.1725   0.0538   0.0655   0.4017   0.4018
     0.4916   0.5015   0.6892   0.7086   0.7194   0.8483   0.8515   1.2817
     1.2823   1.3000   1.5611   1.5919   1.5924   1.8672   1.8784   1.9462
     1.9482   1.9726   1.9812   2.2022   2.2047   2.2929   2.2937   2.3702
     2.4303   2.4420   2.5964   2.6958   3.1322   3.1351   3.1386   3.1402
     3.1904   3.1950   3.4853   3.4866   3.7642   3.7731   3.8770   4.1822
     4.2203   4.2273   4.4348   4.4674   4.5232   4.5264   4.6163   4.7344
     4.7372   4.8518   4.8534   5.1543   5.2222   5.2264   5.3305   5.4152
     5.4384   5.6091   5.6145   5.6391   5.6418   5.6999   5.7045   5.7460
     5.8470   6.0639   6.2744   6.3066   6.3605   6.4396   6.4456   6.4583
     6.4611   6.5323   6.6456   6.6959   6.7042   6.8448   6.9166   6.9310
     6.9546   7.0229   7.0732

          k =-0.2500-0.1443-0.1111 (136898 PWs)   bands (ev):

   -18.8219  -6.7687  -6.5466  -5.7581  -5.4662  -5.4083  -5.4076  -4.8698
    -4.8696  -4.7385  -4.7371  -4.5827  -4.5536  -4.4903  -4.4572  -4.4559
    -4.4235  -4.4227  -4.2946  -4.2532  -4.2525  -4.1929  -4.1721  -4.1717
    -4.0694  -4.0693  -4.0332  -4.0330  -4.0328  -4.0064  -3.9849  -3.9839
    -3.8808  -3.8776  -3.8772  -3.8569  -3.8399  -3.8396  -3.8281  -3.8274
    -3.8149  -3.7845  -3.7841  -3.7834  -3.7831  -3.7517  -3.7514  -3.7332
    -3.7329  -3.7209  -3.6797  -3.6767  -3.6455  -3.6318  -3.6299  -3.6246
    -3.6244  -3.5503  -3.5501  -3.5161  -3.5133  -3.5121  -3.4451  -3.4446
    -3.4291  -3.4287  -3.3999  -3.3988  -3.3980  -3.3977  -3.2446  -3.2431
    -3.2251  -3.2190  -3.2147  -3.1973  -3.1967  -3.1718  -3.1709  -3.1219
    -3.1209  -3.1067  -3.1045  -3.0843  -3.0441  -3.0359  -3.0187  -3.0128
    -3.0113  -2.9774  -2.9705  -2.9645  -2.9627  -2.9521  -2.9467  -2.9185
    -2.9074  -2.9054  -2.8857  -2.8831  -2.8821  -2.8790  -2.8714  -2.8026
    -2.8010  -2.7985  -2.7714  -2.7705  -2.7103  -2.7055  -2.6808  -2.6792
    -2.6672  -2.6664  -2.6604  -2.6321  -2.6305  -2.6215  -2.6043  -2.5805
    -2.5784  -2.5765  -2.5581  -2.5569  -2.5470  -2.5453  -2.5438  -2.5416
    -2.5336  -2.4877  -2.4568  -2.4559  -2.4404  -2.4270  -2.4209  -2.4195
    -2.4129  -2.4119  -2.4102  -2.3816  -2.3804  -2.3796  -2.3705  -2.3703
    -2.3542  -2.3275  -2.3262  -2.3259  -2.3242  -2.3238  -2.2783  -2.2485
    -2.2474  -2.2464  -2.2403  -2.2306  -2.2195  -2.2180  -2.2009  -2.2008
    -2.1704  -2.1666  -2.1662  -2.1488  -2.1480  -2.1460  -2.1156  -2.1128
    -2.0749  -2.0700  -2.0654  -2.0630  -2.0619  -2.0570  -2.0559  -2.0535
    -2.0526  -2.0480  -2.0446  -2.0308  -2.0285  -1.9054  -1.9012  -1.8701
    -1.8652  -1.8622  -1.8565  -1.8562  -1.8429  -1.8401  -1.8375  -1.8361
    -1.8343  -1.8115  -1.8073  -1.8042  -1.7997  -1.7927  -1.7903  -1.7693
    -1.7685  -1.7401  -1.7398  -1.7105  -1.7088  -1.6975  -1.6897  -1.6721
    -1.6706  -1.6677  -1.6507  -1.6374  -1.6371  -1.6301  -1.6296  -1.6043
    -1.6033  -1.5882  -1.5857  -1.5564  -1.5528  -1.5453  -1.4953  -1.4937
    -1.4826  -1.4797  -1.4784  -1.4537  -1.4510  -1.4213  -1.4191  -1.4172
    -1.3873  -1.3754  -1.3730  -1.3578  -1.3566  -1.3370  -1.3304  -1.3294
    -1.3002  -1.2973  -1.2969  -1.2367  -1.2337  -1.2245  -1.2205  -1.2080
    -1.2044  -1.1932  -1.1916  -1.1731  -1.1607  -1.1364  -1.1328  -1.1261
    -1.1067  -1.0863  -1.0820  -1.0725  -1.0710  -1.0703  -1.0654  -1.0638
    -1.0491  -1.0350  -1.0204  -1.0190  -1.0079  -1.0060  -1.0049  -0.9841
    -0.9764  -0.9630  -0.9486  -0.9414  -0.8811  -0.8469  -0.8367  -0.8316
    -0.8308  -0.8232  -0.8212  -0.8120  -0.7973  -0.7849  -0.7801  -0.7745
    -0.7660  -0.7589  -0.7545  -0.7376  -0.7339  -0.7262  -0.7159  -0.6530
    -0.6525  -0.6186  -0.6152  -0.6136  -0.6075  -0.6058  -0.6057  -0.6007
    -0.5930  -0.5873  -0.5672  -0.5508  -0.5365  -0.5174  -0.5169  -0.5060
    -0.5036  -0.4938  -0.4928  -0.4916  -0.4901  -0.4858  -0.4731  -0.4685
    -0.4652  -0.4381  -0.4358  -0.4345  -0.4235  -0.4219  -0.4041  -0.3723
    -0.3715  -0.3627  -0.3620  -0.2951  -0.2929  -0.2584  -0.2577  -0.2000
    -0.1994  -0.1985  -0.1799  -0.1725   0.0560   0.0616   0.4016   0.4018
     0.4939   0.4994   0.6871   0.7086   0.7221   0.8491   0.8507   1.2819
     1.2823   1.2995   1.5623   1.5916   1.5924   1.8694   1.8753   1.9467
     1.9479   1.9750   1.9792   2.2033   2.2041   2.2927   2.2936   2.3706
     2.4322   2.4388   2.5966   2.6969   3.1308   3.1351   3.1384   3.1405
     3.1923   3.1940   3.4852   3.4863   3.7665   3.7713   3.8771   4.1824
     4.2225   4.2261   4.4381   4.4622   4.5233   4.5281   4.6165   4.7342
     4.7367   4.8501   4.8534   5.1536   5.2195   5.2282   5.3337   5.4102
     5.4409   5.6120   5.6144   5.6380   5.6415   5.6967   5.7052   5.7440
     5.8492   6.0569   6.2781   6.3081   6.3688   6.4437   6.4473   6.4548
     6.4608   6.5297   6.6398   6.6936   6.7020   6.8400   6.9178   6.9419
     6.9525   7.0195   7.0803

          k = 0.2500 0.1443-0.1111 (136898 PWs)   bands (ev):

   -18.8219  -6.7687  -6.5466  -5.7581  -5.4662  -5.4083  -5.4076  -4.8698
    -4.8696  -4.7385  -4.7372  -4.5827  -4.5536  -4.4902  -4.4572  -4.4559
    -4.4235  -4.4227  -4.2946  -4.2532  -4.2525  -4.1929  -4.1721  -4.1717
    -4.0694  -4.0693  -4.0332  -4.0330  -4.0328  -4.0064  -3.9849  -3.9839
    -3.8808  -3.8776  -3.8772  -3.8569  -3.8399  -3.8396  -3.8281  -3.8274
    -3.8149  -3.7845  -3.7841  -3.7834  -3.7831  -3.7517  -3.7514  -3.7332
    -3.7329  -3.7209  -3.6797  -3.6767  -3.6455  -3.6318  -3.6299  -3.6246
    -3.6244  -3.5503  -3.5501  -3.5161  -3.5133  -3.5121  -3.4451  -3.4446
    -3.4291  -3.4287  -3.3999  -3.3988  -3.3980  -3.3977  -3.2446  -3.2431
    -3.2251  -3.2190  -3.2147  -3.1973  -3.1967  -3.1718  -3.1709  -3.1219
    -3.1209  -3.1067  -3.1045  -3.0843  -3.0441  -3.0359  -3.0187  -3.0128
    -3.0113  -2.9774  -2.9705  -2.9645  -2.9627  -2.9520  -2.9467  -2.9185
    -2.9074  -2.9054  -2.8857  -2.8831  -2.8821  -2.8790  -2.8714  -2.8026
    -2.8010  -2.7985  -2.7714  -2.7705  -2.7103  -2.7055  -2.6808  -2.6792
    -2.6672  -2.6664  -2.6605  -2.6321  -2.6305  -2.6215  -2.6043  -2.5805
    -2.5784  -2.5765  -2.5581  -2.5569  -2.5470  -2.5453  -2.5438  -2.5416
    -2.5335  -2.4877  -2.4568  -2.4559  -2.4404  -2.4270  -2.4209  -2.4195
    -2.4129  -2.4119  -2.4102  -2.3816  -2.3804  -2.3796  -2.3705  -2.3703
    -2.3542  -2.3275  -2.3262  -2.3259  -2.3242  -2.3238  -2.2783  -2.2485
    -2.2474  -2.2464  -2.2403  -2.2306  -2.2195  -2.2180  -2.2009  -2.2008
    -2.1704  -2.1666  -2.1661  -2.1488  -2.1480  -2.1460  -2.1156  -2.1128
    -2.0749  -2.0700  -2.0654  -2.0630  -2.0619  -2.0570  -2.0559  -2.0535
    -2.0526  -2.0480  -2.0446  -2.0308  -2.0285  -1.9054  -1.9013  -1.8701
    -1.8652  -1.8622  -1.8565  -1.8562  -1.8429  -1.8401  -1.8375  -1.8361
    -1.8343  -1.8115  -1.8073  -1.8042  -1.7997  -1.7927  -1.7903  -1.7693
    -1.7685  -1.7401  -1.7398  -1.7105  -1.7088  -1.6975  -1.6897  -1.6721
    -1.6706  -1.6677  -1.6507  -1.6374  -1.6371  -1.6301  -1.6296  -1.6043
    -1.6033  -1.5882  -1.5857  -1.5564  -1.5528  -1.5453  -1.4953  -1.4937
    -1.4826  -1.4797  -1.4784  -1.4537  -1.4510  -1.4213  -1.4191  -1.4172
    -1.3873  -1.3754  -1.3730  -1.3578  -1.3566  -1.3370  -1.3304  -1.3294
    -1.3002  -1.2973  -1.2969  -1.2367  -1.2337  -1.2245  -1.2205  -1.2080
    -1.2044  -1.1932  -1.1916  -1.1731  -1.1607  -1.1364  -1.1328  -1.1261
    -1.1067  -1.0863  -1.0820  -1.0725  -1.0710  -1.0703  -1.0654  -1.0638
    -1.0491  -1.0350  -1.0204  -1.0190  -1.0079  -1.0060  -1.0049  -0.9841
    -0.9764  -0.9630  -0.9486  -0.9414  -0.8811  -0.8469  -0.8367  -0.8316
    -0.8308  -0.8232  -0.8212  -0.8120  -0.7973  -0.7849  -0.7801  -0.7745
    -0.7660  -0.7589  -0.7545  -0.7376  -0.7339  -0.7261  -0.7159  -0.6530
    -0.6525  -0.6187  -0.6152  -0.6136  -0.6075  -0.6058  -0.6057  -0.6007
    -0.5930  -0.5873  -0.5672  -0.5508  -0.5365  -0.5174  -0.5169  -0.5060
    -0.5036  -0.4937  -0.4928  -0.4916  -0.4901  -0.4858  -0.4731  -0.4685
    -0.4652  -0.4381  -0.4358  -0.4345  -0.4235  -0.4219  -0.4041  -0.3723
    -0.3715  -0.3627  -0.3620  -0.2951  -0.2929  -0.2584  -0.2577  -0.2000
    -0.1994  -0.1985  -0.1799  -0.1725   0.0560   0.0616   0.4016   0.4018
     0.4939   0.4994   0.6871   0.7086   0.7221   0.8491   0.8507   1.2819
     1.2823   1.2995   1.5623   1.5916   1.5924   1.8694   1.8753   1.9467
     1.9479   1.9750   1.9792   2.2033   2.2041   2.2927   2.2936   2.3706
     2.4322   2.4388   2.5966   2.6969   3.1308   3.1351   3.1384   3.1405
     3.1923   3.1940   3.4852   3.4863   3.7665   3.7713   3.8771   4.1824
     4.2225   4.2261   4.4381   4.4622   4.5233   4.5281   4.6165   4.7342
     4.7368   4.8501   4.8533   5.1536   5.2195   5.2282   5.3336   5.4101
     5.4411   5.6120   5.6144   5.6380   5.6415   5.6967   5.7052   5.7444
     5.8472   6.0601   6.2793   6.3084   6.3686   6.4436   6.4475   6.4546
     6.4608   6.5239   6.6356   6.6922   6.7019   6.8430   6.9197   6.9417
     6.9527   7.0221   7.0858

          k = 0.0000-0.2887 0.1111 (136898 PWs)   bands (ev):

   -18.8219  -6.7687  -6.5466  -5.7581  -5.4662  -5.4082  -5.4077  -4.8698
    -4.8696  -4.7380  -4.7376  -4.5827  -4.5536  -4.4903  -4.4567  -4.4563
    -4.4232  -4.4230  -4.2946  -4.2532  -4.2525  -4.1928  -4.1720  -4.1719
    -4.0696  -4.0692  -4.0332  -4.0329  -4.0328  -4.0064  -3.9845  -3.9843
    -3.8810  -3.8776  -3.8769  -3.8570  -3.8399  -3.8396  -3.8280  -3.8274
    -3.8148  -3.7846  -3.7841  -3.7835  -3.7830  -3.7520  -3.7512  -3.7334
    -3.7328  -3.7211  -3.6785  -3.6777  -3.6455  -3.6315  -3.6298  -3.6246
    -3.6243  -3.5503  -3.5501  -3.5162  -3.5129  -3.5125  -3.4454  -3.4445
    -3.4293  -3.4287  -3.3997  -3.3987  -3.3981  -3.3976  -3.2445  -3.2431
    -3.2231  -3.2196  -3.2157  -3.1971  -3.1967  -3.1719  -3.1710  -3.1216
    -3.1210  -3.1073  -3.1045  -3.0846  -3.0385  -3.0370  -3.0232  -3.0125
    -3.0111  -2.9761  -2.9706  -2.9638  -2.9628  -2.9579  -2.9463  -2.9125
    -2.9072  -2.9025  -2.8863  -2.8842  -2.8820  -2.8818  -2.8743  -2.8025
    -2.8010  -2.7959  -2.7712  -2.7707  -2.7115  -2.7075  -2.6808  -2.6778
    -2.6670  -2.6666  -2.6604  -2.6324  -2.6308  -2.6215  -2.6037  -2.5797
    -2.5791  -2.5760  -2.5579  -2.5573  -2.5466  -2.5452  -2.5432  -2.5418
    -2.5336  -2.4877  -2.4568  -2.4564  -2.4400  -2.4270  -2.4211  -2.4196
    -2.4131  -2.4117  -2.4103  -2.3818  -2.3811  -2.3798  -2.3710  -2.3698
    -2.3541  -2.3271  -2.3263  -2.3253  -2.3243  -2.3238  -2.2783  -2.2489
    -2.2470  -2.2464  -2.2402  -2.2306  -2.2216  -2.2177  -2.2010  -2.2008
    -2.1704  -2.1664  -2.1661  -2.1489  -2.1476  -2.1468  -2.1144  -2.1133
    -2.0749  -2.0700  -2.0651  -2.0631  -2.0620  -2.0575  -2.0558  -2.0539
    -2.0523  -2.0469  -2.0458  -2.0298  -2.0288  -1.9049  -1.9022  -1.8687
    -1.8643  -1.8634  -1.8567  -1.8564  -1.8429  -1.8408  -1.8366  -1.8358
    -1.8337  -1.8117  -1.8076  -1.8044  -1.8000  -1.7920  -1.7907  -1.7699
    -1.7688  -1.7411  -1.7401  -1.7093  -1.7077  -1.6977  -1.6890  -1.6719
    -1.6707  -1.6678  -1.6505  -1.6382  -1.6370  -1.6303  -1.6297  -1.6037
    -1.6030  -1.5886  -1.5864  -1.5571  -1.5540  -1.5435  -1.4953  -1.4945
    -1.4819  -1.4799  -1.4790  -1.4539  -1.4509  -1.4210  -1.4191  -1.4173
    -1.3852  -1.3757  -1.3744  -1.3576  -1.3566  -1.3344  -1.3313  -1.3292
    -1.3012  -1.2973  -1.2967  -1.2373  -1.2339  -1.2237  -1.2219  -1.2072
    -1.2049  -1.1928  -1.1914  -1.1734  -1.1609  -1.1362  -1.1329  -1.1240
    -1.1050  -1.0861  -1.0833  -1.0723  -1.0708  -1.0702  -1.0665  -1.0643
    -1.0491  -1.0383  -1.0212  -1.0191  -1.0084  -1.0063  -1.0051  -0.9845
    -0.9733  -0.9645  -0.9476  -0.9416  -0.8767  -0.8462  -0.8368  -0.8316
    -0.8308  -0.8248  -0.8217  -0.8089  -0.7975  -0.7872  -0.7815  -0.7719
    -0.7661  -0.7599  -0.7549  -0.7369  -0.7351  -0.7264  -0.7160  -0.6537
    -0.6523  -0.6196  -0.6153  -0.6138  -0.6078  -0.6066  -0.6056  -0.6012
    -0.5932  -0.5854  -0.5677  -0.5508  -0.5350  -0.5186  -0.5162  -0.5060
    -0.5039  -0.4945  -0.4923  -0.4912  -0.4896  -0.4852  -0.4730  -0.4684
    -0.4658  -0.4381  -0.4356  -0.4337  -0.4232  -0.4229  -0.4041  -0.3721
    -0.3712  -0.3628  -0.3612  -0.2951  -0.2938  -0.2584  -0.2577  -0.2004
    -0.1994  -0.1982  -0.1817  -0.1724   0.0547   0.0655   0.4016   0.4018
     0.4929   0.5006   0.6862   0.7104   0.7196   0.8486   0.8508   1.2817
     1.2826   1.2993   1.5619   1.5920   1.5924   1.8688   1.8759   1.9464
     1.9486   1.9744   1.9796   2.2030   2.2047   2.2927   2.2937   2.3710
     2.4318   2.4388   2.5959   2.6969   3.1302   3.1362   3.1384   3.1404
     3.1921   3.1950   3.4856   3.4868   3.7668   3.7715   3.8775   4.1817
     4.2219   4.2261   4.4414   4.4574   4.5211   4.5271   4.6185   4.7316
     4.7372   4.8526   4.8538   5.1553   5.2176   5.2262   5.3418   5.4017
     5.4370   5.6073   5.6144   5.6394   5.6416   5.6982   5.7060   5.7502
     5.8498   6.0760   6.2758   6.3076   6.3456   6.4414   6.4475   6.4586
     6.4608   6.5226   6.6436   6.6907   6.7017   6.8597   6.9050   6.9461
     6.9484   7.0205   7.0717

          k = 0.0000 0.2887 0.1111 (136898 PWs)   bands (ev):

   -18.8219  -6.7687  -6.5466  -5.7581  -5.4662  -5.4082  -5.4077  -4.8698
    -4.8696  -4.7380  -4.7376  -4.5827  -4.5536  -4.4903  -4.4567  -4.4563
    -4.4232  -4.4230  -4.2946  -4.2532  -4.2525  -4.1928  -4.1720  -4.1719
    -4.0696  -4.0692  -4.0332  -4.0329  -4.0328  -4.0064  -3.9845  -3.9843
    -3.8810  -3.8776  -3.8769  -3.8570  -3.8399  -3.8396  -3.8280  -3.8274
    -3.8148  -3.7846  -3.7841  -3.7835  -3.7830  -3.7520  -3.7512  -3.7334
    -3.7328  -3.7211  -3.6785  -3.6777  -3.6455  -3.6315  -3.6298  -3.6246
    -3.6243  -3.5503  -3.5501  -3.5162  -3.5129  -3.5125  -3.4454  -3.4445
    -3.4293  -3.4287  -3.3997  -3.3987  -3.3981  -3.3976  -3.2445  -3.2431
    -3.2231  -3.2196  -3.2157  -3.1971  -3.1967  -3.1719  -3.1710  -3.1216
    -3.1210  -3.1073  -3.1045  -3.0846  -3.0385  -3.0370  -3.0232  -3.0125
    -3.0111  -2.9761  -2.9706  -2.9638  -2.9628  -2.9579  -2.9463  -2.9125
    -2.9072  -2.9025  -2.8863  -2.8842  -2.8820  -2.8818  -2.8743  -2.8025
    -2.8010  -2.7959  -2.7712  -2.7707  -2.7115  -2.7075  -2.6808  -2.6778
    -2.6670  -2.6666  -2.6604  -2.6323  -2.6308  -2.6215  -2.6037  -2.5797
    -2.5791  -2.5760  -2.5579  -2.5573  -2.5466  -2.5452  -2.5432  -2.5418
    -2.5336  -2.4877  -2.4568  -2.4564  -2.4400  -2.4270  -2.4211  -2.4195
    -2.4131  -2.4117  -2.4103  -2.3818  -2.3811  -2.3798  -2.3710  -2.3698
    -2.3541  -2.3271  -2.3263  -2.3253  -2.3243  -2.3238  -2.2783  -2.2489
    -2.2470  -2.2464  -2.2402  -2.2306  -2.2216  -2.2177  -2.2010  -2.2008
    -2.1704  -2.1664  -2.1661  -2.1489  -2.1476  -2.1468  -2.1144  -2.1133
    -2.0749  -2.0700  -2.0651  -2.0631  -2.0620  -2.0575  -2.0558  -2.0539
    -2.0523  -2.0469  -2.0458  -2.0298  -2.0288  -1.9049  -1.9022  -1.8687
    -1.8643  -1.8634  -1.8567  -1.8564  -1.8429  -1.8408  -1.8366  -1.8358
    -1.8337  -1.8117  -1.8076  -1.8044  -1.8000  -1.7920  -1.7907  -1.7699
    -1.7688  -1.7411  -1.7401  -1.7093  -1.7077  -1.6977  -1.6890  -1.6719
    -1.6707  -1.6678  -1.6505  -1.6382  -1.6370  -1.6303  -1.6297  -1.6037
    -1.6030  -1.5886  -1.5864  -1.5571  -1.5540  -1.5435  -1.4953  -1.4945
    -1.4819  -1.4799  -1.4790  -1.4539  -1.4509  -1.4210  -1.4191  -1.4173
    -1.3852  -1.3757  -1.3744  -1.3576  -1.3566  -1.3344  -1.3313  -1.3293
    -1.3012  -1.2973  -1.2967  -1.2373  -1.2338  -1.2237  -1.2219  -1.2072
    -1.2049  -1.1928  -1.1914  -1.1734  -1.1609  -1.1362  -1.1329  -1.1240
    -1.1050  -1.0861  -1.0833  -1.0723  -1.0708  -1.0702  -1.0665  -1.0643
    -1.0491  -1.0383  -1.0212  -1.0191  -1.0085  -1.0063  -1.0051  -0.9845
    -0.9733  -0.9645  -0.9476  -0.9416  -0.8767  -0.8462  -0.8368  -0.8316
    -0.8308  -0.8248  -0.8217  -0.8089  -0.7975  -0.7872  -0.7815  -0.7719
    -0.7661  -0.7599  -0.7549  -0.7369  -0.7351  -0.7264  -0.7160  -0.6537
    -0.6523  -0.6196  -0.6153  -0.6138  -0.6078  -0.6066  -0.6056  -0.6012
    -0.5932  -0.5854  -0.5677  -0.5508  -0.5350  -0.5185  -0.5162  -0.5060
    -0.5039  -0.4945  -0.4923  -0.4912  -0.4896  -0.4852  -0.4730  -0.4684
    -0.4658  -0.4381  -0.4356  -0.4337  -0.4232  -0.4229  -0.4041  -0.3721
    -0.3712  -0.3628  -0.3612  -0.2951  -0.2938  -0.2584  -0.2577  -0.2004
    -0.1994  -0.1982  -0.1817  -0.1725   0.0547   0.0655   0.4016   0.4018
     0.4929   0.5006   0.6862   0.7104   0.7196   0.8486   0.8508   1.2817
     1.2826   1.2993   1.5619   1.5920   1.5924   1.8688   1.8759   1.9464
     1.9486   1.9744   1.9796   2.2030   2.2047   2.2927   2.2937   2.3710
     2.4318   2.4388   2.5959   2.6969   3.1302   3.1362   3.1384   3.1404
     3.1921   3.1950   3.4856   3.4868   3.7668   3.7715   3.8775   4.1817
     4.2219   4.2261   4.4414   4.4574   4.5211   4.5271   4.6185   4.7316
     4.7372   4.8526   4.8538   5.1553   5.2176   5.2262   5.3419   5.4017
     5.4367   5.6073   5.6144   5.6394   5.6416   5.6981   5.7060   5.7496
     5.8530   6.0718   6.2720   6.3076   6.3454   6.4414   6.4475   6.4584
     6.4608   6.5336   6.6451   6.6919   6.7017   6.8512   6.9052   6.9447
     6.9481   7.0288   7.0797

     the Fermi energy is     1.4263 ev

!    total energy              =   -6604.42795418 Ry
     Harris-Foulkes estimate   =   -6604.42795417 Ry
     estimated scf accuracy    <          3.0E-09 Ry

     The total energy is the sum of the following terms:

     one-electron contribution =  -48693.57851010 Ry
     hartree contribution      =   24847.70394154 Ry
     xc contribution           =   -3204.98973546 Ry
     ewald contribution        =   20446.43347694 Ry
     smearing contrib. (-TS)   =       0.00287291 Ry

     convergence has been achieved in  25 iterations

     Writing output data file 5368559.save

     init_run     :    136.71s CPU    148.76s WALL (       1 calls)
     electrons    :   8443.69s CPU   9067.41s WALL (       1 calls)

     Called by init_run:
     wfcinit      :    104.58s CPU    115.46s WALL (       1 calls)
     potinit      :     10.10s CPU     10.61s WALL (       1 calls)

     Called by electrons:
     c_bands      :   7063.85s CPU   7568.21s WALL (      26 calls)
     sum_band     :   1005.98s CPU   1105.82s WALL (      26 calls)
     v_of_rho     :    105.97s CPU    117.09s WALL (      26 calls)
     newd         :    278.02s CPU    282.71s WALL (      26 calls)
     mix_rho      :      2.95s CPU      3.30s WALL (      26 calls)
     vdW_energy   :      8.88s CPU      9.93s WALL (      26 calls)
     vdW_ffts     :     54.50s CPU     60.03s WALL (      52 calls)
     vdW_v        :     13.69s CPU     14.38s WALL (      26 calls)

     Called by c_bands:
     init_us_2    :     27.89s CPU     28.28s WALL (     636 calls)
     cegterg      :   6978.67s CPU   7481.57s WALL (     312 calls)

     Called by *egterg:
     h_psi        :   3113.06s CPU   3572.74s WALL (    1592 calls)
     s_psi        :    451.10s CPU    453.75s WALL (    1592 calls)
     g_psi        :      6.22s CPU      6.27s WALL (    1268 calls)
     cdiaghg      :   2002.87s CPU   2007.92s WALL (    1568 calls)

     Called by h_psi:
     add_vuspsi   :    452.19s CPU    454.81s WALL (    1592 calls)

     General routines
     calbec       :    657.36s CPU    659.88s WALL (    1904 calls)
     fft          :    102.32s CPU    112.11s WALL (    1716 calls)
     ffts         :      1.14s CPU      1.47s WALL (      52 calls)
     fftw         :   2157.74s CPU   2605.45s WALL (  754344 calls)
     interpolate  :      3.82s CPU      4.65s WALL (      52 calls)
     davcio       :      0.02s CPU      0.29s WALL (      12 calls)

     Parallel routines
     fft_scatter  :   1441.20s CPU   1738.74s WALL (  756112 calls)

     PWSCF        :     2h23m CPU        2h34m WALL


   This run was terminated on:   4: 9:26  25Jun2015            

=------------------------------------------------------------------------------=
   JOB DONE.
=------------------------------------------------------------------------------=
