Setting SGE environment for SCC

     Program PWSCF v.5.1.2 starts on 27Jun2015 at  9:13:41 

     This program is part of the open-source Quantum ESPRESSO suite
     for quantum simulation of materials; please cite
         "P. Giannozzi et al., J. Phys.:Condens. Matter 21 395502 (2009);
          URL http://www.quantum-espresso.org", 
     in publications or presentations arising from this work. More details at
     http://www.quantum-espresso.org/quote

     Parallel version (MPI), running on    32 processors
     R & G space division:  proc/nbgrp/npool/nimage =      32
     Reading input from top.O1.Au50.d.3.4.phi.45.psi.180.in
Warning: card &IONS ignored
Warning: card / ignored
Warning: card &CELL ignored
Warning: card / ignored

     Current dimensions of program PWSCF are:
     Max number of different atomic species (ntypx) = 10
     Max number of k-points (npk) =  40000
     Max angular momentum in pseudopotentials (lmaxx) =  3

     IMPORTANT: XC functional enforced from input :
     Exchange-correlation      = VDW-DF ( 1  4  4  0 1 0)
     Any further DFT definition will be discarded
     Please, verify this is what you really want


     Subspace diagonalization in iterative solution of the eigenvalue problem:
     a serial algorithm will be used


     Parallelization info
     --------------------
     sticks:   dense  smooth     PW     G-vecs:    dense   smooth      PW
     Min         445     223     58                96775    34191    4534
     Max         446     224     59                96790    34246    4540
     Sum       14269    7147   1867              3097177  1095093  145167


     Title: 
     top.O1.Au50.d.3.4.phi.45.psi.180                                           


     bravais-lattice index     =            4
     lattice parameter (alat)  =      22.7436  a.u.
     unit-cell volume          =   22924.1508 (a.u.)^3
     number of atoms/cell      =           67
     number of atomic types    =            3
     number of electrons       =       712.00
     number of Kohn-Sham states=          427
     kinetic-energy cutoff     =      50.0000  Ry
     charge density cutoff     =     400.0000  Ry
     convergence threshold     =      1.0E-08
     mixing beta               =       0.7000
     number of iterations used =            8  plain     mixing
     Exchange-correlation      = VDW-DF ( 1  4  4  0 1 0)

     celldm(1)=  22.743643  celldm(2)=   0.000000  celldm(3)=   2.250000
     celldm(4)=   0.000000  celldm(5)=   0.000000  celldm(6)=   0.000000

     crystal axes: (cart. coord. in units of alat)
               a(1) = (   1.000000   0.000000   0.000000 )  
               a(2) = (  -0.500000   0.866025   0.000000 )  
               a(3) = (   0.000000   0.000000   2.250000 )  

     reciprocal axes: (cart. coord. in units 2 pi/alat)
               b(1) = (  1.000000  0.577350 -0.000000 )  
               b(2) = (  0.000000  1.154701  0.000000 )  
               b(3) = (  0.000000 -0.000000  0.444444 )  


     PseudoPot. # 1 for Au read from file:
     /home/scc/andrejb/qe/pseudo/Au.pbe-nd-van.UPF
     MD5 check sum: 458681b50f36d87ef23c61b04bba420a
     Pseudo is Ultrasoft + core correction, Zval = 11.0
     Generated by new atomic code, or converted to UPF format
     Using radial grid of  985 points,  3 beta functions with: 
                l(1) =   1
                l(2) =   2
                l(3) =   2
     Q(r) pseudized with  8 coefficients,  rinner =    1.100   1.100   1.100
                                                       1.100   1.100

     PseudoPot. # 2 for H  read from file:
     /home/scc/andrejb/qe/pseudo/H.pbe-van_ak.UPF
     MD5 check sum: 403db7282739603aa925980fa9b8608d
     Pseudo is Ultrasoft, Zval =  1.0
     Generated by new atomic code, or converted to UPF format
     Using radial grid of  615 points,  1 beta functions with: 
                l(1) =   0
     Q(r) pseudized with  8 coefficients,  rinner =    0.800

     PseudoPot. # 3 for O  read from file:
     /home/scc/andrejb/qe/pseudo/O.pbe-van_ak.UPF
     MD5 check sum: 4b8c549914a63cae506c6ff22b5af4fe
     Pseudo is Ultrasoft, Zval =  6.0
     Generated by new atomic code, or converted to UPF format
     Using radial grid of  737 points,  4 beta functions with: 
                l(1) =   0
                l(2) =   0
                l(3) =   1
                l(4) =   1
     Q(r) pseudized with  8 coefficients,  rinner =    0.800   0.800   0.800


     vdW kernel table read from file vdW_kernel_table
     MD5 check sum: 48e77a2e26edf626eeb0eaa751ad5cac

     atomic species   valence    mass     pseudopotential
        Au            11.00   196.96657     Au( 1.00)
        H              1.00     1.01000     H ( 1.00)
        O              6.00    16.00000     O ( 1.00)

     No symmetry found



   Cartesian axes

     site n.     atom                  positions (alat units)
         1           O   tau(   1) = (   0.4790780   0.3968269   0.8954964  )
         2           H   tau(   2) = (   0.4731484   0.4615137   0.8472428  )
         3           H   tau(   3) = (   0.4848144   0.3340879   0.8447357  )
         4           Au  tau(   4) = (   0.3540481   0.6132292   0.0000000  )
         5           Au  tau(   5) = (   0.4790062   0.3967954   0.0000000  )
         6           Au  tau(   6) = (   0.6039644   0.1803616   0.0000000  )
         7           Au  tau(   7) = (   0.7289225  -0.0360723   0.0000000  )
         8           Au  tau(   8) = (   0.1041318   0.6132292   0.0000000  )
         9           Au  tau(   9) = (   0.2290899   0.3967954   0.0000000  )
        10           Au  tau(  10) = (   0.3540481   0.1803616   0.0000000  )
        11           Au  tau(  11) = (   0.4790062  -0.0360723   0.0000000  )
        12           Au  tau(  12) = (  -0.1457845   0.6132292   0.0000000  )
        13           Au  tau(  13) = (  -0.0208264   0.3967954   0.0000000  )
        14           Au  tau(  14) = (   0.1041318   0.1803616   0.0000000  )
        15           Au  tau(  15) = (   0.2290899  -0.0360723   0.0000000  )
        16           Au  tau(  16) = (  -0.3957008   0.6132292   0.0000000  )
        17           Au  tau(  17) = (  -0.2707426   0.3967954   0.0000000  )
        18           Au  tau(  18) = (  -0.1457845   0.1803616   0.0000000  )
        19           Au  tau(  19) = (  -0.0208264  -0.0360723   0.0000000  )
        20           Au  tau(  20) = (   0.4790062   0.6853738   0.2040557  )
        21           Au  tau(  21) = (   0.6039644   0.4689400   0.2040557  )
        22           Au  tau(  22) = (   0.7289225   0.2525062   0.2040557  )
        23           Au  tau(  23) = (   0.8538806   0.0360723   0.2040557  )
        24           Au  tau(  24) = (   0.2290899   0.6853738   0.2040557  )
        25           Au  tau(  25) = (   0.3540481   0.4689400   0.2040557  )
        26           Au  tau(  26) = (   0.4790062   0.2525062   0.2040557  )
        27           Au  tau(  27) = (   0.6039644   0.0360723   0.2040557  )
        28           Au  tau(  28) = (  -0.0208264   0.6853738   0.2040557  )
        29           Au  tau(  29) = (   0.1041318   0.4689400   0.2040557  )
        30           Au  tau(  30) = (   0.2290899   0.2525062   0.2040557  )
        31           Au  tau(  31) = (   0.3540481   0.0360723   0.2040557  )
        32           Au  tau(  32) = (  -0.2707426   0.6853738   0.2040557  )
        33           Au  tau(  33) = (  -0.1457845   0.4689400   0.2040557  )
        34           Au  tau(  34) = (  -0.0208264   0.2525062   0.2040557  )
        35           Au  tau(  35) = (   0.1041318   0.0360723   0.2040557  )
        36           Au  tau(  36) = (   0.3541162   0.7576593   0.4066483  )
        37           Au  tau(  37) = (   0.4791000   0.5411421   0.4066696  )
        38           Au  tau(  38) = (   0.6040570   0.3246862   0.4066618  )
        39           Au  tau(  39) = (   0.7290270   0.1081684   0.4066530  )
        40           Au  tau(  40) = (   0.1041162   0.7576236   0.4066247  )
        41           Au  tau(  41) = (   0.2291001   0.5411062   0.4066455  )
        42           Au  tau(  42) = (   0.3540567   0.3246505   0.4066380  )
        43           Au  tau(  43) = (   0.4790276   0.1081324   0.4066292  )
        44           Au  tau(  44) = (  -0.1458201   0.7576104   0.4066225  )
        45           Au  tau(  45) = (  -0.0208365   0.5410930   0.4066438  )
        46           Au  tau(  46) = (   0.1041202   0.3246372   0.4066359  )
        47           Au  tau(  47) = (   0.2290908   0.1081193   0.4066273  )
        48           Au  tau(  48) = (  -0.3958167   0.7575791   0.4065812  )
        49           Au  tau(  49) = (  -0.2708328   0.5410617   0.4066025  )
        50           Au  tau(  50) = (  -0.1458763   0.3246061   0.4065947  )
        51           Au  tau(  51) = (  -0.0209056   0.1080882   0.4065858  )
        52           Au  tau(  52) = (   0.3541084   0.6133344   0.6129762  )
        53           Au  tau(  53) = (   0.4790780   0.3968269   0.6129968  )
        54           Au  tau(  54) = (   0.6040356   0.1803811   0.6129859  )
        55           Au  tau(  55) = (   0.7290165  -0.0361221   0.6129385  )
        56           Au  tau(  56) = (   0.1041243   0.6133091   0.6130023  )
        57           Au  tau(  57) = (   0.2290941   0.3968013   0.6130241  )
        58           Au  tau(  58) = (   0.3540515   0.1803552   0.6130121  )
        59           Au  tau(  59) = (   0.4790323  -0.0361475   0.6129659  )
        60           Au  tau(  60) = (  -0.1458030   0.6133014   0.6129980  )
        61           Au  tau(  61) = (  -0.0208339   0.3967936   0.6130189  )
        62           Au  tau(  62) = (   0.1041239   0.1803477   0.6130083  )
        63           Au  tau(  63) = (   0.2291046  -0.0361554   0.6129607  )
        64           Au  tau(  64) = (  -0.3957908   0.6132739   0.6129471  )
        65           Au  tau(  65) = (  -0.2708208   0.3967658   0.6129688  )
        66           Au  tau(  66) = (  -0.1458636   0.1803200   0.6129569  )
        67           Au  tau(  67) = (  -0.0208823  -0.0361826   0.6129110  )

     number of k points=    12  Marzari-Vanderbilt smearing, width (Ry)=  0.0200
                       cart. coord. in units 2pi/alat
        k(    1) = (   0.2500000   0.4330127   0.1111111), wk =   0.1666667
        k(    2) = (   0.2500000  -0.1443376   0.1111111), wk =   0.1666667
        k(    3) = (  -0.2500000  -0.4330127   0.1111111), wk =   0.1666667
        k(    4) = (  -0.2500000   0.4330127  -0.1111111), wk =   0.1666667
        k(    5) = (   0.2500000  -0.4330127  -0.1111111), wk =   0.1666667
        k(    6) = (   0.5000000   0.0000000   0.1111111), wk =   0.1666667
        k(    7) = (  -0.5000000   0.0000000   0.1111111), wk =   0.1666667
        k(    8) = (  -0.2500000   0.1443376   0.1111111), wk =   0.1666667
        k(    9) = (  -0.2500000  -0.1443376  -0.1111111), wk =   0.1666667
        k(   10) = (   0.2500000   0.1443376  -0.1111111), wk =   0.1666667
        k(   11) = (   0.0000000  -0.2886751   0.1111111), wk =   0.1666667
        k(   12) = (   0.0000000   0.2886751   0.1111111), wk =   0.1666667

     Dense  grid:  3097177 G-vectors     FFT dimensions: ( 150, 150, 360)

     Smooth grid:  1095093 G-vectors     FFT dimensions: ( 108, 108, 240)

     Largest allocated arrays     est. size (Mb)     dimensions
        Kohn-Sham Wavefunctions        28.01 Mb     (    4299,  427)
        NL pseudopotentials            55.23 Mb     (    4299,  842)
        Each V/rho on FFT grid          4.12 Mb     (  270000)
        Each G-vector array             0.74 Mb     (   96788)
        G-vector shells                 0.16 Mb     (   21404)
     Largest temporary arrays     est. size (Mb)     dimensions
        Auxiliary wavefunctions       112.04 Mb     (    4299, 1708)
        Each subspace H/S matrix       44.51 Mb     (    1708, 1708)
        Each <psi_i|beta_j> matrix      5.49 Mb     (     842,  427)
        Arrays for rho mixing          32.96 Mb     (  270000,    8)

     Initial potential from superposition of free atoms
     Check: negative starting charge=   -1.730360

     starting charge  711.25682, renormalised to  712.00000

     negative rho (up, down):  1.732E+00 0.000E+00


     ************************************************************************
     *
     * You are using vdW-DF for exchange-correlation in this calculation.
     * Please cite the following three references that made this development
     * possible:
     *
     *   M. Dion, H. Rydberg, E. Schroder, D. C. Langreth, and
     *   B. I. Lundqvist, Phys. Rev. Lett. 92, 246401 (2004).
     *
     *   T. Thonhauser, V. R. Cooper, S. Li, A. Puzder, P. Hyldgaard, and
     *   D. C. Langreth, Phys. Rev. B 76, 125112 (2007).
     *
     *   G. Roman-Perez and J. M. Soler, Phys. Rev. Lett. 103, 096102 (2009).
     *
     *
     * If you are using vdW-DF2, please also cite:
     *
     *   K. Lee, E. D. Murray, L. Kong, B. I. Lundqvist, and
     *   D. C. Langreth, Phys. Rev. B 82, 081101(R) (2010).
     *
     *
     * If you are calculating the stress with vdW-DF, please also cite:
     *
     *   R. Sabatini, E. Kucukbenli, B. Kolb, T. Thonhauser, and
     *   S. de Gironcoli, J. Phys.: Condens. Matter 24, 424209 (2012).
     *
     ************************************************************************

     Carrying out vdW-DF run using the following parameters:

     Nqs =      20    Nr_points =    1024   r_max =   100.000
     q_mesh =
               0.00001000     0.04494208     0.09755937     0.15916263
               0.23128650     0.31572767     0.41458969     0.53033537
               0.66584808     0.82450364     1.01025438     1.22772762
               1.48234092     1.78043706     2.12944203     2.53805004
               3.01644009     3.57652955     4.23227104     5.00000000

     Gradients computed in reciprocal space

     ************************************************************************


     Starting wfc are  582 randomized atomic wfcs

     total cpu time spent up to now is      226.5 secs

     Self-consistent Calculation

     iteration #  1     ecut=    50.00 Ry     beta=0.70
     Davidson diagonalization with overlap
     ethr =  1.00E-02,  avg # of iterations =  3.0

     Threshold (ethr) on eigenvalues was too large:
     Diagonalizing with lowered threshold

     Davidson diagonalization with overlap
     ethr =  3.44E-04,  avg # of iterations =  3.5

     negative rho (up, down):  1.727E+00 0.000E+00

     total cpu time spent up to now is     1124.4 secs

     total energy              =   -6602.80273497 Ry
     Harris-Foulkes estimate   =   -6605.02721711 Ry
     estimated scf accuracy    <       2.79220930 Ry

     iteration #  2     ecut=    50.00 Ry     beta=0.70
     Davidson diagonalization with overlap
     ethr =  3.92E-04,  avg # of iterations = 11.8

     negative rho (up, down):  1.727E+00 0.000E+00

     total cpu time spent up to now is     2322.8 secs

     total energy              =   -6596.95502506 Ry
     Harris-Foulkes estimate   =   -6610.06519078 Ry
     estimated scf accuracy    <      72.52809374 Ry

     iteration #  3     ecut=    50.00 Ry     beta=0.70
     Davidson diagonalization with overlap
     ethr =  3.92E-04,  avg # of iterations =  6.0

     negative rho (up, down):  1.737E+00 0.000E+00

     total cpu time spent up to now is     3054.5 secs

     total energy              =   -6603.01657617 Ry
     Harris-Foulkes estimate   =   -6605.07514608 Ry
     estimated scf accuracy    <       9.93915619 Ry

     iteration #  4     ecut=    50.00 Ry     beta=0.70
     Davidson diagonalization with overlap
     ethr =  3.92E-04,  avg # of iterations =  6.3

     negative rho (up, down):  1.738E+00 0.000E+00

     total cpu time spent up to now is     3551.5 secs

     total energy              =   -6603.33093801 Ry
     Harris-Foulkes estimate   =   -6605.32135256 Ry
     estimated scf accuracy    <      19.80423914 Ry

     iteration #  5     ecut=    50.00 Ry     beta=0.70
     Davidson diagonalization with overlap
     ethr =  3.92E-04,  avg # of iterations =  7.3

     negative rho (up, down):  1.748E+00 0.000E+00

     total cpu time spent up to now is     4069.3 secs

     total energy              =   -6604.33980004 Ry
     Harris-Foulkes estimate   =   -6604.62173418 Ry
     estimated scf accuracy    <       1.81276040 Ry

     iteration #  6     ecut=    50.00 Ry     beta=0.70
     Davidson diagonalization with overlap
     ethr =  2.55E-04,  avg # of iterations =  3.7

     negative rho (up, down):  1.753E+00 0.000E+00

     total cpu time spent up to now is     4390.6 secs

     total energy              =   -6604.42988310 Ry
     Harris-Foulkes estimate   =   -6604.46925691 Ry
     estimated scf accuracy    <       0.12419470 Ry

     iteration #  7     ecut=    50.00 Ry     beta=0.70
     Davidson diagonalization with overlap
     c_bands:  1 eigenvalues not converged
     ethr =  1.74E-05,  avg # of iterations = 11.6

     negative rho (up, down):  1.755E+00 0.000E+00

     total cpu time spent up to now is     4999.0 secs

     total energy              =   -6604.43286116 Ry
     Harris-Foulkes estimate   =   -6604.45895543 Ry
     estimated scf accuracy    <       0.11331360 Ry

     iteration #  8     ecut=    50.00 Ry     beta=0.70
     Davidson diagonalization with overlap
     ethr =  1.59E-05,  avg # of iterations =  3.6

     negative rho (up, down):  1.756E+00 0.000E+00

     total cpu time spent up to now is     5411.6 secs

     total energy              =   -6604.43459947 Ry
     Harris-Foulkes estimate   =   -6604.44804329 Ry
     estimated scf accuracy    <       0.05110978 Ry

     iteration #  9     ecut=    50.00 Ry     beta=0.70
     Davidson diagonalization with overlap
     ethr =  7.18E-06,  avg # of iterations =  5.1

     negative rho (up, down):  1.756E+00 0.000E+00

     total cpu time spent up to now is     5837.6 secs

     total energy              =   -6604.43426068 Ry
     Harris-Foulkes estimate   =   -6604.44030243 Ry
     estimated scf accuracy    <       0.02258182 Ry

     iteration # 10     ecut=    50.00 Ry     beta=0.70
     Davidson diagonalization with overlap
     ethr =  3.17E-06,  avg # of iterations =  8.6

     negative rho (up, down):  1.757E+00 0.000E+00

     total cpu time spent up to now is     6297.1 secs

     total energy              =   -6604.43339357 Ry
     Harris-Foulkes estimate   =   -6604.43647872 Ry
     estimated scf accuracy    <       0.01166998 Ry

     iteration # 11     ecut=    50.00 Ry     beta=0.70
     Davidson diagonalization with overlap
     ethr =  1.64E-06,  avg # of iterations =  5.1

     negative rho (up, down):  1.757E+00 0.000E+00

     total cpu time spent up to now is     6746.3 secs

     total energy              =   -6604.43308951 Ry
     Harris-Foulkes estimate   =   -6604.43457917 Ry
     estimated scf accuracy    <       0.00640038 Ry

     iteration # 12     ecut=    50.00 Ry     beta=0.70
     Davidson diagonalization with overlap
     ethr =  8.99E-07,  avg # of iterations =  5.4

     negative rho (up, down):  1.758E+00 0.000E+00

     total cpu time spent up to now is     7189.3 secs

     total energy              =   -6604.43270705 Ry
     Harris-Foulkes estimate   =   -6604.43362492 Ry
     estimated scf accuracy    <       0.00166251 Ry

     iteration # 13     ecut=    50.00 Ry     beta=0.70
     Davidson diagonalization with overlap
     ethr =  2.33E-07,  avg # of iterations =  5.1

     negative rho (up, down):  1.758E+00 0.000E+00

     total cpu time spent up to now is     7659.2 secs

     total energy              =   -6604.43299360 Ry
     Harris-Foulkes estimate   =   -6604.43310479 Ry
     estimated scf accuracy    <       0.00026419 Ry

     iteration # 14     ecut=    50.00 Ry     beta=0.70
     Davidson diagonalization with overlap
     ethr =  3.71E-08,  avg # of iterations =  3.0

     negative rho (up, down):  1.757E+00 0.000E+00

     total cpu time spent up to now is     8123.0 secs

     total energy              =   -6604.43301674 Ry
     Harris-Foulkes estimate   =   -6604.43309739 Ry
     estimated scf accuracy    <       0.00036190 Ry

     iteration # 15     ecut=    50.00 Ry     beta=0.70
     Davidson diagonalization with overlap
     ethr =  3.71E-08,  avg # of iterations =  2.0

     negative rho (up, down):  1.757E+00 0.000E+00

     total cpu time spent up to now is     8507.6 secs

     total energy              =   -6604.43304841 Ry
     Harris-Foulkes estimate   =   -6604.43307505 Ry
     estimated scf accuracy    <       0.00021515 Ry

     iteration # 16     ecut=    50.00 Ry     beta=0.70
     Davidson diagonalization with overlap
     ethr =  3.02E-08,  avg # of iterations =  2.0

     negative rho (up, down):  1.757E+00 0.000E+00

     total cpu time spent up to now is     8891.1 secs

     total energy              =   -6604.43306208 Ry
     Harris-Foulkes estimate   =   -6604.43306520 Ry
     estimated scf accuracy    <       0.00000953 Ry

     iteration # 17     ecut=    50.00 Ry     beta=0.70
     Davidson diagonalization with overlap
     ethr =  1.34E-09,  avg # of iterations =  3.0

     negative rho (up, down):  1.757E+00 0.000E+00

     total cpu time spent up to now is     9359.7 secs

     total energy              =   -6604.43306133 Ry
     Harris-Foulkes estimate   =   -6604.43306668 Ry
     estimated scf accuracy    <       0.00002672 Ry

     iteration # 18     ecut=    50.00 Ry     beta=0.70
     Davidson diagonalization with overlap
     ethr =  1.34E-09,  avg # of iterations =  2.0

     negative rho (up, down):  1.757E+00 0.000E+00

     total cpu time spent up to now is     9751.1 secs

     total energy              =   -6604.43306372 Ry
     Harris-Foulkes estimate   =   -6604.43306494 Ry
     estimated scf accuracy    <       0.00000513 Ry

     iteration # 19     ecut=    50.00 Ry     beta=0.70
     Davidson diagonalization with overlap
     ethr =  7.20E-10,  avg # of iterations =  2.0

     negative rho (up, down):  1.757E+00 0.000E+00

     total cpu time spent up to now is    10121.5 secs

     total energy              =   -6604.43306433 Ry
     Harris-Foulkes estimate   =   -6604.43306449 Ry
     estimated scf accuracy    <       0.00000062 Ry

     iteration # 20     ecut=    50.00 Ry     beta=0.70
     Davidson diagonalization with overlap
     ethr =  8.68E-11,  avg # of iterations =  3.0

     negative rho (up, down):  1.757E+00 0.000E+00

     total cpu time spent up to now is    10576.0 secs

     total energy              =   -6604.43306444 Ry
     Harris-Foulkes estimate   =   -6604.43306451 Ry
     estimated scf accuracy    <       0.00000032 Ry

     iteration # 21     ecut=    50.00 Ry     beta=0.70
     Davidson diagonalization with overlap
     ethr =  4.45E-11,  avg # of iterations =  2.0

     negative rho (up, down):  1.757E+00 0.000E+00

     total cpu time spent up to now is    10870.1 secs

     total energy              =   -6604.43306448 Ry
     Harris-Foulkes estimate   =   -6604.43306452 Ry
     estimated scf accuracy    <       0.00000027 Ry

     iteration # 22     ecut=    50.00 Ry     beta=0.70
     Davidson diagonalization with overlap
     ethr =  3.76E-11,  avg # of iterations =  1.8

     negative rho (up, down):  1.757E+00 0.000E+00

     total cpu time spent up to now is    11246.0 secs

     total energy              =   -6604.43306450 Ry
     Harris-Foulkes estimate   =   -6604.43306451 Ry
     estimated scf accuracy    <       0.00000004 Ry

     iteration # 23     ecut=    50.00 Ry     beta=0.70
     Davidson diagonalization with overlap
     ethr =  6.00E-12,  avg # of iterations =  3.0

     negative rho (up, down):  1.757E+00 0.000E+00

     total cpu time spent up to now is    11676.2 secs

     total energy              =   -6604.43306451 Ry
     Harris-Foulkes estimate   =   -6604.43306451 Ry
     estimated scf accuracy    <       0.00000004 Ry

     iteration # 24     ecut=    50.00 Ry     beta=0.70
     Davidson diagonalization with overlap
     ethr =  5.26E-12,  avg # of iterations =  3.0

     negative rho (up, down):  1.757E+00 0.000E+00

     total cpu time spent up to now is    12068.5 secs

     End of self-consistent calculation

          k = 0.2500 0.4330 0.1111 (136853 PWs)   bands (ev):

   -18.5757  -6.4693  -6.4039  -6.0705  -6.0690  -5.3928  -5.0587  -5.0580
    -5.0221  -5.0175  -4.6582  -4.6576  -4.5594  -4.5591  -4.5452  -4.5223
    -4.5010  -4.3924  -4.3909  -4.3674  -4.3240  -4.3238  -4.2559  -4.2547
    -4.2497  -4.2477  -4.2268  -4.2215  -4.2200  -4.1534  -4.1469  -4.1188
    -4.1183  -4.1066  -4.1061  -4.0832  -4.0829  -4.0605  -4.0521  -4.0519
    -4.0258  -3.9733  -3.9730  -3.9253  -3.9247  -3.8665  -3.8660  -3.8121
    -3.8110  -3.8110  -3.8103  -3.7751  -3.7377  -3.7367  -3.7296  -3.7286
    -3.7279  -3.7000  -3.6965  -3.6888  -3.6282  -3.6274  -3.6193  -3.6014
    -3.5940  -3.5231  -3.5210  -3.4904  -3.4868  -3.4609  -3.4595  -3.4463
    -3.4302  -3.3707  -3.3699  -3.3527  -3.3520  -3.3009  -3.2961  -3.2956
    -3.2564  -3.2274  -3.2247  -3.2179  -3.2167  -3.2046  -3.2040  -3.1960
    -3.1952  -3.1861  -3.1452  -3.1078  -3.1062  -3.0929  -3.0919  -3.0655
    -3.0573  -3.0565  -3.0377  -2.9931  -2.9895  -2.9811  -2.9420  -2.9366
    -2.9252  -2.9232  -2.8954  -2.8951  -2.8656  -2.8294  -2.8273  -2.8062
    -2.7975  -2.7885  -2.7830  -2.7518  -2.7333  -2.7206  -2.6997  -2.6774
    -2.6752  -2.6538  -2.6494  -2.6420  -2.6373  -2.6301  -2.6081  -2.6075
    -2.5626  -2.5617  -2.5611  -2.5455  -2.5444  -2.5388  -2.5307  -2.5281
    -2.5273  -2.5254  -2.5211  -2.5101  -2.5077  -2.5004  -2.4736  -2.4718
    -2.4705  -2.4684  -2.4674  -2.4657  -2.4626  -2.4386  -2.4351  -2.4218
    -2.4204  -2.4026  -2.4016  -2.3933  -2.3920  -2.3916  -2.3890  -2.3719
    -2.3696  -2.3683  -2.3662  -2.3499  -2.3255  -2.3241  -2.2847  -2.2846
    -2.2607  -2.2592  -2.2326  -2.2308  -2.2051  -2.2032  -2.1869  -2.1819
    -2.1554  -2.1361  -2.1337  -2.1270  -2.1263  -2.1221  -2.1158  -2.1145
    -2.0874  -2.0828  -2.0740  -2.0165  -2.0125  -2.0114  -2.0097  -2.0073
    -1.9748  -1.9535  -1.9527  -1.9257  -1.9242  -1.8661  -1.8645  -1.8351
    -1.8169  -1.8153  -1.7568  -1.7558  -1.7454  -1.7430  -1.7338  -1.7320
    -1.7290  -1.7213  -1.7185  -1.6657  -1.6612  -1.6522  -1.6512  -1.6503
    -1.6343  -1.6297  -1.5972  -1.5956  -1.5794  -1.5783  -1.5777  -1.5713
    -1.5660  -1.5591  -1.5550  -1.5378  -1.5367  -1.4974  -1.4930  -1.4858
    -1.4825  -1.4642  -1.4490  -1.4088  -1.4056  -1.3799  -1.3764  -1.3750
    -1.3461  -1.2964  -1.2934  -1.2921  -1.2912  -1.2871  -1.2857  -1.2765
    -1.2595  -1.2571  -1.2197  -1.2161  -1.1882  -1.1861  -1.1821  -1.1806
    -1.1738  -1.1586  -1.1571  -1.1560  -1.1526  -1.1522  -1.1148  -1.1134
    -1.1129  -1.1123  -1.0836  -1.0805  -1.0778  -1.0527  -1.0475  -1.0444
    -1.0002  -0.9927  -0.9908  -0.9567  -0.9488  -0.9383  -0.9369  -0.9299
    -0.9296  -0.9284  -0.9267  -0.9162  -0.9153  -0.8909  -0.8899  -0.8864
    -0.8850  -0.8837  -0.8474  -0.8469  -0.8398  -0.8353  -0.8204  -0.8138
    -0.8122  -0.8011  -0.7452  -0.7440  -0.7358  -0.7347  -0.7335  -0.7327
    -0.7278  -0.7087  -0.7074  -0.7008  -0.6986  -0.6974  -0.6968  -0.6577
    -0.6563  -0.6545  -0.6472  -0.6457  -0.6414  -0.6396  -0.6285  -0.6237
    -0.6201  -0.6193  -0.5835  -0.5776  -0.5726  -0.5692  -0.5651  -0.5620
    -0.4891  -0.4861  -0.4848  -0.4846  -0.4756  -0.4747  -0.4390  -0.4267
    -0.4259  -0.3949  -0.3939  -0.3921  -0.2744  -0.2700  -0.1703   0.2449
     0.2456   0.2488   0.2490   0.3111   0.3123   0.6973   0.6991   0.7405
     0.7418   0.8538   0.9306   1.0392   1.0449   1.2637   1.2689   1.8954
     1.8964   2.0566   2.0591   2.1904   2.1929   2.2941   2.2945   2.4485
     2.6858   2.6971   2.8097   3.0319   3.0385   3.1167   3.1180   3.2172
     3.2335   3.4283   3.4450   3.4891   3.6896   3.6918   3.7518   3.7562
     4.0099   4.0176   4.0196   4.2608   4.3012   4.3029   4.3481   4.6815
     4.6863   4.7127   4.8478   5.0208   5.0224   5.0822   5.0995   5.5475
     5.7889   5.8068   5.8134   5.8222   5.8703   5.8828   5.8853   5.9830
     5.9943   6.0175   6.0449   6.0488   6.0692   6.0829   6.1067   6.1078
     6.1966   6.5163   6.5961   6.6836   6.7177   6.7528   6.7617   6.7657
     6.8094   6.8748   6.9679

          k = 0.2500-0.1443 0.1111 (136898 PWs)   bands (ev):

   -18.5757  -6.6791  -6.4040  -5.8870  -5.5968  -5.5369  -5.5363  -4.9984
    -4.9980  -4.8675  -4.8659  -4.7109  -4.6826  -4.6185  -4.5866  -4.5845
    -4.5516  -4.5513  -4.4229  -4.3811  -4.3810  -4.3215  -4.3010  -4.2999
    -4.1977  -4.1975  -4.1617  -4.1612  -4.1610  -4.1345  -4.1127  -4.1126
    -4.0092  -4.0055  -4.0055  -3.9851  -3.9682  -3.9677  -3.9561  -3.9553
    -3.9425  -3.9125  -3.9120  -3.9118  -3.9115  -3.8792  -3.8787  -3.8615
    -3.8611  -3.8486  -3.8058  -3.8046  -3.7739  -3.7597  -3.7577  -3.7528
    -3.7528  -3.6785  -3.6783  -3.6439  -3.6422  -3.6405  -3.5730  -3.5726
    -3.5584  -3.5571  -3.5271  -3.5268  -3.5258  -3.5251  -3.3724  -3.3712
    -3.3473  -3.3465  -3.3417  -3.3256  -3.3247  -3.2994  -3.2992  -3.2497
    -3.2488  -3.2334  -3.2325  -3.2126  -3.1649  -3.1642  -3.1451  -3.1401
    -3.1388  -3.0998  -3.0982  -3.0924  -3.0909  -3.0767  -3.0744  -3.0362
    -3.0353  -3.0147  -3.0143  -3.0117  -3.0101  -3.0069  -2.9325  -2.9300
    -2.9294  -2.9028  -2.8989  -2.8388  -2.8384  -2.8134  -2.8081  -2.7983
    -2.7947  -2.7906  -2.7610  -2.7599  -2.7527  -2.7436  -2.7287  -2.7078
    -2.7070  -2.6980  -2.6856  -2.6848  -2.6745  -2.6736  -2.6706  -2.6619
    -2.6604  -2.6162  -2.5842  -2.5840  -2.5662  -2.5537  -2.5482  -2.5457
    -2.5399  -2.5391  -2.5382  -2.5091  -2.5084  -2.5049  -2.4983  -2.4966
    -2.4817  -2.4540  -2.4531  -2.4526  -2.4518  -2.4495  -2.4063  -2.3752
    -2.3745  -2.3734  -2.3672  -2.3587  -2.3475  -2.3456  -2.3291  -2.3291
    -2.2966  -2.2941  -2.2939  -2.2752  -2.2747  -2.2744  -2.2420  -2.2410
    -2.2017  -2.1984  -2.1925  -2.1900  -2.1898  -2.1838  -2.1836  -2.1803
    -2.1799  -2.1737  -2.1731  -2.1572  -2.1567  -2.0304  -2.0302  -1.9963
    -1.9908  -1.9904  -1.9846  -1.9840  -1.9678  -1.9669  -1.9645  -1.9638
    -1.9604  -1.9394  -1.9328  -1.9318  -1.9220  -1.9183  -1.9177  -1.8965
    -1.8952  -1.8680  -1.8670  -1.8367  -1.8360  -1.8252  -1.8166  -1.7987
    -1.7984  -1.7957  -1.7779  -1.7650  -1.7644  -1.7576  -1.7571  -1.7314
    -1.7311  -1.7141  -1.7139  -1.6817  -1.6784  -1.6716  -1.6220  -1.6211
    -1.6075  -1.6070  -1.6047  -1.5816  -1.5789  -1.5464  -1.5451  -1.5448
    -1.5104  -1.5016  -1.5006  -1.4852  -1.4848  -1.4601  -1.4575  -1.4557
    -1.4278  -1.4248  -1.4245  -1.3626  -1.3614  -1.3492  -1.3485  -1.3330
    -1.3319  -1.3195  -1.3192  -1.3013  -1.2884  -1.2611  -1.2600  -1.2486
    -1.2187  -1.2105  -1.2101  -1.1987  -1.1986  -1.1961  -1.1915  -1.1910
    -1.1774  -1.1485  -1.1470  -1.1361  -1.1341  -1.1330  -1.1316  -1.1109
    -1.0915  -1.0894  -1.0700  -1.0694  -0.9775  -0.9642  -0.9588  -0.9584
    -0.9548  -0.9489  -0.9488  -0.9280  -0.9245  -0.9086  -0.9076  -0.8937
    -0.8934  -0.8849  -0.8651  -0.8631  -0.8615  -0.8535  -0.7818  -0.7807
    -0.7484  -0.7466  -0.7427  -0.7361  -0.7351  -0.7340  -0.7336  -0.7211
    -0.7207  -0.7043  -0.6793  -0.6663  -0.6462  -0.6452  -0.6339  -0.6336
    -0.6225  -0.6209  -0.6206  -0.6193  -0.6178  -0.6009  -0.5967  -0.5961
    -0.5749  -0.5656  -0.5641  -0.5632  -0.5514  -0.5508  -0.5321  -0.5001
    -0.4999  -0.4908  -0.4902  -0.4230  -0.4222  -0.3856  -0.3850  -0.3275
    -0.3265  -0.3259  -0.3111  -0.2996  -0.0720  -0.0698   0.2738   0.2739
     0.3662   0.3685   0.5608   0.5773   0.5915   0.7217   0.7224   1.1539
     1.1541   1.1719   1.4330   1.4638   1.4642   1.7430   1.7446   1.8195
     1.8197   1.8480   1.8485   2.0753   2.0770   2.1651   2.1654   2.2432
     2.3057   2.3066   2.4682   2.5675   3.0053   3.0071   3.0104   3.0114
     3.0638   3.0665   3.3577   3.3583   3.6403   3.6412   3.7503   4.0541
     4.0956   4.0975   4.3243   4.3277   4.3971   4.3972   4.4888   4.6071
     4.6080   4.7239   4.7249   5.0278   5.0955   5.0977   5.2677   5.2781
     5.4224   5.4843   5.4865   5.5115   5.5127   5.5745   5.5758   5.6300
     5.9423   6.0350   6.1815   6.2592   6.2692   6.3154   6.3190   6.3312
     6.3332   6.5688   6.5716   6.6375   6.7221   6.8006   6.8050   6.8518
     6.8553   7.0848   7.1077

          k =-0.2500-0.4330 0.1111 (136853 PWs)   bands (ev):

   -18.5757  -6.4693  -6.4039  -6.0705  -6.0690  -5.3928  -5.0587  -5.0580
    -5.0221  -5.0175  -4.6582  -4.6576  -4.5594  -4.5591  -4.5452  -4.5223
    -4.5010  -4.3924  -4.3909  -4.3674  -4.3240  -4.3238  -4.2559  -4.2547
    -4.2497  -4.2477  -4.2268  -4.2215  -4.2200  -4.1534  -4.1469  -4.1188
    -4.1183  -4.1066  -4.1061  -4.0832  -4.0829  -4.0605  -4.0521  -4.0519
    -4.0258  -3.9733  -3.9730  -3.9253  -3.9247  -3.8665  -3.8660  -3.8121
    -3.8110  -3.8110  -3.8103  -3.7751  -3.7377  -3.7367  -3.7296  -3.7286
    -3.7279  -3.7000  -3.6965  -3.6888  -3.6282  -3.6274  -3.6193  -3.6014
    -3.5940  -3.5231  -3.5210  -3.4904  -3.4868  -3.4609  -3.4595  -3.4463
    -3.4302  -3.3707  -3.3699  -3.3527  -3.3520  -3.3009  -3.2961  -3.2956
    -3.2564  -3.2274  -3.2247  -3.2179  -3.2167  -3.2046  -3.2040  -3.1960
    -3.1952  -3.1861  -3.1452  -3.1078  -3.1062  -3.0929  -3.0919  -3.0655
    -3.0573  -3.0565  -3.0377  -2.9931  -2.9895  -2.9811  -2.9420  -2.9366
    -2.9252  -2.9232  -2.8954  -2.8951  -2.8656  -2.8294  -2.8273  -2.8062
    -2.7975  -2.7885  -2.7830  -2.7518  -2.7333  -2.7206  -2.6997  -2.6774
    -2.6752  -2.6538  -2.6494  -2.6420  -2.6373  -2.6301  -2.6081  -2.6075
    -2.5626  -2.5617  -2.5611  -2.5455  -2.5444  -2.5388  -2.5307  -2.5281
    -2.5273  -2.5254  -2.5211  -2.5101  -2.5077  -2.5004  -2.4736  -2.4718
    -2.4705  -2.4684  -2.4674  -2.4657  -2.4626  -2.4386  -2.4351  -2.4218
    -2.4204  -2.4026  -2.4016  -2.3933  -2.3920  -2.3916  -2.3890  -2.3719
    -2.3696  -2.3683  -2.3662  -2.3499  -2.3255  -2.3241  -2.2847  -2.2846
    -2.2607  -2.2592  -2.2326  -2.2308  -2.2051  -2.2032  -2.1869  -2.1819
    -2.1554  -2.1361  -2.1337  -2.1270  -2.1263  -2.1221  -2.1158  -2.1145
    -2.0874  -2.0828  -2.0740  -2.0165  -2.0125  -2.0114  -2.0097  -2.0073
    -1.9748  -1.9535  -1.9527  -1.9257  -1.9242  -1.8661  -1.8645  -1.8351
    -1.8169  -1.8153  -1.7568  -1.7558  -1.7454  -1.7430  -1.7338  -1.7320
    -1.7290  -1.7213  -1.7185  -1.6657  -1.6612  -1.6522  -1.6512  -1.6503
    -1.6343  -1.6297  -1.5972  -1.5956  -1.5794  -1.5783  -1.5777  -1.5713
    -1.5660  -1.5591  -1.5550  -1.5378  -1.5367  -1.4974  -1.4930  -1.4858
    -1.4825  -1.4642  -1.4490  -1.4088  -1.4056  -1.3799  -1.3764  -1.3750
    -1.3461  -1.2964  -1.2934  -1.2921  -1.2912  -1.2871  -1.2857  -1.2765
    -1.2595  -1.2571  -1.2197  -1.2161  -1.1882  -1.1861  -1.1821  -1.1806
    -1.1738  -1.1586  -1.1571  -1.1560  -1.1526  -1.1522  -1.1148  -1.1134
    -1.1129  -1.1123  -1.0836  -1.0805  -1.0778  -1.0527  -1.0475  -1.0444
    -1.0002  -0.9927  -0.9908  -0.9567  -0.9488  -0.9383  -0.9369  -0.9299
    -0.9296  -0.9284  -0.9267  -0.9162  -0.9153  -0.8909  -0.8899  -0.8864
    -0.8850  -0.8837  -0.8474  -0.8469  -0.8398  -0.8353  -0.8204  -0.8138
    -0.8122  -0.8011  -0.7452  -0.7440  -0.7358  -0.7347  -0.7335  -0.7327
    -0.7278  -0.7087  -0.7074  -0.7008  -0.6986  -0.6974  -0.6968  -0.6577
    -0.6563  -0.6545  -0.6472  -0.6457  -0.6414  -0.6396  -0.6285  -0.6237
    -0.6201  -0.6193  -0.5835  -0.5776  -0.5726  -0.5692  -0.5651  -0.5620
    -0.4891  -0.4861  -0.4848  -0.4846  -0.4756  -0.4747  -0.4390  -0.4267
    -0.4259  -0.3949  -0.3939  -0.3921  -0.2744  -0.2700  -0.1703   0.2449
     0.2456   0.2488   0.2490   0.3111   0.3123   0.6973   0.6991   0.7405
     0.7418   0.8538   0.9306   1.0392   1.0449   1.2637   1.2689   1.8954
     1.8964   2.0566   2.0591   2.1904   2.1929   2.2941   2.2945   2.4485
     2.6858   2.6971   2.8097   3.0319   3.0385   3.1167   3.1180   3.2172
     3.2335   3.4283   3.4450   3.4891   3.6896   3.6918   3.7518   3.7562
     4.0099   4.0176   4.0196   4.2608   4.3012   4.3029   4.3481   4.6815
     4.6863   4.7127   4.8478   5.0208   5.0224   5.0822   5.0995   5.5475
     5.7889   5.8068   5.8134   5.8222   5.8703   5.8828   5.8853   5.9830
     5.9943   6.0175   6.0449   6.0488   6.0692   6.0829   6.1067   6.1078
     6.1966   6.5163   6.5962   6.6835   6.7178   6.7527   6.7617   6.7658
     6.8092   6.8748   6.9683

          k =-0.2500 0.4330-0.1111 (136853 PWs)   bands (ev):

   -18.5757  -6.4694  -6.4038  -6.0712  -6.0683  -5.3928  -5.0593  -5.0574
    -5.0223  -5.0174  -4.6588  -4.6569  -4.5594  -4.5592  -4.5450  -4.5223
    -4.5009  -4.3922  -4.3914  -4.3675  -4.3241  -4.3239  -4.2559  -4.2546
    -4.2502  -4.2473  -4.2267  -4.2227  -4.2187  -4.1536  -4.1467  -4.1194
    -4.1174  -4.1068  -4.1058  -4.0832  -4.0829  -4.0605  -4.0523  -4.0518
    -4.0259  -3.9734  -3.9730  -3.9261  -3.9239  -3.8665  -3.8659  -3.8122
    -3.8110  -3.8108  -3.8104  -3.7753  -3.7378  -3.7366  -3.7295  -3.7288
    -3.7278  -3.7007  -3.6960  -3.6885  -3.6283  -3.6274  -3.6194  -3.6012
    -3.5937  -3.5237  -3.5208  -3.4907  -3.4864  -3.4606  -3.4596  -3.4462
    -3.4303  -3.3708  -3.3700  -3.3524  -3.3520  -3.3009  -3.2962  -3.2955
    -3.2563  -3.2280  -3.2242  -3.2180  -3.2166  -3.2044  -3.2037  -3.1961
    -3.1953  -3.1862  -3.1451  -3.1079  -3.1064  -3.0929  -3.0918  -3.0655
    -3.0580  -3.0560  -3.0377  -2.9930  -2.9896  -2.9814  -2.9418  -2.9366
    -2.9244  -2.9238  -2.8957  -2.8953  -2.8657  -2.8292  -2.8271  -2.8062
    -2.7976  -2.7885  -2.7830  -2.7517  -2.7335  -2.7206  -2.6994  -2.6776
    -2.6751  -2.6539  -2.6498  -2.6417  -2.6374  -2.6302  -2.6086  -2.6071
    -2.5623  -2.5616  -2.5610  -2.5458  -2.5442  -2.5389  -2.5306  -2.5279
    -2.5274  -2.5256  -2.5210  -2.5095  -2.5080  -2.5004  -2.4739  -2.4713
    -2.4702  -2.4685  -2.4675  -2.4656  -2.4624  -2.4389  -2.4351  -2.4220
    -2.4202  -2.4030  -2.4013  -2.3931  -2.3921  -2.3916  -2.3892  -2.3723
    -2.3701  -2.3678  -2.3661  -2.3499  -2.3257  -2.3242  -2.2855  -2.2838
    -2.2610  -2.2589  -2.2323  -2.2306  -2.2055  -2.2028  -2.1869  -2.1818
    -2.1553  -2.1360  -2.1338  -2.1270  -2.1263  -2.1222  -2.1157  -2.1147
    -2.0872  -2.0825  -2.0740  -2.0165  -2.0128  -2.0114  -2.0099  -2.0075
    -1.9749  -1.9540  -1.9521  -1.9259  -1.9240  -1.8659  -1.8645  -1.8355
    -1.8168  -1.8153  -1.7568  -1.7558  -1.7455  -1.7429  -1.7337  -1.7319
    -1.7291  -1.7214  -1.7186  -1.6657  -1.6609  -1.6525  -1.6511  -1.6502
    -1.6344  -1.6295  -1.5974  -1.5955  -1.5797  -1.5784  -1.5775  -1.5709
    -1.5660  -1.5591  -1.5551  -1.5384  -1.5361  -1.4973  -1.4929  -1.4860
    -1.4822  -1.4641  -1.4490  -1.4085  -1.4060  -1.3801  -1.3766  -1.3747
    -1.3462  -1.2965  -1.2934  -1.2922  -1.2914  -1.2872  -1.2859  -1.2766
    -1.2591  -1.2572  -1.2197  -1.2160  -1.1884  -1.1859  -1.1826  -1.1803
    -1.1737  -1.1587  -1.1571  -1.1560  -1.1524  -1.1518  -1.1151  -1.1133
    -1.1128  -1.1122  -1.0839  -1.0805  -1.0774  -1.0529  -1.0472  -1.0445
    -1.0004  -0.9927  -0.9906  -0.9568  -0.9485  -0.9386  -0.9365  -0.9299
    -0.9296  -0.9286  -0.9266  -0.9164  -0.9152  -0.8913  -0.8896  -0.8864
    -0.8854  -0.8835  -0.8473  -0.8468  -0.8402  -0.8352  -0.8203  -0.8138
    -0.8123  -0.8009  -0.7452  -0.7439  -0.7360  -0.7350  -0.7334  -0.7327
    -0.7278  -0.7089  -0.7072  -0.7009  -0.6984  -0.6973  -0.6967  -0.6578
    -0.6562  -0.6545  -0.6471  -0.6459  -0.6412  -0.6396  -0.6279  -0.6235
    -0.6204  -0.6192  -0.5832  -0.5777  -0.5723  -0.5692  -0.5650  -0.5628
    -0.4894  -0.4861  -0.4846  -0.4846  -0.4755  -0.4747  -0.4389  -0.4268
    -0.4258  -0.3950  -0.3939  -0.3919  -0.2752  -0.2697  -0.1706   0.2451
     0.2457   0.2485   0.2491   0.3104   0.3131   0.6977   0.6990   0.7401
     0.7419   0.8537   0.9306   1.0390   1.0450   1.2631   1.2695   1.8946
     1.8970   2.0561   2.0597   2.1891   2.1941   2.2939   2.2947   2.4483
     2.6861   2.6972   2.8097   3.0315   3.0390   3.1161   3.1187   3.2174
     3.2335   3.4268   3.4463   3.4894   3.6898   3.6917   3.7503   3.7575
     4.0096   4.0167   4.0208   4.2613   4.3002   4.3035   4.3479   4.6819
     4.6858   4.7123   4.8469   5.0204   5.0227   5.0767   5.1037   5.5506
     5.7843   5.8060   5.8151   5.8208   5.8748   5.8825   5.8853   5.9830
     5.9928   6.0182   6.0465   6.0483   6.0679   6.0844   6.1074   6.1082
     6.1953   6.5117   6.6007   6.6749   6.7248   6.7515   6.7623   6.7659
     6.8094   6.8758   6.9710

          k = 0.2500-0.4330-0.1111 (136853 PWs)   bands (ev):

   -18.5757  -6.4694  -6.4038  -6.0712  -6.0683  -5.3928  -5.0593  -5.0574
    -5.0223  -5.0174  -4.6588  -4.6569  -4.5594  -4.5591  -4.5450  -4.5223
    -4.5009  -4.3922  -4.3914  -4.3675  -4.3241  -4.3239  -4.2559  -4.2546
    -4.2502  -4.2473  -4.2267  -4.2227  -4.2187  -4.1536  -4.1467  -4.1194
    -4.1174  -4.1068  -4.1058  -4.0832  -4.0829  -4.0605  -4.0523  -4.0518
    -4.0259  -3.9734  -3.9730  -3.9261  -3.9239  -3.8665  -3.8659  -3.8122
    -3.8110  -3.8108  -3.8104  -3.7753  -3.7378  -3.7366  -3.7295  -3.7288
    -3.7278  -3.7007  -3.6960  -3.6885  -3.6283  -3.6274  -3.6194  -3.6012
    -3.5937  -3.5237  -3.5208  -3.4907  -3.4864  -3.4606  -3.4596  -3.4462
    -3.4303  -3.3708  -3.3700  -3.3524  -3.3520  -3.3009  -3.2962  -3.2955
    -3.2563  -3.2280  -3.2242  -3.2180  -3.2166  -3.2044  -3.2037  -3.1961
    -3.1953  -3.1862  -3.1451  -3.1079  -3.1064  -3.0929  -3.0918  -3.0655
    -3.0580  -3.0560  -3.0377  -2.9930  -2.9896  -2.9814  -2.9418  -2.9366
    -2.9244  -2.9238  -2.8957  -2.8953  -2.8657  -2.8292  -2.8271  -2.8062
    -2.7976  -2.7885  -2.7830  -2.7517  -2.7335  -2.7206  -2.6994  -2.6776
    -2.6751  -2.6539  -2.6498  -2.6417  -2.6374  -2.6302  -2.6086  -2.6071
    -2.5623  -2.5616  -2.5610  -2.5458  -2.5442  -2.5389  -2.5306  -2.5279
    -2.5274  -2.5256  -2.5210  -2.5095  -2.5080  -2.5004  -2.4739  -2.4713
    -2.4702  -2.4685  -2.4675  -2.4656  -2.4624  -2.4389  -2.4351  -2.4220
    -2.4202  -2.4030  -2.4013  -2.3931  -2.3921  -2.3916  -2.3892  -2.3723
    -2.3701  -2.3678  -2.3661  -2.3499  -2.3257  -2.3242  -2.2855  -2.2838
    -2.2610  -2.2589  -2.2323  -2.2306  -2.2055  -2.2028  -2.1869  -2.1818
    -2.1553  -2.1360  -2.1338  -2.1270  -2.1263  -2.1222  -2.1157  -2.1147
    -2.0872  -2.0825  -2.0740  -2.0165  -2.0128  -2.0114  -2.0099  -2.0075
    -1.9749  -1.9540  -1.9521  -1.9259  -1.9240  -1.8659  -1.8645  -1.8355
    -1.8168  -1.8153  -1.7568  -1.7558  -1.7455  -1.7429  -1.7337  -1.7319
    -1.7291  -1.7214  -1.7186  -1.6657  -1.6609  -1.6525  -1.6511  -1.6502
    -1.6344  -1.6295  -1.5974  -1.5955  -1.5797  -1.5784  -1.5775  -1.5709
    -1.5660  -1.5591  -1.5551  -1.5384  -1.5361  -1.4973  -1.4929  -1.4860
    -1.4822  -1.4641  -1.4490  -1.4085  -1.4060  -1.3801  -1.3766  -1.3747
    -1.3462  -1.2965  -1.2934  -1.2922  -1.2914  -1.2872  -1.2859  -1.2766
    -1.2591  -1.2572  -1.2197  -1.2160  -1.1884  -1.1859  -1.1826  -1.1803
    -1.1737  -1.1587  -1.1571  -1.1560  -1.1524  -1.1518  -1.1151  -1.1133
    -1.1128  -1.1122  -1.0839  -1.0805  -1.0774  -1.0529  -1.0472  -1.0445
    -1.0004  -0.9927  -0.9906  -0.9568  -0.9485  -0.9386  -0.9365  -0.9299
    -0.9296  -0.9286  -0.9266  -0.9164  -0.9152  -0.8913  -0.8896  -0.8864
    -0.8854  -0.8835  -0.8473  -0.8468  -0.8402  -0.8352  -0.8203  -0.8138
    -0.8123  -0.8009  -0.7452  -0.7439  -0.7360  -0.7350  -0.7334  -0.7327
    -0.7278  -0.7089  -0.7072  -0.7009  -0.6984  -0.6973  -0.6967  -0.6578
    -0.6562  -0.6545  -0.6471  -0.6459  -0.6412  -0.6396  -0.6279  -0.6235
    -0.6204  -0.6192  -0.5832  -0.5777  -0.5723  -0.5692  -0.5650  -0.5628
    -0.4894  -0.4861  -0.4846  -0.4846  -0.4755  -0.4747  -0.4389  -0.4268
    -0.4258  -0.3950  -0.3939  -0.3919  -0.2752  -0.2697  -0.1706   0.2451
     0.2457   0.2485   0.2491   0.3104   0.3131   0.6977   0.6990   0.7401
     0.7419   0.8537   0.9306   1.0390   1.0450   1.2631   1.2695   1.8946
     1.8970   2.0561   2.0597   2.1891   2.1941   2.2939   2.2947   2.4483
     2.6861   2.6972   2.8097   3.0315   3.0390   3.1161   3.1187   3.2174
     3.2335   3.4268   3.4463   3.4894   3.6898   3.6917   3.7503   3.7575
     4.0096   4.0167   4.0208   4.2613   4.3002   4.3035   4.3479   4.6819
     4.6858   4.7123   4.8469   5.0204   5.0227   5.0767   5.1037   5.5505
     5.7843   5.8060   5.8151   5.8208   5.8748   5.8825   5.8853   5.9830
     5.9928   6.0182   6.0465   6.0483   6.0679   6.0844   6.1074   6.1082
     6.1953   6.5116   6.6006   6.6750   6.7248   6.7516   6.7623   6.7658
     6.8096   6.8758   6.9713

          k = 0.5000 0.0000 0.1111 (136853 PWs)   bands (ev):

   -18.5757  -6.4692  -6.4040  -6.0718  -6.0676  -5.3928  -5.0590  -5.0576
    -5.0230  -5.0167  -4.6586  -4.6571  -4.5595  -4.5591  -4.5450  -4.5222
    -4.5011  -4.3927  -4.3908  -4.3675  -4.3241  -4.3239  -4.2558  -4.2547
    -4.2492  -4.2481  -4.2267  -4.2223  -4.2192  -4.1534  -4.1469  -4.1195
    -4.1173  -4.1063  -4.1063  -4.0831  -4.0829  -4.0605  -4.0522  -4.0519
    -4.0260  -3.9735  -3.9729  -3.9263  -3.9237  -3.8666  -3.8661  -3.8126
    -3.8110  -3.8108  -3.8103  -3.7753  -3.7376  -3.7373  -3.7295  -3.7284
    -3.7281  -3.6985  -3.6973  -3.6889  -3.6283  -3.6276  -3.6188  -3.6013
    -3.5938  -3.5223  -3.5218  -3.4892  -3.4874  -3.4612  -3.4592  -3.4462
    -3.4304  -3.3710  -3.3700  -3.3526  -3.3517  -3.3009  -3.2960  -3.2957
    -3.2562  -3.2269  -3.2252  -3.2182  -3.2161  -3.2046  -3.2041  -3.1959
    -3.1951  -3.1863  -3.1451  -3.1084  -3.1058  -3.0925  -3.0921  -3.0655
    -3.0570  -3.0567  -3.0377  -2.9938  -2.9888  -2.9814  -2.9421  -2.9365
    -2.9257  -2.9226  -2.8957  -2.8946  -2.8658  -2.8290  -2.8274  -2.8065
    -2.7976  -2.7894  -2.7832  -2.7511  -2.7328  -2.7216  -2.6997  -2.6773
    -2.6761  -2.6538  -2.6489  -2.6419  -2.6376  -2.6301  -2.6086  -2.6073
    -2.5623  -2.5618  -2.5608  -2.5456  -2.5442  -2.5388  -2.5305  -2.5283
    -2.5271  -2.5255  -2.5211  -2.5109  -2.5071  -2.4998  -2.4734  -2.4723
    -2.4702  -2.4686  -2.4670  -2.4655  -2.4625  -2.4388  -2.4351  -2.4215
    -2.4207  -2.4030  -2.4014  -2.3933  -2.3919  -2.3915  -2.3893  -2.3712
    -2.3697  -2.3688  -2.3663  -2.3499  -2.3256  -2.3246  -2.2857  -2.2837
    -2.2607  -2.2593  -2.2323  -2.2307  -2.2049  -2.2033  -2.1870  -2.1817
    -2.1553  -2.1361  -2.1336  -2.1277  -2.1256  -2.1226  -2.1160  -2.1145
    -2.0875  -2.0823  -2.0740  -2.0166  -2.0127  -2.0120  -2.0093  -2.0073
    -1.9749  -1.9541  -1.9520  -1.9254  -1.9244  -1.8664  -1.8641  -1.8354
    -1.8172  -1.8150  -1.7569  -1.7555  -1.7451  -1.7432  -1.7335  -1.7323
    -1.7291  -1.7211  -1.7189  -1.6648  -1.6615  -1.6521  -1.6516  -1.6506
    -1.6335  -1.6301  -1.5970  -1.5960  -1.5792  -1.5783  -1.5779  -1.5710
    -1.5662  -1.5586  -1.5555  -1.5375  -1.5369  -1.4969  -1.4929  -1.4851
    -1.4830  -1.4642  -1.4490  -1.4089  -1.4057  -1.3802  -1.3762  -1.3754
    -1.3463  -1.2964  -1.2929  -1.2923  -1.2916  -1.2874  -1.2860  -1.2763
    -1.2594  -1.2569  -1.2192  -1.2165  -1.1876  -1.1869  -1.1815  -1.1809
    -1.1738  -1.1581  -1.1572  -1.1562  -1.1526  -1.1522  -1.1145  -1.1138
    -1.1130  -1.1122  -1.0823  -1.0807  -1.0779  -1.0534  -1.0469  -1.0444
    -0.9999  -0.9929  -0.9913  -0.9566  -0.9489  -0.9381  -0.9372  -0.9297
    -0.9290  -0.9281  -0.9274  -0.9163  -0.9156  -0.8909  -0.8898  -0.8867
    -0.8846  -0.8841  -0.8472  -0.8470  -0.8376  -0.8358  -0.8216  -0.8143
    -0.8125  -0.8009  -0.7452  -0.7439  -0.7349  -0.7348  -0.7333  -0.7325
    -0.7276  -0.7082  -0.7074  -0.7003  -0.6990  -0.6974  -0.6969  -0.6578
    -0.6563  -0.6545  -0.6475  -0.6459  -0.6425  -0.6397  -0.6305  -0.6239
    -0.6201  -0.6191  -0.5841  -0.5777  -0.5740  -0.5694  -0.5652  -0.5597
    -0.4886  -0.4861  -0.4847  -0.4844  -0.4757  -0.4749  -0.4389  -0.4263
    -0.4262  -0.3959  -0.3939  -0.3917  -0.2717  -0.2707  -0.1694   0.2450
     0.2454   0.2488   0.2491   0.3086   0.3135   0.6963   0.6991   0.7402
     0.7423   0.8539   0.9313   1.0416   1.0436   1.2660   1.2665   1.8934
     1.8972   2.0562   2.0601   2.1888   2.1946   2.2935   2.2950   2.4482
     2.6857   2.6966   2.8097   3.0330   3.0373   3.1160   3.1189   3.2163
     3.2336   3.4340   3.4395   3.4890   3.6897   3.6920   3.7530   3.7555
     4.0097   4.0168   4.0201   4.2613   4.3009   4.3036   4.3477   4.6811
     4.6867   4.7115   4.8490   5.0208   5.0227   5.0859   5.1025   5.5352
     5.7972   5.8090   5.8185   5.8230   5.8530   5.8834   5.8846   5.9802
     5.9966   6.0180   6.0440   6.0513   6.0738   6.0768   6.1058   6.1092
     6.2002   6.5462   6.5718   6.6843   6.7232   6.7574   6.7610   6.7633
     6.8090   6.8734   6.9678

          k =-0.5000 0.0000 0.1111 (136853 PWs)   bands (ev):

   -18.5757  -6.4692  -6.4040  -6.0718  -6.0676  -5.3928  -5.0590  -5.0576
    -5.0230  -5.0167  -4.6586  -4.6571  -4.5595  -4.5591  -4.5450  -4.5222
    -4.5011  -4.3927  -4.3908  -4.3675  -4.3241  -4.3239  -4.2558  -4.2547
    -4.2492  -4.2481  -4.2267  -4.2223  -4.2192  -4.1534  -4.1469  -4.1195
    -4.1173  -4.1063  -4.1063  -4.0831  -4.0829  -4.0605  -4.0522  -4.0519
    -4.0260  -3.9735  -3.9729  -3.9263  -3.9237  -3.8666  -3.8661  -3.8126
    -3.8110  -3.8108  -3.8103  -3.7753  -3.7376  -3.7373  -3.7295  -3.7284
    -3.7281  -3.6985  -3.6973  -3.6889  -3.6283  -3.6276  -3.6188  -3.6013
    -3.5938  -3.5223  -3.5218  -3.4892  -3.4874  -3.4612  -3.4592  -3.4462
    -3.4304  -3.3711  -3.3700  -3.3526  -3.3517  -3.3009  -3.2960  -3.2957
    -3.2562  -3.2269  -3.2252  -3.2182  -3.2161  -3.2046  -3.2041  -3.1959
    -3.1951  -3.1863  -3.1451  -3.1084  -3.1058  -3.0926  -3.0921  -3.0655
    -3.0570  -3.0567  -3.0377  -2.9938  -2.9888  -2.9814  -2.9421  -2.9365
    -2.9257  -2.9226  -2.8957  -2.8946  -2.8658  -2.8290  -2.8274  -2.8065
    -2.7976  -2.7894  -2.7832  -2.7511  -2.7328  -2.7216  -2.6997  -2.6773
    -2.6761  -2.6538  -2.6489  -2.6419  -2.6376  -2.6301  -2.6086  -2.6073
    -2.5623  -2.5618  -2.5608  -2.5456  -2.5442  -2.5388  -2.5305  -2.5283
    -2.5271  -2.5255  -2.5211  -2.5109  -2.5071  -2.4998  -2.4734  -2.4723
    -2.4702  -2.4686  -2.4670  -2.4655  -2.4625  -2.4388  -2.4351  -2.4215
    -2.4207  -2.4030  -2.4014  -2.3933  -2.3919  -2.3915  -2.3893  -2.3712
    -2.3697  -2.3688  -2.3663  -2.3499  -2.3256  -2.3246  -2.2857  -2.2837
    -2.2607  -2.2593  -2.2323  -2.2307  -2.2049  -2.2033  -2.1870  -2.1817
    -2.1553  -2.1361  -2.1336  -2.1277  -2.1256  -2.1226  -2.1160  -2.1145
    -2.0875  -2.0823  -2.0740  -2.0166  -2.0127  -2.0120  -2.0093  -2.0073
    -1.9749  -1.9541  -1.9520  -1.9254  -1.9244  -1.8664  -1.8641  -1.8354
    -1.8172  -1.8150  -1.7569  -1.7555  -1.7451  -1.7432  -1.7335  -1.7323
    -1.7291  -1.7211  -1.7189  -1.6648  -1.6615  -1.6521  -1.6516  -1.6506
    -1.6335  -1.6301  -1.5970  -1.5960  -1.5792  -1.5783  -1.5779  -1.5710
    -1.5662  -1.5586  -1.5555  -1.5375  -1.5369  -1.4969  -1.4929  -1.4851
    -1.4830  -1.4642  -1.4490  -1.4089  -1.4057  -1.3802  -1.3762  -1.3754
    -1.3463  -1.2964  -1.2929  -1.2923  -1.2916  -1.2874  -1.2860  -1.2763
    -1.2594  -1.2569  -1.2192  -1.2165  -1.1876  -1.1869  -1.1815  -1.1809
    -1.1738  -1.1581  -1.1572  -1.1562  -1.1526  -1.1522  -1.1145  -1.1138
    -1.1130  -1.1122  -1.0823  -1.0807  -1.0779  -1.0534  -1.0469  -1.0444
    -0.9999  -0.9929  -0.9913  -0.9566  -0.9489  -0.9381  -0.9372  -0.9297
    -0.9290  -0.9281  -0.9274  -0.9163  -0.9156  -0.8909  -0.8898  -0.8867
    -0.8846  -0.8841  -0.8472  -0.8470  -0.8376  -0.8358  -0.8216  -0.8143
    -0.8125  -0.8009  -0.7452  -0.7439  -0.7349  -0.7348  -0.7333  -0.7325
    -0.7276  -0.7082  -0.7074  -0.7003  -0.6990  -0.6974  -0.6969  -0.6578
    -0.6563  -0.6545  -0.6475  -0.6459  -0.6425  -0.6397  -0.6305  -0.6239
    -0.6201  -0.6191  -0.5841  -0.5777  -0.5740  -0.5694  -0.5652  -0.5597
    -0.4886  -0.4861  -0.4847  -0.4844  -0.4757  -0.4749  -0.4389  -0.4263
    -0.4262  -0.3959  -0.3939  -0.3917  -0.2717  -0.2707  -0.1694   0.2450
     0.2454   0.2488   0.2491   0.3086   0.3135   0.6963   0.6991   0.7402
     0.7423   0.8539   0.9313   1.0416   1.0436   1.2660   1.2665   1.8934
     1.8972   2.0562   2.0601   2.1888   2.1946   2.2935   2.2950   2.4482
     2.6857   2.6966   2.8097   3.0330   3.0373   3.1160   3.1189   3.2163
     3.2336   3.4340   3.4395   3.4890   3.6897   3.6920   3.7530   3.7555
     4.0097   4.0168   4.0201   4.2613   4.3009   4.3036   4.3477   4.6811
     4.6867   4.7115   4.8490   5.0208   5.0227   5.0859   5.1025   5.5352
     5.7972   5.8090   5.8185   5.8230   5.8530   5.8834   5.8846   5.9802
     5.9966   6.0180   6.0440   6.0513   6.0738   6.0768   6.1058   6.1092
     6.2002   6.5462   6.5717   6.6843   6.7232   6.7575   6.7610   6.7633
     6.8090   6.8734   6.9678

          k =-0.2500 0.1443 0.1111 (136898 PWs)   bands (ev):

   -18.5757  -6.6791  -6.4040  -5.8870  -5.5968  -5.5369  -5.5363  -4.9984
    -4.9980  -4.8675  -4.8659  -4.7109  -4.6826  -4.6185  -4.5866  -4.5845
    -4.5516  -4.5514  -4.4229  -4.3811  -4.3810  -4.3215  -4.3010  -4.2999
    -4.1977  -4.1975  -4.1617  -4.1612  -4.1610  -4.1345  -4.1127  -4.1126
    -4.0092  -4.0055  -4.0055  -3.9851  -3.9682  -3.9677  -3.9561  -3.9553
    -3.9425  -3.9125  -3.9120  -3.9118  -3.9115  -3.8792  -3.8787  -3.8615
    -3.8611  -3.8486  -3.8058  -3.8046  -3.7739  -3.7597  -3.7577  -3.7528
    -3.7528  -3.6785  -3.6783  -3.6439  -3.6422  -3.6405  -3.5730  -3.5726
    -3.5584  -3.5571  -3.5271  -3.5268  -3.5258  -3.5251  -3.3724  -3.3712
    -3.3473  -3.3465  -3.3417  -3.3256  -3.3247  -3.2994  -3.2992  -3.2497
    -3.2488  -3.2334  -3.2325  -3.2126  -3.1649  -3.1642  -3.1451  -3.1401
    -3.1388  -3.0998  -3.0982  -3.0924  -3.0909  -3.0767  -3.0744  -3.0362
    -3.0353  -3.0147  -3.0143  -3.0117  -3.0101  -3.0069  -2.9325  -2.9300
    -2.9294  -2.9028  -2.8989  -2.8388  -2.8384  -2.8134  -2.8081  -2.7983
    -2.7947  -2.7906  -2.7610  -2.7599  -2.7527  -2.7436  -2.7287  -2.7078
    -2.7070  -2.6980  -2.6856  -2.6848  -2.6745  -2.6736  -2.6706  -2.6619
    -2.6604  -2.6162  -2.5842  -2.5840  -2.5663  -2.5537  -2.5482  -2.5457
    -2.5399  -2.5391  -2.5382  -2.5091  -2.5084  -2.5049  -2.4983  -2.4966
    -2.4817  -2.4540  -2.4531  -2.4526  -2.4518  -2.4495  -2.4063  -2.3752
    -2.3745  -2.3734  -2.3672  -2.3588  -2.3475  -2.3456  -2.3291  -2.3291
    -2.2966  -2.2942  -2.2939  -2.2752  -2.2747  -2.2744  -2.2420  -2.2410
    -2.2017  -2.1984  -2.1925  -2.1900  -2.1898  -2.1838  -2.1836  -2.1803
    -2.1799  -2.1737  -2.1731  -2.1572  -2.1567  -2.0304  -2.0302  -1.9963
    -1.9908  -1.9904  -1.9846  -1.9840  -1.9678  -1.9669  -1.9645  -1.9638
    -1.9604  -1.9394  -1.9328  -1.9318  -1.9220  -1.9183  -1.9177  -1.8965
    -1.8952  -1.8680  -1.8670  -1.8367  -1.8360  -1.8252  -1.8166  -1.7987
    -1.7984  -1.7957  -1.7779  -1.7650  -1.7644  -1.7576  -1.7571  -1.7314
    -1.7311  -1.7141  -1.7139  -1.6817  -1.6784  -1.6715  -1.6220  -1.6211
    -1.6075  -1.6070  -1.6047  -1.5816  -1.5789  -1.5464  -1.5451  -1.5448
    -1.5104  -1.5016  -1.5006  -1.4852  -1.4848  -1.4601  -1.4575  -1.4557
    -1.4278  -1.4248  -1.4245  -1.3626  -1.3614  -1.3492  -1.3485  -1.3330
    -1.3319  -1.3195  -1.3192  -1.3013  -1.2884  -1.2611  -1.2600  -1.2486
    -1.2187  -1.2105  -1.2101  -1.1987  -1.1986  -1.1961  -1.1915  -1.1910
    -1.1774  -1.1485  -1.1470  -1.1361  -1.1341  -1.1330  -1.1316  -1.1109
    -1.0915  -1.0894  -1.0700  -1.0694  -0.9775  -0.9642  -0.9588  -0.9584
    -0.9548  -0.9489  -0.9487  -0.9280  -0.9245  -0.9086  -0.9076  -0.8937
    -0.8934  -0.8849  -0.8651  -0.8631  -0.8615  -0.8535  -0.7818  -0.7808
    -0.7484  -0.7466  -0.7427  -0.7361  -0.7351  -0.7340  -0.7336  -0.7211
    -0.7207  -0.7043  -0.6793  -0.6663  -0.6462  -0.6452  -0.6339  -0.6336
    -0.6225  -0.6208  -0.6206  -0.6193  -0.6178  -0.6009  -0.5967  -0.5961
    -0.5749  -0.5656  -0.5641  -0.5632  -0.5514  -0.5508  -0.5321  -0.5001
    -0.4999  -0.4908  -0.4902  -0.4230  -0.4222  -0.3856  -0.3850  -0.3275
    -0.3265  -0.3259  -0.3111  -0.2996  -0.0720  -0.0698   0.2738   0.2739
     0.3662   0.3685   0.5608   0.5773   0.5915   0.7217   0.7224   1.1539
     1.1541   1.1719   1.4330   1.4638   1.4642   1.7430   1.7446   1.8195
     1.8197   1.8480   1.8485   2.0753   2.0770   2.1651   2.1654   2.2432
     2.3057   2.3066   2.4682   2.5675   3.0053   3.0071   3.0104   3.0114
     3.0638   3.0665   3.3577   3.3583   3.6403   3.6412   3.7503   4.0541
     4.0956   4.0975   4.3243   4.3277   4.3971   4.3972   4.4888   4.6071
     4.6080   4.7239   4.7249   5.0278   5.0955   5.0977   5.2677   5.2781
     5.4224   5.4843   5.4865   5.5115   5.5127   5.5745   5.5758   5.6300
     5.9422   6.0348   6.1815   6.2594   6.2694   6.3154   6.3190   6.3312
     6.3331   6.5687   6.5717   6.6379   6.7245   6.8010   6.8051   6.8517
     6.8551   7.0820   7.1036

          k =-0.2500-0.1443-0.1111 (136898 PWs)   bands (ev):

   -18.5757  -6.6791  -6.4040  -5.8871  -5.5967  -5.5369  -5.5364  -4.9984
    -4.9980  -4.8677  -4.8659  -4.7109  -4.6826  -4.6187  -4.5864  -4.5846
    -4.5515  -4.5513  -4.4228  -4.3811  -4.3810  -4.3214  -4.3010  -4.3000
    -4.1977  -4.1975  -4.1617  -4.1613  -4.1610  -4.1345  -4.1128  -4.1125
    -4.0094  -4.0057  -4.0054  -3.9851  -3.9683  -3.9678  -3.9560  -3.9554
    -3.9424  -3.9124  -3.9120  -3.9117  -3.9114  -3.8794  -3.8786  -3.8614
    -3.8610  -3.8486  -3.8060  -3.8044  -3.7742  -3.7595  -3.7578  -3.7529
    -3.7527  -3.6786  -3.6783  -3.6438  -3.6419  -3.6405  -3.5732  -3.5728
    -3.5583  -3.5570  -3.5269  -3.5266  -3.5261  -3.5255  -3.3725  -3.3713
    -3.3474  -3.3464  -3.3417  -3.3256  -3.3247  -3.2994  -3.2989  -3.2497
    -3.2489  -3.2334  -3.2325  -3.2125  -3.1650  -3.1638  -3.1452  -3.1403
    -3.1390  -3.0999  -3.0983  -3.0923  -3.0909  -3.0767  -3.0745  -3.0360
    -3.0351  -3.0145  -3.0143  -3.0116  -3.0100  -3.0070  -2.9323  -2.9301
    -2.9297  -2.9028  -2.8990  -2.8387  -2.8383  -2.8134  -2.8081  -2.7984
    -2.7946  -2.7905  -2.7607  -2.7600  -2.7526  -2.7436  -2.7283  -2.7080
    -2.7073  -2.6987  -2.6855  -2.6849  -2.6746  -2.6736  -2.6706  -2.6619
    -2.6602  -2.6161  -2.5843  -2.5841  -2.5662  -2.5539  -2.5481  -2.5457
    -2.5400  -2.5390  -2.5384  -2.5092  -2.5080  -2.5051  -2.4982  -2.4965
    -2.4815  -2.4542  -2.4536  -2.4524  -2.4516  -2.4494  -2.4065  -2.3751
    -2.3745  -2.3735  -2.3672  -2.3588  -2.3478  -2.3451  -2.3290  -2.3289
    -2.2966  -2.2940  -2.2938  -2.2753  -2.2748  -2.2745  -2.2419  -2.2411
    -2.2017  -2.1984  -2.1923  -2.1900  -2.1898  -2.1839  -2.1835  -2.1806
    -2.1798  -2.1738  -2.1731  -2.1572  -2.1569  -2.0305  -2.0302  -1.9962
    -1.9907  -1.9905  -1.9845  -1.9837  -1.9681  -1.9674  -1.9646  -1.9639
    -1.9599  -1.9394  -1.9328  -1.9316  -1.9220  -1.9180  -1.9174  -1.8967
    -1.8955  -1.8680  -1.8671  -1.8367  -1.8360  -1.8250  -1.8165  -1.7986
    -1.7984  -1.7955  -1.7779  -1.7651  -1.7645  -1.7577  -1.7572  -1.7311
    -1.7310  -1.7143  -1.7136  -1.6819  -1.6786  -1.6717  -1.6222  -1.6208
    -1.6076  -1.6071  -1.6047  -1.5818  -1.5786  -1.5464  -1.5449  -1.5447
    -1.5105  -1.5016  -1.5004  -1.4851  -1.4847  -1.4601  -1.4576  -1.4557
    -1.4277  -1.4249  -1.4245  -1.3627  -1.3617  -1.3491  -1.3486  -1.3332
    -1.3318  -1.3192  -1.3190  -1.3009  -1.2881  -1.2612  -1.2600  -1.2486
    -1.2186  -1.2106  -1.2099  -1.1987  -1.1987  -1.1964  -1.1917  -1.1911
    -1.1773  -1.1486  -1.1469  -1.1358  -1.1344  -1.1329  -1.1314  -1.1110
    -1.0918  -1.0896  -1.0697  -1.0695  -0.9773  -0.9642  -0.9587  -0.9583
    -0.9546  -0.9492  -0.9488  -0.9281  -0.9245  -0.9084  -0.9077  -0.8937
    -0.8935  -0.8852  -0.8649  -0.8631  -0.8616  -0.8536  -0.7819  -0.7806
    -0.7484  -0.7467  -0.7427  -0.7360  -0.7351  -0.7340  -0.7337  -0.7213
    -0.7203  -0.7044  -0.6792  -0.6667  -0.6460  -0.6452  -0.6339  -0.6337
    -0.6221  -0.6211  -0.6205  -0.6193  -0.6179  -0.6008  -0.5968  -0.5963
    -0.5750  -0.5656  -0.5641  -0.5631  -0.5514  -0.5507  -0.5322  -0.5001
    -0.4999  -0.4908  -0.4901  -0.4232  -0.4221  -0.3858  -0.3849  -0.3277
    -0.3265  -0.3257  -0.3109  -0.2996  -0.0726  -0.0693   0.2738   0.2739
     0.3657   0.3691   0.5606   0.5774   0.5916   0.7216   0.7225   1.1539
     1.1542   1.1722   1.4330   1.4638   1.4642   1.7420   1.7454   1.8193
     1.8197   1.8478   1.8488   2.0747   2.0771   2.1652   2.1654   2.2433
     2.3049   2.3072   2.4682   2.5675   3.0055   3.0071   3.0104   3.0113
     3.0630   3.0671   3.3573   3.3586   3.6403   3.6413   3.7498   4.0542
     4.0957   4.0968   4.3249   4.3283   4.3968   4.3977   4.4885   4.6068
     4.6084   4.7245   4.7252   5.0276   5.0966   5.0980   5.2690   5.2785
     5.4196   5.4844   5.4859   5.5113   5.5131   5.5752   5.5758   5.6283
     5.9396   6.0399   6.1802   6.2609   6.2683   6.3147   6.3195   6.3317
     6.3331   6.5703   6.5718   6.6377   6.7252   6.7992   6.8055   6.8441
     6.8625   7.0810   7.1042

          k = 0.2500 0.1443-0.1111 (136898 PWs)   bands (ev):

   -18.5757  -6.6791  -6.4040  -5.8871  -5.5967  -5.5369  -5.5364  -4.9984
    -4.9980  -4.8677  -4.8659  -4.7109  -4.6826  -4.6187  -4.5864  -4.5846
    -4.5515  -4.5513  -4.4228  -4.3811  -4.3810  -4.3214  -4.3010  -4.3000
    -4.1977  -4.1975  -4.1617  -4.1613  -4.1610  -4.1345  -4.1128  -4.1125
    -4.0094  -4.0057  -4.0054  -3.9851  -3.9683  -3.9678  -3.9560  -3.9554
    -3.9424  -3.9124  -3.9120  -3.9117  -3.9114  -3.8794  -3.8786  -3.8614
    -3.8610  -3.8486  -3.8060  -3.8044  -3.7742  -3.7595  -3.7578  -3.7529
    -3.7527  -3.6786  -3.6783  -3.6438  -3.6419  -3.6405  -3.5732  -3.5728
    -3.5583  -3.5570  -3.5269  -3.5266  -3.5261  -3.5255  -3.3725  -3.3713
    -3.3474  -3.3464  -3.3417  -3.3256  -3.3247  -3.2994  -3.2989  -3.2497
    -3.2489  -3.2334  -3.2325  -3.2125  -3.1650  -3.1638  -3.1452  -3.1403
    -3.1390  -3.0999  -3.0983  -3.0923  -3.0909  -3.0767  -3.0745  -3.0360
    -3.0351  -3.0145  -3.0143  -3.0116  -3.0100  -3.0070  -2.9323  -2.9301
    -2.9297  -2.9028  -2.8990  -2.8387  -2.8383  -2.8134  -2.8081  -2.7984
    -2.7946  -2.7905  -2.7607  -2.7600  -2.7526  -2.7436  -2.7283  -2.7080
    -2.7073  -2.6987  -2.6855  -2.6849  -2.6746  -2.6736  -2.6706  -2.6619
    -2.6602  -2.6161  -2.5843  -2.5841  -2.5662  -2.5539  -2.5481  -2.5457
    -2.5400  -2.5390  -2.5384  -2.5092  -2.5080  -2.5050  -2.4982  -2.4965
    -2.4815  -2.4542  -2.4536  -2.4524  -2.4516  -2.4494  -2.4065  -2.3751
    -2.3745  -2.3735  -2.3672  -2.3588  -2.3478  -2.3451  -2.3290  -2.3289
    -2.2966  -2.2940  -2.2938  -2.2753  -2.2748  -2.2745  -2.2419  -2.2411
    -2.2017  -2.1984  -2.1923  -2.1900  -2.1898  -2.1840  -2.1835  -2.1806
    -2.1798  -2.1738  -2.1731  -2.1572  -2.1569  -2.0305  -2.0302  -1.9962
    -1.9907  -1.9905  -1.9845  -1.9837  -1.9681  -1.9674  -1.9646  -1.9639
    -1.9600  -1.9394  -1.9328  -1.9316  -1.9220  -1.9180  -1.9174  -1.8967
    -1.8955  -1.8680  -1.8671  -1.8367  -1.8360  -1.8250  -1.8165  -1.7986
    -1.7984  -1.7955  -1.7779  -1.7651  -1.7645  -1.7577  -1.7572  -1.7311
    -1.7310  -1.7143  -1.7136  -1.6819  -1.6786  -1.6717  -1.6222  -1.6208
    -1.6076  -1.6071  -1.6047  -1.5818  -1.5786  -1.5464  -1.5449  -1.5447
    -1.5105  -1.5016  -1.5004  -1.4851  -1.4847  -1.4601  -1.4577  -1.4557
    -1.4277  -1.4249  -1.4245  -1.3627  -1.3617  -1.3491  -1.3486  -1.3332
    -1.3318  -1.3192  -1.3190  -1.3009  -1.2881  -1.2612  -1.2600  -1.2486
    -1.2186  -1.2106  -1.2099  -1.1987  -1.1987  -1.1964  -1.1917  -1.1911
    -1.1773  -1.1486  -1.1469  -1.1358  -1.1344  -1.1329  -1.1314  -1.1110
    -1.0918  -1.0896  -1.0697  -1.0695  -0.9773  -0.9642  -0.9587  -0.9583
    -0.9546  -0.9493  -0.9488  -0.9281  -0.9244  -0.9084  -0.9077  -0.8937
    -0.8935  -0.8852  -0.8649  -0.8631  -0.8616  -0.8535  -0.7819  -0.7806
    -0.7484  -0.7467  -0.7427  -0.7360  -0.7351  -0.7340  -0.7337  -0.7213
    -0.7203  -0.7044  -0.6792  -0.6666  -0.6460  -0.6452  -0.6339  -0.6337
    -0.6221  -0.6211  -0.6205  -0.6193  -0.6179  -0.6008  -0.5968  -0.5963
    -0.5750  -0.5656  -0.5641  -0.5631  -0.5514  -0.5507  -0.5322  -0.5001
    -0.4999  -0.4908  -0.4901  -0.4232  -0.4221  -0.3858  -0.3849  -0.3277
    -0.3264  -0.3257  -0.3109  -0.2996  -0.0726  -0.0693   0.2738   0.2739
     0.3657   0.3691   0.5606   0.5774   0.5916   0.7216   0.7225   1.1539
     1.1542   1.1722   1.4330   1.4638   1.4642   1.7420   1.7454   1.8193
     1.8197   1.8478   1.8488   2.0747   2.0771   2.1652   2.1654   2.2433
     2.3049   2.3072   2.4682   2.5675   3.0055   3.0071   3.0104   3.0113
     3.0630   3.0671   3.3573   3.3586   3.6403   3.6413   3.7498   4.0542
     4.0957   4.0968   4.3249   4.3283   4.3968   4.3977   4.4885   4.6068
     4.6084   4.7245   4.7252   5.0276   5.0966   5.0980   5.2690   5.2785
     5.4196   5.4844   5.4859   5.5113   5.5131   5.5752   5.5758   5.6283
     5.9397   6.0401   6.1802   6.2607   6.2682   6.3147   6.3195   6.3317
     6.3331   6.5704   6.5718   6.6372   6.7228   6.7991   6.8052   6.8442
     6.8627   7.0836   7.1083

          k = 0.0000-0.2887 0.1111 (136898 PWs)   bands (ev):

   -18.5757  -6.6791  -6.4040  -5.8870  -5.5968  -5.5370  -5.5363  -4.9985
    -4.9979  -4.8674  -4.8659  -4.7109  -4.6826  -4.6186  -4.5872  -4.5843
    -4.5515  -4.5513  -4.4228  -4.3811  -4.3810  -4.3213  -4.3013  -4.2998
    -4.1977  -4.1975  -4.1617  -4.1612  -4.1611  -4.1344  -4.1128  -4.1126
    -4.0089  -4.0056  -4.0055  -3.9849  -3.9684  -3.9677  -3.9564  -3.9552
    -3.9423  -3.9128  -3.9120  -3.9117  -3.9113  -3.8792  -3.8789  -3.8615
    -3.8610  -3.8481  -3.8058  -3.8052  -3.7738  -3.7604  -3.7572  -3.7529
    -3.7527  -3.6786  -3.6783  -3.6435  -3.6425  -3.6402  -3.5732  -3.5727
    -3.5585  -3.5568  -3.5273  -3.5266  -3.5261  -3.5252  -3.3727  -3.3711
    -3.3471  -3.3467  -3.3417  -3.3258  -3.3246  -3.2995  -3.2991  -3.2499
    -3.2488  -3.2335  -3.2323  -3.2125  -3.1646  -3.1645  -3.1452  -3.1402
    -3.1388  -3.1001  -3.0981  -3.0926  -3.0909  -3.0771  -3.0741  -3.0360
    -3.0350  -3.0155  -3.0139  -3.0117  -3.0098  -3.0068  -2.9327  -2.9299
    -2.9296  -2.9030  -2.8988  -2.8392  -2.8380  -2.8129  -2.8081  -2.7974
    -2.7944  -2.7910  -2.7606  -2.7597  -2.7531  -2.7448  -2.7296  -2.7074
    -2.7071  -2.6961  -2.6854  -2.6844  -2.6745  -2.6739  -2.6700  -2.6619
    -2.6619  -2.6161  -2.5844  -2.5840  -2.5664  -2.5538  -2.5484  -2.5458
    -2.5396  -2.5391  -2.5384  -2.5088  -2.5084  -2.5048  -2.4981  -2.4969
    -2.4815  -2.4536  -2.4531  -2.4524  -2.4519  -2.4501  -2.4065  -2.3755
    -2.3743  -2.3733  -2.3673  -2.3588  -2.3471  -2.3458  -2.3289  -2.3289
    -2.2964  -2.2943  -2.2937  -2.2752  -2.2748  -2.2743  -2.2424  -2.2407
    -2.2019  -2.1984  -2.1924  -2.1899  -2.1895  -2.1839  -2.1833  -2.1808
    -2.1798  -2.1738  -2.1728  -2.1574  -2.1566  -2.0310  -2.0297  -1.9966
    -1.9910  -1.9900  -1.9845  -1.9840  -1.9684  -1.9669  -1.9641  -1.9637
    -1.9605  -1.9393  -1.9323  -1.9321  -1.9215  -1.9186  -1.9176  -1.8968
    -1.8955  -1.8680  -1.8672  -1.8368  -1.8357  -1.8250  -1.8166  -1.7987
    -1.7982  -1.7954  -1.7779  -1.7652  -1.7645  -1.7576  -1.7572  -1.7313
    -1.7308  -1.7144  -1.7138  -1.6817  -1.6788  -1.6714  -1.6222  -1.6213
    -1.6077  -1.6067  -1.6049  -1.5818  -1.5786  -1.5466  -1.5450  -1.5444
    -1.5103  -1.5012  -1.5009  -1.4854  -1.4845  -1.4598  -1.4574  -1.4561
    -1.4281  -1.4246  -1.4243  -1.3632  -1.3612  -1.3497  -1.3479  -1.3331
    -1.3321  -1.3193  -1.3188  -1.3007  -1.2883  -1.2608  -1.2604  -1.2486
    -1.2178  -1.2105  -1.2103  -1.1988  -1.1987  -1.1965  -1.1915  -1.1913
    -1.1773  -1.1482  -1.1473  -1.1372  -1.1342  -1.1325  -1.1322  -1.1107
    -1.0913  -1.0901  -1.0705  -1.0688  -0.9774  -0.9643  -0.9587  -0.9584
    -0.9543  -0.9499  -0.9484  -0.9264  -0.9245  -0.9093  -0.9074  -0.8936
    -0.8935  -0.8846  -0.8654  -0.8631  -0.8613  -0.8537  -0.7814  -0.7810
    -0.7471  -0.7468  -0.7428  -0.7364  -0.7354  -0.7339  -0.7337  -0.7233
    -0.7198  -0.7041  -0.6792  -0.6655  -0.6465  -0.6461  -0.6341  -0.6334
    -0.6243  -0.6205  -0.6202  -0.6186  -0.6178  -0.6011  -0.5963  -0.5961
    -0.5752  -0.5653  -0.5637  -0.5618  -0.5517  -0.5512  -0.5320  -0.5002
    -0.4998  -0.4908  -0.4902  -0.4228  -0.4224  -0.3856  -0.3851  -0.3272
    -0.3268  -0.3260  -0.3130  -0.2996  -0.0715  -0.0680   0.2737   0.2739
     0.3657   0.3692   0.5599   0.5770   0.5912   0.7210   0.7227   1.1540
     1.1543   1.1714   1.4328   1.4639   1.4644   1.7409   1.7470   1.8196
     1.8205   1.8457   1.8503   2.0756   2.0771   2.1647   2.1657   2.2430
     2.3036   2.3087   2.4675   2.5676   3.0060   3.0080   3.0088   3.0119
     3.0646   3.0663   3.3578   3.3584   3.6378   3.6439   3.7513   4.0538
     4.0939   4.0992   4.3099   4.3391   4.3965   4.3979   4.4890   4.6059
     4.6081   4.7235   4.7259   5.0279   5.0947   5.0978   5.2562   5.2891
     5.4265   5.4823   5.4872   5.5118   5.5132   5.5740   5.5755   5.6331
     5.9522   6.0175   6.1812   6.2300   6.3003   6.3168   6.3195   6.3304
     6.3348   6.5612   6.5753   6.6393   6.7404   6.7852   6.8147   6.8218
     6.8752   7.0667   7.1251

          k = 0.0000 0.2887 0.1111 (136898 PWs)   bands (ev):

   -18.5757  -6.6791  -6.4040  -5.8870  -5.5968  -5.5370  -5.5363  -4.9985
    -4.9979  -4.8674  -4.8659  -4.7109  -4.6826  -4.6186  -4.5872  -4.5843
    -4.5515  -4.5513  -4.4228  -4.3811  -4.3810  -4.3213  -4.3013  -4.2998
    -4.1977  -4.1975  -4.1617  -4.1612  -4.1611  -4.1344  -4.1128  -4.1126
    -4.0089  -4.0056  -4.0055  -3.9849  -3.9683  -3.9677  -3.9564  -3.9552
    -3.9423  -3.9128  -3.9120  -3.9117  -3.9113  -3.8792  -3.8789  -3.8615
    -3.8610  -3.8481  -3.8058  -3.8052  -3.7738  -3.7604  -3.7572  -3.7529
    -3.7527  -3.6786  -3.6783  -3.6435  -3.6425  -3.6402  -3.5732  -3.5727
    -3.5585  -3.5568  -3.5273  -3.5266  -3.5261  -3.5252  -3.3727  -3.3711
    -3.3471  -3.3467  -3.3417  -3.3258  -3.3246  -3.2995  -3.2991  -3.2499
    -3.2488  -3.2335  -3.2323  -3.2125  -3.1646  -3.1645  -3.1452  -3.1402
    -3.1388  -3.1001  -3.0981  -3.0926  -3.0909  -3.0771  -3.0741  -3.0360
    -3.0350  -3.0155  -3.0139  -3.0117  -3.0098  -3.0068  -2.9327  -2.9299
    -2.9296  -2.9030  -2.8988  -2.8392  -2.8380  -2.8129  -2.8081  -2.7974
    -2.7944  -2.7910  -2.7606  -2.7597  -2.7531  -2.7448  -2.7296  -2.7074
    -2.7071  -2.6961  -2.6854  -2.6844  -2.6745  -2.6739  -2.6700  -2.6619
    -2.6619  -2.6161  -2.5844  -2.5840  -2.5664  -2.5538  -2.5484  -2.5458
    -2.5396  -2.5391  -2.5384  -2.5088  -2.5085  -2.5048  -2.4981  -2.4969
    -2.4815  -2.4536  -2.4531  -2.4524  -2.4519  -2.4501  -2.4065  -2.3755
    -2.3743  -2.3733  -2.3673  -2.3588  -2.3471  -2.3458  -2.3289  -2.3289
    -2.2964  -2.2943  -2.2937  -2.2752  -2.2748  -2.2743  -2.2424  -2.2407
    -2.2019  -2.1984  -2.1924  -2.1899  -2.1895  -2.1839  -2.1833  -2.1808
    -2.1798  -2.1738  -2.1728  -2.1574  -2.1566  -2.0310  -2.0297  -1.9966
    -1.9910  -1.9900  -1.9845  -1.9840  -1.9685  -1.9669  -1.9641  -1.9637
    -1.9605  -1.9393  -1.9323  -1.9321  -1.9215  -1.9186  -1.9176  -1.8968
    -1.8955  -1.8680  -1.8672  -1.8368  -1.8357  -1.8250  -1.8166  -1.7987
    -1.7982  -1.7954  -1.7779  -1.7652  -1.7645  -1.7575  -1.7572  -1.7313
    -1.7308  -1.7144  -1.7138  -1.6818  -1.6788  -1.6714  -1.6222  -1.6213
    -1.6077  -1.6067  -1.6049  -1.5818  -1.5786  -1.5466  -1.5450  -1.5444
    -1.5103  -1.5012  -1.5009  -1.4854  -1.4845  -1.4598  -1.4574  -1.4561
    -1.4281  -1.4246  -1.4243  -1.3632  -1.3612  -1.3497  -1.3479  -1.3331
    -1.3321  -1.3193  -1.3188  -1.3007  -1.2883  -1.2608  -1.2604  -1.2486
    -1.2178  -1.2105  -1.2103  -1.1988  -1.1987  -1.1965  -1.1915  -1.1913
    -1.1773  -1.1482  -1.1473  -1.1372  -1.1342  -1.1325  -1.1322  -1.1107
    -1.0913  -1.0901  -1.0705  -1.0688  -0.9774  -0.9643  -0.9587  -0.9584
    -0.9543  -0.9499  -0.9484  -0.9264  -0.9245  -0.9093  -0.9074  -0.8936
    -0.8935  -0.8846  -0.8654  -0.8631  -0.8613  -0.8537  -0.7814  -0.7810
    -0.7471  -0.7468  -0.7428  -0.7364  -0.7354  -0.7339  -0.7337  -0.7233
    -0.7198  -0.7041  -0.6792  -0.6655  -0.6465  -0.6461  -0.6341  -0.6334
    -0.6243  -0.6205  -0.6202  -0.6186  -0.6178  -0.6011  -0.5963  -0.5961
    -0.5752  -0.5653  -0.5637  -0.5618  -0.5517  -0.5512  -0.5320  -0.5002
    -0.4998  -0.4908  -0.4902  -0.4228  -0.4224  -0.3856  -0.3851  -0.3272
    -0.3268  -0.3260  -0.3130  -0.2996  -0.0715  -0.0680   0.2737   0.2739
     0.3657   0.3692   0.5599   0.5770   0.5912   0.7210   0.7227   1.1540
     1.1543   1.1714   1.4327   1.4639   1.4644   1.7409   1.7470   1.8196
     1.8205   1.8457   1.8503   2.0756   2.0771   2.1647   2.1657   2.2430
     2.3036   2.3087   2.4675   2.5676   3.0060   3.0080   3.0088   3.0119
     3.0646   3.0663   3.3578   3.3584   3.6378   3.6439   3.7513   4.0538
     4.0939   4.0992   4.3099   4.3391   4.3965   4.3979   4.4890   4.6059
     4.6081   4.7235   4.7259   5.0279   5.0947   5.0978   5.2562   5.2891
     5.4265   5.4823   5.4872   5.5118   5.5132   5.5740   5.5755   5.6331
     5.9523   6.0176   6.1812   6.2298   6.3001   6.3168   6.3195   6.3304
     6.3348   6.5612   6.5753   6.6390   6.7375   6.7852   6.8146   6.8220
     6.8755   7.0702   7.1298

     the Fermi energy is     1.2976 ev

!    total energy              =   -6604.43306451 Ry
     Harris-Foulkes estimate   =   -6604.43306451 Ry
     estimated scf accuracy    <          5.6E-09 Ry

     The total energy is the sum of the following terms:

     one-electron contribution =  -48610.58886050 Ry
     hartree contribution      =   24802.97756880 Ry
     xc contribution           =   -3204.97208035 Ry
     ewald contribution        =   20408.14740045 Ry
     smearing contrib. (-TS)   =       0.00290708 Ry

     convergence has been achieved in  24 iterations

     Writing output data file 7002790.save

     init_run     :    214.44s CPU    225.51s WALL (       1 calls)
     electrons    :  11366.31s CPU  11842.53s WALL (       1 calls)

     Called by init_run:
     wfcinit      :    177.34s CPU    185.60s WALL (       1 calls)
     potinit      :     12.07s CPU     12.83s WALL (       1 calls)

     Called by electrons:
     c_bands      :   9720.36s CPU  10104.83s WALL (      25 calls)
     sum_band     :   1249.21s CPU   1328.29s WALL (      25 calls)
     v_of_rho     :    129.83s CPU    138.94s WALL (      25 calls)
     newd         :    277.52s CPU    280.88s WALL (      25 calls)
     mix_rho      :      3.52s CPU      3.85s WALL (      25 calls)
     vdW_energy   :      6.14s CPU      6.66s WALL (      25 calls)
     vdW_ffts     :     74.58s CPU     79.38s WALL (      50 calls)
     vdW_v        :     16.23s CPU     17.06s WALL (      25 calls)

     Called by c_bands:
     init_us_2    :     16.04s CPU     16.44s WALL (     612 calls)
     cegterg      :   9431.24s CPU   9813.64s WALL (     300 calls)

     Called by *egterg:
     h_psi        :   3868.62s CPU   4211.90s WALL (    1666 calls)
     s_psi        :    483.31s CPU    486.26s WALL (    1666 calls)
     g_psi        :      6.40s CPU      6.44s WALL (    1354 calls)
     cdiaghg      :   2168.86s CPU   2174.37s WALL (    1642 calls)

     Called by h_psi:
     add_vuspsi   :    486.42s CPU    489.01s WALL (    1666 calls)

     General routines
     calbec       :   1203.15s CPU   1207.07s WALL (    1966 calls)
     fft          :    208.69s CPU    217.73s WALL (    1650 calls)
     ffts         :      2.45s CPU      2.69s WALL (      50 calls)
     fftw         :   2859.70s CPU   3243.53s WALL (  726108 calls)
     interpolate  :      5.46s CPU      6.06s WALL (      50 calls)
     davcio       :      0.01s CPU      0.23s WALL (      12 calls)

     Parallel routines
     fft_scatter  :   2226.56s CPU   2534.60s WALL (  727808 calls)

     PWSCF        :     3h13m CPU        3h21m WALL


   This run was terminated on:  12:35:16  27Jun2015            

=------------------------------------------------------------------------------=
   JOB DONE.
=------------------------------------------------------------------------------=
