Setting SGE environment for SCC

     Program PWSCF v.5.1.2 starts on 24Jun2015 at 23:21:10 

     This program is part of the open-source Quantum ESPRESSO suite
     for quantum simulation of materials; please cite
         "P. Giannozzi et al., J. Phys.:Condens. Matter 21 395502 (2009);
          URL http://www.quantum-espresso.org", 
     in publications or presentations arising from this work. More details at
     http://www.quantum-espresso.org/quote

     Parallel version (MPI), running on    32 processors
     R & G space division:  proc/nbgrp/npool/nimage =      32
     Reading input from top.O1.Au50.d.3.4.phi.25.psi.0.in
Warning: card &IONS ignored
Warning: card / ignored
Warning: card &CELL ignored
Warning: card / ignored

     Current dimensions of program PWSCF are:
     Max number of different atomic species (ntypx) = 10
     Max number of k-points (npk) =  40000
     Max angular momentum in pseudopotentials (lmaxx) =  3

     IMPORTANT: XC functional enforced from input :
     Exchange-correlation      = VDW-DF ( 1  4  4  0 1 0)
     Any further DFT definition will be discarded
     Please, verify this is what you really want


     Subspace diagonalization in iterative solution of the eigenvalue problem:
     a serial algorithm will be used


     Parallelization info
     --------------------
     sticks:   dense  smooth     PW     G-vecs:    dense   smooth      PW
     Min         445     223     58                96775    34191    4534
     Max         446     224     59                96790    34246    4540
     Sum       14269    7147   1867              3097177  1095093  145167


     Title: 
     top.O1.Au50.d.3.4.phi.25.psi.0                                             


     bravais-lattice index     =            4
     lattice parameter (alat)  =      22.7436  a.u.
     unit-cell volume          =   22924.1508 (a.u.)^3
     number of atoms/cell      =           67
     number of atomic types    =            3
     number of electrons       =       712.00
     number of Kohn-Sham states=          427
     kinetic-energy cutoff     =      50.0000  Ry
     charge density cutoff     =     400.0000  Ry
     convergence threshold     =      1.0E-08
     mixing beta               =       0.7000
     number of iterations used =            8  plain     mixing
     Exchange-correlation      = VDW-DF ( 1  4  4  0 1 0)

     celldm(1)=  22.743643  celldm(2)=   0.000000  celldm(3)=   2.250000
     celldm(4)=   0.000000  celldm(5)=   0.000000  celldm(6)=   0.000000

     crystal axes: (cart. coord. in units of alat)
               a(1) = (   1.000000   0.000000   0.000000 )  
               a(2) = (  -0.500000   0.866025   0.000000 )  
               a(3) = (   0.000000   0.000000   2.250000 )  

     reciprocal axes: (cart. coord. in units 2 pi/alat)
               b(1) = (  1.000000  0.577350 -0.000000 )  
               b(2) = (  0.000000  1.154701  0.000000 )  
               b(3) = (  0.000000 -0.000000  0.444444 )  


     PseudoPot. # 1 for Au read from file:
     /home/scc/andrejb/qe/pseudo/Au.pbe-nd-van.UPF
     MD5 check sum: 458681b50f36d87ef23c61b04bba420a
     Pseudo is Ultrasoft + core correction, Zval = 11.0
     Generated by new atomic code, or converted to UPF format
     Using radial grid of  985 points,  3 beta functions with: 
                l(1) =   1
                l(2) =   2
                l(3) =   2
     Q(r) pseudized with  8 coefficients,  rinner =    1.100   1.100   1.100
                                                       1.100   1.100

     PseudoPot. # 2 for H  read from file:
     /home/scc/andrejb/qe/pseudo/H.pbe-van_ak.UPF
     MD5 check sum: 403db7282739603aa925980fa9b8608d
     Pseudo is Ultrasoft, Zval =  1.0
     Generated by new atomic code, or converted to UPF format
     Using radial grid of  615 points,  1 beta functions with: 
                l(1) =   0
     Q(r) pseudized with  8 coefficients,  rinner =    0.800

     PseudoPot. # 3 for O  read from file:
     /home/scc/andrejb/qe/pseudo/O.pbe-van_ak.UPF
     MD5 check sum: 4b8c549914a63cae506c6ff22b5af4fe
     Pseudo is Ultrasoft, Zval =  6.0
     Generated by new atomic code, or converted to UPF format
     Using radial grid of  737 points,  4 beta functions with: 
                l(1) =   0
                l(2) =   0
                l(3) =   1
                l(4) =   1
     Q(r) pseudized with  8 coefficients,  rinner =    0.800   0.800   0.800


     vdW kernel table read from file vdW_kernel_table
     MD5 check sum: 48e77a2e26edf626eeb0eaa751ad5cac

     atomic species   valence    mass     pseudopotential
        Au            11.00   196.96657     Au( 1.00)
        H              1.00     1.01000     H ( 1.00)
        O              6.00    16.00000     O ( 1.00)

     No symmetry found



   Cartesian axes

     site n.     atom                  positions (alat units)
         1           O   tau(   1) = (   0.4790780   0.3968269   0.8954964  )
         2           H   tau(   2) = (   0.4518956   0.3378297   0.9437499  )
         3           H   tau(   3) = (   0.5054281   0.4540523   0.9462571  )
         4           Au  tau(   4) = (   0.3540481   0.6132292   0.0000000  )
         5           Au  tau(   5) = (   0.4790062   0.3967954   0.0000000  )
         6           Au  tau(   6) = (   0.6039644   0.1803616   0.0000000  )
         7           Au  tau(   7) = (   0.7289225  -0.0360723   0.0000000  )
         8           Au  tau(   8) = (   0.1041318   0.6132292   0.0000000  )
         9           Au  tau(   9) = (   0.2290899   0.3967954   0.0000000  )
        10           Au  tau(  10) = (   0.3540481   0.1803616   0.0000000  )
        11           Au  tau(  11) = (   0.4790062  -0.0360723   0.0000000  )
        12           Au  tau(  12) = (  -0.1457845   0.6132292   0.0000000  )
        13           Au  tau(  13) = (  -0.0208264   0.3967954   0.0000000  )
        14           Au  tau(  14) = (   0.1041318   0.1803616   0.0000000  )
        15           Au  tau(  15) = (   0.2290899  -0.0360723   0.0000000  )
        16           Au  tau(  16) = (  -0.3957008   0.6132292   0.0000000  )
        17           Au  tau(  17) = (  -0.2707426   0.3967954   0.0000000  )
        18           Au  tau(  18) = (  -0.1457845   0.1803616   0.0000000  )
        19           Au  tau(  19) = (  -0.0208264  -0.0360723   0.0000000  )
        20           Au  tau(  20) = (   0.4790062   0.6853738   0.2040557  )
        21           Au  tau(  21) = (   0.6039644   0.4689400   0.2040557  )
        22           Au  tau(  22) = (   0.7289225   0.2525062   0.2040557  )
        23           Au  tau(  23) = (   0.8538806   0.0360723   0.2040557  )
        24           Au  tau(  24) = (   0.2290899   0.6853738   0.2040557  )
        25           Au  tau(  25) = (   0.3540481   0.4689400   0.2040557  )
        26           Au  tau(  26) = (   0.4790062   0.2525062   0.2040557  )
        27           Au  tau(  27) = (   0.6039644   0.0360723   0.2040557  )
        28           Au  tau(  28) = (  -0.0208264   0.6853738   0.2040557  )
        29           Au  tau(  29) = (   0.1041318   0.4689400   0.2040557  )
        30           Au  tau(  30) = (   0.2290899   0.2525062   0.2040557  )
        31           Au  tau(  31) = (   0.3540481   0.0360723   0.2040557  )
        32           Au  tau(  32) = (  -0.2707426   0.6853738   0.2040557  )
        33           Au  tau(  33) = (  -0.1457845   0.4689400   0.2040557  )
        34           Au  tau(  34) = (  -0.0208264   0.2525062   0.2040557  )
        35           Au  tau(  35) = (   0.1041318   0.0360723   0.2040557  )
        36           Au  tau(  36) = (   0.3541162   0.7576593   0.4066483  )
        37           Au  tau(  37) = (   0.4791000   0.5411421   0.4066696  )
        38           Au  tau(  38) = (   0.6040570   0.3246862   0.4066618  )
        39           Au  tau(  39) = (   0.7290270   0.1081684   0.4066530  )
        40           Au  tau(  40) = (   0.1041162   0.7576236   0.4066247  )
        41           Au  tau(  41) = (   0.2291001   0.5411062   0.4066455  )
        42           Au  tau(  42) = (   0.3540567   0.3246505   0.4066380  )
        43           Au  tau(  43) = (   0.4790276   0.1081324   0.4066292  )
        44           Au  tau(  44) = (  -0.1458201   0.7576104   0.4066225  )
        45           Au  tau(  45) = (  -0.0208365   0.5410930   0.4066438  )
        46           Au  tau(  46) = (   0.1041202   0.3246372   0.4066359  )
        47           Au  tau(  47) = (   0.2290908   0.1081193   0.4066273  )
        48           Au  tau(  48) = (  -0.3958167   0.7575791   0.4065812  )
        49           Au  tau(  49) = (  -0.2708328   0.5410617   0.4066025  )
        50           Au  tau(  50) = (  -0.1458763   0.3246061   0.4065947  )
        51           Au  tau(  51) = (  -0.0209056   0.1080882   0.4065858  )
        52           Au  tau(  52) = (   0.3541084   0.6133344   0.6129762  )
        53           Au  tau(  53) = (   0.4790780   0.3968269   0.6129968  )
        54           Au  tau(  54) = (   0.6040356   0.1803811   0.6129859  )
        55           Au  tau(  55) = (   0.7290165  -0.0361221   0.6129385  )
        56           Au  tau(  56) = (   0.1041243   0.6133091   0.6130023  )
        57           Au  tau(  57) = (   0.2290941   0.3968013   0.6130241  )
        58           Au  tau(  58) = (   0.3540515   0.1803552   0.6130121  )
        59           Au  tau(  59) = (   0.4790323  -0.0361475   0.6129659  )
        60           Au  tau(  60) = (  -0.1458030   0.6133014   0.6129980  )
        61           Au  tau(  61) = (  -0.0208339   0.3967936   0.6130189  )
        62           Au  tau(  62) = (   0.1041239   0.1803477   0.6130083  )
        63           Au  tau(  63) = (   0.2291046  -0.0361554   0.6129607  )
        64           Au  tau(  64) = (  -0.3957908   0.6132739   0.6129471  )
        65           Au  tau(  65) = (  -0.2708208   0.3967658   0.6129688  )
        66           Au  tau(  66) = (  -0.1458636   0.1803200   0.6129569  )
        67           Au  tau(  67) = (  -0.0208823  -0.0361826   0.6129110  )

     number of k points=    12  Marzari-Vanderbilt smearing, width (Ry)=  0.0200
                       cart. coord. in units 2pi/alat
        k(    1) = (   0.2500000   0.4330127   0.1111111), wk =   0.1666667
        k(    2) = (   0.2500000  -0.1443376   0.1111111), wk =   0.1666667
        k(    3) = (  -0.2500000  -0.4330127   0.1111111), wk =   0.1666667
        k(    4) = (  -0.2500000   0.4330127  -0.1111111), wk =   0.1666667
        k(    5) = (   0.2500000  -0.4330127  -0.1111111), wk =   0.1666667
        k(    6) = (   0.5000000   0.0000000   0.1111111), wk =   0.1666667
        k(    7) = (  -0.5000000   0.0000000   0.1111111), wk =   0.1666667
        k(    8) = (  -0.2500000   0.1443376   0.1111111), wk =   0.1666667
        k(    9) = (  -0.2500000  -0.1443376  -0.1111111), wk =   0.1666667
        k(   10) = (   0.2500000   0.1443376  -0.1111111), wk =   0.1666667
        k(   11) = (   0.0000000  -0.2886751   0.1111111), wk =   0.1666667
        k(   12) = (   0.0000000   0.2886751   0.1111111), wk =   0.1666667

     Dense  grid:  3097177 G-vectors     FFT dimensions: ( 150, 150, 360)

     Smooth grid:  1095093 G-vectors     FFT dimensions: ( 108, 108, 240)

     Largest allocated arrays     est. size (Mb)     dimensions
        Kohn-Sham Wavefunctions        28.01 Mb     (    4299,  427)
        NL pseudopotentials            55.23 Mb     (    4299,  842)
        Each V/rho on FFT grid          4.12 Mb     (  270000)
        Each G-vector array             0.74 Mb     (   96788)
        G-vector shells                 0.16 Mb     (   21404)
     Largest temporary arrays     est. size (Mb)     dimensions
        Auxiliary wavefunctions       112.04 Mb     (    4299, 1708)
        Each subspace H/S matrix       44.51 Mb     (    1708, 1708)
        Each <psi_i|beta_j> matrix      5.49 Mb     (     842,  427)
        Arrays for rho mixing          32.96 Mb     (  270000,    8)

     Initial potential from superposition of free atoms
     Check: negative starting charge=   -1.730113

     starting charge  711.25682, renormalised to  712.00000

     negative rho (up, down):  1.732E+00 0.000E+00


     ************************************************************************
     *
     * You are using vdW-DF for exchange-correlation in this calculation.
     * Please cite the following three references that made this development
     * possible:
     *
     *   M. Dion, H. Rydberg, E. Schroder, D. C. Langreth, and
     *   B. I. Lundqvist, Phys. Rev. Lett. 92, 246401 (2004).
     *
     *   T. Thonhauser, V. R. Cooper, S. Li, A. Puzder, P. Hyldgaard, and
     *   D. C. Langreth, Phys. Rev. B 76, 125112 (2007).
     *
     *   G. Roman-Perez and J. M. Soler, Phys. Rev. Lett. 103, 096102 (2009).
     *
     *
     * If you are using vdW-DF2, please also cite:
     *
     *   K. Lee, E. D. Murray, L. Kong, B. I. Lundqvist, and
     *   D. C. Langreth, Phys. Rev. B 82, 081101(R) (2010).
     *
     *
     * If you are calculating the stress with vdW-DF, please also cite:
     *
     *   R. Sabatini, E. Kucukbenli, B. Kolb, T. Thonhauser, and
     *   S. de Gironcoli, J. Phys.: Condens. Matter 24, 424209 (2012).
     *
     ************************************************************************

     Carrying out vdW-DF run using the following parameters:

     Nqs =      20    Nr_points =    1024   r_max =   100.000
     q_mesh =
               0.00001000     0.04494208     0.09755937     0.15916263
               0.23128650     0.31572767     0.41458969     0.53033537
               0.66584808     0.82450364     1.01025438     1.22772762
               1.48234092     1.78043706     2.12944203     2.53805004
               3.01644009     3.57652955     4.23227104     5.00000000

     Gradients computed in reciprocal space

     ************************************************************************


     Starting wfc are  582 randomized atomic wfcs

     total cpu time spent up to now is      129.8 secs

     Self-consistent Calculation

     iteration #  1     ecut=    50.00 Ry     beta=0.70
     Davidson diagonalization with overlap
     ethr =  1.00E-02,  avg # of iterations =  3.0

     Threshold (ethr) on eigenvalues was too large:
     Diagonalizing with lowered threshold

     Davidson diagonalization with overlap
     ethr =  3.55E-04,  avg # of iterations =  5.3

     negative rho (up, down):  1.728E+00 0.000E+00

     total cpu time spent up to now is      667.1 secs

     total energy              =   -6602.76649992 Ry
     Harris-Foulkes estimate   =   -6605.05445521 Ry
     estimated scf accuracy    <       2.86182521 Ry

     iteration #  2     ecut=    50.00 Ry     beta=0.70
     Davidson diagonalization with overlap
     ethr =  4.02E-04,  avg # of iterations = 11.5

     negative rho (up, down):  1.725E+00 0.000E+00

     total cpu time spent up to now is     1630.1 secs

     total energy              =   -6596.27097350 Ry
     Harris-Foulkes estimate   =   -6610.24334884 Ry
     estimated scf accuracy    <      79.15324085 Ry

     iteration #  3     ecut=    50.00 Ry     beta=0.70
     Davidson diagonalization with overlap
     ethr =  4.02E-04,  avg # of iterations =  6.0

     negative rho (up, down):  1.735E+00 0.000E+00

     total cpu time spent up to now is     2190.1 secs

     total energy              =   -6603.11641811 Ry
     Harris-Foulkes estimate   =   -6605.01320775 Ry
     estimated scf accuracy    <       8.81896389 Ry

     iteration #  4     ecut=    50.00 Ry     beta=0.70
     Davidson diagonalization with overlap
     ethr =  4.02E-04,  avg # of iterations =  6.2

     negative rho (up, down):  1.737E+00 0.000E+00

     total cpu time spent up to now is     2509.1 secs

     total energy              =   -6603.61740828 Ry
     Harris-Foulkes estimate   =   -6605.06166300 Ry
     estimated scf accuracy    <      12.42922989 Ry

     iteration #  5     ecut=    50.00 Ry     beta=0.70
     Davidson diagonalization with overlap
     ethr =  4.02E-04,  avg # of iterations =  6.0

     negative rho (up, down):  1.746E+00 0.000E+00

     total cpu time spent up to now is     2819.1 secs

     total energy              =   -6604.28806485 Ry
     Harris-Foulkes estimate   =   -6604.66170958 Ry
     estimated scf accuracy    <       2.97559594 Ry

     iteration #  6     ecut=    50.00 Ry     beta=0.70
     Davidson diagonalization with overlap
     ethr =  4.02E-04,  avg # of iterations =  2.3

     negative rho (up, down):  1.751E+00 0.000E+00

     total cpu time spent up to now is     3040.6 secs

     total energy              =   -6604.42374248 Ry
     Harris-Foulkes estimate   =   -6604.47167670 Ry
     estimated scf accuracy    <       0.14442121 Ry

     iteration #  7     ecut=    50.00 Ry     beta=0.70
     Davidson diagonalization with overlap
     ethr =  2.03E-05,  avg # of iterations = 11.4

     negative rho (up, down):  1.753E+00 0.000E+00

     total cpu time spent up to now is     3491.9 secs

     total energy              =   -6604.43109295 Ry
     Harris-Foulkes estimate   =   -6604.45997066 Ry
     estimated scf accuracy    <       0.12182229 Ry

     iteration #  8     ecut=    50.00 Ry     beta=0.70
     Davidson diagonalization with overlap
     ethr =  1.71E-05,  avg # of iterations =  3.1

     negative rho (up, down):  1.755E+00 0.000E+00

     total cpu time spent up to now is     3734.8 secs

     total energy              =   -6604.43500900 Ry
     Harris-Foulkes estimate   =   -6604.44844103 Ry
     estimated scf accuracy    <       0.04900912 Ry

     iteration #  9     ecut=    50.00 Ry     beta=0.70
     Davidson diagonalization with overlap
     ethr =  6.88E-06,  avg # of iterations = 10.4

     negative rho (up, down):  1.755E+00 0.000E+00

     total cpu time spent up to now is     4111.4 secs

     total energy              =   -6604.43532545 Ry
     Harris-Foulkes estimate   =   -6604.44190401 Ry
     estimated scf accuracy    <       0.02201528 Ry

     iteration # 10     ecut=    50.00 Ry     beta=0.70
     Davidson diagonalization with overlap
     ethr =  3.09E-06,  avg # of iterations = 10.7

     negative rho (up, down):  1.757E+00 0.000E+00

     total cpu time spent up to now is     4505.6 secs

     total energy              =   -6604.43561801 Ry
     Harris-Foulkes estimate   =   -6604.43811085 Ry
     estimated scf accuracy    <       0.00896946 Ry

     iteration # 11     ecut=    50.00 Ry     beta=0.70
     Davidson diagonalization with overlap
     c_bands:  1 eigenvalues not converged
     c_bands:  1 eigenvalues not converged
     c_bands:  1 eigenvalues not converged
     ethr =  1.26E-06,  avg # of iterations = 12.1

     negative rho (up, down):  1.757E+00 0.000E+00

     total cpu time spent up to now is     4904.4 secs

     total energy              =   -6604.43555669 Ry
     Harris-Foulkes estimate   =   -6604.43672793 Ry
     estimated scf accuracy    <       0.00508234 Ry

     iteration # 12     ecut=    50.00 Ry     beta=0.70
     Davidson diagonalization with overlap
     ethr =  7.14E-07,  avg # of iterations =  4.2

     negative rho (up, down):  1.758E+00 0.000E+00

     total cpu time spent up to now is     5154.0 secs

     total energy              =   -6604.43496368 Ry
     Harris-Foulkes estimate   =   -6604.43597761 Ry
     estimated scf accuracy    <       0.00160500 Ry

     iteration # 13     ecut=    50.00 Ry     beta=0.70
     Davidson diagonalization with overlap
     c_bands:  1 eigenvalues not converged
     c_bands:  1 eigenvalues not converged
     ethr =  2.25E-07,  avg # of iterations = 11.9

     negative rho (up, down):  1.758E+00 0.000E+00

     total cpu time spent up to now is     5586.1 secs

     total energy              =   -6604.43521576 Ry
     Harris-Foulkes estimate   =   -6604.43536987 Ry
     estimated scf accuracy    <       0.00038386 Ry

     iteration # 14     ecut=    50.00 Ry     beta=0.70
     Davidson diagonalization with overlap
     ethr =  5.39E-08,  avg # of iterations =  3.0

     negative rho (up, down):  1.758E+00 0.000E+00

     total cpu time spent up to now is     5846.4 secs

     total energy              =   -6604.43527753 Ry
     Harris-Foulkes estimate   =   -6604.43533287 Ry
     estimated scf accuracy    <       0.00017640 Ry

     iteration # 15     ecut=    50.00 Ry     beta=0.70
     Davidson diagonalization with overlap
     ethr =  2.48E-08,  avg # of iterations =  2.0

     negative rho (up, down):  1.758E+00 0.000E+00

     total cpu time spent up to now is     6082.0 secs

     total energy              =   -6604.43528791 Ry
     Harris-Foulkes estimate   =   -6604.43533036 Ry
     estimated scf accuracy    <       0.00017752 Ry

     iteration # 16     ecut=    50.00 Ry     beta=0.70
     Davidson diagonalization with overlap
     ethr =  2.48E-08,  avg # of iterations =  2.0

     negative rho (up, down):  1.758E+00 0.000E+00

     total cpu time spent up to now is     6301.2 secs

     total energy              =   -6604.43529638 Ry
     Harris-Foulkes estimate   =   -6604.43532107 Ry
     estimated scf accuracy    <       0.00018313 Ry

     iteration # 17     ecut=    50.00 Ry     beta=0.70
     Davidson diagonalization with overlap
     ethr =  2.48E-08,  avg # of iterations =  1.0

     negative rho (up, down):  1.757E+00 0.000E+00

     total cpu time spent up to now is     6505.4 secs

     total energy              =   -6604.43530667 Ry
     Harris-Foulkes estimate   =   -6604.43531686 Ry
     estimated scf accuracy    <       0.00008245 Ry

     iteration # 18     ecut=    50.00 Ry     beta=0.70
     Davidson diagonalization with overlap
     ethr =  1.16E-08,  avg # of iterations =  1.0

     negative rho (up, down):  1.757E+00 0.000E+00

     total cpu time spent up to now is     6707.5 secs

     total energy              =   -6604.43531104 Ry
     Harris-Foulkes estimate   =   -6604.43531354 Ry
     estimated scf accuracy    <       0.00001134 Ry

     iteration # 19     ecut=    50.00 Ry     beta=0.70
     Davidson diagonalization with overlap
     ethr =  1.59E-09,  avg # of iterations =  2.0

     negative rho (up, down):  1.757E+00 0.000E+00

     total cpu time spent up to now is     6934.6 secs

     total energy              =   -6604.43531244 Ry
     Harris-Foulkes estimate   =   -6604.43531282 Ry
     estimated scf accuracy    <       0.00000170 Ry

     iteration # 20     ecut=    50.00 Ry     beta=0.70
     Davidson diagonalization with overlap
     ethr =  2.39E-10,  avg # of iterations =  2.0

     negative rho (up, down):  1.757E+00 0.000E+00

     total cpu time spent up to now is     7163.5 secs

     total energy              =   -6604.43531285 Ry
     Harris-Foulkes estimate   =   -6604.43531295 Ry
     estimated scf accuracy    <       0.00000121 Ry

     iteration # 21     ecut=    50.00 Ry     beta=0.70
     Davidson diagonalization with overlap
     ethr =  1.70E-10,  avg # of iterations =  2.0

     negative rho (up, down):  1.757E+00 0.000E+00

     total cpu time spent up to now is     7379.3 secs

     total energy              =   -6604.43531307 Ry
     Harris-Foulkes estimate   =   -6604.43531302 Ry
     estimated scf accuracy    <       0.00000017 Ry

     iteration # 22     ecut=    50.00 Ry     beta=0.70
     Davidson diagonalization with overlap
     ethr =  2.42E-11,  avg # of iterations =  2.0

     negative rho (up, down):  1.757E+00 0.000E+00

     total cpu time spent up to now is     7609.6 secs

     total energy              =   -6604.43531308 Ry
     Harris-Foulkes estimate   =   -6604.43531311 Ry
     estimated scf accuracy    <       0.00000002 Ry

     iteration # 23     ecut=    50.00 Ry     beta=0.70
     Davidson diagonalization with overlap
     ethr =  3.29E-12,  avg # of iterations =  3.0

     negative rho (up, down):  1.757E+00 0.000E+00

     total cpu time spent up to now is     7944.0 secs

     total energy              =   -6604.43531310 Ry
     Harris-Foulkes estimate   =   -6604.43531310 Ry
     estimated scf accuracy    <       0.00000004 Ry

     iteration # 24     ecut=    50.00 Ry     beta=0.70
     Davidson diagonalization with overlap
     ethr =  3.29E-12,  avg # of iterations =  3.0

     negative rho (up, down):  1.757E+00 0.000E+00

     total cpu time spent up to now is     8223.5 secs

     total energy              =   -6604.43531311 Ry
     Harris-Foulkes estimate   =   -6604.43531311 Ry
     estimated scf accuracy    <       0.00000001 Ry

     iteration # 25     ecut=    50.00 Ry     beta=0.70
     Davidson diagonalization with overlap
     ethr =  1.71E-12,  avg # of iterations =  2.0

     negative rho (up, down):  1.757E+00 0.000E+00

     total cpu time spent up to now is     8442.8 secs

     End of self-consistent calculation

          k = 0.2500 0.4330 0.1111 (136853 PWs)   bands (ev):

   -18.9916  -6.8007  -6.2159  -5.8165  -5.8164  -5.1387  -4.8051  -4.8050
    -4.7660  -4.7656  -4.4048  -4.4046  -4.3061  -4.3060  -4.2920  -4.2708
    -4.2442  -4.1386  -4.1382  -4.1143  -4.0707  -4.0707  -4.0018  -4.0017
    -3.9952  -3.9950  -3.9736  -3.9680  -3.9677  -3.8954  -3.8951  -3.8654
    -3.8652  -3.8532  -3.8530  -3.8298  -3.8298  -3.8073  -3.7989  -3.7987
    -3.7723  -3.7199  -3.7198  -3.6720  -3.6717  -3.6127  -3.6125  -3.5581
    -3.5579  -3.5577  -3.5573  -3.5219  -3.4828  -3.4823  -3.4763  -3.4750
    -3.4750  -3.4447  -3.4441  -3.4358  -3.3740  -3.3733  -3.3643  -3.3482
    -3.3408  -3.2707  -3.2679  -3.2355  -3.2342  -3.2072  -3.2065  -3.1932
    -3.1787  -3.1270  -3.1161  -3.1059  -3.0987  -3.0909  -3.0463  -3.0416
    -3.0403  -3.0037  -2.9720  -2.9712  -2.9632  -2.9615  -2.9496  -2.9488
    -2.9418  -2.9413  -2.9315  -2.8909  -2.8534  -2.8526  -2.8387  -2.8383
    -2.8128  -2.8027  -2.8025  -2.7800  -2.7366  -2.7354  -2.7271  -2.6879
    -2.6813  -2.6700  -2.6693  -2.6405  -2.6401  -2.6109  -2.5735  -2.5733
    -2.5510  -2.5439  -2.5301  -2.5294  -2.4792  -2.4789  -2.4464  -2.4235
    -2.4235  -2.3993  -2.3991  -2.3879  -2.3877  -2.3770  -2.3543  -2.3542
    -2.3097  -2.3093  -2.3082  -2.2913  -2.2910  -2.2861  -2.2764  -2.2759
    -2.2735  -2.2733  -2.2677  -2.2550  -2.2545  -2.2442  -2.2185  -2.2184
    -2.2169  -2.2160  -2.2149  -2.2128  -2.2119  -2.1845  -2.1815  -2.1673
    -2.1672  -2.1495  -2.1491  -2.1393  -2.1391  -2.1378  -2.1371  -2.1180
    -2.1164  -2.1159  -2.1149  -2.0978  -2.0719  -2.0715  -2.0319  -2.0315
    -2.0060  -2.0058  -1.9788  -1.9783  -1.9508  -1.9507  -1.9339  -1.9291
    -1.9023  -1.8798  -1.8795  -1.8746  -1.8734  -1.8697  -1.8627  -1.8608
    -1.8362  -1.8297  -1.8192  -1.7637  -1.7596  -1.7581  -1.7558  -1.7550
    -1.7179  -1.7000  -1.6997  -1.6719  -1.6712  -1.6111  -1.6107  -1.5819
    -1.5642  -1.5625  -1.5026  -1.5023  -1.4909  -1.4898  -1.4796  -1.4788
    -1.4758  -1.4664  -1.4656  -1.4117  -1.4093  -1.3983  -1.3980  -1.3965
    -1.3786  -1.3784  -1.3428  -1.3421  -1.3251  -1.3250  -1.3247  -1.3180
    -1.3126  -1.3039  -1.3027  -1.2842  -1.2838  -1.2441  -1.2402  -1.2303
    -1.2300  -1.2094  -1.1963  -1.1535  -1.1523  -1.1264  -1.1220  -1.1213
    -1.0924  -1.0461  -1.0404  -1.0394  -1.0383  -1.0347  -1.0319  -1.0243
    -1.0093  -1.0040  -0.9946  -0.9639  -0.9631  -0.9332  -0.9328  -0.9277
    -0.9260  -0.9197  -0.9035  -0.9032  -0.9021  -0.8994  -0.8975  -0.8622
    -0.8597  -0.8589  -0.8585  -0.8276  -0.8269  -0.8232  -0.8000  -0.7921
    -0.7911  -0.7453  -0.7387  -0.7369  -0.7032  -0.6949  -0.6842  -0.6841
    -0.6761  -0.6758  -0.6747  -0.6724  -0.6627  -0.6613  -0.6362  -0.6359
    -0.6331  -0.6311  -0.6301  -0.5938  -0.5934  -0.5823  -0.5817  -0.5669
    -0.5600  -0.5580  -0.5475  -0.4922  -0.4898  -0.4810  -0.4808  -0.4794
    -0.4790  -0.4737  -0.4550  -0.4532  -0.4457  -0.4454  -0.4436  -0.4422
    -0.4040  -0.4017  -0.4011  -0.3934  -0.3924  -0.3875  -0.3855  -0.3753
    -0.3699  -0.3665  -0.3648  -0.3240  -0.3236  -0.3153  -0.3119  -0.3112
    -0.2345  -0.2337  -0.2315  -0.2309  -0.2220  -0.2214  -0.1853  -0.1726
    -0.1722  -0.1458  -0.1407  -0.1382  -0.0197  -0.0175   0.0834   0.4989
     0.4992   0.5020   0.5021   0.5620   0.5663   0.9519   0.9524   0.9948
     0.9951   1.1032   1.1839   1.2921   1.2987   1.5115   1.5243   2.1485
     2.1506   2.3102   2.3134   2.4412   2.4472   2.5477   2.5477   2.7019
     2.9393   2.9413   3.0627   3.2845   3.2921   3.3713   3.3720   3.4715
     3.4870   3.6740   3.6834   3.7434   3.9439   3.9445   4.0054   4.0089
     4.2638   4.2694   4.2753   4.5144   4.5559   4.5577   4.6023   4.9368
     4.9397   4.9677   5.0774   5.1042   5.2748   5.2753   5.3277   5.3588
     5.7093   5.9522   6.0436   6.0619   6.0670   6.0754   6.1369   6.1378
     6.2012   6.2465   6.2717   6.2946   6.2997   6.3093   6.3111   6.3439
     6.3598   6.3692   6.5107   6.5806   6.7154   6.7964   6.8968   6.9796
     7.0034   7.0068   7.0186

          k = 0.2500-0.1443 0.1111 (136898 PWs)   bands (ev):

   -18.9916  -6.8007  -6.4258  -5.6337  -5.3426  -5.2836  -5.2832  -4.7451
    -4.7448  -4.6132  -4.6129  -4.4585  -4.4267  -4.3653  -4.3319  -4.3315
    -4.2983  -4.2983  -4.1697  -4.1279  -4.1278  -4.0680  -4.0470  -4.0467
    -3.9445  -3.9444  -3.9083  -3.9080  -3.9079  -3.8812  -3.8595  -3.8594
    -3.7545  -3.7523  -3.7522  -3.7317  -3.7147  -3.7146  -3.7025  -3.7023
    -3.6892  -3.6589  -3.6588  -3.6585  -3.6583  -3.6260  -3.6259  -3.6081
    -3.6080  -3.5935  -3.5501  -3.5495  -3.5203  -3.5050  -3.5047  -3.4997
    -3.4997  -3.4251  -3.4251  -3.3899  -3.3888  -3.3874  -3.3196  -3.3195
    -3.3050  -3.3042  -3.2737  -3.2727  -3.2722  -3.2717  -3.1294  -3.1187
    -3.1090  -3.0926  -3.0909  -3.0863  -3.0715  -3.0671  -3.0454  -3.0432
    -2.9956  -2.9942  -2.9793  -2.9784  -2.9582  -2.9101  -2.9099  -2.8902
    -2.8857  -2.8847  -2.8447  -2.8441  -2.8381  -2.8367  -2.8217  -2.8197
    -2.7818  -2.7814  -2.7598  -2.7597  -2.7567  -2.7557  -2.7530  -2.6764
    -2.6758  -2.6742  -2.6461  -2.6448  -2.5839  -2.5838  -2.5554  -2.5544
    -2.5414  -2.5407  -2.5355  -2.5061  -2.5060  -2.4963  -2.4787  -2.4532
    -2.4530  -2.4526  -2.4321  -2.4318  -2.4208  -2.4200  -2.4176  -2.4163
    -2.4090  -2.3628  -2.3305  -2.3303  -2.3146  -2.3007  -2.2943  -2.2941
    -2.2870  -2.2861  -2.2850  -2.2553  -2.2550  -2.2545  -2.2451  -2.2447
    -2.2278  -2.2006  -2.1998  -2.1993  -2.1986  -2.1972  -2.1531  -2.1216
    -2.1215  -2.1207  -2.1146  -2.1056  -2.0927  -2.0925  -2.0758  -2.0757
    -2.0418  -2.0409  -2.0405  -2.0222  -2.0207  -2.0204  -1.9877  -1.9870
    -1.9461  -1.9453  -1.9384  -1.9364  -1.9359  -1.9298  -1.9292  -1.9271
    -1.9264  -1.9206  -1.9191  -1.9033  -1.9024  -1.7762  -1.7753  -1.7434
    -1.7380  -1.7364  -1.7316  -1.7312  -1.7138  -1.7133  -1.7109  -1.7107
    -1.7084  -1.6859  -1.6781  -1.6775  -1.6722  -1.6658  -1.6641  -1.6426
    -1.6422  -1.6138  -1.6138  -1.5818  -1.5817  -1.5712  -1.5632  -1.5455
    -1.5444  -1.5421  -1.5238  -1.5113  -1.5110  -1.5039  -1.5037  -1.4770
    -1.4770  -1.4601  -1.4600  -1.4283  -1.4262  -1.4182  -1.3668  -1.3667
    -1.3546  -1.3542  -1.3516  -1.3283  -1.3257  -1.2923  -1.2916  -1.2911
    -1.2586  -1.2482  -1.2467  -1.2318  -1.2314  -1.2064  -1.2039  -1.2030
    -1.1736  -1.1713  -1.1706  -1.1086  -1.1076  -1.0954  -1.0937  -1.0785
    -1.0784  -1.0673  -1.0658  -1.0475  -1.0347  -1.0170  -1.0070  -1.0050
    -0.9928  -0.9610  -0.9575  -0.9546  -0.9452  -0.9448  -0.9427  -0.9381
    -0.9327  -0.9241  -0.8935  -0.8927  -0.8836  -0.8814  -0.8808  -0.8746
    -0.8565  -0.8391  -0.8345  -0.8177  -0.8139  -0.7235  -0.7107  -0.7050
    -0.7047  -0.7006  -0.6957  -0.6941  -0.6722  -0.6693  -0.6551  -0.6526
    -0.6396  -0.6382  -0.6302  -0.6108  -0.6078  -0.6075  -0.5995  -0.5277
    -0.5274  -0.4946  -0.4914  -0.4892  -0.4830  -0.4812  -0.4806  -0.4796
    -0.4681  -0.4659  -0.4506  -0.4263  -0.4116  -0.3923  -0.3910  -0.3809
    -0.3794  -0.3680  -0.3668  -0.3665  -0.3648  -0.3637  -0.3472  -0.3432
    -0.3418  -0.3121  -0.3109  -0.3096  -0.2983  -0.2979  -0.2789  -0.2470
    -0.2462  -0.2377  -0.2367  -0.1694  -0.1687  -0.1320  -0.1318  -0.0745
    -0.0723  -0.0719  -0.0602  -0.0432   0.1765   0.1856   0.5272   0.5273
     0.6153   0.6237   0.8112   0.8302   0.8450   0.9750   0.9770   1.4074
     1.4075   1.4258   1.6840   1.7174   1.7175   1.9891   2.0014   2.0734
     2.0742   2.0983   2.1062   2.3301   2.3303   2.4184   2.4190   2.4875
     2.5526   2.5665   2.7225   2.8204   3.2599   3.2613   3.2628   3.2677
     3.3189   3.3195   3.6115   3.6119   3.8894   3.8974   3.9906   4.3075
     4.3480   4.3535   4.5526   4.5707   4.6504   4.6532   4.7419   4.8592
     4.8632   4.9769   4.9793   5.0539   5.2821   5.3485   5.3543   5.4946
     5.5251   5.7376   5.7392   5.7491   5.7652   5.7662   5.8272   5.8293
     5.8803   6.0528   6.2188   6.2641   6.4338   6.4463   6.5687   6.5715
     6.5757   6.5823   6.5980   6.7503   6.8062   6.8234   6.8292   6.9824
     7.0189   7.0371   7.0603

          k =-0.2500-0.4330 0.1111 (136853 PWs)   bands (ev):

   -18.9916  -6.8007  -6.2159  -5.8165  -5.8164  -5.1387  -4.8051  -4.8050
    -4.7660  -4.7656  -4.4048  -4.4046  -4.3061  -4.3060  -4.2920  -4.2708
    -4.2442  -4.1386  -4.1382  -4.1143  -4.0707  -4.0707  -4.0018  -4.0017
    -3.9952  -3.9950  -3.9736  -3.9680  -3.9677  -3.8954  -3.8951  -3.8654
    -3.8652  -3.8532  -3.8530  -3.8298  -3.8298  -3.8073  -3.7989  -3.7987
    -3.7723  -3.7199  -3.7198  -3.6720  -3.6717  -3.6127  -3.6125  -3.5581
    -3.5579  -3.5577  -3.5573  -3.5219  -3.4828  -3.4823  -3.4763  -3.4750
    -3.4750  -3.4447  -3.4441  -3.4358  -3.3740  -3.3733  -3.3643  -3.3482
    -3.3408  -3.2707  -3.2679  -3.2355  -3.2342  -3.2072  -3.2065  -3.1932
    -3.1787  -3.1270  -3.1161  -3.1059  -3.0987  -3.0909  -3.0463  -3.0416
    -3.0403  -3.0037  -2.9720  -2.9712  -2.9632  -2.9615  -2.9496  -2.9488
    -2.9418  -2.9413  -2.9315  -2.8909  -2.8534  -2.8526  -2.8387  -2.8383
    -2.8128  -2.8027  -2.8025  -2.7800  -2.7366  -2.7354  -2.7271  -2.6879
    -2.6813  -2.6700  -2.6693  -2.6405  -2.6401  -2.6109  -2.5735  -2.5733
    -2.5510  -2.5439  -2.5301  -2.5294  -2.4792  -2.4789  -2.4464  -2.4235
    -2.4235  -2.3993  -2.3991  -2.3879  -2.3877  -2.3770  -2.3543  -2.3542
    -2.3097  -2.3093  -2.3082  -2.2913  -2.2910  -2.2861  -2.2764  -2.2759
    -2.2735  -2.2733  -2.2677  -2.2550  -2.2545  -2.2442  -2.2185  -2.2184
    -2.2169  -2.2160  -2.2149  -2.2128  -2.2119  -2.1845  -2.1815  -2.1673
    -2.1672  -2.1495  -2.1491  -2.1393  -2.1391  -2.1378  -2.1371  -2.1180
    -2.1164  -2.1159  -2.1149  -2.0978  -2.0719  -2.0715  -2.0319  -2.0315
    -2.0060  -2.0058  -1.9788  -1.9783  -1.9508  -1.9507  -1.9339  -1.9291
    -1.9023  -1.8798  -1.8795  -1.8746  -1.8734  -1.8697  -1.8627  -1.8608
    -1.8362  -1.8297  -1.8192  -1.7637  -1.7596  -1.7581  -1.7558  -1.7550
    -1.7179  -1.7000  -1.6997  -1.6719  -1.6712  -1.6111  -1.6107  -1.5819
    -1.5642  -1.5625  -1.5026  -1.5023  -1.4909  -1.4898  -1.4796  -1.4788
    -1.4758  -1.4664  -1.4656  -1.4117  -1.4093  -1.3983  -1.3980  -1.3965
    -1.3786  -1.3784  -1.3428  -1.3421  -1.3251  -1.3250  -1.3247  -1.3180
    -1.3126  -1.3039  -1.3027  -1.2842  -1.2838  -1.2441  -1.2402  -1.2303
    -1.2300  -1.2094  -1.1963  -1.1535  -1.1523  -1.1264  -1.1220  -1.1213
    -1.0924  -1.0461  -1.0404  -1.0394  -1.0383  -1.0347  -1.0319  -1.0243
    -1.0093  -1.0040  -0.9946  -0.9639  -0.9631  -0.9332  -0.9328  -0.9277
    -0.9260  -0.9197  -0.9035  -0.9032  -0.9021  -0.8994  -0.8975  -0.8622
    -0.8597  -0.8589  -0.8585  -0.8276  -0.8269  -0.8232  -0.8000  -0.7921
    -0.7911  -0.7453  -0.7387  -0.7369  -0.7032  -0.6949  -0.6842  -0.6841
    -0.6761  -0.6758  -0.6747  -0.6724  -0.6627  -0.6613  -0.6362  -0.6359
    -0.6331  -0.6311  -0.6301  -0.5938  -0.5934  -0.5823  -0.5817  -0.5669
    -0.5600  -0.5580  -0.5475  -0.4922  -0.4898  -0.4810  -0.4808  -0.4794
    -0.4790  -0.4737  -0.4550  -0.4532  -0.4457  -0.4454  -0.4436  -0.4422
    -0.4040  -0.4017  -0.4011  -0.3934  -0.3924  -0.3875  -0.3855  -0.3753
    -0.3699  -0.3665  -0.3648  -0.3240  -0.3236  -0.3153  -0.3119  -0.3112
    -0.2345  -0.2337  -0.2315  -0.2309  -0.2220  -0.2214  -0.1853  -0.1726
    -0.1722  -0.1458  -0.1407  -0.1382  -0.0197  -0.0175   0.0834   0.4989
     0.4992   0.5020   0.5021   0.5620   0.5663   0.9519   0.9524   0.9948
     0.9951   1.1032   1.1839   1.2921   1.2987   1.5115   1.5243   2.1485
     2.1506   2.3102   2.3134   2.4412   2.4472   2.5477   2.5477   2.7019
     2.9393   2.9413   3.0627   3.2845   3.2921   3.3713   3.3720   3.4715
     3.4870   3.6740   3.6834   3.7434   3.9439   3.9445   4.0054   4.0089
     4.2638   4.2694   4.2753   4.5144   4.5559   4.5577   4.6023   4.9368
     4.9397   4.9677   5.0774   5.1042   5.2748   5.2753   5.3277   5.3588
     5.7092   5.9522   6.0440   6.0619   6.0670   6.0755   6.1370   6.1378
     6.2012   6.2465   6.2717   6.2946   6.2997   6.3093   6.3110   6.3439
     6.3598   6.3691   6.5107   6.5782   6.7163   6.7964   6.8996   6.9799
     7.0035   7.0068   7.0186

          k =-0.2500 0.4330-0.1111 (136853 PWs)   bands (ev):

   -18.9916  -6.8007  -6.2159  -5.8179  -5.8150  -5.1387  -4.8054  -4.8047
    -4.7674  -4.7643  -4.4052  -4.4040  -4.3062  -4.3059  -4.2919  -4.2708
    -4.2442  -4.1392  -4.1378  -4.1143  -4.0709  -4.0706  -4.0019  -4.0016
    -3.9952  -3.9949  -3.9735  -3.9692  -3.9666  -3.8964  -3.8941  -3.8660
    -3.8643  -3.8533  -3.8529  -3.8299  -3.8297  -3.8073  -3.7990  -3.7986
    -3.7724  -3.7202  -3.7197  -3.6728  -3.6709  -3.6128  -3.6124  -3.5580
    -3.5579  -3.5576  -3.5573  -3.5221  -3.4830  -3.4823  -3.4763  -3.4751
    -3.4749  -3.4445  -3.4441  -3.4358  -3.3741  -3.3733  -3.3641  -3.3480
    -3.3406  -3.2710  -3.2680  -3.2356  -3.2338  -3.2074  -3.2060  -3.1931
    -3.1788  -3.1270  -3.1164  -3.1061  -3.0985  -3.0908  -3.0462  -3.0415
    -3.0405  -3.0036  -2.9718  -2.9714  -2.9635  -2.9610  -2.9498  -2.9492
    -2.9416  -2.9409  -2.9316  -2.8908  -2.8542  -2.8520  -2.8388  -2.8380
    -2.8129  -2.8029  -2.8024  -2.7800  -2.7372  -2.7348  -2.7273  -2.6877
    -2.6812  -2.6706  -2.6685  -2.6409  -2.6400  -2.6110  -2.5734  -2.5730
    -2.5510  -2.5440  -2.5303  -2.5293  -2.4794  -2.4787  -2.4463  -2.4238
    -2.4235  -2.3995  -2.3990  -2.3881  -2.3872  -2.3771  -2.3548  -2.3539
    -2.3095  -2.3091  -2.3083  -2.2919  -2.2904  -2.2861  -2.2763  -2.2758
    -2.2739  -2.2731  -2.2676  -2.2555  -2.2537  -2.2445  -2.2184  -2.2183
    -2.2170  -2.2160  -2.2149  -2.2129  -2.2115  -2.1847  -2.1816  -2.1674
    -2.1670  -2.1498  -2.1488  -2.1393  -2.1389  -2.1381  -2.1370  -2.1189
    -2.1164  -2.1153  -2.1147  -2.0979  -2.0724  -2.0715  -2.0329  -2.0307
    -2.0066  -2.0053  -1.9787  -1.9780  -1.9509  -1.9504  -1.9339  -1.9290
    -1.9021  -1.8800  -1.8792  -1.8749  -1.8731  -1.8696  -1.8632  -1.8606
    -1.8361  -1.8292  -1.8192  -1.7638  -1.7599  -1.7582  -1.7560  -1.7551
    -1.7182  -1.7007  -1.6989  -1.6720  -1.6711  -1.6117  -1.6100  -1.5823
    -1.5643  -1.5621  -1.5030  -1.5018  -1.4912  -1.4896  -1.4801  -1.4784
    -1.4759  -1.4669  -1.4653  -1.4112  -1.4091  -1.3984  -1.3981  -1.3969
    -1.3789  -1.3772  -1.3430  -1.3425  -1.3253  -1.3249  -1.3244  -1.3178
    -1.3132  -1.3045  -1.3026  -1.2841  -1.2837  -1.2435  -1.2405  -1.2303
    -1.2290  -1.2092  -1.1964  -1.1542  -1.1523  -1.1268  -1.1230  -1.1216
    -1.0925  -1.0446  -1.0407  -1.0395  -1.0383  -1.0348  -1.0321  -1.0240
    -1.0087  -1.0039  -0.9957  -0.9644  -0.9622  -0.9335  -0.9320  -0.9278
    -0.9268  -0.9194  -0.9038  -0.9025  -0.9020  -0.8992  -0.8974  -0.8636
    -0.8599  -0.8588  -0.8565  -0.8281  -0.8274  -0.8233  -0.8000  -0.7928
    -0.7904  -0.7457  -0.7391  -0.7360  -0.7033  -0.6947  -0.6842  -0.6840
    -0.6761  -0.6757  -0.6750  -0.6724  -0.6629  -0.6609  -0.6366  -0.6356
    -0.6331  -0.6315  -0.6300  -0.5937  -0.5932  -0.5834  -0.5813  -0.5667
    -0.5604  -0.5576  -0.5473  -0.4922  -0.4896  -0.4811  -0.4807  -0.4799
    -0.4787  -0.4737  -0.4553  -0.4531  -0.4456  -0.4454  -0.4437  -0.4421
    -0.4040  -0.4020  -0.4007  -0.3939  -0.3920  -0.3873  -0.3857  -0.3752
    -0.3697  -0.3668  -0.3645  -0.3245  -0.3232  -0.3155  -0.3120  -0.3111
    -0.2346  -0.2336  -0.2314  -0.2306  -0.2221  -0.2214  -0.1853  -0.1727
    -0.1721  -0.1472  -0.1405  -0.1370  -0.0202  -0.0167   0.0837   0.4988
     0.4994   0.5018   0.5023   0.5607   0.5671   0.9518   0.9523   0.9943
     0.9956   1.1037   1.1840   1.2906   1.3007   1.5092   1.5261   2.1477
     2.1511   2.3089   2.3150   2.4392   2.4489   2.5473   2.5481   2.7017
     2.9394   2.9417   3.0625   3.2830   3.2933   3.3710   3.3726   3.4711
     3.4870   3.6690   3.6877   3.7436   3.9434   3.9451   4.0046   4.0106
     4.2633   4.2681   4.2764   4.5150   4.5557   4.5576   4.6020   4.9357
     4.9407   4.9670   5.0834   5.1036   5.2747   5.2756   5.3182   5.3521
     5.7543   5.9051   6.0609   6.0653   6.0662   6.0828   6.1369   6.1381
     6.2056   6.2466   6.2721   6.2971   6.2994   6.3036   6.3151   6.3498
     6.3600   6.3751   6.4519   6.5937   6.7325   6.7643   6.9206   6.9652
     7.0028   7.0087   7.0183

          k = 0.2500-0.4330-0.1111 (136853 PWs)   bands (ev):

   -18.9916  -6.8007  -6.2159  -5.8179  -5.8150  -5.1387  -4.8054  -4.8047
    -4.7674  -4.7643  -4.4052  -4.4040  -4.3062  -4.3059  -4.2919  -4.2708
    -4.2442  -4.1392  -4.1378  -4.1143  -4.0709  -4.0706  -4.0019  -4.0016
    -3.9952  -3.9949  -3.9735  -3.9692  -3.9666  -3.8964  -3.8941  -3.8660
    -3.8643  -3.8533  -3.8529  -3.8299  -3.8297  -3.8073  -3.7990  -3.7986
    -3.7724  -3.7202  -3.7197  -3.6728  -3.6709  -3.6128  -3.6124  -3.5580
    -3.5579  -3.5576  -3.5573  -3.5221  -3.4830  -3.4823  -3.4763  -3.4751
    -3.4749  -3.4445  -3.4441  -3.4358  -3.3741  -3.3733  -3.3641  -3.3480
    -3.3406  -3.2710  -3.2680  -3.2356  -3.2338  -3.2074  -3.2060  -3.1931
    -3.1788  -3.1270  -3.1164  -3.1061  -3.0985  -3.0908  -3.0462  -3.0415
    -3.0405  -3.0036  -2.9718  -2.9714  -2.9635  -2.9610  -2.9498  -2.9492
    -2.9416  -2.9409  -2.9316  -2.8908  -2.8542  -2.8520  -2.8388  -2.8380
    -2.8129  -2.8029  -2.8024  -2.7800  -2.7372  -2.7348  -2.7273  -2.6877
    -2.6812  -2.6706  -2.6685  -2.6409  -2.6400  -2.6110  -2.5734  -2.5730
    -2.5510  -2.5440  -2.5303  -2.5293  -2.4794  -2.4787  -2.4463  -2.4238
    -2.4235  -2.3995  -2.3990  -2.3881  -2.3872  -2.3771  -2.3548  -2.3539
    -2.3095  -2.3091  -2.3083  -2.2919  -2.2904  -2.2861  -2.2763  -2.2758
    -2.2739  -2.2731  -2.2676  -2.2555  -2.2537  -2.2445  -2.2184  -2.2183
    -2.2170  -2.2160  -2.2149  -2.2129  -2.2115  -2.1847  -2.1816  -2.1674
    -2.1670  -2.1498  -2.1488  -2.1393  -2.1389  -2.1381  -2.1370  -2.1189
    -2.1164  -2.1153  -2.1147  -2.0979  -2.0724  -2.0715  -2.0329  -2.0307
    -2.0066  -2.0053  -1.9787  -1.9780  -1.9509  -1.9504  -1.9339  -1.9290
    -1.9021  -1.8800  -1.8792  -1.8749  -1.8731  -1.8696  -1.8632  -1.8606
    -1.8361  -1.8292  -1.8192  -1.7638  -1.7599  -1.7582  -1.7560  -1.7551
    -1.7182  -1.7007  -1.6989  -1.6720  -1.6711  -1.6117  -1.6100  -1.5823
    -1.5643  -1.5621  -1.5030  -1.5018  -1.4912  -1.4896  -1.4801  -1.4784
    -1.4759  -1.4669  -1.4653  -1.4112  -1.4091  -1.3984  -1.3981  -1.3969
    -1.3789  -1.3772  -1.3430  -1.3425  -1.3253  -1.3249  -1.3244  -1.3178
    -1.3132  -1.3045  -1.3026  -1.2841  -1.2837  -1.2435  -1.2405  -1.2303
    -1.2290  -1.2092  -1.1964  -1.1542  -1.1523  -1.1268  -1.1230  -1.1216
    -1.0925  -1.0446  -1.0407  -1.0395  -1.0383  -1.0348  -1.0321  -1.0240
    -1.0087  -1.0039  -0.9957  -0.9644  -0.9622  -0.9335  -0.9320  -0.9278
    -0.9268  -0.9194  -0.9038  -0.9025  -0.9020  -0.8992  -0.8974  -0.8636
    -0.8599  -0.8588  -0.8565  -0.8281  -0.8274  -0.8233  -0.8000  -0.7928
    -0.7904  -0.7457  -0.7391  -0.7360  -0.7033  -0.6947  -0.6842  -0.6840
    -0.6761  -0.6757  -0.6750  -0.6724  -0.6629  -0.6609  -0.6366  -0.6356
    -0.6331  -0.6315  -0.6300  -0.5937  -0.5932  -0.5834  -0.5813  -0.5667
    -0.5604  -0.5576  -0.5473  -0.4922  -0.4896  -0.4811  -0.4807  -0.4799
    -0.4787  -0.4737  -0.4553  -0.4531  -0.4456  -0.4454  -0.4437  -0.4421
    -0.4040  -0.4020  -0.4007  -0.3939  -0.3920  -0.3873  -0.3857  -0.3752
    -0.3697  -0.3668  -0.3645  -0.3245  -0.3232  -0.3155  -0.3120  -0.3111
    -0.2346  -0.2336  -0.2314  -0.2306  -0.2221  -0.2214  -0.1853  -0.1727
    -0.1721  -0.1472  -0.1405  -0.1370  -0.0202  -0.0167   0.0837   0.4988
     0.4994   0.5018   0.5023   0.5607   0.5671   0.9518   0.9523   0.9943
     0.9956   1.1037   1.1840   1.2906   1.3007   1.5092   1.5261   2.1477
     2.1511   2.3089   2.3150   2.4392   2.4489   2.5473   2.5481   2.7017
     2.9394   2.9417   3.0625   3.2830   3.2933   3.3710   3.3726   3.4711
     3.4870   3.6690   3.6877   3.7436   3.9434   3.9451   4.0046   4.0106
     4.2633   4.2681   4.2764   4.5150   4.5557   4.5576   4.6020   4.9357
     4.9407   4.9670   5.0834   5.1036   5.2747   5.2756   5.3182   5.3521
     5.7544   5.9050   6.0609   6.0656   6.0660   6.0825   6.1368   6.1381
     6.2055   6.2466   6.2721   6.2970   6.2996   6.3037   6.3151   6.3495
     6.3600   6.3750   6.4528   6.5952   6.7313   6.7644   6.9205   6.9643
     7.0025   7.0091   7.0180

          k = 0.5000 0.0000 0.1111 (136853 PWs)   bands (ev):

   -18.9916  -6.8007  -6.2159  -5.8178  -5.8152  -5.1387  -4.8060  -4.8041
    -4.7668  -4.7649  -4.4054  -4.4039  -4.3062  -4.3060  -4.2918  -4.2708
    -4.2443  -4.1389  -4.1381  -4.1143  -4.0708  -4.0707  -4.0019  -4.0016
    -3.9957  -3.9944  -3.9735  -3.9696  -3.9662  -3.8964  -3.8941  -3.8662
    -3.8641  -3.8534  -3.8528  -3.8298  -3.8298  -3.8073  -3.7991  -3.7985
    -3.7725  -3.7202  -3.7197  -3.6730  -3.6707  -3.6128  -3.6123  -3.5585
    -3.5581  -3.5574  -3.5569  -3.5221  -3.4830  -3.4822  -3.4763  -3.4754
    -3.4748  -3.4453  -3.4435  -3.4357  -3.3742  -3.3733  -3.3641  -3.3480
    -3.3406  -3.2703  -3.2686  -3.2357  -3.2337  -3.2073  -3.2060  -3.1931
    -3.1789  -3.1272  -3.1161  -3.1060  -3.0987  -3.0908  -3.0463  -3.0415
    -3.0404  -3.0035  -2.9726  -2.9706  -2.9630  -2.9615  -2.9495  -2.9487
    -2.9418  -2.9414  -2.9316  -2.8908  -2.8536  -2.8527  -2.8389  -2.8379
    -2.8129  -2.8028  -2.8024  -2.7800  -2.7362  -2.7358  -2.7273  -2.6877
    -2.6812  -2.6702  -2.6688  -2.6409  -2.6400  -2.6110  -2.5735  -2.5729
    -2.5510  -2.5440  -2.5303  -2.5294  -2.4793  -2.4787  -2.4462  -2.4239
    -2.4235  -2.3995  -2.3990  -2.3880  -2.3874  -2.3771  -2.3547  -2.3538
    -2.3098  -2.3087  -2.3082  -2.2919  -2.2903  -2.2861  -2.2763  -2.2758
    -2.2739  -2.2731  -2.2677  -2.2552  -2.2541  -2.2445  -2.2186  -2.2181
    -2.2169  -2.2159  -2.2149  -2.2130  -2.2114  -2.1847  -2.1815  -2.1674
    -2.1670  -2.1498  -2.1488  -2.1392  -2.1390  -2.1383  -2.1367  -2.1182
    -2.1169  -2.1159  -2.1144  -2.0978  -2.0721  -2.0718  -2.0329  -2.0306
    -2.0067  -2.0053  -1.9787  -1.9780  -1.9510  -1.9503  -1.9339  -1.9289
    -1.9022  -1.8802  -1.8792  -1.8750  -1.8728  -1.8697  -1.8632  -1.8605
    -1.8362  -1.8293  -1.8192  -1.7637  -1.7603  -1.7578  -1.7559  -1.7552
    -1.7182  -1.7006  -1.6991  -1.6721  -1.6710  -1.6112  -1.6105  -1.5822
    -1.5643  -1.5621  -1.5027  -1.5021  -1.4910  -1.4898  -1.4798  -1.4786
    -1.4759  -1.4667  -1.4655  -1.4107  -1.4095  -1.3988  -1.3979  -1.3967
    -1.3789  -1.3771  -1.3430  -1.3426  -1.3254  -1.3249  -1.3244  -1.3176
    -1.3134  -1.3043  -1.3028  -1.2847  -1.2832  -1.2435  -1.2405  -1.2305
    -1.2287  -1.2092  -1.1964  -1.1540  -1.1526  -1.1269  -1.1228  -1.1220
    -1.0925  -1.0443  -1.0409  -1.0393  -1.0382  -1.0345  -1.0326  -1.0237
    -1.0084  -1.0040  -0.9962  -0.9643  -0.9623  -0.9335  -0.9318  -0.9279
    -0.9269  -0.9193  -0.9036  -0.9025  -0.9019  -0.8992  -0.8977  -0.8638
    -0.8599  -0.8588  -0.8561  -0.8282  -0.8275  -0.8236  -0.7999  -0.7924
    -0.7908  -0.7457  -0.7394  -0.7357  -0.7033  -0.6948  -0.6842  -0.6839
    -0.6764  -0.6755  -0.6752  -0.6722  -0.6631  -0.6606  -0.6367  -0.6355
    -0.6331  -0.6318  -0.6297  -0.5939  -0.5931  -0.5837  -0.5811  -0.5667
    -0.5603  -0.5576  -0.5474  -0.4921  -0.4897  -0.4812  -0.4807  -0.4800
    -0.4785  -0.4738  -0.4554  -0.4530  -0.4457  -0.4452  -0.4436  -0.4422
    -0.4040  -0.4018  -0.4009  -0.3937  -0.3921  -0.3873  -0.3858  -0.3753
    -0.3695  -0.3667  -0.3646  -0.3244  -0.3233  -0.3155  -0.3120  -0.3111
    -0.2348  -0.2335  -0.2315  -0.2305  -0.2222  -0.2213  -0.1853  -0.1728
    -0.1721  -0.1468  -0.1406  -0.1374  -0.0204  -0.0165   0.0837   0.4987
     0.4994   0.5017   0.5024   0.5601   0.5676   0.9517   0.9523   0.9939
     0.9960   1.1038   1.1841   1.2913   1.3001   1.5094   1.5259   2.1470
     2.1517   2.3085   2.3155   2.4385   2.4495   2.5470   2.5484   2.7017
     2.9394   2.9418   3.0625   3.2835   3.2929   3.3705   3.3731   3.4711
     3.4870   3.6690   3.6876   3.7436   3.9440   3.9445   4.0036   4.0118
     4.2634   4.2673   4.2772   4.5149   4.5549   4.5585   4.6021   4.9367
     4.9398   4.9670   5.0829   5.1052   5.2743   5.2761   5.3154   5.3515
     5.7658   5.8937   6.0612   6.0661   6.0674   6.0853   6.1367   6.1382
     6.2074   6.2467   6.2722   6.2983   6.2991   6.3021   6.3155   6.3521
     6.3596   6.3789   6.4362   6.5968   6.7258   6.7708   6.9232   6.9622
     7.0026   7.0095   7.0180

          k =-0.5000 0.0000 0.1111 (136853 PWs)   bands (ev):

   -18.9916  -6.8007  -6.2159  -5.8178  -5.8152  -5.1387  -4.8060  -4.8041
    -4.7668  -4.7649  -4.4054  -4.4039  -4.3062  -4.3060  -4.2918  -4.2708
    -4.2443  -4.1389  -4.1381  -4.1143  -4.0708  -4.0707  -4.0019  -4.0016
    -3.9957  -3.9944  -3.9735  -3.9696  -3.9662  -3.8964  -3.8941  -3.8662
    -3.8641  -3.8534  -3.8528  -3.8298  -3.8298  -3.8073  -3.7991  -3.7985
    -3.7725  -3.7202  -3.7197  -3.6730  -3.6707  -3.6128  -3.6123  -3.5585
    -3.5581  -3.5574  -3.5569  -3.5221  -3.4830  -3.4822  -3.4763  -3.4754
    -3.4748  -3.4453  -3.4435  -3.4357  -3.3742  -3.3733  -3.3641  -3.3480
    -3.3406  -3.2703  -3.2686  -3.2357  -3.2337  -3.2073  -3.2060  -3.1931
    -3.1789  -3.1272  -3.1161  -3.1060  -3.0987  -3.0908  -3.0463  -3.0415
    -3.0404  -3.0035  -2.9726  -2.9706  -2.9630  -2.9615  -2.9495  -2.9487
    -2.9418  -2.9414  -2.9316  -2.8908  -2.8536  -2.8527  -2.8389  -2.8379
    -2.8129  -2.8028  -2.8024  -2.7800  -2.7362  -2.7358  -2.7273  -2.6877
    -2.6812  -2.6702  -2.6688  -2.6409  -2.6400  -2.6110  -2.5735  -2.5729
    -2.5510  -2.5440  -2.5303  -2.5294  -2.4793  -2.4787  -2.4462  -2.4239
    -2.4235  -2.3995  -2.3990  -2.3880  -2.3874  -2.3771  -2.3547  -2.3538
    -2.3098  -2.3087  -2.3082  -2.2919  -2.2903  -2.2861  -2.2763  -2.2758
    -2.2739  -2.2731  -2.2677  -2.2552  -2.2541  -2.2445  -2.2186  -2.2181
    -2.2169  -2.2159  -2.2149  -2.2130  -2.2114  -2.1847  -2.1815  -2.1674
    -2.1670  -2.1498  -2.1488  -2.1392  -2.1390  -2.1383  -2.1367  -2.1182
    -2.1169  -2.1159  -2.1144  -2.0978  -2.0721  -2.0718  -2.0329  -2.0306
    -2.0067  -2.0053  -1.9787  -1.9780  -1.9510  -1.9503  -1.9339  -1.9289
    -1.9022  -1.8802  -1.8792  -1.8750  -1.8728  -1.8697  -1.8632  -1.8605
    -1.8362  -1.8293  -1.8192  -1.7637  -1.7603  -1.7578  -1.7559  -1.7552
    -1.7182  -1.7006  -1.6991  -1.6721  -1.6710  -1.6112  -1.6105  -1.5822
    -1.5643  -1.5621  -1.5027  -1.5021  -1.4910  -1.4898  -1.4798  -1.4786
    -1.4759  -1.4667  -1.4655  -1.4107  -1.4095  -1.3988  -1.3979  -1.3967
    -1.3789  -1.3771  -1.3430  -1.3426  -1.3254  -1.3249  -1.3244  -1.3176
    -1.3134  -1.3043  -1.3028  -1.2847  -1.2832  -1.2435  -1.2405  -1.2305
    -1.2287  -1.2092  -1.1964  -1.1541  -1.1526  -1.1269  -1.1228  -1.1220
    -1.0925  -1.0443  -1.0409  -1.0393  -1.0382  -1.0345  -1.0326  -1.0237
    -1.0084  -1.0040  -0.9962  -0.9643  -0.9623  -0.9335  -0.9318  -0.9279
    -0.9269  -0.9193  -0.9036  -0.9025  -0.9019  -0.8992  -0.8977  -0.8638
    -0.8599  -0.8588  -0.8561  -0.8282  -0.8275  -0.8236  -0.7999  -0.7924
    -0.7908  -0.7457  -0.7394  -0.7357  -0.7033  -0.6948  -0.6842  -0.6839
    -0.6764  -0.6755  -0.6752  -0.6722  -0.6631  -0.6606  -0.6367  -0.6355
    -0.6331  -0.6318  -0.6297  -0.5939  -0.5931  -0.5837  -0.5811  -0.5667
    -0.5603  -0.5576  -0.5474  -0.4921  -0.4897  -0.4812  -0.4807  -0.4800
    -0.4785  -0.4738  -0.4554  -0.4530  -0.4457  -0.4452  -0.4436  -0.4422
    -0.4040  -0.4018  -0.4009  -0.3937  -0.3921  -0.3873  -0.3858  -0.3753
    -0.3695  -0.3667  -0.3646  -0.3244  -0.3233  -0.3155  -0.3120  -0.3111
    -0.2348  -0.2335  -0.2315  -0.2305  -0.2222  -0.2213  -0.1853  -0.1728
    -0.1721  -0.1468  -0.1406  -0.1374  -0.0204  -0.0165   0.0837   0.4987
     0.4994   0.5017   0.5024   0.5601   0.5676   0.9517   0.9523   0.9939
     0.9960   1.1038   1.1841   1.2913   1.3001   1.5094   1.5259   2.1470
     2.1517   2.3085   2.3155   2.4385   2.4495   2.5470   2.5484   2.7017
     2.9394   2.9418   3.0625   3.2835   3.2929   3.3705   3.3731   3.4711
     3.4870   3.6690   3.6876   3.7436   3.9440   3.9445   4.0036   4.0118
     4.2634   4.2673   4.2772   4.5149   4.5549   4.5585   4.6021   4.9367
     4.9398   4.9670   5.0829   5.1052   5.2743   5.2761   5.3154   5.3515
     5.7657   5.8938   6.0613   6.0664   6.0673   6.0853   6.1366   6.1383
     6.2074   6.2467   6.2723   6.2982   6.2991   6.3021   6.3155   6.3519
     6.3597   6.3785   6.4366   6.5962   6.7267   6.7703   6.9248   6.9614
     7.0024   7.0096   7.0178

          k =-0.2500 0.1443 0.1111 (136898 PWs)   bands (ev):

   -18.9916  -6.8007  -6.4258  -5.6337  -5.3426  -5.2836  -5.2832  -4.7451
    -4.7448  -4.6132  -4.6129  -4.4585  -4.4267  -4.3653  -4.3319  -4.3315
    -4.2983  -4.2983  -4.1697  -4.1279  -4.1278  -4.0680  -4.0470  -4.0467
    -3.9445  -3.9444  -3.9083  -3.9080  -3.9079  -3.8812  -3.8595  -3.8594
    -3.7545  -3.7523  -3.7522  -3.7317  -3.7147  -3.7146  -3.7025  -3.7023
    -3.6892  -3.6589  -3.6588  -3.6586  -3.6583  -3.6260  -3.6259  -3.6081
    -3.6080  -3.5935  -3.5501  -3.5495  -3.5203  -3.5051  -3.5047  -3.4997
    -3.4997  -3.4251  -3.4251  -3.3899  -3.3888  -3.3874  -3.3196  -3.3195
    -3.3050  -3.3042  -3.2737  -3.2727  -3.2722  -3.2717  -3.1294  -3.1187
    -3.1090  -3.0926  -3.0909  -3.0863  -3.0715  -3.0671  -3.0454  -3.0432
    -2.9956  -2.9942  -2.9793  -2.9784  -2.9582  -2.9101  -2.9099  -2.8902
    -2.8857  -2.8847  -2.8447  -2.8441  -2.8381  -2.8367  -2.8217  -2.8197
    -2.7818  -2.7814  -2.7598  -2.7597  -2.7567  -2.7557  -2.7530  -2.6764
    -2.6758  -2.6742  -2.6461  -2.6448  -2.5839  -2.5838  -2.5554  -2.5544
    -2.5414  -2.5407  -2.5355  -2.5061  -2.5060  -2.4963  -2.4787  -2.4532
    -2.4530  -2.4526  -2.4321  -2.4318  -2.4208  -2.4200  -2.4176  -2.4163
    -2.4090  -2.3628  -2.3305  -2.3302  -2.3146  -2.3007  -2.2943  -2.2941
    -2.2870  -2.2861  -2.2850  -2.2553  -2.2550  -2.2545  -2.2451  -2.2447
    -2.2278  -2.2005  -2.1998  -2.1993  -2.1987  -2.1972  -2.1531  -2.1216
    -2.1215  -2.1207  -2.1146  -2.1056  -2.0927  -2.0925  -2.0757  -2.0757
    -2.0418  -2.0409  -2.0405  -2.0222  -2.0207  -2.0204  -1.9877  -1.9870
    -1.9461  -1.9453  -1.9384  -1.9364  -1.9359  -1.9298  -1.9292  -1.9271
    -1.9264  -1.9206  -1.9191  -1.9033  -1.9024  -1.7762  -1.7753  -1.7434
    -1.7380  -1.7364  -1.7316  -1.7312  -1.7138  -1.7133  -1.7109  -1.7107
    -1.7084  -1.6859  -1.6781  -1.6775  -1.6722  -1.6658  -1.6641  -1.6426
    -1.6422  -1.6138  -1.6138  -1.5818  -1.5817  -1.5712  -1.5632  -1.5455
    -1.5444  -1.5421  -1.5238  -1.5113  -1.5110  -1.5039  -1.5037  -1.4770
    -1.4770  -1.4601  -1.4600  -1.4283  -1.4262  -1.4182  -1.3668  -1.3667
    -1.3546  -1.3542  -1.3516  -1.3283  -1.3257  -1.2923  -1.2916  -1.2911
    -1.2586  -1.2482  -1.2467  -1.2318  -1.2314  -1.2064  -1.2039  -1.2030
    -1.1736  -1.1713  -1.1706  -1.1086  -1.1076  -1.0954  -1.0937  -1.0785
    -1.0784  -1.0673  -1.0658  -1.0475  -1.0347  -1.0170  -1.0070  -1.0050
    -0.9928  -0.9610  -0.9575  -0.9546  -0.9452  -0.9448  -0.9427  -0.9381
    -0.9327  -0.9241  -0.8935  -0.8927  -0.8836  -0.8814  -0.8808  -0.8746
    -0.8565  -0.8391  -0.8345  -0.8177  -0.8139  -0.7234  -0.7107  -0.7050
    -0.7047  -0.7006  -0.6957  -0.6941  -0.6722  -0.6693  -0.6551  -0.6527
    -0.6396  -0.6382  -0.6302  -0.6108  -0.6078  -0.6075  -0.5995  -0.5277
    -0.5274  -0.4946  -0.4914  -0.4892  -0.4830  -0.4812  -0.4806  -0.4796
    -0.4681  -0.4659  -0.4506  -0.4263  -0.4116  -0.3923  -0.3910  -0.3809
    -0.3794  -0.3680  -0.3668  -0.3665  -0.3648  -0.3637  -0.3472  -0.3432
    -0.3418  -0.3121  -0.3109  -0.3096  -0.2983  -0.2979  -0.2789  -0.2470
    -0.2462  -0.2377  -0.2367  -0.1694  -0.1687  -0.1320  -0.1318  -0.0745
    -0.0723  -0.0718  -0.0602  -0.0432   0.1765   0.1856   0.5272   0.5273
     0.6153   0.6237   0.8112   0.8302   0.8450   0.9750   0.9770   1.4074
     1.4075   1.4258   1.6840   1.7174   1.7175   1.9891   2.0014   2.0734
     2.0742   2.0983   2.1062   2.3301   2.3303   2.4184   2.4190   2.4875
     2.5526   2.5665   2.7225   2.8204   3.2599   3.2613   3.2628   3.2677
     3.3189   3.3195   3.6115   3.6119   3.8894   3.8974   3.9906   4.3075
     4.3480   4.3535   4.5526   4.5707   4.6504   4.6532   4.7419   4.8592
     4.8632   4.9769   4.9793   5.0539   5.2821   5.3485   5.3543   5.4946
     5.5252   5.7376   5.7391   5.7492   5.7652   5.7662   5.8272   5.8292
     5.8802   6.0522   6.2195   6.2644   6.4338   6.4469   6.5698   6.5715
     6.5770   6.5823   6.5987   6.7476   6.8073   6.8234   6.8292   6.9795
     7.0145   7.0365   7.0585

          k =-0.2500-0.1443-0.1111 (136898 PWs)   bands (ev):

   -18.9916  -6.8007  -6.4258  -5.6337  -5.3426  -5.2835  -5.2832  -4.7450
    -4.7448  -4.6136  -4.6126  -4.4585  -4.4267  -4.3654  -4.3318  -4.3317
    -4.2984  -4.2981  -4.1696  -4.1280  -4.1278  -4.0678  -4.0470  -4.0468
    -3.9444  -3.9443  -3.9083  -3.9081  -3.9079  -3.8812  -3.8597  -3.8592
    -3.7545  -3.7524  -3.7522  -3.7315  -3.7149  -3.7146  -3.7025  -3.7024
    -3.6891  -3.6589  -3.6588  -3.6585  -3.6582  -3.6262  -3.6258  -3.6080
    -3.6079  -3.5933  -3.5503  -3.5495  -3.5205  -3.5052  -3.5045  -3.4998
    -3.4996  -3.4252  -3.4251  -3.3898  -3.3887  -3.3872  -3.3198  -3.3196
    -3.3050  -3.3041  -3.2736  -3.2727  -3.2723  -3.2721  -3.1295  -3.1186
    -3.1090  -3.0925  -3.0911  -3.0862  -3.0715  -3.0672  -3.0453  -3.0431
    -2.9956  -2.9943  -2.9793  -2.9784  -2.9581  -2.9100  -2.9098  -2.8903
    -2.8858  -2.8849  -2.8447  -2.8441  -2.8381  -2.8369  -2.8216  -2.8199
    -2.7816  -2.7812  -2.7601  -2.7595  -2.7565  -2.7558  -2.7528  -2.6763
    -2.6759  -2.6744  -2.6460  -2.6449  -2.5841  -2.5835  -2.5553  -2.5544
    -2.5411  -2.5406  -2.5356  -2.5061  -2.5059  -2.4964  -2.4786  -2.4534
    -2.4529  -2.4528  -2.4321  -2.4318  -2.4210  -2.4204  -2.4174  -2.4163
    -2.4090  -2.3628  -2.3305  -2.3304  -2.3145  -2.3009  -2.2942  -2.2942
    -2.2870  -2.2862  -2.2852  -2.2551  -2.2549  -2.2546  -2.2452  -2.2445
    -2.2276  -2.2008  -2.1999  -2.1989  -2.1987  -2.1975  -2.1533  -2.1217
    -2.1215  -2.1208  -2.1145  -2.1057  -2.0926  -2.0924  -2.0756  -2.0755
    -2.0418  -2.0408  -2.0404  -2.0223  -2.0207  -2.0205  -1.9875  -1.9871
    -1.9464  -1.9450  -1.9381  -1.9363  -1.9358  -1.9297  -1.9294  -1.9279
    -1.9261  -1.9203  -1.9191  -1.9032  -1.9026  -1.7761  -1.7754  -1.7431
    -1.7378  -1.7365  -1.7315  -1.7310  -1.7144  -1.7137  -1.7109  -1.7105
    -1.7079  -1.6859  -1.6782  -1.6775  -1.6719  -1.6658  -1.6637  -1.6429
    -1.6424  -1.6143  -1.6137  -1.5817  -1.5815  -1.5711  -1.5631  -1.5454
    -1.5445  -1.5418  -1.5238  -1.5115  -1.5111  -1.5041  -1.5037  -1.4768
    -1.4767  -1.4606  -1.4598  -1.4288  -1.4265  -1.4179  -1.3673  -1.3665
    -1.3547  -1.3542  -1.3515  -1.3285  -1.3255  -1.2923  -1.2920  -1.2907
    -1.2579  -1.2485  -1.2467  -1.2317  -1.2313  -1.2057  -1.2042  -1.2027
    -1.1737  -1.1711  -1.1708  -1.1086  -1.1084  -1.0961  -1.0940  -1.0792
    -1.0781  -1.0659  -1.0654  -1.0471  -1.0347  -1.0150  -1.0065  -1.0043
    -0.9941  -0.9652  -0.9561  -0.9549  -0.9453  -0.9449  -0.9432  -0.9374
    -0.9348  -0.9241  -0.8935  -0.8929  -0.8822  -0.8818  -0.8786  -0.8755
    -0.8564  -0.8374  -0.8354  -0.8170  -0.8142  -0.7234  -0.7107  -0.7049
    -0.7048  -0.7006  -0.6956  -0.6941  -0.6729  -0.6693  -0.6546  -0.6531
    -0.6395  -0.6385  -0.6303  -0.6102  -0.6081  -0.6077  -0.5995  -0.5277
    -0.5273  -0.4941  -0.4921  -0.4892  -0.4827  -0.4815  -0.4805  -0.4798
    -0.4682  -0.4653  -0.4508  -0.4262  -0.4118  -0.3921  -0.3912  -0.3808
    -0.3796  -0.3681  -0.3667  -0.3663  -0.3648  -0.3638  -0.3471  -0.3433
    -0.3420  -0.3120  -0.3110  -0.3092  -0.2983  -0.2979  -0.2789  -0.2469
    -0.2462  -0.2375  -0.2367  -0.1695  -0.1687  -0.1322  -0.1316  -0.0745
    -0.0725  -0.0716  -0.0607  -0.0432   0.1780   0.1848   0.5272   0.5273
     0.6166   0.6229   0.8095   0.8309   0.8451   0.9753   0.9766   1.4074
     1.4076   1.4258   1.6841   1.7174   1.7176   1.9909   1.9996   2.0735
     2.0741   2.0993   2.1052   2.3299   2.3305   2.4185   2.4188   2.4879
     2.5541   2.5644   2.7223   2.8207   3.2595   3.2615   3.2634   3.2673
     3.3192   3.3197   3.6114   3.6122   3.8905   3.8966   3.9915   4.3075
     4.3485   4.3526   4.5574   4.5607   4.6505   4.6527   4.7429   4.8588
     4.8628   4.9774   4.9794   5.0619   5.2820   5.3479   5.3546   5.5038
     5.5216   5.7369   5.7380   5.7430   5.7652   5.7666   5.8271   5.8307
     5.8674   6.0030   6.2504   6.3140   6.4303   6.4462   6.5681   6.5721
     6.5747   6.5833   6.5948   6.7155   6.8243   6.8275   6.8720   6.9699
     6.9926   7.0396   7.0540

          k = 0.2500 0.1443-0.1111 (136898 PWs)   bands (ev):

   -18.9916  -6.8007  -6.4258  -5.6337  -5.3426  -5.2835  -5.2832  -4.7450
    -4.7448  -4.6136  -4.6126  -4.4585  -4.4267  -4.3654  -4.3318  -4.3317
    -4.2984  -4.2981  -4.1696  -4.1280  -4.1278  -4.0678  -4.0470  -4.0468
    -3.9444  -3.9443  -3.9083  -3.9081  -3.9079  -3.8812  -3.8597  -3.8592
    -3.7545  -3.7524  -3.7522  -3.7315  -3.7148  -3.7146  -3.7025  -3.7024
    -3.6891  -3.6589  -3.6588  -3.6585  -3.6582  -3.6262  -3.6258  -3.6081
    -3.6079  -3.5933  -3.5503  -3.5495  -3.5205  -3.5052  -3.5045  -3.4998
    -3.4996  -3.4252  -3.4251  -3.3898  -3.3887  -3.3872  -3.3198  -3.3196
    -3.3050  -3.3041  -3.2736  -3.2727  -3.2723  -3.2721  -3.1295  -3.1187
    -3.1090  -3.0925  -3.0911  -3.0862  -3.0715  -3.0672  -3.0453  -3.0431
    -2.9956  -2.9943  -2.9793  -2.9784  -2.9581  -2.9100  -2.9098  -2.8903
    -2.8858  -2.8849  -2.8447  -2.8441  -2.8381  -2.8369  -2.8216  -2.8199
    -2.7816  -2.7812  -2.7601  -2.7595  -2.7565  -2.7558  -2.7528  -2.6763
    -2.6759  -2.6744  -2.6460  -2.6449  -2.5841  -2.5835  -2.5553  -2.5544
    -2.5411  -2.5406  -2.5356  -2.5061  -2.5059  -2.4964  -2.4787  -2.4533
    -2.4529  -2.4528  -2.4321  -2.4318  -2.4210  -2.4204  -2.4174  -2.4164
    -2.4090  -2.3628  -2.3305  -2.3304  -2.3145  -2.3008  -2.2942  -2.2942
    -2.2870  -2.2862  -2.2852  -2.2551  -2.2549  -2.2546  -2.2452  -2.2445
    -2.2276  -2.2008  -2.1999  -2.1989  -2.1986  -2.1975  -2.1533  -2.1217
    -2.1215  -2.1208  -2.1145  -2.1057  -2.0926  -2.0924  -2.0756  -2.0755
    -2.0418  -2.0408  -2.0404  -2.0223  -2.0207  -2.0205  -1.9875  -1.9871
    -1.9464  -1.9450  -1.9381  -1.9363  -1.9358  -1.9297  -1.9294  -1.9279
    -1.9261  -1.9203  -1.9191  -1.9032  -1.9026  -1.7761  -1.7754  -1.7431
    -1.7378  -1.7365  -1.7315  -1.7310  -1.7144  -1.7137  -1.7109  -1.7105
    -1.7079  -1.6859  -1.6782  -1.6775  -1.6719  -1.6658  -1.6637  -1.6429
    -1.6424  -1.6143  -1.6137  -1.5817  -1.5815  -1.5711  -1.5631  -1.5454
    -1.5445  -1.5418  -1.5237  -1.5115  -1.5111  -1.5041  -1.5037  -1.4768
    -1.4767  -1.4606  -1.4598  -1.4288  -1.4265  -1.4179  -1.3673  -1.3665
    -1.3547  -1.3542  -1.3515  -1.3285  -1.3254  -1.2923  -1.2920  -1.2907
    -1.2579  -1.2485  -1.2467  -1.2317  -1.2313  -1.2057  -1.2042  -1.2027
    -1.1737  -1.1711  -1.1708  -1.1086  -1.1084  -1.0961  -1.0940  -1.0792
    -1.0781  -1.0659  -1.0654  -1.0471  -1.0347  -1.0150  -1.0065  -1.0043
    -0.9941  -0.9651  -0.9561  -0.9550  -0.9453  -0.9449  -0.9432  -0.9374
    -0.9348  -0.9241  -0.8935  -0.8929  -0.8822  -0.8818  -0.8786  -0.8755
    -0.8564  -0.8374  -0.8354  -0.8170  -0.8142  -0.7234  -0.7107  -0.7049
    -0.7048  -0.7006  -0.6956  -0.6942  -0.6729  -0.6693  -0.6546  -0.6531
    -0.6395  -0.6385  -0.6303  -0.6102  -0.6081  -0.6077  -0.5995  -0.5277
    -0.5273  -0.4941  -0.4921  -0.4892  -0.4827  -0.4815  -0.4805  -0.4798
    -0.4682  -0.4653  -0.4508  -0.4262  -0.4118  -0.3921  -0.3912  -0.3808
    -0.3796  -0.3681  -0.3667  -0.3663  -0.3648  -0.3638  -0.3471  -0.3433
    -0.3420  -0.3120  -0.3110  -0.3092  -0.2983  -0.2979  -0.2789  -0.2469
    -0.2462  -0.2375  -0.2367  -0.1695  -0.1687  -0.1322  -0.1316  -0.0745
    -0.0725  -0.0716  -0.0607  -0.0432   0.1780   0.1848   0.5272   0.5273
     0.6166   0.6229   0.8095   0.8309   0.8451   0.9753   0.9766   1.4074
     1.4076   1.4258   1.6841   1.7174   1.7176   1.9909   1.9996   2.0735
     2.0741   2.0993   2.1052   2.3299   2.3305   2.4185   2.4188   2.4879
     2.5541   2.5644   2.7222   2.8207   3.2595   3.2615   3.2634   3.2673
     3.3192   3.3197   3.6114   3.6122   3.8905   3.8966   3.9915   4.3075
     4.3485   4.3526   4.5575   4.5607   4.6505   4.6527   4.7429   4.8588
     4.8628   4.9774   4.9794   5.0619   5.2820   5.3479   5.3546   5.5038
     5.5216   5.7369   5.7381   5.7427   5.7652   5.7666   5.8271   5.8308
     5.8674   6.0040   6.2502   6.3127   6.4303   6.4447   6.5668   6.5721
     6.5734   6.5833   6.5941   6.7182   6.8243   6.8275   6.8734   6.9732
     6.9968   7.0403   7.0559

          k = 0.0000-0.2887 0.1111 (136898 PWs)   bands (ev):

   -18.9916  -6.8007  -6.4258  -5.6338  -5.3426  -5.2835  -5.2832  -4.7450
    -4.7448  -4.6134  -4.6128  -4.4585  -4.4267  -4.3655  -4.3318  -4.3317
    -4.2983  -4.2982  -4.1696  -4.1279  -4.1278  -4.0678  -4.0470  -4.0468
    -3.9444  -3.9443  -3.9083  -3.9081  -3.9079  -3.8812  -3.8595  -3.8594
    -3.7544  -3.7524  -3.7522  -3.7316  -3.7148  -3.7146  -3.7025  -3.7024
    -3.6891  -3.6590  -3.6588  -3.6584  -3.6582  -3.6262  -3.6258  -3.6080
    -3.6079  -3.5933  -3.5504  -3.5494  -3.5205  -3.5053  -3.5045  -3.4997
    -3.4996  -3.4252  -3.4251  -3.3897  -3.3888  -3.3872  -3.3198  -3.3196
    -3.3051  -3.3041  -3.2737  -3.2726  -3.2724  -3.2720  -3.1295  -3.1186
    -3.1090  -3.0924  -3.0912  -3.0862  -3.0715  -3.0673  -3.0454  -3.0431
    -2.9956  -2.9943  -2.9793  -2.9784  -2.9581  -2.9101  -2.9098  -2.8903
    -2.8858  -2.8849  -2.8447  -2.8441  -2.8381  -2.8368  -2.8216  -2.8200
    -2.7816  -2.7812  -2.7600  -2.7595  -2.7565  -2.7557  -2.7529  -2.6763
    -2.6759  -2.6744  -2.6460  -2.6449  -2.5841  -2.5836  -2.5553  -2.5543
    -2.5411  -2.5406  -2.5356  -2.5061  -2.5058  -2.4964  -2.4786  -2.4534
    -2.4530  -2.4527  -2.4320  -2.4318  -2.4210  -2.4204  -2.4173  -2.4165
    -2.4090  -2.3628  -2.3305  -2.3304  -2.3145  -2.3008  -2.2942  -2.2942
    -2.2870  -2.2863  -2.2851  -2.2552  -2.2548  -2.2545  -2.2450  -2.2448
    -2.2277  -2.2005  -2.2000  -2.1996  -2.1984  -2.1973  -2.1533  -2.1217
    -2.1215  -2.1208  -2.1146  -2.1057  -2.0927  -2.0924  -2.0756  -2.0755
    -2.0419  -2.0408  -2.0405  -2.0223  -2.0207  -2.0206  -1.9875  -1.9870
    -1.9462  -1.9452  -1.9382  -1.9363  -1.9359  -1.9298  -1.9295  -1.9275
    -1.9263  -1.9202  -1.9192  -1.9032  -1.9026  -1.7760  -1.7754  -1.7431
    -1.7378  -1.7365  -1.7316  -1.7311  -1.7147  -1.7133  -1.7108  -1.7106
    -1.7079  -1.6859  -1.6781  -1.6773  -1.6722  -1.6658  -1.6638  -1.6429
    -1.6424  -1.6143  -1.6138  -1.5816  -1.5815  -1.5710  -1.5630  -1.5454
    -1.5445  -1.5419  -1.5238  -1.5115  -1.5111  -1.5041  -1.5037  -1.4768
    -1.4767  -1.4607  -1.4598  -1.4289  -1.4266  -1.4178  -1.3673  -1.3665
    -1.3547  -1.3542  -1.3514  -1.3285  -1.3254  -1.2923  -1.2921  -1.2907
    -1.2577  -1.2486  -1.2468  -1.2317  -1.2312  -1.2055  -1.2042  -1.2027
    -1.1736  -1.1712  -1.1709  -1.1087  -1.1084  -1.0962  -1.0940  -1.0790
    -1.0783  -1.0658  -1.0652  -1.0472  -1.0348  -1.0145  -1.0064  -1.0040
    -0.9946  -0.9660  -0.9560  -0.9550  -0.9453  -0.9448  -0.9432  -0.9370
    -0.9353  -0.9241  -0.8934  -0.8930  -0.8823  -0.8817  -0.8779  -0.8757
    -0.8564  -0.8368  -0.8355  -0.8169  -0.8144  -0.7235  -0.7107  -0.7049
    -0.7048  -0.7007  -0.6955  -0.6941  -0.6732  -0.6693  -0.6545  -0.6531
    -0.6394  -0.6386  -0.6303  -0.6101  -0.6082  -0.6077  -0.5995  -0.5277
    -0.5274  -0.4940  -0.4923  -0.4892  -0.4827  -0.4814  -0.4805  -0.4799
    -0.4683  -0.4653  -0.4509  -0.4262  -0.4118  -0.3920  -0.3913  -0.3808
    -0.3796  -0.3681  -0.3666  -0.3663  -0.3649  -0.3638  -0.3471  -0.3432
    -0.3420  -0.3120  -0.3110  -0.3093  -0.2983  -0.2980  -0.2789  -0.2469
    -0.2462  -0.2375  -0.2367  -0.1696  -0.1687  -0.1322  -0.1316  -0.0745
    -0.0726  -0.0715  -0.0608  -0.0432   0.1784   0.1846   0.5272   0.5273
     0.6168   0.6226   0.8094   0.8311   0.8449   0.9753   0.9765   1.4075
     1.4075   1.4258   1.6840   1.7175   1.7176   1.9914   1.9992   2.0735
     2.0741   2.0996   2.1049   2.3297   2.3308   2.4185   2.4188   2.4880
     2.5545   2.5639   2.7223   2.8207   3.2597   3.2612   3.2635   3.2673
     3.3192   3.3197   3.6117   3.6119   3.8908   3.8963   3.9916   4.3075
     4.3487   4.3524   4.5555   4.5615   4.6505   4.6526   4.7431   4.8587
     4.8627   4.9775   4.9793   5.0644   5.2821   5.3476   5.3547   5.5058
     5.5203   5.7356   5.7380   5.7417   5.7653   5.7669   5.8265   5.8314
     5.8650   5.9981   6.2467   6.3334   6.4284   6.4450   6.5672   6.5721
     6.5737   6.5835   6.5934   6.7076   6.8246   6.8272   6.8928   6.9675
     6.9877   7.0414   7.0519

          k = 0.0000 0.2887 0.1111 (136898 PWs)   bands (ev):

   -18.9916  -6.8007  -6.4258  -5.6338  -5.3426  -5.2835  -5.2832  -4.7450
    -4.7448  -4.6134  -4.6128  -4.4585  -4.4267  -4.3655  -4.3318  -4.3317
    -4.2983  -4.2982  -4.1696  -4.1279  -4.1278  -4.0678  -4.0470  -4.0468
    -3.9444  -3.9443  -3.9083  -3.9081  -3.9079  -3.8812  -3.8595  -3.8594
    -3.7544  -3.7524  -3.7522  -3.7316  -3.7148  -3.7146  -3.7025  -3.7024
    -3.6891  -3.6590  -3.6588  -3.6584  -3.6582  -3.6262  -3.6258  -3.6081
    -3.6079  -3.5933  -3.5504  -3.5494  -3.5204  -3.5053  -3.5045  -3.4997
    -3.4996  -3.4252  -3.4251  -3.3897  -3.3888  -3.3872  -3.3198  -3.3196
    -3.3051  -3.3041  -3.2737  -3.2726  -3.2724  -3.2720  -3.1295  -3.1186
    -3.1090  -3.0924  -3.0912  -3.0862  -3.0715  -3.0673  -3.0454  -3.0431
    -2.9956  -2.9943  -2.9793  -2.9784  -2.9581  -2.9101  -2.9098  -2.8903
    -2.8858  -2.8849  -2.8447  -2.8441  -2.8381  -2.8368  -2.8215  -2.8200
    -2.7816  -2.7812  -2.7600  -2.7595  -2.7565  -2.7557  -2.7529  -2.6763
    -2.6759  -2.6744  -2.6460  -2.6449  -2.5841  -2.5836  -2.5552  -2.5543
    -2.5411  -2.5406  -2.5356  -2.5061  -2.5058  -2.4964  -2.4786  -2.4534
    -2.4529  -2.4527  -2.4320  -2.4318  -2.4210  -2.4204  -2.4173  -2.4165
    -2.4090  -2.3628  -2.3305  -2.3304  -2.3145  -2.3008  -2.2942  -2.2942
    -2.2870  -2.2863  -2.2851  -2.2552  -2.2548  -2.2545  -2.2450  -2.2448
    -2.2277  -2.2005  -2.2000  -2.1996  -2.1984  -2.1973  -2.1533  -2.1217
    -2.1215  -2.1208  -2.1146  -2.1057  -2.0927  -2.0924  -2.0756  -2.0755
    -2.0419  -2.0408  -2.0405  -2.0223  -2.0207  -2.0206  -1.9875  -1.9870
    -1.9462  -1.9452  -1.9382  -1.9363  -1.9358  -1.9298  -1.9295  -1.9275
    -1.9263  -1.9202  -1.9192  -1.9032  -1.9026  -1.7760  -1.7754  -1.7431
    -1.7378  -1.7365  -1.7316  -1.7311  -1.7147  -1.7133  -1.7108  -1.7106
    -1.7079  -1.6859  -1.6781  -1.6773  -1.6722  -1.6658  -1.6638  -1.6429
    -1.6424  -1.6143  -1.6138  -1.5816  -1.5815  -1.5710  -1.5630  -1.5453
    -1.5445  -1.5419  -1.5238  -1.5115  -1.5111  -1.5041  -1.5037  -1.4768
    -1.4767  -1.4607  -1.4598  -1.4289  -1.4266  -1.4178  -1.3673  -1.3665
    -1.3547  -1.3542  -1.3514  -1.3285  -1.3254  -1.2923  -1.2921  -1.2907
    -1.2577  -1.2486  -1.2468  -1.2317  -1.2312  -1.2055  -1.2042  -1.2027
    -1.1736  -1.1712  -1.1709  -1.1087  -1.1084  -1.0962  -1.0940  -1.0790
    -1.0783  -1.0658  -1.0652  -1.0472  -1.0348  -1.0145  -1.0064  -1.0040
    -0.9946  -0.9660  -0.9560  -0.9550  -0.9453  -0.9448  -0.9432  -0.9370
    -0.9353  -0.9241  -0.8934  -0.8930  -0.8823  -0.8817  -0.8779  -0.8757
    -0.8564  -0.8368  -0.8355  -0.8169  -0.8144  -0.7235  -0.7107  -0.7049
    -0.7048  -0.7007  -0.6955  -0.6941  -0.6732  -0.6693  -0.6544  -0.6531
    -0.6394  -0.6386  -0.6303  -0.6101  -0.6082  -0.6077  -0.5995  -0.5277
    -0.5274  -0.4940  -0.4923  -0.4892  -0.4827  -0.4813  -0.4805  -0.4799
    -0.4683  -0.4653  -0.4509  -0.4261  -0.4118  -0.3920  -0.3913  -0.3808
    -0.3796  -0.3681  -0.3666  -0.3663  -0.3649  -0.3638  -0.3471  -0.3432
    -0.3420  -0.3120  -0.3110  -0.3093  -0.2982  -0.2980  -0.2789  -0.2469
    -0.2462  -0.2375  -0.2367  -0.1696  -0.1687  -0.1322  -0.1316  -0.0745
    -0.0726  -0.0715  -0.0608  -0.0432   0.1784   0.1846   0.5272   0.5273
     0.6168   0.6226   0.8094   0.8311   0.8449   0.9753   0.9765   1.4075
     1.4075   1.4258   1.6840   1.7175   1.7176   1.9914   1.9992   2.0735
     2.0741   2.0996   2.1049   2.3297   2.3308   2.4185   2.4188   2.4880
     2.5545   2.5639   2.7223   2.8207   3.2597   3.2612   3.2635   3.2673
     3.3192   3.3197   3.6117   3.6119   3.8908   3.8963   3.9916   4.3075
     4.3487   4.3524   4.5555   4.5615   4.6504   4.6526   4.7431   4.8587
     4.8627   4.9775   4.9793   5.0644   5.2821   5.3476   5.3547   5.5057
     5.5203   5.7360   5.7380   5.7414   5.7653   5.7670   5.8265   5.8314
     5.8651   5.9977   6.2462   6.3333   6.4293   6.4450   6.5662   6.5721
     6.5728   6.5835   6.5931   6.7055   6.8246   6.8272   6.8946   6.9706
     6.9930   7.0418   7.0531

     the Fermi energy is     1.5503 ev

!    total energy              =   -6604.43531312 Ry
     Harris-Foulkes estimate   =   -6604.43531311 Ry
     estimated scf accuracy    <          1.8E-09 Ry

     The total energy is the sum of the following terms:

     one-electron contribution =  -48538.78264059 Ry
     hartree contribution      =   24773.50307466 Ry
     xc contribution           =   -3204.95870160 Ry
     ewald contribution        =   20365.80007219 Ry
     smearing contrib. (-TS)   =       0.00288221 Ry

     convergence has been achieved in  25 iterations

     Writing output data file 5561238.save

     init_run     :    119.49s CPU    129.07s WALL (       1 calls)
     electrons    :   7784.37s CPU   8313.65s WALL (       1 calls)

     Called by init_run:
     wfcinit      :     95.74s CPU    104.53s WALL (       1 calls)
     potinit      :      7.33s CPU      7.74s WALL (       1 calls)

     Called by electrons:
     c_bands      :   6861.18s CPU   7285.78s WALL (      26 calls)
     sum_band     :    729.00s CPU    820.88s WALL (      26 calls)
     v_of_rho     :     59.72s CPU     68.63s WALL (      26 calls)
     newd         :    139.07s CPU    142.11s WALL (      26 calls)
     mix_rho      :      1.62s CPU      1.99s WALL (      26 calls)
     vdW_energy   :      7.63s CPU      8.11s WALL (      26 calls)
     vdW_ffts     :     25.04s CPU     29.58s WALL (      52 calls)
     vdW_v        :      6.73s CPU      7.43s WALL (      26 calls)

     Called by c_bands:
     init_us_2    :     11.72s CPU     12.12s WALL (     636 calls)
     cegterg      :   6748.55s CPU   7171.26s WALL (     312 calls)

     Called by *egterg:
     h_psi        :   2421.92s CPU   2807.88s WALL (    1873 calls)
     s_psi        :    443.59s CPU    446.21s WALL (    1873 calls)
     g_psi        :      6.34s CPU      6.30s WALL (    1549 calls)
     cdiaghg      :   2532.81s CPU   2540.38s WALL (    1849 calls)

     Called by h_psi:
     add_vuspsi   :    444.09s CPU    446.77s WALL (    1873 calls)

     General routines
     calbec       :    610.34s CPU    612.99s WALL (    2185 calls)
     fft          :     48.50s CPU     57.06s WALL (    1716 calls)
     ffts         :      0.75s CPU      0.96s WALL (      52 calls)
     fftw         :   1686.06s CPU   2107.58s WALL (  757596 calls)
     interpolate  :      2.21s CPU      2.79s WALL (      52 calls)
     davcio       :      0.00s CPU      0.16s WALL (      12 calls)

     Parallel routines
     fft_scatter  :    979.42s CPU   1242.77s WALL (  759364 calls)

     PWSCF        :     2h12m CPU        2h21m WALL


   This run was terminated on:   1:42:21  25Jun2015            

=------------------------------------------------------------------------------=
   JOB DONE.
=------------------------------------------------------------------------------=
