Setting SGE environment for SCC

     Program PWSCF v.5.1.2 starts on 29Jun2015 at 17: 6:25 

     This program is part of the open-source Quantum ESPRESSO suite
     for quantum simulation of materials; please cite
         "P. Giannozzi et al., J. Phys.:Condens. Matter 21 395502 (2009);
          URL http://www.quantum-espresso.org", 
     in publications or presentations arising from this work. More details at
     http://www.quantum-espresso.org/quote

     Parallel version (MPI), running on    32 processors
     R & G space division:  proc/nbgrp/npool/nimage =      32
     Reading input from top.H2.Au50.d.1.9.phi.0.psi.0.in
Warning: card &IONS ignored
Warning: card / ignored
Warning: card &CELL ignored
Warning: card / ignored

     Current dimensions of program PWSCF are:
     Max number of different atomic species (ntypx) = 10
     Max number of k-points (npk) =  40000
     Max angular momentum in pseudopotentials (lmaxx) =  3

     IMPORTANT: XC functional enforced from input :
     Exchange-correlation      = VDW-DF ( 1  4  4  0 1 0)
     Any further DFT definition will be discarded
     Please, verify this is what you really want


     Subspace diagonalization in iterative solution of the eigenvalue problem:
     a serial algorithm will be used


     Parallelization info
     --------------------
     sticks:   dense  smooth     PW     G-vecs:    dense   smooth      PW
     Min         445     223     58                96775    34191    4534
     Max         446     224     59                96790    34246    4540
     Sum       14269    7147   1867              3097177  1095093  145167


     Title: 
     top.H2.Au50.d.1.9.phi.0.psi.0                                              


     bravais-lattice index     =            4
     lattice parameter (alat)  =      22.7436  a.u.
     unit-cell volume          =   22924.1508 (a.u.)^3
     number of atoms/cell      =           67
     number of atomic types    =            3
     number of electrons       =       712.00
     number of Kohn-Sham states=          427
     kinetic-energy cutoff     =      50.0000  Ry
     charge density cutoff     =     400.0000  Ry
     convergence threshold     =      1.0E-08
     mixing beta               =       0.7000
     number of iterations used =            8  plain     mixing
     Exchange-correlation      = VDW-DF ( 1  4  4  0 1 0)

     celldm(1)=  22.743643  celldm(2)=   0.000000  celldm(3)=   2.250000
     celldm(4)=   0.000000  celldm(5)=   0.000000  celldm(6)=   0.000000

     crystal axes: (cart. coord. in units of alat)
               a(1) = (   1.000000   0.000000   0.000000 )  
               a(2) = (  -0.500000   0.866025   0.000000 )  
               a(3) = (   0.000000   0.000000   2.250000 )  

     reciprocal axes: (cart. coord. in units 2 pi/alat)
               b(1) = (  1.000000  0.577350 -0.000000 )  
               b(2) = (  0.000000  1.154701  0.000000 )  
               b(3) = (  0.000000 -0.000000  0.444444 )  


     PseudoPot. # 1 for Au read from file:
     /home/scc/andrejb/qe/pseudo/Au.pbe-nd-van.UPF
     MD5 check sum: 458681b50f36d87ef23c61b04bba420a
     Pseudo is Ultrasoft + core correction, Zval = 11.0
     Generated by new atomic code, or converted to UPF format
     Using radial grid of  985 points,  3 beta functions with: 
                l(1) =   1
                l(2) =   2
                l(3) =   2
     Q(r) pseudized with  8 coefficients,  rinner =    1.100   1.100   1.100
                                                       1.100   1.100

     PseudoPot. # 2 for H  read from file:
     /home/scc/andrejb/qe/pseudo/H.pbe-van_ak.UPF
     MD5 check sum: 403db7282739603aa925980fa9b8608d
     Pseudo is Ultrasoft, Zval =  1.0
     Generated by new atomic code, or converted to UPF format
     Using radial grid of  615 points,  1 beta functions with: 
                l(1) =   0
     Q(r) pseudized with  8 coefficients,  rinner =    0.800

     PseudoPot. # 3 for O  read from file:
     /home/scc/andrejb/qe/pseudo/O.pbe-van_ak.UPF
     MD5 check sum: 4b8c549914a63cae506c6ff22b5af4fe
     Pseudo is Ultrasoft, Zval =  6.0
     Generated by new atomic code, or converted to UPF format
     Using radial grid of  737 points,  4 beta functions with: 
                l(1) =   0
                l(2) =   0
                l(3) =   1
                l(4) =   1
     Q(r) pseudized with  8 coefficients,  rinner =    0.800   0.800   0.800


     vdW kernel table read from file vdW_kernel_table
     MD5 check sum: 48e77a2e26edf626eeb0eaa751ad5cac

     atomic species   valence    mass     pseudopotential
        Au            11.00   196.96657     Au( 1.00)
        H              1.00     1.01000     H ( 1.00)
        O              6.00    16.00000     O ( 1.00)

     No symmetry found



   Cartesian axes

     site n.     atom                  positions (alat units)
         1           O   tau(   1) = (   0.4975287   0.4121927   0.8481392  )
         2           H   tau(   2) = (   0.4790780   0.3968269   0.7708642  )
         3           H   tau(   3) = (   0.4446795   0.3681985   0.8907678  )
         4           Au  tau(   4) = (   0.3540481   0.6132292   0.0000000  )
         5           Au  tau(   5) = (   0.4790062   0.3967954   0.0000000  )
         6           Au  tau(   6) = (   0.6039644   0.1803616   0.0000000  )
         7           Au  tau(   7) = (   0.7289225  -0.0360723   0.0000000  )
         8           Au  tau(   8) = (   0.1041318   0.6132292   0.0000000  )
         9           Au  tau(   9) = (   0.2290899   0.3967954   0.0000000  )
        10           Au  tau(  10) = (   0.3540481   0.1803616   0.0000000  )
        11           Au  tau(  11) = (   0.4790062  -0.0360723   0.0000000  )
        12           Au  tau(  12) = (  -0.1457845   0.6132292   0.0000000  )
        13           Au  tau(  13) = (  -0.0208264   0.3967954   0.0000000  )
        14           Au  tau(  14) = (   0.1041318   0.1803616   0.0000000  )
        15           Au  tau(  15) = (   0.2290899  -0.0360723   0.0000000  )
        16           Au  tau(  16) = (  -0.3957008   0.6132292   0.0000000  )
        17           Au  tau(  17) = (  -0.2707426   0.3967954   0.0000000  )
        18           Au  tau(  18) = (  -0.1457845   0.1803616   0.0000000  )
        19           Au  tau(  19) = (  -0.0208264  -0.0360723   0.0000000  )
        20           Au  tau(  20) = (   0.4790062   0.6853738   0.2040557  )
        21           Au  tau(  21) = (   0.6039644   0.4689400   0.2040557  )
        22           Au  tau(  22) = (   0.7289225   0.2525062   0.2040557  )
        23           Au  tau(  23) = (   0.8538806   0.0360723   0.2040557  )
        24           Au  tau(  24) = (   0.2290899   0.6853738   0.2040557  )
        25           Au  tau(  25) = (   0.3540481   0.4689400   0.2040557  )
        26           Au  tau(  26) = (   0.4790062   0.2525062   0.2040557  )
        27           Au  tau(  27) = (   0.6039644   0.0360723   0.2040557  )
        28           Au  tau(  28) = (  -0.0208264   0.6853738   0.2040557  )
        29           Au  tau(  29) = (   0.1041318   0.4689400   0.2040557  )
        30           Au  tau(  30) = (   0.2290899   0.2525062   0.2040557  )
        31           Au  tau(  31) = (   0.3540481   0.0360723   0.2040557  )
        32           Au  tau(  32) = (  -0.2707426   0.6853738   0.2040557  )
        33           Au  tau(  33) = (  -0.1457845   0.4689400   0.2040557  )
        34           Au  tau(  34) = (  -0.0208264   0.2525062   0.2040557  )
        35           Au  tau(  35) = (   0.1041318   0.0360723   0.2040557  )
        36           Au  tau(  36) = (   0.3541162   0.7576593   0.4066483  )
        37           Au  tau(  37) = (   0.4791000   0.5411421   0.4066696  )
        38           Au  tau(  38) = (   0.6040570   0.3246862   0.4066618  )
        39           Au  tau(  39) = (   0.7290270   0.1081684   0.4066530  )
        40           Au  tau(  40) = (   0.1041162   0.7576236   0.4066247  )
        41           Au  tau(  41) = (   0.2291001   0.5411062   0.4066455  )
        42           Au  tau(  42) = (   0.3540567   0.3246505   0.4066380  )
        43           Au  tau(  43) = (   0.4790276   0.1081324   0.4066292  )
        44           Au  tau(  44) = (  -0.1458201   0.7576104   0.4066225  )
        45           Au  tau(  45) = (  -0.0208365   0.5410930   0.4066438  )
        46           Au  tau(  46) = (   0.1041202   0.3246372   0.4066359  )
        47           Au  tau(  47) = (   0.2290908   0.1081193   0.4066273  )
        48           Au  tau(  48) = (  -0.3958167   0.7575791   0.4065812  )
        49           Au  tau(  49) = (  -0.2708328   0.5410617   0.4066025  )
        50           Au  tau(  50) = (  -0.1458763   0.3246061   0.4065947  )
        51           Au  tau(  51) = (  -0.0209056   0.1080882   0.4065858  )
        52           Au  tau(  52) = (   0.3541084   0.6133344   0.6129762  )
        53           Au  tau(  53) = (   0.4790780   0.3968269   0.6129968  )
        54           Au  tau(  54) = (   0.6040356   0.1803811   0.6129859  )
        55           Au  tau(  55) = (   0.7290165  -0.0361221   0.6129385  )
        56           Au  tau(  56) = (   0.1041243   0.6133091   0.6130023  )
        57           Au  tau(  57) = (   0.2290941   0.3968013   0.6130241  )
        58           Au  tau(  58) = (   0.3540515   0.1803552   0.6130121  )
        59           Au  tau(  59) = (   0.4790323  -0.0361475   0.6129659  )
        60           Au  tau(  60) = (  -0.1458030   0.6133014   0.6129980  )
        61           Au  tau(  61) = (  -0.0208339   0.3967936   0.6130189  )
        62           Au  tau(  62) = (   0.1041239   0.1803477   0.6130083  )
        63           Au  tau(  63) = (   0.2291046  -0.0361554   0.6129607  )
        64           Au  tau(  64) = (  -0.3957908   0.6132739   0.6129471  )
        65           Au  tau(  65) = (  -0.2708208   0.3967658   0.6129688  )
        66           Au  tau(  66) = (  -0.1458636   0.1803200   0.6129569  )
        67           Au  tau(  67) = (  -0.0208823  -0.0361826   0.6129110  )

     number of k points=    12  Marzari-Vanderbilt smearing, width (Ry)=  0.0200
                       cart. coord. in units 2pi/alat
        k(    1) = (   0.2500000   0.4330127   0.1111111), wk =   0.1666667
        k(    2) = (   0.2500000  -0.1443376   0.1111111), wk =   0.1666667
        k(    3) = (  -0.2500000  -0.4330127   0.1111111), wk =   0.1666667
        k(    4) = (  -0.2500000   0.4330127  -0.1111111), wk =   0.1666667
        k(    5) = (   0.2500000  -0.4330127  -0.1111111), wk =   0.1666667
        k(    6) = (   0.5000000   0.0000000   0.1111111), wk =   0.1666667
        k(    7) = (  -0.5000000   0.0000000   0.1111111), wk =   0.1666667
        k(    8) = (  -0.2500000   0.1443376   0.1111111), wk =   0.1666667
        k(    9) = (  -0.2500000  -0.1443376  -0.1111111), wk =   0.1666667
        k(   10) = (   0.2500000   0.1443376  -0.1111111), wk =   0.1666667
        k(   11) = (   0.0000000  -0.2886751   0.1111111), wk =   0.1666667
        k(   12) = (   0.0000000   0.2886751   0.1111111), wk =   0.1666667

     Dense  grid:  3097177 G-vectors     FFT dimensions: ( 150, 150, 360)

     Smooth grid:  1095093 G-vectors     FFT dimensions: ( 108, 108, 240)

     Largest allocated arrays     est. size (Mb)     dimensions
        Kohn-Sham Wavefunctions        28.01 Mb     (    4299,  427)
        NL pseudopotentials            55.23 Mb     (    4299,  842)
        Each V/rho on FFT grid          4.12 Mb     (  270000)
        Each G-vector array             0.74 Mb     (   96788)
        G-vector shells                 0.16 Mb     (   21404)
     Largest temporary arrays     est. size (Mb)     dimensions
        Auxiliary wavefunctions       112.04 Mb     (    4299, 1708)
        Each subspace H/S matrix       44.51 Mb     (    1708, 1708)
        Each <psi_i|beta_j> matrix      5.49 Mb     (     842,  427)
        Arrays for rho mixing          32.96 Mb     (  270000,    8)

     Initial potential from superposition of free atoms
     Check: negative starting charge=   -1.730242

     starting charge  711.25682, renormalised to  712.00000

     negative rho (up, down):  1.732E+00 0.000E+00


     ************************************************************************
     *
     * You are using vdW-DF for exchange-correlation in this calculation.
     * Please cite the following three references that made this development
     * possible:
     *
     *   M. Dion, H. Rydberg, E. Schroder, D. C. Langreth, and
     *   B. I. Lundqvist, Phys. Rev. Lett. 92, 246401 (2004).
     *
     *   T. Thonhauser, V. R. Cooper, S. Li, A. Puzder, P. Hyldgaard, and
     *   D. C. Langreth, Phys. Rev. B 76, 125112 (2007).
     *
     *   G. Roman-Perez and J. M. Soler, Phys. Rev. Lett. 103, 096102 (2009).
     *
     *
     * If you are using vdW-DF2, please also cite:
     *
     *   K. Lee, E. D. Murray, L. Kong, B. I. Lundqvist, and
     *   D. C. Langreth, Phys. Rev. B 82, 081101(R) (2010).
     *
     *
     * If you are calculating the stress with vdW-DF, please also cite:
     *
     *   R. Sabatini, E. Kucukbenli, B. Kolb, T. Thonhauser, and
     *   S. de Gironcoli, J. Phys.: Condens. Matter 24, 424209 (2012).
     *
     ************************************************************************

     Carrying out vdW-DF run using the following parameters:

     Nqs =      20    Nr_points =    1024   r_max =   100.000
     q_mesh =
               0.00001000     0.04494208     0.09755937     0.15916263
               0.23128650     0.31572767     0.41458969     0.53033537
               0.66584808     0.82450364     1.01025438     1.22772762
               1.48234092     1.78043706     2.12944203     2.53805004
               3.01644009     3.57652955     4.23227104     5.00000000

     Gradients computed in reciprocal space

     ************************************************************************


     Starting wfc are  582 randomized atomic wfcs

     total cpu time spent up to now is      163.7 secs

     Self-consistent Calculation

     iteration #  1     ecut=    50.00 Ry     beta=0.70
     Davidson diagonalization with overlap
     ethr =  1.00E-02,  avg # of iterations =  3.0

     Threshold (ethr) on eigenvalues was too large:
     Diagonalizing with lowered threshold

     Davidson diagonalization with overlap
     ethr =  3.35E-04,  avg # of iterations =  4.0

     negative rho (up, down):  1.727E+00 0.000E+00

     total cpu time spent up to now is      811.5 secs

     total energy              =   -6602.82244574 Ry
     Harris-Foulkes estimate   =   -6604.99919583 Ry
     estimated scf accuracy    <       2.73025197 Ry

     iteration #  2     ecut=    50.00 Ry     beta=0.70
     Davidson diagonalization with overlap
     ethr =  3.83E-04,  avg # of iterations = 11.3

     negative rho (up, down):  1.727E+00 0.000E+00

     total cpu time spent up to now is     1811.6 secs

     total energy              =   -6597.35482759 Ry
     Harris-Foulkes estimate   =   -6609.74709927 Ry
     estimated scf accuracy    <      66.86105863 Ry

     iteration #  3     ecut=    50.00 Ry     beta=0.70
     Davidson diagonalization with overlap
     ethr =  3.83E-04,  avg # of iterations =  6.0

     negative rho (up, down):  1.737E+00 0.000E+00

     total cpu time spent up to now is     2410.8 secs

     total energy              =   -6603.22464237 Ry
     Harris-Foulkes estimate   =   -6604.98998305 Ry
     estimated scf accuracy    <       7.84292404 Ry

     iteration #  4     ecut=    50.00 Ry     beta=0.70
     Davidson diagonalization with overlap
     ethr =  3.83E-04,  avg # of iterations =  6.7

     negative rho (up, down):  1.740E+00 0.000E+00

     total cpu time spent up to now is     2773.9 secs

     total energy              =   -6603.98873192 Ry
     Harris-Foulkes estimate   =   -6604.71481587 Ry
     estimated scf accuracy    <       3.92239050 Ry

     iteration #  5     ecut=    50.00 Ry     beta=0.70
     Davidson diagonalization with overlap
     ethr =  3.83E-04,  avg # of iterations =  5.3

     negative rho (up, down):  1.747E+00 0.000E+00

     total cpu time spent up to now is     3120.8 secs

     total energy              =   -6604.06468211 Ry
     Harris-Foulkes estimate   =   -6604.79509654 Ry
     estimated scf accuracy    <       7.36833003 Ry

     iteration #  6     ecut=    50.00 Ry     beta=0.70
     Davidson diagonalization with overlap
     ethr =  3.83E-04,  avg # of iterations =  3.0

     negative rho (up, down):  1.752E+00 0.000E+00

     total cpu time spent up to now is     3412.1 secs

     total energy              =   -6604.39504006 Ry
     Harris-Foulkes estimate   =   -6604.44829264 Ry
     estimated scf accuracy    <       0.18888464 Ry

     iteration #  7     ecut=    50.00 Ry     beta=0.70
     Davidson diagonalization with overlap
     ethr =  2.65E-05,  avg # of iterations =  6.8

     negative rho (up, down):  1.754E+00 0.000E+00

     total cpu time spent up to now is     3812.6 secs

     total energy              =   -6604.40505048 Ry
     Harris-Foulkes estimate   =   -6604.43404324 Ry
     estimated scf accuracy    <       0.13404072 Ry

     iteration #  8     ecut=    50.00 Ry     beta=0.70
     Davidson diagonalization with overlap
     ethr =  1.88E-05,  avg # of iterations =  3.5

     negative rho (up, down):  1.755E+00 0.000E+00

     total cpu time spent up to now is     4106.4 secs

     total energy              =   -6604.40830765 Ry
     Harris-Foulkes estimate   =   -6604.42209005 Ry
     estimated scf accuracy    <       0.05755253 Ry

     iteration #  9     ecut=    50.00 Ry     beta=0.70
     Davidson diagonalization with overlap
     c_bands:  1 eigenvalues not converged
     ethr =  8.08E-06,  avg # of iterations =  9.2

     negative rho (up, down):  1.756E+00 0.000E+00

     total cpu time spent up to now is     4490.7 secs

     total energy              =   -6604.40793303 Ry
     Harris-Foulkes estimate   =   -6604.41452986 Ry
     estimated scf accuracy    <       0.02457446 Ry

     iteration # 10     ecut=    50.00 Ry     beta=0.70
     Davidson diagonalization with overlap
     ethr =  3.45E-06,  avg # of iterations =  7.3

     negative rho (up, down):  1.757E+00 0.000E+00

     total cpu time spent up to now is     4843.4 secs

     total energy              =   -6604.40751425 Ry
     Harris-Foulkes estimate   =   -6604.41040252 Ry
     estimated scf accuracy    <       0.00963225 Ry

     iteration # 11     ecut=    50.00 Ry     beta=0.70
     Davidson diagonalization with overlap
     ethr =  1.35E-06,  avg # of iterations =  7.2

     negative rho (up, down):  1.757E+00 0.000E+00

     total cpu time spent up to now is     5195.6 secs

     total energy              =   -6604.40740396 Ry
     Harris-Foulkes estimate   =   -6604.40873595 Ry
     estimated scf accuracy    <       0.00480749 Ry

     iteration # 12     ecut=    50.00 Ry     beta=0.70
     Davidson diagonalization with overlap
     ethr =  6.75E-07,  avg # of iterations =  2.4

     negative rho (up, down):  1.758E+00 0.000E+00

     total cpu time spent up to now is     5481.4 secs

     total energy              =   -6604.40732527 Ry
     Harris-Foulkes estimate   =   -6604.40790705 Ry
     estimated scf accuracy    <       0.00102557 Ry

     iteration # 13     ecut=    50.00 Ry     beta=0.70
     Davidson diagonalization with overlap
     ethr =  1.44E-07,  avg # of iterations =  9.9

     negative rho (up, down):  1.758E+00 0.000E+00

     total cpu time spent up to now is     5915.8 secs

     total energy              =   -6604.40748827 Ry
     Harris-Foulkes estimate   =   -6604.40765799 Ry
     estimated scf accuracy    <       0.00052834 Ry

     iteration # 14     ecut=    50.00 Ry     beta=0.70
     Davidson diagonalization with overlap
     ethr =  7.42E-08,  avg # of iterations =  2.0

     negative rho (up, down):  1.757E+00 0.000E+00

     total cpu time spent up to now is     6183.3 secs

     total energy              =   -6604.40755346 Ry
     Harris-Foulkes estimate   =   -6604.40761047 Ry
     estimated scf accuracy    <       0.00020170 Ry

     iteration # 15     ecut=    50.00 Ry     beta=0.70
     Davidson diagonalization with overlap
     ethr =  2.83E-08,  avg # of iterations =  2.0

     negative rho (up, down):  1.757E+00 0.000E+00

     total cpu time spent up to now is     6494.5 secs

     total energy              =   -6604.40754601 Ry
     Harris-Foulkes estimate   =   -6604.40761837 Ry
     estimated scf accuracy    <       0.00041349 Ry

     iteration # 16     ecut=    50.00 Ry     beta=0.70
     Davidson diagonalization with overlap
     ethr =  2.83E-08,  avg # of iterations =  2.0

     negative rho (up, down):  1.757E+00 0.000E+00

     total cpu time spent up to now is     6785.2 secs

     total energy              =   -6604.40756025 Ry
     Harris-Foulkes estimate   =   -6604.40761516 Ry
     estimated scf accuracy    <       0.00056481 Ry

     iteration # 17     ecut=    50.00 Ry     beta=0.70
     Davidson diagonalization with overlap
     ethr =  2.83E-08,  avg # of iterations =  1.0

     negative rho (up, down):  1.757E+00 0.000E+00

     total cpu time spent up to now is     7038.0 secs

     total energy              =   -6604.40758800 Ry
     Harris-Foulkes estimate   =   -6604.40758900 Ry
     estimated scf accuracy    <       0.00000375 Ry

     iteration # 18     ecut=    50.00 Ry     beta=0.70
     Davidson diagonalization with overlap
     ethr =  5.26E-10,  avg # of iterations =  3.0

     negative rho (up, down):  1.757E+00 0.000E+00

     total cpu time spent up to now is     7447.5 secs

     total energy              =   -6604.40758829 Ry
     Harris-Foulkes estimate   =   -6604.40758945 Ry
     estimated scf accuracy    <       0.00000338 Ry

     iteration # 19     ecut=    50.00 Ry     beta=0.70
     Davidson diagonalization with overlap
     ethr =  4.75E-10,  avg # of iterations =  2.0

     negative rho (up, down):  1.757E+00 0.000E+00

     total cpu time spent up to now is     7737.2 secs

     total energy              =   -6604.40758871 Ry
     Harris-Foulkes estimate   =   -6604.40758925 Ry
     estimated scf accuracy    <       0.00000244 Ry

     iteration # 20     ecut=    50.00 Ry     beta=0.70
     Davidson diagonalization with overlap
     ethr =  3.43E-10,  avg # of iterations =  2.0

     negative rho (up, down):  1.757E+00 0.000E+00

     total cpu time spent up to now is     7983.9 secs

     total energy              =   -6604.40758903 Ry
     Harris-Foulkes estimate   =   -6604.40758904 Ry
     estimated scf accuracy    <       0.00000013 Ry

     iteration # 21     ecut=    50.00 Ry     beta=0.70
     Davidson diagonalization with overlap
     ethr =  1.88E-11,  avg # of iterations =  3.0

     negative rho (up, down):  1.757E+00 0.000E+00

     total cpu time spent up to now is     8352.3 secs

     total energy              =   -6604.40758905 Ry
     Harris-Foulkes estimate   =   -6604.40758909 Ry
     estimated scf accuracy    <       0.00000021 Ry

     iteration # 22     ecut=    50.00 Ry     beta=0.70
     Davidson diagonalization with overlap
     ethr =  1.88E-11,  avg # of iterations =  2.0

     negative rho (up, down):  1.757E+00 0.000E+00

     total cpu time spent up to now is     8629.9 secs

     total energy              =   -6604.40758908 Ry
     Harris-Foulkes estimate   =   -6604.40758909 Ry
     estimated scf accuracy    <       0.00000003 Ry

     iteration # 23     ecut=    50.00 Ry     beta=0.70
     Davidson diagonalization with overlap
     ethr =  3.67E-12,  avg # of iterations =  3.0

     negative rho (up, down):  1.757E+00 0.000E+00

     total cpu time spent up to now is     9010.2 secs

     End of self-consistent calculation

          k = 0.2500 0.4330 0.1111 (136853 PWs)   bands (ev):

   -18.6623  -6.8683  -6.3811  -5.9852  -5.9834  -5.3064  -4.9750  -4.9745
    -4.9353  -4.9339  -4.5757  -4.5740  -4.4766  -4.4760  -4.4621  -4.4387
    -4.4201  -4.3101  -4.3072  -4.2841  -4.2417  -4.2407  -4.1739  -4.1718
    -4.1659  -4.1649  -4.1441  -4.1399  -4.1363  -4.0733  -4.0643  -4.0374
    -4.0346  -4.0244  -4.0230  -4.0007  -3.9998  -3.9777  -3.9700  -3.9688
    -3.9433  -3.8910  -3.8904  -3.8438  -3.8407  -3.7867  -3.7843  -3.7314
    -3.7290  -3.7282  -3.7270  -3.6925  -3.6594  -3.6562  -3.6478  -3.6464
    -3.6444  -3.6209  -3.6143  -3.6063  -3.5488  -3.5468  -3.5394  -3.5188
    -3.5118  -3.4402  -3.4382  -3.4117  -3.4046  -3.3834  -3.3777  -3.3631
    -3.3500  -3.2968  -3.2896  -3.2756  -3.2691  -3.2318  -3.2230  -3.2150
    -3.1759  -3.1611  -3.1432  -3.1411  -3.1348  -3.1303  -3.1248  -3.1143
    -3.1131  -3.1061  -3.0680  -3.0381  -3.0229  -3.0149  -3.0112  -2.9921
    -2.9820  -2.9752  -2.9658  -2.9190  -2.9067  -2.9016  -2.8907  -2.8603
    -2.8467  -2.8407  -2.8327  -2.8178  -2.8070  -2.7804  -2.7479  -2.7385
    -2.7253  -2.7141  -2.7027  -2.6968  -2.6538  -2.6495  -2.6183  -2.5967
    -2.5919  -2.5755  -2.5682  -2.5606  -2.5553  -2.5485  -2.5295  -2.5276
    -2.4814  -2.4801  -2.4780  -2.4656  -2.4631  -2.4556  -2.4538  -2.4483
    -2.4454  -2.4427  -2.4384  -2.4322  -2.4274  -2.4166  -2.3999  -2.3931
    -2.3875  -2.3854  -2.3848  -2.3819  -2.3779  -2.3598  -2.3548  -2.3426
    -2.3382  -2.3205  -2.3187  -2.3144  -2.3097  -2.3081  -2.3069  -2.2942
    -2.2867  -2.2851  -2.2822  -2.2688  -2.2440  -2.2400  -2.2017  -2.2012
    -2.1811  -2.1779  -2.1519  -2.1460  -2.1281  -2.1213  -2.1086  -2.1002
    -2.0739  -2.0630  -2.0551  -2.0448  -2.0434  -2.0399  -2.0344  -2.0318
    -2.0051  -2.0005  -1.9949  -1.9392  -1.9339  -1.9289  -1.9262  -1.9230
    -1.8958  -1.8722  -1.8700  -1.8455  -1.8407  -1.7870  -1.7838  -1.7534
    -1.7367  -1.7325  -1.6833  -1.6752  -1.6693  -1.6613  -1.6535  -1.6513
    -1.6460  -1.6430  -1.6358  -1.5955  -1.5799  -1.5743  -1.5679  -1.5668
    -1.5563  -1.5481  -1.5176  -1.5146  -1.5029  -1.4982  -1.4961  -1.4888
    -1.4830  -1.4796  -1.4724  -1.4569  -1.4532  -1.4240  -1.4102  -1.4073
    -1.4016  -1.3845  -1.3665  -1.3310  -1.3250  -1.3004  -1.2963  -1.2940
    -1.2677  -1.2281  -1.2135  -1.2100  -1.2080  -1.2056  -1.2032  -1.1946
    -1.1814  -1.1763  -1.1442  -1.1335  -1.1132  -1.1074  -1.1019  -1.0975
    -1.0931  -1.0836  -1.0751  -1.0738  -1.0708  -1.0681  -1.0362  -1.0319
    -1.0308  -1.0287  -1.0064  -0.9997  -0.9961  -0.9702  -0.9684  -0.9625
    -0.9234  -0.9130  -0.9080  -0.8771  -0.8706  -0.8606  -0.8550  -0.8510
    -0.8486  -0.8474  -0.8439  -0.8344  -0.8322  -0.8108  -0.8091  -0.8059
    -0.8034  -0.8001  -0.7714  -0.7657  -0.7649  -0.7513  -0.7378  -0.7325
    -0.7297  -0.7190  -0.6700  -0.6660  -0.6608  -0.6547  -0.6519  -0.6505
    -0.6461  -0.6290  -0.6270  -0.6219  -0.6160  -0.6149  -0.6139  -0.5833
    -0.5752  -0.5726  -0.5669  -0.5644  -0.5603  -0.5567  -0.5498  -0.5418
    -0.5397  -0.5373  -0.5339  -0.4973  -0.4942  -0.4878  -0.4832  -0.4816
    -0.4102  -0.4034  -0.4031  -0.4019  -0.3936  -0.3922  -0.3574  -0.3461
    -0.3435  -0.3124  -0.3087  -0.3062  -0.1938  -0.1864  -0.0886   0.3253
     0.3268   0.3324   0.3325   0.3954   0.3994   0.7801   0.7813   0.8230
     0.8244   0.9421   1.0148   1.1247   1.1285   1.3512   1.3563   1.9767
     1.9819   2.1387   2.1439   2.2741   2.2794   2.3765   2.3772   2.5308
     2.7689   2.7891   2.8934   3.1152   3.1224   3.1973   3.2005   3.3003
     3.3159   3.5241   3.5336   3.5706   3.7709   3.7755   3.8307   3.8416
     4.0887   4.0984   4.1057   4.3403   4.3809   4.3864   4.4287   4.7579
     4.7685   4.7954   4.9254   5.1036   5.1062   5.1714   5.1921   5.5586
     5.8309   5.8739   5.8925   5.9015   5.9256   5.9601   5.9678   6.0593
     6.0810   6.0998   6.1287   6.1359   6.1492   6.1662   6.1814   6.1881
     6.1925   6.4644   6.5901   6.7346   6.7629   6.7916   6.8330   6.8398
     6.8488   6.9607   7.0257

          k = 0.2500-0.1443 0.1111 (136898 PWs)   bands (ev):

   -18.6623  -6.8714  -6.5870  -5.8021  -5.5095  -5.4530  -5.4520  -4.9150
    -4.9147  -4.7829  -4.7823  -4.6275  -4.6010  -4.5352  -4.5027  -4.5006
    -4.4687  -4.4681  -4.3400  -4.2987  -4.2978  -4.2388  -4.2179  -4.2169
    -4.1155  -4.1145  -4.0797  -4.0781  -4.0779  -4.0520  -4.0302  -4.0296
    -3.9282  -3.9237  -3.9223  -3.9030  -3.8867  -3.8848  -3.8741  -3.8725
    -3.8613  -3.8307  -3.8300  -3.8294  -3.8280  -3.7986  -3.7967  -3.7801
    -3.7780  -3.7692  -3.7288  -3.7242  -3.6914  -3.6792  -3.6754  -3.6698
    -3.6693  -3.5965  -3.5954  -3.5638  -3.5601  -3.5575  -3.4920  -3.4894
    -3.4805  -3.4737  -3.4489  -3.4464  -3.4448  -3.4433  -3.2987  -3.2877
    -3.2782  -3.2674  -3.2641  -3.2444  -3.2423  -3.2195  -3.2178  -3.1713
    -3.1665  -3.1554  -3.1501  -3.1355  -3.1037  -3.0843  -3.0747  -3.0602
    -3.0566  -3.0335  -3.0169  -3.0137  -3.0077  -3.0036  -2.9913  -2.9648
    -2.9540  -2.9487  -2.9335  -2.9297  -2.9275  -2.9233  -2.8923  -2.8511
    -2.8485  -2.8402  -2.8156  -2.8052  -2.7583  -2.7465  -2.7283  -2.7225
    -2.7135  -2.7108  -2.7042  -2.6788  -2.6746  -2.6662  -2.6517  -2.6306
    -2.6269  -2.6192  -2.6049  -2.6029  -2.5963  -2.5914  -2.5879  -2.5835
    -2.5783  -2.5331  -2.5041  -2.5011  -2.4836  -2.4721  -2.4688  -2.4640
    -2.4577  -2.4567  -2.4548  -2.4288  -2.4266  -2.4218  -2.4157  -2.4133
    -2.4012  -2.3743  -2.3734  -2.3711  -2.3695  -2.3674  -2.3238  -2.2966
    -2.2931  -2.2908  -2.2855  -2.2761  -2.2682  -2.2648  -2.2469  -2.2465
    -2.2191  -2.2133  -2.2122  -2.1968  -2.1945  -2.1937  -2.1658  -2.1599
    -2.1247  -2.1152  -2.1138  -2.1115  -2.1081  -2.1052  -2.1025  -2.0992
    -2.0966  -2.0939  -2.0897  -2.0768  -2.0747  -1.9549  -1.9506  -1.9273
    -1.9114  -1.9078  -1.9020  -1.9015  -1.8905  -1.8859  -1.8822  -1.8810
    -1.8767  -1.8591  -1.8537  -1.8512  -1.8412  -1.8364  -1.8344  -1.8160
    -1.8129  -1.7865  -1.7853  -1.7603  -1.7572  -1.7458  -1.7365  -1.7178
    -1.7170  -1.7133  -1.6975  -1.6840  -1.6836  -1.6756  -1.6753  -1.6532
    -1.6507  -1.6362  -1.6313  -1.6012  -1.5968  -1.5918  -1.5473  -1.5386
    -1.5282  -1.5242  -1.5214  -1.4992  -1.4962  -1.4676  -1.4650  -1.4617
    -1.4338  -1.4218  -1.4202  -1.4040  -1.4020  -1.3829  -1.3784  -1.3726
    -1.3496  -1.3438  -1.3418  -1.2852  -1.2799  -1.2727  -1.2659  -1.2580
    -1.2505  -1.2387  -1.2375  -1.2200  -1.2064  -1.1845  -1.1771  -1.1670
    -1.1414  -1.1298  -1.1274  -1.1191  -1.1166  -1.1142  -1.1107  -1.1096
    -1.0944  -1.0739  -1.0664  -1.0545  -1.0509  -1.0492  -1.0479  -1.0314
    -1.0094  -1.0074  -0.9912  -0.9857  -0.9023  -0.8868  -0.8807  -0.8775
    -0.8762  -0.8700  -0.8659  -0.8503  -0.8457  -0.8311  -0.8252  -0.8139
    -0.8123  -0.8069  -0.7868  -0.7835  -0.7788  -0.7719  -0.7056  -0.6974
    -0.6779  -0.6646  -0.6620  -0.6598  -0.6522  -0.6513  -0.6503  -0.6407
    -0.6369  -0.6232  -0.5959  -0.5914  -0.5699  -0.5632  -0.5557  -0.5532
    -0.5507  -0.5426  -0.5394  -0.5365  -0.5341  -0.5285  -0.5188  -0.5139
    -0.5131  -0.4841  -0.4837  -0.4798  -0.4684  -0.4681  -0.4494  -0.4183
    -0.4175  -0.4080  -0.4078  -0.3422  -0.3387  -0.3059  -0.3035  -0.2492
    -0.2464  -0.2426  -0.2238  -0.2208   0.0134   0.0156   0.3557   0.3562
     0.4508   0.4543   0.6461   0.6679   0.6748   0.8030   0.8056   1.2356
     1.2372   1.2550   1.5195   1.5461   1.5470   1.8275   1.8317   1.9001
     1.9030   1.9295   1.9339   2.1580   2.1589   2.2471   2.2486   2.3353
     2.3880   2.3947   2.5517   2.6519   3.0832   3.0905   3.0933   3.0946
     3.1472   3.1488   3.4400   3.4411   3.7193   3.7270   3.8424   4.1369
     4.1709   4.1822   4.4082   4.4279   4.4741   4.4813   4.5704   4.6830
     4.6939   4.8043   4.8085   5.1069   5.1671   5.1845   5.3422   5.3759
     5.4618   5.5600   5.5703   5.5938   5.5968   5.6517   5.6594   5.7168
     5.8993   6.0633   6.2568   6.2913   6.3682   6.3956   6.4027   6.4077
     6.4173   6.5626   6.6515   6.6570   6.6770   6.8520   6.8910   6.9163
     6.9482   7.0348   7.1210

          k =-0.2500-0.4330 0.1111 (136853 PWs)   bands (ev):

   -18.6623  -6.8683  -6.3811  -5.9852  -5.9834  -5.3064  -4.9750  -4.9745
    -4.9353  -4.9339  -4.5757  -4.5740  -4.4766  -4.4760  -4.4621  -4.4387
    -4.4201  -4.3101  -4.3072  -4.2841  -4.2417  -4.2407  -4.1739  -4.1718
    -4.1659  -4.1649  -4.1441  -4.1399  -4.1363  -4.0733  -4.0643  -4.0374
    -4.0346  -4.0244  -4.0230  -4.0007  -3.9998  -3.9777  -3.9699  -3.9688
    -3.9433  -3.8910  -3.8904  -3.8438  -3.8407  -3.7867  -3.7843  -3.7314
    -3.7290  -3.7282  -3.7270  -3.6925  -3.6594  -3.6562  -3.6478  -3.6464
    -3.6444  -3.6209  -3.6143  -3.6063  -3.5488  -3.5468  -3.5394  -3.5188
    -3.5118  -3.4402  -3.4382  -3.4117  -3.4046  -3.3834  -3.3777  -3.3631
    -3.3500  -3.2968  -3.2896  -3.2756  -3.2691  -3.2318  -3.2230  -3.2150
    -3.1759  -3.1611  -3.1432  -3.1411  -3.1348  -3.1303  -3.1248  -3.1143
    -3.1131  -3.1061  -3.0680  -3.0381  -3.0229  -3.0149  -3.0112  -2.9921
    -2.9820  -2.9752  -2.9658  -2.9190  -2.9067  -2.9016  -2.8907  -2.8603
    -2.8467  -2.8407  -2.8327  -2.8178  -2.8070  -2.7804  -2.7479  -2.7385
    -2.7253  -2.7141  -2.7027  -2.6968  -2.6538  -2.6495  -2.6183  -2.5967
    -2.5919  -2.5755  -2.5682  -2.5606  -2.5553  -2.5485  -2.5295  -2.5276
    -2.4814  -2.4801  -2.4780  -2.4656  -2.4631  -2.4556  -2.4538  -2.4483
    -2.4454  -2.4427  -2.4384  -2.4322  -2.4274  -2.4166  -2.3999  -2.3931
    -2.3875  -2.3854  -2.3848  -2.3819  -2.3779  -2.3598  -2.3548  -2.3426
    -2.3382  -2.3205  -2.3187  -2.3144  -2.3097  -2.3081  -2.3069  -2.2942
    -2.2867  -2.2851  -2.2822  -2.2688  -2.2440  -2.2400  -2.2017  -2.2012
    -2.1811  -2.1779  -2.1519  -2.1460  -2.1281  -2.1213  -2.1086  -2.1002
    -2.0739  -2.0630  -2.0551  -2.0448  -2.0434  -2.0399  -2.0344  -2.0318
    -2.0051  -2.0005  -1.9949  -1.9392  -1.9339  -1.9289  -1.9262  -1.9230
    -1.8958  -1.8722  -1.8700  -1.8455  -1.8407  -1.7870  -1.7838  -1.7534
    -1.7367  -1.7325  -1.6833  -1.6752  -1.6693  -1.6613  -1.6535  -1.6513
    -1.6460  -1.6430  -1.6358  -1.5955  -1.5799  -1.5743  -1.5679  -1.5668
    -1.5563  -1.5481  -1.5176  -1.5146  -1.5029  -1.4982  -1.4961  -1.4888
    -1.4830  -1.4796  -1.4724  -1.4569  -1.4532  -1.4240  -1.4102  -1.4073
    -1.4016  -1.3845  -1.3665  -1.3310  -1.3250  -1.3004  -1.2963  -1.2940
    -1.2677  -1.2281  -1.2135  -1.2100  -1.2080  -1.2056  -1.2033  -1.1946
    -1.1814  -1.1763  -1.1442  -1.1335  -1.1132  -1.1074  -1.1019  -1.0975
    -1.0931  -1.0836  -1.0751  -1.0738  -1.0708  -1.0681  -1.0362  -1.0319
    -1.0308  -1.0287  -1.0064  -0.9997  -0.9961  -0.9702  -0.9684  -0.9625
    -0.9234  -0.9130  -0.9080  -0.8771  -0.8706  -0.8606  -0.8550  -0.8510
    -0.8486  -0.8474  -0.8439  -0.8344  -0.8322  -0.8108  -0.8091  -0.8059
    -0.8034  -0.8001  -0.7714  -0.7657  -0.7649  -0.7513  -0.7378  -0.7325
    -0.7297  -0.7190  -0.6700  -0.6660  -0.6608  -0.6547  -0.6519  -0.6505
    -0.6461  -0.6290  -0.6270  -0.6219  -0.6160  -0.6149  -0.6139  -0.5833
    -0.5752  -0.5726  -0.5669  -0.5644  -0.5603  -0.5567  -0.5498  -0.5418
    -0.5397  -0.5373  -0.5339  -0.4973  -0.4942  -0.4878  -0.4832  -0.4816
    -0.4102  -0.4034  -0.4031  -0.4019  -0.3936  -0.3922  -0.3574  -0.3461
    -0.3435  -0.3124  -0.3087  -0.3062  -0.1938  -0.1864  -0.0886   0.3253
     0.3268   0.3324   0.3325   0.3954   0.3994   0.7801   0.7813   0.8230
     0.8244   0.9421   1.0148   1.1247   1.1285   1.3512   1.3563   1.9767
     1.9819   2.1387   2.1439   2.2741   2.2794   2.3765   2.3772   2.5308
     2.7689   2.7891   2.8934   3.1152   3.1224   3.1973   3.2005   3.3003
     3.3159   3.5241   3.5336   3.5706   3.7709   3.7755   3.8307   3.8416
     4.0887   4.0984   4.1057   4.3403   4.3809   4.3864   4.4287   4.7579
     4.7685   4.7954   4.9254   5.1036   5.1062   5.1714   5.1921   5.5587
     5.8303   5.8739   5.8925   5.9015   5.9256   5.9601   5.9678   6.0592
     6.0806   6.0998   6.1290   6.1359   6.1517   6.1667   6.1806   6.1881
     6.1927   6.4657   6.5907   6.7204   6.7626   6.7904   6.8328   6.8395
     6.8487   6.9607   7.0358

          k =-0.2500 0.4330-0.1111 (136853 PWs)   bands (ev):

   -18.6623  -6.8683  -6.3811  -5.9863  -5.9823  -5.3063  -4.9754  -4.9742
    -4.9375  -4.9318  -4.5755  -4.5737  -4.4763  -4.4758  -4.4619  -4.4387
    -4.4201  -4.3112  -4.3074  -4.2845  -4.2413  -4.2410  -4.1739  -4.1717
    -4.1661  -4.1646  -4.1440  -4.1407  -4.1355  -4.0738  -4.0637  -4.0372
    -4.0343  -4.0241  -4.0227  -4.0011  -4.0000  -3.9773  -3.9700  -3.9694
    -3.9435  -3.8913  -3.8905  -3.8436  -3.8403  -3.7866  -3.7845  -3.7321
    -3.7283  -3.7281  -3.7272  -3.6930  -3.6592  -3.6562  -3.6473  -3.6468
    -3.6444  -3.6211  -3.6144  -3.6062  -3.5484  -3.5470  -3.5403  -3.5187
    -3.5111  -3.4423  -3.4379  -3.4115  -3.4054  -3.3810  -3.3778  -3.3629
    -3.3495  -3.2913  -3.2890  -3.2735  -3.2701  -3.2366  -3.2201  -3.2184
    -3.1741  -3.1584  -3.1494  -3.1417  -3.1343  -3.1296  -3.1271  -3.1147
    -3.1144  -3.1051  -3.0663  -3.0390  -3.0234  -3.0138  -3.0100  -2.9882
    -2.9829  -2.9766  -2.9731  -2.9280  -2.9060  -2.9048  -2.8785  -2.8605
    -2.8468  -2.8410  -2.8343  -2.8110  -2.7926  -2.7804  -2.7482  -2.7465
    -2.7249  -2.7143  -2.7051  -2.7008  -2.6529  -2.6479  -2.6178  -2.5976
    -2.5947  -2.5719  -2.5684  -2.5609  -2.5572  -2.5494  -2.5293  -2.5250
    -2.4825  -2.4805  -2.4792  -2.4657  -2.4634  -2.4560  -2.4541  -2.4492
    -2.4457  -2.4430  -2.4383  -2.4352  -2.4261  -2.4206  -2.3999  -2.3915
    -2.3879  -2.3855  -2.3843  -2.3823  -2.3799  -2.3567  -2.3550  -2.3425
    -2.3371  -2.3206  -2.3184  -2.3136  -2.3090  -2.3077  -2.3053  -2.2960
    -2.2867  -2.2859  -2.2818  -2.2694  -2.2440  -2.2401  -2.2022  -2.2010
    -2.1813  -2.1781  -2.1530  -2.1482  -2.1223  -2.1209  -2.1059  -2.1004
    -2.0749  -2.0600  -2.0548  -2.0457  -2.0421  -2.0375  -2.0324  -2.0288
    -2.0049  -2.0014  -1.9945  -1.9426  -1.9368  -1.9294  -1.9262  -1.9241
    -1.8986  -1.8725  -1.8696  -1.8466  -1.8411  -1.7872  -1.7834  -1.7546
    -1.7345  -1.7326  -1.6841  -1.6727  -1.6687  -1.6614  -1.6539  -1.6509
    -1.6463  -1.6428  -1.6361  -1.5885  -1.5850  -1.5744  -1.5684  -1.5679
    -1.5527  -1.5479  -1.5246  -1.5136  -1.5014  -1.4993  -1.4953  -1.4886
    -1.4858  -1.4797  -1.4725  -1.4570  -1.4526  -1.4215  -1.4109  -1.4060
    -1.4014  -1.3845  -1.3667  -1.3336  -1.3240  -1.3032  -1.2969  -1.2933
    -1.2673  -1.2256  -1.2141  -1.2106  -1.2084  -1.2059  -1.2022  -1.1948
    -1.1812  -1.1757  -1.1451  -1.1339  -1.1130  -1.1083  -1.1007  -1.0975
    -1.0934  -1.0829  -1.0753  -1.0740  -1.0704  -1.0688  -1.0384  -1.0313
    -1.0298  -1.0286  -1.0053  -0.9988  -0.9945  -0.9703  -0.9679  -0.9609
    -0.9212  -0.9150  -0.9092  -0.8773  -0.8704  -0.8615  -0.8549  -0.8495
    -0.8487  -0.8475  -0.8433  -0.8381  -0.8320  -0.8110  -0.8085  -0.8062
    -0.8037  -0.8001  -0.7664  -0.7649  -0.7619  -0.7539  -0.7418  -0.7359
    -0.7292  -0.7187  -0.6683  -0.6655  -0.6586  -0.6540  -0.6515  -0.6486
    -0.6457  -0.6304  -0.6281  -0.6227  -0.6170  -0.6151  -0.6145  -0.5871
    -0.5764  -0.5726  -0.5718  -0.5651  -0.5633  -0.5579  -0.5530  -0.5408
    -0.5396  -0.5360  -0.5286  -0.4971  -0.4949  -0.4879  -0.4832  -0.4804
    -0.4098  -0.4033  -0.4027  -0.4011  -0.3940  -0.3918  -0.3574  -0.3460
    -0.3435  -0.3136  -0.3122  -0.3024  -0.1906  -0.1844  -0.0858   0.3253
     0.3265   0.3320   0.3334   0.3952   0.3973   0.7780   0.7812   0.8230
     0.8252   0.9427   1.0157   1.1231   1.1318   1.3473   1.3599   1.9779
     1.9797   2.1394   2.1438   2.2751   2.2778   2.3764   2.3773   2.5306
     2.7686   2.7898   2.8934   3.1134   3.1239   3.1981   3.2003   3.2992
     3.3160   3.5151   3.5421   3.5710   3.7710   3.7756   3.8317   3.8413
     4.0876   4.0986   4.1055   4.3408   4.3805   4.3865   4.4288   4.7586
     4.7681   4.7933   4.9262   5.1043   5.1061   5.1717   5.1936   5.5653
     5.8109   5.8768   5.8948   5.9003   5.9450   5.9605   5.9679   6.0551
     6.0747   6.1010   6.1294   6.1354   6.1416   6.1679   6.1700   6.1885
     6.1995   6.4597   6.6059   6.7208   6.7620   6.8085   6.8312   6.8413
     6.8540   6.9605   7.0316

          k = 0.2500-0.4330-0.1111 (136853 PWs)   bands (ev):

   -18.6623  -6.8683  -6.3811  -5.9863  -5.9823  -5.3063  -4.9754  -4.9742
    -4.9375  -4.9318  -4.5755  -4.5737  -4.4763  -4.4758  -4.4619  -4.4387
    -4.4201  -4.3112  -4.3074  -4.2845  -4.2413  -4.2410  -4.1739  -4.1717
    -4.1661  -4.1646  -4.1440  -4.1407  -4.1355  -4.0738  -4.0637  -4.0372
    -4.0343  -4.0241  -4.0227  -4.0011  -4.0000  -3.9773  -3.9700  -3.9694
    -3.9435  -3.8913  -3.8905  -3.8436  -3.8403  -3.7866  -3.7845  -3.7321
    -3.7283  -3.7281  -3.7272  -3.6930  -3.6592  -3.6562  -3.6473  -3.6468
    -3.6444  -3.6211  -3.6144  -3.6062  -3.5484  -3.5470  -3.5403  -3.5187
    -3.5111  -3.4423  -3.4379  -3.4115  -3.4054  -3.3810  -3.3778  -3.3629
    -3.3495  -3.2913  -3.2890  -3.2735  -3.2701  -3.2366  -3.2201  -3.2184
    -3.1741  -3.1584  -3.1494  -3.1417  -3.1343  -3.1296  -3.1271  -3.1147
    -3.1144  -3.1051  -3.0663  -3.0390  -3.0234  -3.0138  -3.0100  -2.9882
    -2.9829  -2.9766  -2.9731  -2.9280  -2.9060  -2.9048  -2.8785  -2.8605
    -2.8468  -2.8410  -2.8343  -2.8110  -2.7926  -2.7804  -2.7482  -2.7464
    -2.7249  -2.7143  -2.7051  -2.7008  -2.6528  -2.6479  -2.6178  -2.5976
    -2.5947  -2.5719  -2.5684  -2.5609  -2.5572  -2.5494  -2.5293  -2.5250
    -2.4825  -2.4805  -2.4792  -2.4657  -2.4634  -2.4560  -2.4541  -2.4492
    -2.4457  -2.4430  -2.4383  -2.4352  -2.4261  -2.4206  -2.3999  -2.3915
    -2.3879  -2.3855  -2.3843  -2.3823  -2.3799  -2.3567  -2.3550  -2.3425
    -2.3371  -2.3206  -2.3184  -2.3136  -2.3090  -2.3077  -2.3053  -2.2960
    -2.2867  -2.2859  -2.2818  -2.2694  -2.2440  -2.2401  -2.2022  -2.2010
    -2.1813  -2.1781  -2.1530  -2.1482  -2.1223  -2.1209  -2.1059  -2.1004
    -2.0749  -2.0600  -2.0548  -2.0457  -2.0421  -2.0375  -2.0324  -2.0288
    -2.0049  -2.0014  -1.9945  -1.9426  -1.9368  -1.9294  -1.9262  -1.9241
    -1.8986  -1.8725  -1.8696  -1.8466  -1.8411  -1.7872  -1.7834  -1.7546
    -1.7345  -1.7326  -1.6841  -1.6727  -1.6687  -1.6614  -1.6539  -1.6509
    -1.6463  -1.6428  -1.6361  -1.5885  -1.5850  -1.5744  -1.5684  -1.5679
    -1.5527  -1.5479  -1.5246  -1.5136  -1.5014  -1.4993  -1.4953  -1.4886
    -1.4858  -1.4797  -1.4725  -1.4570  -1.4526  -1.4215  -1.4109  -1.4060
    -1.4014  -1.3845  -1.3667  -1.3336  -1.3240  -1.3032  -1.2969  -1.2933
    -1.2673  -1.2256  -1.2141  -1.2106  -1.2084  -1.2059  -1.2022  -1.1948
    -1.1812  -1.1757  -1.1451  -1.1339  -1.1130  -1.1083  -1.1007  -1.0975
    -1.0934  -1.0829  -1.0753  -1.0740  -1.0704  -1.0688  -1.0384  -1.0313
    -1.0298  -1.0286  -1.0053  -0.9988  -0.9945  -0.9703  -0.9679  -0.9609
    -0.9212  -0.9150  -0.9092  -0.8773  -0.8704  -0.8615  -0.8549  -0.8495
    -0.8487  -0.8475  -0.8433  -0.8381  -0.8320  -0.8110  -0.8085  -0.8062
    -0.8037  -0.8001  -0.7664  -0.7649  -0.7619  -0.7539  -0.7418  -0.7359
    -0.7292  -0.7187  -0.6683  -0.6655  -0.6586  -0.6540  -0.6515  -0.6486
    -0.6457  -0.6304  -0.6281  -0.6227  -0.6170  -0.6151  -0.6145  -0.5871
    -0.5764  -0.5726  -0.5718  -0.5651  -0.5633  -0.5579  -0.5530  -0.5408
    -0.5396  -0.5360  -0.5286  -0.4971  -0.4949  -0.4879  -0.4832  -0.4804
    -0.4098  -0.4033  -0.4027  -0.4011  -0.3940  -0.3918  -0.3574  -0.3460
    -0.3435  -0.3136  -0.3122  -0.3024  -0.1906  -0.1844  -0.0858   0.3253
     0.3265   0.3320   0.3334   0.3952   0.3973   0.7780   0.7812   0.8230
     0.8252   0.9427   1.0157   1.1231   1.1318   1.3473   1.3599   1.9779
     1.9797   2.1394   2.1438   2.2751   2.2778   2.3764   2.3773   2.5306
     2.7686   2.7898   2.8934   3.1134   3.1239   3.1981   3.2003   3.2992
     3.3160   3.5151   3.5421   3.5710   3.7710   3.7756   3.8317   3.8413
     4.0876   4.0986   4.1055   4.3408   4.3805   4.3865   4.4288   4.7586
     4.7681   4.7933   4.9262   5.1043   5.1061   5.1717   5.1936   5.5653
     5.8110   5.8768   5.8948   5.9003   5.9451   5.9605   5.9679   6.0552
     6.0747   6.1010   6.1293   6.1352   6.1413   6.1672   6.1708   6.1884
     6.1994   6.4596   6.6057   6.7222   6.7631   6.8087   6.8313   6.8412
     6.8543   6.9605   7.0299

          k = 0.5000 0.0000 0.1111 (136853 PWs)   bands (ev):

   -18.6623  -6.8683  -6.3811  -5.9853  -5.9832  -5.3063  -4.9755  -4.9740
    -4.9369  -4.9323  -4.5762  -4.5734  -4.4768  -4.4761  -4.4617  -4.4387
    -4.4201  -4.3104  -4.3069  -4.2842  -4.2418  -4.2407  -4.1738  -4.1716
    -4.1658  -4.1653  -4.1441  -4.1408  -4.1355  -4.0740  -4.0637  -4.0382
    -4.0338  -4.0243  -4.0231  -4.0005  -3.9998  -3.9778  -3.9698  -3.9689
    -3.9434  -3.8911  -3.8904  -3.8448  -3.8399  -3.7866  -3.7844  -3.7312
    -3.7288  -3.7280  -3.7271  -3.6926  -3.6597  -3.6563  -3.6476  -3.6462
    -3.6448  -3.6206  -3.6146  -3.6068  -3.5489  -3.5469  -3.5391  -3.5186
    -3.5118  -3.4401  -3.4386  -3.4114  -3.4046  -3.3837  -3.3770  -3.3630
    -3.3502  -3.2985  -3.2896  -3.2760  -3.2687  -3.2325  -3.2216  -3.2149
    -3.1756  -3.1626  -3.1426  -3.1390  -3.1343  -3.1308  -3.1253  -3.1138
    -3.1123  -3.1066  -3.0681  -3.0389  -3.0223  -3.0147  -3.0117  -2.9932
    -2.9824  -2.9756  -2.9645  -2.9197  -2.9062  -2.9006  -2.8919  -2.8603
    -2.8469  -2.8404  -2.8339  -2.8160  -2.8071  -2.7807  -2.7482  -2.7376
    -2.7254  -2.7143  -2.7035  -2.6971  -2.6536  -2.6500  -2.6182  -2.5973
    -2.5919  -2.5748  -2.5685  -2.5607  -2.5545  -2.5486  -2.5296  -2.5274
    -2.4816  -2.4798  -2.4778  -2.4654  -2.4631  -2.4556  -2.4542  -2.4484
    -2.4447  -2.4428  -2.4384  -2.4332  -2.4266  -2.4189  -2.3987  -2.3926
    -2.3873  -2.3854  -2.3846  -2.3817  -2.3773  -2.3598  -2.3549  -2.3420
    -2.3382  -2.3208  -2.3184  -2.3151  -2.3099  -2.3083  -2.3069  -2.2937
    -2.2863  -2.2849  -2.2831  -2.2687  -2.2441  -2.2403  -2.2022  -2.2007
    -2.1812  -2.1781  -2.1523  -2.1457  -2.1274  -2.1214  -2.1082  -2.1001
    -2.0741  -2.0626  -2.0557  -2.0449  -2.0440  -2.0402  -2.0345  -2.0317
    -2.0053  -1.9996  -1.9945  -1.9397  -1.9334  -1.9293  -1.9264  -1.9232
    -1.8969  -1.8729  -1.8693  -1.8453  -1.8409  -1.7874  -1.7833  -1.7534
    -1.7370  -1.7322  -1.6838  -1.6744  -1.6689  -1.6613  -1.6536  -1.6509
    -1.6461  -1.6432  -1.6358  -1.5928  -1.5807  -1.5744  -1.5681  -1.5667
    -1.5553  -1.5480  -1.5197  -1.5147  -1.5027  -1.4980  -1.4964  -1.4888
    -1.4838  -1.4799  -1.4721  -1.4565  -1.4534  -1.4225  -1.4105  -1.4064
    -1.4016  -1.3843  -1.3666  -1.3325  -1.3246  -1.3014  -1.2965  -1.2942
    -1.2678  -1.2276  -1.2140  -1.2100  -1.2085  -1.2058  -1.2032  -1.1944
    -1.1814  -1.1762  -1.1446  -1.1331  -1.1132  -1.1077  -1.1013  -1.0979
    -1.0930  -1.0832  -1.0759  -1.0736  -1.0707  -1.0681  -1.0372  -1.0315
    -1.0305  -1.0288  -1.0049  -0.9992  -0.9959  -0.9707  -0.9677  -0.9621
    -0.9229  -0.9136  -0.9080  -0.8773  -0.8707  -0.8610  -0.8548  -0.8505
    -0.8483  -0.8473  -0.8440  -0.8357  -0.8322  -0.8110  -0.8088  -0.8058
    -0.8034  -0.8005  -0.7691  -0.7653  -0.7650  -0.7515  -0.7386  -0.7340
    -0.7298  -0.7188  -0.6691  -0.6659  -0.6603  -0.6548  -0.6517  -0.6502
    -0.6460  -0.6291  -0.6272  -0.6222  -0.6162  -0.6151  -0.6140  -0.5841
    -0.5757  -0.5726  -0.5681  -0.5645  -0.5619  -0.5577  -0.5516  -0.5417
    -0.5390  -0.5367  -0.5321  -0.4973  -0.4945  -0.4879  -0.4829  -0.4814
    -0.4101  -0.4032  -0.4025  -0.4022  -0.3937  -0.3921  -0.3573  -0.3459
    -0.3436  -0.3124  -0.3099  -0.3054  -0.1916  -0.1865  -0.0876   0.3255
     0.3268   0.3322   0.3325   0.3956   0.3983   0.7791   0.7815   0.8230
     0.8246   0.9423   1.0152   1.1245   1.1294   1.3497   1.3577   1.9773
     1.9809   2.1396   2.1433   2.2750   2.2785   2.3759   2.3779   2.5306
     2.7688   2.7894   2.8933   3.1140   3.1234   3.1970   3.2009   3.2998
     3.3160   3.5202   3.5374   3.5707   3.7706   3.7759   3.8319   3.8409
     4.0891   4.0982   4.1051   4.3408   4.3814   4.3859   4.4284   4.7572
     4.7692   4.7949   4.9261   5.1041   5.1059   5.1727   5.1913   5.5609
     5.8237   5.8731   5.8919   5.9024   5.9324   5.9605   5.9674   6.0590
     6.0789   6.1003   6.1292   6.1358   6.1454   6.1684   6.1803   6.1880
     6.1924   6.4624   6.5959   6.7302   6.7623   6.8006   6.8327   6.8407
     6.8476   6.9606   7.0281

          k =-0.5000 0.0000 0.1111 (136853 PWs)   bands (ev):

   -18.6623  -6.8683  -6.3811  -5.9853  -5.9832  -5.3063  -4.9755  -4.9740
    -4.9369  -4.9323  -4.5762  -4.5734  -4.4768  -4.4761  -4.4617  -4.4387
    -4.4201  -4.3104  -4.3069  -4.2842  -4.2418  -4.2407  -4.1738  -4.1716
    -4.1658  -4.1653  -4.1441  -4.1408  -4.1355  -4.0740  -4.0637  -4.0382
    -4.0338  -4.0243  -4.0231  -4.0005  -3.9998  -3.9778  -3.9698  -3.9689
    -3.9434  -3.8911  -3.8904  -3.8448  -3.8399  -3.7866  -3.7844  -3.7312
    -3.7288  -3.7280  -3.7271  -3.6926  -3.6597  -3.6563  -3.6476  -3.6462
    -3.6448  -3.6206  -3.6146  -3.6068  -3.5489  -3.5469  -3.5391  -3.5186
    -3.5118  -3.4401  -3.4386  -3.4114  -3.4046  -3.3837  -3.3770  -3.3630
    -3.3502  -3.2985  -3.2895  -3.2760  -3.2687  -3.2325  -3.2216  -3.2149
    -3.1756  -3.1626  -3.1426  -3.1390  -3.1343  -3.1308  -3.1253  -3.1138
    -3.1123  -3.1066  -3.0681  -3.0389  -3.0223  -3.0147  -3.0117  -2.9932
    -2.9824  -2.9756  -2.9645  -2.9197  -2.9062  -2.9006  -2.8919  -2.8603
    -2.8469  -2.8404  -2.8339  -2.8160  -2.8071  -2.7807  -2.7482  -2.7376
    -2.7254  -2.7143  -2.7035  -2.6971  -2.6536  -2.6500  -2.6182  -2.5973
    -2.5919  -2.5748  -2.5685  -2.5607  -2.5545  -2.5486  -2.5296  -2.5274
    -2.4816  -2.4798  -2.4778  -2.4654  -2.4631  -2.4556  -2.4542  -2.4484
    -2.4447  -2.4428  -2.4384  -2.4332  -2.4266  -2.4189  -2.3987  -2.3926
    -2.3873  -2.3854  -2.3846  -2.3817  -2.3773  -2.3598  -2.3549  -2.3420
    -2.3382  -2.3208  -2.3184  -2.3151  -2.3099  -2.3083  -2.3069  -2.2937
    -2.2863  -2.2849  -2.2831  -2.2687  -2.2441  -2.2403  -2.2022  -2.2007
    -2.1812  -2.1781  -2.1523  -2.1457  -2.1274  -2.1214  -2.1082  -2.1001
    -2.0741  -2.0626  -2.0557  -2.0449  -2.0440  -2.0402  -2.0345  -2.0317
    -2.0053  -1.9996  -1.9945  -1.9397  -1.9334  -1.9293  -1.9264  -1.9232
    -1.8969  -1.8729  -1.8693  -1.8453  -1.8409  -1.7874  -1.7833  -1.7534
    -1.7370  -1.7322  -1.6838  -1.6744  -1.6689  -1.6613  -1.6536  -1.6509
    -1.6461  -1.6432  -1.6358  -1.5928  -1.5807  -1.5744  -1.5681  -1.5667
    -1.5553  -1.5480  -1.5197  -1.5147  -1.5027  -1.4980  -1.4964  -1.4888
    -1.4838  -1.4799  -1.4721  -1.4565  -1.4534  -1.4225  -1.4105  -1.4064
    -1.4016  -1.3843  -1.3666  -1.3325  -1.3246  -1.3014  -1.2965  -1.2942
    -1.2678  -1.2276  -1.2140  -1.2100  -1.2085  -1.2058  -1.2032  -1.1944
    -1.1814  -1.1762  -1.1446  -1.1331  -1.1132  -1.1077  -1.1013  -1.0979
    -1.0930  -1.0832  -1.0759  -1.0736  -1.0707  -1.0681  -1.0372  -1.0315
    -1.0305  -1.0288  -1.0049  -0.9992  -0.9959  -0.9707  -0.9677  -0.9621
    -0.9229  -0.9136  -0.9080  -0.8773  -0.8707  -0.8610  -0.8548  -0.8505
    -0.8483  -0.8473  -0.8440  -0.8357  -0.8322  -0.8110  -0.8088  -0.8058
    -0.8034  -0.8005  -0.7691  -0.7653  -0.7650  -0.7515  -0.7386  -0.7340
    -0.7298  -0.7188  -0.6691  -0.6659  -0.6603  -0.6548  -0.6517  -0.6502
    -0.6460  -0.6291  -0.6272  -0.6222  -0.6162  -0.6151  -0.6140  -0.5841
    -0.5757  -0.5726  -0.5681  -0.5645  -0.5619  -0.5577  -0.5516  -0.5417
    -0.5390  -0.5367  -0.5321  -0.4973  -0.4945  -0.4879  -0.4829  -0.4814
    -0.4101  -0.4032  -0.4025  -0.4022  -0.3937  -0.3921  -0.3573  -0.3459
    -0.3436  -0.3124  -0.3099  -0.3054  -0.1916  -0.1865  -0.0876   0.3255
     0.3268   0.3322   0.3325   0.3956   0.3983   0.7791   0.7815   0.8230
     0.8246   0.9423   1.0152   1.1245   1.1294   1.3497   1.3577   1.9773
     1.9809   2.1396   2.1433   2.2750   2.2785   2.3759   2.3779   2.5306
     2.7688   2.7894   2.8933   3.1140   3.1234   3.1970   3.2009   3.2998
     3.3160   3.5202   3.5374   3.5707   3.7706   3.7759   3.8319   3.8409
     4.0891   4.0982   4.1051   4.3408   4.3814   4.3859   4.4284   4.7572
     4.7692   4.7949   4.9261   5.1041   5.1059   5.1727   5.1913   5.5609
     5.8231   5.8731   5.8919   5.9024   5.9323   5.9605   5.9674   6.0589
     6.0787   6.1003   6.1294   6.1358   6.1473   6.1692   6.1793   6.1881
     6.1925   6.4634   6.5967   6.7203   6.7605   6.7994   6.8323   6.8403
     6.8473   6.9606   7.0361

          k =-0.2500 0.1443 0.1111 (136898 PWs)   bands (ev):

   -18.6623  -6.8714  -6.5870  -5.8021  -5.5095  -5.4530  -5.4520  -4.9150
    -4.9147  -4.7828  -4.7823  -4.6275  -4.6010  -4.5352  -4.5028  -4.5006
    -4.4687  -4.4681  -4.3400  -4.2987  -4.2978  -4.2388  -4.2179  -4.2169
    -4.1155  -4.1145  -4.0797  -4.0781  -4.0778  -4.0520  -4.0302  -4.0296
    -3.9282  -3.9237  -3.9223  -3.9030  -3.8867  -3.8848  -3.8741  -3.8725
    -3.8613  -3.8307  -3.8300  -3.8294  -3.8280  -3.7986  -3.7967  -3.7801
    -3.7780  -3.7692  -3.7288  -3.7242  -3.6914  -3.6792  -3.6754  -3.6698
    -3.6693  -3.5965  -3.5954  -3.5638  -3.5601  -3.5575  -3.4920  -3.4894
    -3.4805  -3.4737  -3.4489  -3.4464  -3.4448  -3.4433  -3.2987  -3.2877
    -3.2782  -3.2674  -3.2641  -3.2444  -3.2423  -3.2195  -3.2178  -3.1713
    -3.1665  -3.1554  -3.1501  -3.1355  -3.1037  -3.0843  -3.0747  -3.0602
    -3.0566  -3.0335  -3.0169  -3.0137  -3.0077  -3.0036  -2.9913  -2.9648
    -2.9540  -2.9487  -2.9335  -2.9297  -2.9275  -2.9233  -2.8923  -2.8511
    -2.8485  -2.8402  -2.8156  -2.8052  -2.7583  -2.7465  -2.7283  -2.7225
    -2.7135  -2.7108  -2.7042  -2.6788  -2.6746  -2.6662  -2.6517  -2.6306
    -2.6269  -2.6192  -2.6049  -2.6029  -2.5963  -2.5914  -2.5879  -2.5835
    -2.5783  -2.5331  -2.5041  -2.5011  -2.4836  -2.4721  -2.4688  -2.4640
    -2.4577  -2.4567  -2.4548  -2.4288  -2.4266  -2.4218  -2.4157  -2.4133
    -2.4012  -2.3743  -2.3734  -2.3711  -2.3695  -2.3674  -2.3238  -2.2966
    -2.2931  -2.2908  -2.2855  -2.2761  -2.2682  -2.2648  -2.2469  -2.2465
    -2.2191  -2.2133  -2.2122  -2.1968  -2.1945  -2.1937  -2.1658  -2.1599
    -2.1247  -2.1151  -2.1138  -2.1115  -2.1081  -2.1052  -2.1025  -2.0992
    -2.0966  -2.0939  -2.0897  -2.0768  -2.0747  -1.9549  -1.9506  -1.9273
    -1.9114  -1.9078  -1.9020  -1.9015  -1.8905  -1.8859  -1.8822  -1.8810
    -1.8767  -1.8591  -1.8537  -1.8512  -1.8412  -1.8364  -1.8344  -1.8160
    -1.8129  -1.7865  -1.7853  -1.7603  -1.7572  -1.7458  -1.7365  -1.7178
    -1.7170  -1.7133  -1.6975  -1.6840  -1.6836  -1.6756  -1.6753  -1.6532
    -1.6507  -1.6362  -1.6313  -1.6012  -1.5968  -1.5918  -1.5473  -1.5386
    -1.5282  -1.5242  -1.5214  -1.4992  -1.4962  -1.4676  -1.4650  -1.4617
    -1.4338  -1.4218  -1.4202  -1.4040  -1.4020  -1.3829  -1.3784  -1.3726
    -1.3496  -1.3438  -1.3418  -1.2852  -1.2799  -1.2727  -1.2659  -1.2580
    -1.2505  -1.2387  -1.2375  -1.2200  -1.2064  -1.1845  -1.1771  -1.1670
    -1.1414  -1.1298  -1.1274  -1.1191  -1.1166  -1.1142  -1.1107  -1.1096
    -1.0944  -1.0739  -1.0664  -1.0545  -1.0509  -1.0492  -1.0479  -1.0314
    -1.0094  -1.0074  -0.9912  -0.9857  -0.9023  -0.8868  -0.8807  -0.8775
    -0.8762  -0.8700  -0.8659  -0.8503  -0.8457  -0.8311  -0.8252  -0.8138
    -0.8123  -0.8069  -0.7868  -0.7835  -0.7788  -0.7719  -0.7056  -0.6974
    -0.6779  -0.6646  -0.6620  -0.6598  -0.6522  -0.6513  -0.6503  -0.6407
    -0.6369  -0.6232  -0.5959  -0.5914  -0.5699  -0.5632  -0.5557  -0.5532
    -0.5507  -0.5426  -0.5394  -0.5365  -0.5341  -0.5285  -0.5188  -0.5139
    -0.5131  -0.4841  -0.4836  -0.4798  -0.4684  -0.4681  -0.4494  -0.4183
    -0.4175  -0.4080  -0.4078  -0.3422  -0.3387  -0.3059  -0.3035  -0.2492
    -0.2464  -0.2426  -0.2238  -0.2208   0.0134   0.0156   0.3557   0.3562
     0.4508   0.4543   0.6461   0.6679   0.6748   0.8030   0.8056   1.2356
     1.2372   1.2550   1.5196   1.5461   1.5470   1.8275   1.8317   1.9001
     1.9030   1.9295   1.9339   2.1580   2.1589   2.2471   2.2486   2.3353
     2.3880   2.3947   2.5517   2.6519   3.0832   3.0905   3.0933   3.0946
     3.1472   3.1488   3.4400   3.4411   3.7193   3.7270   3.8424   4.1369
     4.1709   4.1822   4.4082   4.4279   4.4741   4.4813   4.5704   4.6830
     4.6939   4.8043   4.8085   5.1069   5.1671   5.1845   5.3422   5.3759
     5.4619   5.5600   5.5703   5.5938   5.5968   5.6517   5.6594   5.7169
     5.8983   6.0642   6.2568   6.2921   6.3690   6.3955   6.4029   6.4078
     6.4173   6.5608   6.6518   6.6559   6.6771   6.8541   6.8919   6.9162
     6.9484   7.0323   7.1122

          k =-0.2500-0.1443-0.1111 (136898 PWs)   bands (ev):

   -18.6623  -6.8714  -6.5870  -5.8021  -5.5095  -5.4529  -5.4519  -4.9147
    -4.9147  -4.7832  -4.7823  -4.6275  -4.6010  -4.5358  -4.5018  -4.5014
    -4.4684  -4.4679  -4.3400  -4.2983  -4.2982  -4.2387  -4.2179  -4.2170
    -4.1150  -4.1145  -4.0797  -4.0781  -4.0779  -4.0519  -4.0302  -4.0294
    -3.9285  -3.9234  -3.9232  -3.9030  -3.8870  -3.8848  -3.8742  -3.8724
    -3.8612  -3.8307  -3.8299  -3.8287  -3.8279  -3.7985  -3.7969  -3.7804
    -3.7779  -3.7693  -3.7289  -3.7237  -3.6913  -3.6791  -3.6749  -3.6697
    -3.6696  -3.5968  -3.5955  -3.5637  -3.5594  -3.5581  -3.4925  -3.4896
    -3.4792  -3.4735  -3.4489  -3.4464  -3.4444  -3.4437  -3.3088  -3.2877
    -3.2734  -3.2707  -3.2608  -3.2449  -3.2424  -3.2191  -3.2185  -3.1741
    -3.1665  -3.1571  -3.1498  -3.1308  -3.0975  -3.0880  -3.0680  -3.0643
    -3.0567  -3.0339  -3.0173  -3.0085  -3.0080  -2.9996  -2.9914  -2.9716
    -2.9539  -2.9467  -2.9362  -2.9300  -2.9275  -2.9237  -2.8958  -2.8494
    -2.8491  -2.8380  -2.8157  -2.8014  -2.7614  -2.7557  -2.7261  -2.7213
    -2.7128  -2.7081  -2.7016  -2.6791  -2.6781  -2.6661  -2.6473  -2.6318
    -2.6247  -2.6170  -2.6041  -2.6038  -2.5949  -2.5933  -2.5876  -2.5847
    -2.5783  -2.5331  -2.5039  -2.5020  -2.4863  -2.4729  -2.4691  -2.4639
    -2.4571  -2.4568  -2.4559  -2.4299  -2.4275  -2.4223  -2.4158  -2.4114
    -2.4010  -2.3735  -2.3726  -2.3703  -2.3695  -2.3648  -2.3242  -2.2962
    -2.2925  -2.2920  -2.2857  -2.2774  -2.2721  -2.2634  -2.2467  -2.2463
    -2.2191  -2.2130  -2.2122  -2.1987  -2.1946  -2.1939  -2.1643  -2.1606
    -2.1248  -2.1153  -2.1133  -2.1114  -2.1111  -2.1038  -2.1025  -2.0987
    -2.0983  -2.0922  -2.0903  -2.0762  -2.0746  -1.9576  -1.9517  -1.9151
    -1.9118  -1.9111  -1.9025  -1.9014  -1.8919  -1.8875  -1.8822  -1.8798
    -1.8759  -1.8607  -1.8542  -1.8526  -1.8399  -1.8353  -1.8345  -1.8178
    -1.8134  -1.7887  -1.7859  -1.7575  -1.7556  -1.7458  -1.7357  -1.7177
    -1.7170  -1.7132  -1.6976  -1.6856  -1.6836  -1.6761  -1.6747  -1.6515
    -1.6493  -1.6354  -1.6339  -1.6034  -1.5967  -1.5900  -1.5443  -1.5408
    -1.5256  -1.5250  -1.5208  -1.4993  -1.4960  -1.4690  -1.4648  -1.4636
    -1.4304  -1.4244  -1.4202  -1.4037  -1.4019  -1.3812  -1.3803  -1.3720
    -1.3502  -1.3434  -1.3422  -1.2871  -1.2804  -1.2725  -1.2666  -1.2566
    -1.2513  -1.2375  -1.2373  -1.2196  -1.2064  -1.1828  -1.1779  -1.1667
    -1.1368  -1.1311  -1.1284  -1.1188  -1.1176  -1.1144  -1.1116  -1.1081
    -1.0943  -1.0725  -1.0686  -1.0583  -1.0528  -1.0501  -1.0486  -1.0315
    -1.0115  -1.0069  -0.9894  -0.9859  -0.8988  -0.8899  -0.8792  -0.8782
    -0.8733  -0.8707  -0.8670  -0.8462  -0.8413  -0.8314  -0.8275  -0.8129
    -0.8124  -0.8079  -0.7879  -0.7811  -0.7799  -0.7722  -0.7007  -0.6983
    -0.6807  -0.6680  -0.6608  -0.6566  -0.6553  -0.6509  -0.6504  -0.6431
    -0.6401  -0.6209  -0.5958  -0.5849  -0.5778  -0.5659  -0.5543  -0.5540
    -0.5508  -0.5402  -0.5396  -0.5370  -0.5349  -0.5260  -0.5171  -0.5146
    -0.5131  -0.4837  -0.4836  -0.4794  -0.4692  -0.4684  -0.4490  -0.4184
    -0.4173  -0.4081  -0.4074  -0.3421  -0.3392  -0.3060  -0.3033  -0.2491
    -0.2465  -0.2425  -0.2271  -0.2207   0.0138   0.0187   0.3555   0.3563
     0.4515   0.4546   0.6434   0.6685   0.6738   0.8037   0.8043   1.2357
     1.2375   1.2538   1.5195   1.5457   1.5478   1.8283   1.8310   1.8997
     1.9045   1.9297   1.9336   2.1581   2.1597   2.2467   2.2487   2.3358
     2.3888   2.3930   2.5508   2.6519   3.0815   3.0916   3.0928   3.0955
     3.1480   3.1496   3.4395   3.4417   3.7190   3.7276   3.8427   4.1371
     4.1706   4.1822   4.4110   4.4233   4.4758   4.4801   4.5704   4.6832
     4.6934   4.8032   4.8091   5.1063   5.1692   5.1825   5.3514   5.3718
     5.4535   5.5613   5.5702   5.5914   5.5974   5.6478   5.6629   5.7223
     5.9007   6.0784   6.2575   6.2824   6.3495   6.3956   6.4009   6.4059
     6.4182   6.5660   6.6509   6.6576   6.6855   6.8646   6.8943   6.9169
     6.9336   7.0417   7.1035

          k = 0.2500 0.1443-0.1111 (136898 PWs)   bands (ev):

   -18.6623  -6.8714  -6.5870  -5.8021  -5.5095  -5.4529  -5.4519  -4.9147
    -4.9147  -4.7832  -4.7823  -4.6275  -4.6010  -4.5358  -4.5018  -4.5014
    -4.4684  -4.4679  -4.3400  -4.2983  -4.2982  -4.2387  -4.2179  -4.2170
    -4.1150  -4.1145  -4.0797  -4.0782  -4.0779  -4.0520  -4.0302  -4.0294
    -3.9285  -3.9234  -3.9232  -3.9030  -3.8869  -3.8848  -3.8742  -3.8724
    -3.8612  -3.8307  -3.8299  -3.8287  -3.8279  -3.7985  -3.7969  -3.7804
    -3.7779  -3.7693  -3.7289  -3.7237  -3.6913  -3.6791  -3.6749  -3.6698
    -3.6696  -3.5968  -3.5955  -3.5637  -3.5594  -3.5581  -3.4925  -3.4896
    -3.4792  -3.4735  -3.4489  -3.4464  -3.4444  -3.4437  -3.3088  -3.2877
    -3.2734  -3.2707  -3.2608  -3.2449  -3.2424  -3.2191  -3.2185  -3.1741
    -3.1665  -3.1571  -3.1498  -3.1308  -3.0975  -3.0880  -3.0680  -3.0643
    -3.0567  -3.0339  -3.0173  -3.0085  -3.0080  -2.9996  -2.9914  -2.9716
    -2.9539  -2.9467  -2.9362  -2.9300  -2.9275  -2.9237  -2.8958  -2.8494
    -2.8491  -2.8380  -2.8157  -2.8014  -2.7614  -2.7557  -2.7261  -2.7213
    -2.7128  -2.7081  -2.7016  -2.6791  -2.6781  -2.6661  -2.6473  -2.6318
    -2.6247  -2.6170  -2.6041  -2.6038  -2.5949  -2.5933  -2.5876  -2.5847
    -2.5783  -2.5331  -2.5039  -2.5020  -2.4863  -2.4729  -2.4691  -2.4639
    -2.4571  -2.4568  -2.4559  -2.4299  -2.4275  -2.4223  -2.4158  -2.4114
    -2.4010  -2.3735  -2.3726  -2.3703  -2.3695  -2.3648  -2.3242  -2.2962
    -2.2925  -2.2920  -2.2857  -2.2774  -2.2721  -2.2634  -2.2467  -2.2463
    -2.2191  -2.2130  -2.2121  -2.1987  -2.1946  -2.1939  -2.1643  -2.1606
    -2.1248  -2.1153  -2.1133  -2.1114  -2.1111  -2.1038  -2.1025  -2.0987
    -2.0983  -2.0922  -2.0903  -2.0762  -2.0746  -1.9576  -1.9517  -1.9151
    -1.9118  -1.9111  -1.9025  -1.9014  -1.8919  -1.8875  -1.8822  -1.8798
    -1.8759  -1.8607  -1.8542  -1.8526  -1.8399  -1.8353  -1.8345  -1.8178
    -1.8134  -1.7887  -1.7859  -1.7575  -1.7556  -1.7458  -1.7357  -1.7177
    -1.7170  -1.7132  -1.6976  -1.6856  -1.6836  -1.6761  -1.6747  -1.6515
    -1.6493  -1.6354  -1.6339  -1.6034  -1.5967  -1.5900  -1.5443  -1.5408
    -1.5256  -1.5250  -1.5208  -1.4993  -1.4960  -1.4690  -1.4648  -1.4636
    -1.4304  -1.4244  -1.4202  -1.4037  -1.4019  -1.3812  -1.3803  -1.3720
    -1.3502  -1.3434  -1.3422  -1.2871  -1.2804  -1.2725  -1.2666  -1.2566
    -1.2513  -1.2375  -1.2373  -1.2196  -1.2064  -1.1828  -1.1779  -1.1667
    -1.1368  -1.1311  -1.1284  -1.1188  -1.1176  -1.1144  -1.1116  -1.1081
    -1.0943  -1.0725  -1.0686  -1.0583  -1.0528  -1.0501  -1.0486  -1.0315
    -1.0115  -1.0069  -0.9894  -0.9859  -0.8988  -0.8898  -0.8792  -0.8781
    -0.8733  -0.8707  -0.8670  -0.8462  -0.8413  -0.8314  -0.8275  -0.8129
    -0.8124  -0.8079  -0.7879  -0.7811  -0.7799  -0.7722  -0.7007  -0.6983
    -0.6807  -0.6680  -0.6608  -0.6566  -0.6553  -0.6509  -0.6504  -0.6431
    -0.6401  -0.6209  -0.5958  -0.5849  -0.5778  -0.5659  -0.5543  -0.5540
    -0.5508  -0.5402  -0.5396  -0.5370  -0.5349  -0.5260  -0.5171  -0.5146
    -0.5131  -0.4837  -0.4836  -0.4794  -0.4692  -0.4684  -0.4490  -0.4184
    -0.4173  -0.4081  -0.4074  -0.3421  -0.3392  -0.3060  -0.3033  -0.2491
    -0.2465  -0.2425  -0.2271  -0.2207   0.0138   0.0187   0.3555   0.3563
     0.4515   0.4546   0.6434   0.6685   0.6738   0.8037   0.8043   1.2357
     1.2375   1.2538   1.5195   1.5457   1.5478   1.8283   1.8310   1.8997
     1.9045   1.9297   1.9336   2.1581   2.1597   2.2467   2.2487   2.3357
     2.3888   2.3930   2.5508   2.6519   3.0815   3.0916   3.0928   3.0955
     3.1480   3.1496   3.4395   3.4417   3.7190   3.7276   3.8427   4.1371
     4.1706   4.1822   4.4110   4.4233   4.4758   4.4801   4.5704   4.6832
     4.6934   4.8032   4.8091   5.1063   5.1692   5.1825   5.3513   5.3718
     5.4536   5.5613   5.5702   5.5914   5.5974   5.6478   5.6629   5.7226
     5.8985   6.0819   6.2579   6.2850   6.3493   6.3954   6.4009   6.4060
     6.4182   6.5571   6.6494   6.6576   6.6802   6.8661   6.8945   6.9207
     6.9348   7.0394   7.1084

          k = 0.0000-0.2887 0.1111 (136898 PWs)   bands (ev):

   -18.6623  -6.8714  -6.5870  -5.8021  -5.5094  -5.4530  -5.4520  -4.9149
    -4.9146  -4.7831  -4.7822  -4.6275  -4.6010  -4.5353  -4.5026  -4.5008
    -4.4687  -4.4680  -4.3399  -4.2987  -4.2978  -4.2386  -4.2179  -4.2170
    -4.1155  -4.1145  -4.0798  -4.0781  -4.0779  -4.0520  -4.0302  -4.0296
    -3.9281  -3.9236  -3.9223  -3.9029  -3.8867  -3.8849  -3.8742  -3.8725
    -3.8613  -3.8309  -3.8300  -3.8295  -3.8278  -3.7986  -3.7968  -3.7802
    -3.7779  -3.7689  -3.7289  -3.7244  -3.6918  -3.6792  -3.6752  -3.6697
    -3.6694  -3.5964  -3.5955  -3.5636  -3.5597  -3.5576  -3.4924  -3.4895
    -3.4806  -3.4735  -3.4485  -3.4464  -3.4451  -3.4435  -3.2965  -3.2877
    -3.2783  -3.2681  -3.2646  -3.2443  -3.2424  -3.2192  -3.2176  -3.1712
    -3.1665  -3.1555  -3.1500  -3.1364  -3.1023  -3.0844  -3.0772  -3.0596
    -3.0566  -3.0332  -3.0171  -3.0148  -3.0079  -3.0043  -2.9913  -2.9622
    -2.9538  -2.9474  -2.9341  -2.9296  -2.9274  -2.9233  -2.8944  -2.8506
    -2.8487  -2.8395  -2.8156  -2.8052  -2.7595  -2.7459  -2.7284  -2.7220
    -2.7134  -2.7113  -2.7044  -2.6791  -2.6737  -2.6663  -2.6519  -2.6307
    -2.6265  -2.6195  -2.6047  -2.6033  -2.5959  -2.5915  -2.5878  -2.5833
    -2.5783  -2.5331  -2.5040  -2.5018  -2.4825  -2.4719  -2.4688  -2.4642
    -2.4573  -2.4566  -2.4551  -2.4291  -2.4263  -2.4219  -2.4155  -2.4141
    -2.4008  -2.3745  -2.3733  -2.3708  -2.3692  -2.3680  -2.3240  -2.2963
    -2.2931  -2.2909  -2.2853  -2.2765  -2.2698  -2.2645  -2.2467  -2.2464
    -2.2190  -2.2128  -2.2121  -2.1975  -2.1946  -2.1938  -2.1641  -2.1600
    -2.1247  -2.1152  -2.1135  -2.1115  -2.1082  -2.1046  -2.1021  -2.0990
    -2.0967  -2.0938  -2.0904  -2.0772  -2.0752  -1.9558  -1.9514  -1.9255
    -1.9113  -1.9085  -1.9019  -1.9015  -1.8912  -1.8851  -1.8823  -1.8810
    -1.8760  -1.8596  -1.8538  -1.8517  -1.8411  -1.8361  -1.8342  -1.8167
    -1.8130  -1.7874  -1.7854  -1.7585  -1.7567  -1.7459  -1.7364  -1.7178
    -1.7170  -1.7131  -1.6976  -1.6849  -1.6836  -1.6757  -1.6753  -1.6523
    -1.6503  -1.6362  -1.6321  -1.6022  -1.5963  -1.5913  -1.5470  -1.5393
    -1.5279  -1.5244  -1.5214  -1.4995  -1.4960  -1.4679  -1.4646  -1.4618
    -1.4329  -1.4226  -1.4201  -1.4039  -1.4019  -1.3820  -1.3784  -1.3728
    -1.3500  -1.3434  -1.3418  -1.2863  -1.2797  -1.2726  -1.2664  -1.2576
    -1.2503  -1.2384  -1.2373  -1.2196  -1.2063  -1.1842  -1.1774  -1.1668
    -1.1400  -1.1301  -1.1277  -1.1191  -1.1169  -1.1143  -1.1114  -1.1092
    -1.0943  -1.0738  -1.0671  -1.0554  -1.0515  -1.0489  -1.0488  -1.0315
    -1.0107  -1.0072  -0.9907  -0.9856  -0.9008  -0.8877  -0.8802  -0.8779
    -0.8748  -0.8703  -0.8665  -0.8480  -0.8455  -0.8311  -0.8258  -0.8137
    -0.8122  -0.8071  -0.7872  -0.7829  -0.7790  -0.7720  -0.7045  -0.6974
    -0.6785  -0.6659  -0.6616  -0.6591  -0.6531  -0.6513  -0.6504  -0.6410
    -0.6381  -0.6222  -0.5958  -0.5892  -0.5731  -0.5650  -0.5557  -0.5535
    -0.5507  -0.5416  -0.5394  -0.5364  -0.5341  -0.5267  -0.5184  -0.5141
    -0.5134  -0.4840  -0.4836  -0.4795  -0.4688  -0.4681  -0.4493  -0.4184
    -0.4173  -0.4081  -0.4077  -0.3426  -0.3387  -0.3059  -0.3034  -0.2492
    -0.2464  -0.2425  -0.2251  -0.2208   0.0144   0.0160   0.3556   0.3562
     0.4514   0.4540   0.6451   0.6679   0.6747   0.8032   0.8052   1.2355
     1.2374   1.2547   1.5196   1.5460   1.5472   1.8280   1.8312   1.9000
     1.9034   1.9297   1.9336   2.1581   2.1590   2.2470   2.2486   2.3355
     2.3884   2.3940   2.5513   2.6520   3.0832   3.0904   3.0934   3.0949
     3.1476   3.1490   3.4400   3.4411   3.7193   3.7271   3.8426   4.1368
     4.1706   4.1821   4.4092   4.4258   4.4736   4.4819   4.5707   4.6826
     4.6939   4.8048   4.8088   5.1072   5.1661   5.1844   5.3445   5.3746
     5.4597   5.5590   5.5701   5.5939   5.5967   5.6527   5.6587   5.7195
     5.8984   6.0698   6.2573   6.2891   6.3627   6.3953   6.4029   6.4081
     6.4175   6.5594   6.6514   6.6553   6.6786   6.8561   6.8973   6.9140
     6.9451   7.0342   7.1088

          k = 0.0000 0.2887 0.1111 (136898 PWs)   bands (ev):

   -18.6623  -6.8714  -6.5870  -5.8021  -5.5094  -5.4530  -5.4520  -4.9149
    -4.9146  -4.7831  -4.7822  -4.6275  -4.6010  -4.5353  -4.5026  -4.5008
    -4.4687  -4.4680  -4.3399  -4.2987  -4.2978  -4.2386  -4.2179  -4.2170
    -4.1155  -4.1145  -4.0798  -4.0781  -4.0779  -4.0520  -4.0302  -4.0296
    -3.9281  -3.9236  -3.9223  -3.9029  -3.8867  -3.8849  -3.8742  -3.8725
    -3.8613  -3.8309  -3.8300  -3.8295  -3.8278  -3.7986  -3.7968  -3.7802
    -3.7779  -3.7689  -3.7289  -3.7244  -3.6918  -3.6792  -3.6752  -3.6697
    -3.6694  -3.5964  -3.5955  -3.5636  -3.5597  -3.5576  -3.4924  -3.4895
    -3.4806  -3.4735  -3.4485  -3.4464  -3.4451  -3.4435  -3.2965  -3.2877
    -3.2783  -3.2681  -3.2646  -3.2444  -3.2424  -3.2192  -3.2176  -3.1712
    -3.1665  -3.1555  -3.1500  -3.1364  -3.1023  -3.0844  -3.0772  -3.0596
    -3.0566  -3.0332  -3.0171  -3.0148  -3.0079  -3.0043  -2.9913  -2.9622
    -2.9538  -2.9474  -2.9341  -2.9296  -2.9274  -2.9233  -2.8944  -2.8506
    -2.8487  -2.8395  -2.8156  -2.8052  -2.7595  -2.7459  -2.7284  -2.7220
    -2.7134  -2.7113  -2.7044  -2.6791  -2.6737  -2.6663  -2.6519  -2.6307
    -2.6265  -2.6195  -2.6047  -2.6033  -2.5959  -2.5915  -2.5878  -2.5833
    -2.5783  -2.5331  -2.5040  -2.5018  -2.4825  -2.4719  -2.4688  -2.4642
    -2.4573  -2.4566  -2.4551  -2.4291  -2.4263  -2.4219  -2.4155  -2.4141
    -2.4008  -2.3745  -2.3733  -2.3708  -2.3692  -2.3680  -2.3240  -2.2963
    -2.2931  -2.2909  -2.2853  -2.2765  -2.2698  -2.2645  -2.2467  -2.2464
    -2.2190  -2.2128  -2.2121  -2.1975  -2.1946  -2.1938  -2.1641  -2.1600
    -2.1247  -2.1152  -2.1135  -2.1115  -2.1082  -2.1046  -2.1021  -2.0990
    -2.0967  -2.0938  -2.0904  -2.0772  -2.0752  -1.9558  -1.9514  -1.9255
    -1.9113  -1.9085  -1.9019  -1.9015  -1.8912  -1.8851  -1.8823  -1.8810
    -1.8760  -1.8596  -1.8538  -1.8517  -1.8411  -1.8361  -1.8342  -1.8167
    -1.8130  -1.7874  -1.7854  -1.7585  -1.7567  -1.7459  -1.7364  -1.7178
    -1.7170  -1.7131  -1.6976  -1.6849  -1.6836  -1.6757  -1.6753  -1.6523
    -1.6503  -1.6362  -1.6321  -1.6022  -1.5963  -1.5913  -1.5470  -1.5393
    -1.5279  -1.5244  -1.5214  -1.4995  -1.4960  -1.4679  -1.4646  -1.4618
    -1.4329  -1.4226  -1.4201  -1.4039  -1.4019  -1.3820  -1.3785  -1.3728
    -1.3500  -1.3434  -1.3418  -1.2863  -1.2797  -1.2726  -1.2664  -1.2576
    -1.2503  -1.2384  -1.2373  -1.2196  -1.2063  -1.1842  -1.1774  -1.1668
    -1.1400  -1.1301  -1.1277  -1.1191  -1.1169  -1.1143  -1.1114  -1.1092
    -1.0943  -1.0738  -1.0671  -1.0554  -1.0515  -1.0489  -1.0488  -1.0315
    -1.0107  -1.0072  -0.9907  -0.9856  -0.9008  -0.8877  -0.8802  -0.8779
    -0.8748  -0.8703  -0.8665  -0.8480  -0.8455  -0.8311  -0.8258  -0.8137
    -0.8122  -0.8071  -0.7872  -0.7829  -0.7790  -0.7720  -0.7045  -0.6974
    -0.6785  -0.6659  -0.6616  -0.6591  -0.6531  -0.6513  -0.6504  -0.6410
    -0.6381  -0.6222  -0.5958  -0.5892  -0.5731  -0.5650  -0.5557  -0.5535
    -0.5507  -0.5415  -0.5394  -0.5364  -0.5341  -0.5267  -0.5184  -0.5141
    -0.5134  -0.4840  -0.4836  -0.4795  -0.4688  -0.4681  -0.4493  -0.4184
    -0.4173  -0.4081  -0.4077  -0.3426  -0.3387  -0.3059  -0.3034  -0.2492
    -0.2464  -0.2425  -0.2251  -0.2208   0.0144   0.0160   0.3556   0.3562
     0.4514   0.4540   0.6451   0.6679   0.6747   0.8032   0.8052   1.2355
     1.2374   1.2547   1.5196   1.5460   1.5472   1.8280   1.8312   1.9000
     1.9034   1.9297   1.9336   2.1581   2.1590   2.2470   2.2486   2.3355
     2.3884   2.3940   2.5513   2.6520   3.0832   3.0904   3.0934   3.0949
     3.1476   3.1490   3.4400   3.4411   3.7193   3.7271   3.8426   4.1368
     4.1706   4.1821   4.4092   4.4258   4.4736   4.4819   4.5707   4.6826
     4.6939   4.8048   4.8088   5.1072   5.1661   5.1844   5.3445   5.3746
     5.4596   5.5590   5.5701   5.5939   5.5967   5.6527   5.6587   5.7193
     5.9000   6.0678   6.2572   6.2875   6.3617   6.3953   6.4028   6.4080
     6.4175   6.5639   6.6514   6.6563   6.6797   6.8534   6.8959   6.9135
     6.9443   7.0379   7.1183

     the Fermi energy is     1.3822 ev

!    total energy              =   -6604.40758908 Ry
     Harris-Foulkes estimate   =   -6604.40758908 Ry
     estimated scf accuracy    <          7.7E-09 Ry

     The total energy is the sum of the following terms:

     one-electron contribution =  -48759.28871409 Ry
     hartree contribution      =   24879.41587034 Ry
     xc contribution           =   -3205.03746113 Ry
     ewald contribution        =   20480.49981405 Ry
     smearing contrib. (-TS)   =       0.00290174 Ry

     convergence has been achieved in  23 iterations

     Writing output data file 5469815.save

     init_run     :    151.07s CPU    162.89s WALL (       1 calls)
     electrons    :   8298.98s CPU   8847.05s WALL (       1 calls)

     Called by init_run:
     wfcinit      :    122.46s CPU    133.43s WALL (       1 calls)
     potinit      :      8.36s CPU      8.78s WALL (       1 calls)

     Called by electrons:
     c_bands      :   7045.50s CPU   7486.44s WALL (      24 calls)
     sum_band     :    949.65s CPU   1040.85s WALL (      24 calls)
     v_of_rho     :     84.88s CPU     96.35s WALL (      24 calls)
     newd         :    226.10s CPU    229.89s WALL (      24 calls)
     mix_rho      :      3.01s CPU      3.47s WALL (      24 calls)
     vdW_energy   :      7.73s CPU      8.50s WALL (      24 calls)
     vdW_ffts     :     39.40s CPU     45.32s WALL (      48 calls)
     vdW_v        :     10.81s CPU     11.60s WALL (      24 calls)

     Called by c_bands:
     init_us_2    :     23.37s CPU     23.84s WALL (     588 calls)
     cegterg      :   6962.33s CPU   7401.96s WALL (     288 calls)

     Called by *egterg:
     h_psi        :   3194.74s CPU   3597.74s WALL (    1591 calls)
     s_psi        :    430.76s CPU    433.45s WALL (    1591 calls)
     g_psi        :      6.02s CPU      6.06s WALL (    1291 calls)
     cdiaghg      :   2029.20s CPU   2034.39s WALL (    1567 calls)

     Called by h_psi:
     add_vuspsi   :    429.86s CPU    432.50s WALL (    1591 calls)

     General routines
     calbec       :    608.69s CPU    611.11s WALL (    1879 calls)
     fft          :     87.14s CPU     98.05s WALL (    1584 calls)
     ffts         :      1.21s CPU      1.43s WALL (      48 calls)
     fftw         :   2433.94s CPU   2836.19s WALL (  704784 calls)
     interpolate  :      3.66s CPU      4.30s WALL (      48 calls)
     davcio       :      0.00s CPU      0.32s WALL (      12 calls)

     Parallel routines
     fft_scatter  :   1759.99s CPU   2026.99s WALL (  706416 calls)

     PWSCF        :     2h20m CPU        2h30m WALL


   This run was terminated on:  19:36:57  29Jun2015            

=------------------------------------------------------------------------------=
   JOB DONE.
=------------------------------------------------------------------------------=
