Setting SGE environment for SCC

     Program PWSCF v.5.1.2 starts on 24Jun2015 at 23: 5:35 

     This program is part of the open-source Quantum ESPRESSO suite
     for quantum simulation of materials; please cite
         "P. Giannozzi et al., J. Phys.:Condens. Matter 21 395502 (2009);
          URL http://www.quantum-espresso.org", 
     in publications or presentations arising from this work. More details at
     http://www.quantum-espresso.org/quote

     Parallel version (MPI), running on    32 processors
     R & G space division:  proc/nbgrp/npool/nimage =      32
     Reading input from top.O1.Au50.d.2.6.phi.0.psi.180.in
Warning: card &IONS ignored
Warning: card / ignored
Warning: card &CELL ignored
Warning: card / ignored

     Current dimensions of program PWSCF are:
     Max number of different atomic species (ntypx) = 10
     Max number of k-points (npk) =  40000
     Max angular momentum in pseudopotentials (lmaxx) =  3

     IMPORTANT: XC functional enforced from input :
     Exchange-correlation      = VDW-DF ( 1  4  4  0 1 0)
     Any further DFT definition will be discarded
     Please, verify this is what you really want


     Subspace diagonalization in iterative solution of the eigenvalue problem:
     a serial algorithm will be used


     Parallelization info
     --------------------
     sticks:   dense  smooth     PW     G-vecs:    dense   smooth      PW
     Min         445     223     58                96775    34191    4534
     Max         446     224     59                96790    34246    4540
     Sum       14269    7147   1867              3097177  1095093  145167


     Title: 
     top.O1.Au50.d.2.6.phi.0.psi.180                                            


     bravais-lattice index     =            4
     lattice parameter (alat)  =      22.7436  a.u.
     unit-cell volume          =   22924.1508 (a.u.)^3
     number of atoms/cell      =           67
     number of atomic types    =            3
     number of electrons       =       712.00
     number of Kohn-Sham states=          427
     kinetic-energy cutoff     =      50.0000  Ry
     charge density cutoff     =     400.0000  Ry
     convergence threshold     =      1.0E-08
     mixing beta               =       0.7000
     number of iterations used =            8  plain     mixing
     Exchange-correlation      = VDW-DF ( 1  4  4  0 1 0)

     celldm(1)=  22.743643  celldm(2)=   0.000000  celldm(3)=   2.250000
     celldm(4)=   0.000000  celldm(5)=   0.000000  celldm(6)=   0.000000

     crystal axes: (cart. coord. in units of alat)
               a(1) = (   1.000000   0.000000   0.000000 )  
               a(2) = (  -0.500000   0.866025   0.000000 )  
               a(3) = (   0.000000   0.000000   2.250000 )  

     reciprocal axes: (cart. coord. in units 2 pi/alat)
               b(1) = (  1.000000  0.577350 -0.000000 )  
               b(2) = (  0.000000  1.154701  0.000000 )  
               b(3) = (  0.000000 -0.000000  0.444444 )  


     PseudoPot. # 1 for Au read from file:
     /home/scc/andrejb/qe/pseudo/Au.pbe-nd-van.UPF
     MD5 check sum: 458681b50f36d87ef23c61b04bba420a
     Pseudo is Ultrasoft + core correction, Zval = 11.0
     Generated by new atomic code, or converted to UPF format
     Using radial grid of  985 points,  3 beta functions with: 
                l(1) =   1
                l(2) =   2
                l(3) =   2
     Q(r) pseudized with  8 coefficients,  rinner =    1.100   1.100   1.100
                                                       1.100   1.100

     PseudoPot. # 2 for H  read from file:
     /home/scc/andrejb/qe/pseudo/H.pbe-van_ak.UPF
     MD5 check sum: 403db7282739603aa925980fa9b8608d
     Pseudo is Ultrasoft, Zval =  1.0
     Generated by new atomic code, or converted to UPF format
     Using radial grid of  615 points,  1 beta functions with: 
                l(1) =   0
     Q(r) pseudized with  8 coefficients,  rinner =    0.800

     PseudoPot. # 3 for O  read from file:
     /home/scc/andrejb/qe/pseudo/O.pbe-van_ak.UPF
     MD5 check sum: 4b8c549914a63cae506c6ff22b5af4fe
     Pseudo is Ultrasoft, Zval =  6.0
     Generated by new atomic code, or converted to UPF format
     Using radial grid of  737 points,  4 beta functions with: 
                l(1) =   0
                l(2) =   0
                l(3) =   1
                l(4) =   1
     Q(r) pseudized with  8 coefficients,  rinner =    0.800   0.800   0.800


     vdW kernel table read from file vdW_kernel_table
     MD5 check sum: 48e77a2e26edf626eeb0eaa751ad5cac

     atomic species   valence    mass     pseudopotential
        Au            11.00   196.96657     Au( 1.00)
        H              1.00     1.01000     H ( 1.00)
        O              6.00    16.00000     O ( 1.00)

     No symmetry found



   Cartesian axes

     site n.     atom                  positions (alat units)
         1           O   tau(   1) = (   0.4790780   0.3968269   0.8290259  )
         2           H   tau(   2) = (   0.4291446   0.4383745   0.7807723  )
         3           H   tau(   3) = (   0.5274974   0.3565200   0.7782652  )
         4           Au  tau(   4) = (   0.3540481   0.6132292   0.0000000  )
         5           Au  tau(   5) = (   0.4790062   0.3967954   0.0000000  )
         6           Au  tau(   6) = (   0.6039644   0.1803616   0.0000000  )
         7           Au  tau(   7) = (   0.7289225  -0.0360723   0.0000000  )
         8           Au  tau(   8) = (   0.1041318   0.6132292   0.0000000  )
         9           Au  tau(   9) = (   0.2290899   0.3967954   0.0000000  )
        10           Au  tau(  10) = (   0.3540481   0.1803616   0.0000000  )
        11           Au  tau(  11) = (   0.4790062  -0.0360723   0.0000000  )
        12           Au  tau(  12) = (  -0.1457845   0.6132292   0.0000000  )
        13           Au  tau(  13) = (  -0.0208264   0.3967954   0.0000000  )
        14           Au  tau(  14) = (   0.1041318   0.1803616   0.0000000  )
        15           Au  tau(  15) = (   0.2290899  -0.0360723   0.0000000  )
        16           Au  tau(  16) = (  -0.3957008   0.6132292   0.0000000  )
        17           Au  tau(  17) = (  -0.2707426   0.3967954   0.0000000  )
        18           Au  tau(  18) = (  -0.1457845   0.1803616   0.0000000  )
        19           Au  tau(  19) = (  -0.0208264  -0.0360723   0.0000000  )
        20           Au  tau(  20) = (   0.4790062   0.6853738   0.2040557  )
        21           Au  tau(  21) = (   0.6039644   0.4689400   0.2040557  )
        22           Au  tau(  22) = (   0.7289225   0.2525062   0.2040557  )
        23           Au  tau(  23) = (   0.8538806   0.0360723   0.2040557  )
        24           Au  tau(  24) = (   0.2290899   0.6853738   0.2040557  )
        25           Au  tau(  25) = (   0.3540481   0.4689400   0.2040557  )
        26           Au  tau(  26) = (   0.4790062   0.2525062   0.2040557  )
        27           Au  tau(  27) = (   0.6039644   0.0360723   0.2040557  )
        28           Au  tau(  28) = (  -0.0208264   0.6853738   0.2040557  )
        29           Au  tau(  29) = (   0.1041318   0.4689400   0.2040557  )
        30           Au  tau(  30) = (   0.2290899   0.2525062   0.2040557  )
        31           Au  tau(  31) = (   0.3540481   0.0360723   0.2040557  )
        32           Au  tau(  32) = (  -0.2707426   0.6853738   0.2040557  )
        33           Au  tau(  33) = (  -0.1457845   0.4689400   0.2040557  )
        34           Au  tau(  34) = (  -0.0208264   0.2525062   0.2040557  )
        35           Au  tau(  35) = (   0.1041318   0.0360723   0.2040557  )
        36           Au  tau(  36) = (   0.3541162   0.7576593   0.4066483  )
        37           Au  tau(  37) = (   0.4791000   0.5411421   0.4066696  )
        38           Au  tau(  38) = (   0.6040570   0.3246862   0.4066618  )
        39           Au  tau(  39) = (   0.7290270   0.1081684   0.4066530  )
        40           Au  tau(  40) = (   0.1041162   0.7576236   0.4066247  )
        41           Au  tau(  41) = (   0.2291001   0.5411062   0.4066455  )
        42           Au  tau(  42) = (   0.3540567   0.3246505   0.4066380  )
        43           Au  tau(  43) = (   0.4790276   0.1081324   0.4066292  )
        44           Au  tau(  44) = (  -0.1458201   0.7576104   0.4066225  )
        45           Au  tau(  45) = (  -0.0208365   0.5410930   0.4066438  )
        46           Au  tau(  46) = (   0.1041202   0.3246372   0.4066359  )
        47           Au  tau(  47) = (   0.2290908   0.1081193   0.4066273  )
        48           Au  tau(  48) = (  -0.3958167   0.7575791   0.4065812  )
        49           Au  tau(  49) = (  -0.2708328   0.5410617   0.4066025  )
        50           Au  tau(  50) = (  -0.1458763   0.3246061   0.4065947  )
        51           Au  tau(  51) = (  -0.0209056   0.1080882   0.4065858  )
        52           Au  tau(  52) = (   0.3541084   0.6133344   0.6129762  )
        53           Au  tau(  53) = (   0.4790780   0.3968269   0.6129968  )
        54           Au  tau(  54) = (   0.6040356   0.1803811   0.6129859  )
        55           Au  tau(  55) = (   0.7290165  -0.0361221   0.6129385  )
        56           Au  tau(  56) = (   0.1041243   0.6133091   0.6130023  )
        57           Au  tau(  57) = (   0.2290941   0.3968013   0.6130241  )
        58           Au  tau(  58) = (   0.3540515   0.1803552   0.6130121  )
        59           Au  tau(  59) = (   0.4790323  -0.0361475   0.6129659  )
        60           Au  tau(  60) = (  -0.1458030   0.6133014   0.6129980  )
        61           Au  tau(  61) = (  -0.0208339   0.3967936   0.6130189  )
        62           Au  tau(  62) = (   0.1041239   0.1803477   0.6130083  )
        63           Au  tau(  63) = (   0.2291046  -0.0361554   0.6129607  )
        64           Au  tau(  64) = (  -0.3957908   0.6132739   0.6129471  )
        65           Au  tau(  65) = (  -0.2708208   0.3967658   0.6129688  )
        66           Au  tau(  66) = (  -0.1458636   0.1803200   0.6129569  )
        67           Au  tau(  67) = (  -0.0208823  -0.0361826   0.6129110  )

     number of k points=    12  Marzari-Vanderbilt smearing, width (Ry)=  0.0200
                       cart. coord. in units 2pi/alat
        k(    1) = (   0.2500000   0.4330127   0.1111111), wk =   0.1666667
        k(    2) = (   0.2500000  -0.1443376   0.1111111), wk =   0.1666667
        k(    3) = (  -0.2500000  -0.4330127   0.1111111), wk =   0.1666667
        k(    4) = (  -0.2500000   0.4330127  -0.1111111), wk =   0.1666667
        k(    5) = (   0.2500000  -0.4330127  -0.1111111), wk =   0.1666667
        k(    6) = (   0.5000000   0.0000000   0.1111111), wk =   0.1666667
        k(    7) = (  -0.5000000   0.0000000   0.1111111), wk =   0.1666667
        k(    8) = (  -0.2500000   0.1443376   0.1111111), wk =   0.1666667
        k(    9) = (  -0.2500000  -0.1443376  -0.1111111), wk =   0.1666667
        k(   10) = (   0.2500000   0.1443376  -0.1111111), wk =   0.1666667
        k(   11) = (   0.0000000  -0.2886751   0.1111111), wk =   0.1666667
        k(   12) = (   0.0000000   0.2886751   0.1111111), wk =   0.1666667

     Dense  grid:  3097177 G-vectors     FFT dimensions: ( 150, 150, 360)

     Smooth grid:  1095093 G-vectors     FFT dimensions: ( 108, 108, 240)

     Largest allocated arrays     est. size (Mb)     dimensions
        Kohn-Sham Wavefunctions        28.01 Mb     (    4299,  427)
        NL pseudopotentials            55.23 Mb     (    4299,  842)
        Each V/rho on FFT grid          4.12 Mb     (  270000)
        Each G-vector array             0.74 Mb     (   96788)
        G-vector shells                 0.16 Mb     (   21404)
     Largest temporary arrays     est. size (Mb)     dimensions
        Auxiliary wavefunctions       112.04 Mb     (    4299, 1708)
        Each subspace H/S matrix       44.51 Mb     (    1708, 1708)
        Each <psi_i|beta_j> matrix      5.49 Mb     (     842,  427)
        Arrays for rho mixing          32.96 Mb     (  270000,    8)

     Initial potential from superposition of free atoms
     Check: negative starting charge=   -1.730368

     starting charge  711.25682, renormalised to  712.00000

     negative rho (up, down):  1.732E+00 0.000E+00


     ************************************************************************
     *
     * You are using vdW-DF for exchange-correlation in this calculation.
     * Please cite the following three references that made this development
     * possible:
     *
     *   M. Dion, H. Rydberg, E. Schroder, D. C. Langreth, and
     *   B. I. Lundqvist, Phys. Rev. Lett. 92, 246401 (2004).
     *
     *   T. Thonhauser, V. R. Cooper, S. Li, A. Puzder, P. Hyldgaard, and
     *   D. C. Langreth, Phys. Rev. B 76, 125112 (2007).
     *
     *   G. Roman-Perez and J. M. Soler, Phys. Rev. Lett. 103, 096102 (2009).
     *
     *
     * If you are using vdW-DF2, please also cite:
     *
     *   K. Lee, E. D. Murray, L. Kong, B. I. Lundqvist, and
     *   D. C. Langreth, Phys. Rev. B 82, 081101(R) (2010).
     *
     *
     * If you are calculating the stress with vdW-DF, please also cite:
     *
     *   R. Sabatini, E. Kucukbenli, B. Kolb, T. Thonhauser, and
     *   S. de Gironcoli, J. Phys.: Condens. Matter 24, 424209 (2012).
     *
     ************************************************************************

     Carrying out vdW-DF run using the following parameters:

     Nqs =      20    Nr_points =    1024   r_max =   100.000
     q_mesh =
               0.00001000     0.04494208     0.09755937     0.15916263
               0.23128650     0.31572767     0.41458969     0.53033537
               0.66584808     0.82450364     1.01025438     1.22772762
               1.48234092     1.78043706     2.12944203     2.53805004
               3.01644009     3.57652955     4.23227104     5.00000000

     Gradients computed in reciprocal space

     ************************************************************************


     Starting wfc are  582 randomized atomic wfcs

     total cpu time spent up to now is      159.4 secs

     Self-consistent Calculation

     iteration #  1     ecut=    50.00 Ry     beta=0.70
     Davidson diagonalization with overlap
     ethr =  1.00E-02,  avg # of iterations =  3.0

     Threshold (ethr) on eigenvalues was too large:
     Diagonalizing with lowered threshold

     Davidson diagonalization with overlap
     ethr =  3.31E-04,  avg # of iterations =  3.3

     negative rho (up, down):  1.727E+00 0.000E+00

     total cpu time spent up to now is      753.5 secs

     total energy              =   -6602.80901876 Ry
     Harris-Foulkes estimate   =   -6604.96538269 Ry
     estimated scf accuracy    <       2.70795709 Ry

     iteration #  2     ecut=    50.00 Ry     beta=0.70
     Davidson diagonalization with overlap
     ethr =  3.80E-04,  avg # of iterations = 11.6

     negative rho (up, down):  1.726E+00 0.000E+00

     total cpu time spent up to now is     1714.0 secs

     total energy              =   -6597.27810103 Ry
     Harris-Foulkes estimate   =   -6609.79718577 Ry
     estimated scf accuracy    <      68.40788372 Ry

     iteration #  3     ecut=    50.00 Ry     beta=0.70
     Davidson diagonalization with overlap
     ethr =  3.80E-04,  avg # of iterations =  6.0

     negative rho (up, down):  1.736E+00 0.000E+00

     total cpu time spent up to now is     2310.1 secs

     total energy              =   -6603.03644824 Ry
     Harris-Foulkes estimate   =   -6604.97378752 Ry
     estimated scf accuracy    <       9.07748435 Ry

     iteration #  4     ecut=    50.00 Ry     beta=0.70
     Davidson diagonalization with overlap
     ethr =  3.80E-04,  avg # of iterations =  5.6

     negative rho (up, down):  1.738E+00 0.000E+00

     total cpu time spent up to now is     2665.0 secs

     total energy              =   -6603.51605205 Ry
     Harris-Foulkes estimate   =   -6605.10763603 Ry
     estimated scf accuracy    <      14.26183086 Ry

     iteration #  5     ecut=    50.00 Ry     beta=0.70
     Davidson diagonalization with overlap
     ethr =  3.80E-04,  avg # of iterations =  6.9

     negative rho (up, down):  1.747E+00 0.000E+00

     total cpu time spent up to now is     3038.6 secs

     total energy              =   -6604.24013628 Ry
     Harris-Foulkes estimate   =   -6604.62743885 Ry
     estimated scf accuracy    <       2.77211286 Ry

     iteration #  6     ecut=    50.00 Ry     beta=0.70
     Davidson diagonalization with overlap
     ethr =  3.80E-04,  avg # of iterations =  2.5

     negative rho (up, down):  1.752E+00 0.000E+00

     total cpu time spent up to now is     3316.0 secs

     total energy              =   -6604.37781118 Ry
     Harris-Foulkes estimate   =   -6604.43052048 Ry
     estimated scf accuracy    <       0.17570651 Ry

     iteration #  7     ecut=    50.00 Ry     beta=0.70
     Davidson diagonalization with overlap
     ethr =  2.47E-05,  avg # of iterations =  9.9

     negative rho (up, down):  1.754E+00 0.000E+00

     total cpu time spent up to now is     3751.3 secs

     total energy              =   -6604.38778372 Ry
     Harris-Foulkes estimate   =   -6604.41761928 Ry
     estimated scf accuracy    <       0.13950294 Ry

     iteration #  8     ecut=    50.00 Ry     beta=0.70
     Davidson diagonalization with overlap
     ethr =  1.96E-05,  avg # of iterations =  3.6

     negative rho (up, down):  1.755E+00 0.000E+00

     total cpu time spent up to now is     4050.6 secs

     total energy              =   -6604.39138828 Ry
     Harris-Foulkes estimate   =   -6604.40506205 Ry
     estimated scf accuracy    <       0.05591311 Ry

     iteration #  9     ecut=    50.00 Ry     beta=0.70
     Davidson diagonalization with overlap
     ethr =  7.85E-06,  avg # of iterations =  5.6

     negative rho (up, down):  1.756E+00 0.000E+00

     total cpu time spent up to now is     4392.4 secs

     total energy              =   -6604.39153535 Ry
     Harris-Foulkes estimate   =   -6604.39775932 Ry
     estimated scf accuracy    <       0.02363488 Ry

     iteration # 10     ecut=    50.00 Ry     beta=0.70
     Davidson diagonalization with overlap
     ethr =  3.32E-06,  avg # of iterations =  6.2

     negative rho (up, down):  1.756E+00 0.000E+00

     total cpu time spent up to now is     4728.6 secs

     total energy              =   -6604.39159807 Ry
     Harris-Foulkes estimate   =   -6604.39399944 Ry
     estimated scf accuracy    <       0.00913983 Ry

     iteration # 11     ecut=    50.00 Ry     beta=0.70
     Davidson diagonalization with overlap
     c_bands:  1 eigenvalues not converged
     ethr =  1.28E-06,  avg # of iterations =  6.3

     negative rho (up, down):  1.757E+00 0.000E+00

     total cpu time spent up to now is     5072.2 secs

     total energy              =   -6604.39149638 Ry
     Harris-Foulkes estimate   =   -6604.39274339 Ry
     estimated scf accuracy    <       0.00479257 Ry

     iteration # 12     ecut=    50.00 Ry     beta=0.70
     Davidson diagonalization with overlap
     ethr =  6.73E-07,  avg # of iterations =  2.5

     negative rho (up, down):  1.757E+00 0.000E+00

     total cpu time spent up to now is     5334.6 secs

     total energy              =   -6604.39157976 Ry
     Harris-Foulkes estimate   =   -6604.39198149 Ry
     estimated scf accuracy    <       0.00083051 Ry

     iteration # 13     ecut=    50.00 Ry     beta=0.70
     Davidson diagonalization with overlap
     ethr =  1.17E-07,  avg # of iterations =  8.0

     negative rho (up, down):  1.757E+00 0.000E+00

     total cpu time spent up to now is     5741.5 secs

     total energy              =   -6604.39173078 Ry
     Harris-Foulkes estimate   =   -6604.39181156 Ry
     estimated scf accuracy    <       0.00022434 Ry

     iteration # 14     ecut=    50.00 Ry     beta=0.70
     Davidson diagonalization with overlap
     ethr =  3.15E-08,  avg # of iterations =  2.0

     negative rho (up, down):  1.757E+00 0.000E+00

     total cpu time spent up to now is     6033.5 secs

     total energy              =   -6604.39175780 Ry
     Harris-Foulkes estimate   =   -6604.39179383 Ry
     estimated scf accuracy    <       0.00014216 Ry

     iteration # 15     ecut=    50.00 Ry     beta=0.70
     Davidson diagonalization with overlap
     ethr =  2.00E-08,  avg # of iterations =  2.0

     negative rho (up, down):  1.757E+00 0.000E+00

     total cpu time spent up to now is     6291.9 secs

     total energy              =   -6604.39176409 Ry
     Harris-Foulkes estimate   =   -6604.39179188 Ry
     estimated scf accuracy    <       0.00020622 Ry

     iteration # 16     ecut=    50.00 Ry     beta=0.70
     Davidson diagonalization with overlap
     ethr =  2.00E-08,  avg # of iterations =  2.0

     negative rho (up, down):  1.757E+00 0.000E+00

     total cpu time spent up to now is     6555.7 secs

     total energy              =   -6604.39177437 Ry
     Harris-Foulkes estimate   =   -6604.39178244 Ry
     estimated scf accuracy    <       0.00004929 Ry

     iteration # 17     ecut=    50.00 Ry     beta=0.70
     Davidson diagonalization with overlap
     ethr =  6.92E-09,  avg # of iterations =  1.8

     negative rho (up, down):  1.757E+00 0.000E+00

     total cpu time spent up to now is     6820.7 secs

     total energy              =   -6604.39177789 Ry
     Harris-Foulkes estimate   =   -6604.39178119 Ry
     estimated scf accuracy    <       0.00001676 Ry

     iteration # 18     ecut=    50.00 Ry     beta=0.70
     Davidson diagonalization with overlap
     ethr =  2.35E-09,  avg # of iterations =  2.0

     negative rho (up, down):  1.757E+00 0.000E+00

     total cpu time spent up to now is     7094.8 secs

     total energy              =   -6604.39177850 Ry
     Harris-Foulkes estimate   =   -6604.39178104 Ry
     estimated scf accuracy    <       0.00001121 Ry

     iteration # 19     ecut=    50.00 Ry     beta=0.70
     Davidson diagonalization with overlap
     ethr =  1.57E-09,  avg # of iterations =  2.0

     negative rho (up, down):  1.757E+00 0.000E+00

     total cpu time spent up to now is     7351.9 secs

     total energy              =   -6604.39177976 Ry
     Harris-Foulkes estimate   =   -6604.39177989 Ry
     estimated scf accuracy    <       0.00000040 Ry

     iteration # 20     ecut=    50.00 Ry     beta=0.70
     Davidson diagonalization with overlap
     ethr =  5.69E-11,  avg # of iterations =  3.0

     negative rho (up, down):  1.757E+00 0.000E+00

     total cpu time spent up to now is     7710.4 secs

     total energy              =   -6604.39177985 Ry
     Harris-Foulkes estimate   =   -6604.39177989 Ry
     estimated scf accuracy    <       0.00000015 Ry

     iteration # 21     ecut=    50.00 Ry     beta=0.70
     Davidson diagonalization with overlap
     ethr =  2.08E-11,  avg # of iterations =  2.0

     negative rho (up, down):  1.757E+00 0.000E+00

     total cpu time spent up to now is     7994.9 secs

     total energy              =   -6604.39177989 Ry
     Harris-Foulkes estimate   =   -6604.39177989 Ry
     estimated scf accuracy    <       0.00000008 Ry

     iteration # 22     ecut=    50.00 Ry     beta=0.70
     Davidson diagonalization with overlap
     ethr =  1.13E-11,  avg # of iterations =  2.0

     negative rho (up, down):  1.757E+00 0.000E+00

     total cpu time spent up to now is     8262.6 secs

     total energy              =   -6604.39177989 Ry
     Harris-Foulkes estimate   =   -6604.39177990 Ry
     estimated scf accuracy    <       0.00000002 Ry

     iteration # 23     ecut=    50.00 Ry     beta=0.70
     Davidson diagonalization with overlap
     ethr =  2.70E-12,  avg # of iterations =  3.0

     negative rho (up, down):  1.757E+00 0.000E+00

     total cpu time spent up to now is     8589.6 secs

     total energy              =   -6604.39177990 Ry
     Harris-Foulkes estimate   =   -6604.39177990 Ry
     estimated scf accuracy    <       0.00000001 Ry

     iteration # 24     ecut=    50.00 Ry     beta=0.70
     Davidson diagonalization with overlap
     ethr =  1.48E-12,  avg # of iterations =  3.0

     negative rho (up, down):  1.757E+00 0.000E+00

     total cpu time spent up to now is     8893.8 secs

     End of self-consistent calculation

          k = 0.2500 0.4330 0.1111 (136853 PWs)   bands (ev):

   -19.1575  -7.0194  -6.4347  -6.0386  -6.0318  -5.3685  -5.0309  -5.0223
    -5.0033  -4.9823  -4.6277  -4.6214  -4.5320  -4.5231  -4.5110  -4.4885
    -4.4842  -4.3640  -4.3539  -4.3328  -4.2907  -4.2874  -4.2638  -4.2197
    -4.2165  -4.2137  -4.1908  -4.1905  -4.1833  -4.1436  -4.1140  -4.0898
    -4.0837  -4.0771  -4.0705  -4.0538  -4.0469  -4.0290  -4.0184  -4.0165
    -4.0014  -3.9461  -3.9381  -3.9090  -3.8870  -3.8734  -3.8381  -3.8157
    -3.7795  -3.7758  -3.7738  -3.7438  -3.7286  -3.7109  -3.7033  -3.6946
    -3.6916  -3.6905  -3.6655  -3.6561  -3.6439  -3.5989  -3.5950  -3.5881
    -3.5621  -3.5505  -3.4866  -3.4787  -3.4617  -3.4505  -3.4286  -3.4248
    -3.4093  -3.3852  -3.3409  -3.3313  -3.3180  -3.3093  -3.2723  -3.2709
    -3.2559  -3.2202  -3.1970  -3.1918  -3.1832  -3.1800  -3.1769  -3.1655
    -3.1633  -3.1594  -3.1517  -3.1084  -3.0717  -3.0678  -3.0629  -3.0592
    -3.0299  -3.0251  -3.0225  -2.9914  -2.9528  -2.9511  -2.9445  -2.9111
    -2.8965  -2.8880  -2.8832  -2.8652  -2.8577  -2.8275  -2.8022  -2.7950
    -2.7764  -2.7624  -2.7559  -2.7486  -2.7030  -2.6987  -2.6671  -2.6476
    -2.6425  -2.6258  -2.6164  -2.6098  -2.6034  -2.5976  -2.5812  -2.5797
    -2.5350  -2.5294  -2.5273  -2.5160  -2.5136  -2.5123  -2.5038  -2.5002
    -2.4951  -2.4937  -2.4885  -2.4851  -2.4763  -2.4702  -2.4523  -2.4452
    -2.4370  -2.4328  -2.4320  -2.4300  -2.4256  -2.4085  -2.4058  -2.3912
    -2.3884  -2.3676  -2.3669  -2.3635  -2.3572  -2.3563  -2.3558  -2.3469
    -2.3352  -2.3343  -2.3276  -2.3169  -2.2931  -2.2866  -2.2486  -2.2477
    -2.2323  -2.2277  -2.2054  -2.1944  -2.1744  -2.1705  -2.1611  -2.1487
    -2.1276  -2.1148  -2.1079  -2.0953  -2.0920  -2.0867  -2.0827  -2.0789
    -2.0541  -2.0512  -2.0392  -2.0027  -1.9852  -1.9785  -1.9748  -1.9667
    -1.9532  -1.9208  -1.9180  -1.8952  -1.8872  -1.8386  -1.8340  -1.8025
    -1.7862  -1.7758  -1.7446  -1.7240  -1.7199  -1.7117  -1.7048  -1.7002
    -1.6946  -1.6920  -1.6847  -1.6499  -1.6386  -1.6209  -1.6162  -1.6150
    -1.6045  -1.5989  -1.5846  -1.5643  -1.5520  -1.5498  -1.5457  -1.5385
    -1.5356  -1.5284  -1.5224  -1.5031  -1.5017  -1.4740  -1.4622  -1.4556
    -1.4526  -1.4378  -1.4140  -1.3932  -1.3753  -1.3600  -1.3456  -1.3443
    -1.3192  -1.2816  -1.2675  -1.2592  -1.2569  -1.2554  -1.2496  -1.2413
    -1.2347  -1.2251  -1.2004  -1.1826  -1.1674  -1.1596  -1.1514  -1.1467
    -1.1430  -1.1341  -1.1258  -1.1225  -1.1212  -1.1158  -1.0913  -1.0803
    -1.0789  -1.0764  -1.0556  -1.0479  -1.0440  -1.0203  -1.0174  -1.0041
    -0.9788  -0.9680  -0.9586  -0.9297  -0.9238  -0.9155  -0.9056  -0.9002
    -0.8984  -0.8969  -0.8933  -0.8826  -0.8774  -0.8601  -0.8584  -0.8541
    -0.8501  -0.8477  -0.8404  -0.8137  -0.8130  -0.8064  -0.7922  -0.7792
    -0.7745  -0.7664  -0.7477  -0.7097  -0.7074  -0.7026  -0.6999  -0.6975
    -0.6921  -0.6900  -0.6736  -0.6696  -0.6654  -0.6637  -0.6584  -0.6516
    -0.6273  -0.6213  -0.6200  -0.6123  -0.6094  -0.6060  -0.5999  -0.5918
    -0.5868  -0.5830  -0.5654  -0.5457  -0.5443  -0.5371  -0.5309  -0.5261
    -0.4588  -0.4509  -0.4502  -0.4468  -0.4419  -0.4374  -0.4050  -0.3939
    -0.3930  -0.3618  -0.3600  -0.3240  -0.2383  -0.2314  -0.1337   0.2757
     0.2773   0.2854   0.2865   0.3411   0.3691   0.7221   0.7325   0.7717
     0.7779   0.9010   0.9738   1.0769   1.0931   1.2981   1.3255   1.9221
     1.9405   2.0854   2.1042   2.2199   2.2479   2.3284   2.3295   2.4827
     2.7192   2.7386   2.8493   3.0707   3.0768   3.1439   3.1521   3.2441
     3.2683   3.4724   3.4818   3.5199   3.7233   3.7279   3.7856   3.8026
     4.0423   4.0478   4.0646   4.2943   4.3278   4.3403   4.3815   4.7102
     4.7197   4.7398   4.8831   5.0560   5.0590   5.1232   5.1593   5.6142
     5.8306   5.8418   5.8509   5.8866   5.8929   5.9130   5.9154   6.0084
     6.0398   6.0517   6.0791   6.0914   6.1096   6.1169   6.1355   6.1519
     6.2488   6.5946   6.6123   6.7375   6.7598   6.7798   6.7884   6.7955
     6.8183   6.9021   6.9912

          k = 0.2500-0.1443 0.1111 (136898 PWs)   bands (ev):

   -19.1575  -7.0194  -6.6443  -5.8525  -5.5717  -5.5040  -5.5000  -4.9676
    -4.9618  -4.8453  -4.8302  -4.6886  -4.6569  -4.5865  -4.5738  -4.5503
    -4.5174  -4.5152  -4.3864  -4.3453  -4.3443  -4.3038  -4.2774  -4.2652
    -4.1676  -4.1616  -4.1394  -4.1249  -4.1245  -4.1035  -4.0839  -4.0768
    -4.0153  -3.9742  -3.9705  -3.9572  -3.9474  -3.9322  -3.9274  -3.9205
    -3.9118  -3.8977  -3.8786  -3.8779  -3.8750  -3.8574  -3.8480  -3.8410
    -3.8253  -3.8221  -3.8129  -3.7819  -3.7617  -3.7351  -3.7244  -3.7200
    -3.7163  -3.6993  -3.6430  -3.6393  -3.6128  -3.6069  -3.5861  -3.5371
    -3.5364  -3.5208  -3.5083  -3.4967  -3.4963  -3.4920  -3.4686  -3.3348
    -3.3314  -3.3229  -3.3156  -3.3039  -3.2901  -3.2854  -3.2683  -3.2613
    -3.2147  -3.2115  -3.1985  -3.1979  -3.1745  -3.1398  -3.1324  -3.1115
    -3.1048  -3.1013  -3.0663  -3.0638  -3.0551  -3.0520  -3.0397  -3.0333
    -3.0026  -3.0021  -2.9867  -2.9796  -2.9753  -2.9715  -2.9636  -2.9014
    -2.8990  -2.8895  -2.8631  -2.8565  -2.8154  -2.8038  -2.7757  -2.7715
    -2.7632  -2.7622  -2.7505  -2.7285  -2.7265  -2.7133  -2.6994  -2.6847
    -2.6777  -2.6701  -2.6548  -2.6525  -2.6464  -2.6431  -2.6369  -2.6345
    -2.6243  -2.5797  -2.5544  -2.5534  -2.5321  -2.5211  -2.5199  -2.5127
    -2.5051  -2.5042  -2.5032  -2.4808  -2.4764  -2.4693  -2.4641  -2.4608
    -2.4517  -2.4243  -2.4224  -2.4191  -2.4183  -2.4143  -2.3717  -2.3456
    -2.3430  -2.3406  -2.3341  -2.3308  -2.3215  -2.3162  -2.2947  -2.2941
    -2.2699  -2.2635  -2.2616  -2.2552  -2.2477  -2.2434  -2.2163  -2.2113
    -2.1791  -2.1678  -2.1640  -2.1608  -2.1593  -2.1551  -2.1531  -2.1491
    -2.1485  -2.1427  -2.1403  -2.1257  -2.1234  -2.0226  -2.0048  -1.9779
    -1.9693  -1.9609  -1.9505  -1.9492  -1.9431  -1.9359  -1.9316  -1.9286
    -1.9231  -1.9135  -1.9047  -1.9039  -1.8901  -1.8856  -1.8747  -1.8683
    -1.8569  -1.8402  -1.8352  -1.8105  -1.8094  -1.7958  -1.7862  -1.7667
    -1.7628  -1.7622  -1.7483  -1.7377  -1.7319  -1.7246  -1.7230  -1.7030
    -1.7025  -1.6881  -1.6859  -1.6552  -1.6435  -1.6397  -1.5971  -1.5949
    -1.5759  -1.5749  -1.5637  -1.5466  -1.5428  -1.5245  -1.5142  -1.5081
    -1.4809  -1.4788  -1.4706  -1.4522  -1.4501  -1.4341  -1.4315  -1.4168
    -1.4039  -1.3937  -1.3891  -1.3418  -1.3303  -1.3233  -1.3179  -1.3081
    -1.3042  -1.2868  -1.2861  -1.2692  -1.2554  -1.2303  -1.2290  -1.2145
    -1.1934  -1.1860  -1.1746  -1.1685  -1.1675  -1.1629  -1.1619  -1.1561
    -1.1414  -1.1319  -1.1215  -1.1137  -1.1000  -1.0980  -1.0876  -1.0822
    -1.0648  -1.0500  -1.0355  -1.0218  -0.9645  -0.9507  -0.9313  -0.9286
    -0.9248  -0.9200  -0.9091  -0.8994  -0.8885  -0.8855  -0.8749  -0.8645
    -0.8603  -0.8592  -0.8456  -0.8322  -0.8258  -0.8223  -0.7933  -0.7481
    -0.7449  -0.7107  -0.7081  -0.7059  -0.7002  -0.6997  -0.6949  -0.6939
    -0.6805  -0.6688  -0.6592  -0.6419  -0.6272  -0.6142  -0.6078  -0.6005
    -0.5959  -0.5893  -0.5852  -0.5833  -0.5795  -0.5749  -0.5667  -0.5622
    -0.5570  -0.5324  -0.5289  -0.5242  -0.5156  -0.5136  -0.4960  -0.4651
    -0.4630  -0.4552  -0.4531  -0.3871  -0.3858  -0.3561  -0.3541  -0.2981
    -0.2972  -0.2924  -0.2729  -0.2635  -0.0304  -0.0127   0.3073   0.3085
     0.4053   0.4198   0.5960   0.6229   0.6386   0.7538   0.7549   1.1878
     1.1904   1.2013   1.4768   1.4978   1.5004   1.7808   1.7910   1.8497
     1.8545   1.8832   1.8889   2.1053   2.1116   2.1980   2.2011   2.2853
     2.3427   2.3520   2.5009   2.6099   3.0340   3.0412   3.0437   3.0446
     3.0963   3.1008   3.3913   3.3933   3.6774   3.6818   3.7942   4.0879
     4.1296   4.1316   4.3562   4.3751   4.4283   4.4291   4.5269   4.6412
     4.6450   4.7577   4.7599   5.0568   5.1237   5.1355   5.3133   5.3245
     5.4831   5.5104   5.5205   5.5478   5.5489   5.6048   5.6086   5.6813
     6.0323   6.0687   6.2068   6.2879   6.3295   6.3436   6.3546   6.3678
     6.3716   6.5775   6.6057   6.6276   6.7793   6.8455   6.8480   6.8936
     6.9129   7.1307   7.1444

          k =-0.2500-0.4330 0.1111 (136853 PWs)   bands (ev):

   -19.1575  -7.0194  -6.4347  -6.0386  -6.0318  -5.3685  -5.0309  -5.0223
    -5.0033  -4.9823  -4.6277  -4.6214  -4.5320  -4.5231  -4.5110  -4.4885
    -4.4842  -4.3640  -4.3539  -4.3328  -4.2907  -4.2874  -4.2638  -4.2197
    -4.2165  -4.2137  -4.1908  -4.1905  -4.1833  -4.1436  -4.1140  -4.0898
    -4.0837  -4.0771  -4.0705  -4.0538  -4.0469  -4.0290  -4.0184  -4.0165
    -4.0014  -3.9461  -3.9381  -3.9090  -3.8870  -3.8734  -3.8381  -3.8157
    -3.7795  -3.7758  -3.7738  -3.7438  -3.7286  -3.7109  -3.7033  -3.6946
    -3.6916  -3.6905  -3.6655  -3.6561  -3.6439  -3.5989  -3.5950  -3.5881
    -3.5621  -3.5505  -3.4866  -3.4787  -3.4617  -3.4505  -3.4286  -3.4248
    -3.4093  -3.3852  -3.3409  -3.3313  -3.3180  -3.3093  -3.2723  -3.2709
    -3.2559  -3.2202  -3.1970  -3.1918  -3.1832  -3.1800  -3.1769  -3.1655
    -3.1633  -3.1594  -3.1517  -3.1084  -3.0717  -3.0678  -3.0629  -3.0592
    -3.0299  -3.0251  -3.0225  -2.9914  -2.9528  -2.9511  -2.9445  -2.9111
    -2.8965  -2.8880  -2.8832  -2.8652  -2.8577  -2.8275  -2.8022  -2.7950
    -2.7764  -2.7624  -2.7559  -2.7486  -2.7030  -2.6987  -2.6671  -2.6476
    -2.6425  -2.6258  -2.6164  -2.6098  -2.6034  -2.5976  -2.5812  -2.5797
    -2.5350  -2.5294  -2.5273  -2.5160  -2.5136  -2.5123  -2.5038  -2.5002
    -2.4951  -2.4937  -2.4885  -2.4851  -2.4763  -2.4702  -2.4523  -2.4452
    -2.4370  -2.4328  -2.4320  -2.4300  -2.4256  -2.4085  -2.4058  -2.3912
    -2.3884  -2.3676  -2.3669  -2.3635  -2.3572  -2.3563  -2.3558  -2.3469
    -2.3352  -2.3343  -2.3276  -2.3169  -2.2931  -2.2866  -2.2486  -2.2477
    -2.2323  -2.2277  -2.2054  -2.1944  -2.1744  -2.1705  -2.1611  -2.1487
    -2.1276  -2.1148  -2.1079  -2.0953  -2.0920  -2.0867  -2.0827  -2.0789
    -2.0541  -2.0512  -2.0392  -2.0027  -1.9852  -1.9785  -1.9748  -1.9667
    -1.9532  -1.9208  -1.9180  -1.8952  -1.8872  -1.8386  -1.8340  -1.8025
    -1.7862  -1.7758  -1.7446  -1.7240  -1.7199  -1.7117  -1.7048  -1.7002
    -1.6946  -1.6920  -1.6847  -1.6499  -1.6386  -1.6209  -1.6162  -1.6150
    -1.6045  -1.5989  -1.5846  -1.5643  -1.5520  -1.5498  -1.5457  -1.5385
    -1.5356  -1.5284  -1.5224  -1.5031  -1.5017  -1.4740  -1.4622  -1.4556
    -1.4526  -1.4378  -1.4140  -1.3932  -1.3753  -1.3600  -1.3456  -1.3443
    -1.3192  -1.2816  -1.2675  -1.2592  -1.2569  -1.2554  -1.2496  -1.2413
    -1.2347  -1.2251  -1.2004  -1.1826  -1.1674  -1.1596  -1.1514  -1.1467
    -1.1430  -1.1341  -1.1258  -1.1225  -1.1212  -1.1158  -1.0913  -1.0803
    -1.0789  -1.0764  -1.0556  -1.0479  -1.0440  -1.0203  -1.0174  -1.0041
    -0.9788  -0.9680  -0.9586  -0.9297  -0.9238  -0.9155  -0.9056  -0.9002
    -0.8984  -0.8969  -0.8933  -0.8826  -0.8774  -0.8601  -0.8584  -0.8541
    -0.8501  -0.8477  -0.8404  -0.8137  -0.8130  -0.8064  -0.7922  -0.7792
    -0.7745  -0.7664  -0.7477  -0.7097  -0.7074  -0.7026  -0.6999  -0.6975
    -0.6921  -0.6900  -0.6736  -0.6696  -0.6654  -0.6637  -0.6584  -0.6516
    -0.6273  -0.6213  -0.6200  -0.6123  -0.6094  -0.6060  -0.5999  -0.5918
    -0.5868  -0.5830  -0.5654  -0.5457  -0.5443  -0.5371  -0.5309  -0.5261
    -0.4588  -0.4509  -0.4502  -0.4468  -0.4419  -0.4374  -0.4050  -0.3939
    -0.3930  -0.3618  -0.3600  -0.3240  -0.2383  -0.2314  -0.1337   0.2757
     0.2773   0.2854   0.2865   0.3411   0.3691   0.7221   0.7325   0.7717
     0.7779   0.9010   0.9738   1.0769   1.0931   1.2981   1.3255   1.9221
     1.9405   2.0854   2.1042   2.2199   2.2479   2.3284   2.3295   2.4827
     2.7192   2.7386   2.8493   3.0707   3.0768   3.1439   3.1521   3.2441
     3.2683   3.4724   3.4818   3.5199   3.7233   3.7279   3.7856   3.8026
     4.0423   4.0478   4.0646   4.2943   4.3278   4.3403   4.3815   4.7102
     4.7197   4.7398   4.8831   5.0560   5.0590   5.1232   5.1593   5.6142
     5.8306   5.8418   5.8509   5.8867   5.8928   5.9130   5.9154   6.0084
     6.0398   6.0516   6.0791   6.0913   6.1096   6.1170   6.1355   6.1519
     6.2488   6.5947   6.6122   6.7376   6.7597   6.7797   6.7891   6.7950
     6.8183   6.9021   6.9910

          k =-0.2500 0.4330-0.1111 (136853 PWs)   bands (ev):

   -19.1575  -7.0195  -6.4344  -6.0392  -6.0312  -5.3678  -5.0333  -5.0211
    -5.0039  -4.9817  -4.6270  -4.6204  -4.5304  -4.5229  -4.5098  -4.4889
    -4.4841  -4.3693  -4.3539  -4.3342  -4.2899  -4.2873  -4.2659  -4.2189
    -4.2183  -4.2124  -4.1918  -4.1906  -4.1819  -4.1430  -4.1131  -4.0898
    -4.0832  -4.0760  -4.0701  -4.0539  -4.0465  -4.0279  -4.0183  -4.0162
    -4.0002  -3.9441  -3.9383  -3.9047  -3.8865  -3.8716  -3.8381  -3.8224
    -3.7797  -3.7755  -3.7734  -3.7521  -3.7351  -3.7112  -3.7070  -3.6946
    -3.6914  -3.6909  -3.6634  -3.6545  -3.6383  -3.5983  -3.5966  -3.5843
    -3.5618  -3.5504  -3.4860  -3.4775  -3.4652  -3.4476  -3.4284  -3.4238
    -3.4093  -3.3851  -3.3412  -3.3322  -3.3201  -3.3094  -3.2765  -3.2679
    -3.2561  -3.2199  -3.2023  -3.1910  -3.1838  -3.1789  -3.1763  -3.1641
    -3.1622  -3.1588  -3.1511  -3.1078  -3.0719  -3.0668  -3.0625  -3.0574
    -3.0295  -3.0287  -3.0208  -2.9909  -2.9545  -2.9519  -2.9452  -2.9103
    -2.8961  -2.8889  -2.8837  -2.8711  -2.8556  -2.8272  -2.7983  -2.7949
    -2.7760  -2.7620  -2.7535  -2.7484  -2.7062  -2.6978  -2.6672  -2.6466
    -2.6414  -2.6297  -2.6163  -2.6115  -2.6032  -2.5973  -2.5822  -2.5792
    -2.5320  -2.5275  -2.5263  -2.5172  -2.5129  -2.5085  -2.5028  -2.4994
    -2.4966  -2.4898  -2.4877  -2.4849  -2.4774  -2.4695  -2.4575  -2.4456
    -2.4358  -2.4332  -2.4329  -2.4295  -2.4254  -2.4113  -2.4062  -2.3933
    -2.3869  -2.3684  -2.3653  -2.3641  -2.3587  -2.3562  -2.3554  -2.3470
    -2.3340  -2.3334  -2.3293  -2.3168  -2.2934  -2.2859  -2.2488  -2.2473
    -2.2327  -2.2275  -2.2017  -2.1944  -2.1817  -2.1695  -2.1641  -2.1491
    -2.1248  -2.1179  -2.1060  -2.0933  -2.0918  -2.0865  -2.0834  -2.0799
    -2.0544  -2.0512  -2.0374  -1.9925  -1.9870  -1.9787  -1.9755  -1.9677
    -1.9509  -1.9212  -1.9174  -1.8955  -1.8872  -1.8388  -1.8330  -1.8049
    -1.7858  -1.7757  -1.7475  -1.7280  -1.7202  -1.7106  -1.7038  -1.7013
    -1.6949  -1.6922  -1.6840  -1.6594  -1.6339  -1.6184  -1.6167  -1.6160
    -1.6079  -1.5972  -1.5741  -1.5646  -1.5539  -1.5486  -1.5455  -1.5374
    -1.5338  -1.5296  -1.5212  -1.5056  -1.5001  -1.4826  -1.4624  -1.4553
    -1.4508  -1.4367  -1.4133  -1.3871  -1.3770  -1.3540  -1.3455  -1.3447
    -1.3204  -1.2865  -1.2646  -1.2603  -1.2549  -1.2544  -1.2492  -1.2451
    -1.2351  -1.2241  -1.1994  -1.1811  -1.1709  -1.1596  -1.1523  -1.1459
    -1.1426  -1.1381  -1.1243  -1.1222  -1.1183  -1.1164  -1.0901  -1.0829
    -1.0780  -1.0761  -1.0641  -1.0519  -1.0417  -1.0232  -1.0169  -1.0055
    -0.9829  -0.9645  -0.9543  -0.9279  -0.9206  -0.9118  -0.9054  -0.9032
    -0.9001  -0.8934  -0.8913  -0.8835  -0.8747  -0.8631  -0.8603  -0.8531
    -0.8498  -0.8487  -0.8466  -0.8137  -0.8128  -0.7990  -0.7860  -0.7802
    -0.7734  -0.7665  -0.7555  -0.7105  -0.7088  -0.7040  -0.6999  -0.6961
    -0.6912  -0.6836  -0.6721  -0.6709  -0.6654  -0.6632  -0.6564  -0.6517
    -0.6236  -0.6208  -0.6197  -0.6116  -0.6103  -0.6057  -0.6033  -0.5892
    -0.5875  -0.5844  -0.5662  -0.5457  -0.5438  -0.5368  -0.5305  -0.5278
    -0.4622  -0.4512  -0.4494  -0.4478  -0.4424  -0.4358  -0.4047  -0.3947
    -0.3925  -0.3607  -0.3567  -0.3289  -0.2447  -0.2331  -0.1387   0.2764
     0.2790   0.2846   0.2856   0.3502   0.3643   0.7290   0.7331   0.7709
     0.7754   0.8981   0.9715   1.0806   1.0842   1.3045   1.3223   1.9309
     1.9362   2.0919   2.0941   2.2293   2.2388   2.3280   2.3299   2.4832
     2.7215   2.7378   2.8511   3.0743   3.0760   3.1445   3.1504   3.2489
     3.2679   3.4755   3.4820   3.5207   3.7217   3.7289   3.7895   3.7930
     4.0424   4.0538   4.0597   4.2939   4.3286   4.3370   4.3819   4.7080
     4.7208   4.7435   4.8787   5.0536   5.0592   5.1240   5.1435   5.6175
     5.8221   5.8351   5.8525   5.8803   5.9033   5.9096   5.9218   6.0196
     6.0322   6.0531   6.0821   6.0858   6.1179   6.1267   6.1366   6.1493
     6.2491   6.5947   6.6115   6.7168   6.7625   6.7811   6.7916   6.7967
     6.8043   6.9091   6.9989

          k = 0.2500-0.4330-0.1111 (136853 PWs)   bands (ev):

   -19.1575  -7.0195  -6.4344  -6.0392  -6.0312  -5.3678  -5.0333  -5.0211
    -5.0039  -4.9817  -4.6270  -4.6204  -4.5304  -4.5229  -4.5098  -4.4889
    -4.4841  -4.3693  -4.3539  -4.3342  -4.2899  -4.2873  -4.2659  -4.2189
    -4.2183  -4.2124  -4.1918  -4.1906  -4.1819  -4.1430  -4.1131  -4.0898
    -4.0832  -4.0760  -4.0701  -4.0539  -4.0465  -4.0279  -4.0183  -4.0162
    -4.0002  -3.9441  -3.9383  -3.9047  -3.8865  -3.8716  -3.8381  -3.8224
    -3.7797  -3.7755  -3.7734  -3.7521  -3.7351  -3.7112  -3.7070  -3.6946
    -3.6914  -3.6909  -3.6634  -3.6545  -3.6383  -3.5983  -3.5966  -3.5843
    -3.5618  -3.5504  -3.4860  -3.4775  -3.4652  -3.4476  -3.4284  -3.4238
    -3.4093  -3.3851  -3.3412  -3.3322  -3.3201  -3.3094  -3.2765  -3.2679
    -3.2561  -3.2199  -3.2023  -3.1910  -3.1838  -3.1789  -3.1763  -3.1641
    -3.1622  -3.1588  -3.1511  -3.1078  -3.0719  -3.0668  -3.0625  -3.0574
    -3.0295  -3.0287  -3.0208  -2.9909  -2.9545  -2.9519  -2.9452  -2.9103
    -2.8961  -2.8889  -2.8837  -2.8711  -2.8556  -2.8272  -2.7983  -2.7949
    -2.7760  -2.7620  -2.7535  -2.7484  -2.7062  -2.6978  -2.6672  -2.6466
    -2.6414  -2.6297  -2.6163  -2.6115  -2.6032  -2.5973  -2.5822  -2.5792
    -2.5320  -2.5275  -2.5263  -2.5172  -2.5129  -2.5085  -2.5028  -2.4994
    -2.4966  -2.4898  -2.4877  -2.4849  -2.4774  -2.4695  -2.4575  -2.4456
    -2.4358  -2.4332  -2.4329  -2.4295  -2.4254  -2.4113  -2.4062  -2.3933
    -2.3869  -2.3684  -2.3653  -2.3641  -2.3587  -2.3562  -2.3554  -2.3470
    -2.3340  -2.3334  -2.3293  -2.3168  -2.2934  -2.2859  -2.2488  -2.2473
    -2.2327  -2.2275  -2.2017  -2.1944  -2.1817  -2.1695  -2.1641  -2.1491
    -2.1248  -2.1179  -2.1060  -2.0933  -2.0918  -2.0865  -2.0834  -2.0799
    -2.0544  -2.0512  -2.0374  -1.9925  -1.9870  -1.9787  -1.9755  -1.9677
    -1.9509  -1.9212  -1.9174  -1.8955  -1.8872  -1.8388  -1.8330  -1.8049
    -1.7858  -1.7757  -1.7475  -1.7280  -1.7202  -1.7106  -1.7038  -1.7013
    -1.6949  -1.6922  -1.6840  -1.6594  -1.6339  -1.6184  -1.6167  -1.6160
    -1.6079  -1.5972  -1.5741  -1.5646  -1.5539  -1.5486  -1.5455  -1.5374
    -1.5338  -1.5296  -1.5212  -1.5056  -1.5001  -1.4826  -1.4624  -1.4553
    -1.4508  -1.4367  -1.4133  -1.3871  -1.3770  -1.3540  -1.3455  -1.3447
    -1.3204  -1.2865  -1.2646  -1.2603  -1.2549  -1.2544  -1.2492  -1.2451
    -1.2351  -1.2241  -1.1994  -1.1811  -1.1709  -1.1596  -1.1523  -1.1459
    -1.1426  -1.1381  -1.1243  -1.1222  -1.1183  -1.1164  -1.0901  -1.0829
    -1.0780  -1.0761  -1.0641  -1.0519  -1.0417  -1.0232  -1.0169  -1.0055
    -0.9829  -0.9645  -0.9543  -0.9279  -0.9206  -0.9118  -0.9054  -0.9032
    -0.9001  -0.8934  -0.8913  -0.8835  -0.8747  -0.8631  -0.8603  -0.8531
    -0.8498  -0.8487  -0.8466  -0.8137  -0.8128  -0.7990  -0.7860  -0.7802
    -0.7734  -0.7665  -0.7555  -0.7105  -0.7088  -0.7040  -0.6999  -0.6961
    -0.6912  -0.6836  -0.6721  -0.6709  -0.6654  -0.6632  -0.6564  -0.6517
    -0.6236  -0.6208  -0.6197  -0.6116  -0.6103  -0.6057  -0.6033  -0.5892
    -0.5875  -0.5844  -0.5662  -0.5457  -0.5438  -0.5368  -0.5305  -0.5278
    -0.4622  -0.4512  -0.4494  -0.4478  -0.4424  -0.4358  -0.4047  -0.3947
    -0.3925  -0.3607  -0.3567  -0.3289  -0.2447  -0.2331  -0.1387   0.2764
     0.2790   0.2846   0.2856   0.3502   0.3643   0.7290   0.7331   0.7709
     0.7754   0.8981   0.9715   1.0806   1.0842   1.3045   1.3223   1.9309
     1.9362   2.0919   2.0941   2.2293   2.2388   2.3280   2.3299   2.4832
     2.7215   2.7378   2.8511   3.0743   3.0760   3.1445   3.1504   3.2489
     3.2679   3.4755   3.4820   3.5207   3.7217   3.7289   3.7895   3.7930
     4.0424   4.0538   4.0597   4.2939   4.3286   4.3370   4.3819   4.7080
     4.7208   4.7435   4.8787   5.0536   5.0592   5.1240   5.1435   5.6175
     5.8221   5.8351   5.8525   5.8803   5.9033   5.9096   5.9218   6.0196
     6.0322   6.0531   6.0821   6.0858   6.1179   6.1267   6.1366   6.1493
     6.2491   6.5945   6.6117   6.7169   6.7624   6.7812   6.7928   6.7956
     6.8037   6.9091   6.9970

          k = 0.5000 0.0000 0.1111 (136853 PWs)   bands (ev):

   -19.1575  -7.0195  -6.4345  -6.0403  -6.0301  -5.3679  -5.0323  -5.0225
    -5.0044  -4.9805  -4.6268  -4.6212  -4.5308  -4.5232  -4.5104  -4.4885
    -4.4842  -4.3677  -4.3532  -4.3341  -4.2904  -4.2872  -4.2648  -4.2192
    -4.2179  -4.2134  -4.1916  -4.1903  -4.1830  -4.1431  -4.1126  -4.0891
    -4.0846  -4.0759  -4.0704  -4.0537  -4.0466  -4.0284  -4.0186  -4.0162
    -4.0002  -3.9455  -3.9379  -3.9067  -3.8865  -3.8734  -3.8377  -3.8191
    -3.7789  -3.7753  -3.7737  -3.7487  -3.7333  -3.7101  -3.7068  -3.6947
    -3.6915  -3.6906  -3.6639  -3.6555  -3.6404  -3.5974  -3.5970  -3.5857
    -3.5622  -3.5500  -3.4868  -3.4777  -3.4640  -3.4486  -3.4287  -3.4239
    -3.4093  -3.3852  -3.3407  -3.3320  -3.3193  -3.3095  -3.2752  -3.2687
    -3.2561  -3.2196  -3.2001  -3.1918  -3.1833  -3.1801  -3.1774  -3.1643
    -3.1617  -3.1587  -3.1516  -3.1080  -3.0717  -3.0675  -3.0625  -3.0582
    -3.0297  -3.0273  -3.0215  -2.9912  -2.9533  -2.9517  -2.9456  -2.9105
    -2.8964  -2.8877  -2.8841  -2.8694  -2.8562  -2.8273  -2.8004  -2.7942
    -2.7760  -2.7621  -2.7546  -2.7483  -2.7047  -2.6983  -2.6672  -2.6473
    -2.6418  -2.6285  -2.6162  -2.6112  -2.6027  -2.5974  -2.5822  -2.5793
    -2.5330  -2.5283  -2.5264  -2.5165  -2.5131  -2.5097  -2.5031  -2.4999
    -2.4959  -2.4914  -2.4886  -2.4850  -2.4762  -2.4707  -2.4546  -2.4454
    -2.4363  -2.4330  -2.4325  -2.4297  -2.4254  -2.4106  -2.4061  -2.3924
    -2.3875  -2.3683  -2.3660  -2.3641  -2.3588  -2.3561  -2.3553  -2.3463
    -2.3342  -2.3334  -2.3296  -2.3168  -2.2933  -2.2864  -2.2486  -2.2475
    -2.2325  -2.2276  -2.2032  -2.1940  -2.1790  -2.1703  -2.1635  -2.1489
    -2.1260  -2.1166  -2.1067  -2.0940  -2.0918  -2.0868  -2.0832  -2.0794
    -2.0543  -2.0511  -2.0380  -1.9960  -1.9859  -1.9788  -1.9754  -1.9673
    -1.9518  -1.9216  -1.9171  -1.8950  -1.8874  -1.8392  -1.8328  -1.8040
    -1.7863  -1.7756  -1.7461  -1.7267  -1.7198  -1.7114  -1.7043  -1.7012
    -1.6949  -1.6922  -1.6841  -1.6562  -1.6350  -1.6196  -1.6166  -1.6160
    -1.6072  -1.5977  -1.5782  -1.5645  -1.5527  -1.5485  -1.5459  -1.5375
    -1.5348  -1.5292  -1.5211  -1.5041  -1.5012  -1.4799  -1.4624  -1.4555
    -1.4515  -1.4367  -1.4135  -1.3905  -1.3755  -1.3557  -1.3455  -1.3448
    -1.3200  -1.2849  -1.2656  -1.2599  -1.2560  -1.2544  -1.2493  -1.2433
    -1.2353  -1.2243  -1.1997  -1.1813  -1.1693  -1.1602  -1.1522  -1.1464
    -1.1427  -1.1366  -1.1248  -1.1222  -1.1190  -1.1165  -1.0907  -1.0814
    -1.0787  -1.0761  -1.0611  -1.0502  -1.0423  -1.0227  -1.0171  -1.0050
    -0.9820  -0.9654  -0.9554  -0.9282  -0.9219  -0.9135  -0.9047  -0.9039
    -0.8994  -0.8943  -0.8922  -0.8829  -0.8758  -0.8613  -0.8593  -0.8535
    -0.8496  -0.8492  -0.8447  -0.8135  -0.8130  -0.8008  -0.7896  -0.7797
    -0.7735  -0.7664  -0.7527  -0.7101  -0.7079  -0.7036  -0.7003  -0.6958
    -0.6917  -0.6858  -0.6729  -0.6703  -0.6653  -0.6633  -0.6576  -0.6516
    -0.6251  -0.6209  -0.6198  -0.6121  -0.6097  -0.6059  -0.6021  -0.5903
    -0.5870  -0.5839  -0.5659  -0.5457  -0.5440  -0.5369  -0.5308  -0.5271
    -0.4608  -0.4511  -0.4498  -0.4473  -0.4423  -0.4362  -0.4049  -0.3943
    -0.3926  -0.3606  -0.3579  -0.3275  -0.2411  -0.2336  -0.1369   0.2757
     0.2790   0.2849   0.2857   0.3465   0.3665   0.7256   0.7333   0.7720
     0.7757   0.8991   0.9722   1.0801   1.0867   1.3028   1.3229   1.9270
     1.9386   2.0894   2.0979   2.2255   2.2426   2.3277   2.3301   2.4830
     2.7206   2.7382   2.8501   3.0731   3.0760   3.1449   3.1502   3.2466
     3.2682   3.4762   3.4805   3.5203   3.7215   3.7292   3.7894   3.7957
     4.0420   4.0500   4.0626   4.2944   4.3287   4.3377   4.3815   4.7075
     4.7210   4.7426   4.8827   5.0555   5.0581   5.1320   5.1409   5.6162
     5.8246   5.8391   5.8523   5.8838   5.8985   5.9115   5.9189   6.0197
     6.0325   6.0518   6.0801   6.0857   6.1144   6.1244   6.1378   6.1486
     6.2490   6.5985   6.6067   6.7319   6.7588   6.7795   6.7899   6.7957
     6.8062   6.9053   6.9896

          k =-0.5000 0.0000 0.1111 (136853 PWs)   bands (ev):

   -19.1575  -7.0195  -6.4345  -6.0403  -6.0301  -5.3679  -5.0323  -5.0225
    -5.0044  -4.9805  -4.6268  -4.6212  -4.5308  -4.5232  -4.5104  -4.4885
    -4.4842  -4.3677  -4.3532  -4.3341  -4.2904  -4.2872  -4.2648  -4.2192
    -4.2179  -4.2134  -4.1916  -4.1903  -4.1830  -4.1431  -4.1126  -4.0891
    -4.0846  -4.0759  -4.0704  -4.0537  -4.0466  -4.0284  -4.0186  -4.0162
    -4.0002  -3.9455  -3.9379  -3.9067  -3.8865  -3.8734  -3.8377  -3.8191
    -3.7789  -3.7753  -3.7737  -3.7487  -3.7333  -3.7101  -3.7068  -3.6947
    -3.6915  -3.6906  -3.6639  -3.6555  -3.6404  -3.5974  -3.5970  -3.5857
    -3.5622  -3.5500  -3.4868  -3.4777  -3.4640  -3.4486  -3.4287  -3.4239
    -3.4093  -3.3852  -3.3407  -3.3320  -3.3193  -3.3095  -3.2752  -3.2687
    -3.2561  -3.2196  -3.2001  -3.1918  -3.1833  -3.1801  -3.1774  -3.1643
    -3.1617  -3.1587  -3.1516  -3.1080  -3.0717  -3.0675  -3.0625  -3.0582
    -3.0297  -3.0273  -3.0215  -2.9912  -2.9533  -2.9517  -2.9456  -2.9105
    -2.8964  -2.8877  -2.8841  -2.8694  -2.8562  -2.8273  -2.8004  -2.7942
    -2.7760  -2.7621  -2.7546  -2.7483  -2.7047  -2.6983  -2.6672  -2.6473
    -2.6418  -2.6285  -2.6162  -2.6112  -2.6027  -2.5974  -2.5822  -2.5793
    -2.5330  -2.5283  -2.5264  -2.5165  -2.5131  -2.5097  -2.5031  -2.4999
    -2.4959  -2.4914  -2.4886  -2.4850  -2.4762  -2.4707  -2.4546  -2.4454
    -2.4363  -2.4330  -2.4325  -2.4297  -2.4254  -2.4106  -2.4061  -2.3924
    -2.3875  -2.3683  -2.3660  -2.3641  -2.3587  -2.3561  -2.3553  -2.3463
    -2.3342  -2.3334  -2.3296  -2.3168  -2.2933  -2.2864  -2.2486  -2.2475
    -2.2325  -2.2276  -2.2032  -2.1940  -2.1790  -2.1703  -2.1635  -2.1489
    -2.1260  -2.1166  -2.1067  -2.0940  -2.0918  -2.0868  -2.0832  -2.0794
    -2.0543  -2.0511  -2.0380  -1.9960  -1.9859  -1.9788  -1.9754  -1.9673
    -1.9518  -1.9216  -1.9171  -1.8950  -1.8874  -1.8392  -1.8328  -1.8040
    -1.7863  -1.7756  -1.7461  -1.7267  -1.7198  -1.7114  -1.7043  -1.7012
    -1.6949  -1.6922  -1.6841  -1.6562  -1.6350  -1.6196  -1.6166  -1.6160
    -1.6072  -1.5977  -1.5782  -1.5645  -1.5527  -1.5485  -1.5459  -1.5375
    -1.5348  -1.5292  -1.5211  -1.5041  -1.5012  -1.4799  -1.4624  -1.4555
    -1.4515  -1.4367  -1.4135  -1.3905  -1.3755  -1.3557  -1.3455  -1.3448
    -1.3200  -1.2849  -1.2656  -1.2599  -1.2560  -1.2544  -1.2493  -1.2433
    -1.2353  -1.2243  -1.1997  -1.1813  -1.1693  -1.1602  -1.1522  -1.1464
    -1.1427  -1.1366  -1.1248  -1.1222  -1.1190  -1.1165  -1.0907  -1.0814
    -1.0787  -1.0761  -1.0611  -1.0502  -1.0423  -1.0227  -1.0171  -1.0050
    -0.9820  -0.9654  -0.9554  -0.9282  -0.9219  -0.9135  -0.9047  -0.9039
    -0.8994  -0.8943  -0.8922  -0.8829  -0.8758  -0.8613  -0.8593  -0.8535
    -0.8496  -0.8492  -0.8447  -0.8135  -0.8130  -0.8008  -0.7896  -0.7797
    -0.7735  -0.7664  -0.7527  -0.7101  -0.7079  -0.7036  -0.7003  -0.6958
    -0.6917  -0.6858  -0.6729  -0.6703  -0.6653  -0.6633  -0.6576  -0.6516
    -0.6251  -0.6209  -0.6198  -0.6121  -0.6097  -0.6059  -0.6020  -0.5903
    -0.5870  -0.5839  -0.5659  -0.5457  -0.5440  -0.5369  -0.5308  -0.5271
    -0.4608  -0.4511  -0.4498  -0.4473  -0.4423  -0.4362  -0.4049  -0.3943
    -0.3926  -0.3606  -0.3579  -0.3275  -0.2411  -0.2336  -0.1369   0.2757
     0.2790   0.2849   0.2857   0.3465   0.3665   0.7256   0.7333   0.7720
     0.7757   0.8991   0.9722   1.0801   1.0867   1.3028   1.3229   1.9270
     1.9386   2.0894   2.0979   2.2255   2.2426   2.3277   2.3301   2.4830
     2.7206   2.7382   2.8501   3.0731   3.0760   3.1449   3.1502   3.2466
     3.2682   3.4762   3.4805   3.5203   3.7215   3.7292   3.7894   3.7957
     4.0420   4.0500   4.0626   4.2944   4.3287   4.3377   4.3815   4.7075
     4.7210   4.7426   4.8827   5.0555   5.0581   5.1320   5.1409   5.6162
     5.8246   5.8391   5.8523   5.8838   5.8985   5.9116   5.9189   6.0197
     6.0325   6.0517   6.0801   6.0857   6.1144   6.1244   6.1378   6.1487
     6.2490   6.5983   6.6070   6.7321   6.7586   6.7797   6.7922   6.7938
     6.8055   6.9053   6.9896

          k =-0.2500 0.1443 0.1111 (136898 PWs)   bands (ev):

   -19.1575  -7.0194  -6.6443  -5.8525  -5.5717  -5.5040  -5.5000  -4.9676
    -4.9618  -4.8453  -4.8302  -4.6886  -4.6569  -4.5865  -4.5738  -4.5503
    -4.5174  -4.5152  -4.3865  -4.3453  -4.3443  -4.3038  -4.2774  -4.2652
    -4.1676  -4.1616  -4.1394  -4.1249  -4.1245  -4.1035  -4.0839  -4.0768
    -4.0153  -3.9742  -3.9705  -3.9572  -3.9474  -3.9322  -3.9274  -3.9205
    -3.9118  -3.8977  -3.8786  -3.8779  -3.8750  -3.8574  -3.8480  -3.8410
    -3.8253  -3.8221  -3.8129  -3.7819  -3.7617  -3.7351  -3.7244  -3.7200
    -3.7163  -3.6993  -3.6430  -3.6393  -3.6128  -3.6069  -3.5861  -3.5371
    -3.5364  -3.5208  -3.5083  -3.4967  -3.4963  -3.4920  -3.4686  -3.3347
    -3.3314  -3.3229  -3.3156  -3.3039  -3.2901  -3.2854  -3.2683  -3.2613
    -3.2147  -3.2115  -3.1985  -3.1979  -3.1745  -3.1398  -3.1324  -3.1115
    -3.1048  -3.1013  -3.0663  -3.0638  -3.0551  -3.0520  -3.0397  -3.0333
    -3.0026  -3.0021  -2.9867  -2.9796  -2.9753  -2.9715  -2.9636  -2.9014
    -2.8990  -2.8895  -2.8631  -2.8565  -2.8154  -2.8038  -2.7757  -2.7715
    -2.7632  -2.7622  -2.7505  -2.7285  -2.7265  -2.7133  -2.6994  -2.6847
    -2.6777  -2.6701  -2.6548  -2.6525  -2.6464  -2.6431  -2.6369  -2.6345
    -2.6243  -2.5797  -2.5544  -2.5534  -2.5321  -2.5211  -2.5199  -2.5127
    -2.5051  -2.5042  -2.5032  -2.4808  -2.4764  -2.4693  -2.4641  -2.4608
    -2.4517  -2.4243  -2.4224  -2.4191  -2.4183  -2.4143  -2.3717  -2.3456
    -2.3430  -2.3406  -2.3341  -2.3308  -2.3215  -2.3161  -2.2947  -2.2941
    -2.2699  -2.2635  -2.2616  -2.2552  -2.2477  -2.2434  -2.2163  -2.2113
    -2.1791  -2.1678  -2.1640  -2.1608  -2.1593  -2.1551  -2.1531  -2.1491
    -2.1485  -2.1427  -2.1403  -2.1257  -2.1234  -2.0226  -2.0048  -1.9779
    -1.9693  -1.9609  -1.9505  -1.9492  -1.9431  -1.9359  -1.9316  -1.9286
    -1.9231  -1.9135  -1.9047  -1.9039  -1.8901  -1.8856  -1.8747  -1.8683
    -1.8569  -1.8402  -1.8352  -1.8105  -1.8094  -1.7958  -1.7862  -1.7667
    -1.7628  -1.7622  -1.7484  -1.7377  -1.7319  -1.7246  -1.7230  -1.7030
    -1.7025  -1.6881  -1.6859  -1.6552  -1.6435  -1.6397  -1.5971  -1.5949
    -1.5759  -1.5749  -1.5637  -1.5466  -1.5428  -1.5245  -1.5142  -1.5081
    -1.4809  -1.4788  -1.4707  -1.4522  -1.4501  -1.4341  -1.4315  -1.4168
    -1.4039  -1.3937  -1.3891  -1.3418  -1.3303  -1.3233  -1.3179  -1.3081
    -1.3042  -1.2868  -1.2861  -1.2692  -1.2554  -1.2303  -1.2290  -1.2145
    -1.1934  -1.1860  -1.1746  -1.1685  -1.1675  -1.1629  -1.1619  -1.1561
    -1.1414  -1.1319  -1.1215  -1.1137  -1.1000  -1.0980  -1.0876  -1.0822
    -1.0648  -1.0500  -1.0355  -1.0218  -0.9645  -0.9507  -0.9313  -0.9286
    -0.9248  -0.9200  -0.9091  -0.8994  -0.8885  -0.8855  -0.8749  -0.8645
    -0.8603  -0.8592  -0.8456  -0.8321  -0.8258  -0.8223  -0.7933  -0.7481
    -0.7449  -0.7107  -0.7081  -0.7059  -0.7002  -0.6997  -0.6949  -0.6939
    -0.6805  -0.6688  -0.6592  -0.6419  -0.6272  -0.6142  -0.6078  -0.6005
    -0.5959  -0.5893  -0.5852  -0.5833  -0.5795  -0.5749  -0.5667  -0.5621
    -0.5570  -0.5324  -0.5289  -0.5242  -0.5156  -0.5136  -0.4960  -0.4651
    -0.4630  -0.4552  -0.4531  -0.3871  -0.3858  -0.3561  -0.3541  -0.2981
    -0.2972  -0.2924  -0.2729  -0.2635  -0.0304  -0.0127   0.3073   0.3085
     0.4053   0.4198   0.5960   0.6229   0.6386   0.7538   0.7549   1.1878
     1.1904   1.2013   1.4768   1.4978   1.5004   1.7808   1.7910   1.8497
     1.8545   1.8832   1.8889   2.1053   2.1116   2.1980   2.2011   2.2853
     2.3427   2.3520   2.5009   2.6098   3.0340   3.0412   3.0437   3.0446
     3.0963   3.1008   3.3913   3.3933   3.6774   3.6818   3.7942   4.0880
     4.1296   4.1316   4.3562   4.3750   4.4283   4.4291   4.5269   4.6412
     4.6450   4.7577   4.7599   5.0568   5.1237   5.1355   5.3133   5.3245
     5.4831   5.5104   5.5205   5.5479   5.5489   5.6048   5.6086   5.6813
     6.0321   6.0685   6.2068   6.2881   6.3297   6.3437   6.3546   6.3678
     6.3717   6.5776   6.6057   6.6280   6.7832   6.8453   6.8480   6.8934
     6.9125   7.1260   7.1392

          k =-0.2500-0.1443-0.1111 (136898 PWs)   bands (ev):

   -19.1575  -7.0193  -6.6444  -5.8530  -5.5716  -5.5033  -5.5002  -4.9669
    -4.9619  -4.8497  -4.8299  -4.6875  -4.6568  -4.5877  -4.5689  -4.5507
    -4.5170  -4.5150  -4.3868  -4.3450  -4.3443  -4.3061  -4.2752  -4.2657
    -4.1671  -4.1615  -4.1407  -4.1252  -4.1243  -4.1060  -4.0822  -4.0769
    -4.0240  -3.9738  -3.9701  -3.9594  -3.9448  -3.9325  -3.9239  -3.9204
    -3.9143  -3.8909  -3.8785  -3.8777  -3.8749  -3.8570  -3.8484  -3.8442
    -3.8252  -3.8236  -3.8030  -3.7827  -3.7664  -3.7324  -3.7246  -3.7197
    -3.7163  -3.6972  -3.6428  -3.6397  -3.6140  -3.6067  -3.5886  -3.5373
    -3.5368  -3.5211  -3.5074  -3.4966  -3.4949  -3.4920  -3.4697  -3.3352
    -3.3318  -3.3198  -3.3167  -3.3046  -3.2903  -3.2844  -3.2685  -3.2605
    -3.2148  -3.2131  -3.1984  -3.1979  -3.1758  -3.1380  -3.1297  -3.1143
    -3.1054  -3.0999  -3.0662  -3.0645  -3.0545  -3.0523  -3.0402  -3.0347
    -3.0026  -3.0010  -2.9858  -2.9780  -2.9755  -2.9725  -2.9634  -2.9028
    -2.8988  -2.8902  -2.8633  -2.8564  -2.8108  -2.8034  -2.7790  -2.7722
    -2.7622  -2.7600  -2.7505  -2.7278  -2.7258  -2.7135  -2.7026  -2.6833
    -2.6800  -2.6702  -2.6556  -2.6521  -2.6476  -2.6420  -2.6381  -2.6337
    -2.6244  -2.5795  -2.5532  -2.5523  -2.5338  -2.5224  -2.5187  -2.5127
    -2.5056  -2.5050  -2.5029  -2.4786  -2.4757  -2.4702  -2.4634  -2.4597
    -2.4518  -2.4255  -2.4245  -2.4205  -2.4180  -2.4133  -2.3711  -2.3481
    -2.3426  -2.3400  -2.3331  -2.3255  -2.3215  -2.3157  -2.2945  -2.2940
    -2.2720  -2.2659  -2.2619  -2.2530  -2.2491  -2.2435  -2.2207  -2.2107
    -2.1780  -2.1685  -2.1632  -2.1618  -2.1599  -2.1566  -2.1530  -2.1499
    -2.1468  -2.1429  -2.1406  -2.1253  -2.1240  -2.0167  -2.0060  -1.9947
    -1.9624  -1.9607  -1.9498  -1.9488  -1.9412  -1.9391  -1.9319  -1.9309
    -1.9207  -1.9099  -1.9048  -1.9026  -1.8929  -1.8832  -1.8757  -1.8665
    -1.8569  -1.8372  -1.8340  -1.8194  -1.8101  -1.7970  -1.7861  -1.7662
    -1.7633  -1.7617  -1.7481  -1.7338  -1.7316  -1.7248  -1.7242  -1.7056
    -1.7011  -1.6875  -1.6831  -1.6530  -1.6494  -1.6394  -1.6004  -1.5903
    -1.5789  -1.5738  -1.5640  -1.5471  -1.5423  -1.5186  -1.5134  -1.5109
    -1.4872  -1.4739  -1.4700  -1.4517  -1.4503  -1.4362  -1.4296  -1.4175
    -1.4007  -1.3954  -1.3897  -1.3363  -1.3328  -1.3247  -1.3186  -1.3123
    -1.3012  -1.2887  -1.2873  -1.2695  -1.2543  -1.2359  -1.2262  -1.2158
    -1.1984  -1.1796  -1.1759  -1.1678  -1.1651  -1.1625  -1.1608  -1.1590
    -1.1412  -1.1265  -1.1179  -1.1050  -1.1007  -1.0984  -1.0915  -1.0837
    -1.0610  -1.0481  -1.0358  -1.0218  -0.9801  -0.9428  -0.9371  -0.9278
    -0.9271  -0.9164  -0.9117  -0.8987  -0.8954  -0.8801  -0.8766  -0.8642
    -0.8639  -0.8598  -0.8440  -0.8352  -0.8287  -0.8207  -0.7840  -0.7451
    -0.7405  -0.7140  -0.7086  -0.7016  -0.7004  -0.6981  -0.6936  -0.6908
    -0.6838  -0.6790  -0.6540  -0.6418  -0.6223  -0.6123  -0.6104  -0.6007
    -0.5949  -0.5928  -0.5858  -0.5829  -0.5818  -0.5749  -0.5670  -0.5625
    -0.5558  -0.5323  -0.5281  -0.5264  -0.5154  -0.5134  -0.4964  -0.4656
    -0.4625  -0.4560  -0.4515  -0.3879  -0.3863  -0.3564  -0.3534  -0.2994
    -0.2963  -0.2924  -0.2730  -0.2598  -0.0391  -0.0088   0.3079   0.3084
     0.3981   0.4249   0.6020   0.6260   0.6384   0.7514   0.7586   1.1873
     1.1891   1.2057   1.4762   1.4974   1.4991   1.7725   1.7984   1.8482
     1.8505   1.8782   1.8965   2.1026   2.1097   2.1999   2.2004   2.2841
     2.3363   2.3612   2.5035   2.6072   3.0308   3.0407   3.0432   3.0487
     3.0903   3.1032   3.3902   3.3932   3.6715   3.6867   3.7910   4.0897
     4.1267   4.1325   4.3590   4.3797   4.4260   4.4336   4.5228   4.6419
     4.6492   4.7587   4.7614   5.0574   5.1256   5.1378   5.3058   5.3376
     5.4827   5.5145   5.5179   5.5438   5.5518   5.6017   5.6141   5.6725
     6.0254   6.0712   6.2066   6.3076   6.3244   6.3360   6.3527   6.3649
     6.3735   6.5974   6.6028   6.6283   6.7814   6.8333   6.8567   6.8875
     6.9168   7.1176   7.1450

          k = 0.2500 0.1443-0.1111 (136898 PWs)   bands (ev):

   -19.1575  -7.0193  -6.6444  -5.8530  -5.5716  -5.5033  -5.5002  -4.9669
    -4.9619  -4.8497  -4.8299  -4.6875  -4.6568  -4.5877  -4.5689  -4.5507
    -4.5170  -4.5149  -4.3868  -4.3450  -4.3443  -4.3061  -4.2752  -4.2657
    -4.1671  -4.1615  -4.1407  -4.1252  -4.1243  -4.1060  -4.0822  -4.0769
    -4.0240  -3.9738  -3.9701  -3.9594  -3.9448  -3.9325  -3.9239  -3.9204
    -3.9143  -3.8909  -3.8785  -3.8776  -3.8749  -3.8570  -3.8484  -3.8442
    -3.8252  -3.8236  -3.8030  -3.7827  -3.7664  -3.7324  -3.7246  -3.7197
    -3.7163  -3.6972  -3.6428  -3.6397  -3.6140  -3.6068  -3.5886  -3.5373
    -3.5368  -3.5211  -3.5074  -3.4966  -3.4949  -3.4920  -3.4697  -3.3352
    -3.3318  -3.3198  -3.3167  -3.3046  -3.2903  -3.2844  -3.2685  -3.2605
    -3.2148  -3.2131  -3.1984  -3.1979  -3.1758  -3.1380  -3.1297  -3.1143
    -3.1054  -3.0999  -3.0662  -3.0645  -3.0545  -3.0523  -3.0402  -3.0347
    -3.0026  -3.0010  -2.9858  -2.9780  -2.9755  -2.9725  -2.9634  -2.9028
    -2.8988  -2.8902  -2.8633  -2.8564  -2.8108  -2.8034  -2.7790  -2.7722
    -2.7622  -2.7600  -2.7505  -2.7278  -2.7258  -2.7135  -2.7026  -2.6833
    -2.6800  -2.6702  -2.6556  -2.6521  -2.6476  -2.6420  -2.6381  -2.6337
    -2.6244  -2.5795  -2.5533  -2.5523  -2.5338  -2.5224  -2.5187  -2.5127
    -2.5056  -2.5050  -2.5029  -2.4787  -2.4757  -2.4702  -2.4634  -2.4597
    -2.4518  -2.4255  -2.4245  -2.4205  -2.4180  -2.4133  -2.3712  -2.3481
    -2.3426  -2.3400  -2.3331  -2.3255  -2.3215  -2.3158  -2.2945  -2.2940
    -2.2720  -2.2659  -2.2619  -2.2530  -2.2491  -2.2435  -2.2207  -2.2107
    -2.1780  -2.1685  -2.1632  -2.1618  -2.1599  -2.1566  -2.1530  -2.1499
    -2.1468  -2.1429  -2.1406  -2.1253  -2.1240  -2.0167  -2.0060  -1.9947
    -1.9624  -1.9607  -1.9498  -1.9488  -1.9412  -1.9391  -1.9319  -1.9309
    -1.9207  -1.9099  -1.9049  -1.9026  -1.8929  -1.8832  -1.8757  -1.8665
    -1.8569  -1.8371  -1.8340  -1.8194  -1.8101  -1.7970  -1.7861  -1.7662
    -1.7633  -1.7617  -1.7481  -1.7338  -1.7316  -1.7248  -1.7242  -1.7056
    -1.7011  -1.6875  -1.6831  -1.6530  -1.6494  -1.6394  -1.6004  -1.5903
    -1.5789  -1.5738  -1.5640  -1.5471  -1.5423  -1.5186  -1.5134  -1.5109
    -1.4872  -1.4739  -1.4700  -1.4517  -1.4503  -1.4362  -1.4296  -1.4175
    -1.4007  -1.3954  -1.3897  -1.3363  -1.3328  -1.3247  -1.3186  -1.3123
    -1.3012  -1.2887  -1.2873  -1.2695  -1.2543  -1.2359  -1.2262  -1.2158
    -1.1984  -1.1796  -1.1759  -1.1678  -1.1651  -1.1625  -1.1608  -1.1590
    -1.1412  -1.1265  -1.1179  -1.1050  -1.1007  -1.0984  -1.0915  -1.0837
    -1.0610  -1.0481  -1.0358  -1.0218  -0.9801  -0.9428  -0.9371  -0.9278
    -0.9271  -0.9164  -0.9117  -0.8987  -0.8954  -0.8801  -0.8766  -0.8642
    -0.8639  -0.8598  -0.8440  -0.8352  -0.8287  -0.8207  -0.7840  -0.7451
    -0.7405  -0.7140  -0.7086  -0.7016  -0.7004  -0.6981  -0.6936  -0.6908
    -0.6838  -0.6790  -0.6540  -0.6418  -0.6223  -0.6123  -0.6104  -0.6007
    -0.5949  -0.5928  -0.5858  -0.5829  -0.5818  -0.5749  -0.5670  -0.5625
    -0.5558  -0.5323  -0.5281  -0.5264  -0.5154  -0.5134  -0.4964  -0.4656
    -0.4625  -0.4560  -0.4515  -0.3879  -0.3863  -0.3564  -0.3534  -0.2994
    -0.2963  -0.2924  -0.2730  -0.2598  -0.0391  -0.0088   0.3079   0.3084
     0.3981   0.4249   0.6020   0.6260   0.6384   0.7514   0.7586   1.1873
     1.1891   1.2057   1.4762   1.4974   1.4991   1.7725   1.7984   1.8482
     1.8505   1.8782   1.8965   2.1026   2.1097   2.1999   2.2004   2.2841
     2.3363   2.3612   2.5035   2.6072   3.0308   3.0407   3.0432   3.0487
     3.0903   3.1032   3.3902   3.3932   3.6715   3.6867   3.7910   4.0897
     4.1267   4.1325   4.3590   4.3797   4.4260   4.4336   4.5228   4.6419
     4.6492   4.7587   4.7614   5.0574   5.1256   5.1378   5.3058   5.3376
     5.4827   5.5145   5.5179   5.5438   5.5518   5.6017   5.6141   5.6725
     6.0257   6.0713   6.2066   6.3074   6.3243   6.3359   6.3527   6.3649
     6.3735   6.5976   6.6026   6.6276   6.7776   6.8332   6.8568   6.8878
     6.9173   7.1223   7.1495

          k = 0.0000-0.2887 0.1111 (136898 PWs)   bands (ev):

   -19.1575  -7.0194  -6.6444  -5.8527  -5.5718  -5.5035  -5.5001  -4.9671
    -4.9618  -4.8482  -4.8297  -4.6881  -4.6568  -4.5875  -4.5709  -4.5505
    -4.5172  -4.5150  -4.3866  -4.3453  -4.3442  -4.3048  -4.2762  -4.2655
    -4.1672  -4.1615  -4.1401  -4.1251  -4.1244  -4.1052  -4.0829  -4.0767
    -4.0206  -3.9740  -3.9703  -3.9584  -3.9458  -3.9325  -3.9252  -3.9204
    -3.9134  -3.8946  -3.8785  -3.8779  -3.8749  -3.8571  -3.8475  -3.8431
    -3.8251  -3.8224  -3.8082  -3.7817  -3.7646  -3.7334  -3.7245  -3.7197
    -3.7162  -3.6976  -3.6428  -3.6397  -3.6136  -3.6067  -3.5878  -3.5374
    -3.5367  -3.5210  -3.5076  -3.4967  -3.4955  -3.4921  -3.4690  -3.3351
    -3.3317  -3.3212  -3.3159  -3.3044  -3.2904  -3.2849  -3.2685  -3.2605
    -3.2148  -3.2123  -3.1987  -3.1980  -3.1752  -3.1387  -3.1303  -3.1134
    -3.1052  -3.1005  -3.0665  -3.0641  -3.0548  -3.0519  -3.0400  -3.0347
    -3.0024  -3.0010  -2.9863  -2.9785  -2.9754  -2.9720  -2.9635  -2.9023
    -2.8988  -2.8901  -2.8632  -2.8564  -2.8130  -2.8029  -2.7778  -2.7721
    -2.7629  -2.7604  -2.7505  -2.7286  -2.7255  -2.7134  -2.7020  -2.6830
    -2.6787  -2.6702  -2.6551  -2.6523  -2.6482  -2.6422  -2.6379  -2.6337
    -2.6244  -2.5796  -2.5540  -2.5524  -2.5329  -2.5223  -2.5190  -2.5130
    -2.5054  -2.5047  -2.5031  -2.4800  -2.4753  -2.4699  -2.4637  -2.4601
    -2.4516  -2.4252  -2.4234  -2.4192  -2.4184  -2.4142  -2.3713  -2.3476
    -2.3425  -2.3402  -2.3336  -2.3277  -2.3216  -2.3156  -2.2945  -2.2939
    -2.2711  -2.2652  -2.2618  -2.2536  -2.2486  -2.2435  -2.2197  -2.2107
    -2.1787  -2.1685  -2.1630  -2.1612  -2.1599  -2.1562  -2.1531  -2.1490
    -2.1469  -2.1426  -2.1408  -2.1254  -2.1241  -2.0204  -2.0051  -1.9891
    -1.9635  -1.9607  -1.9498  -1.9489  -1.9422  -1.9376  -1.9323  -1.9297
    -1.9214  -1.9113  -1.9048  -1.9033  -1.8920  -1.8840  -1.8752  -1.8673
    -1.8567  -1.8385  -1.8341  -1.8163  -1.8099  -1.7967  -1.7862  -1.7660
    -1.7632  -1.7616  -1.7481  -1.7357  -1.7316  -1.7247  -1.7237  -1.7047
    -1.7015  -1.6879  -1.6842  -1.6539  -1.6471  -1.6397  -1.5998  -1.5917
    -1.5779  -1.5740  -1.5640  -1.5472  -1.5424  -1.5204  -1.5138  -1.5096
    -1.4855  -1.4753  -1.4700  -1.4519  -1.4503  -1.4360  -1.4296  -1.4175
    -1.4020  -1.3946  -1.3892  -1.3387  -1.3312  -1.3243  -1.3185  -1.3108
    -1.3020  -1.2882  -1.2870  -1.2692  -1.2547  -1.2343  -1.2271  -1.2154
    -1.1973  -1.1817  -1.1752  -1.1684  -1.1655  -1.1629  -1.1611  -1.1579
    -1.1412  -1.1278  -1.1193  -1.1090  -1.1007  -1.0981  -1.0897  -1.0831
    -1.0627  -1.0486  -1.0357  -1.0217  -0.9741  -0.9459  -0.9354  -0.9277
    -0.9264  -0.9174  -0.9108  -0.8994  -0.8939  -0.8814  -0.8760  -0.8645
    -0.8626  -0.8592  -0.8447  -0.8343  -0.8281  -0.8209  -0.7867  -0.7456
    -0.7426  -0.7128  -0.7083  -0.7031  -0.7005  -0.6984  -0.6945  -0.6927
    -0.6825  -0.6751  -0.6554  -0.6418  -0.6240  -0.6133  -0.6093  -0.6007
    -0.5954  -0.5916  -0.5859  -0.5828  -0.5808  -0.5748  -0.5669  -0.5625
    -0.5562  -0.5323  -0.5284  -0.5255  -0.5154  -0.5135  -0.4963  -0.4655
    -0.4626  -0.4556  -0.4520  -0.3873  -0.3867  -0.3562  -0.3537  -0.2988
    -0.2969  -0.2924  -0.2730  -0.2612  -0.0362  -0.0098   0.3076   0.3085
     0.4003   0.4232   0.6001   0.6252   0.6380   0.7520   0.7575   1.1875
     1.1894   1.2041   1.4765   1.4979   1.4994   1.7753   1.7958   1.8494
     1.8514   1.8795   1.8943   2.1047   2.1094   2.1992   2.2006   2.2843
     2.3386   2.3580   2.5025   2.6084   3.0307   3.0412   3.0435   3.0482
     3.0936   3.1017   3.3910   3.3929   3.6729   3.6851   3.7927   4.0890
     4.1284   4.1318   4.3629   4.3721   4.4266   4.4320   4.5253   4.6406
     4.6485   4.7587   4.7607   5.0582   5.1197   5.1383   5.3079   5.3319
     5.4844   5.5118   5.5191   5.5455   5.5507   5.6007   5.6143   5.6772
     6.0292   6.0690   6.2099   6.3082   6.3173   6.3404   6.3504   6.3657
     6.3739   6.5906   6.6000   6.6287   6.7789   6.8311   6.8581   6.8959
     6.9136   7.1223   7.1430

          k = 0.0000 0.2887 0.1111 (136898 PWs)   bands (ev):

   -19.1575  -7.0194  -6.6444  -5.8527  -5.5718  -5.5035  -5.5001  -4.9670
    -4.9618  -4.8482  -4.8297  -4.6881  -4.6568  -4.5875  -4.5709  -4.5505
    -4.5172  -4.5150  -4.3866  -4.3453  -4.3442  -4.3048  -4.2762  -4.2655
    -4.1672  -4.1615  -4.1401  -4.1251  -4.1244  -4.1052  -4.0829  -4.0767
    -4.0206  -3.9740  -3.9703  -3.9584  -3.9458  -3.9325  -3.9252  -3.9204
    -3.9134  -3.8946  -3.8785  -3.8779  -3.8749  -3.8571  -3.8475  -3.8431
    -3.8251  -3.8224  -3.8082  -3.7817  -3.7646  -3.7334  -3.7245  -3.7197
    -3.7162  -3.6976  -3.6428  -3.6397  -3.6136  -3.6067  -3.5878  -3.5374
    -3.5367  -3.5210  -3.5076  -3.4967  -3.4955  -3.4921  -3.4690  -3.3351
    -3.3317  -3.3212  -3.3159  -3.3044  -3.2904  -3.2849  -3.2685  -3.2605
    -3.2148  -3.2123  -3.1987  -3.1980  -3.1752  -3.1387  -3.1303  -3.1134
    -3.1052  -3.1005  -3.0665  -3.0641  -3.0548  -3.0519  -3.0400  -3.0347
    -3.0024  -3.0010  -2.9863  -2.9785  -2.9754  -2.9720  -2.9635  -2.9023
    -2.8988  -2.8901  -2.8632  -2.8564  -2.8130  -2.8029  -2.7778  -2.7721
    -2.7629  -2.7604  -2.7505  -2.7286  -2.7255  -2.7134  -2.7020  -2.6830
    -2.6787  -2.6702  -2.6551  -2.6523  -2.6482  -2.6422  -2.6380  -2.6337
    -2.6244  -2.5796  -2.5540  -2.5524  -2.5329  -2.5223  -2.5190  -2.5130
    -2.5054  -2.5047  -2.5031  -2.4800  -2.4753  -2.4699  -2.4637  -2.4601
    -2.4516  -2.4252  -2.4234  -2.4192  -2.4184  -2.4142  -2.3713  -2.3476
    -2.3425  -2.3402  -2.3336  -2.3277  -2.3216  -2.3156  -2.2945  -2.2939
    -2.2711  -2.2652  -2.2618  -2.2536  -2.2486  -2.2435  -2.2197  -2.2107
    -2.1787  -2.1685  -2.1630  -2.1612  -2.1599  -2.1562  -2.1531  -2.1490
    -2.1469  -2.1426  -2.1408  -2.1254  -2.1241  -2.0204  -2.0051  -1.9891
    -1.9635  -1.9607  -1.9498  -1.9489  -1.9422  -1.9376  -1.9323  -1.9297
    -1.9214  -1.9113  -1.9048  -1.9033  -1.8920  -1.8840  -1.8752  -1.8673
    -1.8567  -1.8385  -1.8341  -1.8163  -1.8099  -1.7967  -1.7862  -1.7660
    -1.7632  -1.7616  -1.7481  -1.7357  -1.7316  -1.7247  -1.7237  -1.7047
    -1.7015  -1.6879  -1.6842  -1.6539  -1.6471  -1.6397  -1.5998  -1.5917
    -1.5779  -1.5740  -1.5640  -1.5472  -1.5424  -1.5204  -1.5138  -1.5096
    -1.4855  -1.4753  -1.4699  -1.4519  -1.4503  -1.4360  -1.4296  -1.4175
    -1.4020  -1.3946  -1.3892  -1.3387  -1.3312  -1.3243  -1.3185  -1.3108
    -1.3020  -1.2882  -1.2870  -1.2692  -1.2547  -1.2343  -1.2271  -1.2154
    -1.1973  -1.1817  -1.1752  -1.1684  -1.1655  -1.1629  -1.1611  -1.1579
    -1.1412  -1.1278  -1.1193  -1.1091  -1.1007  -1.0981  -1.0897  -1.0831
    -1.0627  -1.0486  -1.0357  -1.0217  -0.9741  -0.9459  -0.9354  -0.9277
    -0.9264  -0.9174  -0.9108  -0.8994  -0.8939  -0.8814  -0.8760  -0.8645
    -0.8626  -0.8592  -0.8447  -0.8343  -0.8281  -0.8209  -0.7867  -0.7456
    -0.7426  -0.7128  -0.7083  -0.7031  -0.7005  -0.6984  -0.6945  -0.6927
    -0.6825  -0.6751  -0.6554  -0.6418  -0.6240  -0.6133  -0.6093  -0.6007
    -0.5954  -0.5916  -0.5859  -0.5828  -0.5808  -0.5748  -0.5669  -0.5625
    -0.5563  -0.5323  -0.5284  -0.5255  -0.5154  -0.5135  -0.4963  -0.4655
    -0.4626  -0.4556  -0.4520  -0.3873  -0.3867  -0.3562  -0.3537  -0.2988
    -0.2969  -0.2924  -0.2730  -0.2612  -0.0362  -0.0098   0.3076   0.3085
     0.4003   0.4232   0.6001   0.6252   0.6380   0.7520   0.7575   1.1875
     1.1894   1.2041   1.4765   1.4979   1.4994   1.7753   1.7958   1.8494
     1.8514   1.8795   1.8943   2.1047   2.1094   2.1992   2.2006   2.2843
     2.3386   2.3580   2.5025   2.6084   3.0307   3.0412   3.0435   3.0482
     3.0936   3.1017   3.3910   3.3929   3.6729   3.6851   3.7927   4.0890
     4.1284   4.1318   4.3629   4.3721   4.4266   4.4320   4.5253   4.6406
     4.6485   4.7587   4.7607   5.0582   5.1197   5.1383   5.3079   5.3319
     5.4843   5.5118   5.5191   5.5455   5.5507   5.6007   5.6143   5.6773
     6.0295   6.0691   6.2099   6.3080   6.3171   6.3404   6.3504   6.3657
     6.3738   6.5910   6.5997   6.6282   6.7753   6.8308   6.8581   6.8961
     6.9140   7.1271   7.1470

     the Fermi energy is     1.3371 ev

!    total energy              =   -6604.39177990 Ry
     Harris-Foulkes estimate   =   -6604.39177990 Ry
     estimated scf accuracy    <          5.2E-09 Ry

     The total energy is the sum of the following terms:

     one-electron contribution =  -48859.13506432 Ry
     hartree contribution      =   24927.96975503 Ry
     xc contribution           =   -3205.05647841 Ry
     ewald contribution        =   20531.82725150 Ry
     smearing contrib. (-TS)   =       0.00275631 Ry

     convergence has been achieved in  24 iterations

     Writing output data file 5575206.save

     init_run     :    144.91s CPU    156.97s WALL (       1 calls)
     electrons    :   8164.56s CPU   8734.91s WALL (       1 calls)

     Called by init_run:
     wfcinit      :    113.45s CPU    124.21s WALL (       1 calls)
     potinit      :      8.96s CPU      9.45s WALL (       1 calls)

     Called by electrons:
     c_bands      :   6799.21s CPU   7256.21s WALL (      25 calls)
     sum_band     :   1008.86s CPU   1105.54s WALL (      25 calls)
     v_of_rho     :     96.41s CPU    107.22s WALL (      25 calls)
     newd         :    269.24s CPU    273.89s WALL (      25 calls)
     mix_rho      :      2.80s CPU      3.14s WALL (      25 calls)
     vdW_energy   :      8.50s CPU      9.62s WALL (      25 calls)
     vdW_ffts     :     46.87s CPU     52.14s WALL (      50 calls)
     vdW_v        :     12.99s CPU     13.79s WALL (      25 calls)

     Called by c_bands:
     init_us_2    :     28.78s CPU     29.30s WALL (     612 calls)
     cegterg      :   6718.28s CPU   7173.76s WALL (     300 calls)

     Called by *egterg:
     h_psi        :   3014.33s CPU   3428.37s WALL (    1581 calls)
     s_psi        :    434.23s CPU    436.63s WALL (    1581 calls)
     g_psi        :      5.92s CPU      5.99s WALL (    1269 calls)
     cdiaghg      :   1971.90s CPU   1976.76s WALL (    1557 calls)

     Called by h_psi:
     add_vuspsi   :    437.10s CPU    439.66s WALL (    1581 calls)

     General routines
     calbec       :    631.56s CPU    634.17s WALL (    1881 calls)
     fft          :    106.33s CPU    115.92s WALL (    1650 calls)
     ffts         :      1.13s CPU      1.40s WALL (      50 calls)
     fftw         :   2042.49s CPU   2439.84s WALL (  723250 calls)
     interpolate  :      3.60s CPU      4.37s WALL (      50 calls)
     davcio       :      0.00s CPU      0.21s WALL (      12 calls)

     Parallel routines
     fft_scatter  :   1370.83s CPU   1633.39s WALL (  724950 calls)

     PWSCF        :     2h18m CPU        2h28m WALL


   This run was terminated on:   1:34:17  25Jun2015            

=------------------------------------------------------------------------------=
   JOB DONE.
=------------------------------------------------------------------------------=
