Setting SGE environment for SCC

     Program PWSCF v.5.1.2 starts on 29Aug2015 at 19: 9:52 

     This program is part of the open-source Quantum ESPRESSO suite
     for quantum simulation of materials; please cite
         "P. Giannozzi et al., J. Phys.:Condens. Matter 21 395502 (2009);
          URL http://www.quantum-espresso.org", 
     in publications or presentations arising from this work. More details at
     http://www.quantum-espresso.org/quote

     Parallel version (MPI), running on    32 processors
     R & G space division:  proc/nbgrp/npool/nimage =      32
     Reading input from top.O1.Au50.d.3.6.phi.0.psi.90.in
Warning: card &IONS ignored
Warning: card / ignored
Warning: card &CELL ignored
Warning: card / ignored

     Current dimensions of program PWSCF are:
     Max number of different atomic species (ntypx) = 10
     Max number of k-points (npk) =  40000
     Max angular momentum in pseudopotentials (lmaxx) =  3

     IMPORTANT: XC functional enforced from input :
     Exchange-correlation      = VDW-DF ( 1  4  4  0 1 0)
     Any further DFT definition will be discarded
     Please, verify this is what you really want


     Subspace diagonalization in iterative solution of the eigenvalue problem:
     a serial algorithm will be used


     Parallelization info
     --------------------
     sticks:   dense  smooth     PW     G-vecs:    dense   smooth      PW
     Min         445     223     58                96775    34191    4534
     Max         446     224     59                96790    34246    4540
     Sum       14269    7147   1867              3097177  1095093  145167


     Title: 
     top.O1.Au50.d.3.6.phi.0.psi.90                                             


     bravais-lattice index     =            4
     lattice parameter (alat)  =      22.7436  a.u.
     unit-cell volume          =   22924.1508 (a.u.)^3
     number of atoms/cell      =           67
     number of atomic types    =            3
     number of electrons       =       712.00
     number of Kohn-Sham states=          427
     kinetic-energy cutoff     =      50.0000  Ry
     charge density cutoff     =     400.0000  Ry
     convergence threshold     =      1.0E-08
     mixing beta               =       0.7000
     number of iterations used =            8  plain     mixing
     Exchange-correlation      = VDW-DF ( 1  4  4  0 1 0)

     celldm(1)=  22.743643  celldm(2)=   0.000000  celldm(3)=   2.250000
     celldm(4)=   0.000000  celldm(5)=   0.000000  celldm(6)=   0.000000

     crystal axes: (cart. coord. in units of alat)
               a(1) = (   1.000000   0.000000   0.000000 )  
               a(2) = (  -0.500000   0.866025   0.000000 )  
               a(3) = (   0.000000   0.000000   2.250000 )  

     reciprocal axes: (cart. coord. in units 2 pi/alat)
               b(1) = (  1.000000  0.577350 -0.000000 )  
               b(2) = (  0.000000  1.154701  0.000000 )  
               b(3) = (  0.000000 -0.000000  0.444444 )  


     PseudoPot. # 1 for Au read from file:
     /home/scc/andrejb/qe/pseudo/Au.pbe-nd-van.UPF
     MD5 check sum: 458681b50f36d87ef23c61b04bba420a
     Pseudo is Ultrasoft + core correction, Zval = 11.0
     Generated by new atomic code, or converted to UPF format
     Using radial grid of  985 points,  3 beta functions with: 
                l(1) =   1
                l(2) =   2
                l(3) =   2
     Q(r) pseudized with  8 coefficients,  rinner =    1.100   1.100   1.100
                                                       1.100   1.100

     PseudoPot. # 2 for H  read from file:
     /home/scc/andrejb/qe/pseudo/H.pbe-van_ak.UPF
     MD5 check sum: 403db7282739603aa925980fa9b8608d
     Pseudo is Ultrasoft, Zval =  1.0
     Generated by new atomic code, or converted to UPF format
     Using radial grid of  615 points,  1 beta functions with: 
                l(1) =   0
     Q(r) pseudized with  8 coefficients,  rinner =    0.800

     PseudoPot. # 3 for O  read from file:
     /home/scc/andrejb/qe/pseudo/O.pbe-van_ak.UPF
     MD5 check sum: 4b8c549914a63cae506c6ff22b5af4fe
     Pseudo is Ultrasoft, Zval =  6.0
     Generated by new atomic code, or converted to UPF format
     Using radial grid of  737 points,  4 beta functions with: 
                l(1) =   0
                l(2) =   0
                l(3) =   1
                l(4) =   1
     Q(r) pseudized with  8 coefficients,  rinner =    0.800   0.800   0.800


     vdW kernel table read from file vdW_kernel_table
     MD5 check sum: 48e77a2e26edf626eeb0eaa751ad5cac

     atomic species   valence    mass     pseudopotential
        Au            11.00   196.96657     Au( 1.00)
        H              1.00     1.01000     H ( 1.00)
        O              6.00    16.00000     O ( 1.00)

     No symmetry found



   Cartesian axes

     site n.     atom                  positions (alat units)
         1           O   tau(   1) = (   0.4790780   0.3968269   0.9121140  )
         2           H   tau(   2) = (   0.4291446   0.3485733   0.8705663  )
         3           H   tau(   3) = (   0.5274974   0.3460662   0.9524208  )
         4           Au  tau(   4) = (   0.3540481   0.6132292   0.0000000  )
         5           Au  tau(   5) = (   0.4790062   0.3967954   0.0000000  )
         6           Au  tau(   6) = (   0.6039644   0.1803616   0.0000000  )
         7           Au  tau(   7) = (   0.7289225  -0.0360723   0.0000000  )
         8           Au  tau(   8) = (   0.1041318   0.6132292   0.0000000  )
         9           Au  tau(   9) = (   0.2290899   0.3967954   0.0000000  )
        10           Au  tau(  10) = (   0.3540481   0.1803616   0.0000000  )
        11           Au  tau(  11) = (   0.4790062  -0.0360723   0.0000000  )
        12           Au  tau(  12) = (  -0.1457845   0.6132292   0.0000000  )
        13           Au  tau(  13) = (  -0.0208264   0.3967954   0.0000000  )
        14           Au  tau(  14) = (   0.1041318   0.1803616   0.0000000  )
        15           Au  tau(  15) = (   0.2290899  -0.0360723   0.0000000  )
        16           Au  tau(  16) = (  -0.3957008   0.6132292   0.0000000  )
        17           Au  tau(  17) = (  -0.2707426   0.3967954   0.0000000  )
        18           Au  tau(  18) = (  -0.1457845   0.1803616   0.0000000  )
        19           Au  tau(  19) = (  -0.0208264  -0.0360723   0.0000000  )
        20           Au  tau(  20) = (   0.4790062   0.6853738   0.2040557  )
        21           Au  tau(  21) = (   0.6039644   0.4689400   0.2040557  )
        22           Au  tau(  22) = (   0.7289225   0.2525061   0.2040557  )
        23           Au  tau(  23) = (   0.8538806   0.0360723   0.2040557  )
        24           Au  tau(  24) = (   0.2290899   0.6853738   0.2040557  )
        25           Au  tau(  25) = (   0.3540481   0.4689400   0.2040557  )
        26           Au  tau(  26) = (   0.4790062   0.2525061   0.2040557  )
        27           Au  tau(  27) = (   0.6039644   0.0360723   0.2040557  )
        28           Au  tau(  28) = (  -0.0208264   0.6853738   0.2040557  )
        29           Au  tau(  29) = (   0.1041318   0.4689400   0.2040557  )
        30           Au  tau(  30) = (   0.2290899   0.2525061   0.2040557  )
        31           Au  tau(  31) = (   0.3540481   0.0360723   0.2040557  )
        32           Au  tau(  32) = (  -0.2707426   0.6853738   0.2040557  )
        33           Au  tau(  33) = (  -0.1457845   0.4689400   0.2040557  )
        34           Au  tau(  34) = (  -0.0208264   0.2525061   0.2040557  )
        35           Au  tau(  35) = (   0.1041318   0.0360723   0.2040557  )
        36           Au  tau(  36) = (   0.3541162   0.7576593   0.4066483  )
        37           Au  tau(  37) = (   0.4791000   0.5411421   0.4066695  )
        38           Au  tau(  38) = (   0.6040570   0.3246862   0.4066617  )
        39           Au  tau(  39) = (   0.7290270   0.1081684   0.4066529  )
        40           Au  tau(  40) = (   0.1041162   0.7576236   0.4066247  )
        41           Au  tau(  41) = (   0.2291001   0.5411063   0.4066455  )
        42           Au  tau(  42) = (   0.3540567   0.3246505   0.4066380  )
        43           Au  tau(  43) = (   0.4790276   0.1081324   0.4066292  )
        44           Au  tau(  44) = (  -0.1458201   0.7576104   0.4066224  )
        45           Au  tau(  45) = (  -0.0208365   0.5410930   0.4066438  )
        46           Au  tau(  46) = (   0.1041202   0.3246372   0.4066359  )
        47           Au  tau(  47) = (   0.2290908   0.1081193   0.4066273  )
        48           Au  tau(  48) = (  -0.3958167   0.7575791   0.4065812  )
        49           Au  tau(  49) = (  -0.2708328   0.5410617   0.4066025  )
        50           Au  tau(  50) = (  -0.1458763   0.3246061   0.4065947  )
        51           Au  tau(  51) = (  -0.0209056   0.1080882   0.4065858  )
        52           Au  tau(  52) = (   0.3541085   0.6133344   0.6129762  )
        53           Au  tau(  53) = (   0.4790780   0.3968269   0.6129968  )
        54           Au  tau(  54) = (   0.6040356   0.1803811   0.6129859  )
        55           Au  tau(  55) = (   0.7290165  -0.0361221   0.6129385  )
        56           Au  tau(  56) = (   0.1041243   0.6133091   0.6130022  )
        57           Au  tau(  57) = (   0.2290941   0.3968013   0.6130241  )
        58           Au  tau(  58) = (   0.3540515   0.1803552   0.6130121  )
        59           Au  tau(  59) = (   0.4790323  -0.0361475   0.6129659  )
        60           Au  tau(  60) = (  -0.1458030   0.6133014   0.6129980  )
        61           Au  tau(  61) = (  -0.0208339   0.3967936   0.6130188  )
        62           Au  tau(  62) = (   0.1041239   0.1803477   0.6130083  )
        63           Au  tau(  63) = (   0.2291046  -0.0361554   0.6129607  )
        64           Au  tau(  64) = (  -0.3957908   0.6132739   0.6129471  )
        65           Au  tau(  65) = (  -0.2708208   0.3967658   0.6129688  )
        66           Au  tau(  66) = (  -0.1458636   0.1803200   0.6129569  )
        67           Au  tau(  67) = (  -0.0208823  -0.0361826   0.6129110  )

     number of k points=    12  Marzari-Vanderbilt smearing, width (Ry)=  0.0200
                       cart. coord. in units 2pi/alat
        k(    1) = (   0.2500000   0.4330127   0.1111111), wk =   0.1666667
        k(    2) = (   0.2500000  -0.1443376   0.1111111), wk =   0.1666667
        k(    3) = (  -0.2500000  -0.4330127   0.1111111), wk =   0.1666667
        k(    4) = (  -0.2500000   0.4330127  -0.1111111), wk =   0.1666667
        k(    5) = (   0.2500000  -0.4330127  -0.1111111), wk =   0.1666667
        k(    6) = (   0.5000000   0.0000000   0.1111111), wk =   0.1666667
        k(    7) = (  -0.5000000   0.0000000   0.1111111), wk =   0.1666667
        k(    8) = (  -0.2500000   0.1443376   0.1111111), wk =   0.1666667
        k(    9) = (  -0.2500000  -0.1443376  -0.1111111), wk =   0.1666667
        k(   10) = (   0.2500000   0.1443376  -0.1111111), wk =   0.1666667
        k(   11) = (   0.0000000  -0.2886751   0.1111111), wk =   0.1666667
        k(   12) = (   0.0000000   0.2886751   0.1111111), wk =   0.1666667

     Dense  grid:  3097177 G-vectors     FFT dimensions: ( 150, 150, 360)

     Smooth grid:  1095093 G-vectors     FFT dimensions: ( 108, 108, 240)

     Largest allocated arrays     est. size (Mb)     dimensions
        Kohn-Sham Wavefunctions        28.01 Mb     (    4299,  427)
        NL pseudopotentials            55.23 Mb     (    4299,  842)
        Each V/rho on FFT grid          4.12 Mb     (  270000)
        Each G-vector array             0.74 Mb     (   96788)
        G-vector shells                 0.16 Mb     (   21404)
     Largest temporary arrays     est. size (Mb)     dimensions
        Auxiliary wavefunctions       112.04 Mb     (    4299, 1708)
        Each subspace H/S matrix       44.51 Mb     (    1708, 1708)
        Each <psi_i|beta_j> matrix      5.49 Mb     (     842,  427)
        Arrays for rho mixing          32.96 Mb     (  270000,    8)

     Initial potential from superposition of free atoms
     Check: negative starting charge=   -1.730210

     starting charge  711.25682, renormalised to  712.00000

     negative rho (up, down):  1.732E+00 0.000E+00


     ************************************************************************
     *
     * You are using vdW-DF for exchange-correlation in this calculation.
     * Please cite the following three references that made this development
     * possible:
     *
     *   M. Dion, H. Rydberg, E. Schroder, D. C. Langreth, and
     *   B. I. Lundqvist, Phys. Rev. Lett. 92, 246401 (2004).
     *
     *   T. Thonhauser, V. R. Cooper, S. Li, A. Puzder, P. Hyldgaard, and
     *   D. C. Langreth, Phys. Rev. B 76, 125112 (2007).
     *
     *   G. Roman-Perez and J. M. Soler, Phys. Rev. Lett. 103, 096102 (2009).
     *
     *
     * If you are using vdW-DF2, please also cite:
     *
     *   K. Lee, E. D. Murray, L. Kong, B. I. Lundqvist, and
     *   D. C. Langreth, Phys. Rev. B 82, 081101(R) (2010).
     *
     *
     * If you are calculating the stress with vdW-DF, please also cite:
     *
     *   R. Sabatini, E. Kucukbenli, B. Kolb, T. Thonhauser, and
     *   S. de Gironcoli, J. Phys.: Condens. Matter 24, 424209 (2012).
     *
     ************************************************************************

     Carrying out vdW-DF run using the following parameters:

     Nqs =      20    Nr_points =    1024   r_max =   100.000
     q_mesh =
               0.00001000     0.04494208     0.09755937     0.15916263
               0.23128650     0.31572767     0.41458969     0.53033537
               0.66584808     0.82450364     1.01025438     1.22772762
               1.48234092     1.78043706     2.12944203     2.53805004
               3.01644009     3.57652955     4.23227104     5.00000000

     Gradients computed in reciprocal space

     ************************************************************************


     Starting wfc are  582 randomized atomic wfcs

     total cpu time spent up to now is      182.4 secs

     Self-consistent Calculation

     iteration #  1     ecut=    50.00 Ry     beta=0.70
     Davidson diagonalization with overlap
     ethr =  1.00E-02,  avg # of iterations =  3.0

     Threshold (ethr) on eigenvalues was too large:
     Diagonalizing with lowered threshold

     Davidson diagonalization with overlap
     ethr =  3.51E-04,  avg # of iterations =  5.0

     negative rho (up, down):  1.728E+00 0.000E+00

     total cpu time spent up to now is      854.8 secs

     total energy              =   -6602.77854980 Ry
     Harris-Foulkes estimate   =   -6605.04443300 Ry
     estimated scf accuracy    <       2.83816477 Ry

     iteration #  2     ecut=    50.00 Ry     beta=0.70
     Davidson diagonalization with overlap
     ethr =  3.99E-04,  avg # of iterations = 11.3

     negative rho (up, down):  1.726E+00 0.000E+00

     total cpu time spent up to now is     1809.6 secs

     total energy              =   -6596.66804981 Ry
     Harris-Foulkes estimate   =   -6610.18118932 Ry
     estimated scf accuracy    <      75.32079823 Ry

     iteration #  3     ecut=    50.00 Ry     beta=0.70
     Davidson diagonalization with overlap
     ethr =  3.99E-04,  avg # of iterations =  6.5

     negative rho (up, down):  1.737E+00 0.000E+00

     total cpu time spent up to now is     2474.4 secs

     total energy              =   -6603.10293407 Ry
     Harris-Foulkes estimate   =   -6605.02657332 Ry
     estimated scf accuracy    <       8.93651705 Ry

     iteration #  4     ecut=    50.00 Ry     beta=0.70
     Davidson diagonalization with overlap
     ethr =  3.99E-04,  avg # of iterations =  6.6

     negative rho (up, down):  1.738E+00 0.000E+00

     total cpu time spent up to now is     2883.5 secs

     total energy              =   -6603.48882527 Ry
     Harris-Foulkes estimate   =   -6605.18420899 Ry
     estimated scf accuracy    <      15.80632059 Ry

     iteration #  5     ecut=    50.00 Ry     beta=0.70
     Davidson diagonalization with overlap
     ethr =  3.99E-04,  avg # of iterations =  6.1

     negative rho (up, down):  1.748E+00 0.000E+00

     total cpu time spent up to now is     3301.3 secs

     total energy              =   -6604.32579374 Ry
     Harris-Foulkes estimate   =   -6604.63058626 Ry
     estimated scf accuracy    <       2.18505399 Ry

     iteration #  6     ecut=    50.00 Ry     beta=0.70
     Davidson diagonalization with overlap
     ethr =  3.07E-04,  avg # of iterations =  2.5

     negative rho (up, down):  1.752E+00 0.000E+00

     total cpu time spent up to now is     3606.2 secs

     total energy              =   -6604.42924302 Ry
     Harris-Foulkes estimate   =   -6604.46924565 Ry
     estimated scf accuracy    <       0.11942049 Ry

     iteration #  7     ecut=    50.00 Ry     beta=0.70
     Davidson diagonalization with overlap
     ethr =  1.68E-05,  avg # of iterations = 11.5

     negative rho (up, down):  1.754E+00 0.000E+00

     total cpu time spent up to now is     4138.7 secs

     total energy              =   -6604.43298831 Ry
     Harris-Foulkes estimate   =   -6604.45976484 Ry
     estimated scf accuracy    <       0.11259209 Ry

     iteration #  8     ecut=    50.00 Ry     beta=0.70
     Davidson diagonalization with overlap
     ethr =  1.58E-05,  avg # of iterations =  3.3

     negative rho (up, down):  1.755E+00 0.000E+00

     total cpu time spent up to now is     4450.4 secs

     total energy              =   -6604.43580471 Ry
     Harris-Foulkes estimate   =   -6604.44866653 Ry
     estimated scf accuracy    <       0.04723402 Ry

     iteration #  9     ecut=    50.00 Ry     beta=0.70
     Davidson diagonalization with overlap
     c_bands:  1 eigenvalues not converged
     ethr =  6.63E-06,  avg # of iterations =  7.0

     negative rho (up, down):  1.756E+00 0.000E+00

     total cpu time spent up to now is     4829.6 secs

     total energy              =   -6604.43557972 Ry
     Harris-Foulkes estimate   =   -6604.44177900 Ry
     estimated scf accuracy    <       0.02157611 Ry

     iteration # 10     ecut=    50.00 Ry     beta=0.70
     Davidson diagonalization with overlap
     c_bands:  1 eigenvalues not converged
     ethr =  3.03E-06,  avg # of iterations =  7.5

     negative rho (up, down):  1.757E+00 0.000E+00

     total cpu time spent up to now is     5215.2 secs

     total energy              =   -6604.43518517 Ry
     Harris-Foulkes estimate   =   -6604.43803686 Ry
     estimated scf accuracy    <       0.01016672 Ry

     iteration # 11     ecut=    50.00 Ry     beta=0.70
     Davidson diagonalization with overlap
     ethr =  1.43E-06,  avg # of iterations =  5.8

     negative rho (up, down):  1.757E+00 0.000E+00

     total cpu time spent up to now is     5566.5 secs

     total energy              =   -6604.43504871 Ry
     Harris-Foulkes estimate   =   -6604.43631886 Ry
     estimated scf accuracy    <       0.00534625 Ry

     iteration # 12     ecut=    50.00 Ry     beta=0.70
     Davidson diagonalization with overlap
     ethr =  7.51E-07,  avg # of iterations =  4.5

     negative rho (up, down):  1.758E+00 0.000E+00

     total cpu time spent up to now is     5884.8 secs

     total energy              =   -6604.43459144 Ry
     Harris-Foulkes estimate   =   -6604.43550373 Ry
     estimated scf accuracy    <       0.00152047 Ry

     iteration # 13     ecut=    50.00 Ry     beta=0.70
     Davidson diagonalization with overlap
     c_bands:  1 eigenvalues not converged
     c_bands:  1 eigenvalues not converged
     ethr =  2.14E-07,  avg # of iterations = 10.6

     negative rho (up, down):  1.758E+00 0.000E+00

     total cpu time spent up to now is     6344.8 secs

     total energy              =   -6604.43482443 Ry
     Harris-Foulkes estimate   =   -6604.43498283 Ry
     estimated scf accuracy    <       0.00040731 Ry

     iteration # 14     ecut=    50.00 Ry     beta=0.70
     Davidson diagonalization with overlap
     ethr =  5.72E-08,  avg # of iterations =  3.1

     negative rho (up, down):  1.758E+00 0.000E+00

     total cpu time spent up to now is     6663.8 secs

     total energy              =   -6604.43487391 Ry
     Harris-Foulkes estimate   =   -6604.43495940 Ry
     estimated scf accuracy    <       0.00033766 Ry

     iteration # 15     ecut=    50.00 Ry     beta=0.70
     Davidson diagonalization with overlap
     ethr =  4.74E-08,  avg # of iterations =  2.0

     negative rho (up, down):  1.757E+00 0.000E+00

     total cpu time spent up to now is     6961.5 secs

     total energy              =   -6604.43490581 Ry
     Harris-Foulkes estimate   =   -6604.43493749 Ry
     estimated scf accuracy    <       0.00012216 Ry

     iteration # 16     ecut=    50.00 Ry     beta=0.70
     Davidson diagonalization with overlap
     ethr =  1.72E-08,  avg # of iterations =  2.0

     negative rho (up, down):  1.757E+00 0.000E+00

     total cpu time spent up to now is     7253.3 secs

     total energy              =   -6604.43491101 Ry
     Harris-Foulkes estimate   =   -6604.43493094 Ry
     estimated scf accuracy    <       0.00014704 Ry

     iteration # 17     ecut=    50.00 Ry     beta=0.70
     Davidson diagonalization with overlap
     ethr =  1.72E-08,  avg # of iterations =  1.0

     negative rho (up, down):  1.757E+00 0.000E+00

     total cpu time spent up to now is     7527.3 secs

     total energy              =   -6604.43492072 Ry
     Harris-Foulkes estimate   =   -6604.43492693 Ry
     estimated scf accuracy    <       0.00005606 Ry

     iteration # 18     ecut=    50.00 Ry     beta=0.70
     Davidson diagonalization with overlap
     ethr =  7.87E-09,  avg # of iterations =  1.0

     negative rho (up, down):  1.757E+00 0.000E+00

     total cpu time spent up to now is     7821.6 secs

     total energy              =   -6604.43492302 Ry
     Harris-Foulkes estimate   =   -6604.43492488 Ry
     estimated scf accuracy    <       0.00000629 Ry

     iteration # 19     ecut=    50.00 Ry     beta=0.70
     Davidson diagonalization with overlap
     ethr =  8.83E-10,  avg # of iterations =  2.0

     negative rho (up, down):  1.757E+00 0.000E+00

     total cpu time spent up to now is     8111.4 secs

     total energy              =   -6604.43492397 Ry
     Harris-Foulkes estimate   =   -6604.43492448 Ry
     estimated scf accuracy    <       0.00000236 Ry

     iteration # 20     ecut=    50.00 Ry     beta=0.70
     Davidson diagonalization with overlap
     ethr =  3.31E-10,  avg # of iterations =  2.0

     negative rho (up, down):  1.757E+00 0.000E+00

     total cpu time spent up to now is     8392.9 secs

     total energy              =   -6604.43492436 Ry
     Harris-Foulkes estimate   =   -6604.43492434 Ry
     estimated scf accuracy    <       0.00000016 Ry

     iteration # 21     ecut=    50.00 Ry     beta=0.70
     Davidson diagonalization with overlap
     ethr =  2.30E-11,  avg # of iterations =  3.0

     negative rho (up, down):  1.757E+00 0.000E+00

     total cpu time spent up to now is     8784.9 secs

     total energy              =   -6604.43492440 Ry
     Harris-Foulkes estimate   =   -6604.43492442 Ry
     estimated scf accuracy    <       0.00000017 Ry

     iteration # 22     ecut=    50.00 Ry     beta=0.70
     Davidson diagonalization with overlap
     ethr =  2.30E-11,  avg # of iterations =  2.0

     negative rho (up, down):  1.757E+00 0.000E+00

     total cpu time spent up to now is     9079.7 secs

     total energy              =   -6604.43492442 Ry
     Harris-Foulkes estimate   =   -6604.43492443 Ry
     estimated scf accuracy    <       0.00000002 Ry

     iteration # 23     ecut=    50.00 Ry     beta=0.70
     Davidson diagonalization with overlap
     ethr =  2.42E-12,  avg # of iterations =  4.0

     negative rho (up, down):  1.757E+00 0.000E+00

     total cpu time spent up to now is     9494.2 secs

     total energy              =   -6604.43492442 Ry
     Harris-Foulkes estimate   =   -6604.43492443 Ry
     estimated scf accuracy    <       0.00000001 Ry

     iteration # 24     ecut=    50.00 Ry     beta=0.70
     Davidson diagonalization with overlap
     ethr =  1.61E-12,  avg # of iterations =  3.0

     negative rho (up, down):  1.757E+00 0.000E+00

     total cpu time spent up to now is     9859.8 secs

     total energy              =   -6604.43492443 Ry
     Harris-Foulkes estimate   =   -6604.43492443 Ry
     estimated scf accuracy    <       0.00000001 Ry

     iteration # 25     ecut=    50.00 Ry     beta=0.70
     Davidson diagonalization with overlap
     ethr =  1.47E-12,  avg # of iterations =  2.0

     negative rho (up, down):  1.757E+00 0.000E+00

     total cpu time spent up to now is    10156.1 secs

     End of self-consistent calculation

          k = 0.2500 0.4330 0.1111 (136853 PWs)   bands (ev):

   -18.7775  -6.5977  -6.3439  -5.9448  -5.9446  -5.2667  -4.9333  -4.9332
    -4.8941  -4.8936  -4.5330  -4.5329  -4.4344  -4.4343  -4.4203  -4.3983
    -4.3729  -4.2668  -4.2665  -4.2425  -4.1992  -4.1990  -4.1302  -4.1301
    -4.1232  -4.1229  -4.1019  -4.0960  -4.0957  -4.0238  -4.0229  -3.9937
    -3.9935  -3.9814  -3.9814  -3.9581  -3.9581  -3.9356  -3.9271  -3.9271
    -3.9004  -3.8482  -3.8481  -3.8003  -3.8000  -3.7408  -3.7406  -3.6861
    -3.6861  -3.6857  -3.6855  -3.6502  -3.6110  -3.6109  -3.6047  -3.6033
    -3.6031  -3.5725  -3.5723  -3.5639  -3.5020  -3.5019  -3.4926  -3.4761
    -3.4690  -3.3964  -3.3962  -3.3630  -3.3626  -3.3350  -3.3347  -3.3215
    -3.3048  -3.2446  -3.2445  -3.2272  -3.2270  -3.1751  -3.1703  -3.1700
    -3.1318  -3.1004  -3.1000  -3.0917  -3.0915  -3.0783  -3.0780  -3.0705
    -3.0702  -3.0604  -3.0196  -2.9817  -2.9815  -2.9672  -2.9669  -2.9410
    -2.9314  -2.9311  -2.9097  -2.8653  -2.8648  -2.8556  -2.8195  -2.8129
    -2.8095  -2.7983  -2.7979  -2.7689  -2.7684  -2.7394  -2.7018  -2.7011
    -2.6796  -2.6722  -2.6581  -2.6577  -2.6077  -2.6074  -2.5747  -2.5519
    -2.5518  -2.5277  -2.5275  -2.5163  -2.5162  -2.5055  -2.4826  -2.4824
    -2.4380  -2.4379  -2.4365  -2.4196  -2.4194  -2.4142  -2.4049  -2.4031
    -2.4019  -2.4017  -2.3961  -2.3836  -2.3831  -2.3736  -2.3472  -2.3467
    -2.3454  -2.3440  -2.3437  -2.3409  -2.3408  -2.3128  -2.3099  -2.2957
    -2.2957  -2.2778  -2.2777  -2.2677  -2.2675  -2.2661  -2.2657  -2.2463
    -2.2456  -2.2442  -2.2438  -2.2271  -2.2002  -2.2002  -2.1601  -2.1601
    -2.1346  -2.1344  -2.1072  -2.1070  -2.0793  -2.0792  -2.0616  -2.0575
    -2.0304  -2.0087  -2.0080  -2.0028  -2.0025  -1.9981  -1.9908  -1.9905
    -1.9651  -1.9585  -1.9487  -1.8913  -1.8876  -1.8870  -1.8842  -1.8841
    -1.8470  -1.8282  -1.8281  -1.8003  -1.8000  -1.7396  -1.7396  -1.7107
    -1.6927  -1.6920  -1.6309  -1.6308  -1.6190  -1.6187  -1.6078  -1.6075
    -1.6042  -1.5945  -1.5942  -1.5399  -1.5391  -1.5267  -1.5261  -1.5257
    -1.5066  -1.5061  -1.4709  -1.4705  -1.4534  -1.4531  -1.4530  -1.4464
    -1.4422  -1.4317  -1.4312  -1.4124  -1.4122  -1.3731  -1.3710  -1.3583
    -1.3580  -1.3379  -1.3243  -1.2813  -1.2809  -1.2558  -1.2501  -1.2499
    -1.2206  -1.1723  -1.1691  -1.1679  -1.1673  -1.1623  -1.1615  -1.1513
    -1.1330  -1.1326  -1.0929  -1.0920  -1.0621  -1.0613  -1.0570  -1.0562
    -1.0482  -1.0338  -1.0317  -1.0313  -1.0285  -1.0277  -1.0022  -0.9900
    -0.9879  -0.9877  -0.9610  -0.9564  -0.9533  -0.9368  -0.9223  -0.9209
    -0.8782  -0.8741  -0.8666  -0.8474  -0.8290  -0.8178  -0.8125  -0.8114
    -0.8043  -0.8038  -0.8027  -0.7952  -0.7908  -0.7764  -0.7649  -0.7629
    -0.7615  -0.7592  -0.7525  -0.7220  -0.7217  -0.7118  -0.7047  -0.6924
    -0.6879  -0.6800  -0.6741  -0.6202  -0.6172  -0.6094  -0.6092  -0.6080
    -0.6057  -0.6003  -0.5829  -0.5804  -0.5741  -0.5734  -0.5719  -0.5689
    -0.5323  -0.5299  -0.5291  -0.5213  -0.5206  -0.5156  -0.5142  -0.5012
    -0.4969  -0.4948  -0.4909  -0.4522  -0.4520  -0.4437  -0.4400  -0.4397
    -0.3627  -0.3620  -0.3597  -0.3591  -0.3504  -0.3494  -0.3137  -0.3010
    -0.3007  -0.2726  -0.2688  -0.2645  -0.1471  -0.1466  -0.0448   0.3705
     0.3706   0.3737   0.3739   0.4340   0.4378   0.8232   0.8239   0.8663
     0.8667   0.9763   1.0556   1.1662   1.1679   1.3872   1.3921   2.0199
     2.0218   2.1823   2.1842   2.3139   2.3174   2.4193   2.4194   2.5735
     2.8107   2.8159   2.9343   3.1592   3.1606   3.2427   3.2434   3.3429
     3.3586   3.5534   3.5556   3.6146   3.8157   3.8160   3.8776   3.8796
     4.1356   4.1424   4.1449   4.3861   4.4271   4.4290   4.4736   4.8094
     4.8104   4.8394   4.9734   5.1431   5.1468   5.1762   5.2053   5.3526
     5.7661   5.9037   5.9333   5.9409   5.9423   6.0091   6.0097   6.0737
     6.1076   6.1213   6.1441   6.1706   6.1731   6.1919   6.2003   6.2310
     6.2342   6.3972   6.5410   6.6968   6.7331   6.7549   6.8802   6.8819
     6.8905   6.9894   7.0010

          k = 0.2500-0.1443 0.1111 (136898 PWs)   bands (ev):

   -18.7775  -6.5987  -6.5528  -5.7620  -5.4706  -5.4117  -5.4116  -4.8733
    -4.8732  -4.7413  -4.7411  -4.5861  -4.5554  -4.4936  -4.4601  -4.4594
    -4.4266  -4.4265  -4.2980  -4.2563  -4.2561  -4.1963  -4.1751  -4.1749
    -4.0727  -4.0727  -4.0365  -4.0363  -4.0363  -4.0093  -3.9878  -3.9877
    -3.8825  -3.8807  -3.8804  -3.8599  -3.8429  -3.8428  -3.8307  -3.8304
    -3.8172  -3.7872  -3.7870  -3.7867  -3.7866  -3.7540  -3.7539  -3.7363
    -3.7363  -3.7221  -3.6785  -3.6784  -3.6481  -3.6332  -3.6322  -3.6280
    -3.6280  -3.5534  -3.5533  -3.5181  -3.5158  -3.5153  -3.4479  -3.4478
    -3.4324  -3.4322  -3.4016  -3.4012  -3.4002  -3.3999  -3.2468  -3.2464
    -3.2215  -3.2210  -3.2160  -3.1999  -3.1996  -3.1739  -3.1737  -3.1239
    -3.1238  -3.1077  -3.1074  -3.0872  -3.0389  -3.0386  -3.0190  -3.0140
    -3.0137  -2.9731  -2.9728  -2.9666  -2.9662  -2.9499  -2.9493  -2.9101
    -2.9101  -2.8893  -2.8882  -2.8853  -2.8849  -2.8817  -2.8166  -2.8047
    -2.8034  -2.8026  -2.7742  -2.7738  -2.7122  -2.7110  -2.6839  -2.6827
    -2.6696  -2.6694  -2.6640  -2.6345  -2.6342  -2.6248  -2.6072  -2.5817
    -2.5815  -2.5809  -2.5604  -2.5601  -2.5491  -2.5487  -2.5460  -2.5449
    -2.5372  -2.4913  -2.4588  -2.4586  -2.4433  -2.4291  -2.4228  -2.4225
    -2.4153  -2.4148  -2.4133  -2.3837  -2.3834  -2.3832  -2.3735  -2.3733
    -2.3562  -2.3290  -2.3280  -2.3276  -2.3271  -2.3269  -2.2815  -2.2503
    -2.2498  -2.2494  -2.2427  -2.2339  -2.2211  -2.2208  -2.2041  -2.2040
    -2.1709  -2.1691  -2.1688  -2.1502  -2.1492  -2.1483  -2.1162  -2.1152
    -2.0750  -2.0737  -2.0667  -2.0646  -2.0645  -2.0581  -2.0579  -2.0555
    -2.0552  -2.0492  -2.0475  -2.0319  -2.0309  -1.9051  -1.9033  -1.8721
    -1.8662  -1.8648  -1.8599  -1.8597  -1.8423  -1.8418  -1.8394  -1.8385
    -1.8371  -1.8142  -1.8077  -1.8054  -1.8034  -1.7941  -1.7937  -1.7710
    -1.7707  -1.7422  -1.7420  -1.7105  -1.7095  -1.6996  -1.6915  -1.6738
    -1.6734  -1.6705  -1.6522  -1.6399  -1.6396  -1.6324  -1.6321  -1.6057
    -1.6053  -1.5883  -1.5882  -1.5573  -1.5559  -1.5461  -1.4954  -1.4952
    -1.4837  -1.4821  -1.4819  -1.4566  -1.4542  -1.4208  -1.4202  -1.4197
    -1.3881  -1.3768  -1.3755  -1.3602  -1.3598  -1.3340  -1.3326  -1.3317
    -1.3020  -1.2994  -1.2992  -1.2368  -1.2361  -1.2241  -1.2226  -1.2069
    -1.2066  -1.1942  -1.1939  -1.1758  -1.1632  -1.1361  -1.1351  -1.1246
    -1.1033  -1.0867  -1.0853  -1.0739  -1.0735  -1.0724  -1.0675  -1.0659
    -1.0525  -1.0233  -1.0216  -1.0190  -1.0113  -1.0090  -1.0081  -0.9849
    -0.9731  -0.9664  -0.9475  -0.9450  -0.8664  -0.8410  -0.8387  -0.8332
    -0.8326  -0.8286  -0.8238  -0.8147  -0.7981  -0.7880  -0.7828  -0.7732
    -0.7680  -0.7590  -0.7584  -0.7383  -0.7368  -0.7283  -0.7258  -0.6561
    -0.6558  -0.6223  -0.6186  -0.6174  -0.6109  -0.6091  -0.6088  -0.6066
    -0.5959  -0.5922  -0.5743  -0.5546  -0.5384  -0.5204  -0.5194  -0.5089
    -0.5072  -0.4959  -0.4951  -0.4944  -0.4932  -0.4914  -0.4756  -0.4713
    -0.4698  -0.4405  -0.4389  -0.4377  -0.4265  -0.4264  -0.4072  -0.3752
    -0.3745  -0.3659  -0.3649  -0.2974  -0.2974  -0.2601  -0.2600  -0.2021
    -0.2009  -0.2006  -0.1871  -0.1726   0.0499   0.0577   0.3989   0.3989
     0.4883   0.4947   0.6847   0.7006   0.7165   0.8466   0.8483   1.2790
     1.2792   1.2973   1.5559   1.5891   1.5892   1.8630   1.8719   1.9450
     1.9457   1.9708   1.9759   2.2015   2.2020   2.2901   2.2906   2.3623
     2.4267   2.4348   2.5937   2.6917   3.1317   3.1329   3.1357   3.1370
     3.1900   3.1913   3.4830   3.4835   3.7618   3.7686   3.8672   4.1790
     4.2201   4.2242   4.4230   4.4560   4.5227   4.5233   4.6140   4.7317
     4.7334   4.8490   4.8505   5.1537   5.2167   5.2229   5.2377   5.4017
     5.4112   5.6091   5.6119   5.6367   5.6380   5.6975   5.7024   5.7360
     5.7840   6.0294   6.2518   6.3052   6.3348   6.4424   6.4433   6.4553
     6.4589   6.5157   6.6226   6.6941   6.7004   6.7857   6.9016   6.9095
     6.9394   7.0058   7.0499

          k =-0.2500-0.4330 0.1111 (136853 PWs)   bands (ev):

   -18.7775  -6.5977  -6.3439  -5.9448  -5.9446  -5.2667  -4.9333  -4.9332
    -4.8941  -4.8936  -4.5330  -4.5329  -4.4344  -4.4343  -4.4203  -4.3983
    -4.3729  -4.2668  -4.2665  -4.2425  -4.1992  -4.1990  -4.1302  -4.1301
    -4.1232  -4.1229  -4.1019  -4.0960  -4.0957  -4.0238  -4.0229  -3.9937
    -3.9935  -3.9814  -3.9814  -3.9581  -3.9581  -3.9356  -3.9271  -3.9271
    -3.9004  -3.8482  -3.8481  -3.8003  -3.8000  -3.7408  -3.7406  -3.6861
    -3.6861  -3.6857  -3.6855  -3.6502  -3.6110  -3.6109  -3.6047  -3.6033
    -3.6031  -3.5725  -3.5723  -3.5639  -3.5020  -3.5019  -3.4926  -3.4761
    -3.4690  -3.3964  -3.3962  -3.3630  -3.3626  -3.3350  -3.3347  -3.3215
    -3.3048  -3.2446  -3.2445  -3.2272  -3.2270  -3.1751  -3.1703  -3.1700
    -3.1318  -3.1004  -3.1000  -3.0917  -3.0915  -3.0783  -3.0780  -3.0705
    -3.0702  -3.0604  -3.0196  -2.9817  -2.9815  -2.9672  -2.9669  -2.9410
    -2.9314  -2.9311  -2.9097  -2.8653  -2.8648  -2.8556  -2.8195  -2.8129
    -2.8095  -2.7983  -2.7979  -2.7689  -2.7684  -2.7394  -2.7018  -2.7011
    -2.6796  -2.6722  -2.6581  -2.6577  -2.6077  -2.6074  -2.5747  -2.5520
    -2.5518  -2.5277  -2.5275  -2.5163  -2.5162  -2.5055  -2.4826  -2.4824
    -2.4380  -2.4379  -2.4365  -2.4196  -2.4194  -2.4142  -2.4049  -2.4031
    -2.4019  -2.4017  -2.3961  -2.3836  -2.3831  -2.3736  -2.3472  -2.3467
    -2.3454  -2.3440  -2.3437  -2.3409  -2.3408  -2.3128  -2.3099  -2.2957
    -2.2957  -2.2778  -2.2777  -2.2677  -2.2675  -2.2661  -2.2657  -2.2463
    -2.2456  -2.2442  -2.2438  -2.2271  -2.2002  -2.2002  -2.1601  -2.1601
    -2.1346  -2.1344  -2.1072  -2.1070  -2.0793  -2.0792  -2.0616  -2.0575
    -2.0304  -2.0087  -2.0080  -2.0028  -2.0025  -1.9981  -1.9908  -1.9905
    -1.9651  -1.9585  -1.9487  -1.8913  -1.8876  -1.8870  -1.8842  -1.8841
    -1.8470  -1.8282  -1.8281  -1.8003  -1.8000  -1.7396  -1.7396  -1.7107
    -1.6927  -1.6920  -1.6309  -1.6308  -1.6190  -1.6187  -1.6078  -1.6075
    -1.6042  -1.5945  -1.5942  -1.5399  -1.5391  -1.5267  -1.5261  -1.5257
    -1.5066  -1.5061  -1.4709  -1.4705  -1.4534  -1.4531  -1.4530  -1.4464
    -1.4422  -1.4317  -1.4312  -1.4124  -1.4122  -1.3731  -1.3710  -1.3583
    -1.3580  -1.3379  -1.3243  -1.2813  -1.2809  -1.2558  -1.2501  -1.2499
    -1.2206  -1.1723  -1.1691  -1.1679  -1.1673  -1.1623  -1.1615  -1.1513
    -1.1330  -1.1326  -1.0929  -1.0920  -1.0621  -1.0613  -1.0570  -1.0562
    -1.0482  -1.0338  -1.0317  -1.0313  -1.0285  -1.0277  -1.0022  -0.9900
    -0.9879  -0.9877  -0.9610  -0.9564  -0.9533  -0.9368  -0.9223  -0.9209
    -0.8782  -0.8741  -0.8666  -0.8474  -0.8290  -0.8178  -0.8125  -0.8114
    -0.8043  -0.8038  -0.8027  -0.7952  -0.7908  -0.7764  -0.7649  -0.7629
    -0.7615  -0.7592  -0.7525  -0.7220  -0.7217  -0.7118  -0.7047  -0.6924
    -0.6879  -0.6800  -0.6741  -0.6202  -0.6172  -0.6094  -0.6092  -0.6080
    -0.6057  -0.6003  -0.5829  -0.5804  -0.5741  -0.5734  -0.5719  -0.5689
    -0.5323  -0.5299  -0.5291  -0.5213  -0.5206  -0.5156  -0.5142  -0.5012
    -0.4969  -0.4948  -0.4909  -0.4522  -0.4520  -0.4437  -0.4400  -0.4397
    -0.3627  -0.3620  -0.3597  -0.3591  -0.3504  -0.3494  -0.3137  -0.3010
    -0.3007  -0.2726  -0.2688  -0.2645  -0.1471  -0.1466  -0.0448   0.3705
     0.3706   0.3737   0.3739   0.4340   0.4378   0.8232   0.8239   0.8663
     0.8667   0.9763   1.0556   1.1662   1.1679   1.3872   1.3921   2.0199
     2.0218   2.1823   2.1842   2.3139   2.3174   2.4193   2.4194   2.5735
     2.8107   2.8159   2.9343   3.1592   3.1606   3.2427   3.2434   3.3429
     3.3586   3.5534   3.5556   3.6146   3.8157   3.8160   3.8776   3.8796
     4.1356   4.1424   4.1449   4.3861   4.4271   4.4290   4.4736   4.8094
     4.8104   4.8394   4.9734   5.1431   5.1468   5.1762   5.2053   5.3527
     5.7650   5.9037   5.9332   5.9409   5.9423   6.0091   6.0097   6.0743
     6.1101   6.1226   6.1441   6.1706   6.1732   6.1919   6.1989   6.2310
     6.2342   6.3988   6.5416   6.6753   6.7373   6.7549   6.8798   6.8819
     6.8904   7.0008   7.0111

          k =-0.2500 0.4330-0.1111 (136853 PWs)   bands (ev):

   -18.7775  -6.5977  -6.3439  -5.9462  -5.9432  -5.2667  -4.9338  -4.9328
    -4.8959  -4.8919  -4.5335  -4.5323  -4.4346  -4.4341  -4.4201  -4.3984
    -4.3729  -4.2673  -4.2663  -4.2426  -4.1994  -4.1988  -4.1303  -4.1299
    -4.1231  -4.1230  -4.1019  -4.0973  -4.0944  -4.0256  -4.0211  -3.9943
    -3.9927  -3.9815  -3.9812  -3.9582  -3.9580  -3.9356  -3.9272  -3.9270
    -3.9005  -3.8484  -3.8479  -3.8010  -3.7992  -3.7408  -3.7405  -3.6862
    -3.6861  -3.6859  -3.6851  -3.6504  -3.6113  -3.6109  -3.6046  -3.6034
    -3.6031  -3.5729  -3.5719  -3.5639  -3.5022  -3.5019  -3.4925  -3.4760
    -3.4688  -3.3970  -3.3959  -3.3635  -3.3619  -3.3353  -3.3342  -3.3215
    -3.3049  -3.2451  -3.2444  -3.2273  -3.2265  -3.1752  -3.1704  -3.1699
    -3.1316  -3.1010  -3.0996  -3.0923  -3.0909  -3.0785  -3.0780  -3.0705
    -3.0698  -3.0605  -3.0195  -2.9827  -2.9808  -2.9671  -2.9667  -2.9410
    -2.9316  -2.9310  -2.9097  -2.8661  -2.8641  -2.8563  -2.8186  -2.8137
    -2.8096  -2.7985  -2.7975  -2.7692  -2.7676  -2.7395  -2.7018  -2.7008
    -2.6796  -2.6723  -2.6584  -2.6577  -2.6077  -2.6074  -2.5745  -2.5521
    -2.5519  -2.5282  -2.5272  -2.5166  -2.5156  -2.5056  -2.4830  -2.4822
    -2.4380  -2.4372  -2.4366  -2.4200  -2.4190  -2.4143  -2.4049  -2.4030
    -2.4021  -2.4017  -2.3961  -2.3837  -2.3825  -2.3740  -2.3472  -2.3465
    -2.3450  -2.3446  -2.3435  -2.3414  -2.3400  -2.3131  -2.3099  -2.2960
    -2.2954  -2.2781  -2.2775  -2.2678  -2.2673  -2.2668  -2.2652  -2.2469
    -2.2454  -2.2451  -2.2426  -2.2271  -2.2008  -2.2000  -2.1609  -2.1594
    -2.1350  -2.1341  -2.1071  -2.1067  -2.0797  -2.0788  -2.0616  -2.0574
    -2.0302  -2.0092  -2.0076  -2.0028  -2.0022  -1.9982  -1.9916  -1.9901
    -1.9650  -1.9581  -1.9486  -1.8913  -1.8884  -1.8868  -1.8845  -1.8840
    -1.8471  -1.8292  -1.8270  -1.8003  -1.8001  -1.7404  -1.7387  -1.7110
    -1.6926  -1.6919  -1.6312  -1.6303  -1.6196  -1.6181  -1.6079  -1.6072
    -1.6043  -1.5954  -1.5935  -1.5400  -1.5387  -1.5266  -1.5264  -1.5261
    -1.5074  -1.5053  -1.4713  -1.4704  -1.4537  -1.4533  -1.4525  -1.4461
    -1.4422  -1.4323  -1.4308  -1.4127  -1.4118  -1.3729  -1.3712  -1.3589
    -1.3574  -1.3378  -1.3243  -1.2818  -1.2804  -1.2559  -1.2503  -1.2497
    -1.2208  -1.1725  -1.1690  -1.1681  -1.1671  -1.1628  -1.1613  -1.1511
    -1.1334  -1.1318  -1.0934  -1.0913  -1.0619  -1.0616  -1.0568  -1.0564
    -1.0481  -1.0340  -1.0323  -1.0310  -1.0278  -1.0272  -1.0022  -0.9905
    -0.9880  -0.9876  -0.9605  -0.9567  -0.9538  -0.9372  -0.9221  -0.9209
    -0.8800  -0.8733  -0.8666  -0.8459  -0.8292  -0.8174  -0.8122  -0.8109
    -0.8044  -0.8037  -0.8026  -0.7946  -0.7908  -0.7771  -0.7649  -0.7631
    -0.7610  -0.7593  -0.7532  -0.7219  -0.7216  -0.7122  -0.7038  -0.6924
    -0.6880  -0.6810  -0.6743  -0.6202  -0.6173  -0.6094  -0.6091  -0.6079
    -0.6052  -0.6006  -0.5830  -0.5807  -0.5742  -0.5732  -0.5721  -0.5681
    -0.5321  -0.5302  -0.5289  -0.5217  -0.5202  -0.5153  -0.5141  -0.5009
    -0.4966  -0.4950  -0.4916  -0.4527  -0.4516  -0.4439  -0.4404  -0.4391
    -0.3632  -0.3616  -0.3597  -0.3590  -0.3505  -0.3494  -0.3136  -0.3011
    -0.3006  -0.2743  -0.2687  -0.2627  -0.1486  -0.1451  -0.0448   0.3705
     0.3708   0.3734   0.3740   0.4329   0.4389   0.8227   0.8244   0.8657
     0.8672   0.9766   1.0555   1.1634   1.1706   1.3831   1.3960   2.0197
     2.0221   2.1808   2.1859   2.3121   2.3192   2.4189   2.4197   2.5733
     2.8101   2.8172   2.9339   3.1553   3.1639   3.2426   3.2440   3.3426
     3.3586   3.5416   3.5667   3.6154   3.8150   3.8167   3.8784   3.8799
     4.1351   4.1406   4.1463   4.3867   4.4270   4.4288   4.4734   4.8077
     4.8122   4.8379   4.9741   5.1438   5.1472   5.1624   5.2155   5.3593
     5.7659   5.9016   5.9339   5.9383   5.9450   6.0078   6.0109   6.0770
     6.1058   6.1241   6.1437   6.1703   6.1744   6.1836   6.2052   6.2317
     6.2345   6.4000   6.5315   6.6856   6.7248   6.7647   6.8772   6.8835
     6.8902   6.9984   7.0234

          k = 0.2500-0.4330-0.1111 (136853 PWs)   bands (ev):

   -18.7775  -6.5977  -6.3439  -5.9462  -5.9432  -5.2667  -4.9338  -4.9328
    -4.8959  -4.8919  -4.5335  -4.5323  -4.4346  -4.4341  -4.4201  -4.3984
    -4.3729  -4.2673  -4.2663  -4.2426  -4.1994  -4.1988  -4.1303  -4.1299
    -4.1231  -4.1230  -4.1019  -4.0973  -4.0944  -4.0256  -4.0211  -3.9943
    -3.9927  -3.9815  -3.9812  -3.9582  -3.9580  -3.9356  -3.9272  -3.9270
    -3.9005  -3.8484  -3.8479  -3.8010  -3.7992  -3.7408  -3.7405  -3.6862
    -3.6861  -3.6859  -3.6851  -3.6504  -3.6113  -3.6109  -3.6046  -3.6034
    -3.6031  -3.5729  -3.5719  -3.5639  -3.5022  -3.5019  -3.4925  -3.4760
    -3.4688  -3.3970  -3.3959  -3.3635  -3.3619  -3.3353  -3.3342  -3.3215
    -3.3049  -3.2451  -3.2444  -3.2273  -3.2265  -3.1752  -3.1704  -3.1699
    -3.1316  -3.1010  -3.0996  -3.0923  -3.0909  -3.0785  -3.0780  -3.0705
    -3.0698  -3.0605  -3.0195  -2.9827  -2.9808  -2.9671  -2.9667  -2.9410
    -2.9316  -2.9310  -2.9097  -2.8661  -2.8641  -2.8563  -2.8186  -2.8137
    -2.8096  -2.7985  -2.7975  -2.7692  -2.7676  -2.7395  -2.7018  -2.7008
    -2.6796  -2.6723  -2.6584  -2.6577  -2.6077  -2.6074  -2.5745  -2.5521
    -2.5519  -2.5282  -2.5272  -2.5166  -2.5156  -2.5056  -2.4830  -2.4822
    -2.4380  -2.4372  -2.4366  -2.4200  -2.4190  -2.4143  -2.4049  -2.4030
    -2.4021  -2.4017  -2.3961  -2.3837  -2.3825  -2.3740  -2.3472  -2.3465
    -2.3450  -2.3446  -2.3435  -2.3414  -2.3400  -2.3131  -2.3099  -2.2960
    -2.2954  -2.2781  -2.2775  -2.2678  -2.2673  -2.2668  -2.2652  -2.2469
    -2.2454  -2.2451  -2.2426  -2.2271  -2.2008  -2.2000  -2.1609  -2.1594
    -2.1350  -2.1341  -2.1071  -2.1067  -2.0797  -2.0788  -2.0616  -2.0574
    -2.0302  -2.0092  -2.0076  -2.0028  -2.0022  -1.9982  -1.9916  -1.9901
    -1.9650  -1.9581  -1.9486  -1.8913  -1.8884  -1.8868  -1.8845  -1.8840
    -1.8471  -1.8292  -1.8270  -1.8003  -1.8001  -1.7404  -1.7387  -1.7110
    -1.6926  -1.6919  -1.6312  -1.6303  -1.6196  -1.6181  -1.6079  -1.6072
    -1.6043  -1.5954  -1.5935  -1.5400  -1.5387  -1.5266  -1.5264  -1.5261
    -1.5074  -1.5053  -1.4713  -1.4704  -1.4537  -1.4533  -1.4525  -1.4461
    -1.4422  -1.4323  -1.4308  -1.4127  -1.4118  -1.3729  -1.3712  -1.3589
    -1.3574  -1.3378  -1.3243  -1.2818  -1.2804  -1.2559  -1.2503  -1.2497
    -1.2208  -1.1725  -1.1690  -1.1681  -1.1671  -1.1628  -1.1613  -1.1511
    -1.1334  -1.1318  -1.0934  -1.0913  -1.0619  -1.0616  -1.0568  -1.0564
    -1.0481  -1.0340  -1.0323  -1.0310  -1.0278  -1.0272  -1.0022  -0.9905
    -0.9880  -0.9876  -0.9605  -0.9567  -0.9538  -0.9372  -0.9221  -0.9209
    -0.8800  -0.8733  -0.8666  -0.8459  -0.8292  -0.8174  -0.8122  -0.8109
    -0.8044  -0.8037  -0.8026  -0.7946  -0.7908  -0.7771  -0.7649  -0.7631
    -0.7610  -0.7593  -0.7532  -0.7219  -0.7216  -0.7122  -0.7038  -0.6924
    -0.6880  -0.6810  -0.6743  -0.6202  -0.6173  -0.6094  -0.6091  -0.6079
    -0.6052  -0.6006  -0.5830  -0.5807  -0.5742  -0.5732  -0.5721  -0.5681
    -0.5321  -0.5302  -0.5289  -0.5217  -0.5202  -0.5153  -0.5141  -0.5009
    -0.4966  -0.4950  -0.4916  -0.4527  -0.4516  -0.4439  -0.4404  -0.4391
    -0.3632  -0.3616  -0.3597  -0.3590  -0.3505  -0.3494  -0.3136  -0.3011
    -0.3006  -0.2743  -0.2687  -0.2627  -0.1486  -0.1451  -0.0448   0.3705
     0.3708   0.3734   0.3740   0.4329   0.4389   0.8227   0.8244   0.8657
     0.8672   0.9766   1.0555   1.1634   1.1706   1.3831   1.3960   2.0197
     2.0221   2.1808   2.1859   2.3121   2.3192   2.4189   2.4197   2.5733
     2.8101   2.8172   2.9339   3.1553   3.1639   3.2426   3.2440   3.3426
     3.3586   3.5416   3.5667   3.6154   3.8150   3.8167   3.8784   3.8799
     4.1351   4.1406   4.1463   4.3867   4.4270   4.4288   4.4734   4.8077
     4.8122   4.8379   4.9741   5.1438   5.1472   5.1624   5.2156   5.3593
     5.7658   5.9019   5.9339   5.9383   5.9450   6.0078   6.0109   6.0770
     6.1053   6.1230   6.1437   6.1702   6.1740   6.1837   6.2058   6.2317
     6.2345   6.4022   6.5291   6.6796   6.7399   6.7657   6.8776   6.8836
     6.8904   6.9986   7.0069

          k = 0.5000 0.0000 0.1111 (136853 PWs)   bands (ev):

   -18.7775  -6.5977  -6.3439  -5.9463  -5.9431  -5.2667  -4.9342  -4.9324
    -4.8960  -4.8918  -4.5337  -4.5321  -4.4345  -4.4342  -4.4201  -4.3983
    -4.3729  -4.2672  -4.2664  -4.2426  -4.1993  -4.1990  -4.1304  -4.1297
    -4.1237  -4.1225  -4.1018  -4.0976  -4.0941  -4.0260  -4.0207  -3.9945
    -3.9924  -3.9816  -3.9811  -3.9581  -3.9581  -3.9356  -3.9273  -3.9270
    -3.9006  -3.8484  -3.8480  -3.8013  -3.7990  -3.7407  -3.7406  -3.6863
    -3.6862  -3.6857  -3.6852  -3.6504  -3.6112  -3.6110  -3.6046  -3.6036
    -3.6029  -3.5731  -3.5716  -3.5640  -3.5021  -3.5019  -3.4925  -3.4760
    -3.4688  -3.3969  -3.3960  -3.3633  -3.3621  -3.3352  -3.3343  -3.3215
    -3.3049  -3.2452  -3.2442  -3.2273  -3.2265  -3.1753  -3.1703  -3.1699
    -3.1316  -3.1015  -3.0992  -3.0921  -3.0911  -3.0784  -3.0779  -3.0705
    -3.0698  -3.0605  -3.0195  -2.9825  -2.9809  -2.9671  -2.9667  -2.9409
    -2.9314  -2.9312  -2.9097  -2.8658  -2.8645  -2.8570  -2.8174  -2.8147
    -2.8098  -2.7987  -2.7972  -2.7691  -2.7663  -2.7396  -2.7017  -2.7012
    -2.6796  -2.6723  -2.6587  -2.6579  -2.6080  -2.6069  -2.5745  -2.5522
    -2.5520  -2.5281  -2.5271  -2.5163  -2.5159  -2.5056  -2.4830  -2.4820
    -2.4383  -2.4370  -2.4365  -2.4200  -2.4190  -2.4143  -2.4048  -2.4032
    -2.4023  -2.4014  -2.3962  -2.3837  -2.3825  -2.3744  -2.3472  -2.3464
    -2.3450  -2.3447  -2.3436  -2.3417  -2.3398  -2.3130  -2.3099  -2.2958
    -2.2954  -2.2781  -2.2775  -2.2676  -2.2675  -2.2671  -2.2648  -2.2467
    -2.2456  -2.2452  -2.2424  -2.2271  -2.2006  -2.2002  -2.1610  -2.1593
    -2.1351  -2.1341  -2.1071  -2.1069  -2.0796  -2.0786  -2.0616  -2.0574
    -2.0303  -2.0090  -2.0079  -2.0027  -2.0022  -1.9981  -1.9915  -1.9898
    -1.9651  -1.9582  -1.9486  -1.8913  -1.8886  -1.8866  -1.8850  -1.8835
    -1.8473  -1.8292  -1.8270  -1.8005  -1.7999  -1.7404  -1.7386  -1.7111
    -1.6924  -1.6919  -1.6312  -1.6303  -1.6196  -1.6181  -1.6080  -1.6071
    -1.6043  -1.5952  -1.5937  -1.5407  -1.5380  -1.5271  -1.5262  -1.5259
    -1.5076  -1.5049  -1.4712  -1.4705  -1.4537  -1.4532  -1.4525  -1.4461
    -1.4423  -1.4324  -1.4307  -1.4126  -1.4119  -1.3739  -1.3704  -1.3590
    -1.3569  -1.3378  -1.3243  -1.2819  -1.2804  -1.2559  -1.2504  -1.2498
    -1.2207  -1.1718  -1.1695  -1.1682  -1.1671  -1.1627  -1.1610  -1.1512
    -1.1335  -1.1317  -1.0932  -1.0915  -1.0625  -1.0613  -1.0576  -1.0557
    -1.0480  -1.0344  -1.0322  -1.0311  -1.0278  -1.0274  -1.0026  -0.9896
    -0.9881  -0.9873  -0.9618  -0.9564  -0.9527  -0.9365  -0.9233  -0.9196
    -0.8815  -0.8731  -0.8666  -0.8458  -0.8292  -0.8169  -0.8127  -0.8112
    -0.8043  -0.8039  -0.8024  -0.7948  -0.7911  -0.7763  -0.7652  -0.7620
    -0.7615  -0.7597  -0.7526  -0.7222  -0.7214  -0.7115  -0.7051  -0.6928
    -0.6879  -0.6803  -0.6741  -0.6201  -0.6175  -0.6094  -0.6089  -0.6078
    -0.6055  -0.6009  -0.5829  -0.5805  -0.5740  -0.5736  -0.5716  -0.5686
    -0.5323  -0.5297  -0.5293  -0.5214  -0.5203  -0.5155  -0.5141  -0.5013
    -0.4969  -0.4947  -0.4912  -0.4524  -0.4519  -0.4439  -0.4400  -0.4396
    -0.3628  -0.3620  -0.3597  -0.3590  -0.3503  -0.3496  -0.3136  -0.3010
    -0.3006  -0.2727  -0.2688  -0.2644  -0.1481  -0.1455  -0.0447   0.3705
     0.3709   0.3733   0.3741   0.4339   0.4377   0.8226   0.8246   0.8660
     0.8669   0.9765   1.0556   1.1639   1.1703   1.3837   1.3954   2.0198
     2.0220   2.1816   2.1849   2.3131   2.3182   2.4186   2.4201   2.5734
     2.8105   2.8168   2.9341   3.1557   3.1637   3.2421   3.2442   3.3427
     3.3586   3.5406   3.5679   3.6149   3.8152   3.8166   3.8778   3.8803
     4.1349   4.1414   4.1459   4.3866   4.4266   4.4293   4.4733   4.8083
     4.8114   4.8383   4.9740   5.1413   5.1468   5.1562   5.2183   5.3762
     5.7370   5.9308   5.9338   5.9398   5.9438   6.0084   6.0096   6.0691
     6.0928   6.1196   6.1443   6.1702   6.1738   6.1841   6.2056   6.2317
     6.2360   6.3847   6.5698   6.6849   6.7266   6.7815   6.8774   6.8839
     6.8898   6.9826   7.0028

          k =-0.5000 0.0000 0.1111 (136853 PWs)   bands (ev):

   -18.7775  -6.5977  -6.3439  -5.9463  -5.9431  -5.2667  -4.9342  -4.9324
    -4.8960  -4.8918  -4.5337  -4.5321  -4.4345  -4.4342  -4.4201  -4.3983
    -4.3729  -4.2672  -4.2664  -4.2426  -4.1993  -4.1990  -4.1304  -4.1297
    -4.1237  -4.1225  -4.1018  -4.0976  -4.0941  -4.0260  -4.0207  -3.9945
    -3.9924  -3.9816  -3.9811  -3.9581  -3.9581  -3.9356  -3.9273  -3.9270
    -3.9006  -3.8484  -3.8480  -3.8013  -3.7990  -3.7407  -3.7406  -3.6863
    -3.6862  -3.6857  -3.6852  -3.6504  -3.6112  -3.6110  -3.6046  -3.6036
    -3.6029  -3.5731  -3.5716  -3.5640  -3.5021  -3.5019  -3.4925  -3.4760
    -3.4688  -3.3969  -3.3960  -3.3633  -3.3621  -3.3352  -3.3343  -3.3215
    -3.3049  -3.2452  -3.2442  -3.2273  -3.2265  -3.1753  -3.1703  -3.1699
    -3.1316  -3.1015  -3.0992  -3.0921  -3.0911  -3.0784  -3.0779  -3.0705
    -3.0698  -3.0605  -3.0195  -2.9825  -2.9809  -2.9671  -2.9667  -2.9409
    -2.9314  -2.9312  -2.9097  -2.8658  -2.8645  -2.8570  -2.8174  -2.8147
    -2.8098  -2.7987  -2.7972  -2.7691  -2.7663  -2.7396  -2.7017  -2.7012
    -2.6796  -2.6723  -2.6587  -2.6579  -2.6080  -2.6069  -2.5745  -2.5522
    -2.5520  -2.5281  -2.5271  -2.5163  -2.5159  -2.5056  -2.4830  -2.4820
    -2.4383  -2.4370  -2.4365  -2.4200  -2.4190  -2.4143  -2.4048  -2.4032
    -2.4023  -2.4014  -2.3962  -2.3837  -2.3825  -2.3744  -2.3472  -2.3464
    -2.3450  -2.3447  -2.3436  -2.3417  -2.3398  -2.3130  -2.3099  -2.2958
    -2.2954  -2.2781  -2.2775  -2.2676  -2.2675  -2.2671  -2.2648  -2.2467
    -2.2456  -2.2452  -2.2424  -2.2271  -2.2006  -2.2002  -2.1610  -2.1593
    -2.1351  -2.1341  -2.1071  -2.1069  -2.0796  -2.0786  -2.0616  -2.0574
    -2.0303  -2.0090  -2.0079  -2.0027  -2.0022  -1.9981  -1.9915  -1.9898
    -1.9651  -1.9582  -1.9486  -1.8913  -1.8886  -1.8866  -1.8850  -1.8835
    -1.8473  -1.8292  -1.8270  -1.8005  -1.7999  -1.7404  -1.7386  -1.7111
    -1.6924  -1.6919  -1.6312  -1.6303  -1.6196  -1.6181  -1.6080  -1.6071
    -1.6043  -1.5952  -1.5937  -1.5407  -1.5380  -1.5271  -1.5262  -1.5259
    -1.5076  -1.5049  -1.4712  -1.4705  -1.4537  -1.4532  -1.4525  -1.4461
    -1.4423  -1.4324  -1.4307  -1.4126  -1.4119  -1.3739  -1.3704  -1.3590
    -1.3569  -1.3378  -1.3243  -1.2819  -1.2804  -1.2559  -1.2504  -1.2498
    -1.2207  -1.1718  -1.1695  -1.1682  -1.1671  -1.1627  -1.1610  -1.1512
    -1.1335  -1.1317  -1.0932  -1.0915  -1.0625  -1.0613  -1.0576  -1.0557
    -1.0480  -1.0344  -1.0322  -1.0311  -1.0278  -1.0274  -1.0026  -0.9896
    -0.9881  -0.9873  -0.9618  -0.9564  -0.9527  -0.9365  -0.9233  -0.9196
    -0.8815  -0.8731  -0.8666  -0.8458  -0.8292  -0.8169  -0.8127  -0.8112
    -0.8043  -0.8039  -0.8024  -0.7948  -0.7911  -0.7763  -0.7652  -0.7620
    -0.7615  -0.7597  -0.7526  -0.7222  -0.7214  -0.7115  -0.7051  -0.6928
    -0.6879  -0.6803  -0.6741  -0.6201  -0.6175  -0.6094  -0.6089  -0.6078
    -0.6055  -0.6009  -0.5829  -0.5805  -0.5740  -0.5736  -0.5716  -0.5686
    -0.5323  -0.5297  -0.5293  -0.5214  -0.5203  -0.5155  -0.5141  -0.5013
    -0.4969  -0.4947  -0.4912  -0.4524  -0.4519  -0.4439  -0.4400  -0.4396
    -0.3628  -0.3620  -0.3597  -0.3590  -0.3503  -0.3496  -0.3136  -0.3010
    -0.3006  -0.2727  -0.2688  -0.2644  -0.1481  -0.1455  -0.0447   0.3705
     0.3709   0.3733   0.3741   0.4339   0.4377   0.8226   0.8246   0.8660
     0.8669   0.9765   1.0556   1.1639   1.1703   1.3837   1.3954   2.0198
     2.0220   2.1816   2.1849   2.3131   2.3182   2.4186   2.4201   2.5734
     2.8105   2.8168   2.9341   3.1557   3.1637   3.2421   3.2442   3.3427
     3.3586   3.5406   3.5679   3.6149   3.8152   3.8166   3.8778   3.8803
     4.1349   4.1414   4.1459   4.3866   4.4266   4.4293   4.4733   4.8083
     4.8114   4.8383   4.9740   5.1413   5.1468   5.1562   5.2183   5.3763
     5.7361   5.9308   5.9338   5.9398   5.9438   6.0084   6.0096   6.0711
     6.0935   6.1197   6.1442   6.1700   6.1738   6.1836   6.2054   6.2317
     6.2360   6.3875   6.5700   6.6610   6.7367   6.7852   6.8781   6.8838
     6.8897   6.9977   7.0046

          k =-0.2500 0.1443 0.1111 (136898 PWs)   bands (ev):

   -18.7775  -6.5988  -6.5528  -5.7620  -5.4706  -5.4117  -5.4116  -4.8733
    -4.8732  -4.7413  -4.7411  -4.5861  -4.5554  -4.4936  -4.4601  -4.4594
    -4.4266  -4.4266  -4.2980  -4.2563  -4.2561  -4.1963  -4.1751  -4.1749
    -4.0727  -4.0727  -4.0365  -4.0363  -4.0363  -4.0093  -3.9878  -3.9877
    -3.8825  -3.8806  -3.8804  -3.8599  -3.8429  -3.8428  -3.8307  -3.8304
    -3.8172  -3.7872  -3.7870  -3.7867  -3.7867  -3.7540  -3.7539  -3.7363
    -3.7363  -3.7221  -3.6785  -3.6784  -3.6481  -3.6332  -3.6322  -3.6280
    -3.6280  -3.5534  -3.5533  -3.5181  -3.5158  -3.5153  -3.4479  -3.4478
    -3.4324  -3.4322  -3.4016  -3.4012  -3.4002  -3.3999  -3.2468  -3.2464
    -3.2215  -3.2210  -3.2160  -3.1999  -3.1996  -3.1739  -3.1737  -3.1239
    -3.1238  -3.1077  -3.1074  -3.0872  -3.0389  -3.0386  -3.0190  -3.0140
    -3.0137  -2.9731  -2.9728  -2.9666  -2.9662  -2.9499  -2.9493  -2.9101
    -2.9101  -2.8893  -2.8882  -2.8853  -2.8849  -2.8817  -2.8166  -2.8047
    -2.8034  -2.8026  -2.7742  -2.7738  -2.7122  -2.7110  -2.6840  -2.6827
    -2.6696  -2.6694  -2.6640  -2.6345  -2.6342  -2.6248  -2.6072  -2.5817
    -2.5815  -2.5809  -2.5604  -2.5601  -2.5490  -2.5487  -2.5460  -2.5449
    -2.5372  -2.4913  -2.4588  -2.4586  -2.4433  -2.4292  -2.4228  -2.4225
    -2.4153  -2.4148  -2.4133  -2.3837  -2.3834  -2.3832  -2.3735  -2.3733
    -2.3562  -2.3290  -2.3280  -2.3276  -2.3271  -2.3269  -2.2814  -2.2503
    -2.2498  -2.2494  -2.2427  -2.2339  -2.2211  -2.2208  -2.2041  -2.2040
    -2.1709  -2.1691  -2.1688  -2.1502  -2.1492  -2.1483  -2.1162  -2.1152
    -2.0750  -2.0737  -2.0667  -2.0646  -2.0645  -2.0581  -2.0579  -2.0555
    -2.0552  -2.0492  -2.0475  -2.0319  -2.0309  -1.9051  -1.9033  -1.8721
    -1.8662  -1.8648  -1.8599  -1.8597  -1.8423  -1.8418  -1.8394  -1.8385
    -1.8371  -1.8142  -1.8077  -1.8054  -1.8034  -1.7941  -1.7937  -1.7710
    -1.7707  -1.7422  -1.7420  -1.7105  -1.7095  -1.6996  -1.6915  -1.6738
    -1.6734  -1.6705  -1.6522  -1.6399  -1.6396  -1.6324  -1.6321  -1.6057
    -1.6053  -1.5883  -1.5882  -1.5573  -1.5559  -1.5461  -1.4954  -1.4952
    -1.4837  -1.4821  -1.4819  -1.4566  -1.4542  -1.4208  -1.4202  -1.4197
    -1.3881  -1.3768  -1.3755  -1.3602  -1.3598  -1.3340  -1.3326  -1.3317
    -1.3020  -1.2994  -1.2992  -1.2368  -1.2361  -1.2241  -1.2226  -1.2069
    -1.2066  -1.1942  -1.1939  -1.1758  -1.1632  -1.1361  -1.1351  -1.1246
    -1.1033  -1.0867  -1.0853  -1.0739  -1.0735  -1.0724  -1.0675  -1.0659
    -1.0525  -1.0233  -1.0216  -1.0190  -1.0113  -1.0090  -1.0081  -0.9849
    -0.9731  -0.9664  -0.9475  -0.9450  -0.8664  -0.8410  -0.8387  -0.8332
    -0.8326  -0.8286  -0.8238  -0.8147  -0.7981  -0.7880  -0.7828  -0.7732
    -0.7680  -0.7590  -0.7584  -0.7383  -0.7367  -0.7283  -0.7258  -0.6561
    -0.6558  -0.6223  -0.6186  -0.6174  -0.6109  -0.6091  -0.6088  -0.6066
    -0.5959  -0.5922  -0.5743  -0.5546  -0.5384  -0.5204  -0.5194  -0.5089
    -0.5072  -0.4959  -0.4951  -0.4944  -0.4932  -0.4914  -0.4756  -0.4713
    -0.4698  -0.4405  -0.4389  -0.4377  -0.4265  -0.4264  -0.4072  -0.3752
    -0.3745  -0.3659  -0.3649  -0.2974  -0.2974  -0.2601  -0.2600  -0.2021
    -0.2009  -0.2006  -0.1871  -0.1726   0.0499   0.0577   0.3989   0.3989
     0.4883   0.4947   0.6847   0.7006   0.7165   0.8466   0.8483   1.2790
     1.2792   1.2973   1.5559   1.5891   1.5892   1.8630   1.8719   1.9450
     1.9457   1.9708   1.9759   2.2015   2.2020   2.2901   2.2906   2.3623
     2.4267   2.4348   2.5937   2.6917   3.1317   3.1329   3.1357   3.1370
     3.1900   3.1913   3.4830   3.4835   3.7618   3.7686   3.8672   4.1790
     4.2201   4.2242   4.4230   4.4560   4.5227   4.5233   4.6140   4.7317
     4.7334   4.8490   4.8505   5.1537   5.2167   5.2229   5.2378   5.4019
     5.4111   5.6091   5.6119   5.6367   5.6380   5.6975   5.7024   5.7358
     5.7831   6.0312   6.2540   6.3048   6.3316   6.4422   6.4433   6.4552
     6.4589   6.5197   6.6181   6.6944   6.7003   6.7941   6.8983   6.9093
     6.9401   7.0017   7.0507

          k =-0.2500-0.1443-0.1111 (136898 PWs)   bands (ev):

   -18.7775  -6.5987  -6.5528  -5.7620  -5.4706  -5.4117  -5.4115  -4.8733
    -4.8731  -4.7417  -4.7408  -4.5860  -4.5554  -4.4937  -4.4600  -4.4596
    -4.4268  -4.4263  -4.2980  -4.2565  -4.2559  -4.1961  -4.1752  -4.1749
    -4.0727  -4.0726  -4.0366  -4.0363  -4.0363  -4.0092  -3.9880  -3.9874
    -3.8825  -3.8808  -3.8804  -3.8597  -3.8431  -3.8428  -3.8307  -3.8305
    -3.8171  -3.7872  -3.7870  -3.7867  -3.7865  -3.7542  -3.7538  -3.7363
    -3.7362  -3.7219  -3.6788  -3.6783  -3.6483  -3.6330  -3.6324  -3.6281
    -3.6279  -3.5535  -3.5533  -3.5179  -3.5156  -3.5153  -3.4481  -3.4479
    -3.4323  -3.4321  -3.4014  -3.4009  -3.4007  -3.4003  -3.2468  -3.2466
    -3.2213  -3.2211  -3.2160  -3.1999  -3.1997  -3.1738  -3.1735  -3.1240
    -3.1238  -3.1077  -3.1074  -3.0871  -3.0390  -3.0383  -3.0191  -3.0141
    -3.0139  -2.9732  -2.9729  -2.9664  -2.9663  -2.9499  -2.9496  -2.9100
    -2.9099  -2.8888  -2.8882  -2.8851  -2.8849  -2.8818  -2.8182  -2.8046
    -2.8035  -2.8013  -2.7743  -2.7739  -2.7122  -2.7112  -2.6838  -2.6826
    -2.6694  -2.6693  -2.6640  -2.6345  -2.6341  -2.6248  -2.6071  -2.5818
    -2.5814  -2.5812  -2.5603  -2.5602  -2.5495  -2.5489  -2.5454  -2.5451
    -2.5373  -2.4912  -2.4588  -2.4587  -2.4431  -2.4293  -2.4226  -2.4225
    -2.4152  -2.4150  -2.4135  -2.3837  -2.3833  -2.3832  -2.3736  -2.3731
    -2.3560  -2.3292  -2.3285  -2.3276  -2.3269  -2.3265  -2.2816  -2.2505
    -2.2497  -2.2495  -2.2426  -2.2340  -2.2211  -2.2206  -2.2039  -2.2039
    -2.1709  -2.1689  -2.1688  -2.1503  -2.1491  -2.1485  -2.1159  -2.1154
    -2.0751  -2.0735  -2.0665  -2.0646  -2.0643  -2.0582  -2.0580  -2.0562
    -2.0550  -2.0487  -2.0478  -2.0318  -2.0312  -1.9046  -1.9037  -1.8719
    -1.8659  -1.8651  -1.8598  -1.8596  -1.8427  -1.8425  -1.8391  -1.8386
    -1.8368  -1.8142  -1.8070  -1.8058  -1.8036  -1.7939  -1.7934  -1.7712
    -1.7710  -1.7425  -1.7420  -1.7102  -1.7098  -1.6994  -1.6915  -1.6737
    -1.6734  -1.6702  -1.6523  -1.6400  -1.6398  -1.6324  -1.6322  -1.6054
    -1.6052  -1.5888  -1.5879  -1.5576  -1.5561  -1.5462  -1.4957  -1.4950
    -1.4837  -1.4821  -1.4818  -1.4568  -1.4540  -1.4207  -1.4201  -1.4199
    -1.3880  -1.3765  -1.3756  -1.3600  -1.3597  -1.3340  -1.3327  -1.3318
    -1.3020  -1.2993  -1.2992  -1.2368  -1.2364  -1.2240  -1.2228  -1.2071
    -1.2066  -1.1940  -1.1937  -1.1753  -1.1630  -1.1358  -1.1354  -1.1248
    -1.1030  -1.0870  -1.0851  -1.0739  -1.0736  -1.0729  -1.0673  -1.0660
    -1.0524  -1.0234  -1.0219  -1.0193  -1.0105  -1.0093  -1.0084  -0.9850
    -0.9737  -0.9662  -0.9476  -0.9447  -0.8660  -0.8421  -0.8386  -0.8330
    -0.8329  -0.8267  -0.8239  -0.8149  -0.7981  -0.7878  -0.7823  -0.7747
    -0.7679  -0.7594  -0.7583  -0.7382  -0.7366  -0.7282  -0.7257  -0.6561
    -0.6557  -0.6218  -0.6187  -0.6175  -0.6105  -0.6093  -0.6090  -0.6064
    -0.5960  -0.5923  -0.5743  -0.5545  -0.5394  -0.5202  -0.5195  -0.5089
    -0.5073  -0.4962  -0.4949  -0.4941  -0.4931  -0.4916  -0.4755  -0.4713
    -0.4697  -0.4405  -0.4390  -0.4374  -0.4267  -0.4260  -0.4073  -0.3752
    -0.3746  -0.3657  -0.3651  -0.2981  -0.2966  -0.2604  -0.2598  -0.2021
    -0.2011  -0.2004  -0.1871  -0.1726   0.0514   0.0560   0.3989   0.3989
     0.4899   0.4935   0.6829   0.7017   0.7171   0.8472   0.8478   1.2790
     1.2793   1.2973   1.5563   1.5889   1.5893   1.8653   1.8691   1.9452
     1.9454   1.9724   1.9745   2.2015   2.2019   2.2902   2.2904   2.3628
     2.4284   2.4323   2.5937   2.6921   3.1317   3.1323   3.1361   3.1369
     3.1908   3.1911   3.4832   3.4833   3.7641   3.7667   3.8671   4.1790
     4.2213   4.2229   4.4301   4.4481   4.5218   4.5247   4.6142   4.7311
     4.7337   4.8495   4.8502   5.1537   5.2158   5.2240   5.2390   5.3941
     5.4147   5.6100   5.6115   5.6363   5.6377   5.6987   5.7016   5.7325
     5.7893   6.0262   6.2546   6.3052   6.3354   6.4429   6.4444   6.4560
     6.4576   6.5185   6.6179   6.6948   6.6984   6.7896   6.8973   6.9163
     6.9394   7.0000   7.0569

          k = 0.2500 0.1443-0.1111 (136898 PWs)   bands (ev):

   -18.7775  -6.5988  -6.5528  -5.7620  -5.4706  -5.4117  -5.4115  -4.8733
    -4.8731  -4.7417  -4.7408  -4.5860  -4.5554  -4.4937  -4.4600  -4.4596
    -4.4268  -4.4263  -4.2980  -4.2565  -4.2559  -4.1961  -4.1751  -4.1749
    -4.0727  -4.0726  -4.0366  -4.0363  -4.0363  -4.0093  -3.9880  -3.9874
    -3.8825  -3.8808  -3.8804  -3.8597  -3.8431  -3.8428  -3.8307  -3.8305
    -3.8171  -3.7872  -3.7870  -3.7867  -3.7865  -3.7542  -3.7538  -3.7363
    -3.7362  -3.7219  -3.6788  -3.6783  -3.6483  -3.6330  -3.6324  -3.6281
    -3.6279  -3.5535  -3.5533  -3.5179  -3.5156  -3.5153  -3.4481  -3.4479
    -3.4323  -3.4321  -3.4014  -3.4009  -3.4007  -3.4003  -3.2468  -3.2466
    -3.2213  -3.2211  -3.2160  -3.1999  -3.1997  -3.1738  -3.1735  -3.1240
    -3.1238  -3.1077  -3.1074  -3.0871  -3.0390  -3.0383  -3.0191  -3.0141
    -3.0139  -2.9732  -2.9729  -2.9664  -2.9663  -2.9499  -2.9496  -2.9100
    -2.9099  -2.8888  -2.8882  -2.8851  -2.8849  -2.8818  -2.8182  -2.8046
    -2.8035  -2.8013  -2.7743  -2.7739  -2.7122  -2.7112  -2.6838  -2.6826
    -2.6694  -2.6693  -2.6640  -2.6345  -2.6341  -2.6248  -2.6071  -2.5818
    -2.5814  -2.5812  -2.5603  -2.5602  -2.5495  -2.5489  -2.5454  -2.5451
    -2.5373  -2.4912  -2.4588  -2.4587  -2.4431  -2.4293  -2.4226  -2.4225
    -2.4152  -2.4150  -2.4135  -2.3837  -2.3833  -2.3832  -2.3736  -2.3731
    -2.3560  -2.3292  -2.3285  -2.3276  -2.3269  -2.3265  -2.2816  -2.2505
    -2.2497  -2.2495  -2.2426  -2.2340  -2.2211  -2.2206  -2.2039  -2.2039
    -2.1709  -2.1689  -2.1688  -2.1503  -2.1491  -2.1485  -2.1159  -2.1154
    -2.0751  -2.0735  -2.0666  -2.0646  -2.0643  -2.0582  -2.0580  -2.0562
    -2.0550  -2.0487  -2.0478  -2.0318  -2.0312  -1.9046  -1.9037  -1.8719
    -1.8659  -1.8651  -1.8598  -1.8596  -1.8427  -1.8425  -1.8391  -1.8386
    -1.8368  -1.8142  -1.8070  -1.8058  -1.8036  -1.7939  -1.7934  -1.7712
    -1.7710  -1.7425  -1.7420  -1.7102  -1.7098  -1.6994  -1.6915  -1.6737
    -1.6734  -1.6702  -1.6522  -1.6400  -1.6398  -1.6324  -1.6322  -1.6054
    -1.6052  -1.5888  -1.5879  -1.5576  -1.5561  -1.5462  -1.4957  -1.4950
    -1.4837  -1.4821  -1.4818  -1.4568  -1.4540  -1.4207  -1.4201  -1.4199
    -1.3880  -1.3765  -1.3756  -1.3600  -1.3597  -1.3340  -1.3327  -1.3318
    -1.3020  -1.2993  -1.2992  -1.2368  -1.2364  -1.2240  -1.2228  -1.2071
    -1.2066  -1.1940  -1.1937  -1.1753  -1.1630  -1.1358  -1.1354  -1.1248
    -1.1030  -1.0870  -1.0851  -1.0739  -1.0736  -1.0729  -1.0673  -1.0660
    -1.0524  -1.0234  -1.0219  -1.0193  -1.0105  -1.0093  -1.0084  -0.9850
    -0.9737  -0.9662  -0.9476  -0.9447  -0.8660  -0.8421  -0.8386  -0.8330
    -0.8329  -0.8268  -0.8239  -0.8149  -0.7981  -0.7878  -0.7823  -0.7747
    -0.7679  -0.7594  -0.7583  -0.7382  -0.7366  -0.7281  -0.7257  -0.6561
    -0.6556  -0.6218  -0.6187  -0.6175  -0.6105  -0.6093  -0.6090  -0.6064
    -0.5960  -0.5923  -0.5743  -0.5545  -0.5393  -0.5202  -0.5195  -0.5088
    -0.5073  -0.4962  -0.4949  -0.4941  -0.4931  -0.4916  -0.4755  -0.4714
    -0.4698  -0.4405  -0.4390  -0.4374  -0.4267  -0.4260  -0.4073  -0.3752
    -0.3746  -0.3657  -0.3651  -0.2981  -0.2966  -0.2604  -0.2598  -0.2021
    -0.2011  -0.2004  -0.1871  -0.1726   0.0514   0.0560   0.3989   0.3989
     0.4899   0.4935   0.6829   0.7017   0.7171   0.8472   0.8478   1.2790
     1.2793   1.2973   1.5563   1.5889   1.5893   1.8653   1.8691   1.9452
     1.9454   1.9724   1.9745   2.2015   2.2019   2.2902   2.2904   2.3628
     2.4284   2.4323   2.5937   2.6921   3.1317   3.1323   3.1361   3.1369
     3.1908   3.1911   3.4831   3.4833   3.7641   3.7667   3.8671   4.1790
     4.2213   4.2229   4.4301   4.4481   4.5218   4.5247   4.6142   4.7312
     4.7337   4.8495   4.8501   5.1537   5.2158   5.2240   5.2389   5.3941
     5.4148   5.6100   5.6115   5.6363   5.6377   5.6986   5.7015   5.7329
     5.7864   6.0313   6.2579   6.3049   6.3353   6.4429   6.4444   6.4557
     6.4575   6.5080   6.6080   6.6947   6.6982   6.8025   6.8978   6.9168
     6.9402   6.9991   7.0615

          k = 0.0000-0.2887 0.1111 (136898 PWs)   bands (ev):

   -18.7775  -6.5987  -6.5528  -5.7620  -5.4706  -5.4117  -5.4116  -4.8732
    -4.8731  -4.7416  -4.7409  -4.5861  -4.5554  -4.4937  -4.4600  -4.4596
    -4.4266  -4.4264  -4.2980  -4.2564  -4.2561  -4.1961  -4.1752  -4.1749
    -4.0727  -4.0726  -4.0366  -4.0363  -4.0363  -4.0093  -3.9878  -3.9876
    -3.8826  -3.8807  -3.8804  -3.8598  -3.8431  -3.8428  -3.8307  -3.8304
    -3.8172  -3.7872  -3.7870  -3.7867  -3.7864  -3.7541  -3.7539  -3.7363
    -3.7362  -3.7219  -3.6787  -3.6784  -3.6483  -3.6330  -3.6324  -3.6280
    -3.6279  -3.5535  -3.5533  -3.5180  -3.5156  -3.5153  -3.4481  -3.4479
    -3.4323  -3.4321  -3.4015  -3.4009  -3.4006  -3.4002  -3.2468  -3.2466
    -3.2213  -3.2210  -3.2161  -3.1999  -3.1997  -3.1739  -3.1734  -3.1240
    -3.1238  -3.1077  -3.1075  -3.0871  -3.0386  -3.0384  -3.0192  -3.0141
    -3.0139  -2.9732  -2.9729  -2.9664  -2.9662  -2.9501  -2.9496  -2.9100
    -2.9099  -2.8885  -2.8881  -2.8851  -2.8848  -2.8819  -2.8199  -2.8046
    -2.8035  -2.7996  -2.7743  -2.7739  -2.7125  -2.7117  -2.6838  -2.6823
    -2.6695  -2.6693  -2.6640  -2.6345  -2.6342  -2.6248  -2.6069  -2.5818
    -2.5814  -2.5809  -2.5604  -2.5602  -2.5493  -2.5490  -2.5458  -2.5449
    -2.5373  -2.4912  -2.4589  -2.4588  -2.4432  -2.4293  -2.4227  -2.4225
    -2.4153  -2.4149  -2.4135  -2.3837  -2.3834  -2.3831  -2.3737  -2.3730
    -2.3560  -2.3289  -2.3286  -2.3280  -2.3268  -2.3264  -2.2816  -2.2505
    -2.2497  -2.2495  -2.2426  -2.2340  -2.2214  -2.2204  -2.2039  -2.2038
    -2.1709  -2.1690  -2.1688  -2.1503  -2.1491  -2.1485  -2.1160  -2.1154
    -2.0750  -2.0736  -2.0665  -2.0646  -2.0643  -2.0582  -2.0581  -2.0558
    -2.0554  -2.0489  -2.0477  -2.0317  -2.0310  -1.9048  -1.9036  -1.8715
    -1.8659  -1.8651  -1.8597  -1.8597  -1.8427  -1.8425  -1.8391  -1.8385
    -1.8369  -1.8142  -1.8070  -1.8060  -1.8035  -1.7939  -1.7934  -1.7712
    -1.7711  -1.7425  -1.7421  -1.7103  -1.7096  -1.6995  -1.6914  -1.6737
    -1.6733  -1.6703  -1.6522  -1.6399  -1.6398  -1.6324  -1.6322  -1.6054
    -1.6051  -1.5887  -1.5879  -1.5574  -1.5565  -1.5460  -1.4956  -1.4951
    -1.4830  -1.4824  -1.4821  -1.4569  -1.4539  -1.4208  -1.4204  -1.4196
    -1.3877  -1.3764  -1.3759  -1.3600  -1.3597  -1.3344  -1.3321  -1.3320
    -1.3020  -1.2994  -1.2992  -1.2369  -1.2365  -1.2238  -1.2231  -1.2073
    -1.2065  -1.1942  -1.1937  -1.1755  -1.1630  -1.1357  -1.1352  -1.1248
    -1.1025  -1.0865  -1.0856  -1.0738  -1.0736  -1.0725  -1.0670  -1.0663
    -1.0524  -1.0245  -1.0216  -1.0198  -1.0110  -1.0093  -1.0084  -0.9850
    -0.9720  -0.9670  -0.9472  -0.9449  -0.8667  -0.8405  -0.8387  -0.8332
    -0.8329  -0.8270  -0.8242  -0.8137  -0.7981  -0.7885  -0.7830  -0.7742
    -0.7680  -0.7596  -0.7586  -0.7384  -0.7367  -0.7282  -0.7251  -0.6560
    -0.6557  -0.6222  -0.6184  -0.6175  -0.6107  -0.6093  -0.6089  -0.6066
    -0.5962  -0.5920  -0.5743  -0.5545  -0.5392  -0.5203  -0.5193  -0.5089
    -0.5074  -0.4960  -0.4950  -0.4943  -0.4930  -0.4914  -0.4755  -0.4713
    -0.4698  -0.4405  -0.4387  -0.4376  -0.4265  -0.4263  -0.4073  -0.3752
    -0.3745  -0.3658  -0.3649  -0.2975  -0.2973  -0.2603  -0.2598  -0.2021
    -0.2008  -0.2006  -0.1873  -0.1725   0.0501   0.0577   0.3989   0.3989
     0.4888   0.4945   0.6832   0.7018   0.7165   0.8468   0.8481   1.2790
     1.2792   1.2974   1.5561   1.5891   1.5892   1.8635   1.8710   1.9450
     1.9456   1.9714   1.9755   2.2014   2.2019   2.2901   2.2905   2.3628
     2.4270   2.4337   2.5936   2.6920   3.1308   3.1334   3.1359   3.1370
     3.1901   3.1917   3.4829   3.4837   3.7630   3.7678   3.8669   4.1791
     4.2206   4.2235   4.4308   4.4486   4.5223   4.5236   4.6144   4.7313
     4.7334   4.8494   4.8507   5.1534   5.2210   5.2234   5.2349   5.3860
     5.4140   5.6095   5.6114   5.6360   5.6381   5.6967   5.7035   5.7314
     5.7993   6.0593   6.2634   6.2797   6.3076   6.4429   6.4436   6.4555
     6.4586   6.5112   6.6233   6.6935   6.6991   6.8332   6.8497   6.9230
     6.9390   7.0032   7.0422

          k = 0.0000 0.2887 0.1111 (136898 PWs)   bands (ev):

   -18.7775  -6.5987  -6.5528  -5.7620  -5.4706  -5.4117  -5.4116  -4.8732
    -4.8731  -4.7416  -4.7409  -4.5861  -4.5554  -4.4937  -4.4600  -4.4596
    -4.4266  -4.4264  -4.2980  -4.2564  -4.2561  -4.1961  -4.1752  -4.1749
    -4.0727  -4.0726  -4.0366  -4.0363  -4.0363  -4.0093  -3.9878  -3.9876
    -3.8826  -3.8807  -3.8804  -3.8598  -3.8431  -3.8428  -3.8307  -3.8304
    -3.8172  -3.7872  -3.7870  -3.7867  -3.7864  -3.7541  -3.7539  -3.7363
    -3.7362  -3.7219  -3.6787  -3.6784  -3.6483  -3.6330  -3.6324  -3.6280
    -3.6279  -3.5535  -3.5533  -3.5180  -3.5156  -3.5153  -3.4481  -3.4479
    -3.4323  -3.4321  -3.4015  -3.4009  -3.4006  -3.4002  -3.2468  -3.2466
    -3.2213  -3.2210  -3.2161  -3.1999  -3.1997  -3.1739  -3.1734  -3.1240
    -3.1238  -3.1077  -3.1075  -3.0871  -3.0386  -3.0384  -3.0192  -3.0141
    -3.0139  -2.9732  -2.9729  -2.9664  -2.9662  -2.9500  -2.9496  -2.9100
    -2.9099  -2.8885  -2.8881  -2.8851  -2.8848  -2.8819  -2.8199  -2.8047
    -2.8035  -2.7996  -2.7743  -2.7739  -2.7125  -2.7117  -2.6838  -2.6823
    -2.6695  -2.6693  -2.6640  -2.6345  -2.6342  -2.6248  -2.6069  -2.5818
    -2.5814  -2.5809  -2.5604  -2.5602  -2.5493  -2.5490  -2.5458  -2.5449
    -2.5373  -2.4912  -2.4589  -2.4588  -2.4431  -2.4293  -2.4227  -2.4225
    -2.4153  -2.4149  -2.4135  -2.3837  -2.3834  -2.3831  -2.3737  -2.3730
    -2.3560  -2.3289  -2.3286  -2.3280  -2.3268  -2.3264  -2.2816  -2.2505
    -2.2497  -2.2495  -2.2426  -2.2340  -2.2214  -2.2204  -2.2039  -2.2038
    -2.1709  -2.1690  -2.1688  -2.1503  -2.1491  -2.1485  -2.1160  -2.1154
    -2.0750  -2.0736  -2.0665  -2.0646  -2.0643  -2.0582  -2.0581  -2.0558
    -2.0554  -2.0489  -2.0477  -2.0317  -2.0310  -1.9048  -1.9036  -1.8715
    -1.8659  -1.8651  -1.8597  -1.8597  -1.8427  -1.8425  -1.8391  -1.8385
    -1.8369  -1.8142  -1.8070  -1.8060  -1.8035  -1.7939  -1.7934  -1.7712
    -1.7711  -1.7425  -1.7421  -1.7103  -1.7096  -1.6995  -1.6914  -1.6737
    -1.6733  -1.6703  -1.6522  -1.6399  -1.6398  -1.6324  -1.6322  -1.6054
    -1.6051  -1.5887  -1.5879  -1.5574  -1.5565  -1.5460  -1.4956  -1.4951
    -1.4830  -1.4824  -1.4821  -1.4569  -1.4539  -1.4208  -1.4204  -1.4196
    -1.3877  -1.3764  -1.3759  -1.3600  -1.3597  -1.3344  -1.3321  -1.3320
    -1.3020  -1.2994  -1.2992  -1.2369  -1.2365  -1.2238  -1.2231  -1.2073
    -1.2065  -1.1942  -1.1937  -1.1755  -1.1630  -1.1357  -1.1352  -1.1248
    -1.1025  -1.0865  -1.0856  -1.0738  -1.0736  -1.0725  -1.0670  -1.0663
    -1.0524  -1.0245  -1.0216  -1.0198  -1.0110  -1.0093  -1.0084  -0.9850
    -0.9720  -0.9670  -0.9472  -0.9449  -0.8667  -0.8405  -0.8387  -0.8332
    -0.8329  -0.8270  -0.8242  -0.8137  -0.7981  -0.7885  -0.7830  -0.7742
    -0.7680  -0.7596  -0.7586  -0.7384  -0.7367  -0.7282  -0.7251  -0.6560
    -0.6557  -0.6222  -0.6184  -0.6175  -0.6107  -0.6093  -0.6089  -0.6066
    -0.5962  -0.5920  -0.5743  -0.5545  -0.5392  -0.5203  -0.5193  -0.5089
    -0.5074  -0.4960  -0.4950  -0.4943  -0.4930  -0.4914  -0.4755  -0.4713
    -0.4699  -0.4405  -0.4387  -0.4376  -0.4265  -0.4263  -0.4073  -0.3752
    -0.3745  -0.3658  -0.3649  -0.2975  -0.2973  -0.2603  -0.2598  -0.2021
    -0.2008  -0.2006  -0.1873  -0.1725   0.0501   0.0577   0.3989   0.3989
     0.4888   0.4945   0.6832   0.7018   0.7165   0.8468   0.8481   1.2790
     1.2792   1.2974   1.5561   1.5891   1.5892   1.8635   1.8710   1.9450
     1.9456   1.9714   1.9755   2.2014   2.2019   2.2901   2.2905   2.3628
     2.4270   2.4337   2.5936   2.6920   3.1308   3.1334   3.1359   3.1370
     3.1901   3.1917   3.4829   3.4837   3.7630   3.7678   3.8669   4.1791
     4.2206   4.2235   4.4308   4.4486   4.5223   4.5236   4.6144   4.7313
     4.7334   4.8494   4.8507   5.1534   5.2210   5.2234   5.2350   5.3860
     5.4138   5.6095   5.6114   5.6360   5.6381   5.6966   5.7035   5.7308
     5.8015   6.0561   6.2595   6.2803   6.3076   6.4429   6.4436   6.4555
     6.4586   6.5236   6.6200   6.6942   6.6992   6.8299   6.8450   6.9230
     6.9384   7.0097   7.0472

     the Fermi energy is     1.4220 ev

!    total energy              =   -6604.43492444 Ry
     Harris-Foulkes estimate   =   -6604.43492443 Ry
     estimated scf accuracy    <          2.6E-09 Ry

     The total energy is the sum of the following terms:

     one-electron contribution =  -48518.51792773 Ry
     hartree contribution      =   24760.11337526 Ry
     xc contribution           =   -3204.95831117 Ry
     ewald contribution        =   20358.92503926 Ry
     smearing contrib. (-TS)   =       0.00289995 Ry

     convergence has been achieved in  25 iterations

     Writing output data file 4083407.save

     init_run     :    172.27s CPU    181.09s WALL (       1 calls)
     electrons    :   9444.62s CPU   9974.16s WALL (       1 calls)

     Called by init_run:
     wfcinit      :    138.98s CPU    147.16s WALL (       1 calls)
     potinit      :     11.68s CPU     12.09s WALL (       1 calls)

     Called by electrons:
     c_bands      :   8034.60s CPU   8461.54s WALL (      26 calls)
     sum_band     :   1102.15s CPU   1186.52s WALL (      26 calls)
     v_of_rho     :    105.90s CPU    116.01s WALL (      26 calls)
     newd         :    209.77s CPU    217.54s WALL (      26 calls)
     mix_rho      :      3.03s CPU      3.31s WALL (      26 calls)
     vdW_energy   :      7.31s CPU      8.11s WALL (      26 calls)
     vdW_ffts     :     58.19s CPU     63.40s WALL (      52 calls)
     vdW_v        :     13.76s CPU     14.54s WALL (      26 calls)

     Called by c_bands:
     init_us_2    :     12.77s CPU     13.16s WALL (     636 calls)
     cegterg      :   7845.92s CPU   8269.83s WALL (     312 calls)

     Called by *egterg:
     h_psi        :   3487.56s CPU   3852.37s WALL (    1741 calls)
     s_psi        :    288.98s CPU    292.11s WALL (    1741 calls)
     g_psi        :      7.27s CPU      7.28s WALL (    1417 calls)
     cdiaghg      :   1950.26s CPU   1962.72s WALL (    1717 calls)

     Called by h_psi:
     add_vuspsi   :    291.41s CPU    294.63s WALL (    1741 calls)

     General routines
     calbec       :    739.85s CPU    744.82s WALL (    2053 calls)
     fft          :    164.16s CPU    173.62s WALL (    1716 calls)
     ffts         :      1.66s CPU      1.80s WALL (      52 calls)
     fftw         :   2837.46s CPU   3221.29s WALL (  755030 calls)
     interpolate  :      4.34s CPU      4.94s WALL (      52 calls)
     davcio       :      0.02s CPU      0.18s WALL (      12 calls)

     Parallel routines
     fft_scatter  :   2228.98s CPU   2538.96s WALL (  756798 calls)

     PWSCF        :     2h40m CPU        2h49m WALL


   This run was terminated on:  21:59:26  29Aug2015            

=------------------------------------------------------------------------------=
   JOB DONE.
=------------------------------------------------------------------------------=
