Setting SGE environment for SCC

     Program PWSCF v.5.1.2 starts on 29Aug2015 at 15: 0:23 

     This program is part of the open-source Quantum ESPRESSO suite
     for quantum simulation of materials; please cite
         "P. Giannozzi et al., J. Phys.:Condens. Matter 21 395502 (2009);
          URL http://www.quantum-espresso.org", 
     in publications or presentations arising from this work. More details at
     http://www.quantum-espresso.org/quote

     Parallel version (MPI), running on    32 processors
     R & G space division:  proc/nbgrp/npool/nimage =      32
     Reading input from top.O1.Au50.d.3.6.phi.0.psi.0.in
Warning: card &IONS ignored
Warning: card / ignored
Warning: card &CELL ignored
Warning: card / ignored

     Current dimensions of program PWSCF are:
     Max number of different atomic species (ntypx) = 10
     Max number of k-points (npk) =  40000
     Max angular momentum in pseudopotentials (lmaxx) =  3

     IMPORTANT: XC functional enforced from input :
     Exchange-correlation      = VDW-DF ( 1  4  4  0 1 0)
     Any further DFT definition will be discarded
     Please, verify this is what you really want


     Subspace diagonalization in iterative solution of the eigenvalue problem:
     a serial algorithm will be used


     Parallelization info
     --------------------
     sticks:   dense  smooth     PW     G-vecs:    dense   smooth      PW
     Min         445     223     58                96775    34191    4534
     Max         446     224     59                96790    34246    4540
     Sum       14269    7147   1867              3097177  1095093  145167


     Title: 
     top.O1.Au50.d.3.6.phi.0.psi.0                                              


     bravais-lattice index     =            4
     lattice parameter (alat)  =      22.7436  a.u.
     unit-cell volume          =   22924.1508 (a.u.)^3
     number of atoms/cell      =           67
     number of atomic types    =            3
     number of electrons       =       712.00
     number of Kohn-Sham states=          427
     kinetic-energy cutoff     =      50.0000  Ry
     charge density cutoff     =     400.0000  Ry
     convergence threshold     =      1.0E-08
     mixing beta               =       0.7000
     number of iterations used =            8  plain     mixing
     Exchange-correlation      = VDW-DF ( 1  4  4  0 1 0)

     celldm(1)=  22.743643  celldm(2)=   0.000000  celldm(3)=   2.250000
     celldm(4)=   0.000000  celldm(5)=   0.000000  celldm(6)=   0.000000

     crystal axes: (cart. coord. in units of alat)
               a(1) = (   1.000000   0.000000   0.000000 )  
               a(2) = (  -0.500000   0.866025   0.000000 )  
               a(3) = (   0.000000   0.000000   2.250000 )  

     reciprocal axes: (cart. coord. in units 2 pi/alat)
               b(1) = (  1.000000  0.577350 -0.000000 )  
               b(2) = (  0.000000  1.154701  0.000000 )  
               b(3) = (  0.000000 -0.000000  0.444444 )  


     PseudoPot. # 1 for Au read from file:
     /home/scc/andrejb/qe/pseudo/Au.pbe-nd-van.UPF
     MD5 check sum: 458681b50f36d87ef23c61b04bba420a
     Pseudo is Ultrasoft + core correction, Zval = 11.0
     Generated by new atomic code, or converted to UPF format
     Using radial grid of  985 points,  3 beta functions with: 
                l(1) =   1
                l(2) =   2
                l(3) =   2
     Q(r) pseudized with  8 coefficients,  rinner =    1.100   1.100   1.100
                                                       1.100   1.100

     PseudoPot. # 2 for H  read from file:
     /home/scc/andrejb/qe/pseudo/H.pbe-van_ak.UPF
     MD5 check sum: 403db7282739603aa925980fa9b8608d
     Pseudo is Ultrasoft, Zval =  1.0
     Generated by new atomic code, or converted to UPF format
     Using radial grid of  615 points,  1 beta functions with: 
                l(1) =   0
     Q(r) pseudized with  8 coefficients,  rinner =    0.800

     PseudoPot. # 3 for O  read from file:
     /home/scc/andrejb/qe/pseudo/O.pbe-van_ak.UPF
     MD5 check sum: 4b8c549914a63cae506c6ff22b5af4fe
     Pseudo is Ultrasoft, Zval =  6.0
     Generated by new atomic code, or converted to UPF format
     Using radial grid of  737 points,  4 beta functions with: 
                l(1) =   0
                l(2) =   0
                l(3) =   1
                l(4) =   1
     Q(r) pseudized with  8 coefficients,  rinner =    0.800   0.800   0.800


     vdW kernel table read from file vdW_kernel_table
     MD5 check sum: 48e77a2e26edf626eeb0eaa751ad5cac

     atomic species   valence    mass     pseudopotential
        Au            11.00   196.96657     Au( 1.00)
        H              1.00     1.01000     H ( 1.00)
        O              6.00    16.00000     O ( 1.00)

     No symmetry found



   Cartesian axes

     site n.     atom                  positions (alat units)
         1           O   tau(   1) = (   0.4790780   0.3968269   0.9121140  )
         2           H   tau(   2) = (   0.4291446   0.3552792   0.9603675  )
         3           H   tau(   3) = (   0.5274974   0.4371337   0.9628747  )
         4           Au  tau(   4) = (   0.3540481   0.6132292   0.0000000  )
         5           Au  tau(   5) = (   0.4790062   0.3967954   0.0000000  )
         6           Au  tau(   6) = (   0.6039644   0.1803616   0.0000000  )
         7           Au  tau(   7) = (   0.7289225  -0.0360723   0.0000000  )
         8           Au  tau(   8) = (   0.1041318   0.6132292   0.0000000  )
         9           Au  tau(   9) = (   0.2290899   0.3967954   0.0000000  )
        10           Au  tau(  10) = (   0.3540481   0.1803616   0.0000000  )
        11           Au  tau(  11) = (   0.4790062  -0.0360723   0.0000000  )
        12           Au  tau(  12) = (  -0.1457845   0.6132292   0.0000000  )
        13           Au  tau(  13) = (  -0.0208264   0.3967954   0.0000000  )
        14           Au  tau(  14) = (   0.1041318   0.1803616   0.0000000  )
        15           Au  tau(  15) = (   0.2290899  -0.0360723   0.0000000  )
        16           Au  tau(  16) = (  -0.3957008   0.6132292   0.0000000  )
        17           Au  tau(  17) = (  -0.2707426   0.3967954   0.0000000  )
        18           Au  tau(  18) = (  -0.1457845   0.1803616   0.0000000  )
        19           Au  tau(  19) = (  -0.0208264  -0.0360723   0.0000000  )
        20           Au  tau(  20) = (   0.4790062   0.6853738   0.2040557  )
        21           Au  tau(  21) = (   0.6039644   0.4689400   0.2040557  )
        22           Au  tau(  22) = (   0.7289225   0.2525061   0.2040557  )
        23           Au  tau(  23) = (   0.8538806   0.0360723   0.2040557  )
        24           Au  tau(  24) = (   0.2290899   0.6853738   0.2040557  )
        25           Au  tau(  25) = (   0.3540481   0.4689400   0.2040557  )
        26           Au  tau(  26) = (   0.4790062   0.2525061   0.2040557  )
        27           Au  tau(  27) = (   0.6039644   0.0360723   0.2040557  )
        28           Au  tau(  28) = (  -0.0208264   0.6853738   0.2040557  )
        29           Au  tau(  29) = (   0.1041318   0.4689400   0.2040557  )
        30           Au  tau(  30) = (   0.2290899   0.2525061   0.2040557  )
        31           Au  tau(  31) = (   0.3540481   0.0360723   0.2040557  )
        32           Au  tau(  32) = (  -0.2707426   0.6853738   0.2040557  )
        33           Au  tau(  33) = (  -0.1457845   0.4689400   0.2040557  )
        34           Au  tau(  34) = (  -0.0208264   0.2525061   0.2040557  )
        35           Au  tau(  35) = (   0.1041318   0.0360723   0.2040557  )
        36           Au  tau(  36) = (   0.3541162   0.7576593   0.4066483  )
        37           Au  tau(  37) = (   0.4791000   0.5411421   0.4066695  )
        38           Au  tau(  38) = (   0.6040570   0.3246862   0.4066617  )
        39           Au  tau(  39) = (   0.7290270   0.1081684   0.4066529  )
        40           Au  tau(  40) = (   0.1041162   0.7576236   0.4066247  )
        41           Au  tau(  41) = (   0.2291001   0.5411063   0.4066455  )
        42           Au  tau(  42) = (   0.3540567   0.3246505   0.4066380  )
        43           Au  tau(  43) = (   0.4790276   0.1081324   0.4066292  )
        44           Au  tau(  44) = (  -0.1458201   0.7576104   0.4066224  )
        45           Au  tau(  45) = (  -0.0208365   0.5410930   0.4066438  )
        46           Au  tau(  46) = (   0.1041202   0.3246372   0.4066359  )
        47           Au  tau(  47) = (   0.2290908   0.1081193   0.4066273  )
        48           Au  tau(  48) = (  -0.3958167   0.7575791   0.4065812  )
        49           Au  tau(  49) = (  -0.2708328   0.5410617   0.4066025  )
        50           Au  tau(  50) = (  -0.1458763   0.3246061   0.4065947  )
        51           Au  tau(  51) = (  -0.0209056   0.1080882   0.4065858  )
        52           Au  tau(  52) = (   0.3541085   0.6133344   0.6129762  )
        53           Au  tau(  53) = (   0.4790780   0.3968269   0.6129968  )
        54           Au  tau(  54) = (   0.6040356   0.1803811   0.6129859  )
        55           Au  tau(  55) = (   0.7290165  -0.0361221   0.6129385  )
        56           Au  tau(  56) = (   0.1041243   0.6133091   0.6130022  )
        57           Au  tau(  57) = (   0.2290941   0.3968013   0.6130241  )
        58           Au  tau(  58) = (   0.3540515   0.1803552   0.6130121  )
        59           Au  tau(  59) = (   0.4790323  -0.0361475   0.6129659  )
        60           Au  tau(  60) = (  -0.1458030   0.6133014   0.6129980  )
        61           Au  tau(  61) = (  -0.0208339   0.3967936   0.6130188  )
        62           Au  tau(  62) = (   0.1041239   0.1803477   0.6130083  )
        63           Au  tau(  63) = (   0.2291046  -0.0361554   0.6129607  )
        64           Au  tau(  64) = (  -0.3957908   0.6132739   0.6129471  )
        65           Au  tau(  65) = (  -0.2708208   0.3967658   0.6129688  )
        66           Au  tau(  66) = (  -0.1458636   0.1803200   0.6129569  )
        67           Au  tau(  67) = (  -0.0208823  -0.0361826   0.6129110  )

     number of k points=    12  Marzari-Vanderbilt smearing, width (Ry)=  0.0200
                       cart. coord. in units 2pi/alat
        k(    1) = (   0.2500000   0.4330127   0.1111111), wk =   0.1666667
        k(    2) = (   0.2500000  -0.1443376   0.1111111), wk =   0.1666667
        k(    3) = (  -0.2500000  -0.4330127   0.1111111), wk =   0.1666667
        k(    4) = (  -0.2500000   0.4330127  -0.1111111), wk =   0.1666667
        k(    5) = (   0.2500000  -0.4330127  -0.1111111), wk =   0.1666667
        k(    6) = (   0.5000000   0.0000000   0.1111111), wk =   0.1666667
        k(    7) = (  -0.5000000   0.0000000   0.1111111), wk =   0.1666667
        k(    8) = (  -0.2500000   0.1443376   0.1111111), wk =   0.1666667
        k(    9) = (  -0.2500000  -0.1443376  -0.1111111), wk =   0.1666667
        k(   10) = (   0.2500000   0.1443376  -0.1111111), wk =   0.1666667
        k(   11) = (   0.0000000  -0.2886751   0.1111111), wk =   0.1666667
        k(   12) = (   0.0000000   0.2886751   0.1111111), wk =   0.1666667

     Dense  grid:  3097177 G-vectors     FFT dimensions: ( 150, 150, 360)

     Smooth grid:  1095093 G-vectors     FFT dimensions: ( 108, 108, 240)

     Largest allocated arrays     est. size (Mb)     dimensions
        Kohn-Sham Wavefunctions        28.01 Mb     (    4299,  427)
        NL pseudopotentials            55.23 Mb     (    4299,  842)
        Each V/rho on FFT grid          4.12 Mb     (  270000)
        Each G-vector array             0.74 Mb     (   96788)
        G-vector shells                 0.16 Mb     (   21404)
     Largest temporary arrays     est. size (Mb)     dimensions
        Auxiliary wavefunctions       112.04 Mb     (    4299, 1708)
        Each subspace H/S matrix       44.51 Mb     (    1708, 1708)
        Each <psi_i|beta_j> matrix      5.49 Mb     (     842,  427)
        Arrays for rho mixing          32.96 Mb     (  270000,    8)

     Initial potential from superposition of free atoms
     Check: negative starting charge=   -1.730085

     starting charge  711.25682, renormalised to  712.00000

     negative rho (up, down):  1.732E+00 0.000E+00


     ************************************************************************
     *
     * You are using vdW-DF for exchange-correlation in this calculation.
     * Please cite the following three references that made this development
     * possible:
     *
     *   M. Dion, H. Rydberg, E. Schroder, D. C. Langreth, and
     *   B. I. Lundqvist, Phys. Rev. Lett. 92, 246401 (2004).
     *
     *   T. Thonhauser, V. R. Cooper, S. Li, A. Puzder, P. Hyldgaard, and
     *   D. C. Langreth, Phys. Rev. B 76, 125112 (2007).
     *
     *   G. Roman-Perez and J. M. Soler, Phys. Rev. Lett. 103, 096102 (2009).
     *
     *
     * If you are using vdW-DF2, please also cite:
     *
     *   K. Lee, E. D. Murray, L. Kong, B. I. Lundqvist, and
     *   D. C. Langreth, Phys. Rev. B 82, 081101(R) (2010).
     *
     *
     * If you are calculating the stress with vdW-DF, please also cite:
     *
     *   R. Sabatini, E. Kucukbenli, B. Kolb, T. Thonhauser, and
     *   S. de Gironcoli, J. Phys.: Condens. Matter 24, 424209 (2012).
     *
     ************************************************************************

     Carrying out vdW-DF run using the following parameters:

     Nqs =      20    Nr_points =    1024   r_max =   100.000
     q_mesh =
               0.00001000     0.04494208     0.09755937     0.15916263
               0.23128650     0.31572767     0.41458969     0.53033537
               0.66584808     0.82450364     1.01025438     1.22772762
               1.48234092     1.78043706     2.12944203     2.53805004
               3.01644009     3.57652955     4.23227104     5.00000000

     Gradients computed in reciprocal space

     ************************************************************************


     Starting wfc are  582 randomized atomic wfcs

     total cpu time spent up to now is      151.5 secs

     Self-consistent Calculation

     iteration #  1     ecut=    50.00 Ry     beta=0.70
     Davidson diagonalization with overlap
     ethr =  1.00E-02,  avg # of iterations =  3.0

     Threshold (ethr) on eigenvalues was too large:
     Diagonalizing with lowered threshold

     Davidson diagonalization with overlap
     ethr =  3.55E-04,  avg # of iterations =  5.3

     negative rho (up, down):  1.728E+00 0.000E+00

     total cpu time spent up to now is      752.2 secs

     total energy              =   -6602.76592176 Ry
     Harris-Foulkes estimate   =   -6605.05379242 Ry
     estimated scf accuracy    <       2.86147304 Ry

     iteration #  2     ecut=    50.00 Ry     beta=0.70
     Davidson diagonalization with overlap
     ethr =  4.02E-04,  avg # of iterations = 11.3

     negative rho (up, down):  1.725E+00 0.000E+00

     total cpu time spent up to now is     1691.0 secs

     total energy              =   -6596.30903845 Ry
     Harris-Foulkes estimate   =   -6610.23364815 Ry
     estimated scf accuracy    <      78.70470190 Ry

     iteration #  3     ecut=    50.00 Ry     beta=0.70
     Davidson diagonalization with overlap
     ethr =  4.02E-04,  avg # of iterations =  6.0

     negative rho (up, down):  1.735E+00 0.000E+00

     total cpu time spent up to now is     2278.5 secs

     total energy              =   -6603.14150417 Ry
     Harris-Foulkes estimate   =   -6605.01132737 Ry
     estimated scf accuracy    <       8.62308165 Ry

     iteration #  4     ecut=    50.00 Ry     beta=0.70
     Davidson diagonalization with overlap
     ethr =  4.02E-04,  avg # of iterations =  6.3

     negative rho (up, down):  1.737E+00 0.000E+00

     total cpu time spent up to now is     2625.4 secs

     total energy              =   -6603.68627583 Ry
     Harris-Foulkes estimate   =   -6604.99117634 Ry
     estimated scf accuracy    <      10.68067866 Ry

     iteration #  5     ecut=    50.00 Ry     beta=0.70
     Davidson diagonalization with overlap
     ethr =  4.02E-04,  avg # of iterations =  6.0

     negative rho (up, down):  1.746E+00 0.000E+00

     total cpu time spent up to now is     2964.0 secs

     total energy              =   -6604.27039504 Ry
     Harris-Foulkes estimate   =   -6604.67646657 Ry
     estimated scf accuracy    <       3.40675301 Ry

     iteration #  6     ecut=    50.00 Ry     beta=0.70
     Davidson diagonalization with overlap
     ethr =  4.02E-04,  avg # of iterations =  2.5

     negative rho (up, down):  1.751E+00 0.000E+00

     total cpu time spent up to now is     3231.3 secs

     total energy              =   -6604.42486405 Ry
     Harris-Foulkes estimate   =   -6604.46966299 Ry
     estimated scf accuracy    <       0.13439406 Ry

     iteration #  7     ecut=    50.00 Ry     beta=0.70
     Davidson diagonalization with overlap
     ethr =  1.89E-05,  avg # of iterations = 12.0

     negative rho (up, down):  1.753E+00 0.000E+00

     total cpu time spent up to now is     3756.8 secs

     total energy              =   -6604.43071377 Ry
     Harris-Foulkes estimate   =   -6604.45897843 Ry
     estimated scf accuracy    <       0.11881013 Ry

     iteration #  8     ecut=    50.00 Ry     beta=0.70
     Davidson diagonalization with overlap
     ethr =  1.67E-05,  avg # of iterations =  4.1

     negative rho (up, down):  1.755E+00 0.000E+00

     total cpu time spent up to now is     4075.8 secs

     total energy              =   -6604.43451048 Ry
     Harris-Foulkes estimate   =   -6604.44770654 Ry
     estimated scf accuracy    <       0.04826874 Ry

     iteration #  9     ecut=    50.00 Ry     beta=0.70
     Davidson diagonalization with overlap
     ethr =  6.78E-06,  avg # of iterations =  8.3

     negative rho (up, down):  1.756E+00 0.000E+00

     total cpu time spent up to now is     4460.3 secs

     total energy              =   -6604.43464516 Ry
     Harris-Foulkes estimate   =   -6604.44114425 Ry
     estimated scf accuracy    <       0.02200985 Ry

     iteration # 10     ecut=    50.00 Ry     beta=0.70
     Davidson diagonalization with overlap
     ethr =  3.09E-06,  avg # of iterations = 10.8

     negative rho (up, down):  1.757E+00 0.000E+00

     total cpu time spent up to now is     4897.3 secs

     total energy              =   -6604.43477770 Ry
     Harris-Foulkes estimate   =   -6604.43737174 Ry
     estimated scf accuracy    <       0.00920537 Ry

     iteration # 11     ecut=    50.00 Ry     beta=0.70
     Davidson diagonalization with overlap
     c_bands:  1 eigenvalues not converged
     ethr =  1.29E-06,  avg # of iterations = 12.0

     negative rho (up, down):  1.757E+00 0.000E+00

     total cpu time spent up to now is     5363.6 secs

     total energy              =   -6604.43467367 Ry
     Harris-Foulkes estimate   =   -6604.43587981 Ry
     estimated scf accuracy    <       0.00519425 Ry

     iteration # 12     ecut=    50.00 Ry     beta=0.70
     Davidson diagonalization with overlap
     ethr =  7.30E-07,  avg # of iterations =  3.9

     negative rho (up, down):  1.758E+00 0.000E+00

     total cpu time spent up to now is     5701.1 secs

     total energy              =   -6604.43398683 Ry
     Harris-Foulkes estimate   =   -6604.43509760 Ry
     estimated scf accuracy    <       0.00171510 Ry

     iteration # 13     ecut=    50.00 Ry     beta=0.70
     Davidson diagonalization with overlap
     c_bands:  1 eigenvalues not converged
     c_bands:  1 eigenvalues not converged
     ethr =  2.41E-07,  avg # of iterations = 13.1

     negative rho (up, down):  1.758E+00 0.000E+00

     total cpu time spent up to now is     6214.8 secs

     total energy              =   -6604.43425493 Ry
     Harris-Foulkes estimate   =   -6604.43440466 Ry
     estimated scf accuracy    <       0.00035568 Ry

     iteration # 14     ecut=    50.00 Ry     beta=0.70
     Davidson diagonalization with overlap
     ethr =  5.00E-08,  avg # of iterations =  3.0

     negative rho (up, down):  1.758E+00 0.000E+00

     total cpu time spent up to now is     6532.9 secs

     total energy              =   -6604.43431415 Ry
     Harris-Foulkes estimate   =   -6604.43437187 Ry
     estimated scf accuracy    <       0.00018569 Ry

     iteration # 15     ecut=    50.00 Ry     beta=0.70
     Davidson diagonalization with overlap
     ethr =  2.61E-08,  avg # of iterations =  2.0

     negative rho (up, down):  1.758E+00 0.000E+00

     total cpu time spent up to now is     6827.1 secs

     total energy              =   -6604.43432619 Ry
     Harris-Foulkes estimate   =   -6604.43436665 Ry
     estimated scf accuracy    <       0.00016570 Ry

     iteration # 16     ecut=    50.00 Ry     beta=0.70
     Davidson diagonalization with overlap
     ethr =  2.33E-08,  avg # of iterations =  2.0

     negative rho (up, down):  1.758E+00 0.000E+00

     total cpu time spent up to now is     7117.7 secs

     total energy              =   -6604.43433553 Ry
     Harris-Foulkes estimate   =   -6604.43435649 Ry
     estimated scf accuracy    <       0.00012761 Ry

     iteration # 17     ecut=    50.00 Ry     beta=0.70
     Davidson diagonalization with overlap
     ethr =  1.79E-08,  avg # of iterations =  1.0

     negative rho (up, down):  1.758E+00 0.000E+00

     total cpu time spent up to now is     7367.4 secs

     total energy              =   -6604.43434197 Ry
     Harris-Foulkes estimate   =   -6604.43435614 Ry
     estimated scf accuracy    <       0.00012965 Ry

     iteration # 18     ecut=    50.00 Ry     beta=0.70
     Davidson diagonalization with overlap
     ethr =  1.79E-08,  avg # of iterations =  1.0

     negative rho (up, down):  1.758E+00 0.000E+00

     total cpu time spent up to now is     7619.2 secs

     total energy              =   -6604.43434849 Ry
     Harris-Foulkes estimate   =   -6604.43435076 Ry
     estimated scf accuracy    <       0.00001035 Ry

     iteration # 19     ecut=    50.00 Ry     beta=0.70
     Davidson diagonalization with overlap
     ethr =  1.45E-09,  avg # of iterations =  2.0

     negative rho (up, down):  1.757E+00 0.000E+00

     total cpu time spent up to now is     7908.0 secs

     total energy              =   -6604.43434992 Ry
     Harris-Foulkes estimate   =   -6604.43435011 Ry
     estimated scf accuracy    <       0.00000108 Ry

     iteration # 20     ecut=    50.00 Ry     beta=0.70
     Davidson diagonalization with overlap
     ethr =  1.51E-10,  avg # of iterations =  3.0

     negative rho (up, down):  1.757E+00 0.000E+00

     total cpu time spent up to now is     8237.5 secs

     total energy              =   -6604.43435015 Ry
     Harris-Foulkes estimate   =   -6604.43435037 Ry
     estimated scf accuracy    <       0.00000159 Ry

     iteration # 21     ecut=    50.00 Ry     beta=0.70
     Davidson diagonalization with overlap
     ethr =  1.51E-10,  avg # of iterations =  2.0

     negative rho (up, down):  1.757E+00 0.000E+00

     total cpu time spent up to now is     8512.3 secs

     total energy              =   -6604.43435041 Ry
     Harris-Foulkes estimate   =   -6604.43435038 Ry
     estimated scf accuracy    <       0.00000023 Ry

     iteration # 22     ecut=    50.00 Ry     beta=0.70
     Davidson diagonalization with overlap
     ethr =  3.27E-11,  avg # of iterations =  2.9

     negative rho (up, down):  1.757E+00 0.000E+00

     total cpu time spent up to now is     8798.6 secs

     total energy              =   -6604.43435044 Ry
     Harris-Foulkes estimate   =   -6604.43435044 Ry
     estimated scf accuracy    <       0.00000002 Ry

     iteration # 23     ecut=    50.00 Ry     beta=0.70
     Davidson diagonalization with overlap
     ethr =  2.40E-12,  avg # of iterations =  3.0

     negative rho (up, down):  1.757E+00 0.000E+00

     total cpu time spent up to now is     9197.4 secs

     total energy              =   -6604.43435045 Ry
     Harris-Foulkes estimate   =   -6604.43435045 Ry
     estimated scf accuracy    <       0.00000004 Ry

     iteration # 24     ecut=    50.00 Ry     beta=0.70
     Davidson diagonalization with overlap
     ethr =  2.40E-12,  avg # of iterations =  3.0

     negative rho (up, down):  1.757E+00 0.000E+00

     total cpu time spent up to now is     9549.9 secs

     End of self-consistent calculation

          k = 0.2500 0.4330 0.1111 (136853 PWs)   bands (ev):

   -18.9260  -6.7373  -6.2226  -5.8233  -5.8231  -5.1451  -4.8118  -4.8117
    -4.7727  -4.7719  -4.4115  -4.4114  -4.3128  -4.3128  -4.2987  -4.2776
    -4.2503  -4.1453  -4.1449  -4.1210  -4.0775  -4.0775  -4.0086  -4.0084
    -4.0016  -4.0015  -3.9804  -3.9747  -3.9744  -3.9019  -3.9009  -3.8721
    -3.8720  -3.8600  -3.8598  -3.8366  -3.8365  -3.8141  -3.8056  -3.8055
    -3.7788  -3.7266  -3.7265  -3.6787  -3.6785  -3.6192  -3.6190  -3.5647
    -3.5646  -3.5640  -3.5639  -3.5287  -3.4890  -3.4887  -3.4831  -3.4817
    -3.4817  -3.4512  -3.4503  -3.4424  -3.3803  -3.3799  -3.3704  -3.3546
    -3.3475  -3.2754  -3.2746  -3.2416  -3.2404  -3.2134  -3.2130  -3.2000
    -3.1837  -3.1237  -3.1227  -3.1060  -3.1054  -3.0537  -3.0493  -3.0481
    -3.0141  -3.0095  -2.9783  -2.9776  -2.9699  -2.9668  -2.9562  -2.9549
    -2.9483  -2.9477  -2.9381  -2.8976  -2.8602  -2.8594  -2.8453  -2.8449
    -2.8196  -2.8094  -2.8091  -2.7869  -2.7434  -2.7424  -2.7338  -2.6945
    -2.6881  -2.6767  -2.6762  -2.6472  -2.6466  -2.6178  -2.5801  -2.5800
    -2.5575  -2.5507  -2.5367  -2.5361  -2.4858  -2.4856  -2.4530  -2.4302
    -2.4302  -2.4060  -2.4056  -2.3946  -2.3944  -2.3837  -2.3609  -2.3607
    -2.3165  -2.3161  -2.3149  -2.2979  -2.2976  -2.2929  -2.2830  -2.2826
    -2.2800  -2.2799  -2.2744  -2.2616  -2.2612  -2.2504  -2.2252  -2.2250
    -2.2235  -2.2226  -2.2216  -2.2196  -2.2186  -2.1910  -2.1881  -2.1739
    -2.1737  -2.1562  -2.1559  -2.1459  -2.1458  -2.1444  -2.1437  -2.1247
    -2.1231  -2.1227  -2.1214  -2.1046  -2.0785  -2.0783  -2.0387  -2.0383
    -2.0126  -2.0124  -1.9854  -1.9851  -1.9574  -1.9573  -1.9404  -1.9358
    -1.9090  -1.8861  -1.8858  -1.8811  -1.8801  -1.8763  -1.8693  -1.8676
    -1.8430  -1.8365  -1.8257  -1.7703  -1.7661  -1.7648  -1.7624  -1.7618
    -1.7241  -1.7067  -1.7064  -1.6785  -1.6779  -1.6177  -1.6172  -1.5886
    -1.5707  -1.5695  -1.5091  -1.5090  -1.4975  -1.4964  -1.4863  -1.4854
    -1.4825  -1.4730  -1.4721  -1.4175  -1.4162  -1.4048  -1.4045  -1.4034
    -1.3852  -1.3841  -1.3491  -1.3486  -1.3316  -1.3315  -1.3312  -1.3247
    -1.3194  -1.3105  -1.3091  -1.2909  -1.2904  -1.2497  -1.2473  -1.2367
    -1.2358  -1.2158  -1.2029  -1.1596  -1.1586  -1.1330  -1.1284  -1.1279
    -1.0989  -1.0482  -1.0468  -1.0459  -1.0450  -1.0404  -1.0387  -1.0293
    -1.0109  -1.0104  -0.9713  -0.9701  -0.9467  -0.9397  -0.9389  -0.9344
    -0.9291  -0.9260  -0.9101  -0.9095  -0.9088  -0.9060  -0.9035  -0.8685
    -0.8664  -0.8657  -0.8650  -0.8342  -0.8337  -0.8301  -0.8067  -0.7989
    -0.7978  -0.7519  -0.7454  -0.7436  -0.7098  -0.7016  -0.6908  -0.6907
    -0.6825  -0.6823  -0.6814  -0.6795  -0.6693  -0.6683  -0.6427  -0.6425
    -0.6398  -0.6378  -0.6369  -0.6004  -0.6001  -0.5892  -0.5886  -0.5737
    -0.5667  -0.5650  -0.5543  -0.4989  -0.4964  -0.4875  -0.4874  -0.4862
    -0.4857  -0.4806  -0.4616  -0.4601  -0.4523  -0.4521  -0.4503  -0.4494
    -0.4107  -0.4084  -0.4077  -0.4000  -0.3991  -0.3942  -0.3923  -0.3823
    -0.3766  -0.3731  -0.3721  -0.3306  -0.3303  -0.3219  -0.3186  -0.3180
    -0.2412  -0.2402  -0.2381  -0.2377  -0.2287  -0.2283  -0.1920  -0.1792
    -0.1789  -0.1524  -0.1476  -0.1462  -0.0263  -0.0241   0.0769   0.4922
     0.4925   0.4953   0.4954   0.5553   0.5587   0.9452   0.9458   0.9882
     0.9886   1.0964   1.1770   1.2856   1.2915   1.5052   1.5160   2.1420
     2.1437   2.3038   2.3065   2.4347   2.4396   2.5409   2.5410   2.6951
     2.9326   2.9356   3.0557   3.2781   3.2848   3.3648   3.3655   3.4649
     3.4803   3.6680   3.6786   3.7368   3.9372   3.9378   3.9989   4.0022
     4.2573   4.2631   4.2678   4.5078   4.5496   4.5509   4.5956   4.9305
     4.9331   4.9613   5.0912   5.0983   5.2682   5.2686   5.3213   5.3486
     5.7215   5.9461   6.0438   6.0557   6.0608   6.0684   6.1307   6.1314
     6.1986   6.2406   6.2656   6.2893   6.2933   6.3034   6.3063   6.3344
     6.3536   6.3596   6.5006   6.5821   6.7284   6.7888   6.8971   6.9755
     6.9983   7.0009   7.0121

          k = 0.2500-0.1443 0.1111 (136898 PWs)   bands (ev):

   -18.9260  -6.7373  -6.4325  -5.6405  -5.3491  -5.2903  -5.2899  -4.7518
    -4.7516  -4.6197  -4.6195  -4.4651  -4.4330  -4.3721  -4.3384  -4.3379
    -4.3051  -4.3050  -4.1765  -4.1347  -4.1346  -4.0746  -4.0536  -4.0533
    -3.9512  -3.9511  -3.9150  -3.9148  -3.9147  -3.8879  -3.8662  -3.8662
    -3.7607  -3.7590  -3.7590  -3.7383  -3.7214  -3.7212  -3.7091  -3.7089
    -3.6957  -3.6655  -3.6655  -3.6653  -3.6651  -3.6326  -3.6325  -3.6148
    -3.6147  -3.5998  -3.5563  -3.5559  -3.5266  -3.5112  -3.5110  -3.5065
    -3.5065  -3.4318  -3.4318  -3.3962  -3.3944  -3.3940  -3.3263  -3.3262
    -3.3109  -3.3108  -3.2797  -3.2794  -3.2787  -3.2783  -3.1254  -3.1254
    -3.0998  -3.0992  -3.0943  -3.0795  -3.0782  -3.0535  -3.0520  -3.0150
    -3.0023  -2.9976  -2.9860  -2.9843  -2.9644  -2.9166  -2.9164  -2.8968
    -2.8923  -2.8914  -2.8513  -2.8507  -2.8449  -2.8436  -2.8282  -2.8267
    -2.7884  -2.7881  -2.7665  -2.7663  -2.7633  -2.7625  -2.7599  -2.6829
    -2.6825  -2.6810  -2.6527  -2.6518  -2.5906  -2.5904  -2.5622  -2.5610
    -2.5480  -2.5475  -2.5423  -2.5128  -2.5127  -2.5031  -2.4854  -2.4597
    -2.4595  -2.4593  -2.4387  -2.4385  -2.4274  -2.4268  -2.4241  -2.4231
    -2.4158  -2.3696  -2.3371  -2.3369  -2.3214  -2.3073  -2.3010  -2.3008
    -2.2936  -2.2929  -2.2918  -2.2619  -2.2617  -2.2612  -2.2518  -2.2515
    -2.2344  -2.2071  -2.2064  -2.2060  -2.2052  -2.2042  -2.1599  -2.1282
    -2.1281  -2.1275  -2.1213  -2.1124  -2.0992  -2.0991  -2.0825  -2.0824
    -2.0483  -2.0475  -2.0472  -2.0289  -2.0272  -2.0269  -1.9941  -1.9935
    -1.9525  -1.9521  -1.9449  -1.9430  -1.9426  -1.9363  -1.9357  -1.9337
    -1.9331  -1.9269  -1.9257  -1.9097  -1.9090  -1.7825  -1.7817  -1.7498
    -1.7444  -1.7431  -1.7384  -1.7380  -1.7203  -1.7199  -1.7174  -1.7172
    -1.7151  -1.6926  -1.6844  -1.6838  -1.6793  -1.6723  -1.6712  -1.6491
    -1.6489  -1.6204  -1.6204  -1.5881  -1.5879  -1.5778  -1.5697  -1.5520
    -1.5512  -1.5488  -1.5303  -1.5180  -1.5177  -1.5105  -1.5103  -1.4836
    -1.4835  -1.4665  -1.4664  -1.4347  -1.4332  -1.4244  -1.3732  -1.3730
    -1.3611  -1.3604  -1.3587  -1.3350  -1.3325  -1.2988  -1.2982  -1.2977
    -1.2646  -1.2546  -1.2534  -1.2385  -1.2381  -1.2120  -1.2103  -1.2096
    -1.1803  -1.1777  -1.1772  -1.1150  -1.1143  -1.1017  -1.1004  -1.0850
    -1.0847  -1.0723  -1.0722  -1.0541  -1.0413  -1.0136  -1.0133  -1.0025
    -0.9792  -0.9644  -0.9628  -0.9528  -0.9519  -0.9499  -0.9476  -0.9443
    -0.9309  -0.9282  -0.8999  -0.8993  -0.8895  -0.8880  -0.8868  -0.8822
    -0.8629  -0.8451  -0.8417  -0.8240  -0.8212  -0.7301  -0.7173  -0.7115
    -0.7113  -0.7073  -0.7021  -0.7011  -0.6797  -0.6757  -0.6614  -0.6595
    -0.6460  -0.6451  -0.6366  -0.6171  -0.6148  -0.6142  -0.6060  -0.5344
    -0.5341  -0.5009  -0.4986  -0.4959  -0.4894  -0.4879  -0.4874  -0.4867
    -0.4746  -0.4729  -0.4578  -0.4331  -0.4184  -0.3988  -0.3978  -0.3874
    -0.3863  -0.3746  -0.3736  -0.3732  -0.3714  -0.3707  -0.3538  -0.3498
    -0.3488  -0.3188  -0.3175  -0.3165  -0.3050  -0.3048  -0.2856  -0.2536
    -0.2531  -0.2443  -0.2436  -0.1761  -0.1755  -0.1386  -0.1384  -0.0812
    -0.0788  -0.0783  -0.0677  -0.0495   0.1707   0.1772   0.5205   0.5206
     0.6095   0.6155   0.8047   0.8218   0.8383   0.9686   0.9700   1.4007
     1.4008   1.4192   1.6771   1.7107   1.7108   1.9838   1.9930   2.0670
     2.0675   2.0925   2.0981   2.3237   2.3238   2.4117   2.4122   2.4819
     2.5472   2.5575   2.7159   2.8135   3.2536   3.2548   3.2566   3.2601
     3.3126   3.3129   3.6050   3.6052   3.8838   3.8899   3.9857   4.3008
     4.3421   4.3463   4.5500   4.5644   4.6441   4.6461   4.7357   4.8529
     4.8559   4.9704   4.9723   5.0640   5.2756   5.3428   5.3472   5.4938
     5.5176   5.7314   5.7326   5.7400   5.7587   5.7595   5.8213   5.8232
     5.8702   6.0445   6.2513   6.2606   6.4282   6.4447   6.5621   6.5652
     6.5685   6.5765   6.5872   6.7442   6.8146   6.8184   6.8226   6.9781
     7.0136   7.0337   7.0548

          k =-0.2500-0.4330 0.1111 (136853 PWs)   bands (ev):

   -18.9260  -6.7373  -6.2226  -5.8233  -5.8231  -5.1451  -4.8118  -4.8117
    -4.7727  -4.7719  -4.4115  -4.4114  -4.3128  -4.3128  -4.2987  -4.2776
    -4.2503  -4.1453  -4.1449  -4.1210  -4.0775  -4.0775  -4.0086  -4.0084
    -4.0016  -4.0015  -3.9804  -3.9747  -3.9744  -3.9019  -3.9009  -3.8721
    -3.8720  -3.8600  -3.8598  -3.8366  -3.8365  -3.8141  -3.8056  -3.8055
    -3.7788  -3.7266  -3.7265  -3.6787  -3.6785  -3.6192  -3.6190  -3.5647
    -3.5646  -3.5640  -3.5639  -3.5287  -3.4890  -3.4887  -3.4831  -3.4817
    -3.4817  -3.4512  -3.4503  -3.4424  -3.3803  -3.3799  -3.3704  -3.3546
    -3.3475  -3.2754  -3.2746  -3.2416  -3.2404  -3.2134  -3.2130  -3.2000
    -3.1837  -3.1237  -3.1227  -3.1060  -3.1054  -3.0537  -3.0493  -3.0481
    -3.0141  -3.0095  -2.9783  -2.9776  -2.9699  -2.9668  -2.9562  -2.9549
    -2.9483  -2.9477  -2.9381  -2.8976  -2.8602  -2.8594  -2.8453  -2.8449
    -2.8196  -2.8094  -2.8091  -2.7869  -2.7434  -2.7424  -2.7338  -2.6945
    -2.6881  -2.6767  -2.6762  -2.6472  -2.6466  -2.6178  -2.5801  -2.5800
    -2.5575  -2.5507  -2.5367  -2.5361  -2.4858  -2.4856  -2.4530  -2.4302
    -2.4302  -2.4060  -2.4056  -2.3946  -2.3944  -2.3837  -2.3609  -2.3607
    -2.3165  -2.3161  -2.3149  -2.2979  -2.2976  -2.2929  -2.2830  -2.2826
    -2.2800  -2.2799  -2.2744  -2.2616  -2.2612  -2.2504  -2.2252  -2.2250
    -2.2235  -2.2226  -2.2216  -2.2196  -2.2186  -2.1910  -2.1881  -2.1739
    -2.1737  -2.1562  -2.1559  -2.1459  -2.1458  -2.1444  -2.1437  -2.1247
    -2.1231  -2.1227  -2.1214  -2.1046  -2.0785  -2.0783  -2.0387  -2.0383
    -2.0126  -2.0124  -1.9854  -1.9851  -1.9574  -1.9573  -1.9404  -1.9358
    -1.9090  -1.8861  -1.8858  -1.8811  -1.8801  -1.8763  -1.8693  -1.8676
    -1.8430  -1.8365  -1.8257  -1.7703  -1.7661  -1.7648  -1.7624  -1.7618
    -1.7241  -1.7067  -1.7064  -1.6785  -1.6779  -1.6177  -1.6172  -1.5886
    -1.5707  -1.5695  -1.5091  -1.5090  -1.4975  -1.4964  -1.4863  -1.4854
    -1.4825  -1.4730  -1.4721  -1.4175  -1.4162  -1.4048  -1.4045  -1.4034
    -1.3852  -1.3841  -1.3491  -1.3486  -1.3316  -1.3315  -1.3312  -1.3247
    -1.3194  -1.3105  -1.3091  -1.2909  -1.2904  -1.2497  -1.2473  -1.2367
    -1.2358  -1.2158  -1.2029  -1.1596  -1.1586  -1.1330  -1.1284  -1.1279
    -1.0989  -1.0482  -1.0468  -1.0459  -1.0450  -1.0404  -1.0387  -1.0293
    -1.0109  -1.0104  -0.9713  -0.9701  -0.9467  -0.9397  -0.9389  -0.9344
    -0.9291  -0.9260  -0.9101  -0.9095  -0.9088  -0.9060  -0.9035  -0.8685
    -0.8664  -0.8657  -0.8650  -0.8342  -0.8337  -0.8301  -0.8067  -0.7989
    -0.7978  -0.7519  -0.7454  -0.7436  -0.7098  -0.7016  -0.6908  -0.6907
    -0.6825  -0.6823  -0.6814  -0.6795  -0.6693  -0.6683  -0.6427  -0.6425
    -0.6398  -0.6378  -0.6369  -0.6004  -0.6001  -0.5892  -0.5886  -0.5737
    -0.5667  -0.5650  -0.5543  -0.4989  -0.4964  -0.4876  -0.4874  -0.4862
    -0.4857  -0.4806  -0.4616  -0.4601  -0.4523  -0.4521  -0.4503  -0.4494
    -0.4107  -0.4084  -0.4077  -0.4000  -0.3991  -0.3942  -0.3923  -0.3823
    -0.3766  -0.3731  -0.3721  -0.3306  -0.3303  -0.3219  -0.3186  -0.3180
    -0.2412  -0.2402  -0.2381  -0.2377  -0.2287  -0.2283  -0.1920  -0.1792
    -0.1789  -0.1524  -0.1476  -0.1462  -0.0263  -0.0241   0.0769   0.4922
     0.4925   0.4953   0.4954   0.5553   0.5587   0.9452   0.9458   0.9882
     0.9886   1.0964   1.1770   1.2856   1.2915   1.5052   1.5160   2.1420
     2.1437   2.3038   2.3065   2.4347   2.4396   2.5409   2.5410   2.6951
     2.9326   2.9356   3.0557   3.2781   3.2848   3.3648   3.3655   3.4649
     3.4803   3.6680   3.6786   3.7368   3.9372   3.9378   3.9989   4.0022
     4.2573   4.2631   4.2678   4.5078   4.5496   4.5509   4.5956   4.9305
     4.9331   4.9613   5.0912   5.0983   5.2682   5.2686   5.3213   5.3486
     5.7214   5.9462   6.0443   6.0557   6.0608   6.0684   6.1307   6.1314
     6.1986   6.2406   6.2656   6.2893   6.2933   6.3033   6.3063   6.3342
     6.3536   6.3595   6.5006   6.5800   6.7296   6.7886   6.9000   6.9751
     6.9981   7.0011   7.0120

          k =-0.2500 0.4330-0.1111 (136853 PWs)   bands (ev):

   -18.9260  -6.7373  -6.2226  -5.8247  -5.8217  -5.1451  -4.8121  -4.8114
    -4.7740  -4.7706  -4.4120  -4.4108  -4.3130  -4.3126  -4.2986  -4.2776
    -4.2503  -4.1460  -4.1445  -4.1211  -4.0777  -4.0774  -4.0087  -4.0083
    -4.0016  -4.0014  -3.9803  -3.9759  -3.9733  -3.9029  -3.8998  -3.8727
    -3.8711  -3.8600  -3.8596  -3.8367  -3.8365  -3.8141  -3.8058  -3.8054
    -3.7790  -3.7269  -3.7263  -3.6796  -3.6776  -3.6193  -3.6189  -3.5648
    -3.5646  -3.5641  -3.5637  -3.5289  -3.4892  -3.4887  -3.4830  -3.4818
    -3.4817  -3.4512  -3.4503  -3.4425  -3.3805  -3.3798  -3.3703  -3.3545
    -3.3472  -3.2758  -3.2745  -3.2419  -3.2399  -3.2138  -3.2124  -3.1999
    -3.1838  -3.1238  -3.1229  -3.1062  -3.1048  -3.0536  -3.0494  -3.0481
    -3.0140  -3.0095  -2.9781  -2.9778  -2.9701  -2.9665  -2.9564  -2.9553
    -2.9482  -2.9471  -2.9382  -2.8975  -2.8609  -2.8588  -2.8455  -2.8446
    -2.8197  -2.8095  -2.8090  -2.7869  -2.7440  -2.7418  -2.7340  -2.6943
    -2.6880  -2.6773  -2.6754  -2.6477  -2.6465  -2.6178  -2.5801  -2.5796
    -2.5576  -2.5507  -2.5370  -2.5359  -2.4860  -2.4854  -2.4529  -2.4305
    -2.4302  -2.4063  -2.4055  -2.3949  -2.3939  -2.3838  -2.3613  -2.3604
    -2.3162  -2.3158  -2.3150  -2.2985  -2.2969  -2.2929  -2.2829  -2.2825
    -2.2805  -2.2796  -2.2744  -2.2621  -2.2602  -2.2506  -2.2251  -2.2248
    -2.2236  -2.2227  -2.2216  -2.2196  -2.2183  -2.1912  -2.1882  -2.1740
    -2.1735  -2.1566  -2.1556  -2.1460  -2.1456  -2.1449  -2.1435  -2.1256
    -2.1231  -2.1222  -2.1211  -2.1046  -2.0790  -2.0782  -2.0397  -2.0375
    -2.0132  -2.0118  -1.9853  -1.9847  -1.9575  -1.9571  -1.9404  -1.9356
    -1.9088  -1.8864  -1.8855  -1.8814  -1.8798  -1.8763  -1.8699  -1.8675
    -1.8430  -1.8360  -1.8257  -1.7703  -1.7664  -1.7648  -1.7628  -1.7617
    -1.7243  -1.7075  -1.7056  -1.6786  -1.6779  -1.6182  -1.6165  -1.5890
    -1.5709  -1.5691  -1.5095  -1.5084  -1.4978  -1.4962  -1.4867  -1.4850
    -1.4827  -1.4735  -1.4717  -1.4173  -1.4158  -1.4049  -1.4047  -1.4038
    -1.3856  -1.3832  -1.3492  -1.3490  -1.3318  -1.3314  -1.3309  -1.3245
    -1.3198  -1.3111  -1.3087  -1.2907  -1.2904  -1.2495  -1.2473  -1.2369
    -1.2350  -1.2156  -1.2030  -1.1603  -1.1582  -1.1333  -1.1286  -1.1282
    -1.0991  -1.0480  -1.0469  -1.0462  -1.0449  -1.0407  -1.0385  -1.0293
    -1.0114  -1.0096  -0.9713  -0.9700  -0.9470  -0.9400  -0.9365  -0.9346
    -0.9321  -0.9254  -0.9104  -0.9089  -0.9080  -0.9053  -0.9035  -0.8706
    -0.8666  -0.8655  -0.8626  -0.8349  -0.8342  -0.8302  -0.8065  -0.7997
    -0.7971  -0.7523  -0.7457  -0.7427  -0.7099  -0.7013  -0.6907  -0.6906
    -0.6827  -0.6820  -0.6817  -0.6795  -0.6696  -0.6679  -0.6432  -0.6423
    -0.6398  -0.6381  -0.6369  -0.6004  -0.5999  -0.5901  -0.5882  -0.5735
    -0.5670  -0.5646  -0.5541  -0.4989  -0.4962  -0.4876  -0.4873  -0.4866
    -0.4854  -0.4806  -0.4619  -0.4600  -0.4523  -0.4521  -0.4503  -0.4492
    -0.4107  -0.4086  -0.4073  -0.4005  -0.3986  -0.3940  -0.3924  -0.3823
    -0.3765  -0.3735  -0.3718  -0.3311  -0.3299  -0.3221  -0.3188  -0.3178
    -0.2413  -0.2402  -0.2381  -0.2374  -0.2288  -0.2282  -0.1919  -0.1794
    -0.1788  -0.1540  -0.1472  -0.1451  -0.0269  -0.0232   0.0771   0.4920
     0.4927   0.4951   0.4956   0.5541   0.5594   0.9451   0.9458   0.9877
     0.9890   1.0968   1.1771   1.2840   1.2935   1.5026   1.5182   2.1412
     2.1441   2.3026   2.3080   2.4327   2.4413   2.5406   2.5414   2.6950
     2.9327   2.9361   3.0556   3.2765   3.2862   3.3645   3.3661   3.4646
     3.4803   3.6624   3.6836   3.7371   3.9366   3.9384   3.9981   4.0037
     4.2568   4.2620   4.2690   4.5084   4.5494   4.5510   4.5953   4.9294
     4.9342   4.9604   5.0881   5.1061   5.2680   5.2690   5.3113   5.3416
     5.7768   5.8887   6.0551   6.0594   6.0637   6.0816   6.1306   6.1316
     6.2062   6.2409   6.2660   6.2920   6.2941   6.2958   6.3111   6.3491
     6.3538   6.3725   6.4156   6.5953   6.7287   6.7816   6.9251   6.9546
     6.9969   7.0042   7.0117

          k = 0.2500-0.4330-0.1111 (136853 PWs)   bands (ev):

   -18.9260  -6.7373  -6.2226  -5.8247  -5.8217  -5.1451  -4.8121  -4.8114
    -4.7740  -4.7706  -4.4120  -4.4108  -4.3130  -4.3126  -4.2986  -4.2776
    -4.2503  -4.1460  -4.1445  -4.1211  -4.0777  -4.0774  -4.0087  -4.0083
    -4.0016  -4.0014  -3.9803  -3.9759  -3.9733  -3.9029  -3.8998  -3.8727
    -3.8711  -3.8600  -3.8596  -3.8367  -3.8365  -3.8141  -3.8058  -3.8054
    -3.7790  -3.7269  -3.7263  -3.6796  -3.6776  -3.6193  -3.6189  -3.5648
    -3.5646  -3.5641  -3.5637  -3.5289  -3.4892  -3.4887  -3.4830  -3.4818
    -3.4817  -3.4512  -3.4503  -3.4425  -3.3805  -3.3798  -3.3703  -3.3545
    -3.3472  -3.2758  -3.2745  -3.2419  -3.2399  -3.2138  -3.2124  -3.1999
    -3.1838  -3.1238  -3.1229  -3.1062  -3.1048  -3.0536  -3.0494  -3.0481
    -3.0140  -3.0095  -2.9781  -2.9778  -2.9701  -2.9665  -2.9564  -2.9553
    -2.9482  -2.9471  -2.9382  -2.8975  -2.8609  -2.8588  -2.8455  -2.8446
    -2.8197  -2.8095  -2.8090  -2.7869  -2.7440  -2.7418  -2.7340  -2.6943
    -2.6880  -2.6773  -2.6754  -2.6477  -2.6465  -2.6178  -2.5801  -2.5796
    -2.5576  -2.5507  -2.5370  -2.5359  -2.4860  -2.4854  -2.4529  -2.4305
    -2.4302  -2.4063  -2.4055  -2.3949  -2.3939  -2.3838  -2.3613  -2.3604
    -2.3162  -2.3158  -2.3150  -2.2985  -2.2969  -2.2929  -2.2829  -2.2825
    -2.2805  -2.2796  -2.2744  -2.2621  -2.2602  -2.2506  -2.2251  -2.2248
    -2.2236  -2.2227  -2.2216  -2.2196  -2.2183  -2.1912  -2.1882  -2.1740
    -2.1735  -2.1566  -2.1556  -2.1460  -2.1456  -2.1449  -2.1435  -2.1256
    -2.1231  -2.1222  -2.1211  -2.1046  -2.0790  -2.0782  -2.0397  -2.0375
    -2.0132  -2.0118  -1.9853  -1.9847  -1.9575  -1.9571  -1.9404  -1.9356
    -1.9088  -1.8864  -1.8855  -1.8814  -1.8798  -1.8763  -1.8699  -1.8675
    -1.8430  -1.8360  -1.8257  -1.7703  -1.7664  -1.7648  -1.7628  -1.7617
    -1.7243  -1.7075  -1.7056  -1.6786  -1.6779  -1.6182  -1.6165  -1.5890
    -1.5709  -1.5691  -1.5095  -1.5084  -1.4978  -1.4962  -1.4867  -1.4850
    -1.4827  -1.4735  -1.4717  -1.4173  -1.4158  -1.4049  -1.4047  -1.4038
    -1.3856  -1.3832  -1.3492  -1.3490  -1.3318  -1.3314  -1.3309  -1.3245
    -1.3198  -1.3111  -1.3087  -1.2907  -1.2904  -1.2495  -1.2473  -1.2369
    -1.2350  -1.2156  -1.2030  -1.1604  -1.1582  -1.1333  -1.1286  -1.1282
    -1.0991  -1.0480  -1.0469  -1.0462  -1.0449  -1.0407  -1.0385  -1.0293
    -1.0114  -1.0096  -0.9713  -0.9700  -0.9470  -0.9400  -0.9365  -0.9346
    -0.9321  -0.9254  -0.9104  -0.9089  -0.9080  -0.9053  -0.9035  -0.8706
    -0.8666  -0.8655  -0.8626  -0.8349  -0.8342  -0.8302  -0.8065  -0.7997
    -0.7971  -0.7523  -0.7457  -0.7427  -0.7099  -0.7013  -0.6907  -0.6906
    -0.6827  -0.6820  -0.6817  -0.6795  -0.6696  -0.6679  -0.6432  -0.6423
    -0.6398  -0.6381  -0.6369  -0.6004  -0.5999  -0.5901  -0.5882  -0.5735
    -0.5670  -0.5646  -0.5541  -0.4989  -0.4962  -0.4876  -0.4873  -0.4866
    -0.4854  -0.4806  -0.4619  -0.4600  -0.4523  -0.4521  -0.4503  -0.4492
    -0.4107  -0.4086  -0.4073  -0.4005  -0.3986  -0.3940  -0.3924  -0.3823
    -0.3765  -0.3735  -0.3718  -0.3311  -0.3299  -0.3221  -0.3188  -0.3178
    -0.2413  -0.2402  -0.2381  -0.2374  -0.2288  -0.2282  -0.1919  -0.1794
    -0.1788  -0.1540  -0.1472  -0.1451  -0.0269  -0.0232   0.0771   0.4920
     0.4927   0.4951   0.4956   0.5541   0.5594   0.9451   0.9458   0.9877
     0.9890   1.0968   1.1771   1.2840   1.2935   1.5026   1.5182   2.1412
     2.1441   2.3026   2.3080   2.4327   2.4413   2.5406   2.5414   2.6950
     2.9327   2.9361   3.0556   3.2765   3.2862   3.3645   3.3661   3.4646
     3.4803   3.6624   3.6836   3.7371   3.9366   3.9384   3.9981   4.0037
     4.2568   4.2620   4.2690   4.5084   4.5494   4.5510   4.5953   4.9294
     4.9342   4.9604   5.0881   5.1061   5.2680   5.2690   5.3113   5.3416
     5.7769   5.8887   6.0551   6.0594   6.0637   6.0815   6.1306   6.1316
     6.2061   6.2409   6.2660   6.2919   6.2941   6.2958   6.3110   6.3490
     6.3538   6.3722   6.4162   6.5956   6.7284   6.7817   6.9252   6.9543
     6.9968   7.0044   7.0116

          k = 0.5000 0.0000 0.1111 (136853 PWs)   bands (ev):

   -18.9260  -6.7373  -6.2226  -5.8245  -5.8219  -5.1451  -4.8127  -4.8109
    -4.7733  -4.7713  -4.4121  -4.4106  -4.3129  -4.3127  -4.2986  -4.2776
    -4.2503  -4.1457  -4.1449  -4.1211  -4.0776  -4.0775  -4.0087  -4.0083
    -4.0022  -4.0009  -3.9803  -3.9762  -3.9729  -3.9025  -3.9003  -3.8729
    -3.8709  -3.8601  -3.8595  -3.8366  -3.8365  -3.8141  -3.8058  -3.8053
    -3.7790  -3.7269  -3.7264  -3.6797  -3.6775  -3.6192  -3.6189  -3.5649
    -3.5648  -3.5640  -3.5635  -3.5289  -3.4892  -3.4888  -3.4830  -3.4821
    -3.4815  -3.4517  -3.4499  -3.4423  -3.3804  -3.3798  -3.3703  -3.3545
    -3.3472  -3.2752  -3.2751  -3.2418  -3.2400  -3.2135  -3.2127  -3.1999
    -3.1838  -3.1240  -3.1227  -3.1057  -3.1053  -3.0536  -3.0494  -3.0481
    -3.0142  -3.0093  -2.9787  -2.9773  -2.9697  -2.9670  -2.9561  -2.9547
    -2.9483  -2.9479  -2.9382  -2.8975  -2.8604  -2.8594  -2.8455  -2.8446
    -2.8197  -2.8094  -2.8092  -2.7869  -2.7431  -2.7426  -2.7340  -2.6944
    -2.6880  -2.6770  -2.6757  -2.6475  -2.6468  -2.6178  -2.5801  -2.5795
    -2.5576  -2.5507  -2.5368  -2.5362  -2.4859  -2.4854  -2.4529  -2.4305
    -2.4302  -2.4061  -2.4057  -2.3947  -2.3941  -2.3838  -2.3613  -2.3604
    -2.3165  -2.3155  -2.3149  -2.2985  -2.2970  -2.2929  -2.2829  -2.2825
    -2.2804  -2.2797  -2.2745  -2.2618  -2.2607  -2.2504  -2.2252  -2.2248
    -2.2235  -2.2225  -2.2217  -2.2196  -2.2184  -2.1913  -2.1881  -2.1739
    -2.1737  -2.1565  -2.1556  -2.1459  -2.1457  -2.1448  -2.1435  -2.1246
    -2.1233  -2.1229  -2.1211  -2.1045  -2.0788  -2.0784  -2.0397  -2.0374
    -2.0133  -2.0119  -1.9853  -1.9847  -1.9576  -1.9570  -1.9404  -1.9356
    -1.9088  -1.8863  -1.8855  -1.8813  -1.8799  -1.8764  -1.8696  -1.8676
    -1.8430  -1.8361  -1.8257  -1.7702  -1.7666  -1.7646  -1.7625  -1.7620
    -1.7242  -1.7073  -1.7058  -1.6785  -1.6779  -1.6177  -1.6170  -1.5889
    -1.5707  -1.5693  -1.5093  -1.5087  -1.4974  -1.4965  -1.4863  -1.4854
    -1.4827  -1.4731  -1.4722  -1.4171  -1.4163  -1.4051  -1.4046  -1.4035
    -1.3851  -1.3839  -1.3494  -1.3486  -1.3319  -1.3314  -1.3310  -1.3244
    -1.3196  -1.3105  -1.3092  -1.2912  -1.2900  -1.2497  -1.2471  -1.2367
    -1.2354  -1.2156  -1.2030  -1.1596  -1.1588  -1.1332  -1.1286  -1.1279
    -1.0990  -1.0481  -1.0471  -1.0458  -1.0449  -1.0405  -1.0389  -1.0293
    -1.0107  -1.0105  -0.9711  -0.9701  -0.9468  -0.9398  -0.9382  -0.9346
    -0.9300  -0.9256  -0.9101  -0.9094  -0.9084  -0.9057  -0.9035  -0.8691
    -0.8665  -0.8656  -0.8642  -0.8343  -0.8339  -0.8302  -0.8068  -0.7987
    -0.7978  -0.7521  -0.7455  -0.7432  -0.7099  -0.7014  -0.6909  -0.6905
    -0.6826  -0.6820  -0.6816  -0.6794  -0.6695  -0.6681  -0.6431  -0.6422
    -0.6399  -0.6381  -0.6368  -0.6005  -0.5999  -0.5896  -0.5884  -0.5737
    -0.5667  -0.5650  -0.5541  -0.4988  -0.4963  -0.4877  -0.4874  -0.4864
    -0.4855  -0.4806  -0.4618  -0.4600  -0.4524  -0.4520  -0.4501  -0.4494
    -0.4107  -0.4083  -0.4077  -0.4001  -0.3990  -0.3942  -0.3923  -0.3822
    -0.3766  -0.3733  -0.3720  -0.3309  -0.3301  -0.3220  -0.3186  -0.3180
    -0.2413  -0.2402  -0.2382  -0.2375  -0.2288  -0.2282  -0.1919  -0.1793
    -0.1788  -0.1525  -0.1475  -0.1462  -0.0265  -0.0238   0.0770   0.4921
     0.4926   0.4950   0.4957   0.5547   0.5591   0.9452   0.9458   0.9876
     0.9891   1.0965   1.1771   1.2858   1.2916   1.5048   1.5162   2.1412
     2.1442   2.3031   2.3074   2.4338   2.4404   2.5403   2.5417   2.6950
     2.9328   2.9358   3.0557   3.2782   3.2847   3.3641   3.3663   3.4648
     3.4803   3.6668   3.6796   3.7370   3.9373   3.9378   3.9981   4.0032
     4.2569   4.2623   4.2687   4.5082   4.5488   4.5515   4.5954   4.9307
     4.9328   4.9607   5.0944   5.0969   5.2678   5.2691   5.3174   5.3461
     5.7396   5.9267   6.0529   6.0565   6.0610   6.0706   6.1305   6.1316
     6.2003   6.2405   6.2657   6.2910   6.2926   6.3014   6.3084   6.3374
     6.3536   6.3617   6.4749   6.5884   6.7396   6.7707   6.9078   6.9683
     6.9983   7.0017   7.0118

          k =-0.5000 0.0000 0.1111 (136853 PWs)   bands (ev):

   -18.9260  -6.7373  -6.2226  -5.8245  -5.8219  -5.1451  -4.8127  -4.8109
    -4.7733  -4.7713  -4.4121  -4.4106  -4.3129  -4.3127  -4.2986  -4.2776
    -4.2503  -4.1457  -4.1449  -4.1211  -4.0776  -4.0775  -4.0087  -4.0083
    -4.0022  -4.0009  -3.9803  -3.9762  -3.9729  -3.9025  -3.9003  -3.8729
    -3.8709  -3.8601  -3.8595  -3.8366  -3.8365  -3.8141  -3.8058  -3.8053
    -3.7790  -3.7269  -3.7264  -3.6797  -3.6775  -3.6192  -3.6189  -3.5649
    -3.5648  -3.5640  -3.5635  -3.5289  -3.4892  -3.4888  -3.4830  -3.4821
    -3.4815  -3.4517  -3.4499  -3.4423  -3.3804  -3.3798  -3.3703  -3.3545
    -3.3472  -3.2752  -3.2751  -3.2418  -3.2400  -3.2135  -3.2127  -3.1999
    -3.1838  -3.1240  -3.1227  -3.1057  -3.1053  -3.0536  -3.0494  -3.0481
    -3.0142  -3.0093  -2.9787  -2.9773  -2.9697  -2.9670  -2.9561  -2.9547
    -2.9483  -2.9479  -2.9382  -2.8975  -2.8604  -2.8594  -2.8455  -2.8446
    -2.8197  -2.8094  -2.8092  -2.7869  -2.7431  -2.7426  -2.7340  -2.6944
    -2.6880  -2.6770  -2.6757  -2.6475  -2.6468  -2.6178  -2.5801  -2.5795
    -2.5576  -2.5507  -2.5368  -2.5362  -2.4859  -2.4854  -2.4529  -2.4305
    -2.4302  -2.4061  -2.4057  -2.3947  -2.3941  -2.3838  -2.3613  -2.3604
    -2.3165  -2.3155  -2.3149  -2.2985  -2.2970  -2.2929  -2.2829  -2.2825
    -2.2804  -2.2797  -2.2745  -2.2618  -2.2607  -2.2504  -2.2252  -2.2248
    -2.2235  -2.2225  -2.2217  -2.2196  -2.2184  -2.1913  -2.1881  -2.1739
    -2.1737  -2.1565  -2.1556  -2.1459  -2.1457  -2.1448  -2.1435  -2.1246
    -2.1233  -2.1229  -2.1211  -2.1045  -2.0788  -2.0784  -2.0397  -2.0374
    -2.0133  -2.0119  -1.9853  -1.9847  -1.9576  -1.9570  -1.9404  -1.9356
    -1.9088  -1.8863  -1.8855  -1.8813  -1.8799  -1.8764  -1.8696  -1.8676
    -1.8430  -1.8361  -1.8257  -1.7702  -1.7666  -1.7646  -1.7625  -1.7620
    -1.7242  -1.7073  -1.7058  -1.6785  -1.6779  -1.6177  -1.6170  -1.5889
    -1.5707  -1.5693  -1.5093  -1.5087  -1.4974  -1.4965  -1.4863  -1.4854
    -1.4827  -1.4731  -1.4722  -1.4171  -1.4163  -1.4051  -1.4046  -1.4035
    -1.3851  -1.3839  -1.3494  -1.3486  -1.3319  -1.3314  -1.3310  -1.3244
    -1.3196  -1.3105  -1.3092  -1.2912  -1.2900  -1.2497  -1.2471  -1.2367
    -1.2354  -1.2156  -1.2030  -1.1596  -1.1588  -1.1332  -1.1286  -1.1279
    -1.0990  -1.0481  -1.0471  -1.0458  -1.0449  -1.0405  -1.0389  -1.0293
    -1.0107  -1.0105  -0.9711  -0.9701  -0.9468  -0.9398  -0.9382  -0.9346
    -0.9300  -0.9256  -0.9101  -0.9094  -0.9084  -0.9058  -0.9035  -0.8691
    -0.8665  -0.8656  -0.8642  -0.8343  -0.8339  -0.8302  -0.8068  -0.7987
    -0.7978  -0.7521  -0.7455  -0.7432  -0.7099  -0.7014  -0.6909  -0.6905
    -0.6826  -0.6820  -0.6816  -0.6794  -0.6695  -0.6681  -0.6431  -0.6422
    -0.6399  -0.6381  -0.6368  -0.6005  -0.5999  -0.5896  -0.5884  -0.5737
    -0.5667  -0.5650  -0.5541  -0.4988  -0.4963  -0.4877  -0.4874  -0.4864
    -0.4855  -0.4806  -0.4618  -0.4600  -0.4524  -0.4520  -0.4501  -0.4494
    -0.4107  -0.4083  -0.4077  -0.4001  -0.3990  -0.3942  -0.3923  -0.3822
    -0.3766  -0.3733  -0.3720  -0.3309  -0.3301  -0.3220  -0.3186  -0.3180
    -0.2413  -0.2402  -0.2382  -0.2375  -0.2288  -0.2282  -0.1919  -0.1793
    -0.1788  -0.1525  -0.1475  -0.1462  -0.0265  -0.0238   0.0770   0.4921
     0.4926   0.4950   0.4957   0.5547   0.5591   0.9452   0.9458   0.9876
     0.9891   1.0965   1.1771   1.2858   1.2916   1.5048   1.5162   2.1412
     2.1442   2.3031   2.3074   2.4338   2.4404   2.5403   2.5417   2.6950
     2.9328   2.9358   3.0557   3.2782   3.2847   3.3641   3.3663   3.4648
     3.4803   3.6668   3.6796   3.7370   3.9373   3.9378   3.9981   4.0032
     4.2569   4.2623   4.2687   4.5082   4.5488   4.5515   4.5954   4.9307
     4.9328   4.9607   5.0944   5.0969   5.2678   5.2691   5.3174   5.3461
     5.7395   5.9267   6.0532   6.0567   6.0610   6.0706   6.1304   6.1316
     6.2003   6.2406   6.2657   6.2910   6.2926   6.3013   6.3084   6.3372
     6.3536   6.3616   6.4750   6.5867   6.7415   6.7698   6.9103   6.9677
     6.9981   7.0019   7.0116

          k =-0.2500 0.1443 0.1111 (136898 PWs)   bands (ev):

   -18.9260  -6.7373  -6.4325  -5.6405  -5.3491  -5.2903  -5.2899  -4.7518
    -4.7516  -4.6197  -4.6195  -4.4651  -4.4330  -4.3721  -4.3384  -4.3379
    -4.3051  -4.3050  -4.1765  -4.1347  -4.1346  -4.0746  -4.0536  -4.0533
    -3.9512  -3.9511  -3.9150  -3.9148  -3.9147  -3.8878  -3.8662  -3.8662
    -3.7607  -3.7590  -3.7590  -3.7383  -3.7214  -3.7212  -3.7091  -3.7089
    -3.6957  -3.6655  -3.6655  -3.6653  -3.6651  -3.6326  -3.6325  -3.6148
    -3.6147  -3.5998  -3.5563  -3.5559  -3.5266  -3.5112  -3.5110  -3.5065
    -3.5065  -3.4318  -3.4318  -3.3962  -3.3944  -3.3940  -3.3263  -3.3262
    -3.3109  -3.3108  -3.2797  -3.2794  -3.2787  -3.2783  -3.1254  -3.1254
    -3.0998  -3.0992  -3.0943  -3.0795  -3.0782  -3.0535  -3.0520  -3.0150
    -3.0023  -2.9976  -2.9860  -2.9843  -2.9644  -2.9166  -2.9164  -2.8968
    -2.8923  -2.8914  -2.8513  -2.8507  -2.8449  -2.8436  -2.8282  -2.8267
    -2.7884  -2.7881  -2.7665  -2.7664  -2.7633  -2.7625  -2.7599  -2.6829
    -2.6825  -2.6810  -2.6527  -2.6518  -2.5906  -2.5904  -2.5622  -2.5610
    -2.5480  -2.5475  -2.5423  -2.5128  -2.5127  -2.5031  -2.4854  -2.4597
    -2.4595  -2.4593  -2.4387  -2.4385  -2.4274  -2.4268  -2.4241  -2.4231
    -2.4158  -2.3696  -2.3371  -2.3369  -2.3214  -2.3073  -2.3010  -2.3008
    -2.2936  -2.2929  -2.2918  -2.2619  -2.2617  -2.2612  -2.2518  -2.2515
    -2.2344  -2.2071  -2.2064  -2.2060  -2.2052  -2.2042  -2.1599  -2.1282
    -2.1281  -2.1275  -2.1213  -2.1124  -2.0992  -2.0991  -2.0825  -2.0824
    -2.0483  -2.0475  -2.0472  -2.0289  -2.0271  -2.0269  -1.9941  -1.9935
    -1.9525  -1.9521  -1.9449  -1.9430  -1.9426  -1.9363  -1.9357  -1.9337
    -1.9331  -1.9269  -1.9257  -1.9097  -1.9090  -1.7825  -1.7817  -1.7498
    -1.7444  -1.7431  -1.7384  -1.7380  -1.7203  -1.7199  -1.7174  -1.7172
    -1.7151  -1.6926  -1.6844  -1.6838  -1.6793  -1.6723  -1.6712  -1.6491
    -1.6489  -1.6205  -1.6204  -1.5881  -1.5879  -1.5778  -1.5697  -1.5520
    -1.5512  -1.5488  -1.5303  -1.5180  -1.5177  -1.5105  -1.5103  -1.4836
    -1.4835  -1.4665  -1.4664  -1.4347  -1.4332  -1.4243  -1.3732  -1.3730
    -1.3611  -1.3604  -1.3587  -1.3350  -1.3325  -1.2988  -1.2982  -1.2977
    -1.2646  -1.2546  -1.2534  -1.2385  -1.2381  -1.2120  -1.2103  -1.2096
    -1.1803  -1.1777  -1.1772  -1.1150  -1.1143  -1.1017  -1.1004  -1.0850
    -1.0847  -1.0723  -1.0722  -1.0541  -1.0413  -1.0136  -1.0133  -1.0025
    -0.9792  -0.9644  -0.9628  -0.9528  -0.9519  -0.9499  -0.9476  -0.9443
    -0.9309  -0.9282  -0.8999  -0.8993  -0.8895  -0.8880  -0.8868  -0.8822
    -0.8629  -0.8451  -0.8417  -0.8240  -0.8212  -0.7301  -0.7173  -0.7115
    -0.7113  -0.7073  -0.7021  -0.7010  -0.6796  -0.6757  -0.6614  -0.6595
    -0.6460  -0.6450  -0.6366  -0.6171  -0.6148  -0.6142  -0.6060  -0.5344
    -0.5341  -0.5009  -0.4986  -0.4959  -0.4894  -0.4879  -0.4874  -0.4867
    -0.4746  -0.4729  -0.4578  -0.4331  -0.4184  -0.3988  -0.3978  -0.3874
    -0.3863  -0.3746  -0.3736  -0.3732  -0.3714  -0.3707  -0.3538  -0.3498
    -0.3488  -0.3188  -0.3175  -0.3165  -0.3050  -0.3048  -0.2856  -0.2536
    -0.2531  -0.2443  -0.2436  -0.1760  -0.1755  -0.1386  -0.1384  -0.0812
    -0.0788  -0.0783  -0.0677  -0.0495   0.1707   0.1772   0.5205   0.5206
     0.6095   0.6155   0.8047   0.8218   0.8383   0.9686   0.9700   1.4007
     1.4008   1.4192   1.6771   1.7107   1.7108   1.9838   1.9930   2.0670
     2.0675   2.0925   2.0981   2.3237   2.3238   2.4117   2.4122   2.4819
     2.5472   2.5575   2.7159   2.8135   3.2536   3.2548   3.2566   3.2601
     3.3126   3.3129   3.6050   3.6052   3.8838   3.8899   3.9857   4.3008
     4.3421   4.3463   4.5500   4.5644   4.6441   4.6461   4.7357   4.8529
     4.8559   4.9704   4.9723   5.0640   5.2756   5.3428   5.3472   5.4938
     5.5176   5.7314   5.7325   5.7400   5.7587   5.7595   5.8213   5.8232
     5.8701   6.0447   6.2508   6.2615   6.4281   6.4452   6.5629   6.5652
     6.5697   6.5765   6.5875   6.7438   6.8148   6.8184   6.8228   6.9748
     7.0095   7.0332   7.0529

          k =-0.2500-0.1443-0.1111 (136898 PWs)   bands (ev):

   -18.9260  -6.7373  -6.4325  -5.6405  -5.3491  -5.2902  -5.2900  -4.7517
    -4.7516  -4.6202  -4.6192  -4.4651  -4.4330  -4.3722  -4.3383  -4.3381
    -4.3052  -4.3048  -4.1764  -4.1348  -4.1345  -4.0745  -4.0536  -4.0534
    -3.9512  -3.9511  -3.9151  -3.9148  -3.9147  -3.8878  -3.8664  -3.8660
    -3.7606  -3.7592  -3.7589  -3.7382  -3.7215  -3.7212  -3.7091  -3.7090
    -3.6956  -3.6656  -3.6655  -3.6652  -3.6650  -3.6328  -3.6325  -3.6148
    -3.6146  -3.5996  -3.5565  -3.5559  -3.5268  -3.5112  -3.5110  -3.5065
    -3.5064  -3.4319  -3.4317  -3.3961  -3.3944  -3.3938  -3.3265  -3.3263
    -3.3108  -3.3107  -3.2795  -3.2792  -3.2790  -3.2787  -3.1256  -3.1253
    -3.0999  -3.0991  -3.0943  -3.0796  -3.0782  -3.0534  -3.0519  -3.0150
    -3.0023  -2.9978  -2.9859  -2.9843  -2.9644  -2.9165  -2.9163  -2.8968
    -2.8924  -2.8916  -2.8513  -2.8508  -2.8449  -2.8438  -2.8281  -2.8269
    -2.7882  -2.7879  -2.7667  -2.7661  -2.7632  -2.7626  -2.7598  -2.6829
    -2.6826  -2.6812  -2.6527  -2.6519  -2.5907  -2.5901  -2.5621  -2.5610
    -2.5477  -2.5474  -2.5424  -2.5128  -2.5125  -2.5032  -2.4853  -2.4599
    -2.4596  -2.4593  -2.4387  -2.4385  -2.4276  -2.4272  -2.4238  -2.4231
    -2.4158  -2.3695  -2.3371  -2.3370  -2.3213  -2.3075  -2.3009  -2.3008
    -2.2936  -2.2931  -2.2919  -2.2618  -2.2616  -2.2614  -2.2519  -2.2513
    -2.2342  -2.2074  -2.2065  -2.2056  -2.2052  -2.2044  -2.1600  -2.1284
    -2.1281  -2.1276  -2.1211  -2.1124  -2.0991  -2.0990  -2.0823  -2.0823
    -2.0483  -2.0474  -2.0471  -2.0289  -2.0271  -2.0271  -1.9939  -1.9936
    -1.9529  -1.9517  -1.9446  -1.9428  -1.9425  -1.9362  -1.9360  -1.9345
    -1.9329  -1.9265  -1.9258  -1.9096  -1.9092  -1.7823  -1.7819  -1.7496
    -1.7441  -1.7432  -1.7382  -1.7379  -1.7208  -1.7204  -1.7173  -1.7171
    -1.7146  -1.6926  -1.6842  -1.6839  -1.6791  -1.6724  -1.6708  -1.6494
    -1.6491  -1.6210  -1.6202  -1.5879  -1.5878  -1.5777  -1.5696  -1.5519
    -1.5513  -1.5485  -1.5303  -1.5182  -1.5179  -1.5107  -1.5104  -1.4833
    -1.4833  -1.4669  -1.4663  -1.4350  -1.4336  -1.4242  -1.3736  -1.3729
    -1.3609  -1.3607  -1.3587  -1.3352  -1.3322  -1.2987  -1.2984  -1.2973
    -1.2642  -1.2546  -1.2536  -1.2383  -1.2380  -1.2116  -1.2105  -1.2095
    -1.1804  -1.1775  -1.1773  -1.1150  -1.1148  -1.1018  -1.1007  -1.0852
    -1.0846  -1.0721  -1.0716  -1.0537  -1.0411  -1.0141  -1.0129  -1.0019
    -0.9739  -0.9677  -0.9628  -0.9535  -0.9520  -0.9499  -0.9487  -0.9435
    -0.9352  -0.9308  -0.8999  -0.8994  -0.8884  -0.8882  -0.8847  -0.8810
    -0.8629  -0.8432  -0.8424  -0.8232  -0.8218  -0.7300  -0.7173  -0.7114
    -0.7114  -0.7073  -0.7021  -0.7011  -0.6803  -0.6758  -0.6609  -0.6599
    -0.6459  -0.6454  -0.6368  -0.6164  -0.6152  -0.6144  -0.6060  -0.5344
    -0.5341  -0.5003  -0.4993  -0.4959  -0.4891  -0.4883  -0.4872  -0.4869
    -0.4747  -0.4724  -0.4580  -0.4330  -0.4186  -0.3986  -0.3981  -0.3873
    -0.3865  -0.3747  -0.3732  -0.3731  -0.3714  -0.3709  -0.3537  -0.3498
    -0.3490  -0.3187  -0.3176  -0.3161  -0.3050  -0.3047  -0.2856  -0.2535
    -0.2531  -0.2441  -0.2437  -0.1762  -0.1755  -0.1388  -0.1381  -0.0812
    -0.0790  -0.0780  -0.0682  -0.0495   0.1722   0.1762   0.5205   0.5206
     0.6109   0.6147   0.8030   0.8227   0.8383   0.9689   0.9697   1.4007
     1.4009   1.4192   1.6771   1.7107   1.7110   1.9858   1.9911   2.0670
     2.0675   2.0936   2.0971   2.3233   2.3241   2.4118   2.4120   2.4823
     2.5488   2.5553   2.7156   2.8137   3.2533   3.2550   3.2572   3.2597
     3.3126   3.3134   3.6048   3.6054   3.8852   3.8889   3.9864   4.3008
     4.3427   4.3452   4.5513   4.5582   4.6443   4.6457   4.7362   4.8526
     4.8554   4.9711   4.9723   5.0747   5.2757   5.3418   5.3476   5.5034
     5.5127   5.7277   5.7317   5.7339   5.7587   5.7597   5.8211   5.8248
     5.8589   5.9980   6.2436   6.3577   6.4235   6.4405   6.5586   6.5658
     6.5661   6.5775   6.5838   6.6991   6.8187   6.8205   6.9197   6.9582
     6.9855   7.0394   7.0434

          k = 0.2500 0.1443-0.1111 (136898 PWs)   bands (ev):

   -18.9260  -6.7373  -6.4325  -5.6405  -5.3491  -5.2902  -5.2900  -4.7517
    -4.7516  -4.6202  -4.6192  -4.4651  -4.4330  -4.3722  -4.3383  -4.3381
    -4.3052  -4.3048  -4.1764  -4.1348  -4.1345  -4.0745  -4.0536  -4.0534
    -3.9512  -3.9511  -3.9151  -3.9148  -3.9147  -3.8878  -3.8664  -3.8660
    -3.7606  -3.7592  -3.7589  -3.7382  -3.7215  -3.7212  -3.7091  -3.7090
    -3.6956  -3.6656  -3.6655  -3.6652  -3.6650  -3.6328  -3.6325  -3.6148
    -3.6146  -3.5996  -3.5565  -3.5559  -3.5268  -3.5112  -3.5110  -3.5065
    -3.5064  -3.4319  -3.4317  -3.3961  -3.3944  -3.3938  -3.3265  -3.3263
    -3.3108  -3.3107  -3.2795  -3.2792  -3.2790  -3.2787  -3.1256  -3.1253
    -3.0999  -3.0991  -3.0943  -3.0796  -3.0782  -3.0534  -3.0519  -3.0150
    -3.0023  -2.9978  -2.9859  -2.9843  -2.9643  -2.9165  -2.9163  -2.8968
    -2.8924  -2.8916  -2.8513  -2.8508  -2.8449  -2.8438  -2.8281  -2.8269
    -2.7882  -2.7879  -2.7667  -2.7661  -2.7632  -2.7626  -2.7598  -2.6829
    -2.6826  -2.6812  -2.6527  -2.6519  -2.5907  -2.5901  -2.5621  -2.5610
    -2.5477  -2.5474  -2.5424  -2.5128  -2.5125  -2.5032  -2.4853  -2.4599
    -2.4596  -2.4593  -2.4387  -2.4385  -2.4276  -2.4272  -2.4238  -2.4231
    -2.4158  -2.3695  -2.3372  -2.3370  -2.3213  -2.3075  -2.3009  -2.3008
    -2.2936  -2.2931  -2.2919  -2.2618  -2.2616  -2.2614  -2.2519  -2.2513
    -2.2342  -2.2074  -2.2065  -2.2056  -2.2052  -2.2044  -2.1601  -2.1284
    -2.1281  -2.1276  -2.1211  -2.1124  -2.0991  -2.0990  -2.0823  -2.0823
    -2.0483  -2.0474  -2.0471  -2.0289  -2.0271  -2.0271  -1.9939  -1.9936
    -1.9529  -1.9517  -1.9446  -1.9428  -1.9425  -1.9363  -1.9360  -1.9345
    -1.9329  -1.9265  -1.9258  -1.9096  -1.9092  -1.7823  -1.7819  -1.7496
    -1.7441  -1.7432  -1.7382  -1.7379  -1.7208  -1.7204  -1.7173  -1.7171
    -1.7147  -1.6926  -1.6842  -1.6839  -1.6791  -1.6724  -1.6708  -1.6494
    -1.6491  -1.6209  -1.6202  -1.5879  -1.5878  -1.5777  -1.5696  -1.5519
    -1.5513  -1.5485  -1.5303  -1.5182  -1.5179  -1.5107  -1.5104  -1.4833
    -1.4833  -1.4669  -1.4663  -1.4350  -1.4336  -1.4242  -1.3736  -1.3729
    -1.3609  -1.3607  -1.3587  -1.3352  -1.3322  -1.2987  -1.2984  -1.2973
    -1.2642  -1.2546  -1.2536  -1.2383  -1.2380  -1.2116  -1.2105  -1.2095
    -1.1804  -1.1775  -1.1773  -1.1150  -1.1148  -1.1018  -1.1007  -1.0852
    -1.0846  -1.0721  -1.0716  -1.0537  -1.0411  -1.0141  -1.0129  -1.0019
    -0.9739  -0.9677  -0.9628  -0.9535  -0.9520  -0.9499  -0.9487  -0.9434
    -0.9352  -0.9308  -0.8999  -0.8994  -0.8884  -0.8882  -0.8847  -0.8810
    -0.8629  -0.8432  -0.8424  -0.8232  -0.8218  -0.7300  -0.7172  -0.7114
    -0.7114  -0.7073  -0.7021  -0.7011  -0.6803  -0.6758  -0.6609  -0.6599
    -0.6459  -0.6454  -0.6368  -0.6164  -0.6152  -0.6144  -0.6060  -0.5344
    -0.5340  -0.5003  -0.4993  -0.4959  -0.4891  -0.4883  -0.4872  -0.4869
    -0.4747  -0.4724  -0.4580  -0.4330  -0.4186  -0.3986  -0.3981  -0.3873
    -0.3865  -0.3747  -0.3732  -0.3731  -0.3714  -0.3709  -0.3537  -0.3498
    -0.3490  -0.3187  -0.3176  -0.3161  -0.3050  -0.3047  -0.2856  -0.2535
    -0.2531  -0.2441  -0.2436  -0.1762  -0.1755  -0.1388  -0.1381  -0.0812
    -0.0790  -0.0780  -0.0682  -0.0495   0.1722   0.1762   0.5205   0.5206
     0.6109   0.6147   0.8030   0.8227   0.8383   0.9689   0.9697   1.4007
     1.4009   1.4192   1.6771   1.7107   1.7110   1.9858   1.9911   2.0670
     2.0675   2.0936   2.0971   2.3233   2.3241   2.4118   2.4120   2.4823
     2.5488   2.5553   2.7156   2.8137   3.2533   3.2550   3.2572   3.2597
     3.3126   3.3134   3.6048   3.6054   3.8852   3.8889   3.9864   4.3008
     4.3427   4.3452   4.5513   4.5582   4.6443   4.6457   4.7362   4.8526
     4.8554   4.9711   4.9723   5.0747   5.2757   5.3418   5.3476   5.5034
     5.5127   5.7277   5.7317   5.7337   5.7587   5.7597   5.8211   5.8248
     5.8590   5.9991   6.2437   6.3569   6.4226   6.4382   6.5561   6.5654
     6.5659   6.5775   6.5836   6.7018   6.8187   6.8205   6.9228   6.9609
     6.9907   7.0398   7.0454

          k = 0.0000-0.2887 0.1111 (136898 PWs)   bands (ev):

   -18.9260  -6.7373  -6.4325  -5.6405  -5.3491  -5.2902  -5.2900  -4.7518
    -4.7515  -4.6200  -4.6193  -4.4651  -4.4330  -4.3722  -4.3384  -4.3379
    -4.3051  -4.3049  -4.1764  -4.1347  -4.1346  -4.0745  -4.0536  -4.0533
    -3.9512  -3.9511  -3.9150  -3.9148  -3.9147  -3.8878  -3.8663  -3.8661
    -3.7607  -3.7591  -3.7590  -3.7382  -3.7215  -3.7213  -3.7091  -3.7090
    -3.6957  -3.6656  -3.6655  -3.6652  -3.6649  -3.6328  -3.6324  -3.6148
    -3.6146  -3.5996  -3.5564  -3.5560  -3.5268  -3.5111  -3.5110  -3.5065
    -3.5064  -3.4319  -3.4318  -3.3961  -3.3943  -3.3939  -3.3265  -3.3263
    -3.3108  -3.3108  -3.2797  -3.2792  -3.2790  -3.2786  -3.1256  -3.1254
    -3.0999  -3.0990  -3.0943  -3.0795  -3.0782  -3.0534  -3.0520  -3.0150
    -3.0023  -2.9977  -2.9860  -2.9843  -2.9643  -2.9167  -2.9162  -2.8969
    -2.8924  -2.8915  -2.8513  -2.8507  -2.8449  -2.8437  -2.8282  -2.8268
    -2.7882  -2.7879  -2.7666  -2.7662  -2.7632  -2.7625  -2.7598  -2.6829
    -2.6825  -2.6812  -2.6527  -2.6518  -2.5907  -2.5902  -2.5620  -2.5610
    -2.5478  -2.5473  -2.5424  -2.5127  -2.5125  -2.5032  -2.4853  -2.4599
    -2.4596  -2.4594  -2.4386  -2.4384  -2.4276  -2.4271  -2.4239  -2.4231
    -2.4158  -2.3696  -2.3372  -2.3370  -2.3213  -2.3075  -2.3009  -2.3008
    -2.2937  -2.2930  -2.2919  -2.2619  -2.2615  -2.2613  -2.2517  -2.2515
    -2.2343  -2.2071  -2.2066  -2.2062  -2.2050  -2.2042  -2.1601  -2.1283
    -2.1282  -2.1276  -2.1212  -2.1125  -2.0992  -2.0989  -2.0823  -2.0822
    -2.0483  -2.0475  -2.0471  -2.0289  -2.0272  -2.0270  -1.9940  -1.9935
    -1.9526  -1.9520  -1.9447  -1.9429  -1.9425  -1.9363  -1.9359  -1.9339
    -1.9331  -1.9267  -1.9257  -1.9097  -1.9091  -1.7824  -1.7818  -1.7497
    -1.7442  -1.7431  -1.7383  -1.7379  -1.7211  -1.7201  -1.7173  -1.7171
    -1.7147  -1.6926  -1.6842  -1.6836  -1.6795  -1.6721  -1.6710  -1.6493
    -1.6491  -1.6208  -1.6203  -1.5880  -1.5878  -1.5776  -1.5696  -1.5520
    -1.5512  -1.5486  -1.5303  -1.5181  -1.5179  -1.5106  -1.5104  -1.4834
    -1.4833  -1.4668  -1.4662  -1.4349  -1.4334  -1.4243  -1.3735  -1.3729
    -1.3610  -1.3606  -1.3587  -1.3352  -1.3322  -1.2988  -1.2981  -1.2975
    -1.2645  -1.2546  -1.2534  -1.2384  -1.2379  -1.2118  -1.2104  -1.2096
    -1.1803  -1.1776  -1.1773  -1.1151  -1.1146  -1.1018  -1.1005  -1.0851
    -1.0848  -1.0721  -1.0718  -1.0537  -1.0412  -1.0138  -1.0131  -1.0023
    -0.9776  -0.9652  -0.9627  -0.9530  -0.9520  -0.9501  -0.9482  -0.9441
    -0.9309  -0.9307  -0.8998  -0.8994  -0.8889  -0.8882  -0.8857  -0.8820
    -0.8629  -0.8445  -0.8420  -0.8237  -0.8214  -0.7300  -0.7173  -0.7115
    -0.7114  -0.7072  -0.7022  -0.7011  -0.6798  -0.6757  -0.6612  -0.6597
    -0.6460  -0.6452  -0.6368  -0.6168  -0.6148  -0.6143  -0.6061  -0.5343
    -0.5341  -0.5007  -0.4988  -0.4959  -0.4893  -0.4880  -0.4873  -0.4868
    -0.4748  -0.4727  -0.4579  -0.4330  -0.4186  -0.3988  -0.3979  -0.3874
    -0.3864  -0.3745  -0.3734  -0.3732  -0.3715  -0.3708  -0.3537  -0.3498
    -0.3489  -0.3187  -0.3174  -0.3164  -0.3049  -0.3048  -0.2856  -0.2536
    -0.2530  -0.2442  -0.2436  -0.1762  -0.1756  -0.1388  -0.1382  -0.0812
    -0.0789  -0.0782  -0.0680  -0.0495   0.1713   0.1770   0.5205   0.5206
     0.6100   0.6153   0.8041   0.8221   0.8382   0.9687   0.9699   1.4007
     1.4008   1.4193   1.6771   1.7108   1.7109   1.9845   1.9924   2.0669
     2.0675   2.0928   2.0978   2.3234   2.3239   2.4118   2.4122   2.4820
     2.5477   2.5567   2.7157   2.8136   3.2536   3.2549   3.2568   3.2601
     3.3126   3.3130   3.6050   3.6052   3.8842   3.8896   3.9860   4.3008
     4.3422   4.3458   4.5524   4.5603   4.6443   4.6459   4.7360   4.8527
     4.8559   4.9708   4.9726   5.0672   5.2756   5.3427   5.3471   5.4974
     5.5162   5.7311   5.7319   5.7375   5.7587   5.7597   5.8209   5.8240
     5.8656   6.0221   6.2552   6.2904   6.4267   6.4436   6.5622   6.5653
     6.5687   6.5770   6.5862   6.7325   6.8180   6.8212   6.8451   6.9703
     7.0001   7.0343   7.0509

          k = 0.0000 0.2887 0.1111 (136898 PWs)   bands (ev):

   -18.9260  -6.7373  -6.4325  -5.6405  -5.3491  -5.2902  -5.2900  -4.7518
    -4.7515  -4.6200  -4.6193  -4.4651  -4.4330  -4.3722  -4.3384  -4.3379
    -4.3051  -4.3049  -4.1764  -4.1347  -4.1346  -4.0745  -4.0536  -4.0533
    -3.9512  -3.9511  -3.9151  -3.9148  -3.9147  -3.8878  -3.8663  -3.8661
    -3.7607  -3.7591  -3.7590  -3.7382  -3.7215  -3.7213  -3.7091  -3.7090
    -3.6957  -3.6656  -3.6655  -3.6652  -3.6649  -3.6328  -3.6324  -3.6148
    -3.6146  -3.5996  -3.5564  -3.5560  -3.5268  -3.5111  -3.5110  -3.5065
    -3.5064  -3.4319  -3.4318  -3.3961  -3.3943  -3.3939  -3.3265  -3.3263
    -3.3108  -3.3108  -3.2797  -3.2792  -3.2790  -3.2786  -3.1256  -3.1254
    -3.0999  -3.0990  -3.0943  -3.0795  -3.0782  -3.0534  -3.0520  -3.0150
    -3.0023  -2.9977  -2.9860  -2.9843  -2.9643  -2.9167  -2.9162  -2.8969
    -2.8924  -2.8915  -2.8513  -2.8507  -2.8449  -2.8437  -2.8282  -2.8268
    -2.7882  -2.7879  -2.7666  -2.7662  -2.7632  -2.7625  -2.7598  -2.6829
    -2.6825  -2.6812  -2.6527  -2.6518  -2.5907  -2.5902  -2.5620  -2.5610
    -2.5478  -2.5473  -2.5424  -2.5127  -2.5125  -2.5032  -2.4853  -2.4599
    -2.4596  -2.4594  -2.4386  -2.4384  -2.4276  -2.4271  -2.4239  -2.4231
    -2.4158  -2.3696  -2.3372  -2.3370  -2.3213  -2.3075  -2.3009  -2.3008
    -2.2937  -2.2930  -2.2919  -2.2619  -2.2615  -2.2613  -2.2517  -2.2515
    -2.2343  -2.2071  -2.2066  -2.2062  -2.2050  -2.2042  -2.1601  -2.1283
    -2.1282  -2.1276  -2.1212  -2.1125  -2.0992  -2.0989  -2.0823  -2.0822
    -2.0483  -2.0475  -2.0471  -2.0289  -2.0272  -2.0270  -1.9940  -1.9935
    -1.9526  -1.9520  -1.9447  -1.9429  -1.9425  -1.9363  -1.9360  -1.9339
    -1.9331  -1.9267  -1.9257  -1.9097  -1.9091  -1.7824  -1.7818  -1.7497
    -1.7442  -1.7431  -1.7383  -1.7379  -1.7211  -1.7201  -1.7173  -1.7171
    -1.7147  -1.6926  -1.6842  -1.6836  -1.6795  -1.6721  -1.6710  -1.6493
    -1.6491  -1.6208  -1.6203  -1.5880  -1.5878  -1.5776  -1.5696  -1.5520
    -1.5512  -1.5486  -1.5303  -1.5181  -1.5179  -1.5106  -1.5104  -1.4834
    -1.4833  -1.4668  -1.4662  -1.4349  -1.4334  -1.4243  -1.3735  -1.3729
    -1.3610  -1.3606  -1.3587  -1.3352  -1.3322  -1.2988  -1.2981  -1.2975
    -1.2645  -1.2546  -1.2534  -1.2384  -1.2379  -1.2118  -1.2104  -1.2096
    -1.1803  -1.1776  -1.1773  -1.1151  -1.1146  -1.1018  -1.1005  -1.0851
    -1.0848  -1.0721  -1.0718  -1.0537  -1.0412  -1.0138  -1.0131  -1.0023
    -0.9776  -0.9653  -0.9627  -0.9530  -0.9520  -0.9501  -0.9482  -0.9440
    -0.9309  -0.9307  -0.8998  -0.8994  -0.8889  -0.8882  -0.8857  -0.8820
    -0.8629  -0.8445  -0.8420  -0.8237  -0.8214  -0.7300  -0.7173  -0.7115
    -0.7114  -0.7072  -0.7022  -0.7011  -0.6798  -0.6757  -0.6612  -0.6596
    -0.6460  -0.6452  -0.6368  -0.6168  -0.6148  -0.6143  -0.6061  -0.5343
    -0.5341  -0.5007  -0.4988  -0.4959  -0.4893  -0.4880  -0.4873  -0.4868
    -0.4748  -0.4727  -0.4579  -0.4330  -0.4186  -0.3988  -0.3979  -0.3874
    -0.3864  -0.3746  -0.3734  -0.3732  -0.3715  -0.3708  -0.3537  -0.3498
    -0.3489  -0.3187  -0.3174  -0.3164  -0.3049  -0.3048  -0.2856  -0.2536
    -0.2531  -0.2442  -0.2436  -0.1762  -0.1756  -0.1388  -0.1382  -0.0812
    -0.0789  -0.0782  -0.0680  -0.0495   0.1713   0.1770   0.5205   0.5206
     0.6100   0.6153   0.8041   0.8221   0.8382   0.9687   0.9699   1.4007
     1.4008   1.4193   1.6771   1.7108   1.7109   1.9845   1.9924   2.0669
     2.0675   2.0928   2.0978   2.3234   2.3239   2.4118   2.4122   2.4820
     2.5477   2.5567   2.7157   2.8136   3.2536   3.2549   3.2568   3.2601
     3.3126   3.3130   3.6050   3.6052   3.8842   3.8896   3.9860   4.3008
     4.3422   4.3458   4.5524   4.5603   4.6443   4.6459   4.7360   4.8527
     4.8559   4.9708   4.9726   5.0672   5.2756   5.3427   5.3471   5.4974
     5.5162   5.7311   5.7321   5.7374   5.7587   5.7597   5.8209   5.8240
     5.8657   6.0217   6.2550   6.2906   6.4269   6.4432   6.5614   6.5653
     6.5676   6.5770   6.5860   6.7312   6.8180   6.8213   6.8459   6.9740
     7.0042   7.0349   7.0528

     the Fermi energy is     1.5434 ev

!    total energy              =   -6604.43435047 Ry
     Harris-Foulkes estimate   =   -6604.43435046 Ry
     estimated scf accuracy    <          8.1E-09 Ry

     The total energy is the sum of the following terms:

     one-electron contribution =  -48483.81846959 Ry
     hartree contribution      =   24745.87189600 Ry
     xc contribution           =   -3204.95550802 Ry
     ewald contribution        =   20338.46484158 Ry
     smearing contrib. (-TS)   =       0.00288955 Ry

     convergence has been achieved in  24 iterations

     Writing output data file 9139902.save

     init_run     :    138.14s CPU    149.45s WALL (       1 calls)
     electrons    :   8777.89s CPU   9399.04s WALL (       1 calls)

     Called by init_run:
     wfcinit      :    108.26s CPU    118.78s WALL (       1 calls)
     potinit      :      9.71s CPU     10.16s WALL (       1 calls)

     Called by electrons:
     c_bands      :   7491.97s CPU   7987.62s WALL (      25 calls)
     sum_band     :    923.60s CPU   1033.63s WALL (      25 calls)
     v_of_rho     :     99.81s CPU    110.13s WALL (      25 calls)
     newd         :    269.69s CPU    274.34s WALL (      25 calls)
     mix_rho      :      2.75s CPU      3.08s WALL (      25 calls)
     vdW_energy   :      8.12s CPU      9.04s WALL (      25 calls)
     vdW_ffts     :     49.27s CPU     54.50s WALL (      50 calls)
     vdW_v        :     13.89s CPU     14.72s WALL (      25 calls)

     Called by c_bands:
     init_us_2    :     20.44s CPU     20.95s WALL (     612 calls)
     cegterg      :   7400.63s CPU   7893.50s WALL (     300 calls)

     Called by *egterg:
     h_psi        :   2941.22s CPU   3391.93s WALL (    1867 calls)
     s_psi        :    441.53s CPU    444.25s WALL (    1867 calls)
     g_psi        :      6.20s CPU      6.25s WALL (    1555 calls)
     cdiaghg      :   2407.63s CPU   2414.44s WALL (    1843 calls)

     Called by h_psi:
     add_vuspsi   :    441.85s CPU    444.36s WALL (    1867 calls)

     General routines
     calbec       :    660.07s CPU    662.67s WALL (    2167 calls)
     fft          :    122.16s CPU    131.45s WALL (    1650 calls)
     ffts         :      1.45s CPU      1.66s WALL (      50 calls)
     fftw         :   2088.61s CPU   2562.09s WALL (  735280 calls)
     interpolate  :      4.16s CPU      4.86s WALL (      50 calls)
     davcio       :      0.02s CPU      0.43s WALL (      12 calls)

     Parallel routines
     fft_scatter  :   1405.94s CPU   1731.41s WALL (  736980 calls)

     PWSCF        :     2h28m CPU        2h39m WALL


   This run was terminated on:  17:40:13  29Aug2015            

=------------------------------------------------------------------------------=
   JOB DONE.
=------------------------------------------------------------------------------=
