Setting SGE environment for SCC

     Program PWSCF v.5.1.2 starts on 25Jun2015 at  3:30:15 

     This program is part of the open-source Quantum ESPRESSO suite
     for quantum simulation of materials; please cite
         "P. Giannozzi et al., J. Phys.:Condens. Matter 21 395502 (2009);
          URL http://www.quantum-espresso.org", 
     in publications or presentations arising from this work. More details at
     http://www.quantum-espresso.org/quote

     Parallel version (MPI), running on    32 processors
     R & G space division:  proc/nbgrp/npool/nimage =      32
     Reading input from top.O1.Au50.d.2.6.phi.25.psi.180.in
Warning: card &IONS ignored
Warning: card / ignored
Warning: card &CELL ignored
Warning: card / ignored

     Current dimensions of program PWSCF are:
     Max number of different atomic species (ntypx) = 10
     Max number of k-points (npk) =  40000
     Max angular momentum in pseudopotentials (lmaxx) =  3

     IMPORTANT: XC functional enforced from input :
     Exchange-correlation      = VDW-DF ( 1  4  4  0 1 0)
     Any further DFT definition will be discarded
     Please, verify this is what you really want


     Subspace diagonalization in iterative solution of the eigenvalue problem:
     a serial algorithm will be used


     Parallelization info
     --------------------
     sticks:   dense  smooth     PW     G-vecs:    dense   smooth      PW
     Min         445     223     58                96775    34191    4534
     Max         446     224     59                96790    34246    4540
     Sum       14269    7147   1867              3097177  1095093  145167


     Title: 
     top.O1.Au50.d.2.6.phi.25.psi.180                                           


     bravais-lattice index     =            4
     lattice parameter (alat)  =      22.7436  a.u.
     unit-cell volume          =   22924.1508 (a.u.)^3
     number of atoms/cell      =           67
     number of atomic types    =            3
     number of electrons       =       712.00
     number of Kohn-Sham states=          427
     kinetic-energy cutoff     =      50.0000  Ry
     charge density cutoff     =     400.0000  Ry
     convergence threshold     =      1.0E-08
     mixing beta               =       0.7000
     number of iterations used =            8  plain     mixing
     Exchange-correlation      = VDW-DF ( 1  4  4  0 1 0)

     celldm(1)=  22.743643  celldm(2)=   0.000000  celldm(3)=   2.250000
     celldm(4)=   0.000000  celldm(5)=   0.000000  celldm(6)=   0.000000

     crystal axes: (cart. coord. in units of alat)
               a(1) = (   1.000000   0.000000   0.000000 )  
               a(2) = (  -0.500000   0.866025   0.000000 )  
               a(3) = (   0.000000   0.000000   2.250000 )  

     reciprocal axes: (cart. coord. in units 2 pi/alat)
               b(1) = (  1.000000  0.577350 -0.000000 )  
               b(2) = (  0.000000  1.154701  0.000000 )  
               b(3) = (  0.000000 -0.000000  0.444444 )  


     PseudoPot. # 1 for Au read from file:
     /home/scc/andrejb/qe/pseudo/Au.pbe-nd-van.UPF
     MD5 check sum: 458681b50f36d87ef23c61b04bba420a
     Pseudo is Ultrasoft + core correction, Zval = 11.0
     Generated by new atomic code, or converted to UPF format
     Using radial grid of  985 points,  3 beta functions with: 
                l(1) =   1
                l(2) =   2
                l(3) =   2
     Q(r) pseudized with  8 coefficients,  rinner =    1.100   1.100   1.100
                                                       1.100   1.100

     PseudoPot. # 2 for H  read from file:
     /home/scc/andrejb/qe/pseudo/H.pbe-van_ak.UPF
     MD5 check sum: 403db7282739603aa925980fa9b8608d
     Pseudo is Ultrasoft, Zval =  1.0
     Generated by new atomic code, or converted to UPF format
     Using radial grid of  615 points,  1 beta functions with: 
                l(1) =   0
     Q(r) pseudized with  8 coefficients,  rinner =    0.800

     PseudoPot. # 3 for O  read from file:
     /home/scc/andrejb/qe/pseudo/O.pbe-van_ak.UPF
     MD5 check sum: 4b8c549914a63cae506c6ff22b5af4fe
     Pseudo is Ultrasoft, Zval =  6.0
     Generated by new atomic code, or converted to UPF format
     Using radial grid of  737 points,  4 beta functions with: 
                l(1) =   0
                l(2) =   0
                l(3) =   1
                l(4) =   1
     Q(r) pseudized with  8 coefficients,  rinner =    0.800   0.800   0.800


     vdW kernel table read from file vdW_kernel_table
     MD5 check sum: 48e77a2e26edf626eeb0eaa751ad5cac

     atomic species   valence    mass     pseudopotential
        Au            11.00   196.96657     Au( 1.00)
        H              1.00     1.01000     H ( 1.00)
        O              6.00    16.00000     O ( 1.00)

     No symmetry found



   Cartesian axes

     site n.     atom                  positions (alat units)
         1           O   tau(   1) = (   0.4790780   0.3968269   0.8290259  )
         2           H   tau(   2) = (   0.4518956   0.4558240   0.7807723  )
         3           H   tau(   3) = (   0.5054281   0.3396014   0.7782652  )
         4           Au  tau(   4) = (   0.3540481   0.6132292   0.0000000  )
         5           Au  tau(   5) = (   0.4790062   0.3967954   0.0000000  )
         6           Au  tau(   6) = (   0.6039644   0.1803616   0.0000000  )
         7           Au  tau(   7) = (   0.7289225  -0.0360723   0.0000000  )
         8           Au  tau(   8) = (   0.1041318   0.6132292   0.0000000  )
         9           Au  tau(   9) = (   0.2290899   0.3967954   0.0000000  )
        10           Au  tau(  10) = (   0.3540481   0.1803616   0.0000000  )
        11           Au  tau(  11) = (   0.4790062  -0.0360723   0.0000000  )
        12           Au  tau(  12) = (  -0.1457845   0.6132292   0.0000000  )
        13           Au  tau(  13) = (  -0.0208264   0.3967954   0.0000000  )
        14           Au  tau(  14) = (   0.1041318   0.1803616   0.0000000  )
        15           Au  tau(  15) = (   0.2290899  -0.0360723   0.0000000  )
        16           Au  tau(  16) = (  -0.3957008   0.6132292   0.0000000  )
        17           Au  tau(  17) = (  -0.2707426   0.3967954   0.0000000  )
        18           Au  tau(  18) = (  -0.1457845   0.1803616   0.0000000  )
        19           Au  tau(  19) = (  -0.0208264  -0.0360723   0.0000000  )
        20           Au  tau(  20) = (   0.4790062   0.6853738   0.2040557  )
        21           Au  tau(  21) = (   0.6039644   0.4689400   0.2040557  )
        22           Au  tau(  22) = (   0.7289225   0.2525062   0.2040557  )
        23           Au  tau(  23) = (   0.8538806   0.0360723   0.2040557  )
        24           Au  tau(  24) = (   0.2290899   0.6853738   0.2040557  )
        25           Au  tau(  25) = (   0.3540481   0.4689400   0.2040557  )
        26           Au  tau(  26) = (   0.4790062   0.2525062   0.2040557  )
        27           Au  tau(  27) = (   0.6039644   0.0360723   0.2040557  )
        28           Au  tau(  28) = (  -0.0208264   0.6853738   0.2040557  )
        29           Au  tau(  29) = (   0.1041318   0.4689400   0.2040557  )
        30           Au  tau(  30) = (   0.2290899   0.2525062   0.2040557  )
        31           Au  tau(  31) = (   0.3540481   0.0360723   0.2040557  )
        32           Au  tau(  32) = (  -0.2707426   0.6853738   0.2040557  )
        33           Au  tau(  33) = (  -0.1457845   0.4689400   0.2040557  )
        34           Au  tau(  34) = (  -0.0208264   0.2525062   0.2040557  )
        35           Au  tau(  35) = (   0.1041318   0.0360723   0.2040557  )
        36           Au  tau(  36) = (   0.3541162   0.7576593   0.4066483  )
        37           Au  tau(  37) = (   0.4791000   0.5411421   0.4066696  )
        38           Au  tau(  38) = (   0.6040570   0.3246862   0.4066618  )
        39           Au  tau(  39) = (   0.7290270   0.1081684   0.4066530  )
        40           Au  tau(  40) = (   0.1041162   0.7576236   0.4066247  )
        41           Au  tau(  41) = (   0.2291001   0.5411062   0.4066455  )
        42           Au  tau(  42) = (   0.3540567   0.3246505   0.4066380  )
        43           Au  tau(  43) = (   0.4790276   0.1081324   0.4066292  )
        44           Au  tau(  44) = (  -0.1458201   0.7576104   0.4066225  )
        45           Au  tau(  45) = (  -0.0208365   0.5410930   0.4066438  )
        46           Au  tau(  46) = (   0.1041202   0.3246372   0.4066359  )
        47           Au  tau(  47) = (   0.2290908   0.1081193   0.4066273  )
        48           Au  tau(  48) = (  -0.3958167   0.7575791   0.4065812  )
        49           Au  tau(  49) = (  -0.2708328   0.5410617   0.4066025  )
        50           Au  tau(  50) = (  -0.1458763   0.3246061   0.4065947  )
        51           Au  tau(  51) = (  -0.0209056   0.1080882   0.4065858  )
        52           Au  tau(  52) = (   0.3541084   0.6133344   0.6129762  )
        53           Au  tau(  53) = (   0.4790780   0.3968269   0.6129968  )
        54           Au  tau(  54) = (   0.6040356   0.1803811   0.6129859  )
        55           Au  tau(  55) = (   0.7290165  -0.0361221   0.6129385  )
        56           Au  tau(  56) = (   0.1041243   0.6133091   0.6130023  )
        57           Au  tau(  57) = (   0.2290941   0.3968013   0.6130241  )
        58           Au  tau(  58) = (   0.3540515   0.1803552   0.6130121  )
        59           Au  tau(  59) = (   0.4790323  -0.0361475   0.6129659  )
        60           Au  tau(  60) = (  -0.1458030   0.6133014   0.6129980  )
        61           Au  tau(  61) = (  -0.0208339   0.3967936   0.6130189  )
        62           Au  tau(  62) = (   0.1041239   0.1803477   0.6130083  )
        63           Au  tau(  63) = (   0.2291046  -0.0361554   0.6129607  )
        64           Au  tau(  64) = (  -0.3957908   0.6132739   0.6129471  )
        65           Au  tau(  65) = (  -0.2708208   0.3967658   0.6129688  )
        66           Au  tau(  66) = (  -0.1458636   0.1803200   0.6129569  )
        67           Au  tau(  67) = (  -0.0208823  -0.0361826   0.6129110  )

     number of k points=    12  Marzari-Vanderbilt smearing, width (Ry)=  0.0200
                       cart. coord. in units 2pi/alat
        k(    1) = (   0.2500000   0.4330127   0.1111111), wk =   0.1666667
        k(    2) = (   0.2500000  -0.1443376   0.1111111), wk =   0.1666667
        k(    3) = (  -0.2500000  -0.4330127   0.1111111), wk =   0.1666667
        k(    4) = (  -0.2500000   0.4330127  -0.1111111), wk =   0.1666667
        k(    5) = (   0.2500000  -0.4330127  -0.1111111), wk =   0.1666667
        k(    6) = (   0.5000000   0.0000000   0.1111111), wk =   0.1666667
        k(    7) = (  -0.5000000   0.0000000   0.1111111), wk =   0.1666667
        k(    8) = (  -0.2500000   0.1443376   0.1111111), wk =   0.1666667
        k(    9) = (  -0.2500000  -0.1443376  -0.1111111), wk =   0.1666667
        k(   10) = (   0.2500000   0.1443376  -0.1111111), wk =   0.1666667
        k(   11) = (   0.0000000  -0.2886751   0.1111111), wk =   0.1666667
        k(   12) = (   0.0000000   0.2886751   0.1111111), wk =   0.1666667

     Dense  grid:  3097177 G-vectors     FFT dimensions: ( 150, 150, 360)

     Smooth grid:  1095093 G-vectors     FFT dimensions: ( 108, 108, 240)

     Largest allocated arrays     est. size (Mb)     dimensions
        Kohn-Sham Wavefunctions        28.01 Mb     (    4299,  427)
        NL pseudopotentials            55.23 Mb     (    4299,  842)
        Each V/rho on FFT grid          4.12 Mb     (  270000)
        Each G-vector array             0.74 Mb     (   96788)
        G-vector shells                 0.16 Mb     (   21404)
     Largest temporary arrays     est. size (Mb)     dimensions
        Auxiliary wavefunctions       112.04 Mb     (    4299, 1708)
        Each subspace H/S matrix       44.51 Mb     (    1708, 1708)
        Each <psi_i|beta_j> matrix      5.49 Mb     (     842,  427)
        Arrays for rho mixing          32.96 Mb     (  270000,    8)

     Initial potential from superposition of free atoms
     Check: negative starting charge=   -1.730371

     starting charge  711.25682, renormalised to  712.00000

     negative rho (up, down):  1.732E+00 0.000E+00


     ************************************************************************
     *
     * You are using vdW-DF for exchange-correlation in this calculation.
     * Please cite the following three references that made this development
     * possible:
     *
     *   M. Dion, H. Rydberg, E. Schroder, D. C. Langreth, and
     *   B. I. Lundqvist, Phys. Rev. Lett. 92, 246401 (2004).
     *
     *   T. Thonhauser, V. R. Cooper, S. Li, A. Puzder, P. Hyldgaard, and
     *   D. C. Langreth, Phys. Rev. B 76, 125112 (2007).
     *
     *   G. Roman-Perez and J. M. Soler, Phys. Rev. Lett. 103, 096102 (2009).
     *
     *
     * If you are using vdW-DF2, please also cite:
     *
     *   K. Lee, E. D. Murray, L. Kong, B. I. Lundqvist, and
     *   D. C. Langreth, Phys. Rev. B 82, 081101(R) (2010).
     *
     *
     * If you are calculating the stress with vdW-DF, please also cite:
     *
     *   R. Sabatini, E. Kucukbenli, B. Kolb, T. Thonhauser, and
     *   S. de Gironcoli, J. Phys.: Condens. Matter 24, 424209 (2012).
     *
     ************************************************************************

     Carrying out vdW-DF run using the following parameters:

     Nqs =      20    Nr_points =    1024   r_max =   100.000
     q_mesh =
               0.00001000     0.04494208     0.09755937     0.15916263
               0.23128650     0.31572767     0.41458969     0.53033537
               0.66584808     0.82450364     1.01025438     1.22772762
               1.48234092     1.78043706     2.12944203     2.53805004
               3.01644009     3.57652955     4.23227104     5.00000000

     Gradients computed in reciprocal space

     ************************************************************************


     Starting wfc are  582 randomized atomic wfcs

     total cpu time spent up to now is      151.9 secs

     Self-consistent Calculation

     iteration #  1     ecut=    50.00 Ry     beta=0.70
     Davidson diagonalization with overlap
     ethr =  1.00E-02,  avg # of iterations =  3.0

     Threshold (ethr) on eigenvalues was too large:
     Diagonalizing with lowered threshold

     Davidson diagonalization with overlap
     ethr =  3.31E-04,  avg # of iterations =  3.3

     negative rho (up, down):  1.727E+00 0.000E+00

     total cpu time spent up to now is      692.6 secs

     total energy              =   -6602.80987697 Ry
     Harris-Foulkes estimate   =   -6604.96527591 Ry
     estimated scf accuracy    <       2.70672209 Ry

     iteration #  2     ecut=    50.00 Ry     beta=0.70
     Davidson diagonalization with overlap
     ethr =  3.80E-04,  avg # of iterations = 11.1

     negative rho (up, down):  1.727E+00 0.000E+00

     total cpu time spent up to now is     1554.0 secs

     total energy              =   -6597.28050129 Ry
     Harris-Foulkes estimate   =   -6609.79541979 Ry
     estimated scf accuracy    <      68.38952698 Ry

     iteration #  3     ecut=    50.00 Ry     beta=0.70
     Davidson diagonalization with overlap
     ethr =  3.80E-04,  avg # of iterations =  6.0

     negative rho (up, down):  1.736E+00 0.000E+00

     total cpu time spent up to now is     2100.5 secs

     total energy              =   -6603.03702906 Ry
     Harris-Foulkes estimate   =   -6604.97333414 Ry
     estimated scf accuracy    <       9.07284130 Ry

     iteration #  4     ecut=    50.00 Ry     beta=0.70
     Davidson diagonalization with overlap
     ethr =  3.80E-04,  avg # of iterations =  5.4

     negative rho (up, down):  1.738E+00 0.000E+00

     total cpu time spent up to now is     2420.1 secs

     total energy              =   -6603.51719431 Ry
     Harris-Foulkes estimate   =   -6605.10657919 Ry
     estimated scf accuracy    <      14.23567991 Ry

     iteration #  5     ecut=    50.00 Ry     beta=0.70
     Davidson diagonalization with overlap
     ethr =  3.80E-04,  avg # of iterations =  6.7

     negative rho (up, down):  1.747E+00 0.000E+00

     total cpu time spent up to now is     2764.8 secs

     total energy              =   -6604.23996421 Ry
     Harris-Foulkes estimate   =   -6604.62756284 Ry
     estimated scf accuracy    <       2.77608374 Ry

     iteration #  6     ecut=    50.00 Ry     beta=0.70
     Davidson diagonalization with overlap
     ethr =  3.80E-04,  avg # of iterations =  2.5

     negative rho (up, down):  1.752E+00 0.000E+00

     total cpu time spent up to now is     3030.2 secs

     total energy              =   -6604.37778870 Ry
     Harris-Foulkes estimate   =   -6604.43056341 Ry
     estimated scf accuracy    <       0.17601004 Ry

     iteration #  7     ecut=    50.00 Ry     beta=0.70
     Davidson diagonalization with overlap
     ethr =  2.47E-05,  avg # of iterations = 12.4

     negative rho (up, down):  1.754E+00 0.000E+00

     total cpu time spent up to now is     3524.7 secs

     total energy              =   -6604.38781220 Ry
     Harris-Foulkes estimate   =   -6604.41767302 Ry
     estimated scf accuracy    <       0.13970212 Ry

     iteration #  8     ecut=    50.00 Ry     beta=0.70
     Davidson diagonalization with overlap
     c_bands:  1 eigenvalues not converged
     ethr =  1.96E-05,  avg # of iterations =  4.3

     negative rho (up, down):  1.755E+00 0.000E+00

     total cpu time spent up to now is     3814.2 secs

     total energy              =   -6604.39143156 Ry
     Harris-Foulkes estimate   =   -6604.40508399 Ry
     estimated scf accuracy    <       0.05586129 Ry

     iteration #  9     ecut=    50.00 Ry     beta=0.70
     Davidson diagonalization with overlap
     ethr =  7.85E-06,  avg # of iterations =  5.3

     negative rho (up, down):  1.756E+00 0.000E+00

     total cpu time spent up to now is     4139.8 secs

     total energy              =   -6604.39156758 Ry
     Harris-Foulkes estimate   =   -6604.39779301 Ry
     estimated scf accuracy    <       0.02364893 Ry

     iteration # 10     ecut=    50.00 Ry     beta=0.70
     Davidson diagonalization with overlap
     ethr =  3.32E-06,  avg # of iterations =  4.8

     negative rho (up, down):  1.756E+00 0.000E+00

     total cpu time spent up to now is     4456.9 secs

     total energy              =   -6604.39162377 Ry
     Harris-Foulkes estimate   =   -6604.39403100 Ry
     estimated scf accuracy    <       0.00915941 Ry

     iteration # 11     ecut=    50.00 Ry     beta=0.70
     Davidson diagonalization with overlap
     ethr =  1.29E-06,  avg # of iterations =  5.2

     negative rho (up, down):  1.757E+00 0.000E+00

     total cpu time spent up to now is     4772.4 secs

     total energy              =   -6604.39152103 Ry
     Harris-Foulkes estimate   =   -6604.39277055 Ry
     estimated scf accuracy    <       0.00480288 Ry

     iteration # 12     ecut=    50.00 Ry     beta=0.70
     Davidson diagonalization with overlap
     ethr =  6.75E-07,  avg # of iterations =  2.3

     negative rho (up, down):  1.757E+00 0.000E+00

     total cpu time spent up to now is     5035.4 secs

     total energy              =   -6604.39160386 Ry
     Harris-Foulkes estimate   =   -6604.39200658 Ry
     estimated scf accuracy    <       0.00083170 Ry

     iteration # 13     ecut=    50.00 Ry     beta=0.70
     Davidson diagonalization with overlap
     ethr =  1.17E-07,  avg # of iterations =  8.3

     negative rho (up, down):  1.757E+00 0.000E+00

     total cpu time spent up to now is     5440.5 secs

     total energy              =   -6604.39175444 Ry
     Harris-Foulkes estimate   =   -6604.39183713 Ry
     estimated scf accuracy    <       0.00023092 Ry

     iteration # 14     ecut=    50.00 Ry     beta=0.70
     Davidson diagonalization with overlap
     ethr =  3.24E-08,  avg # of iterations =  2.0

     negative rho (up, down):  1.757E+00 0.000E+00

     total cpu time spent up to now is     5712.4 secs

     total energy              =   -6604.39178215 Ry
     Harris-Foulkes estimate   =   -6604.39181888 Ry
     estimated scf accuracy    <       0.00014493 Ry

     iteration # 15     ecut=    50.00 Ry     beta=0.70
     Davidson diagonalization with overlap
     ethr =  2.04E-08,  avg # of iterations =  2.0

     negative rho (up, down):  1.757E+00 0.000E+00

     total cpu time spent up to now is     5974.9 secs

     total energy              =   -6604.39178902 Ry
     Harris-Foulkes estimate   =   -6604.39181648 Ry
     estimated scf accuracy    <       0.00019911 Ry

     iteration # 16     ecut=    50.00 Ry     beta=0.70
     Davidson diagonalization with overlap
     ethr =  2.04E-08,  avg # of iterations =  2.0

     negative rho (up, down):  1.757E+00 0.000E+00

     total cpu time spent up to now is     6227.7 secs

     total energy              =   -6604.39179903 Ry
     Harris-Foulkes estimate   =   -6604.39180723 Ry
     estimated scf accuracy    <       0.00005086 Ry

     iteration # 17     ecut=    50.00 Ry     beta=0.70
     Davidson diagonalization with overlap
     ethr =  7.14E-09,  avg # of iterations =  1.8

     negative rho (up, down):  1.757E+00 0.000E+00

     total cpu time spent up to now is     6487.9 secs

     total energy              =   -6604.39180265 Ry
     Harris-Foulkes estimate   =   -6604.39180593 Ry
     estimated scf accuracy    <       0.00001694 Ry

     iteration # 18     ecut=    50.00 Ry     beta=0.70
     Davidson diagonalization with overlap
     ethr =  2.38E-09,  avg # of iterations =  2.0

     negative rho (up, down):  1.757E+00 0.000E+00

     total cpu time spent up to now is     6739.3 secs

     total energy              =   -6604.39180324 Ry
     Harris-Foulkes estimate   =   -6604.39180577 Ry
     estimated scf accuracy    <       0.00001112 Ry

     iteration # 19     ecut=    50.00 Ry     beta=0.70
     Davidson diagonalization with overlap
     ethr =  1.56E-09,  avg # of iterations =  2.0

     negative rho (up, down):  1.757E+00 0.000E+00

     total cpu time spent up to now is     6997.1 secs

     total energy              =   -6604.39180451 Ry
     Harris-Foulkes estimate   =   -6604.39180463 Ry
     estimated scf accuracy    <       0.00000041 Ry

     iteration # 20     ecut=    50.00 Ry     beta=0.70
     Davidson diagonalization with overlap
     ethr =  5.82E-11,  avg # of iterations =  3.0

     negative rho (up, down):  1.757E+00 0.000E+00

     total cpu time spent up to now is     7329.8 secs

     total energy              =   -6604.39180461 Ry
     Harris-Foulkes estimate   =   -6604.39180464 Ry
     estimated scf accuracy    <       0.00000015 Ry

     iteration # 21     ecut=    50.00 Ry     beta=0.70
     Davidson diagonalization with overlap
     ethr =  2.07E-11,  avg # of iterations =  2.0

     negative rho (up, down):  1.757E+00 0.000E+00

     total cpu time spent up to now is     7602.2 secs

     total energy              =   -6604.39180464 Ry
     Harris-Foulkes estimate   =   -6604.39180465 Ry
     estimated scf accuracy    <       0.00000008 Ry

     iteration # 22     ecut=    50.00 Ry     beta=0.70
     Davidson diagonalization with overlap
     ethr =  1.16E-11,  avg # of iterations =  2.0

     negative rho (up, down):  1.757E+00 0.000E+00

     total cpu time spent up to now is     7863.6 secs

     total energy              =   -6604.39180465 Ry
     Harris-Foulkes estimate   =   -6604.39180465 Ry
     estimated scf accuracy    <       0.00000002 Ry

     iteration # 23     ecut=    50.00 Ry     beta=0.70
     Davidson diagonalization with overlap
     ethr =  2.63E-12,  avg # of iterations =  3.0

     negative rho (up, down):  1.757E+00 0.000E+00

     total cpu time spent up to now is     8197.5 secs

     total energy              =   -6604.39180465 Ry
     Harris-Foulkes estimate   =   -6604.39180465 Ry
     estimated scf accuracy    <       0.00000001 Ry

     iteration # 24     ecut=    50.00 Ry     beta=0.70
     Davidson diagonalization with overlap
     ethr =  1.52E-12,  avg # of iterations =  3.0

     negative rho (up, down):  1.757E+00 0.000E+00

     total cpu time spent up to now is     8487.9 secs

     End of self-consistent calculation

          k = 0.2500 0.4330 0.1111 (136853 PWs)   bands (ev):

   -19.1568  -7.0187  -6.4347  -6.0388  -6.0317  -5.3683  -5.0317  -5.0222
    -5.0035  -4.9821  -4.6274  -4.6214  -4.5314  -4.5232  -4.5109  -4.4886
    -4.4843  -4.3658  -4.3538  -4.3333  -4.2906  -4.2874  -4.2646  -4.2196
    -4.2171  -4.2134  -4.1911  -4.1906  -4.1832  -4.1433  -4.1137  -4.0897
    -4.0838  -4.0769  -4.0705  -4.0540  -4.0468  -4.0287  -4.0185  -4.0164
    -4.0010  -3.9458  -3.9381  -3.9075  -3.8871  -3.8736  -3.8378  -3.8172
    -3.7795  -3.7758  -3.7738  -3.7458  -3.7315  -3.7102  -3.7055  -3.6947
    -3.6915  -3.6908  -3.6647  -3.6554  -3.6422  -3.5982  -3.5961  -3.5870
    -3.5622  -3.5506  -3.4865  -3.4783  -3.4631  -3.4497  -3.4288  -3.4245
    -3.4094  -3.3852  -3.3409  -3.3316  -3.3187  -3.3097  -3.2743  -3.2696
    -3.2560  -3.2201  -3.1988  -3.1918  -3.1835  -3.1798  -3.1770  -3.1651
    -3.1629  -3.1591  -3.1516  -3.1083  -3.0717  -3.0679  -3.0627  -3.0588
    -3.0298  -3.0263  -3.0221  -2.9913  -2.9533  -2.9513  -2.9450  -2.9109
    -2.8965  -2.8882  -2.8836  -2.8675  -2.8568  -2.8274  -2.8016  -2.7946
    -2.7764  -2.7622  -2.7552  -2.7485  -2.7040  -2.6986  -2.6673  -2.6476
    -2.6420  -2.6272  -2.6163  -2.6104  -2.6033  -2.5976  -2.5819  -2.5794
    -2.5341  -2.5292  -2.5269  -2.5163  -2.5133  -2.5111  -2.5035  -2.5002
    -2.4956  -2.4928  -2.4885  -2.4851  -2.4766  -2.4703  -2.4536  -2.4454
    -2.4368  -2.4329  -2.4325  -2.4300  -2.4256  -2.4096  -2.4059  -2.3920
    -2.3881  -2.3679  -2.3664  -2.3638  -2.3581  -2.3562  -2.3556  -2.3469
    -2.3348  -2.3341  -2.3284  -2.3169  -2.2933  -2.2863  -2.2487  -2.2477
    -2.2324  -2.2277  -2.2045  -2.1944  -2.1767  -2.1706  -2.1626  -2.1489
    -2.1270  -2.1159  -2.1071  -2.0948  -2.0920  -2.0869  -2.0828  -2.0794
    -2.0542  -2.0514  -2.0387  -1.9991  -1.9856  -1.9786  -1.9752  -1.9671
    -1.9525  -1.9210  -1.9179  -1.8952  -1.8873  -1.8389  -1.8337  -1.8033
    -1.7863  -1.7758  -1.7454  -1.7254  -1.7202  -1.7118  -1.7046  -1.7009
    -1.6949  -1.6921  -1.6844  -1.6533  -1.6364  -1.6204  -1.6165  -1.6154
    -1.6064  -1.5984  -1.5813  -1.5643  -1.5522  -1.5494  -1.5459  -1.5378
    -1.5355  -1.5288  -1.5219  -1.5039  -1.5014  -1.4776  -1.4623  -1.4559
    -1.4521  -1.4372  -1.4138  -1.3917  -1.3755  -1.3577  -1.3456  -1.3444
    -1.3196  -1.2835  -1.2666  -1.2597  -1.2562  -1.2551  -1.2495  -1.2424
    -1.2350  -1.2248  -1.2000  -1.1821  -1.1681  -1.1604  -1.1520  -1.1465
    -1.1429  -1.1355  -1.1251  -1.1225  -1.1203  -1.1163  -1.0911  -1.0807
    -1.0791  -1.0761  -1.0586  -1.0491  -1.0433  -1.0215  -1.0177  -1.0046
    -0.9810  -0.9666  -0.9567  -0.9287  -0.9230  -0.9147  -0.9051  -0.9029
    -0.8993  -0.8952  -0.8927  -0.8825  -0.8769  -0.8606  -0.8585  -0.8540
    -0.8497  -0.8488  -0.8429  -0.8138  -0.8131  -0.8033  -0.7912  -0.7796
    -0.7738  -0.7665  -0.7505  -0.7101  -0.7076  -0.7031  -0.7006  -0.6961
    -0.6919  -0.6880  -0.6733  -0.6699  -0.6654  -0.6637  -0.6583  -0.6515
    -0.6262  -0.6211  -0.6200  -0.6123  -0.6096  -0.6060  -0.6011  -0.5911
    -0.5868  -0.5836  -0.5657  -0.5458  -0.5441  -0.5370  -0.5308  -0.5267
    -0.4599  -0.4511  -0.4501  -0.4472  -0.4421  -0.4369  -0.4050  -0.3941
    -0.3928  -0.3609  -0.3595  -0.3256  -0.2390  -0.2333  -0.1355   0.2753
     0.2783   0.2853   0.2859   0.3439   0.3678   0.7236   0.7329   0.7722
     0.7765   0.8999   0.9728   1.0782   1.0897   1.3003   1.3243   1.9247
     1.9395   2.0875   2.1006   2.2227   2.2451   2.3283   2.3294   2.4828
     2.7196   2.7384   2.8495   3.0712   3.0768   3.1449   3.1504   3.2451
     3.2682   3.4748   3.4806   3.5200   3.7225   3.7283   3.7876   3.7991
     4.0418   4.0486   4.0636   4.2940   4.3287   4.3383   4.3816   4.7085
     4.7201   4.7415   4.8836   5.0562   5.0580   5.1281   5.1493   5.6153
     5.8301   5.8385   5.8511   5.8860   5.8947   5.9126   5.9177   6.0165
     6.0338   6.0508   6.0796   6.0874   6.1117   6.1222   6.1379   6.1480
     6.2490   6.6008   6.6047   6.7404   6.7557   6.7780   6.7887   6.7955
     6.8111   6.9032   6.9858

          k = 0.2500-0.1443 0.1111 (136898 PWs)   bands (ev):

   -19.1568  -7.0187  -6.6444  -5.8527  -5.5718  -5.5039  -5.5001  -4.9675
    -4.9619  -4.8468  -4.8301  -4.6883  -4.6569  -4.5870  -4.5722  -4.5505
    -4.5174  -4.5152  -4.3866  -4.3454  -4.3443  -4.3046  -4.2768  -4.2654
    -4.1675  -4.1617  -4.1399  -4.1251  -4.1245  -4.1044  -4.0834  -4.0769
    -4.0180  -3.9742  -3.9705  -3.9580  -3.9466  -3.9323  -3.9263  -3.9205
    -3.9127  -3.8964  -3.8785  -3.8779  -3.8751  -3.8574  -3.8479  -3.8419
    -3.8254  -3.8222  -3.8112  -3.7815  -3.7632  -3.7342  -3.7245  -3.7199
    -3.7164  -3.6985  -3.6429  -3.6395  -3.6135  -3.6069  -3.5871  -3.5372
    -3.5365  -3.5210  -3.5081  -3.4969  -3.4960  -3.4920  -3.4686  -3.3350
    -3.3316  -3.3223  -3.3157  -3.3043  -3.2903  -3.2851  -3.2685  -3.2610
    -3.2148  -3.2121  -3.1987  -3.1979  -3.1750  -3.1395  -3.1314  -3.1126
    -3.1050  -3.1008  -3.0664  -3.0639  -3.0550  -3.0521  -3.0399  -3.0340
    -3.0027  -3.0018  -2.9866  -2.9791  -2.9755  -2.9719  -2.9636  -2.9020
    -2.8989  -2.8899  -2.8632  -2.8565  -2.8142  -2.8034  -2.7767  -2.7720
    -2.7633  -2.7612  -2.7506  -2.7289  -2.7258  -2.7134  -2.7009  -2.6840
    -2.6784  -2.6702  -2.6549  -2.6525  -2.6473  -2.6426  -2.6374  -2.6343
    -2.6244  -2.5797  -2.5544  -2.5528  -2.5327  -2.5219  -2.5195  -2.5128
    -2.5053  -2.5046  -2.5031  -2.4806  -2.4758  -2.4697  -2.4643  -2.4602
    -2.4519  -2.4251  -2.4228  -2.4191  -2.4188  -2.4140  -2.3715  -2.3471
    -2.3425  -2.3404  -2.3341  -2.3290  -2.3216  -2.3159  -2.2948  -2.2942
    -2.2706  -2.2646  -2.2617  -2.2544  -2.2481  -2.2435  -2.2185  -2.2108
    -2.1789  -2.1685  -2.1634  -2.1611  -2.1598  -2.1561  -2.1528  -2.1493
    -2.1475  -2.1427  -2.1404  -2.1256  -2.1238  -2.0219  -2.0047  -1.9846
    -1.9652  -1.9609  -1.9504  -1.9492  -1.9426  -1.9372  -1.9321  -1.9290
    -1.9223  -1.9123  -1.9048  -1.9037  -1.8912  -1.8850  -1.8749  -1.8677
    -1.8568  -1.8393  -1.8347  -1.8139  -1.8096  -1.7962  -1.7865  -1.7664
    -1.7631  -1.7621  -1.7483  -1.7366  -1.7318  -1.7247  -1.7234  -1.7041
    -1.7022  -1.6881  -1.6849  -1.6546  -1.6453  -1.6397  -1.5992  -1.5929
    -1.5771  -1.5743  -1.5640  -1.5468  -1.5427  -1.5224  -1.5142  -1.5090
    -1.4839  -1.4766  -1.4703  -1.4523  -1.4503  -1.4356  -1.4302  -1.4172
    -1.4029  -1.3943  -1.3892  -1.3402  -1.3305  -1.3239  -1.3183  -1.3095
    -1.3034  -1.2874  -1.2868  -1.2695  -1.2552  -1.2327  -1.2279  -1.2151
    -1.1960  -1.1835  -1.1749  -1.1687  -1.1662  -1.1631  -1.1613  -1.1572
    -1.1414  -1.1295  -1.1204  -1.1117  -1.1006  -1.0980  -1.0886  -1.0827
    -1.0639  -1.0493  -1.0358  -1.0218  -0.9694  -0.9483  -0.9339  -0.9279
    -0.9257  -0.9184  -0.9103  -0.8996  -0.8922  -0.8827  -0.8756  -0.8646
    -0.8618  -0.8589  -0.8453  -0.8333  -0.8274  -0.8214  -0.7895  -0.7466
    -0.7441  -0.7121  -0.7081  -0.7046  -0.7001  -0.6991  -0.6950  -0.6934
    -0.6817  -0.6723  -0.6569  -0.6419  -0.6254  -0.6138  -0.6085  -0.6007
    -0.5957  -0.5905  -0.5859  -0.5829  -0.5803  -0.5749  -0.5670  -0.5623
    -0.5566  -0.5325  -0.5290  -0.5249  -0.5157  -0.5135  -0.4962  -0.4654
    -0.4629  -0.4555  -0.4526  -0.3871  -0.3864  -0.3562  -0.3540  -0.2985
    -0.2972  -0.2925  -0.2730  -0.2622  -0.0338  -0.0113   0.3074   0.3085
     0.4023   0.4217   0.5982   0.6240   0.6384   0.7525   0.7564   1.1876
     1.1897   1.2026   1.4766   1.4978   1.4998   1.7777   1.7935   1.8498
     1.8525   1.8808   1.8920   2.1057   2.1098   2.1986   2.2007   2.2846
     2.3404   2.3552   2.5018   2.6091   3.0315   3.0420   3.0431   3.0466
     3.0960   3.0999   3.3913   3.3927   3.6745   3.6836   3.7936   4.0884
     4.1298   4.1310   4.3622   4.3703   4.4271   4.4310   4.5262   4.6401
     4.6474   4.7578   4.7599   5.0577   5.1179   5.1383   5.3110   5.3272
     5.4850   5.5110   5.5199   5.5468   5.5493   5.6014   5.6120   5.6798
     6.0316   6.0685   6.2104   6.2979   6.3228   6.3431   6.3503   6.3663
     6.3728   6.5848   6.6010   6.6280   6.7762   6.8337   6.8556   6.8982
     6.9127   7.1342   7.1401

          k =-0.2500-0.4330 0.1111 (136853 PWs)   bands (ev):

   -19.1568  -7.0187  -6.4347  -6.0388  -6.0317  -5.3683  -5.0317  -5.0222
    -5.0035  -4.9821  -4.6274  -4.6214  -4.5314  -4.5232  -4.5109  -4.4886
    -4.4843  -4.3658  -4.3538  -4.3333  -4.2906  -4.2874  -4.2646  -4.2196
    -4.2171  -4.2134  -4.1911  -4.1906  -4.1832  -4.1433  -4.1137  -4.0897
    -4.0838  -4.0769  -4.0705  -4.0540  -4.0468  -4.0287  -4.0185  -4.0164
    -4.0010  -3.9458  -3.9381  -3.9075  -3.8871  -3.8736  -3.8378  -3.8172
    -3.7795  -3.7758  -3.7738  -3.7458  -3.7315  -3.7102  -3.7055  -3.6947
    -3.6915  -3.6908  -3.6647  -3.6554  -3.6422  -3.5982  -3.5961  -3.5870
    -3.5622  -3.5506  -3.4865  -3.4783  -3.4631  -3.4497  -3.4288  -3.4245
    -3.4094  -3.3852  -3.3409  -3.3316  -3.3187  -3.3097  -3.2743  -3.2696
    -3.2560  -3.2201  -3.1988  -3.1918  -3.1835  -3.1798  -3.1770  -3.1651
    -3.1629  -3.1591  -3.1516  -3.1083  -3.0717  -3.0679  -3.0627  -3.0588
    -3.0298  -3.0263  -3.0221  -2.9913  -2.9533  -2.9513  -2.9450  -2.9109
    -2.8965  -2.8882  -2.8836  -2.8675  -2.8568  -2.8274  -2.8016  -2.7946
    -2.7764  -2.7622  -2.7552  -2.7485  -2.7040  -2.6986  -2.6673  -2.6476
    -2.6420  -2.6272  -2.6163  -2.6104  -2.6033  -2.5976  -2.5819  -2.5794
    -2.5341  -2.5292  -2.5269  -2.5163  -2.5133  -2.5111  -2.5035  -2.5002
    -2.4956  -2.4928  -2.4885  -2.4851  -2.4766  -2.4703  -2.4536  -2.4454
    -2.4368  -2.4329  -2.4325  -2.4300  -2.4256  -2.4096  -2.4059  -2.3920
    -2.3881  -2.3679  -2.3664  -2.3638  -2.3581  -2.3562  -2.3556  -2.3469
    -2.3348  -2.3341  -2.3284  -2.3169  -2.2933  -2.2863  -2.2487  -2.2477
    -2.2324  -2.2277  -2.2045  -2.1944  -2.1767  -2.1706  -2.1626  -2.1489
    -2.1270  -2.1159  -2.1071  -2.0948  -2.0920  -2.0869  -2.0828  -2.0794
    -2.0542  -2.0514  -2.0387  -1.9991  -1.9856  -1.9786  -1.9752  -1.9671
    -1.9525  -1.9210  -1.9179  -1.8952  -1.8873  -1.8389  -1.8337  -1.8033
    -1.7863  -1.7758  -1.7454  -1.7254  -1.7202  -1.7118  -1.7046  -1.7009
    -1.6949  -1.6921  -1.6844  -1.6533  -1.6364  -1.6204  -1.6165  -1.6154
    -1.6064  -1.5984  -1.5813  -1.5643  -1.5522  -1.5494  -1.5459  -1.5378
    -1.5355  -1.5288  -1.5219  -1.5039  -1.5014  -1.4776  -1.4623  -1.4559
    -1.4521  -1.4372  -1.4138  -1.3917  -1.3755  -1.3577  -1.3456  -1.3444
    -1.3196  -1.2835  -1.2666  -1.2597  -1.2562  -1.2551  -1.2495  -1.2424
    -1.2350  -1.2248  -1.2000  -1.1821  -1.1681  -1.1604  -1.1520  -1.1465
    -1.1429  -1.1355  -1.1251  -1.1225  -1.1203  -1.1163  -1.0911  -1.0807
    -1.0791  -1.0761  -1.0586  -1.0491  -1.0433  -1.0215  -1.0177  -1.0046
    -0.9810  -0.9666  -0.9567  -0.9287  -0.9230  -0.9147  -0.9051  -0.9029
    -0.8993  -0.8952  -0.8927  -0.8825  -0.8769  -0.8606  -0.8585  -0.8540
    -0.8497  -0.8488  -0.8429  -0.8138  -0.8131  -0.8033  -0.7912  -0.7796
    -0.7738  -0.7665  -0.7505  -0.7101  -0.7076  -0.7031  -0.7006  -0.6961
    -0.6919  -0.6880  -0.6733  -0.6699  -0.6654  -0.6637  -0.6583  -0.6515
    -0.6262  -0.6211  -0.6200  -0.6123  -0.6096  -0.6060  -0.6011  -0.5911
    -0.5868  -0.5836  -0.5657  -0.5458  -0.5441  -0.5370  -0.5308  -0.5267
    -0.4599  -0.4511  -0.4501  -0.4472  -0.4421  -0.4369  -0.4050  -0.3941
    -0.3928  -0.3609  -0.3595  -0.3256  -0.2390  -0.2333  -0.1355   0.2753
     0.2782   0.2853   0.2859   0.3439   0.3678   0.7236   0.7329   0.7722
     0.7765   0.8999   0.9728   1.0782   1.0897   1.3003   1.3243   1.9247
     1.9395   2.0875   2.1006   2.2227   2.2451   2.3283   2.3294   2.4828
     2.7196   2.7384   2.8495   3.0712   3.0768   3.1449   3.1504   3.2451
     3.2682   3.4748   3.4806   3.5200   3.7225   3.7283   3.7876   3.7991
     4.0418   4.0486   4.0636   4.2940   4.3287   4.3382   4.3816   4.7085
     4.7201   4.7415   4.8836   5.0562   5.0580   5.1281   5.1493   5.6153
     5.8300   5.8385   5.8511   5.8861   5.8947   5.9126   5.9177   6.0165
     6.0338   6.0508   6.0796   6.0874   6.1117   6.1222   6.1379   6.1480
     6.2490   6.6009   6.6046   6.7406   6.7554   6.7780   6.7905   6.7936
     6.8109   6.9032   6.9861

          k =-0.2500 0.4330-0.1111 (136853 PWs)   bands (ev):

   -19.1568  -7.0188  -6.4344  -6.0393  -6.0313  -5.3677  -5.0337  -5.0211
    -5.0040  -4.9816  -4.6269  -4.6205  -4.5301  -4.5230  -4.5098  -4.4890
    -4.4842  -4.3701  -4.3539  -4.3345  -4.2898  -4.2873  -4.2663  -4.2189
    -4.2185  -4.2124  -4.1920  -4.1907  -4.1820  -4.1430  -4.1130  -4.0898
    -4.0833  -4.0759  -4.0702  -4.0540  -4.0465  -4.0279  -4.0183  -4.0163
    -4.0000  -3.9438  -3.9384  -3.9042  -3.8866  -3.8705  -3.8386  -3.8239
    -3.7798  -3.7755  -3.7734  -3.7540  -3.7358  -3.7120  -3.7067  -3.6947
    -3.6916  -3.6909  -3.6632  -3.6546  -3.6375  -3.5988  -3.5964  -3.5837
    -3.5619  -3.5505  -3.4861  -3.4774  -3.4656  -3.4473  -3.4286  -3.4237
    -3.4094  -3.3852  -3.3413  -3.3323  -3.3206  -3.3095  -3.2769  -3.2677
    -3.2563  -3.2199  -3.2030  -3.1910  -3.1839  -3.1790  -3.1764  -3.1640
    -3.1620  -3.1589  -3.1511  -3.1078  -3.0719  -3.0668  -3.0626  -3.0572
    -3.0296  -3.0291  -3.0208  -2.9909  -2.9549  -2.9521  -2.9453  -2.9103
    -2.8962  -2.8891  -2.8840  -2.8718  -2.8554  -2.8272  -2.7973  -2.7956
    -2.7759  -2.7620  -2.7532  -2.7486  -2.7067  -2.6977  -2.6673  -2.6465
    -2.6415  -2.6302  -2.6163  -2.6119  -2.6032  -2.5973  -2.5823  -2.5793
    -2.5317  -2.5273  -2.5263  -2.5175  -2.5129  -2.5083  -2.5027  -2.4992
    -2.4969  -2.4895  -2.4868  -2.4852  -2.4777  -2.4695  -2.4586  -2.4456
    -2.4358  -2.4335  -2.4330  -2.4295  -2.4254  -2.4117  -2.4064  -2.3936
    -2.3868  -2.3685  -2.3653  -2.3644  -2.3588  -2.3561  -2.3556  -2.3470
    -2.3339  -2.3333  -2.3297  -2.3169  -2.2935  -2.2859  -2.2488  -2.2473
    -2.2328  -2.2275  -2.2010  -2.1948  -2.1828  -2.1694  -2.1644  -2.1493
    -2.1242  -2.1186  -2.1058  -2.0932  -2.0919  -2.0864  -2.0837  -2.0801
    -2.0547  -2.0511  -2.0372  -1.9909  -1.9881  -1.9788  -1.9755  -1.9678
    -1.9506  -1.9213  -1.9174  -1.8958  -1.8873  -1.8390  -1.8329  -1.8053
    -1.7859  -1.7758  -1.7481  -1.7286  -1.7202  -1.7103  -1.7039  -1.7014
    -1.6949  -1.6922  -1.6840  -1.6608  -1.6337  -1.6182  -1.6168  -1.6161
    -1.6082  -1.5970  -1.5721  -1.5652  -1.5544  -1.5487  -1.5454  -1.5377
    -1.5334  -1.5299  -1.5211  -1.5060  -1.5000  -1.4836  -1.4625  -1.4552
    -1.4506  -1.4368  -1.4133  -1.3859  -1.3777  -1.3534  -1.3453  -1.3450
    -1.3206  -1.2872  -1.2643  -1.2607  -1.2545  -1.2543  -1.2493  -1.2457
    -1.2352  -1.2240  -1.1994  -1.1810  -1.1716  -1.1593  -1.1524  -1.1461
    -1.1428  -1.1387  -1.1243  -1.1221  -1.1181  -1.1163  -1.0898  -1.0836
    -1.0780  -1.0763  -1.0653  -1.0526  -1.0415  -1.0234  -1.0168  -1.0058
    -0.9831  -0.9642  -0.9540  -0.9280  -0.9203  -0.9113  -0.9054  -0.9030
    -0.9004  -0.8932  -0.8909  -0.8839  -0.8741  -0.8642  -0.8606  -0.8529
    -0.8499  -0.8491  -0.8472  -0.8138  -0.8128  -0.7987  -0.7834  -0.7813
    -0.7735  -0.7666  -0.7569  -0.7106  -0.7093  -0.7043  -0.6998  -0.6963
    -0.6910  -0.6827  -0.6720  -0.6710  -0.6656  -0.6634  -0.6557  -0.6521
    -0.6230  -0.6209  -0.6197  -0.6115  -0.6105  -0.6056  -0.6040  -0.5889
    -0.5877  -0.5847  -0.5664  -0.5458  -0.5437  -0.5368  -0.5305  -0.5281
    -0.4629  -0.4513  -0.4493  -0.4480  -0.4426  -0.4356  -0.4048  -0.3950
    -0.3925  -0.3609  -0.3560  -0.3299  -0.2463  -0.2329  -0.1394   0.2768
     0.2789   0.2844   0.2854   0.3514   0.3635   0.7308   0.7327   0.7699
     0.7755   0.8976   0.9712   1.0810   1.0829   1.3053   1.3218   1.9324
     1.9352   2.0913   2.0941   2.2306   2.2371   2.3278   2.3299   2.4833
     2.7219   2.7376   2.8514   3.0749   3.0757   3.1437   3.1510   3.2500
     3.2676   3.4747   3.4830   3.5207   3.7213   3.7289   3.7870   3.7941
     4.0424   4.0555   4.0585   4.2935   4.3274   4.3376   4.3821   4.7080
     4.7209   4.7436   4.8762   5.0529   5.0595   5.1188   5.1466   5.6181
     5.8217   5.8303   5.8528   5.8796   5.9058   5.9087   5.9227   6.0182
     6.0326   6.0534   6.0813   6.0883   6.1195   6.1265   6.1367   6.1500
     6.2493   6.5934   6.6135   6.7103   6.7634   6.7818   6.7925   6.7963
     6.8044   6.9112   7.0025

          k = 0.2500-0.4330-0.1111 (136853 PWs)   bands (ev):

   -19.1568  -7.0188  -6.4344  -6.0393  -6.0313  -5.3677  -5.0337  -5.0211
    -5.0040  -4.9816  -4.6269  -4.6205  -4.5301  -4.5230  -4.5098  -4.4890
    -4.4842  -4.3701  -4.3539  -4.3345  -4.2898  -4.2873  -4.2663  -4.2189
    -4.2185  -4.2124  -4.1920  -4.1907  -4.1820  -4.1430  -4.1130  -4.0898
    -4.0833  -4.0759  -4.0702  -4.0540  -4.0465  -4.0279  -4.0183  -4.0163
    -4.0000  -3.9438  -3.9384  -3.9042  -3.8866  -3.8705  -3.8386  -3.8239
    -3.7798  -3.7755  -3.7734  -3.7540  -3.7358  -3.7120  -3.7067  -3.6947
    -3.6916  -3.6909  -3.6632  -3.6546  -3.6375  -3.5988  -3.5964  -3.5837
    -3.5619  -3.5505  -3.4861  -3.4774  -3.4656  -3.4473  -3.4286  -3.4237
    -3.4094  -3.3852  -3.3413  -3.3323  -3.3206  -3.3095  -3.2769  -3.2677
    -3.2563  -3.2199  -3.2030  -3.1910  -3.1839  -3.1790  -3.1764  -3.1640
    -3.1620  -3.1589  -3.1511  -3.1078  -3.0719  -3.0668  -3.0626  -3.0572
    -3.0296  -3.0291  -3.0208  -2.9909  -2.9549  -2.9521  -2.9453  -2.9103
    -2.8962  -2.8891  -2.8840  -2.8718  -2.8554  -2.8272  -2.7973  -2.7956
    -2.7759  -2.7620  -2.7532  -2.7486  -2.7067  -2.6977  -2.6673  -2.6465
    -2.6415  -2.6302  -2.6163  -2.6119  -2.6032  -2.5973  -2.5823  -2.5793
    -2.5317  -2.5273  -2.5263  -2.5175  -2.5129  -2.5083  -2.5027  -2.4992
    -2.4969  -2.4895  -2.4868  -2.4852  -2.4777  -2.4695  -2.4586  -2.4456
    -2.4358  -2.4335  -2.4330  -2.4295  -2.4254  -2.4117  -2.4064  -2.3936
    -2.3868  -2.3685  -2.3653  -2.3644  -2.3588  -2.3561  -2.3556  -2.3470
    -2.3339  -2.3333  -2.3297  -2.3169  -2.2935  -2.2859  -2.2488  -2.2473
    -2.2328  -2.2275  -2.2010  -2.1948  -2.1828  -2.1694  -2.1644  -2.1493
    -2.1242  -2.1186  -2.1058  -2.0932  -2.0919  -2.0864  -2.0837  -2.0801
    -2.0547  -2.0511  -2.0372  -1.9909  -1.9881  -1.9788  -1.9755  -1.9678
    -1.9506  -1.9213  -1.9174  -1.8958  -1.8873  -1.8390  -1.8329  -1.8053
    -1.7859  -1.7758  -1.7481  -1.7286  -1.7202  -1.7103  -1.7039  -1.7014
    -1.6949  -1.6922  -1.6840  -1.6608  -1.6337  -1.6182  -1.6168  -1.6161
    -1.6082  -1.5970  -1.5721  -1.5652  -1.5544  -1.5487  -1.5454  -1.5377
    -1.5334  -1.5299  -1.5211  -1.5060  -1.5000  -1.4836  -1.4625  -1.4552
    -1.4506  -1.4368  -1.4133  -1.3859  -1.3777  -1.3534  -1.3453  -1.3450
    -1.3206  -1.2872  -1.2643  -1.2607  -1.2545  -1.2543  -1.2493  -1.2457
    -1.2352  -1.2240  -1.1994  -1.1810  -1.1716  -1.1593  -1.1524  -1.1461
    -1.1428  -1.1387  -1.1243  -1.1221  -1.1181  -1.1163  -1.0898  -1.0836
    -1.0780  -1.0763  -1.0653  -1.0526  -1.0415  -1.0234  -1.0168  -1.0058
    -0.9831  -0.9642  -0.9540  -0.9280  -0.9203  -0.9113  -0.9054  -0.9030
    -0.9004  -0.8932  -0.8909  -0.8839  -0.8741  -0.8642  -0.8606  -0.8529
    -0.8499  -0.8491  -0.8472  -0.8138  -0.8128  -0.7987  -0.7834  -0.7813
    -0.7735  -0.7666  -0.7569  -0.7106  -0.7093  -0.7043  -0.6998  -0.6963
    -0.6910  -0.6827  -0.6720  -0.6710  -0.6656  -0.6634  -0.6557  -0.6521
    -0.6230  -0.6209  -0.6197  -0.6115  -0.6105  -0.6056  -0.6040  -0.5889
    -0.5877  -0.5847  -0.5664  -0.5458  -0.5437  -0.5368  -0.5305  -0.5281
    -0.4629  -0.4513  -0.4493  -0.4480  -0.4426  -0.4356  -0.4048  -0.3950
    -0.3925  -0.3609  -0.3560  -0.3299  -0.2463  -0.2329  -0.1394   0.2768
     0.2789   0.2844   0.2854   0.3514   0.3635   0.7308   0.7327   0.7699
     0.7755   0.8976   0.9712   1.0810   1.0829   1.3053   1.3218   1.9324
     1.9352   2.0913   2.0941   2.2306   2.2371   2.3278   2.3299   2.4833
     2.7219   2.7376   2.8514   3.0749   3.0757   3.1437   3.1510   3.2500
     3.2676   3.4747   3.4830   3.5207   3.7213   3.7289   3.7870   3.7941
     4.0424   4.0555   4.0585   4.2935   4.3274   4.3376   4.3821   4.7080
     4.7209   4.7436   4.8762   5.0529   5.0595   5.1188   5.1466   5.6181
     5.8218   5.8303   5.8528   5.8796   5.9058   5.9087   5.9227   6.0182
     6.0326   6.0534   6.0813   6.0883   6.1195   6.1265   6.1367   6.1499
     6.2493   6.5934   6.6135   6.7104   6.7634   6.7819   6.7923   6.7964
     6.8046   6.9112   7.0013

          k = 0.5000 0.0000 0.1111 (136853 PWs)   bands (ev):

   -19.1568  -7.0187  -6.4347  -6.0402  -6.0304  -5.3684  -5.0314  -5.0229
    -5.0041  -4.9810  -4.6274  -4.6215  -4.5318  -4.5233  -4.5107  -4.4884
    -4.4843  -4.3653  -4.3536  -4.3334  -4.2909  -4.2875  -4.2637  -4.2195
    -4.2172  -4.2140  -4.1913  -4.1904  -4.1833  -4.1436  -4.1132  -4.0894
    -4.0845  -4.0765  -4.0706  -4.0537  -4.0469  -4.0290  -4.0187  -4.0165
    -4.0010  -3.9464  -3.9381  -3.9089  -3.8864  -3.8741  -3.8380  -3.8163
    -3.7790  -3.7755  -3.7740  -3.7451  -3.7300  -3.7109  -3.7043  -3.6948
    -3.6918  -3.6903  -3.6649  -3.6561  -3.6435  -3.5985  -3.5956  -3.5875
    -3.5623  -3.5501  -3.4871  -3.4786  -3.4622  -3.4500  -3.4287  -3.4245
    -3.4093  -3.3854  -3.3408  -3.3318  -3.3183  -3.3095  -3.2735  -3.2700
    -3.2560  -3.2198  -3.1979  -3.1920  -3.1833  -3.1802  -3.1775  -3.1650
    -3.1626  -3.1593  -3.1519  -3.1084  -3.0720  -3.0678  -3.0628  -3.0590
    -3.0300  -3.0259  -3.0223  -2.9914  -2.9524  -2.9517  -2.9451  -2.9109
    -2.8966  -2.8876  -2.8836  -2.8665  -2.8574  -2.8275  -2.8020  -2.7945
    -2.7763  -2.7624  -2.7558  -2.7485  -2.7034  -2.6987  -2.6671  -2.6478
    -2.6425  -2.6268  -2.6165  -2.6104  -2.6029  -2.5977  -2.5820  -2.5794
    -2.5345  -2.5289  -2.5271  -2.5160  -2.5137  -2.5116  -2.5037  -2.5003
    -2.4952  -2.4934  -2.4887  -2.4852  -2.4759  -2.4709  -2.4527  -2.4452
    -2.4368  -2.4330  -2.4321  -2.4299  -2.4255  -2.4094  -2.4060  -2.3915
    -2.3882  -2.3681  -2.3667  -2.3637  -2.3580  -2.3561  -2.3557  -2.3465
    -2.3349  -2.3340  -2.3287  -2.3168  -2.2933  -2.2869  -2.2488  -2.2477
    -2.2325  -2.2277  -2.2048  -2.1941  -2.1756  -2.1706  -2.1621  -2.1488
    -2.1273  -2.1150  -2.1079  -2.0950  -2.0922  -2.0869  -2.0830  -2.0791
    -2.0542  -2.0510  -2.0389  -2.0010  -1.9852  -1.9789  -1.9752  -1.9670
    -1.9530  -1.9216  -1.9174  -1.8951  -1.8875  -1.8391  -1.8334  -1.8031
    -1.7865  -1.7757  -1.7450  -1.7244  -1.7199  -1.7119  -1.7047  -1.7006
    -1.6948  -1.6922  -1.6846  -1.6520  -1.6373  -1.6208  -1.6165  -1.6155
    -1.6056  -1.5987  -1.5831  -1.5645  -1.5519  -1.5495  -1.5458  -1.5382
    -1.5356  -1.5288  -1.5219  -1.5032  -1.5019  -1.4755  -1.4623  -1.4558
    -1.4523  -1.4374  -1.4139  -1.3932  -1.3751  -1.3588  -1.3457  -1.3447
    -1.3195  -1.2826  -1.2670  -1.2596  -1.2569  -1.2552  -1.2496  -1.2419
    -1.2350  -1.2248  -1.2003  -1.1822  -1.1679  -1.1601  -1.1517  -1.1469
    -1.1429  -1.1347  -1.1256  -1.1224  -1.1204  -1.1161  -1.0912  -1.0802
    -1.0793  -1.0763  -1.0571  -1.0486  -1.0434  -1.0211  -1.0174  -1.0044
    -0.9800  -0.9672  -0.9577  -0.9292  -0.9235  -0.9153  -0.9052  -0.9019
    -0.8988  -0.8959  -0.8931  -0.8827  -0.8771  -0.8606  -0.8583  -0.8540
    -0.8502  -0.8484  -0.8415  -0.8137  -0.8129  -0.8049  -0.7920  -0.7795
    -0.7742  -0.7663  -0.7490  -0.7098  -0.7074  -0.7029  -0.7006  -0.6967
    -0.6920  -0.6890  -0.6736  -0.6698  -0.6653  -0.6637  -0.6583  -0.6516
    -0.6268  -0.6212  -0.6200  -0.6124  -0.6095  -0.6061  -0.6006  -0.5915
    -0.5870  -0.5833  -0.5654  -0.5459  -0.5444  -0.5372  -0.5310  -0.5265
    -0.4594  -0.4511  -0.4502  -0.4469  -0.4422  -0.4371  -0.4051  -0.3939
    -0.3930  -0.3610  -0.3599  -0.3251  -0.2385  -0.2325  -0.1345   0.2753
     0.2781   0.2854   0.2859   0.3422   0.3684   0.7226   0.7329   0.7715
     0.7774   0.9004   0.9734   1.0780   1.0912   1.2996   1.3245   1.9229
     1.9403   2.0860   2.1030   2.2210   2.2468   2.3279   2.3298   2.4826
     2.7196   2.7385   2.8493   3.0713   3.0762   3.1437   3.1518   3.2444
     3.2683   3.4742   3.4806   3.5198   3.7224   3.7286   3.7863   3.8014
     4.0415   4.0478   4.0645   4.2945   4.3279   4.3396   4.3810   4.7086
     4.7201   4.7407   4.8837   5.0561   5.0586   5.1250   5.1551   5.6147
     5.8315   5.8373   5.8512   5.8873   5.8930   5.9131   5.9165   6.0126
     6.0358   6.0514   6.0787   6.0897   6.1107   6.1191   6.1374   6.1505
     6.2489   6.5978   6.6084   6.7404   6.7576   6.7792   6.7884   6.7951
     6.8140   6.9027   6.9862

          k =-0.5000 0.0000 0.1111 (136853 PWs)   bands (ev):

   -19.1568  -7.0187  -6.4347  -6.0402  -6.0304  -5.3684  -5.0314  -5.0229
    -5.0041  -4.9810  -4.6274  -4.6215  -4.5318  -4.5233  -4.5107  -4.4884
    -4.4843  -4.3653  -4.3536  -4.3334  -4.2909  -4.2875  -4.2637  -4.2195
    -4.2172  -4.2140  -4.1913  -4.1904  -4.1833  -4.1436  -4.1132  -4.0894
    -4.0845  -4.0765  -4.0706  -4.0537  -4.0469  -4.0290  -4.0187  -4.0165
    -4.0010  -3.9464  -3.9381  -3.9089  -3.8864  -3.8741  -3.8380  -3.8163
    -3.7790  -3.7755  -3.7740  -3.7451  -3.7300  -3.7109  -3.7043  -3.6948
    -3.6918  -3.6903  -3.6649  -3.6561  -3.6435  -3.5985  -3.5956  -3.5875
    -3.5623  -3.5501  -3.4871  -3.4786  -3.4622  -3.4500  -3.4287  -3.4245
    -3.4093  -3.3854  -3.3408  -3.3318  -3.3183  -3.3095  -3.2735  -3.2700
    -3.2560  -3.2198  -3.1979  -3.1920  -3.1833  -3.1802  -3.1775  -3.1650
    -3.1626  -3.1593  -3.1519  -3.1084  -3.0720  -3.0678  -3.0628  -3.0590
    -3.0300  -3.0259  -3.0223  -2.9914  -2.9524  -2.9517  -2.9451  -2.9109
    -2.8966  -2.8876  -2.8836  -2.8665  -2.8574  -2.8275  -2.8020  -2.7945
    -2.7763  -2.7624  -2.7558  -2.7485  -2.7034  -2.6987  -2.6671  -2.6478
    -2.6425  -2.6268  -2.6165  -2.6104  -2.6029  -2.5977  -2.5820  -2.5794
    -2.5345  -2.5289  -2.5271  -2.5160  -2.5137  -2.5116  -2.5037  -2.5003
    -2.4952  -2.4934  -2.4887  -2.4852  -2.4759  -2.4709  -2.4527  -2.4452
    -2.4368  -2.4330  -2.4321  -2.4299  -2.4255  -2.4094  -2.4060  -2.3915
    -2.3882  -2.3681  -2.3667  -2.3637  -2.3580  -2.3561  -2.3557  -2.3465
    -2.3349  -2.3340  -2.3287  -2.3168  -2.2933  -2.2869  -2.2488  -2.2477
    -2.2325  -2.2277  -2.2048  -2.1941  -2.1756  -2.1706  -2.1621  -2.1488
    -2.1273  -2.1150  -2.1079  -2.0950  -2.0922  -2.0869  -2.0830  -2.0791
    -2.0542  -2.0510  -2.0389  -2.0010  -1.9852  -1.9789  -1.9752  -1.9670
    -1.9530  -1.9216  -1.9174  -1.8951  -1.8875  -1.8391  -1.8334  -1.8031
    -1.7865  -1.7757  -1.7450  -1.7244  -1.7199  -1.7119  -1.7047  -1.7006
    -1.6948  -1.6922  -1.6846  -1.6520  -1.6373  -1.6208  -1.6165  -1.6155
    -1.6056  -1.5987  -1.5831  -1.5645  -1.5519  -1.5495  -1.5458  -1.5382
    -1.5356  -1.5288  -1.5219  -1.5032  -1.5019  -1.4755  -1.4623  -1.4558
    -1.4523  -1.4374  -1.4139  -1.3932  -1.3751  -1.3588  -1.3457  -1.3447
    -1.3195  -1.2826  -1.2670  -1.2596  -1.2569  -1.2552  -1.2496  -1.2419
    -1.2350  -1.2248  -1.2003  -1.1822  -1.1679  -1.1601  -1.1517  -1.1469
    -1.1429  -1.1347  -1.1256  -1.1224  -1.1204  -1.1161  -1.0912  -1.0802
    -1.0793  -1.0763  -1.0571  -1.0486  -1.0434  -1.0211  -1.0174  -1.0044
    -0.9800  -0.9672  -0.9577  -0.9292  -0.9235  -0.9153  -0.9052  -0.9019
    -0.8988  -0.8959  -0.8931  -0.8827  -0.8771  -0.8606  -0.8583  -0.8540
    -0.8502  -0.8484  -0.8415  -0.8137  -0.8129  -0.8049  -0.7920  -0.7795
    -0.7742  -0.7663  -0.7490  -0.7098  -0.7074  -0.7029  -0.7006  -0.6967
    -0.6920  -0.6890  -0.6736  -0.6698  -0.6653  -0.6637  -0.6583  -0.6516
    -0.6268  -0.6212  -0.6200  -0.6124  -0.6095  -0.6061  -0.6006  -0.5915
    -0.5870  -0.5833  -0.5654  -0.5459  -0.5443  -0.5372  -0.5310  -0.5265
    -0.4594  -0.4511  -0.4502  -0.4469  -0.4422  -0.4371  -0.4051  -0.3939
    -0.3930  -0.3610  -0.3599  -0.3251  -0.2385  -0.2325  -0.1345   0.2753
     0.2781   0.2854   0.2859   0.3422   0.3684   0.7226   0.7329   0.7715
     0.7774   0.9004   0.9734   1.0780   1.0912   1.2996   1.3245   1.9229
     1.9403   2.0860   2.1030   2.2210   2.2468   2.3279   2.3298   2.4826
     2.7196   2.7385   2.8493   3.0713   3.0762   3.1437   3.1518   3.2444
     3.2683   3.4742   3.4806   3.5198   3.7224   3.7286   3.7863   3.8014
     4.0415   4.0478   4.0645   4.2945   4.3279   4.3396   4.3810   4.7086
     4.7201   4.7407   4.8837   5.0561   5.0585   5.1250   5.1551   5.6147
     5.8315   5.8372   5.8512   5.8873   5.8929   5.9131   5.9165   6.0126
     6.0358   6.0514   6.0787   6.0897   6.1107   6.1191   6.1375   6.1505
     6.2489   6.5979   6.6082   6.7405   6.7574   6.7791   6.7902   6.7938
     6.8138   6.9026   6.9864

          k =-0.2500 0.1443 0.1111 (136898 PWs)   bands (ev):

   -19.1568  -7.0187  -6.6444  -5.8527  -5.5718  -5.5039  -5.5001  -4.9675
    -4.9619  -4.8468  -4.8301  -4.6883  -4.6569  -4.5870  -4.5722  -4.5505
    -4.5174  -4.5152  -4.3866  -4.3454  -4.3443  -4.3046  -4.2768  -4.2654
    -4.1675  -4.1617  -4.1399  -4.1251  -4.1245  -4.1044  -4.0834  -4.0769
    -4.0180  -3.9742  -3.9704  -3.9581  -3.9466  -3.9324  -3.9263  -3.9205
    -3.9127  -3.8964  -3.8785  -3.8780  -3.8751  -3.8574  -3.8479  -3.8419
    -3.8254  -3.8222  -3.8112  -3.7815  -3.7632  -3.7342  -3.7245  -3.7199
    -3.7164  -3.6985  -3.6429  -3.6395  -3.6135  -3.6069  -3.5871  -3.5372
    -3.5365  -3.5210  -3.5081  -3.4969  -3.4960  -3.4920  -3.4686  -3.3350
    -3.3316  -3.3223  -3.3157  -3.3043  -3.2903  -3.2851  -3.2685  -3.2610
    -3.2148  -3.2121  -3.1987  -3.1979  -3.1750  -3.1395  -3.1313  -3.1126
    -3.1050  -3.1008  -3.0664  -3.0639  -3.0550  -3.0521  -3.0399  -3.0340
    -3.0027  -3.0018  -2.9866  -2.9791  -2.9755  -2.9719  -2.9636  -2.9020
    -2.8989  -2.8899  -2.8632  -2.8565  -2.8142  -2.8034  -2.7767  -2.7720
    -2.7633  -2.7612  -2.7506  -2.7289  -2.7258  -2.7134  -2.7009  -2.6840
    -2.6784  -2.6702  -2.6549  -2.6525  -2.6473  -2.6426  -2.6374  -2.6343
    -2.6244  -2.5797  -2.5544  -2.5528  -2.5327  -2.5219  -2.5195  -2.5128
    -2.5053  -2.5046  -2.5031  -2.4806  -2.4758  -2.4697  -2.4643  -2.4602
    -2.4519  -2.4251  -2.4228  -2.4191  -2.4188  -2.4140  -2.3715  -2.3471
    -2.3425  -2.3404  -2.3341  -2.3290  -2.3216  -2.3159  -2.2947  -2.2942
    -2.2706  -2.2646  -2.2617  -2.2544  -2.2481  -2.2435  -2.2185  -2.2108
    -2.1789  -2.1685  -2.1634  -2.1611  -2.1598  -2.1561  -2.1528  -2.1493
    -2.1475  -2.1427  -2.1404  -2.1256  -2.1238  -2.0219  -2.0047  -1.9846
    -1.9652  -1.9609  -1.9504  -1.9492  -1.9426  -1.9372  -1.9321  -1.9290
    -1.9223  -1.9123  -1.9048  -1.9037  -1.8912  -1.8850  -1.8749  -1.8677
    -1.8568  -1.8393  -1.8347  -1.8139  -1.8096  -1.7962  -1.7865  -1.7664
    -1.7631  -1.7621  -1.7483  -1.7366  -1.7318  -1.7247  -1.7234  -1.7041
    -1.7022  -1.6881  -1.6849  -1.6546  -1.6453  -1.6397  -1.5992  -1.5929
    -1.5771  -1.5743  -1.5640  -1.5468  -1.5428  -1.5224  -1.5142  -1.5090
    -1.4838  -1.4766  -1.4703  -1.4523  -1.4503  -1.4356  -1.4302  -1.4172
    -1.4029  -1.3943  -1.3892  -1.3402  -1.3305  -1.3239  -1.3183  -1.3095
    -1.3034  -1.2874  -1.2868  -1.2695  -1.2552  -1.2327  -1.2279  -1.2151
    -1.1960  -1.1835  -1.1749  -1.1687  -1.1662  -1.1631  -1.1613  -1.1572
    -1.1414  -1.1295  -1.1204  -1.1117  -1.1006  -1.0980  -1.0886  -1.0826
    -1.0639  -1.0493  -1.0358  -1.0218  -0.9694  -0.9483  -0.9339  -0.9279
    -0.9257  -0.9183  -0.9103  -0.8996  -0.8921  -0.8827  -0.8756  -0.8646
    -0.8618  -0.8589  -0.8453  -0.8333  -0.8274  -0.8214  -0.7895  -0.7466
    -0.7441  -0.7121  -0.7081  -0.7046  -0.7001  -0.6991  -0.6950  -0.6934
    -0.6817  -0.6723  -0.6569  -0.6420  -0.6254  -0.6138  -0.6085  -0.6007
    -0.5957  -0.5905  -0.5859  -0.5829  -0.5803  -0.5749  -0.5670  -0.5623
    -0.5566  -0.5325  -0.5290  -0.5249  -0.5157  -0.5135  -0.4962  -0.4654
    -0.4629  -0.4555  -0.4526  -0.3871  -0.3864  -0.3562  -0.3540  -0.2985
    -0.2972  -0.2925  -0.2730  -0.2622  -0.0338  -0.0113   0.3074   0.3085
     0.4023   0.4217   0.5982   0.6240   0.6384   0.7525   0.7564   1.1876
     1.1897   1.2026   1.4766   1.4978   1.4998   1.7777   1.7935   1.8498
     1.8525   1.8808   1.8920   2.1057   2.1098   2.1986   2.2007   2.2846
     2.3404   2.3552   2.5018   2.6091   3.0315   3.0420   3.0431   3.0466
     3.0960   3.0999   3.3913   3.3927   3.6745   3.6836   3.7936   4.0884
     4.1298   4.1310   4.3622   4.3703   4.4271   4.4310   4.5262   4.6401
     4.6474   4.7578   4.7599   5.0577   5.1179   5.1383   5.3110   5.3272
     5.4850   5.5110   5.5199   5.5468   5.5493   5.6014   5.6120   5.6798
     6.0314   6.0684   6.2104   6.2981   6.3230   6.3431   6.3503   6.3663
     6.3729   6.5847   6.6012   6.6285   6.7799   6.8338   6.8555   6.8979
     6.9123   7.1293   7.1351

          k =-0.2500-0.1443-0.1111 (136898 PWs)   bands (ev):

   -19.1568  -7.0186  -6.6445  -5.8531  -5.5716  -5.5033  -5.5003  -4.9668
    -4.9620  -4.8504  -4.8299  -4.6875  -4.6568  -4.5879  -4.5682  -4.5508
    -4.5171  -4.5150  -4.3869  -4.3450  -4.3444  -4.3066  -4.2748  -4.2658
    -4.1671  -4.1616  -4.1410  -4.1253  -4.1243  -4.1065  -4.0821  -4.0770
    -4.0254  -3.9738  -3.9701  -3.9597  -3.9446  -3.9326  -3.9234  -3.9205
    -3.9148  -3.8897  -3.8787  -3.8777  -3.8750  -3.8562  -3.8496  -3.8445
    -3.8253  -3.8239  -3.8006  -3.7836  -3.7672  -3.7321  -3.7247  -3.7197
    -3.7163  -3.6969  -3.6429  -3.6399  -3.6142  -3.6069  -3.5889  -3.5374
    -3.5369  -3.5213  -3.5073  -3.4966  -3.4948  -3.4920  -3.4701  -3.3353
    -3.3319  -3.3187  -3.3178  -3.3047  -3.2904  -3.2844  -3.2686  -3.2607
    -3.2148  -3.2134  -3.1985  -3.1980  -3.1760  -3.1379  -3.1295  -3.1147
    -3.1056  -3.0998  -3.0661  -3.0650  -3.0545  -3.0523  -3.0403  -3.0349
    -3.0028  -3.0009  -2.9856  -2.9779  -2.9756  -2.9727  -2.9635  -2.9031
    -2.8988  -2.8903  -2.8634  -2.8564  -2.8097  -2.8039  -2.7797  -2.7723
    -2.7621  -2.7599  -2.7505  -2.7272  -2.7263  -2.7135  -2.7031  -2.6829
    -2.6809  -2.6702  -2.6558  -2.6523  -2.6477  -2.6421  -2.6382  -2.6336
    -2.6245  -2.5796  -2.5529  -2.5525  -2.5341  -2.5224  -2.5186  -2.5128
    -2.5058  -2.5051  -2.5029  -2.4777  -2.4764  -2.4704  -2.4632  -2.4599
    -2.4518  -2.4258  -2.4249  -2.4208  -2.4180  -2.4133  -2.3712  -2.3483
    -2.3429  -2.3401  -2.3328  -2.3246  -2.3212  -2.3162  -2.2944  -2.2943
    -2.2724  -2.2661  -2.2621  -2.2529  -2.2492  -2.2436  -2.2211  -2.2108
    -2.1779  -2.1688  -2.1633  -2.1619  -2.1598  -2.1568  -2.1529  -2.1503
    -2.1468  -2.1430  -2.1409  -2.1253  -2.1241  -2.0150  -2.0061  -1.9979
    -1.9621  -1.9609  -1.9497  -1.9488  -1.9406  -1.9399  -1.9318  -1.9315
    -1.9205  -1.9096  -1.9050  -1.9024  -1.8934  -1.8828  -1.8760  -1.8662
    -1.8569  -1.8366  -1.8340  -1.8206  -1.8102  -1.7974  -1.7861  -1.7664
    -1.7634  -1.7618  -1.7482  -1.7329  -1.7320  -1.7250  -1.7245  -1.7060
    -1.7009  -1.6874  -1.6828  -1.6523  -1.6508  -1.6394  -1.6005  -1.5899
    -1.5794  -1.5738  -1.5640  -1.5472  -1.5423  -1.5181  -1.5127  -1.5119
    -1.4879  -1.4735  -1.4701  -1.4515  -1.4504  -1.4362  -1.4298  -1.4176
    -1.4004  -1.3958  -1.3898  -1.3351  -1.3339  -1.3249  -1.3186  -1.3130
    -1.3008  -1.2890  -1.2877  -1.2697  -1.2543  -1.2365  -1.2259  -1.2160
    -1.1987  -1.1788  -1.1765  -1.1676  -1.1650  -1.1624  -1.1608  -1.1595
    -1.1412  -1.1262  -1.1174  -1.1030  -1.1011  -1.0985  -1.0925  -1.0841
    -1.0602  -1.0479  -1.0358  -1.0220  -0.9828  -0.9405  -0.9389  -0.9279
    -0.9274  -0.9157  -0.9124  -0.8976  -0.8970  -0.8795  -0.8770  -0.8647
    -0.8640  -0.8601  -0.8437  -0.8357  -0.8289  -0.8207  -0.7831  -0.7450
    -0.7396  -0.7148  -0.7088  -0.7014  -0.7004  -0.6981  -0.6935  -0.6883
    -0.6848  -0.6813  -0.6536  -0.6419  -0.6216  -0.6120  -0.6110  -0.6009
    -0.5947  -0.5935  -0.5856  -0.5830  -0.5825  -0.5749  -0.5670  -0.5626
    -0.5557  -0.5324  -0.5279  -0.5269  -0.5154  -0.5134  -0.4965  -0.4658
    -0.4625  -0.4562  -0.4514  -0.3883  -0.3862  -0.3565  -0.3534  -0.2997
    -0.2961  -0.2924  -0.2731  -0.2593  -0.0403  -0.0085   0.3080   0.3083
     0.3972   0.4253   0.6027   0.6264   0.6384   0.7511   0.7590   1.1871
     1.1890   1.2063   1.4760   1.4970   1.4990   1.7713   1.7994   1.8475
     1.8501   1.8778   1.8972   2.1017   2.1098   2.2001   2.2002   2.2840
     2.3353   2.3624   2.5038   2.6066   3.0306   3.0405   3.0430   3.0486
     3.0892   3.1036   3.3899   3.3931   3.6710   3.6872   3.7901   4.0900
     4.1257   4.1326   4.3573   4.3826   4.4256   4.4344   4.5214   4.6424
     4.6494   4.7586   4.7616   5.0566   5.1286   5.1370   5.3053   5.3400
     5.4822   5.5153   5.5174   5.5429   5.5522   5.6024   5.6135   5.6701
     6.0239   6.0724   6.2047   6.3045   6.3312   6.3324   6.3548   6.3641
     6.3731   6.6003   6.6049   6.6278   6.7833   6.8347   6.8592   6.8789
     6.9190   7.1173   7.1426

          k = 0.2500 0.1443-0.1111 (136898 PWs)   bands (ev):

   -19.1568  -7.0186  -6.6445  -5.8531  -5.5716  -5.5033  -5.5003  -4.9668
    -4.9620  -4.8504  -4.8299  -4.6875  -4.6568  -4.5879  -4.5682  -4.5508
    -4.5171  -4.5150  -4.3869  -4.3450  -4.3444  -4.3066  -4.2748  -4.2658
    -4.1671  -4.1616  -4.1410  -4.1253  -4.1243  -4.1065  -4.0821  -4.0770
    -4.0254  -3.9738  -3.9701  -3.9597  -3.9446  -3.9326  -3.9234  -3.9205
    -3.9148  -3.8897  -3.8787  -3.8777  -3.8750  -3.8562  -3.8496  -3.8445
    -3.8253  -3.8239  -3.8006  -3.7836  -3.7672  -3.7321  -3.7247  -3.7197
    -3.7163  -3.6969  -3.6429  -3.6399  -3.6142  -3.6069  -3.5889  -3.5374
    -3.5369  -3.5213  -3.5073  -3.4966  -3.4948  -3.4920  -3.4701  -3.3353
    -3.3319  -3.3187  -3.3178  -3.3047  -3.2904  -3.2844  -3.2686  -3.2607
    -3.2148  -3.2134  -3.1985  -3.1980  -3.1760  -3.1379  -3.1295  -3.1147
    -3.1056  -3.0998  -3.0661  -3.0650  -3.0545  -3.0523  -3.0403  -3.0349
    -3.0028  -3.0009  -2.9856  -2.9779  -2.9756  -2.9727  -2.9635  -2.9031
    -2.8988  -2.8903  -2.8635  -2.8564  -2.8097  -2.8039  -2.7797  -2.7723
    -2.7621  -2.7599  -2.7505  -2.7272  -2.7263  -2.7135  -2.7031  -2.6829
    -2.6809  -2.6702  -2.6558  -2.6523  -2.6477  -2.6421  -2.6382  -2.6336
    -2.6245  -2.5796  -2.5529  -2.5525  -2.5341  -2.5224  -2.5186  -2.5128
    -2.5058  -2.5051  -2.5029  -2.4777  -2.4764  -2.4704  -2.4632  -2.4599
    -2.4518  -2.4258  -2.4248  -2.4208  -2.4180  -2.4133  -2.3712  -2.3483
    -2.3429  -2.3401  -2.3328  -2.3246  -2.3212  -2.3162  -2.2944  -2.2943
    -2.2724  -2.2661  -2.2621  -2.2529  -2.2492  -2.2436  -2.2211  -2.2108
    -2.1779  -2.1688  -2.1633  -2.1619  -2.1598  -2.1568  -2.1529  -2.1503
    -2.1468  -2.1430  -2.1408  -2.1253  -2.1241  -2.0150  -2.0061  -1.9979
    -1.9621  -1.9609  -1.9497  -1.9488  -1.9406  -1.9399  -1.9318  -1.9315
    -1.9205  -1.9096  -1.9050  -1.9024  -1.8934  -1.8828  -1.8760  -1.8662
    -1.8569  -1.8366  -1.8340  -1.8206  -1.8102  -1.7974  -1.7861  -1.7664
    -1.7634  -1.7618  -1.7482  -1.7329  -1.7320  -1.7250  -1.7245  -1.7060
    -1.7009  -1.6874  -1.6828  -1.6523  -1.6508  -1.6394  -1.6005  -1.5899
    -1.5794  -1.5739  -1.5640  -1.5472  -1.5423  -1.5181  -1.5127  -1.5119
    -1.4879  -1.4735  -1.4701  -1.4515  -1.4504  -1.4362  -1.4298  -1.4176
    -1.4004  -1.3958  -1.3898  -1.3351  -1.3339  -1.3249  -1.3186  -1.3130
    -1.3008  -1.2890  -1.2877  -1.2697  -1.2543  -1.2365  -1.2259  -1.2160
    -1.1987  -1.1788  -1.1765  -1.1676  -1.1650  -1.1624  -1.1608  -1.1595
    -1.1412  -1.1262  -1.1174  -1.1030  -1.1011  -1.0985  -1.0925  -1.0841
    -1.0602  -1.0479  -1.0358  -1.0220  -0.9828  -0.9405  -0.9389  -0.9279
    -0.9274  -0.9157  -0.9124  -0.8976  -0.8970  -0.8795  -0.8770  -0.8647
    -0.8640  -0.8601  -0.8437  -0.8357  -0.8289  -0.8206  -0.7831  -0.7450
    -0.7396  -0.7148  -0.7088  -0.7014  -0.7004  -0.6981  -0.6935  -0.6883
    -0.6848  -0.6813  -0.6536  -0.6419  -0.6216  -0.6120  -0.6110  -0.6009
    -0.5947  -0.5935  -0.5856  -0.5830  -0.5825  -0.5749  -0.5670  -0.5626
    -0.5558  -0.5324  -0.5279  -0.5269  -0.5154  -0.5134  -0.4965  -0.4658
    -0.4625  -0.4562  -0.4514  -0.3883  -0.3862  -0.3565  -0.3534  -0.2997
    -0.2961  -0.2924  -0.2731  -0.2593  -0.0403  -0.0085   0.3080   0.3083
     0.3972   0.4253   0.6027   0.6264   0.6384   0.7511   0.7590   1.1871
     1.1890   1.2063   1.4760   1.4970   1.4990   1.7713   1.7994   1.8475
     1.8501   1.8778   1.8972   2.1017   2.1098   2.2001   2.2002   2.2840
     2.3353   2.3624   2.5038   2.6066   3.0306   3.0405   3.0430   3.0486
     3.0892   3.1036   3.3899   3.3931   3.6710   3.6872   3.7901   4.0900
     4.1257   4.1326   4.3573   4.3826   4.4256   4.4344   4.5214   4.6424
     4.6494   4.7586   4.7616   5.0566   5.1286   5.1370   5.3053   5.3400
     5.4822   5.5153   5.5174   5.5429   5.5522   5.6024   5.6135   5.6702
     6.0241   6.0726   6.2047   6.3043   6.3311   6.3324   6.3548   6.3641
     6.3731   6.6003   6.6050   6.6271   6.7794   6.8347   6.8592   6.8793
     6.9194   7.1222   7.1448

          k = 0.0000-0.2887 0.1111 (136898 PWs)   bands (ev):

   -19.1568  -7.0187  -6.6444  -5.8526  -5.5719  -5.5039  -5.5001  -4.9674
    -4.9618  -4.8461  -4.8300  -4.6886  -4.6570  -4.5870  -4.5733  -4.5505
    -4.5173  -4.5152  -4.3865  -4.3455  -4.3444  -4.3037  -4.2773  -4.2654
    -4.1675  -4.1616  -4.1395  -4.1251  -4.1245  -4.1040  -4.0837  -4.0768
    -4.0166  -3.9742  -3.9705  -3.9575  -3.9471  -3.9325  -3.9270  -3.9206
    -3.9121  -3.8974  -3.8787  -3.8780  -3.8749  -3.8570  -3.8480  -3.8416
    -3.8252  -3.8220  -3.8123  -3.7818  -3.7624  -3.7348  -3.7245  -3.7200
    -3.7163  -3.6988  -3.6430  -3.6396  -3.6131  -3.6068  -3.5866  -3.5374
    -3.5367  -3.5209  -3.5081  -3.4967  -3.4961  -3.4922  -3.4688  -3.3350
    -3.3316  -3.3225  -3.3157  -3.3041  -3.2903  -3.2855  -3.2685  -3.2608
    -3.2148  -3.2117  -3.1988  -3.1980  -3.1747  -3.1395  -3.1318  -3.1122
    -3.1050  -3.1014  -3.0666  -3.0639  -3.0552  -3.0520  -3.0399  -3.0340
    -3.0024  -3.0017  -2.9868  -2.9793  -2.9754  -2.9716  -2.9636  -2.9017
    -2.8990  -2.8899  -2.8632  -2.8566  -2.8151  -2.8033  -2.7762  -2.7717
    -2.7634  -2.7616  -2.7506  -2.7289  -2.7260  -2.7135  -2.7003  -2.6839
    -2.6779  -2.6702  -2.6550  -2.6526  -2.6474  -2.6429  -2.6375  -2.6343
    -2.6245  -2.5797  -2.5546  -2.5532  -2.5323  -2.5218  -2.5196  -2.5131
    -2.5052  -2.5044  -2.5034  -2.4809  -2.4758  -2.4696  -2.4639  -2.4607
    -2.4515  -2.4246  -2.4226  -2.4191  -2.4183  -2.4147  -2.3717  -2.3466
    -2.3427  -2.3406  -2.3342  -2.3303  -2.3216  -2.3158  -2.2946  -2.2940
    -2.2702  -2.2640  -2.2616  -2.2547  -2.2479  -2.2436  -2.2176  -2.2112
    -2.1791  -2.1680  -2.1636  -2.1608  -2.1597  -2.1554  -2.1533  -2.1488
    -2.1478  -2.1426  -2.1408  -2.1258  -2.1237  -2.0226  -2.0046  -1.9817
    -1.9669  -1.9610  -1.9502  -1.9491  -1.9432  -1.9362  -1.9322  -1.9289
    -1.9226  -1.9131  -1.9047  -1.9039  -1.8907  -1.8850  -1.8750  -1.8684
    -1.8569  -1.8399  -1.8349  -1.8122  -1.8094  -1.7961  -1.7862  -1.7663
    -1.7630  -1.7619  -1.7483  -1.7376  -1.7319  -1.7246  -1.7233  -1.7034
    -1.7022  -1.6883  -1.6855  -1.6550  -1.6446  -1.6400  -1.5985  -1.5937
    -1.5768  -1.5745  -1.5640  -1.5471  -1.5426  -1.5234  -1.5141  -1.5084
    -1.4826  -1.4775  -1.4704  -1.4522  -1.4502  -1.4349  -1.4307  -1.4172
    -1.4036  -1.3939  -1.3891  -1.3412  -1.3305  -1.3237  -1.3182  -1.3089
    -1.3035  -1.2870  -1.2865  -1.2690  -1.2553  -1.2317  -1.2284  -1.2149
    -1.1950  -1.1846  -1.1748  -1.1688  -1.1668  -1.1631  -1.1617  -1.1568
    -1.1413  -1.1305  -1.1213  -1.1130  -1.1004  -1.0979  -1.0881  -1.0825
    -1.0646  -1.0497  -1.0356  -1.0218  -0.9668  -0.9495  -0.9329  -0.9281
    -0.9253  -0.9190  -0.9097  -0.8996  -0.8908  -0.8837  -0.8752  -0.8647
    -0.8612  -0.8589  -0.8454  -0.8329  -0.8268  -0.8217  -0.7915  -0.7473
    -0.7446  -0.7114  -0.7082  -0.7053  -0.7002  -0.6997  -0.6951  -0.6936
    -0.6810  -0.6706  -0.6580  -0.6418  -0.6265  -0.6142  -0.6081  -0.6006
    -0.5959  -0.5900  -0.5857  -0.5831  -0.5798  -0.5749  -0.5668  -0.5624
    -0.5569  -0.5324  -0.5288  -0.5244  -0.5156  -0.5137  -0.4962  -0.4653
    -0.4630  -0.4553  -0.4528  -0.3872  -0.3863  -0.3562  -0.3541  -0.2984
    -0.2972  -0.2925  -0.2730  -0.2632  -0.0320  -0.0117   0.3073   0.3085
     0.4038   0.4207   0.5969   0.6236   0.6382   0.7530   0.7557   1.1877
     1.1901   1.2020   1.4767   1.4979   1.5001   1.7792   1.7921   1.8497
     1.8534   1.8819   1.8905   2.1054   2.1106   2.1983   2.2009   2.2849
     2.3416   2.3534   2.5011   2.6095   3.0323   3.0419   3.0435   3.0458
     3.0971   3.0996   3.3915   3.3928   3.6758   3.6827   3.7940   4.0880
     4.1300   4.1305   4.3590   4.3724   4.4277   4.4296   4.5269   4.6403
     4.6459   4.7585   4.7602   5.0574   5.1196   5.1367   5.3130   5.3248
     5.4844   5.5096   5.5198   5.5478   5.5487   5.6024   5.6115   5.6810
     6.0320   6.0684   6.2085   6.2928   6.3265   6.3436   6.3519   6.3671
     6.3733   6.5807   6.6033   6.6282   6.7814   6.8389   6.8511   6.8973
     6.9120   7.1303   7.1346

          k = 0.0000 0.2887 0.1111 (136898 PWs)   bands (ev):

   -19.1568  -7.0187  -6.6444  -5.8526  -5.5719  -5.5039  -5.5001  -4.9674
    -4.9618  -4.8461  -4.8300  -4.6886  -4.6570  -4.5870  -4.5733  -4.5505
    -4.5173  -4.5152  -4.3865  -4.3455  -4.3444  -4.3037  -4.2773  -4.2654
    -4.1675  -4.1616  -4.1395  -4.1251  -4.1245  -4.1040  -4.0837  -4.0768
    -4.0166  -3.9742  -3.9705  -3.9575  -3.9471  -3.9325  -3.9270  -3.9206
    -3.9121  -3.8974  -3.8787  -3.8780  -3.8749  -3.8570  -3.8480  -3.8416
    -3.8252  -3.8220  -3.8123  -3.7818  -3.7624  -3.7348  -3.7245  -3.7200
    -3.7163  -3.6988  -3.6430  -3.6396  -3.6131  -3.6068  -3.5866  -3.5374
    -3.5367  -3.5209  -3.5081  -3.4967  -3.4961  -3.4922  -3.4688  -3.3350
    -3.3316  -3.3225  -3.3157  -3.3041  -3.2903  -3.2855  -3.2685  -3.2608
    -3.2148  -3.2117  -3.1988  -3.1980  -3.1747  -3.1395  -3.1318  -3.1121
    -3.1050  -3.1014  -3.0666  -3.0639  -3.0552  -3.0520  -3.0399  -3.0340
    -3.0024  -3.0017  -2.9868  -2.9793  -2.9754  -2.9716  -2.9636  -2.9017
    -2.8990  -2.8899  -2.8632  -2.8566  -2.8151  -2.8033  -2.7762  -2.7717
    -2.7634  -2.7616  -2.7506  -2.7289  -2.7260  -2.7134  -2.7003  -2.6839
    -2.6779  -2.6702  -2.6550  -2.6526  -2.6474  -2.6429  -2.6375  -2.6343
    -2.6245  -2.5797  -2.5546  -2.5532  -2.5323  -2.5218  -2.5196  -2.5131
    -2.5052  -2.5044  -2.5034  -2.4809  -2.4758  -2.4696  -2.4639  -2.4607
    -2.4515  -2.4246  -2.4226  -2.4191  -2.4183  -2.4147  -2.3717  -2.3466
    -2.3427  -2.3406  -2.3342  -2.3303  -2.3216  -2.3158  -2.2946  -2.2940
    -2.2702  -2.2640  -2.2616  -2.2547  -2.2479  -2.2436  -2.2176  -2.2112
    -2.1791  -2.1680  -2.1636  -2.1608  -2.1597  -2.1554  -2.1533  -2.1488
    -2.1478  -2.1426  -2.1408  -2.1258  -2.1237  -2.0226  -2.0046  -1.9817
    -1.9669  -1.9610  -1.9502  -1.9491  -1.9432  -1.9362  -1.9322  -1.9289
    -1.9226  -1.9131  -1.9047  -1.9039  -1.8907  -1.8850  -1.8750  -1.8684
    -1.8569  -1.8399  -1.8349  -1.8122  -1.8094  -1.7961  -1.7862  -1.7663
    -1.7630  -1.7619  -1.7483  -1.7376  -1.7319  -1.7246  -1.7233  -1.7034
    -1.7022  -1.6883  -1.6855  -1.6550  -1.6446  -1.6400  -1.5985  -1.5937
    -1.5768  -1.5745  -1.5640  -1.5471  -1.5426  -1.5234  -1.5141  -1.5084
    -1.4826  -1.4775  -1.4704  -1.4522  -1.4502  -1.4349  -1.4307  -1.4172
    -1.4036  -1.3939  -1.3891  -1.3412  -1.3305  -1.3237  -1.3182  -1.3089
    -1.3035  -1.2870  -1.2865  -1.2690  -1.2553  -1.2317  -1.2284  -1.2149
    -1.1950  -1.1846  -1.1748  -1.1688  -1.1668  -1.1631  -1.1617  -1.1568
    -1.1413  -1.1305  -1.1213  -1.1130  -1.1004  -1.0979  -1.0881  -1.0825
    -1.0646  -1.0497  -1.0356  -1.0218  -0.9668  -0.9495  -0.9329  -0.9281
    -0.9253  -0.9190  -0.9097  -0.8996  -0.8908  -0.8837  -0.8752  -0.8647
    -0.8612  -0.8589  -0.8454  -0.8329  -0.8268  -0.8217  -0.7915  -0.7473
    -0.7446  -0.7114  -0.7082  -0.7053  -0.7002  -0.6997  -0.6951  -0.6936
    -0.6810  -0.6706  -0.6580  -0.6418  -0.6265  -0.6142  -0.6081  -0.6006
    -0.5959  -0.5900  -0.5857  -0.5831  -0.5798  -0.5749  -0.5668  -0.5624
    -0.5569  -0.5324  -0.5288  -0.5244  -0.5156  -0.5137  -0.4962  -0.4653
    -0.4630  -0.4553  -0.4528  -0.3872  -0.3863  -0.3562  -0.3541  -0.2984
    -0.2972  -0.2925  -0.2730  -0.2632  -0.0320  -0.0117   0.3073   0.3085
     0.4038   0.4207   0.5969   0.6236   0.6382   0.7530   0.7557   1.1877
     1.1901   1.2020   1.4767   1.4979   1.5001   1.7792   1.7921   1.8497
     1.8534   1.8819   1.8905   2.1054   2.1106   2.1983   2.2009   2.2849
     2.3416   2.3534   2.5011   2.6095   3.0323   3.0419   3.0435   3.0458
     3.0971   3.0996   3.3915   3.3928   3.6758   3.6827   3.7940   4.0880
     4.1300   4.1305   4.3590   4.3724   4.4277   4.4296   4.5269   4.6403
     4.6459   4.7585   4.7602   5.0574   5.1196   5.1367   5.3130   5.3248
     5.4844   5.5096   5.5198   5.5478   5.5487   5.6024   5.6115   5.6810
     6.0322   6.0685   6.2085   6.2925   6.3262   6.3436   6.3519   6.3671
     6.3733   6.5808   6.6032   6.6278   6.7777   6.8388   6.8511   6.8976
     6.9123   7.1352   7.1398

     the Fermi energy is     1.3371 ev

!    total energy              =   -6604.39180465 Ry
     Harris-Foulkes estimate   =   -6604.39180465 Ry
     estimated scf accuracy    <          5.6E-09 Ry

     The total energy is the sum of the following terms:

     one-electron contribution =  -48859.13276339 Ry
     hartree contribution      =   24927.96696360 Ry
     xc contribution           =   -3205.05650376 Ry
     ewald contribution        =   20531.82774131 Ry
     smearing contrib. (-TS)   =       0.00275759 Ry

     convergence has been achieved in  24 iterations

     Writing output data file 2306931.save

     init_run     :    141.75s CPU    150.79s WALL (       1 calls)
     electrons    :   7934.18s CPU   8336.62s WALL (       1 calls)

     Called by init_run:
     wfcinit      :    111.06s CPU    117.61s WALL (       1 calls)
     potinit      :      8.92s CPU      9.43s WALL (       1 calls)

     Called by electrons:
     c_bands      :   6716.52s CPU   7028.82s WALL (      25 calls)
     sum_band     :    874.65s CPU    950.02s WALL (      25 calls)
     v_of_rho     :    101.16s CPU    112.18s WALL (      25 calls)
     newd         :    250.40s CPU    253.28s WALL (      25 calls)
     mix_rho      :      2.67s CPU      3.05s WALL (      25 calls)
     vdW_energy   :      7.23s CPU      7.87s WALL (      25 calls)
     vdW_ffts     :     54.00s CPU     60.01s WALL (      50 calls)
     vdW_v        :     12.94s CPU     13.73s WALL (      25 calls)

     Called by c_bands:
     init_us_2    :     16.36s CPU     16.88s WALL (     612 calls)
     cegterg      :   6627.72s CPU   6937.66s WALL (     300 calls)

     Called by *egterg:
     h_psi        :   2935.26s CPU   3209.39s WALL (    1578 calls)
     s_psi        :    413.10s CPU    415.35s WALL (    1578 calls)
     g_psi        :      5.96s CPU      5.86s WALL (    1266 calls)
     cdiaghg      :   1918.99s CPU   1924.34s WALL (    1554 calls)

     Called by h_psi:
     add_vuspsi   :    415.79s CPU    418.12s WALL (    1578 calls)

     General routines
     calbec       :    636.25s CPU    638.47s WALL (    1878 calls)
     fft          :    143.24s CPU    153.98s WALL (    1650 calls)
     ffts         :      1.62s CPU      1.89s WALL (      50 calls)
     fftw         :   2284.25s CPU   2594.14s WALL (  723114 calls)
     interpolate  :      4.02s CPU      4.73s WALL (      50 calls)
     davcio       :      0.00s CPU      0.32s WALL (      12 calls)

     Parallel routines
     fft_scatter  :   1705.58s CPU   1940.24s WALL (  724814 calls)

     PWSCF        :     2h14m CPU        2h21m WALL


   This run was terminated on:   5:52: 7  25Jun2015            

=------------------------------------------------------------------------------=
   JOB DONE.
=------------------------------------------------------------------------------=
