Setting SGE environment for SCC

     Program PWSCF v.5.1.2 starts on 26Jun2015 at 14:30:26 

     This program is part of the open-source Quantum ESPRESSO suite
     for quantum simulation of materials; please cite
         "P. Giannozzi et al., J. Phys.:Condens. Matter 21 395502 (2009);
          URL http://www.quantum-espresso.org", 
     in publications or presentations arising from this work. More details at
     http://www.quantum-espresso.org/quote

     Parallel version (MPI), running on    32 processors
     R & G space division:  proc/nbgrp/npool/nimage =      32
     Reading input from top.O1.Au50.d.3.0.phi.45.psi.90.in
Warning: card &IONS ignored
Warning: card / ignored
Warning: card &CELL ignored
Warning: card / ignored

     Current dimensions of program PWSCF are:
     Max number of different atomic species (ntypx) = 10
     Max number of k-points (npk) =  40000
     Max angular momentum in pseudopotentials (lmaxx) =  3

     IMPORTANT: XC functional enforced from input :
     Exchange-correlation      = VDW-DF ( 1  4  4  0 1 0)
     Any further DFT definition will be discarded
     Please, verify this is what you really want


     Subspace diagonalization in iterative solution of the eigenvalue problem:
     a serial algorithm will be used


     Parallelization info
     --------------------
     sticks:   dense  smooth     PW     G-vecs:    dense   smooth      PW
     Min         445     223     58                96775    34191    4534
     Max         446     224     59                96790    34246    4540
     Sum       14269    7147   1867              3097177  1095093  145167


     Title: 
     top.O1.Au50.d.3.0.phi.45.psi.90                                            


     bravais-lattice index     =            4
     lattice parameter (alat)  =      22.7436  a.u.
     unit-cell volume          =   22924.1508 (a.u.)^3
     number of atoms/cell      =           67
     number of atomic types    =            3
     number of electrons       =       712.00
     number of Kohn-Sham states=          427
     kinetic-energy cutoff     =      50.0000  Ry
     charge density cutoff     =     400.0000  Ry
     convergence threshold     =      1.0E-08
     mixing beta               =       0.7000
     number of iterations used =            8  plain     mixing
     Exchange-correlation      = VDW-DF ( 1  4  4  0 1 0)

     celldm(1)=  22.743643  celldm(2)=   0.000000  celldm(3)=   2.250000
     celldm(4)=   0.000000  celldm(5)=   0.000000  celldm(6)=   0.000000

     crystal axes: (cart. coord. in units of alat)
               a(1) = (   1.000000   0.000000   0.000000 )  
               a(2) = (  -0.500000   0.866025   0.000000 )  
               a(3) = (   0.000000   0.000000   2.250000 )  

     reciprocal axes: (cart. coord. in units 2 pi/alat)
               b(1) = (  1.000000  0.577350 -0.000000 )  
               b(2) = (  0.000000  1.154701  0.000000 )  
               b(3) = (  0.000000 -0.000000  0.444444 )  


     PseudoPot. # 1 for Au read from file:
     /home/scc/andrejb/qe/pseudo/Au.pbe-nd-van.UPF
     MD5 check sum: 458681b50f36d87ef23c61b04bba420a
     Pseudo is Ultrasoft + core correction, Zval = 11.0
     Generated by new atomic code, or converted to UPF format
     Using radial grid of  985 points,  3 beta functions with: 
                l(1) =   1
                l(2) =   2
                l(3) =   2
     Q(r) pseudized with  8 coefficients,  rinner =    1.100   1.100   1.100
                                                       1.100   1.100

     PseudoPot. # 2 for H  read from file:
     /home/scc/andrejb/qe/pseudo/H.pbe-van_ak.UPF
     MD5 check sum: 403db7282739603aa925980fa9b8608d
     Pseudo is Ultrasoft, Zval =  1.0
     Generated by new atomic code, or converted to UPF format
     Using radial grid of  615 points,  1 beta functions with: 
                l(1) =   0
     Q(r) pseudized with  8 coefficients,  rinner =    0.800

     PseudoPot. # 3 for O  read from file:
     /home/scc/andrejb/qe/pseudo/O.pbe-van_ak.UPF
     MD5 check sum: 4b8c549914a63cae506c6ff22b5af4fe
     Pseudo is Ultrasoft, Zval =  6.0
     Generated by new atomic code, or converted to UPF format
     Using radial grid of  737 points,  4 beta functions with: 
                l(1) =   0
                l(2) =   0
                l(3) =   1
                l(4) =   1
     Q(r) pseudized with  8 coefficients,  rinner =    0.800   0.800   0.800


     vdW kernel table read from file vdW_kernel_table
     MD5 check sum: 48e77a2e26edf626eeb0eaa751ad5cac

     atomic species   valence    mass     pseudopotential
        Au            11.00   196.96657     Au( 1.00)
        H              1.00     1.01000     H ( 1.00)
        O              6.00    16.00000     O ( 1.00)

     No symmetry found



   Cartesian axes

     site n.     atom                  positions (alat units)
         1           O   tau(   1) = (   0.4790780   0.3968269   0.8622611  )
         2           H   tau(   2) = (   0.4731484   0.3485733   0.7975743  )
         3           H   tau(   3) = (   0.4848144   0.3460662   0.9250001  )
         4           Au  tau(   4) = (   0.3540481   0.6132292   0.0000000  )
         5           Au  tau(   5) = (   0.4790062   0.3967954   0.0000000  )
         6           Au  tau(   6) = (   0.6039644   0.1803616   0.0000000  )
         7           Au  tau(   7) = (   0.7289225  -0.0360723   0.0000000  )
         8           Au  tau(   8) = (   0.1041318   0.6132292   0.0000000  )
         9           Au  tau(   9) = (   0.2290899   0.3967954   0.0000000  )
        10           Au  tau(  10) = (   0.3540481   0.1803616   0.0000000  )
        11           Au  tau(  11) = (   0.4790062  -0.0360723   0.0000000  )
        12           Au  tau(  12) = (  -0.1457845   0.6132292   0.0000000  )
        13           Au  tau(  13) = (  -0.0208264   0.3967954   0.0000000  )
        14           Au  tau(  14) = (   0.1041318   0.1803616   0.0000000  )
        15           Au  tau(  15) = (   0.2290899  -0.0360723   0.0000000  )
        16           Au  tau(  16) = (  -0.3957008   0.6132292   0.0000000  )
        17           Au  tau(  17) = (  -0.2707426   0.3967954   0.0000000  )
        18           Au  tau(  18) = (  -0.1457845   0.1803616   0.0000000  )
        19           Au  tau(  19) = (  -0.0208264  -0.0360723   0.0000000  )
        20           Au  tau(  20) = (   0.4790062   0.6853738   0.2040557  )
        21           Au  tau(  21) = (   0.6039644   0.4689400   0.2040557  )
        22           Au  tau(  22) = (   0.7289225   0.2525062   0.2040557  )
        23           Au  tau(  23) = (   0.8538806   0.0360723   0.2040557  )
        24           Au  tau(  24) = (   0.2290899   0.6853738   0.2040557  )
        25           Au  tau(  25) = (   0.3540481   0.4689400   0.2040557  )
        26           Au  tau(  26) = (   0.4790062   0.2525062   0.2040557  )
        27           Au  tau(  27) = (   0.6039644   0.0360723   0.2040557  )
        28           Au  tau(  28) = (  -0.0208264   0.6853738   0.2040557  )
        29           Au  tau(  29) = (   0.1041318   0.4689400   0.2040557  )
        30           Au  tau(  30) = (   0.2290899   0.2525062   0.2040557  )
        31           Au  tau(  31) = (   0.3540481   0.0360723   0.2040557  )
        32           Au  tau(  32) = (  -0.2707426   0.6853738   0.2040557  )
        33           Au  tau(  33) = (  -0.1457845   0.4689400   0.2040557  )
        34           Au  tau(  34) = (  -0.0208264   0.2525062   0.2040557  )
        35           Au  tau(  35) = (   0.1041318   0.0360723   0.2040557  )
        36           Au  tau(  36) = (   0.3541162   0.7576593   0.4066483  )
        37           Au  tau(  37) = (   0.4791000   0.5411421   0.4066696  )
        38           Au  tau(  38) = (   0.6040570   0.3246862   0.4066618  )
        39           Au  tau(  39) = (   0.7290270   0.1081684   0.4066530  )
        40           Au  tau(  40) = (   0.1041162   0.7576236   0.4066247  )
        41           Au  tau(  41) = (   0.2291001   0.5411062   0.4066455  )
        42           Au  tau(  42) = (   0.3540567   0.3246505   0.4066380  )
        43           Au  tau(  43) = (   0.4790276   0.1081324   0.4066292  )
        44           Au  tau(  44) = (  -0.1458201   0.7576104   0.4066225  )
        45           Au  tau(  45) = (  -0.0208365   0.5410930   0.4066438  )
        46           Au  tau(  46) = (   0.1041202   0.3246372   0.4066359  )
        47           Au  tau(  47) = (   0.2290908   0.1081193   0.4066273  )
        48           Au  tau(  48) = (  -0.3958167   0.7575791   0.4065812  )
        49           Au  tau(  49) = (  -0.2708328   0.5410617   0.4066025  )
        50           Au  tau(  50) = (  -0.1458763   0.3246061   0.4065947  )
        51           Au  tau(  51) = (  -0.0209056   0.1080882   0.4065858  )
        52           Au  tau(  52) = (   0.3541084   0.6133344   0.6129762  )
        53           Au  tau(  53) = (   0.4790780   0.3968269   0.6129968  )
        54           Au  tau(  54) = (   0.6040356   0.1803811   0.6129859  )
        55           Au  tau(  55) = (   0.7290165  -0.0361221   0.6129385  )
        56           Au  tau(  56) = (   0.1041243   0.6133091   0.6130023  )
        57           Au  tau(  57) = (   0.2290941   0.3968013   0.6130241  )
        58           Au  tau(  58) = (   0.3540515   0.1803552   0.6130121  )
        59           Au  tau(  59) = (   0.4790323  -0.0361475   0.6129659  )
        60           Au  tau(  60) = (  -0.1458030   0.6133014   0.6129980  )
        61           Au  tau(  61) = (  -0.0208339   0.3967936   0.6130189  )
        62           Au  tau(  62) = (   0.1041239   0.1803477   0.6130083  )
        63           Au  tau(  63) = (   0.2291046  -0.0361554   0.6129607  )
        64           Au  tau(  64) = (  -0.3957908   0.6132739   0.6129471  )
        65           Au  tau(  65) = (  -0.2708208   0.3967658   0.6129688  )
        66           Au  tau(  66) = (  -0.1458636   0.1803200   0.6129569  )
        67           Au  tau(  67) = (  -0.0208823  -0.0361826   0.6129110  )

     number of k points=    12  Marzari-Vanderbilt smearing, width (Ry)=  0.0200
                       cart. coord. in units 2pi/alat
        k(    1) = (   0.2500000   0.4330127   0.1111111), wk =   0.1666667
        k(    2) = (   0.2500000  -0.1443376   0.1111111), wk =   0.1666667
        k(    3) = (  -0.2500000  -0.4330127   0.1111111), wk =   0.1666667
        k(    4) = (  -0.2500000   0.4330127  -0.1111111), wk =   0.1666667
        k(    5) = (   0.2500000  -0.4330127  -0.1111111), wk =   0.1666667
        k(    6) = (   0.5000000   0.0000000   0.1111111), wk =   0.1666667
        k(    7) = (  -0.5000000   0.0000000   0.1111111), wk =   0.1666667
        k(    8) = (  -0.2500000   0.1443376   0.1111111), wk =   0.1666667
        k(    9) = (  -0.2500000  -0.1443376  -0.1111111), wk =   0.1666667
        k(   10) = (   0.2500000   0.1443376  -0.1111111), wk =   0.1666667
        k(   11) = (   0.0000000  -0.2886751   0.1111111), wk =   0.1666667
        k(   12) = (   0.0000000   0.2886751   0.1111111), wk =   0.1666667

     Dense  grid:  3097177 G-vectors     FFT dimensions: ( 150, 150, 360)

     Smooth grid:  1095093 G-vectors     FFT dimensions: ( 108, 108, 240)

     Largest allocated arrays     est. size (Mb)     dimensions
        Kohn-Sham Wavefunctions        28.01 Mb     (    4299,  427)
        NL pseudopotentials            55.23 Mb     (    4299,  842)
        Each V/rho on FFT grid          4.12 Mb     (  270000)
        Each G-vector array             0.74 Mb     (   96788)
        G-vector shells                 0.16 Mb     (   21404)
     Largest temporary arrays     est. size (Mb)     dimensions
        Auxiliary wavefunctions       112.04 Mb     (    4299, 1708)
        Each subspace H/S matrix       44.51 Mb     (    1708, 1708)
        Each <psi_i|beta_j> matrix      5.49 Mb     (     842,  427)
        Arrays for rho mixing          32.96 Mb     (  270000,    8)

     Initial potential from superposition of free atoms
     Check: negative starting charge=   -1.730246

     starting charge  711.25682, renormalised to  712.00000

     negative rho (up, down):  1.732E+00 0.000E+00


     ************************************************************************
     *
     * You are using vdW-DF for exchange-correlation in this calculation.
     * Please cite the following three references that made this development
     * possible:
     *
     *   M. Dion, H. Rydberg, E. Schroder, D. C. Langreth, and
     *   B. I. Lundqvist, Phys. Rev. Lett. 92, 246401 (2004).
     *
     *   T. Thonhauser, V. R. Cooper, S. Li, A. Puzder, P. Hyldgaard, and
     *   D. C. Langreth, Phys. Rev. B 76, 125112 (2007).
     *
     *   G. Roman-Perez and J. M. Soler, Phys. Rev. Lett. 103, 096102 (2009).
     *
     *
     * If you are using vdW-DF2, please also cite:
     *
     *   K. Lee, E. D. Murray, L. Kong, B. I. Lundqvist, and
     *   D. C. Langreth, Phys. Rev. B 82, 081101(R) (2010).
     *
     *
     * If you are calculating the stress with vdW-DF, please also cite:
     *
     *   R. Sabatini, E. Kucukbenli, B. Kolb, T. Thonhauser, and
     *   S. de Gironcoli, J. Phys.: Condens. Matter 24, 424209 (2012).
     *
     ************************************************************************

     Carrying out vdW-DF run using the following parameters:

     Nqs =      20    Nr_points =    1024   r_max =   100.000
     q_mesh =
               0.00001000     0.04494208     0.09755937     0.15916263
               0.23128650     0.31572767     0.41458969     0.53033537
               0.66584808     0.82450364     1.01025438     1.22772762
               1.48234092     1.78043706     2.12944203     2.53805004
               3.01644009     3.57652955     4.23227104     5.00000000

     Gradients computed in reciprocal space

     ************************************************************************


     Starting wfc are  582 randomized atomic wfcs

     total cpu time spent up to now is      152.9 secs

     Self-consistent Calculation

     iteration #  1     ecut=    50.00 Ry     beta=0.70
     Davidson diagonalization with overlap
     ethr =  1.00E-02,  avg # of iterations =  3.0

     Threshold (ethr) on eigenvalues was too large:
     Diagonalizing with lowered threshold

     Davidson diagonalization with overlap
     ethr =  3.43E-04,  avg # of iterations =  5.3

     negative rho (up, down):  1.727E+00 0.000E+00

     total cpu time spent up to now is      725.7 secs

     total energy              =   -6602.80298765 Ry
     Harris-Foulkes estimate   =   -6605.02305755 Ry
     estimated scf accuracy    <       2.78353328 Ry

     iteration #  2     ecut=    50.00 Ry     beta=0.70
     Davidson diagonalization with overlap
     ethr =  3.91E-04,  avg # of iterations = 11.6

     negative rho (up, down):  1.727E+00 0.000E+00

     total cpu time spent up to now is     1650.9 secs

     total energy              =   -6596.99905511 Ry
     Harris-Foulkes estimate   =   -6609.99843191 Ry
     estimated scf accuracy    <      71.46455324 Ry

     iteration #  3     ecut=    50.00 Ry     beta=0.70
     Davidson diagonalization with overlap
     ethr =  3.91E-04,  avg # of iterations =  6.5

     negative rho (up, down):  1.737E+00 0.000E+00

     total cpu time spent up to now is     2231.7 secs

     total energy              =   -6603.18627116 Ry
     Harris-Foulkes estimate   =   -6604.97752480 Ry
     estimated scf accuracy    <       8.04019689 Ry

     iteration #  4     ecut=    50.00 Ry     beta=0.70
     Davidson diagonalization with overlap
     ethr =  3.91E-04,  avg # of iterations =  6.6

     negative rho (up, down):  1.739E+00 0.000E+00

     total cpu time spent up to now is     2573.4 secs

     total energy              =   -6603.73652212 Ry
     Harris-Foulkes estimate   =   -6604.95021769 Ry
     estimated scf accuracy    <       9.63842870 Ry

     iteration #  5     ecut=    50.00 Ry     beta=0.70
     Davidson diagonalization with overlap
     ethr =  3.91E-04,  avg # of iterations =  6.2

     negative rho (up, down):  1.748E+00 0.000E+00

     total cpu time spent up to now is     2910.2 secs

     total energy              =   -6604.24824896 Ry
     Harris-Foulkes estimate   =   -6604.68022246 Ry
     estimated scf accuracy    <       3.58189221 Ry

     iteration #  6     ecut=    50.00 Ry     beta=0.70
     Davidson diagonalization with overlap
     ethr =  3.91E-04,  avg # of iterations =  3.0

     negative rho (up, down):  1.752E+00 0.000E+00

     total cpu time spent up to now is     3165.4 secs

     total energy              =   -6604.41507262 Ry
     Harris-Foulkes estimate   =   -6604.46380189 Ry
     estimated scf accuracy    <       0.15632772 Ry

     iteration #  7     ecut=    50.00 Ry     beta=0.70
     Davidson diagonalization with overlap
     ethr =  2.20E-05,  avg # of iterations = 10.0

     negative rho (up, down):  1.754E+00 0.000E+00

     total cpu time spent up to now is     3589.8 secs

     total energy              =   -6604.42330609 Ry
     Harris-Foulkes estimate   =   -6604.45182400 Ry
     estimated scf accuracy    <       0.12701777 Ry

     iteration #  8     ecut=    50.00 Ry     beta=0.70
     Davidson diagonalization with overlap
     ethr =  1.78E-05,  avg # of iterations =  3.1

     negative rho (up, down):  1.756E+00 0.000E+00

     total cpu time spent up to now is     3842.2 secs

     total energy              =   -6604.42641133 Ry
     Harris-Foulkes estimate   =   -6604.43998054 Ry
     estimated scf accuracy    <       0.05338276 Ry

     iteration #  9     ecut=    50.00 Ry     beta=0.70
     Davidson diagonalization with overlap
     ethr =  7.50E-06,  avg # of iterations =  5.1

     negative rho (up, down):  1.756E+00 0.000E+00

     total cpu time spent up to now is     4136.4 secs

     total energy              =   -6604.42604745 Ry
     Harris-Foulkes estimate   =   -6604.43264225 Ry
     estimated scf accuracy    <       0.02369646 Ry

     iteration # 10     ecut=    50.00 Ry     beta=0.70
     Davidson diagonalization with overlap
     ethr =  3.33E-06,  avg # of iterations =  6.7

     negative rho (up, down):  1.757E+00 0.000E+00

     total cpu time spent up to now is     4457.7 secs

     total energy              =   -6604.42560298 Ry
     Harris-Foulkes estimate   =   -6604.42853993 Ry
     estimated scf accuracy    <       0.01017662 Ry

     iteration # 11     ecut=    50.00 Ry     beta=0.70
     Davidson diagonalization with overlap
     ethr =  1.43E-06,  avg # of iterations =  4.2

     negative rho (up, down):  1.758E+00 0.000E+00

     total cpu time spent up to now is     4739.2 secs

     total energy              =   -6604.42541996 Ry
     Harris-Foulkes estimate   =   -6604.42680210 Ry
     estimated scf accuracy    <       0.00528936 Ry

     iteration # 12     ecut=    50.00 Ry     beta=0.70
     Davidson diagonalization with overlap
     ethr =  7.43E-07,  avg # of iterations =  4.0

     negative rho (up, down):  1.758E+00 0.000E+00

     total cpu time spent up to now is     5007.8 secs

     total energy              =   -6604.42514825 Ry
     Harris-Foulkes estimate   =   -6604.42590859 Ry
     estimated scf accuracy    <       0.00129993 Ry

     iteration # 13     ecut=    50.00 Ry     beta=0.70
     Davidson diagonalization with overlap
     ethr =  1.83E-07,  avg # of iterations =  6.2

     negative rho (up, down):  1.758E+00 0.000E+00

     total cpu time spent up to now is     5358.9 secs

     total energy              =   -6604.42531898 Ry
     Harris-Foulkes estimate   =   -6604.42556121 Ry
     estimated scf accuracy    <       0.00078964 Ry

     iteration # 14     ecut=    50.00 Ry     beta=0.70
     Davidson diagonalization with overlap
     ethr =  1.11E-07,  avg # of iterations =  2.0

     negative rho (up, down):  1.758E+00 0.000E+00

     total cpu time spent up to now is     5597.9 secs

     total energy              =   -6604.42542158 Ry
     Harris-Foulkes estimate   =   -6604.42548891 Ry
     estimated scf accuracy    <       0.00024825 Ry

     iteration # 15     ecut=    50.00 Ry     beta=0.70
     Davidson diagonalization with overlap
     ethr =  3.49E-08,  avg # of iterations =  2.0

     negative rho (up, down):  1.758E+00 0.000E+00

     total cpu time spent up to now is     5839.8 secs

     total energy              =   -6604.42544680 Ry
     Harris-Foulkes estimate   =   -6604.42547510 Ry
     estimated scf accuracy    <       0.00010882 Ry

     iteration # 16     ecut=    50.00 Ry     beta=0.70
     Davidson diagonalization with overlap
     ethr =  1.53E-08,  avg # of iterations =  2.0

     negative rho (up, down):  1.758E+00 0.000E+00

     total cpu time spent up to now is     6073.4 secs

     total energy              =   -6604.42544868 Ry
     Harris-Foulkes estimate   =   -6604.42547175 Ry
     estimated scf accuracy    <       0.00020243 Ry

     iteration # 17     ecut=    50.00 Ry     beta=0.70
     Davidson diagonalization with overlap
     ethr =  1.53E-08,  avg # of iterations =  1.0

     negative rho (up, down):  1.758E+00 0.000E+00

     total cpu time spent up to now is     6301.6 secs

     total energy              =   -6604.42546080 Ry
     Harris-Foulkes estimate   =   -6604.42546449 Ry
     estimated scf accuracy    <       0.00002946 Ry

     iteration # 18     ecut=    50.00 Ry     beta=0.70
     Davidson diagonalization with overlap
     ethr =  4.14E-09,  avg # of iterations =  2.0

     negative rho (up, down):  1.758E+00 0.000E+00

     total cpu time spent up to now is     6531.4 secs

     total energy              =   -6604.42546158 Ry
     Harris-Foulkes estimate   =   -6604.42546417 Ry
     estimated scf accuracy    <       0.00000990 Ry

     iteration # 19     ecut=    50.00 Ry     beta=0.70
     Davidson diagonalization with overlap
     ethr =  1.39E-09,  avg # of iterations =  2.0

     negative rho (up, down):  1.757E+00 0.000E+00

     total cpu time spent up to now is     6768.7 secs

     total energy              =   -6604.42546289 Ry
     Harris-Foulkes estimate   =   -6604.42546325 Ry
     estimated scf accuracy    <       0.00000141 Ry

     iteration # 20     ecut=    50.00 Ry     beta=0.70
     Davidson diagonalization with overlap
     ethr =  1.99E-10,  avg # of iterations =  2.0

     negative rho (up, down):  1.757E+00 0.000E+00

     total cpu time spent up to now is     7008.2 secs

     total energy              =   -6604.42546317 Ry
     Harris-Foulkes estimate   =   -6604.42546318 Ry
     estimated scf accuracy    <       0.00000021 Ry

     iteration # 21     ecut=    50.00 Ry     beta=0.70
     Davidson diagonalization with overlap
     ethr =  2.95E-11,  avg # of iterations =  2.8

     negative rho (up, down):  1.757E+00 0.000E+00

     total cpu time spent up to now is     7311.6 secs

     total energy              =   -6604.42546321 Ry
     Harris-Foulkes estimate   =   -6604.42546326 Ry
     estimated scf accuracy    <       0.00000029 Ry

     iteration # 22     ecut=    50.00 Ry     beta=0.70
     Davidson diagonalization with overlap
     ethr =  2.95E-11,  avg # of iterations =  2.0

     negative rho (up, down):  1.757E+00 0.000E+00

     total cpu time spent up to now is     7563.6 secs

     total energy              =   -6604.42546324 Ry
     Harris-Foulkes estimate   =   -6604.42546325 Ry
     estimated scf accuracy    <       0.00000001 Ry

     iteration # 23     ecut=    50.00 Ry     beta=0.70
     Davidson diagonalization with overlap
     ethr =  1.54E-12,  avg # of iterations =  4.0

     negative rho (up, down):  1.757E+00 0.000E+00

     total cpu time spent up to now is     7937.7 secs

     total energy              =   -6604.42546324 Ry
     Harris-Foulkes estimate   =   -6604.42546324 Ry
     estimated scf accuracy    <       0.00000002 Ry

     iteration # 24     ecut=    50.00 Ry     beta=0.70
     Davidson diagonalization with overlap
     ethr =  1.54E-12,  avg # of iterations =  3.0

     negative rho (up, down):  1.757E+00 0.000E+00

     total cpu time spent up to now is     8238.6 secs

     total energy              =   -6604.42546325 Ry
     Harris-Foulkes estimate   =   -6604.42546325 Ry
     estimated scf accuracy    <       0.00000002 Ry

     iteration # 25     ecut=    50.00 Ry     beta=0.70
     Davidson diagonalization with overlap
     ethr =  1.54E-12,  avg # of iterations =  3.0

     negative rho (up, down):  1.757E+00 0.000E+00

     total cpu time spent up to now is     8512.7 secs

     End of self-consistent calculation

          k = 0.2500 0.4330 0.1111 (136853 PWs)   bands (ev):

   -18.7160  -6.7094  -6.3456  -5.9484  -5.9474  -5.2697  -4.9376  -4.9373
    -4.8981  -4.8969  -4.5376  -4.5370  -4.4388  -4.4385  -4.4247  -4.4023
    -4.3791  -4.2719  -4.2703  -4.2468  -4.2036  -4.2034  -4.1349  -4.1343
    -4.1276  -4.1274  -4.1065  -4.1010  -4.0998  -4.0316  -4.0269  -3.9987
    -3.9976  -3.9860  -3.9856  -3.9626  -3.9624  -3.9399  -3.9319  -3.9315
    -3.9049  -3.8530  -3.8526  -3.8050  -3.8040  -3.7468  -3.7456  -3.6915
    -3.6905  -3.6902  -3.6900  -3.6547  -3.6187  -3.6164  -3.6097  -3.6081
    -3.6073  -3.5792  -3.5766  -3.5690  -3.5084  -3.5076  -3.4997  -3.4806
    -3.4735  -3.4015  -3.4007  -3.3710  -3.3666  -3.3412  -3.3397  -3.3258
    -3.3092  -3.2515  -3.2492  -3.2329  -3.2313  -3.1843  -3.1791  -3.1754
    -3.1367  -3.1093  -3.1047  -3.0972  -3.0964  -3.0900  -3.0839  -3.0769
    -3.0752  -3.0661  -3.0251  -2.9872  -2.9857  -2.9743  -2.9720  -2.9467
    -2.9382  -2.9360  -2.9152  -2.8751  -2.8690  -2.8636  -2.8347  -2.8199
    -2.8138  -2.8029  -2.8013  -2.7746  -2.7686  -2.7430  -2.7078  -2.7004
    -2.6856  -2.6767  -2.6631  -2.6585  -2.6139  -2.6116  -2.5797  -2.5570
    -2.5557  -2.5334  -2.5318  -2.5213  -2.5202  -2.5105  -2.4886  -2.4876
    -2.4429  -2.4426  -2.4411  -2.4260  -2.4246  -2.4183  -2.4109  -2.4090
    -2.4074  -2.4063  -2.4006  -2.3907  -2.3881  -2.3775  -2.3547  -2.3510
    -2.3501  -2.3486  -2.3470  -2.3452  -2.3447  -2.3187  -2.3158  -2.3021
    -2.3000  -2.2824  -2.2823  -2.2738  -2.2727  -2.2711  -2.2696  -2.2525
    -2.2506  -2.2493  -2.2473  -2.2325  -2.2052  -2.2051  -2.1646  -2.1641
    -2.1410  -2.1397  -2.1124  -2.1116  -2.0862  -2.0835  -2.0678  -2.0626
    -2.0354  -2.0183  -2.0131  -2.0084  -2.0061  -2.0030  -1.9966  -1.9947
    -1.9691  -1.9637  -1.9557  -1.8971  -1.8938  -1.8914  -1.8900  -1.8877
    -1.8541  -1.8336  -1.8326  -1.8064  -1.8044  -1.7468  -1.7450  -1.7156
    -1.6980  -1.6962  -1.6377  -1.6359  -1.6264  -1.6231  -1.6141  -1.6122
    -1.6086  -1.6021  -1.5985  -1.5488  -1.5421  -1.5338  -1.5308  -1.5301
    -1.5156  -1.5104  -1.4775  -1.4757  -1.4612  -1.4590  -1.4577  -1.4512
    -1.4464  -1.4393  -1.4354  -1.4183  -1.4162  -1.3807  -1.3738  -1.3667
    -1.3629  -1.3445  -1.3292  -1.2899  -1.2862  -1.2608  -1.2569  -1.2553
    -1.2267  -1.1805  -1.1735  -1.1730  -1.1718  -1.1678  -1.1662  -1.1573
    -1.1409  -1.1376  -1.1008  -1.0964  -1.0698  -1.0664  -1.0635  -1.0603
    -1.0546  -1.0412  -1.0372  -1.0361  -1.0343  -1.0314  -0.9980  -0.9950
    -0.9930  -0.9919  -0.9671  -0.9625  -0.9579  -0.9340  -0.9292  -0.9252
    -0.8831  -0.8742  -0.8717  -0.8389  -0.8303  -0.8200  -0.8176  -0.8166
    -0.8102  -0.8088  -0.8072  -0.7993  -0.7949  -0.7720  -0.7704  -0.7684
    -0.7662  -0.7630  -0.7451  -0.7272  -0.7266  -0.7156  -0.7034  -0.6965
    -0.6918  -0.6811  -0.6630  -0.6255  -0.6236  -0.6156  -0.6142  -0.6132
    -0.6092  -0.6021  -0.5893  -0.5859  -0.5792  -0.5782  -0.5765  -0.5718
    -0.5375  -0.5352  -0.5343  -0.5271  -0.5256  -0.5203  -0.5192  -0.5062
    -0.5035  -0.5000  -0.4981  -0.4585  -0.4567  -0.4495  -0.4453  -0.4444
    -0.3698  -0.3662  -0.3649  -0.3642  -0.3558  -0.3545  -0.3191  -0.3070
    -0.3058  -0.2751  -0.2740  -0.2720  -0.1545  -0.1500  -0.0504   0.3648
     0.3657   0.3691   0.3696   0.4315   0.4336   0.8179   0.8191   0.8605
     0.8622   0.9749   1.0514   1.1609   1.1652   1.3853   1.3907   2.0152
     2.0177   2.1767   2.1803   2.3115   2.3143   2.4144   2.4148   2.5687
     2.8061   2.8195   2.9310   3.1541   3.1586   3.2362   3.2383   3.3380
     3.3537   3.5529   3.5654   3.6094   3.8096   3.8123   3.8709   3.8770
     4.1289   4.1379   4.1414   4.3801   4.4195   4.4241   4.4681   4.7995
     4.8063   4.8321   4.9649   5.1399   5.1431   5.1941   5.2219   5.5129
     5.8074   5.9208   5.9312   5.9380   5.9414   5.9993   6.0059   6.0843
     6.1127   6.1345   6.1402   6.1685   6.1722   6.1931   6.2047   6.2248
     6.2307   6.4289   6.5771   6.7058   6.7588   6.8022   6.8678   6.8799
     6.8874   6.9954   7.0027

          k = 0.2500-0.1443 0.1111 (136898 PWs)   bands (ev):

   -18.7160  -6.7132  -6.5511  -5.7655  -5.4731  -5.4159  -5.4151  -4.8775
    -4.8773  -4.7455  -4.7450  -4.5902  -4.5610  -4.4979  -4.4646  -4.4632
    -4.4310  -4.4307  -4.3025  -4.2607  -4.2606  -4.2007  -4.1796  -4.1792
    -4.0773  -4.0771  -4.0409  -4.0407  -4.0406  -4.0141  -3.9924  -3.9920
    -3.8885  -3.8853  -3.8849  -3.8648  -3.8476  -3.8473  -3.8357  -3.8350
    -3.8227  -3.7921  -3.7919  -3.7912  -3.7909  -3.7595  -3.7588  -3.7411
    -3.7407  -3.7291  -3.6873  -3.6839  -3.6529  -3.6392  -3.6374  -3.6324
    -3.6322  -3.5581  -3.5578  -3.5242  -3.5209  -3.5197  -3.4528  -3.4521
    -3.4369  -3.4366  -3.4077  -3.4067  -3.4054  -3.4050  -3.2523  -3.2507
    -3.2332  -3.2266  -3.2220  -3.2050  -3.2044  -3.1797  -3.1786  -3.1291
    -3.1287  -3.1139  -3.1123  -3.0921  -3.0509  -3.0436  -3.0252  -3.0202
    -3.0189  -2.9816  -2.9783  -2.9719  -2.9701  -2.9564  -2.9542  -2.9171
    -2.9154  -2.9040  -2.8928  -2.8907  -2.8898  -2.8860  -2.8378  -2.8106
    -2.8082  -2.8016  -2.7788  -2.7773  -2.7174  -2.7082  -2.6887  -2.6869
    -2.6751  -2.6734  -2.6680  -2.6398  -2.6376  -2.6292  -2.6122  -2.5881
    -2.5857  -2.5825  -2.5659  -2.5643  -2.5544  -2.5529  -2.5510  -2.5478
    -2.5413  -2.4956  -2.4646  -2.4629  -2.4482  -2.4346  -2.4288  -2.4270
    -2.4208  -2.4194  -2.4177  -2.3889  -2.3882  -2.3868  -2.3784  -2.3777
    -2.3620  -2.3352  -2.3338  -2.3332  -2.3322  -2.3317  -2.2859  -2.2558
    -2.2554  -2.2538  -2.2480  -2.2383  -2.2273  -2.2253  -2.2090  -2.2086
    -2.1782  -2.1744  -2.1739  -2.1565  -2.1555  -2.1531  -2.1235  -2.1205
    -2.0828  -2.0778  -2.0732  -2.0708  -2.0696  -2.0646  -2.0633  -2.0607
    -2.0598  -2.0561  -2.0517  -2.0386  -2.0358  -1.9133  -1.9084  -1.8787
    -1.8728  -1.8695  -1.8642  -1.8640  -1.8489  -1.8470  -1.8455  -1.8437
    -1.8415  -1.8194  -1.8145  -1.8109  -1.8051  -1.8011  -1.7976  -1.7765
    -1.7757  -1.7474  -1.7470  -1.7188  -1.7161  -1.7056  -1.6973  -1.6798
    -1.6784  -1.6756  -1.6583  -1.6449  -1.6445  -1.6378  -1.6371  -1.6124
    -1.6111  -1.5958  -1.5930  -1.5617  -1.5598  -1.5527  -1.5037  -1.5006
    -1.4892  -1.4868  -1.4858  -1.4613  -1.4588  -1.4272  -1.4260  -1.4246
    -1.3937  -1.3827  -1.3806  -1.3655  -1.3645  -1.3423  -1.3376  -1.3364
    -1.3083  -1.3049  -1.3046  -1.2440  -1.2411  -1.2311  -1.2280  -1.2149
    -1.2118  -1.2003  -1.1994  -1.1814  -1.1685  -1.1437  -1.1396  -1.1291
    -1.1032  -1.0916  -1.0901  -1.0799  -1.0784  -1.0769  -1.0726  -1.0716
    -1.0569  -1.0310  -1.0273  -1.0169  -1.0152  -1.0136  -1.0126  -0.9917
    -0.9744  -0.9706  -0.9524  -0.9491  -0.8617  -0.8463  -0.8428  -0.8394
    -0.8374  -0.8331  -0.8285  -0.8149  -0.8052  -0.7912  -0.7879  -0.7752
    -0.7737  -0.7661  -0.7510  -0.7452  -0.7414  -0.7338  -0.6917  -0.6604
    -0.6581  -0.6272  -0.6232  -0.6217  -0.6154  -0.6136  -0.6131  -0.6094
    -0.6010  -0.5952  -0.5807  -0.5587  -0.5428  -0.5258  -0.5244  -0.5146
    -0.5134  -0.5028  -0.5006  -0.4998  -0.4979  -0.4963  -0.4809  -0.4762
    -0.4759  -0.4460  -0.4445  -0.4430  -0.4312  -0.4310  -0.4118  -0.3803
    -0.3797  -0.3707  -0.3700  -0.3030  -0.3020  -0.2663  -0.2652  -0.2083
    -0.2072  -0.2057  -0.1909  -0.1802   0.0474   0.0520   0.3939   0.3941
     0.4853   0.4907   0.6814   0.6993   0.7120   0.8411   0.8435   1.2740
     1.2745   1.2925   1.5539   1.5841   1.5847   1.8617   1.8685   1.9386
     1.9407   1.9660   1.9722   2.1950   2.1972   2.2851   2.2860   2.3652
     2.4242   2.4319   2.5890   2.6883   3.1238   3.1279   3.1306   3.1326
     3.1835   3.1872   3.4776   3.4788   3.7577   3.7643   3.8724   4.1748
     4.2127   4.2193   4.4337   4.4605   4.5156   4.5189   4.6082   4.7262
     4.7296   4.8428   4.8455   5.1456   5.2131   5.2190   5.3477   5.4086
     5.4467   5.6033   5.6071   5.6310   5.6340   5.6918   5.6970   5.7413
     5.8552   6.0694   6.2803   6.3023   6.3690   6.4329   6.4389   6.4487
     6.4535   6.5244   6.6400   6.6877   6.6970   6.8516   6.9195   6.9411
     6.9508   7.0200   7.0841

          k =-0.2500-0.4330 0.1111 (136853 PWs)   bands (ev):

   -18.7160  -6.7094  -6.3456  -5.9484  -5.9474  -5.2697  -4.9376  -4.9373
    -4.8981  -4.8969  -4.5376  -4.5370  -4.4388  -4.4385  -4.4247  -4.4023
    -4.3791  -4.2719  -4.2703  -4.2468  -4.2036  -4.2034  -4.1349  -4.1343
    -4.1276  -4.1274  -4.1065  -4.1010  -4.0998  -4.0316  -4.0269  -3.9987
    -3.9976  -3.9860  -3.9856  -3.9626  -3.9624  -3.9399  -3.9319  -3.9315
    -3.9049  -3.8530  -3.8526  -3.8050  -3.8040  -3.7468  -3.7456  -3.6915
    -3.6905  -3.6902  -3.6900  -3.6547  -3.6187  -3.6164  -3.6097  -3.6081
    -3.6073  -3.5792  -3.5766  -3.5690  -3.5084  -3.5076  -3.4997  -3.4806
    -3.4735  -3.4015  -3.4007  -3.3710  -3.3666  -3.3412  -3.3397  -3.3258
    -3.3092  -3.2515  -3.2492  -3.2329  -3.2313  -3.1843  -3.1791  -3.1754
    -3.1367  -3.1093  -3.1047  -3.0972  -3.0964  -3.0900  -3.0839  -3.0769
    -3.0752  -3.0661  -3.0251  -2.9872  -2.9857  -2.9743  -2.9720  -2.9467
    -2.9382  -2.9360  -2.9152  -2.8751  -2.8690  -2.8636  -2.8347  -2.8199
    -2.8138  -2.8029  -2.8013  -2.7746  -2.7686  -2.7430  -2.7078  -2.7004
    -2.6856  -2.6767  -2.6631  -2.6585  -2.6139  -2.6116  -2.5797  -2.5570
    -2.5557  -2.5334  -2.5318  -2.5213  -2.5202  -2.5105  -2.4886  -2.4876
    -2.4429  -2.4426  -2.4411  -2.4260  -2.4246  -2.4183  -2.4109  -2.4090
    -2.4074  -2.4063  -2.4006  -2.3907  -2.3881  -2.3775  -2.3547  -2.3510
    -2.3501  -2.3486  -2.3470  -2.3452  -2.3447  -2.3187  -2.3158  -2.3021
    -2.3000  -2.2824  -2.2823  -2.2738  -2.2727  -2.2711  -2.2696  -2.2525
    -2.2506  -2.2493  -2.2473  -2.2325  -2.2052  -2.2051  -2.1646  -2.1641
    -2.1410  -2.1397  -2.1124  -2.1116  -2.0862  -2.0835  -2.0678  -2.0626
    -2.0354  -2.0183  -2.0131  -2.0084  -2.0061  -2.0030  -1.9966  -1.9947
    -1.9691  -1.9637  -1.9557  -1.8971  -1.8938  -1.8914  -1.8900  -1.8877
    -1.8541  -1.8336  -1.8326  -1.8064  -1.8044  -1.7468  -1.7450  -1.7156
    -1.6980  -1.6962  -1.6377  -1.6359  -1.6264  -1.6231  -1.6141  -1.6122
    -1.6086  -1.6021  -1.5985  -1.5488  -1.5421  -1.5338  -1.5308  -1.5301
    -1.5156  -1.5104  -1.4775  -1.4757  -1.4612  -1.4590  -1.4577  -1.4512
    -1.4464  -1.4393  -1.4354  -1.4183  -1.4162  -1.3807  -1.3738  -1.3667
    -1.3629  -1.3445  -1.3292  -1.2899  -1.2862  -1.2608  -1.2569  -1.2553
    -1.2267  -1.1805  -1.1735  -1.1730  -1.1718  -1.1678  -1.1662  -1.1573
    -1.1409  -1.1376  -1.1008  -1.0964  -1.0698  -1.0664  -1.0635  -1.0603
    -1.0546  -1.0412  -1.0372  -1.0361  -1.0343  -1.0314  -0.9980  -0.9950
    -0.9930  -0.9919  -0.9671  -0.9625  -0.9579  -0.9340  -0.9292  -0.9252
    -0.8831  -0.8742  -0.8717  -0.8389  -0.8303  -0.8200  -0.8176  -0.8166
    -0.8102  -0.8088  -0.8072  -0.7993  -0.7949  -0.7720  -0.7704  -0.7684
    -0.7662  -0.7630  -0.7451  -0.7272  -0.7266  -0.7156  -0.7034  -0.6965
    -0.6918  -0.6811  -0.6630  -0.6255  -0.6236  -0.6156  -0.6142  -0.6132
    -0.6092  -0.6021  -0.5893  -0.5859  -0.5792  -0.5782  -0.5765  -0.5718
    -0.5375  -0.5352  -0.5343  -0.5271  -0.5256  -0.5203  -0.5192  -0.5062
    -0.5035  -0.5000  -0.4981  -0.4585  -0.4567  -0.4495  -0.4453  -0.4444
    -0.3698  -0.3662  -0.3649  -0.3642  -0.3558  -0.3545  -0.3191  -0.3071
    -0.3058  -0.2751  -0.2740  -0.2720  -0.1545  -0.1500  -0.0504   0.3648
     0.3657   0.3691   0.3696   0.4315   0.4336   0.8179   0.8191   0.8605
     0.8622   0.9749   1.0514   1.1609   1.1652   1.3853   1.3907   2.0152
     2.0177   2.1767   2.1803   2.3115   2.3143   2.4144   2.4148   2.5687
     2.8061   2.8195   2.9310   3.1541   3.1586   3.2362   3.2383   3.3380
     3.3537   3.5529   3.5654   3.6094   3.8096   3.8123   3.8709   3.8770
     4.1289   4.1379   4.1414   4.3801   4.4195   4.4241   4.4681   4.7995
     4.8063   4.8321   4.9649   5.1399   5.1431   5.1941   5.2219   5.5131
     5.8064   5.9207   5.9312   5.9380   5.9413   5.9993   6.0058   6.0842
     6.1126   6.1359   6.1431   6.1687   6.1724   6.1928   6.2039   6.2248
     6.2308   6.4303   6.5780   6.6870   6.7592   6.8012   6.8676   6.8798
     6.8868   6.9967   7.0234

          k =-0.2500 0.4330-0.1111 (136853 PWs)   bands (ev):

   -18.7160  -6.7094  -6.3456  -5.9494  -5.9464  -5.2697  -4.9381  -4.9369
    -4.8994  -4.8956  -4.5379  -4.5366  -4.4390  -4.4383  -4.4245  -4.4023
    -4.3791  -4.2718  -4.2706  -4.2469  -4.2037  -4.2034  -4.1349  -4.1343
    -4.1277  -4.1273  -4.1064  -4.1023  -4.0986  -4.0323  -4.0263  -3.9990
    -3.9970  -3.9861  -3.9854  -3.9626  -3.9624  -3.9399  -3.9319  -3.9314
    -3.9051  -3.8532  -3.8525  -3.8055  -3.8034  -3.7468  -3.7457  -3.6918
    -3.6905  -3.6901  -3.6899  -3.6549  -3.6189  -3.6165  -3.6095  -3.6083
    -3.6073  -3.5795  -3.5764  -3.5687  -3.5085  -3.5077  -3.4995  -3.4805
    -3.4732  -3.4020  -3.4004  -3.3707  -3.3665  -3.3409  -3.3398  -3.3257
    -3.3093  -3.2520  -3.2493  -3.2324  -3.2314  -3.1847  -3.1789  -3.1754
    -3.1366  -3.1097  -3.1045  -3.0975  -3.0959  -3.0895  -3.0837  -3.0773
    -3.0753  -3.0662  -3.0249  -2.9877  -2.9854  -2.9739  -2.9722  -2.9466
    -2.9384  -2.9359  -2.9152  -2.8764  -2.8686  -2.8645  -2.8341  -2.8199
    -2.8138  -2.8031  -2.8008  -2.7742  -2.7678  -2.7431  -2.7077  -2.7002
    -2.6857  -2.6768  -2.6632  -2.6590  -2.6139  -2.6116  -2.5795  -2.5572
    -2.5559  -2.5334  -2.5319  -2.5209  -2.5205  -2.5106  -2.4888  -2.4875
    -2.4428  -2.4422  -2.4412  -2.4261  -2.4246  -2.4185  -2.4109  -2.4088
    -2.4075  -2.4065  -2.4005  -2.3899  -2.3885  -2.3781  -2.3547  -2.3507
    -2.3498  -2.3488  -2.3472  -2.3452  -2.3443  -2.3188  -2.3159  -2.3021
    -2.2998  -2.2828  -2.2820  -2.2736  -2.2726  -2.2710  -2.2699  -2.2528
    -2.2503  -2.2499  -2.2469  -2.2325  -2.2057  -2.2050  -2.1651  -2.1638
    -2.1412  -2.1396  -2.1123  -2.1114  -2.0861  -2.0832  -2.0677  -2.0625
    -2.0352  -2.0179  -2.0130  -2.0084  -2.0061  -2.0032  -1.9964  -1.9948
    -1.9690  -1.9634  -1.9557  -1.8975  -1.8941  -1.8918  -1.8899  -1.8880
    -1.8543  -1.8342  -1.8319  -1.8065  -1.8044  -1.7469  -1.7448  -1.7160
    -1.6976  -1.6963  -1.6375  -1.6359  -1.6264  -1.6230  -1.6139  -1.6124
    -1.6088  -1.6023  -1.5986  -1.5490  -1.5420  -1.5342  -1.5309  -1.5304
    -1.5154  -1.5104  -1.4774  -1.4758  -1.4611  -1.4593  -1.4575  -1.4508
    -1.4465  -1.4392  -1.4357  -1.4185  -1.4157  -1.3802  -1.3741  -1.3670
    -1.3629  -1.3445  -1.3292  -1.2894  -1.2865  -1.2611  -1.2570  -1.2551
    -1.2269  -1.1800  -1.1737  -1.1733  -1.1717  -1.1680  -1.1660  -1.1572
    -1.1407  -1.1375  -1.1006  -1.0967  -1.0703  -1.0665  -1.0635  -1.0601
    -1.0545  -1.0415  -1.0370  -1.0361  -1.0337  -1.0312  -0.9982  -0.9948
    -0.9930  -0.9921  -0.9673  -0.9619  -0.9580  -0.9344  -0.9302  -0.9246
    -0.8844  -0.8746  -0.8716  -0.8383  -0.8315  -0.8199  -0.8172  -0.8130
    -0.8112  -0.8091  -0.8067  -0.7985  -0.7950  -0.7727  -0.7707  -0.7668
    -0.7664  -0.7631  -0.7451  -0.7274  -0.7266  -0.7155  -0.7018  -0.6971
    -0.6922  -0.6809  -0.6663  -0.6249  -0.6245  -0.6155  -0.6140  -0.6124
    -0.6083  -0.6040  -0.5887  -0.5865  -0.5796  -0.5779  -0.5765  -0.5707
    -0.5374  -0.5355  -0.5344  -0.5263  -0.5259  -0.5195  -0.5191  -0.5067
    -0.5035  -0.5004  -0.4986  -0.4580  -0.4572  -0.4496  -0.4452  -0.4443
    -0.3700  -0.3661  -0.3650  -0.3643  -0.3557  -0.3548  -0.3191  -0.3071
    -0.3058  -0.2768  -0.2740  -0.2699  -0.1548  -0.1495  -0.0503   0.3649
     0.3656   0.3689   0.3697   0.4308   0.4344   0.8172   0.8196   0.8604
     0.8624   0.9750   1.0513   1.1599   1.1661   1.3837   1.3922   2.0149
     2.0180   2.1760   2.1812   2.3109   2.3150   2.4143   2.4149   2.5686
     2.8058   2.8200   2.9308   3.1525   3.1596   3.2359   3.2390   3.3376
     3.3537   3.5507   3.5675   3.6101   3.8096   3.8123   3.8711   3.8775
     4.1284   4.1369   4.1420   4.3807   4.4191   4.4242   4.4681   4.7996
     4.8064   4.8306   4.9658   5.1403   5.1431   5.1927   5.2234   5.5129
     5.8085   5.9217   5.9309   5.9375   5.9404   5.9991   6.0060   6.0843
     6.1137   6.1350   6.1433   6.1669   6.1746   6.1912   6.2039   6.2249
     6.2315   6.4313   6.5753   6.6873   6.7596   6.7998   6.8661   6.8804
     6.8869   6.9959   7.0264

          k = 0.2500-0.4330-0.1111 (136853 PWs)   bands (ev):

   -18.7160  -6.7094  -6.3456  -5.9494  -5.9464  -5.2697  -4.9381  -4.9369
    -4.8994  -4.8956  -4.5379  -4.5366  -4.4390  -4.4383  -4.4245  -4.4023
    -4.3791  -4.2718  -4.2706  -4.2469  -4.2037  -4.2034  -4.1349  -4.1343
    -4.1277  -4.1273  -4.1064  -4.1023  -4.0986  -4.0323  -4.0263  -3.9990
    -3.9970  -3.9861  -3.9854  -3.9626  -3.9624  -3.9399  -3.9319  -3.9314
    -3.9051  -3.8532  -3.8525  -3.8055  -3.8034  -3.7468  -3.7457  -3.6918
    -3.6905  -3.6901  -3.6899  -3.6549  -3.6189  -3.6165  -3.6095  -3.6083
    -3.6073  -3.5795  -3.5764  -3.5687  -3.5085  -3.5077  -3.4995  -3.4805
    -3.4732  -3.4020  -3.4004  -3.3707  -3.3665  -3.3409  -3.3398  -3.3257
    -3.3093  -3.2520  -3.2493  -3.2324  -3.2314  -3.1847  -3.1789  -3.1754
    -3.1366  -3.1097  -3.1045  -3.0975  -3.0959  -3.0895  -3.0837  -3.0773
    -3.0753  -3.0662  -3.0249  -2.9877  -2.9854  -2.9739  -2.9722  -2.9466
    -2.9384  -2.9359  -2.9152  -2.8764  -2.8686  -2.8645  -2.8341  -2.8199
    -2.8138  -2.8031  -2.8008  -2.7742  -2.7678  -2.7431  -2.7077  -2.7002
    -2.6857  -2.6768  -2.6632  -2.6590  -2.6139  -2.6116  -2.5795  -2.5572
    -2.5559  -2.5334  -2.5319  -2.5209  -2.5205  -2.5106  -2.4888  -2.4875
    -2.4428  -2.4422  -2.4412  -2.4261  -2.4246  -2.4185  -2.4109  -2.4088
    -2.4075  -2.4065  -2.4005  -2.3899  -2.3885  -2.3781  -2.3547  -2.3507
    -2.3498  -2.3488  -2.3472  -2.3452  -2.3443  -2.3188  -2.3159  -2.3021
    -2.2998  -2.2828  -2.2820  -2.2736  -2.2726  -2.2710  -2.2699  -2.2528
    -2.2503  -2.2499  -2.2469  -2.2325  -2.2057  -2.2050  -2.1651  -2.1638
    -2.1412  -2.1396  -2.1123  -2.1114  -2.0861  -2.0832  -2.0677  -2.0625
    -2.0352  -2.0179  -2.0130  -2.0084  -2.0061  -2.0032  -1.9964  -1.9948
    -1.9690  -1.9634  -1.9557  -1.8975  -1.8941  -1.8918  -1.8899  -1.8880
    -1.8543  -1.8342  -1.8319  -1.8065  -1.8044  -1.7469  -1.7448  -1.7160
    -1.6976  -1.6963  -1.6375  -1.6359  -1.6264  -1.6230  -1.6139  -1.6124
    -1.6088  -1.6023  -1.5986  -1.5490  -1.5420  -1.5342  -1.5309  -1.5304
    -1.5154  -1.5104  -1.4774  -1.4758  -1.4611  -1.4593  -1.4575  -1.4508
    -1.4465  -1.4392  -1.4357  -1.4185  -1.4157  -1.3802  -1.3740  -1.3670
    -1.3629  -1.3445  -1.3292  -1.2894  -1.2865  -1.2611  -1.2570  -1.2551
    -1.2269  -1.1800  -1.1737  -1.1733  -1.1717  -1.1680  -1.1660  -1.1572
    -1.1407  -1.1375  -1.1006  -1.0967  -1.0703  -1.0665  -1.0635  -1.0601
    -1.0545  -1.0415  -1.0370  -1.0361  -1.0337  -1.0312  -0.9982  -0.9948
    -0.9930  -0.9921  -0.9673  -0.9619  -0.9580  -0.9344  -0.9302  -0.9246
    -0.8844  -0.8746  -0.8716  -0.8383  -0.8315  -0.8199  -0.8172  -0.8130
    -0.8112  -0.8091  -0.8067  -0.7985  -0.7950  -0.7727  -0.7707  -0.7668
    -0.7664  -0.7631  -0.7451  -0.7274  -0.7266  -0.7155  -0.7018  -0.6971
    -0.6922  -0.6809  -0.6663  -0.6249  -0.6245  -0.6155  -0.6140  -0.6124
    -0.6083  -0.6040  -0.5887  -0.5865  -0.5796  -0.5779  -0.5764  -0.5707
    -0.5374  -0.5355  -0.5344  -0.5263  -0.5259  -0.5195  -0.5191  -0.5067
    -0.5035  -0.5004  -0.4986  -0.4580  -0.4572  -0.4496  -0.4452  -0.4443
    -0.3700  -0.3661  -0.3650  -0.3643  -0.3557  -0.3548  -0.3191  -0.3071
    -0.3058  -0.2768  -0.2740  -0.2699  -0.1548  -0.1495  -0.0503   0.3649
     0.3656   0.3689   0.3697   0.4308   0.4344   0.8172   0.8196   0.8604
     0.8624   0.9750   1.0513   1.1599   1.1661   1.3837   1.3922   2.0149
     2.0180   2.1760   2.1812   2.3109   2.3150   2.4143   2.4149   2.5686
     2.8058   2.8200   2.9308   3.1525   3.1596   3.2359   3.2390   3.3376
     3.3537   3.5507   3.5675   3.6101   3.8096   3.8123   3.8711   3.8775
     4.1284   4.1369   4.1420   4.3807   4.4191   4.4242   4.4681   4.7996
     4.8064   4.8306   4.9658   5.1403   5.1431   5.1927   5.2234   5.5128
     5.8094   5.9218   5.9310   5.9375   5.9404   5.9991   6.0061   6.0845
     6.1136   6.1338   6.1404   6.1669   6.1742   6.1915   6.2047   6.2249
     6.2313   6.4299   6.5745   6.7059   6.7590   6.8014   6.8663   6.8805
     6.8875   6.9949   7.0047

          k = 0.5000 0.0000 0.1111 (136853 PWs)   bands (ev):

   -18.7160  -6.7094  -6.3455  -5.9489  -5.9470  -5.2697  -4.9387  -4.9363
    -4.8994  -4.8955  -4.5383  -4.5362  -4.4388  -4.4386  -4.4244  -4.4022
    -4.3791  -4.2719  -4.2705  -4.2469  -4.2039  -4.2032  -4.1350  -4.1341
    -4.1285  -4.1265  -4.1064  -4.1026  -4.0983  -4.0330  -4.0256  -3.9995
    -3.9965  -3.9861  -3.9854  -3.9625  -3.9624  -3.9400  -3.9317  -3.9315
    -3.9051  -3.8530  -3.8527  -3.8060  -3.8031  -3.7468  -3.7459  -3.6909
    -3.6908  -3.6903  -3.6901  -3.6548  -3.6180  -3.6176  -3.6093  -3.6080
    -3.6075  -3.5789  -3.5763  -3.5690  -3.5084  -3.5080  -3.4992  -3.4804
    -3.4733  -3.4023  -3.4003  -3.3699  -3.3670  -3.3416  -3.3390  -3.3258
    -3.3092  -3.2519  -3.2496  -3.2331  -3.2310  -3.1874  -3.1766  -3.1758
    -3.1361  -3.1136  -3.1042  -3.0970  -3.0959  -3.0858  -3.0839  -3.0766
    -3.0752  -3.0664  -3.0246  -2.9878  -2.9852  -2.9736  -2.9722  -2.9455
    -2.9395  -2.9368  -2.9145  -2.8816  -2.8693  -2.8653  -2.8310  -2.8217
    -2.8142  -2.8032  -2.8010  -2.7736  -2.7583  -2.7436  -2.7081  -2.7005
    -2.6857  -2.6769  -2.6644  -2.6624  -2.6135  -2.6117  -2.5791  -2.5580
    -2.5564  -2.5322  -2.5314  -2.5209  -2.5197  -2.5109  -2.4877  -2.4872
    -2.4431  -2.4420  -2.4413  -2.4258  -2.4247  -2.4184  -2.4108  -2.4093
    -2.4071  -2.4059  -2.4005  -2.3916  -2.3878  -2.3823  -2.3550  -2.3505
    -2.3500  -2.3491  -2.3479  -2.3456  -2.3428  -2.3174  -2.3159  -2.3009
    -2.2993  -2.2827  -2.2820  -2.2741  -2.2725  -2.2716  -2.2686  -2.2530
    -2.2517  -2.2494  -2.2462  -2.2326  -2.2056  -2.2051  -2.1651  -2.1637
    -2.1410  -2.1400  -2.1131  -2.1117  -2.0849  -2.0831  -2.0666  -2.0626
    -2.0359  -2.0178  -2.0131  -2.0082  -2.0067  -2.0027  -1.9965  -1.9943
    -1.9693  -1.9629  -1.9556  -1.8985  -1.8942  -1.8924  -1.8894  -1.8875
    -1.8566  -1.8345  -1.8317  -1.8064  -1.8045  -1.7471  -1.7444  -1.7163
    -1.6971  -1.6962  -1.6381  -1.6351  -1.6261  -1.6233  -1.6142  -1.6121
    -1.6087  -1.6021  -1.5985  -1.5451  -1.5419  -1.5367  -1.5307  -1.5303
    -1.5132  -1.5099  -1.4803  -1.4762  -1.4598  -1.4589  -1.4580  -1.4511
    -1.4481  -1.4400  -1.4356  -1.4174  -1.4169  -1.3775  -1.3761  -1.3655
    -1.3624  -1.3444  -1.3293  -1.2914  -1.2859  -1.2622  -1.2576  -1.2557
    -1.2265  -1.1783  -1.1739  -1.1728  -1.1719  -1.1685  -1.1658  -1.1566
    -1.1403  -1.1378  -1.1020  -1.0960  -1.0720  -1.0672  -1.0617  -1.0610
    -1.0547  -1.0405  -1.0387  -1.0359  -1.0333  -1.0317  -0.9996  -0.9937
    -0.9925  -0.9920  -0.9628  -0.9614  -0.9575  -0.9370  -0.9284  -0.9241
    -0.8842  -0.8775  -0.8707  -0.8392  -0.8319  -0.8209  -0.8172  -0.8113
    -0.8098  -0.8088  -0.8068  -0.8026  -0.7954  -0.7722  -0.7705  -0.7670
    -0.7648  -0.7643  -0.7385  -0.7273  -0.7265  -0.7159  -0.7095  -0.6964
    -0.6931  -0.6810  -0.6623  -0.6249  -0.6232  -0.6167  -0.6137  -0.6126
    -0.6091  -0.6070  -0.5892  -0.5870  -0.5789  -0.5782  -0.5766  -0.5718
    -0.5387  -0.5350  -0.5341  -0.5272  -0.5255  -0.5209  -0.5182  -0.5061
    -0.5018  -0.4996  -0.4987  -0.4579  -0.4574  -0.4496  -0.4456  -0.4441
    -0.3695  -0.3663  -0.3645  -0.3641  -0.3554  -0.3548  -0.3189  -0.3067
    -0.3061  -0.2767  -0.2738  -0.2711  -0.1525  -0.1493  -0.0490   0.3649
     0.3654   0.3692   0.3695   0.4307   0.4328   0.8156   0.8198   0.8602
     0.8628   0.9755   1.0523   1.1594   1.1680   1.3810   1.3946   2.0142
     2.0178   2.1758   2.1817   2.3103   2.3157   2.4138   2.4154   2.5685
     2.8049   2.8209   2.9302   3.1501   3.1607   3.2356   3.2396   3.3359
     3.3539   3.5444   3.5733   3.6086   3.8099   3.8124   3.8746   3.8766
     4.1301   4.1354   4.1418   4.3805   4.4213   4.4247   4.4665   4.7973
     4.8072   4.8333   4.9686   5.1413   5.1436   5.1919   5.2273   5.5155
     5.7954   5.9212   5.9285   5.9396   5.9499   5.9978   6.0056   6.0797
     6.1146   6.1301   6.1406   6.1667   6.1737   6.1839   6.2091   6.2280
     6.2322   6.4288   6.5835   6.6932   6.7622   6.8134   6.8738   6.8783
     6.8820   6.9928   7.0142

          k =-0.5000 0.0000 0.1111 (136853 PWs)   bands (ev):

   -18.7160  -6.7094  -6.3455  -5.9489  -5.9470  -5.2697  -4.9387  -4.9363
    -4.8994  -4.8955  -4.5383  -4.5362  -4.4388  -4.4386  -4.4244  -4.4022
    -4.3791  -4.2719  -4.2705  -4.2469  -4.2039  -4.2032  -4.1350  -4.1341
    -4.1285  -4.1265  -4.1064  -4.1026  -4.0983  -4.0330  -4.0256  -3.9995
    -3.9965  -3.9861  -3.9854  -3.9625  -3.9624  -3.9400  -3.9317  -3.9315
    -3.9051  -3.8530  -3.8527  -3.8060  -3.8031  -3.7468  -3.7459  -3.6909
    -3.6908  -3.6903  -3.6901  -3.6548  -3.6180  -3.6176  -3.6093  -3.6080
    -3.6075  -3.5789  -3.5763  -3.5690  -3.5084  -3.5080  -3.4992  -3.4804
    -3.4733  -3.4023  -3.4003  -3.3699  -3.3670  -3.3416  -3.3390  -3.3258
    -3.3092  -3.2519  -3.2496  -3.2331  -3.2310  -3.1874  -3.1766  -3.1758
    -3.1361  -3.1136  -3.1042  -3.0970  -3.0959  -3.0858  -3.0838  -3.0766
    -3.0752  -3.0664  -3.0246  -2.9878  -2.9852  -2.9736  -2.9722  -2.9455
    -2.9395  -2.9368  -2.9145  -2.8816  -2.8693  -2.8653  -2.8310  -2.8217
    -2.8142  -2.8032  -2.8010  -2.7736  -2.7583  -2.7436  -2.7081  -2.7005
    -2.6857  -2.6769  -2.6644  -2.6624  -2.6135  -2.6117  -2.5791  -2.5580
    -2.5564  -2.5322  -2.5314  -2.5209  -2.5197  -2.5109  -2.4877  -2.4872
    -2.4431  -2.4420  -2.4413  -2.4258  -2.4247  -2.4184  -2.4108  -2.4093
    -2.4071  -2.4059  -2.4005  -2.3916  -2.3878  -2.3823  -2.3550  -2.3505
    -2.3500  -2.3491  -2.3479  -2.3456  -2.3428  -2.3174  -2.3159  -2.3009
    -2.2993  -2.2827  -2.2820  -2.2741  -2.2725  -2.2716  -2.2686  -2.2530
    -2.2517  -2.2494  -2.2462  -2.2326  -2.2056  -2.2051  -2.1651  -2.1637
    -2.1410  -2.1400  -2.1131  -2.1117  -2.0849  -2.0831  -2.0666  -2.0626
    -2.0359  -2.0178  -2.0131  -2.0082  -2.0067  -2.0027  -1.9965  -1.9943
    -1.9693  -1.9629  -1.9556  -1.8985  -1.8942  -1.8924  -1.8894  -1.8875
    -1.8566  -1.8345  -1.8317  -1.8064  -1.8045  -1.7471  -1.7444  -1.7163
    -1.6971  -1.6962  -1.6381  -1.6351  -1.6261  -1.6233  -1.6142  -1.6121
    -1.6087  -1.6021  -1.5985  -1.5451  -1.5419  -1.5367  -1.5307  -1.5303
    -1.5132  -1.5099  -1.4803  -1.4762  -1.4598  -1.4589  -1.4580  -1.4511
    -1.4481  -1.4400  -1.4356  -1.4174  -1.4169  -1.3775  -1.3761  -1.3655
    -1.3624  -1.3444  -1.3293  -1.2914  -1.2859  -1.2622  -1.2576  -1.2557
    -1.2265  -1.1783  -1.1739  -1.1728  -1.1719  -1.1685  -1.1658  -1.1566
    -1.1403  -1.1378  -1.1020  -1.0960  -1.0720  -1.0672  -1.0617  -1.0610
    -1.0547  -1.0405  -1.0387  -1.0359  -1.0333  -1.0317  -0.9996  -0.9937
    -0.9925  -0.9920  -0.9628  -0.9614  -0.9575  -0.9370  -0.9284  -0.9241
    -0.8842  -0.8775  -0.8707  -0.8392  -0.8319  -0.8209  -0.8172  -0.8113
    -0.8098  -0.8088  -0.8068  -0.8026  -0.7954  -0.7722  -0.7705  -0.7670
    -0.7648  -0.7643  -0.7385  -0.7273  -0.7265  -0.7159  -0.7095  -0.6964
    -0.6931  -0.6810  -0.6623  -0.6249  -0.6232  -0.6167  -0.6137  -0.6126
    -0.6091  -0.6070  -0.5892  -0.5870  -0.5789  -0.5782  -0.5766  -0.5718
    -0.5387  -0.5350  -0.5341  -0.5272  -0.5255  -0.5209  -0.5182  -0.5061
    -0.5018  -0.4996  -0.4987  -0.4579  -0.4574  -0.4496  -0.4456  -0.4441
    -0.3695  -0.3663  -0.3645  -0.3641  -0.3554  -0.3548  -0.3189  -0.3067
    -0.3061  -0.2767  -0.2738  -0.2711  -0.1525  -0.1493  -0.0490   0.3649
     0.3654   0.3692   0.3695   0.4307   0.4328   0.8156   0.8198   0.8602
     0.8628   0.9755   1.0523   1.1594   1.1680   1.3810   1.3946   2.0142
     2.0178   2.1758   2.1817   2.3103   2.3157   2.4138   2.4154   2.5685
     2.8049   2.8209   2.9302   3.1501   3.1607   3.2356   3.2396   3.3359
     3.3539   3.5444   3.5733   3.6086   3.8099   3.8124   3.8746   3.8766
     4.1301   4.1354   4.1418   4.3805   4.4213   4.4247   4.4665   4.7973
     4.8072   4.8333   4.9686   5.1413   5.1436   5.1919   5.2273   5.5155
     5.7953   5.9212   5.9285   5.9396   5.9499   5.9978   6.0056   6.0797
     6.1145   6.1304   6.1406   6.1667   6.1737   6.1837   6.2091   6.2280
     6.2322   6.4289   6.5833   6.6924   6.7625   6.8142   6.8739   6.8785
     6.8821   6.9930   7.0144

          k =-0.2500 0.1443 0.1111 (136898 PWs)   bands (ev):

   -18.7160  -6.7132  -6.5511  -5.7655  -5.4731  -5.4159  -5.4151  -4.8775
    -4.8773  -4.7455  -4.7450  -4.5902  -4.5610  -4.4979  -4.4646  -4.4632
    -4.4310  -4.4307  -4.3025  -4.2607  -4.2606  -4.2007  -4.1796  -4.1792
    -4.0773  -4.0771  -4.0409  -4.0407  -4.0406  -4.0141  -3.9924  -3.9920
    -3.8885  -3.8853  -3.8849  -3.8648  -3.8476  -3.8473  -3.8357  -3.8350
    -3.8227  -3.7921  -3.7919  -3.7912  -3.7909  -3.7595  -3.7588  -3.7411
    -3.7407  -3.7291  -3.6873  -3.6839  -3.6529  -3.6392  -3.6374  -3.6324
    -3.6322  -3.5581  -3.5578  -3.5242  -3.5209  -3.5197  -3.4528  -3.4521
    -3.4369  -3.4366  -3.4077  -3.4067  -3.4054  -3.4050  -3.2523  -3.2507
    -3.2332  -3.2266  -3.2220  -3.2050  -3.2044  -3.1797  -3.1786  -3.1291
    -3.1287  -3.1139  -3.1123  -3.0921  -3.0509  -3.0436  -3.0252  -3.0202
    -3.0189  -2.9816  -2.9783  -2.9719  -2.9701  -2.9564  -2.9542  -2.9171
    -2.9153  -2.9040  -2.8928  -2.8907  -2.8898  -2.8860  -2.8378  -2.8106
    -2.8082  -2.8016  -2.7788  -2.7773  -2.7174  -2.7082  -2.6887  -2.6869
    -2.6751  -2.6734  -2.6680  -2.6398  -2.6376  -2.6292  -2.6122  -2.5881
    -2.5857  -2.5825  -2.5659  -2.5643  -2.5544  -2.5529  -2.5510  -2.5478
    -2.5413  -2.4956  -2.4646  -2.4629  -2.4482  -2.4346  -2.4288  -2.4270
    -2.4208  -2.4194  -2.4177  -2.3889  -2.3882  -2.3868  -2.3784  -2.3777
    -2.3620  -2.3352  -2.3338  -2.3332  -2.3322  -2.3317  -2.2859  -2.2558
    -2.2554  -2.2538  -2.2480  -2.2383  -2.2273  -2.2253  -2.2089  -2.2086
    -2.1782  -2.1744  -2.1739  -2.1565  -2.1555  -2.1531  -2.1235  -2.1205
    -2.0828  -2.0778  -2.0732  -2.0708  -2.0696  -2.0646  -2.0633  -2.0607
    -2.0598  -2.0561  -2.0517  -2.0386  -2.0358  -1.9133  -1.9084  -1.8787
    -1.8728  -1.8695  -1.8642  -1.8640  -1.8489  -1.8470  -1.8455  -1.8437
    -1.8415  -1.8194  -1.8145  -1.8109  -1.8051  -1.8011  -1.7976  -1.7765
    -1.7757  -1.7474  -1.7470  -1.7188  -1.7161  -1.7056  -1.6973  -1.6798
    -1.6784  -1.6756  -1.6583  -1.6449  -1.6445  -1.6378  -1.6371  -1.6124
    -1.6111  -1.5958  -1.5930  -1.5617  -1.5598  -1.5527  -1.5037  -1.5006
    -1.4892  -1.4868  -1.4858  -1.4613  -1.4588  -1.4272  -1.4260  -1.4246
    -1.3937  -1.3827  -1.3806  -1.3655  -1.3645  -1.3423  -1.3376  -1.3364
    -1.3083  -1.3049  -1.3046  -1.2440  -1.2411  -1.2311  -1.2280  -1.2148
    -1.2118  -1.2004  -1.1994  -1.1814  -1.1685  -1.1437  -1.1396  -1.1291
    -1.1032  -1.0916  -1.0901  -1.0799  -1.0784  -1.0769  -1.0726  -1.0716
    -1.0569  -1.0310  -1.0273  -1.0169  -1.0152  -1.0136  -1.0126  -0.9917
    -0.9744  -0.9706  -0.9524  -0.9491  -0.8617  -0.8463  -0.8428  -0.8394
    -0.8374  -0.8331  -0.8285  -0.8149  -0.8052  -0.7912  -0.7879  -0.7752
    -0.7737  -0.7661  -0.7510  -0.7452  -0.7414  -0.7338  -0.6917  -0.6604
    -0.6581  -0.6272  -0.6232  -0.6217  -0.6154  -0.6136  -0.6131  -0.6094
    -0.6010  -0.5952  -0.5807  -0.5587  -0.5428  -0.5258  -0.5244  -0.5146
    -0.5134  -0.5028  -0.5006  -0.4998  -0.4979  -0.4963  -0.4809  -0.4762
    -0.4759  -0.4460  -0.4445  -0.4430  -0.4312  -0.4310  -0.4118  -0.3803
    -0.3797  -0.3707  -0.3700  -0.3030  -0.3020  -0.2663  -0.2652  -0.2083
    -0.2072  -0.2057  -0.1909  -0.1802   0.0474   0.0520   0.3939   0.3941
     0.4853   0.4907   0.6814   0.6993   0.7120   0.8411   0.8435   1.2740
     1.2745   1.2925   1.5539   1.5841   1.5847   1.8617   1.8685   1.9386
     1.9407   1.9660   1.9722   2.1950   2.1972   2.2851   2.2860   2.3652
     2.4242   2.4319   2.5890   2.6883   3.1238   3.1279   3.1306   3.1326
     3.1835   3.1872   3.4776   3.4788   3.7577   3.7643   3.8724   4.1748
     4.2127   4.2193   4.4337   4.4605   4.5156   4.5189   4.6082   4.7262
     4.7296   4.8428   4.8455   5.1456   5.2131   5.2190   5.3477   5.4087
     5.4465   5.6033   5.6071   5.6310   5.6340   5.6918   5.6970   5.7410
     5.8566   6.0667   6.2794   6.3021   6.3685   6.4328   6.4388   6.4490
     6.4534   6.5307   6.6463   6.6884   6.6969   6.8490   6.9174   6.9408
     6.9501   7.0187   7.0799

          k =-0.2500-0.1443-0.1111 (136898 PWs)   bands (ev):

   -18.7160  -6.7132  -6.5511  -5.7655  -5.4731  -5.4159  -5.4151  -4.8775
    -4.8773  -4.7459  -4.7446  -4.5902  -4.5610  -4.4980  -4.4646  -4.4632
    -4.4312  -4.4305  -4.3024  -4.2608  -4.2605  -4.2006  -4.1797  -4.1793
    -4.0772  -4.0771  -4.0409  -4.0408  -4.0405  -4.0141  -3.9926  -3.9917
    -3.8885  -3.8853  -3.8851  -3.8647  -3.8477  -3.8473  -3.8357  -3.8351
    -3.8226  -3.7922  -3.7918  -3.7911  -3.7908  -3.7596  -3.7589  -3.7410
    -3.7406  -3.7288  -3.6876  -3.6839  -3.6531  -3.6393  -3.6374  -3.6324
    -3.6322  -3.5582  -3.5578  -3.5239  -3.5208  -3.5196  -3.4530  -3.4523
    -3.4368  -3.4364  -3.4076  -3.4065  -3.4058  -3.4054  -3.2524  -3.2508
    -3.2331  -3.2266  -3.2220  -3.2050  -3.2044  -3.1796  -3.1784  -3.1293
    -3.1286  -3.1141  -3.1122  -3.0920  -3.0508  -3.0434  -3.0254  -3.0203
    -3.0190  -2.9818  -2.9783  -2.9716  -2.9702  -2.9567  -2.9543  -2.9169
    -2.9151  -2.9028  -2.8930  -2.8906  -2.8898  -2.8860  -2.8391  -2.8105
    -2.8084  -2.8005  -2.7789  -2.7772  -2.7175  -2.7091  -2.6885  -2.6866
    -2.6749  -2.6733  -2.6681  -2.6398  -2.6377  -2.6293  -2.6120  -2.5883
    -2.5857  -2.5823  -2.5658  -2.5642  -2.5545  -2.5528  -2.5511  -2.5479
    -2.5413  -2.4955  -2.4647  -2.4631  -2.4481  -2.4347  -2.4288  -2.4270
    -2.4208  -2.4195  -2.4179  -2.3890  -2.3881  -2.3869  -2.3782  -2.3778
    -2.3619  -2.3354  -2.3338  -2.3336  -2.3319  -2.3313  -2.2861  -2.2559
    -2.2554  -2.2539  -2.2480  -2.2384  -2.2272  -2.2252  -2.2087  -2.2085
    -2.1782  -2.1744  -2.1738  -2.1565  -2.1556  -2.1533  -2.1235  -2.1204
    -2.0827  -2.0778  -2.0731  -2.0709  -2.0696  -2.0647  -2.0633  -2.0607
    -2.0602  -2.0559  -2.0516  -2.0385  -2.0359  -1.9132  -1.9084  -1.8780
    -1.8728  -1.8695  -1.8639  -1.8639  -1.8496  -1.8475  -1.8454  -1.8436
    -1.8412  -1.8193  -1.8143  -1.8111  -1.8052  -1.8008  -1.7974  -1.7767
    -1.7760  -1.7475  -1.7473  -1.7186  -1.7162  -1.7053  -1.6973  -1.6797
    -1.6783  -1.6754  -1.6584  -1.6450  -1.6447  -1.6378  -1.6372  -1.6121
    -1.6110  -1.5960  -1.5929  -1.5621  -1.5598  -1.5528  -1.5035  -1.5007
    -1.4887  -1.4871  -1.4858  -1.4615  -1.4585  -1.4273  -1.4262  -1.4245
    -1.3936  -1.3826  -1.3805  -1.3655  -1.3643  -1.3428  -1.3377  -1.3363
    -1.3082  -1.3050  -1.3045  -1.2442  -1.2412  -1.2313  -1.2280  -1.2152
    -1.2118  -1.2001  -1.1991  -1.1809  -1.1683  -1.1429  -1.1399  -1.1294
    -1.1029  -1.0918  -1.0897  -1.0796  -1.0786  -1.0773  -1.0725  -1.0715
    -1.0569  -1.0315  -1.0273  -1.0185  -1.0152  -1.0133  -1.0117  -0.9917
    -0.9749  -0.9701  -0.9527  -0.9488  -0.8622  -0.8472  -0.8429  -0.8393
    -0.8380  -0.8309  -0.8287  -0.8142  -0.8051  -0.7908  -0.7879  -0.7764
    -0.7736  -0.7663  -0.7519  -0.7452  -0.7412  -0.7338  -0.6916  -0.6604
    -0.6575  -0.6262  -0.6231  -0.6209  -0.6150  -0.6137  -0.6133  -0.6086
    -0.6022  -0.5957  -0.5807  -0.5586  -0.5451  -0.5253  -0.5243  -0.5146
    -0.5134  -0.5022  -0.5008  -0.4998  -0.4980  -0.4964  -0.4808  -0.4762
    -0.4759  -0.4459  -0.4447  -0.4430  -0.4311  -0.4308  -0.4119  -0.3804
    -0.3798  -0.3706  -0.3702  -0.3025  -0.3022  -0.2663  -0.2652  -0.2083
    -0.2072  -0.2057  -0.1908  -0.1802   0.0484   0.0507   0.3938   0.3941
     0.4862   0.4901   0.6808   0.6994   0.7125   0.8413   0.8433   1.2740
     1.2745   1.2925   1.5542   1.5840   1.5847   1.8622   1.8677   1.9386
     1.9406   1.9666   1.9716   2.1953   2.1970   2.2851   2.2860   2.3653
     2.4246   2.4311   2.5890   2.6886   3.1232   3.1282   3.1306   3.1327
     3.1839   3.1872   3.4775   3.4788   3.7582   3.7639   3.8725   4.1749
     4.2131   4.2189   4.4343   4.4593   4.5161   4.5190   4.6082   4.7262
     4.7292   4.8424   4.8459   5.1454   5.2128   5.2190   5.3486   5.4075
     5.4470   5.6041   5.6068   5.6306   5.6339   5.6902   5.6980   5.7407
     5.8572   6.0650   6.2805   6.3021   6.3703   6.4339   6.4393   6.4480
     6.4537   6.5299   6.6450   6.6877   6.6964   6.8482   6.9174   6.9433
     6.9500   7.0176   7.0816

          k = 0.2500 0.1443-0.1111 (136898 PWs)   bands (ev):

   -18.7160  -6.7132  -6.5511  -5.7655  -5.4731  -5.4159  -5.4151  -4.8775
    -4.8773  -4.7459  -4.7446  -4.5902  -4.5610  -4.4980  -4.4646  -4.4632
    -4.4312  -4.4305  -4.3024  -4.2608  -4.2605  -4.2006  -4.1797  -4.1793
    -4.0772  -4.0771  -4.0409  -4.0408  -4.0405  -4.0141  -3.9926  -3.9917
    -3.8885  -3.8853  -3.8851  -3.8647  -3.8477  -3.8473  -3.8357  -3.8351
    -3.8226  -3.7922  -3.7918  -3.7911  -3.7908  -3.7596  -3.7589  -3.7410
    -3.7406  -3.7288  -3.6876  -3.6839  -3.6531  -3.6393  -3.6374  -3.6324
    -3.6322  -3.5581  -3.5578  -3.5239  -3.5208  -3.5196  -3.4530  -3.4523
    -3.4368  -3.4364  -3.4076  -3.4065  -3.4058  -3.4054  -3.2525  -3.2508
    -3.2331  -3.2266  -3.2221  -3.2050  -3.2044  -3.1796  -3.1784  -3.1293
    -3.1286  -3.1141  -3.1122  -3.0920  -3.0508  -3.0434  -3.0254  -3.0203
    -3.0190  -2.9818  -2.9783  -2.9716  -2.9702  -2.9567  -2.9543  -2.9169
    -2.9151  -2.9028  -2.8930  -2.8906  -2.8898  -2.8860  -2.8391  -2.8105
    -2.8084  -2.8005  -2.7789  -2.7772  -2.7175  -2.7091  -2.6885  -2.6866
    -2.6749  -2.6733  -2.6681  -2.6398  -2.6377  -2.6293  -2.6120  -2.5883
    -2.5857  -2.5823  -2.5658  -2.5642  -2.5545  -2.5528  -2.5511  -2.5479
    -2.5413  -2.4955  -2.4647  -2.4631  -2.4481  -2.4347  -2.4288  -2.4270
    -2.4208  -2.4195  -2.4179  -2.3890  -2.3880  -2.3869  -2.3782  -2.3778
    -2.3619  -2.3354  -2.3338  -2.3336  -2.3319  -2.3313  -2.2861  -2.2559
    -2.2554  -2.2539  -2.2480  -2.2384  -2.2272  -2.2252  -2.2087  -2.2085
    -2.1782  -2.1743  -2.1738  -2.1565  -2.1556  -2.1533  -2.1235  -2.1204
    -2.0827  -2.0778  -2.0731  -2.0709  -2.0696  -2.0647  -2.0633  -2.0607
    -2.0602  -2.0559  -2.0516  -2.0385  -2.0359  -1.9132  -1.9084  -1.8780
    -1.8728  -1.8695  -1.8639  -1.8639  -1.8496  -1.8475  -1.8454  -1.8436
    -1.8412  -1.8193  -1.8143  -1.8111  -1.8052  -1.8008  -1.7974  -1.7767
    -1.7760  -1.7475  -1.7473  -1.7186  -1.7162  -1.7053  -1.6973  -1.6797
    -1.6783  -1.6754  -1.6584  -1.6450  -1.6447  -1.6378  -1.6372  -1.6121
    -1.6110  -1.5960  -1.5929  -1.5621  -1.5599  -1.5528  -1.5035  -1.5007
    -1.4887  -1.4871  -1.4858  -1.4615  -1.4585  -1.4273  -1.4262  -1.4245
    -1.3936  -1.3826  -1.3805  -1.3655  -1.3643  -1.3428  -1.3377  -1.3363
    -1.3082  -1.3050  -1.3045  -1.2442  -1.2412  -1.2313  -1.2280  -1.2152
    -1.2118  -1.2001  -1.1991  -1.1809  -1.1683  -1.1429  -1.1399  -1.1294
    -1.1029  -1.0918  -1.0897  -1.0796  -1.0786  -1.0773  -1.0725  -1.0715
    -1.0569  -1.0315  -1.0273  -1.0185  -1.0152  -1.0133  -1.0117  -0.9917
    -0.9749  -0.9701  -0.9527  -0.9488  -0.8622  -0.8472  -0.8429  -0.8393
    -0.8380  -0.8309  -0.8287  -0.8142  -0.8051  -0.7908  -0.7879  -0.7764
    -0.7736  -0.7664  -0.7519  -0.7452  -0.7412  -0.7338  -0.6916  -0.6604
    -0.6575  -0.6262  -0.6231  -0.6209  -0.6150  -0.6137  -0.6133  -0.6086
    -0.6022  -0.5957  -0.5807  -0.5586  -0.5451  -0.5253  -0.5243  -0.5146
    -0.5134  -0.5022  -0.5008  -0.4998  -0.4980  -0.4964  -0.4808  -0.4762
    -0.4759  -0.4459  -0.4447  -0.4430  -0.4311  -0.4308  -0.4119  -0.3804
    -0.3798  -0.3706  -0.3702  -0.3025  -0.3022  -0.2663  -0.2652  -0.2083
    -0.2072  -0.2057  -0.1908  -0.1802   0.0484   0.0507   0.3938   0.3941
     0.4862   0.4901   0.6808   0.6994   0.7125   0.8413   0.8433   1.2740
     1.2745   1.2925   1.5542   1.5840   1.5847   1.8622   1.8677   1.9386
     1.9406   1.9666   1.9716   2.1953   2.1970   2.2851   2.2860   2.3653
     2.4246   2.4311   2.5890   2.6886   3.1232   3.1282   3.1306   3.1327
     3.1839   3.1872   3.4775   3.4788   3.7582   3.7639   3.8725   4.1749
     4.2131   4.2189   4.4343   4.4593   4.5161   4.5190   4.6082   4.7262
     4.7292   4.8424   4.8459   5.1454   5.2128   5.2190   5.3485   5.4075
     5.4471   5.6041   5.6068   5.6306   5.6339   5.6902   5.6979   5.7411
     5.8555   6.0680   6.2815   6.3025   6.3704   6.4340   6.4394   6.4478
     6.4538   6.5241   6.6389   6.6867   6.6964   6.8508   6.9196   6.9434
     6.9505   7.0194   7.0867

          k = 0.0000-0.2887 0.1111 (136898 PWs)   bands (ev):

   -18.7160  -6.7132  -6.5512  -5.7656  -5.4731  -5.4158  -5.4153  -4.8774
    -4.8773  -4.7457  -4.7450  -4.5902  -4.5610  -4.4981  -4.4641  -4.4637
    -4.4309  -4.4307  -4.3024  -4.2610  -4.2603  -4.2005  -4.1796  -4.1795
    -4.0774  -4.0769  -4.0410  -4.0407  -4.0405  -4.0140  -3.9923  -3.9920
    -3.8885  -3.8854  -3.8846  -3.8647  -3.8477  -3.8473  -3.8358  -3.8350
    -3.8225  -3.7924  -3.7918  -3.7913  -3.7907  -3.7597  -3.7589  -3.7413
    -3.7405  -3.7287  -3.6860  -3.6856  -3.6531  -3.6392  -3.6373  -3.6324
    -3.6321  -3.5581  -3.5579  -3.5239  -3.5203  -3.5201  -3.4533  -3.4522
    -3.4372  -3.4363  -3.4073  -3.4067  -3.4058  -3.4052  -3.2522  -3.2508
    -3.2306  -3.2275  -3.2233  -3.2048  -3.2044  -3.1796  -3.1787  -3.1290
    -3.1288  -3.1147  -3.1121  -3.0924  -3.0454  -3.0449  -3.0295  -3.0199
    -3.0186  -2.9804  -2.9783  -2.9709  -2.9706  -2.9626  -2.9537  -2.9160
    -2.9149  -2.8955  -2.8938  -2.8902  -2.8896  -2.8874  -2.8474  -2.8102
    -2.8088  -2.7929  -2.7784  -2.7782  -2.7197  -2.7132  -2.6885  -2.6839
    -2.6744  -2.6743  -2.6681  -2.6402  -2.6379  -2.6292  -2.6112  -2.5875
    -2.5865  -2.5819  -2.5656  -2.5648  -2.5540  -2.5518  -2.5501  -2.5482
    -2.5414  -2.4955  -2.4647  -2.4642  -2.4470  -2.4346  -2.4291  -2.4270
    -2.4206  -2.4193  -2.4181  -2.3895  -2.3887  -2.3873  -2.3786  -2.3775
    -2.3618  -2.3349  -2.3339  -2.3327  -2.3319  -2.3314  -2.2861  -2.2564
    -2.2546  -2.2540  -2.2479  -2.2384  -2.2298  -2.2252  -2.2088  -2.2086
    -2.1781  -2.1740  -2.1738  -2.1567  -2.1552  -2.1544  -2.1218  -2.1209
    -2.0827  -2.0778  -2.0729  -2.0706  -2.0699  -2.0652  -2.0631  -2.0611
    -2.0599  -2.0538  -2.0534  -2.0373  -2.0366  -1.9124  -1.9098  -1.8760
    -1.8716  -1.8708  -1.8643  -1.8641  -1.8495  -1.8487  -1.8439  -1.8431
    -1.8408  -1.8196  -1.8149  -1.8117  -1.8052  -1.7996  -1.7981  -1.7777
    -1.7762  -1.7489  -1.7477  -1.7167  -1.7150  -1.7055  -1.6966  -1.6793
    -1.6784  -1.6755  -1.6582  -1.6460  -1.6448  -1.6379  -1.6372  -1.6114
    -1.6105  -1.5961  -1.5942  -1.5634  -1.5609  -1.5509  -1.5033  -1.5018
    -1.4878  -1.4871  -1.4861  -1.4616  -1.4585  -1.4275  -1.4263  -1.4250
    -1.3907  -1.3834  -1.3815  -1.3653  -1.3643  -1.3402  -1.3392  -1.3363
    -1.3092  -1.3048  -1.3042  -1.2453  -1.2410  -1.2307  -1.2289  -1.2143
    -1.2124  -1.1998  -1.1990  -1.1810  -1.1685  -1.1413  -1.1405  -1.1288
    -1.0991  -1.0922  -1.0911  -1.0790  -1.0787  -1.0771  -1.0731  -1.0708
    -1.0568  -1.0311  -1.0294  -1.0212  -1.0174  -1.0130  -1.0127  -0.9920
    -0.9746  -0.9709  -0.9517  -0.9489  -0.8591  -0.8486  -0.8404  -0.8396
    -0.8360  -0.8336  -0.8288  -0.8068  -0.8054  -0.7917  -0.7901  -0.7749
    -0.7738  -0.7668  -0.7531  -0.7442  -0.7429  -0.7340  -0.6911  -0.6620
    -0.6593  -0.6282  -0.6236  -0.6214  -0.6170  -0.6141  -0.6133  -0.6085
    -0.6007  -0.5902  -0.5830  -0.5586  -0.5453  -0.5273  -0.5231  -0.5145
    -0.5133  -0.5017  -0.5007  -0.4987  -0.4984  -0.4960  -0.4805  -0.4765
    -0.4760  -0.4456  -0.4445  -0.4429  -0.4318  -0.4307  -0.4118  -0.3801
    -0.3795  -0.3705  -0.3701  -0.3042  -0.3014  -0.2663  -0.2653  -0.2086
    -0.2073  -0.2056  -0.1926  -0.1801   0.0492   0.0527   0.3938   0.3941
     0.4866   0.4898   0.6782   0.7004   0.7120   0.8414   0.8426   1.2739
     1.2750   1.2916   1.5544   1.5843   1.5848   1.8631   1.8665   1.9390
     1.9413   1.9677   1.9703   2.1956   2.1978   2.2847   2.2860   2.3658
     2.4263   2.4285   2.5882   2.6893   3.1229   3.1283   3.1307   3.1328
     3.1857   3.1871   3.4786   3.4789   3.7596   3.7634   3.8732   4.1738
     4.2132   4.2189   4.4365   4.4534   4.5120   4.5202   4.6109   4.7220
     4.7300   4.8453   4.8458   5.1476   5.2046   5.2205   5.3572   5.4020
     5.4414   5.5982   5.6074   5.6329   5.6335   5.6940   5.6962   5.7485
     5.8557   6.0800   6.2787   6.3003   6.3572   6.4330   6.4414   6.4509
     6.4535   6.5211   6.6439   6.6832   6.6948   6.8631   6.9161   6.9405
     6.9507   7.0159   7.0779

          k = 0.0000 0.2887 0.1111 (136898 PWs)   bands (ev):

   -18.7160  -6.7132  -6.5512  -5.7656  -5.4731  -5.4158  -5.4153  -4.8774
    -4.8773  -4.7457  -4.7450  -4.5902  -4.5610  -4.4980  -4.4641  -4.4637
    -4.4309  -4.4307  -4.3024  -4.2610  -4.2603  -4.2005  -4.1796  -4.1795
    -4.0774  -4.0769  -4.0410  -4.0407  -4.0405  -4.0141  -3.9923  -3.9920
    -3.8885  -3.8854  -3.8846  -3.8647  -3.8477  -3.8473  -3.8358  -3.8350
    -3.8225  -3.7924  -3.7918  -3.7913  -3.7907  -3.7597  -3.7589  -3.7413
    -3.7405  -3.7287  -3.6860  -3.6856  -3.6531  -3.6392  -3.6373  -3.6324
    -3.6321  -3.5581  -3.5579  -3.5239  -3.5203  -3.5201  -3.4533  -3.4522
    -3.4372  -3.4363  -3.4073  -3.4067  -3.4058  -3.4052  -3.2522  -3.2508
    -3.2306  -3.2275  -3.2233  -3.2048  -3.2044  -3.1796  -3.1787  -3.1290
    -3.1288  -3.1147  -3.1121  -3.0924  -3.0454  -3.0449  -3.0294  -3.0199
    -3.0186  -2.9804  -2.9783  -2.9709  -2.9706  -2.9626  -2.9537  -2.9160
    -2.9149  -2.8955  -2.8938  -2.8902  -2.8896  -2.8874  -2.8474  -2.8102
    -2.8088  -2.7929  -2.7784  -2.7782  -2.7197  -2.7132  -2.6885  -2.6839
    -2.6744  -2.6743  -2.6681  -2.6402  -2.6379  -2.6292  -2.6112  -2.5874
    -2.5865  -2.5819  -2.5656  -2.5648  -2.5540  -2.5518  -2.5501  -2.5482
    -2.5414  -2.4955  -2.4647  -2.4642  -2.4470  -2.4345  -2.4291  -2.4270
    -2.4206  -2.4193  -2.4181  -2.3895  -2.3887  -2.3873  -2.3786  -2.3775
    -2.3618  -2.3349  -2.3339  -2.3327  -2.3319  -2.3314  -2.2861  -2.2564
    -2.2546  -2.2540  -2.2479  -2.2384  -2.2298  -2.2252  -2.2088  -2.2086
    -2.1781  -2.1740  -2.1738  -2.1567  -2.1552  -2.1544  -2.1218  -2.1209
    -2.0827  -2.0778  -2.0729  -2.0706  -2.0699  -2.0652  -2.0631  -2.0611
    -2.0599  -2.0538  -2.0534  -2.0373  -2.0366  -1.9124  -1.9098  -1.8760
    -1.8716  -1.8708  -1.8643  -1.8641  -1.8495  -1.8487  -1.8439  -1.8431
    -1.8408  -1.8196  -1.8149  -1.8117  -1.8052  -1.7996  -1.7981  -1.7777
    -1.7762  -1.7489  -1.7477  -1.7167  -1.7150  -1.7054  -1.6966  -1.6793
    -1.6784  -1.6755  -1.6582  -1.6460  -1.6447  -1.6379  -1.6372  -1.6114
    -1.6105  -1.5961  -1.5941  -1.5634  -1.5609  -1.5509  -1.5033  -1.5018
    -1.4878  -1.4871  -1.4861  -1.4616  -1.4585  -1.4275  -1.4263  -1.4250
    -1.3907  -1.3834  -1.3815  -1.3653  -1.3643  -1.3402  -1.3392  -1.3363
    -1.3092  -1.3048  -1.3042  -1.2453  -1.2410  -1.2307  -1.2289  -1.2143
    -1.2124  -1.1998  -1.1990  -1.1810  -1.1685  -1.1413  -1.1405  -1.1288
    -1.0991  -1.0922  -1.0911  -1.0790  -1.0787  -1.0771  -1.0731  -1.0708
    -1.0569  -1.0311  -1.0294  -1.0212  -1.0174  -1.0130  -1.0127  -0.9920
    -0.9746  -0.9709  -0.9517  -0.9489  -0.8591  -0.8486  -0.8404  -0.8396
    -0.8360  -0.8336  -0.8288  -0.8068  -0.8054  -0.7917  -0.7901  -0.7749
    -0.7738  -0.7668  -0.7531  -0.7442  -0.7429  -0.7340  -0.6911  -0.6620
    -0.6593  -0.6282  -0.6236  -0.6214  -0.6170  -0.6141  -0.6133  -0.6085
    -0.6007  -0.5902  -0.5830  -0.5586  -0.5453  -0.5273  -0.5231  -0.5145
    -0.5133  -0.5017  -0.5007  -0.4987  -0.4984  -0.4960  -0.4805  -0.4765
    -0.4760  -0.4456  -0.4445  -0.4429  -0.4318  -0.4307  -0.4118  -0.3801
    -0.3795  -0.3705  -0.3701  -0.3043  -0.3014  -0.2663  -0.2653  -0.2086
    -0.2073  -0.2056  -0.1926  -0.1801   0.0492   0.0527   0.3938   0.3941
     0.4866   0.4898   0.6782   0.7004   0.7120   0.8414   0.8426   1.2739
     1.2750   1.2916   1.5544   1.5843   1.5848   1.8631   1.8665   1.9390
     1.9413   1.9677   1.9703   2.1956   2.1978   2.2847   2.2860   2.3658
     2.4263   2.4285   2.5882   2.6893   3.1229   3.1283   3.1307   3.1328
     3.1857   3.1871   3.4786   3.4789   3.7596   3.7634   3.8732   4.1738
     4.2132   4.2189   4.4365   4.4534   4.5120   4.5202   4.6109   4.7220
     4.7300   4.8453   4.8458   5.1476   5.2046   5.2205   5.3574   5.4020
     5.4411   5.5982   5.6074   5.6329   5.6335   5.6940   5.6962   5.7480
     5.8592   6.0751   6.2742   6.3003   6.3569   6.4330   6.4414   6.4508
     6.4535   6.5326   6.6478   6.6843   6.6948   6.8547   6.9162   6.9377
     6.9505   7.0251   7.0857

     the Fermi energy is     1.4185 ev

!    total energy              =   -6604.42546325 Ry
     Harris-Foulkes estimate   =   -6604.42546325 Ry
     estimated scf accuracy    <          3.2E-09 Ry

     The total energy is the sum of the following terms:

     one-electron contribution =  -48693.88398283 Ry
     hartree contribution      =   24847.69102746 Ry
     xc contribution           =   -3204.99612638 Ry
     ewald contribution        =   20446.76072900 Ry
     smearing contrib. (-TS)   =       0.00288950 Ry

     convergence has been achieved in  25 iterations

     Writing output data file 3991788.save

     init_run     :    139.81s CPU    150.31s WALL (       1 calls)
     electrons    :   7913.22s CPU   8360.39s WALL (       1 calls)

     Called by init_run:
     wfcinit      :    110.46s CPU    120.14s WALL (       1 calls)
     potinit      :      8.99s CPU      9.40s WALL (       1 calls)

     Called by electrons:
     c_bands      :   6756.33s CPU   7114.03s WALL (      26 calls)
     sum_band     :    850.92s CPU    926.05s WALL (      26 calls)
     v_of_rho     :    101.16s CPU    111.57s WALL (      26 calls)
     newd         :    211.09s CPU    214.37s WALL (      26 calls)
     mix_rho      :      3.14s CPU      3.49s WALL (      26 calls)
     vdW_energy   :      6.80s CPU      7.42s WALL (      26 calls)
     vdW_ffts     :     52.15s CPU     57.51s WALL (      52 calls)
     vdW_v        :     14.11s CPU     14.77s WALL (      26 calls)

     Called by c_bands:
     init_us_2    :     18.69s CPU     19.15s WALL (     636 calls)
     cegterg      :   6680.26s CPU   7035.95s WALL (     312 calls)

     Called by *egterg:
     h_psi        :   2808.05s CPU   3128.56s WALL (    1634 calls)
     s_psi        :    441.53s CPU    443.78s WALL (    1634 calls)
     g_psi        :      6.26s CPU      6.26s WALL (    1310 calls)
     cdiaghg      :   2053.16s CPU   2057.91s WALL (    1610 calls)

     Called by h_psi:
     add_vuspsi   :    443.36s CPU    445.70s WALL (    1634 calls)

     General routines
     calbec       :    661.48s CPU    663.66s WALL (    1946 calls)
     fft          :    120.61s CPU    130.58s WALL (    1716 calls)
     ffts         :      1.67s CPU      1.99s WALL (      52 calls)
     fftw         :   2021.67s CPU   2358.12s WALL (  755538 calls)
     interpolate  :      4.24s CPU      5.08s WALL (      52 calls)
     davcio       :      0.01s CPU      0.28s WALL (      12 calls)

     Parallel routines
     fft_scatter  :   1375.89s CPU   1613.15s WALL (  757306 calls)

     PWSCF        :     2h14m CPU        2h22m WALL


   This run was terminated on:  16:52:52  26Jun2015            

=------------------------------------------------------------------------------=
   JOB DONE.
=------------------------------------------------------------------------------=
