Setting SGE environment for SCC

     Program PWSCF v.5.1.2 starts on 26Jun2015 at 13:11:52 

     This program is part of the open-source Quantum ESPRESSO suite
     for quantum simulation of materials; please cite
         "P. Giannozzi et al., J. Phys.:Condens. Matter 21 395502 (2009);
          URL http://www.quantum-espresso.org", 
     in publications or presentations arising from this work. More details at
     http://www.quantum-espresso.org/quote

     Parallel version (MPI), running on    32 processors
     R & G space division:  proc/nbgrp/npool/nimage =      32
     Reading input from top.O1.Au50.d.2.6.phi.45.psi.90.in
Warning: card &IONS ignored
Warning: card / ignored
Warning: card &CELL ignored
Warning: card / ignored

     Current dimensions of program PWSCF are:
     Max number of different atomic species (ntypx) = 10
     Max number of k-points (npk) =  40000
     Max angular momentum in pseudopotentials (lmaxx) =  3

     IMPORTANT: XC functional enforced from input :
     Exchange-correlation      = VDW-DF ( 1  4  4  0 1 0)
     Any further DFT definition will be discarded
     Please, verify this is what you really want


     Subspace diagonalization in iterative solution of the eigenvalue problem:
     a serial algorithm will be used


     Parallelization info
     --------------------
     sticks:   dense  smooth     PW     G-vecs:    dense   smooth      PW
     Min         445     223     58                96775    34191    4534
     Max         446     224     59                96790    34246    4540
     Sum       14269    7147   1867              3097177  1095093  145167


     Title: 
     top.O1.Au50.d.2.6.phi.45.psi.90                                            


     bravais-lattice index     =            4
     lattice parameter (alat)  =      22.7436  a.u.
     unit-cell volume          =   22924.1508 (a.u.)^3
     number of atoms/cell      =           67
     number of atomic types    =            3
     number of electrons       =       712.00
     number of Kohn-Sham states=          427
     kinetic-energy cutoff     =      50.0000  Ry
     charge density cutoff     =     400.0000  Ry
     convergence threshold     =      1.0E-08
     mixing beta               =       0.7000
     number of iterations used =            8  plain     mixing
     Exchange-correlation      = VDW-DF ( 1  4  4  0 1 0)

     celldm(1)=  22.743643  celldm(2)=   0.000000  celldm(3)=   2.250000
     celldm(4)=   0.000000  celldm(5)=   0.000000  celldm(6)=   0.000000

     crystal axes: (cart. coord. in units of alat)
               a(1) = (   1.000000   0.000000   0.000000 )  
               a(2) = (  -0.500000   0.866025   0.000000 )  
               a(3) = (   0.000000   0.000000   2.250000 )  

     reciprocal axes: (cart. coord. in units 2 pi/alat)
               b(1) = (  1.000000  0.577350 -0.000000 )  
               b(2) = (  0.000000  1.154701  0.000000 )  
               b(3) = (  0.000000 -0.000000  0.444444 )  


     PseudoPot. # 1 for Au read from file:
     /home/scc/andrejb/qe/pseudo/Au.pbe-nd-van.UPF
     MD5 check sum: 458681b50f36d87ef23c61b04bba420a
     Pseudo is Ultrasoft + core correction, Zval = 11.0
     Generated by new atomic code, or converted to UPF format
     Using radial grid of  985 points,  3 beta functions with: 
                l(1) =   1
                l(2) =   2
                l(3) =   2
     Q(r) pseudized with  8 coefficients,  rinner =    1.100   1.100   1.100
                                                       1.100   1.100

     PseudoPot. # 2 for H  read from file:
     /home/scc/andrejb/qe/pseudo/H.pbe-van_ak.UPF
     MD5 check sum: 403db7282739603aa925980fa9b8608d
     Pseudo is Ultrasoft, Zval =  1.0
     Generated by new atomic code, or converted to UPF format
     Using radial grid of  615 points,  1 beta functions with: 
                l(1) =   0
     Q(r) pseudized with  8 coefficients,  rinner =    0.800

     PseudoPot. # 3 for O  read from file:
     /home/scc/andrejb/qe/pseudo/O.pbe-van_ak.UPF
     MD5 check sum: 4b8c549914a63cae506c6ff22b5af4fe
     Pseudo is Ultrasoft, Zval =  6.0
     Generated by new atomic code, or converted to UPF format
     Using radial grid of  737 points,  4 beta functions with: 
                l(1) =   0
                l(2) =   0
                l(3) =   1
                l(4) =   1
     Q(r) pseudized with  8 coefficients,  rinner =    0.800   0.800   0.800


     vdW kernel table read from file vdW_kernel_table
     MD5 check sum: 48e77a2e26edf626eeb0eaa751ad5cac

     atomic species   valence    mass     pseudopotential
        Au            11.00   196.96657     Au( 1.00)
        H              1.00     1.01000     H ( 1.00)
        O              6.00    16.00000     O ( 1.00)

     No symmetry found



   Cartesian axes

     site n.     atom                  positions (alat units)
         1           O   tau(   1) = (   0.4790780   0.3968269   0.8290259  )
         2           H   tau(   2) = (   0.4731484   0.3485733   0.7643390  )
         3           H   tau(   3) = (   0.4848144   0.3460662   0.8917648  )
         4           Au  tau(   4) = (   0.3540481   0.6132292   0.0000000  )
         5           Au  tau(   5) = (   0.4790062   0.3967954   0.0000000  )
         6           Au  tau(   6) = (   0.6039644   0.1803616   0.0000000  )
         7           Au  tau(   7) = (   0.7289225  -0.0360723   0.0000000  )
         8           Au  tau(   8) = (   0.1041318   0.6132292   0.0000000  )
         9           Au  tau(   9) = (   0.2290899   0.3967954   0.0000000  )
        10           Au  tau(  10) = (   0.3540481   0.1803616   0.0000000  )
        11           Au  tau(  11) = (   0.4790062  -0.0360723   0.0000000  )
        12           Au  tau(  12) = (  -0.1457845   0.6132292   0.0000000  )
        13           Au  tau(  13) = (  -0.0208264   0.3967954   0.0000000  )
        14           Au  tau(  14) = (   0.1041318   0.1803616   0.0000000  )
        15           Au  tau(  15) = (   0.2290899  -0.0360723   0.0000000  )
        16           Au  tau(  16) = (  -0.3957008   0.6132292   0.0000000  )
        17           Au  tau(  17) = (  -0.2707426   0.3967954   0.0000000  )
        18           Au  tau(  18) = (  -0.1457845   0.1803616   0.0000000  )
        19           Au  tau(  19) = (  -0.0208264  -0.0360723   0.0000000  )
        20           Au  tau(  20) = (   0.4790062   0.6853738   0.2040557  )
        21           Au  tau(  21) = (   0.6039644   0.4689400   0.2040557  )
        22           Au  tau(  22) = (   0.7289225   0.2525062   0.2040557  )
        23           Au  tau(  23) = (   0.8538806   0.0360723   0.2040557  )
        24           Au  tau(  24) = (   0.2290899   0.6853738   0.2040557  )
        25           Au  tau(  25) = (   0.3540481   0.4689400   0.2040557  )
        26           Au  tau(  26) = (   0.4790062   0.2525062   0.2040557  )
        27           Au  tau(  27) = (   0.6039644   0.0360723   0.2040557  )
        28           Au  tau(  28) = (  -0.0208264   0.6853738   0.2040557  )
        29           Au  tau(  29) = (   0.1041318   0.4689400   0.2040557  )
        30           Au  tau(  30) = (   0.2290899   0.2525062   0.2040557  )
        31           Au  tau(  31) = (   0.3540481   0.0360723   0.2040557  )
        32           Au  tau(  32) = (  -0.2707426   0.6853738   0.2040557  )
        33           Au  tau(  33) = (  -0.1457845   0.4689400   0.2040557  )
        34           Au  tau(  34) = (  -0.0208264   0.2525062   0.2040557  )
        35           Au  tau(  35) = (   0.1041318   0.0360723   0.2040557  )
        36           Au  tau(  36) = (   0.3541162   0.7576593   0.4066483  )
        37           Au  tau(  37) = (   0.4791000   0.5411421   0.4066696  )
        38           Au  tau(  38) = (   0.6040570   0.3246862   0.4066618  )
        39           Au  tau(  39) = (   0.7290270   0.1081684   0.4066530  )
        40           Au  tau(  40) = (   0.1041162   0.7576236   0.4066247  )
        41           Au  tau(  41) = (   0.2291001   0.5411062   0.4066455  )
        42           Au  tau(  42) = (   0.3540567   0.3246505   0.4066380  )
        43           Au  tau(  43) = (   0.4790276   0.1081324   0.4066292  )
        44           Au  tau(  44) = (  -0.1458201   0.7576104   0.4066225  )
        45           Au  tau(  45) = (  -0.0208365   0.5410930   0.4066438  )
        46           Au  tau(  46) = (   0.1041202   0.3246372   0.4066359  )
        47           Au  tau(  47) = (   0.2290908   0.1081193   0.4066273  )
        48           Au  tau(  48) = (  -0.3958167   0.7575791   0.4065812  )
        49           Au  tau(  49) = (  -0.2708328   0.5410617   0.4066025  )
        50           Au  tau(  50) = (  -0.1458763   0.3246061   0.4065947  )
        51           Au  tau(  51) = (  -0.0209056   0.1080882   0.4065858  )
        52           Au  tau(  52) = (   0.3541084   0.6133344   0.6129762  )
        53           Au  tau(  53) = (   0.4790780   0.3968269   0.6129968  )
        54           Au  tau(  54) = (   0.6040356   0.1803811   0.6129859  )
        55           Au  tau(  55) = (   0.7290165  -0.0361221   0.6129385  )
        56           Au  tau(  56) = (   0.1041243   0.6133091   0.6130023  )
        57           Au  tau(  57) = (   0.2290941   0.3968013   0.6130241  )
        58           Au  tau(  58) = (   0.3540515   0.1803552   0.6130121  )
        59           Au  tau(  59) = (   0.4790323  -0.0361475   0.6129659  )
        60           Au  tau(  60) = (  -0.1458030   0.6133014   0.6129980  )
        61           Au  tau(  61) = (  -0.0208339   0.3967936   0.6130189  )
        62           Au  tau(  62) = (   0.1041239   0.1803477   0.6130083  )
        63           Au  tau(  63) = (   0.2291046  -0.0361554   0.6129607  )
        64           Au  tau(  64) = (  -0.3957908   0.6132739   0.6129471  )
        65           Au  tau(  65) = (  -0.2708208   0.3967658   0.6129688  )
        66           Au  tau(  66) = (  -0.1458636   0.1803200   0.6129569  )
        67           Au  tau(  67) = (  -0.0208823  -0.0361826   0.6129110  )

     number of k points=    12  Marzari-Vanderbilt smearing, width (Ry)=  0.0200
                       cart. coord. in units 2pi/alat
        k(    1) = (   0.2500000   0.4330127   0.1111111), wk =   0.1666667
        k(    2) = (   0.2500000  -0.1443376   0.1111111), wk =   0.1666667
        k(    3) = (  -0.2500000  -0.4330127   0.1111111), wk =   0.1666667
        k(    4) = (  -0.2500000   0.4330127  -0.1111111), wk =   0.1666667
        k(    5) = (   0.2500000  -0.4330127  -0.1111111), wk =   0.1666667
        k(    6) = (   0.5000000   0.0000000   0.1111111), wk =   0.1666667
        k(    7) = (  -0.5000000   0.0000000   0.1111111), wk =   0.1666667
        k(    8) = (  -0.2500000   0.1443376   0.1111111), wk =   0.1666667
        k(    9) = (  -0.2500000  -0.1443376  -0.1111111), wk =   0.1666667
        k(   10) = (   0.2500000   0.1443376  -0.1111111), wk =   0.1666667
        k(   11) = (   0.0000000  -0.2886751   0.1111111), wk =   0.1666667
        k(   12) = (   0.0000000   0.2886751   0.1111111), wk =   0.1666667

     Dense  grid:  3097177 G-vectors     FFT dimensions: ( 150, 150, 360)

     Smooth grid:  1095093 G-vectors     FFT dimensions: ( 108, 108, 240)

     Largest allocated arrays     est. size (Mb)     dimensions
        Kohn-Sham Wavefunctions        28.01 Mb     (    4299,  427)
        NL pseudopotentials            55.23 Mb     (    4299,  842)
        Each V/rho on FFT grid          4.12 Mb     (  270000)
        Each G-vector array             0.74 Mb     (   96788)
        G-vector shells                 0.16 Mb     (   21404)
     Largest temporary arrays     est. size (Mb)     dimensions
        Auxiliary wavefunctions       112.04 Mb     (    4299, 1708)
        Each subspace H/S matrix       44.51 Mb     (    1708, 1708)
        Each <psi_i|beta_j> matrix      5.49 Mb     (     842,  427)
        Arrays for rho mixing          32.96 Mb     (  270000,    8)

     Initial potential from superposition of free atoms
     Check: negative starting charge=   -1.730223

     starting charge  711.25682, renormalised to  712.00000

     negative rho (up, down):  1.732E+00 0.000E+00


     ************************************************************************
     *
     * You are using vdW-DF for exchange-correlation in this calculation.
     * Please cite the following three references that made this development
     * possible:
     *
     *   M. Dion, H. Rydberg, E. Schroder, D. C. Langreth, and
     *   B. I. Lundqvist, Phys. Rev. Lett. 92, 246401 (2004).
     *
     *   T. Thonhauser, V. R. Cooper, S. Li, A. Puzder, P. Hyldgaard, and
     *   D. C. Langreth, Phys. Rev. B 76, 125112 (2007).
     *
     *   G. Roman-Perez and J. M. Soler, Phys. Rev. Lett. 103, 096102 (2009).
     *
     *
     * If you are using vdW-DF2, please also cite:
     *
     *   K. Lee, E. D. Murray, L. Kong, B. I. Lundqvist, and
     *   D. C. Langreth, Phys. Rev. B 82, 081101(R) (2010).
     *
     *
     * If you are calculating the stress with vdW-DF, please also cite:
     *
     *   R. Sabatini, E. Kucukbenli, B. Kolb, T. Thonhauser, and
     *   S. de Gironcoli, J. Phys.: Condens. Matter 24, 424209 (2012).
     *
     ************************************************************************

     Carrying out vdW-DF run using the following parameters:

     Nqs =      20    Nr_points =    1024   r_max =   100.000
     q_mesh =
               0.00001000     0.04494208     0.09755937     0.15916263
               0.23128650     0.31572767     0.41458969     0.53033537
               0.66584808     0.82450364     1.01025438     1.22772762
               1.48234092     1.78043706     2.12944203     2.53805004
               3.01644009     3.57652955     4.23227104     5.00000000

     Gradients computed in reciprocal space

     ************************************************************************


     Starting wfc are  582 randomized atomic wfcs

     total cpu time spent up to now is      217.7 secs

     Self-consistent Calculation

     iteration #  1     ecut=    50.00 Ry     beta=0.70
     Davidson diagonalization with overlap
     ethr =  1.00E-02,  avg # of iterations =  3.0

     Threshold (ethr) on eigenvalues was too large:
     Diagonalizing with lowered threshold

     Davidson diagonalization with overlap
     ethr =  3.40E-04,  avg # of iterations =  3.7

     negative rho (up, down):  1.727E+00 0.000E+00

     total cpu time spent up to now is      969.7 secs

     total energy              =   -6602.78414866 Ry
     Harris-Foulkes estimate   =   -6604.98847699 Ry
     estimated scf accuracy    <       2.76228267 Ry

     iteration #  2     ecut=    50.00 Ry     beta=0.70
     Davidson diagonalization with overlap
     ethr =  3.88E-04,  avg # of iterations = 11.5

     negative rho (up, down):  1.727E+00 0.000E+00

     total cpu time spent up to now is     2164.3 secs

     total energy              =   -6597.06774159 Ry
     Harris-Foulkes estimate   =   -6609.89137121 Ry
     estimated scf accuracy    <      70.21463574 Ry

     iteration #  3     ecut=    50.00 Ry     beta=0.70
     Davidson diagonalization with overlap
     ethr =  3.88E-04,  avg # of iterations =  6.5

     negative rho (up, down):  1.737E+00 0.000E+00

     total cpu time spent up to now is     2989.2 secs

     total energy              =   -6603.18395719 Ry
     Harris-Foulkes estimate   =   -6604.93700608 Ry
     estimated scf accuracy    <       7.76076781 Ry

     iteration #  4     ecut=    50.00 Ry     beta=0.70
     Davidson diagonalization with overlap
     ethr =  3.88E-04,  avg # of iterations =  6.5

     negative rho (up, down):  1.739E+00 0.000E+00

     total cpu time spent up to now is     3479.6 secs

     total energy              =   -6603.72608560 Ry
     Harris-Foulkes estimate   =   -6604.90886903 Ry
     estimated scf accuracy    <       9.34470068 Ry

     iteration #  5     ecut=    50.00 Ry     beta=0.70
     Davidson diagonalization with overlap
     ethr =  3.88E-04,  avg # of iterations =  6.0

     negative rho (up, down):  1.747E+00 0.000E+00

     total cpu time spent up to now is     3864.3 secs

     total energy              =   -6604.20782252 Ry
     Harris-Foulkes estimate   =   -6604.64747289 Ry
     estimated scf accuracy    <       3.59897643 Ry

     iteration #  6     ecut=    50.00 Ry     beta=0.70
     Davidson diagonalization with overlap
     ethr =  3.88E-04,  avg # of iterations =  3.0

     negative rho (up, down):  1.752E+00 0.000E+00

     total cpu time spent up to now is     4254.2 secs

     total energy              =   -6604.37706077 Ry
     Harris-Foulkes estimate   =   -6604.43197923 Ry
     estimated scf accuracy    <       0.17911666 Ry

     iteration #  7     ecut=    50.00 Ry     beta=0.70
     Davidson diagonalization with overlap
     ethr =  2.52E-05,  avg # of iterations = 11.3

     negative rho (up, down):  1.754E+00 0.000E+00

     total cpu time spent up to now is     4863.7 secs

     total energy              =   -6604.38904927 Ry
     Harris-Foulkes estimate   =   -6604.41744931 Ry
     estimated scf accuracy    <       0.12717585 Ry

     iteration #  8     ecut=    50.00 Ry     beta=0.70
     Davidson diagonalization with overlap
     ethr =  1.79E-05,  avg # of iterations =  3.6

     negative rho (up, down):  1.755E+00 0.000E+00

     total cpu time spent up to now is     5285.0 secs

     total energy              =   -6604.39243951 Ry
     Harris-Foulkes estimate   =   -6604.40594950 Ry
     estimated scf accuracy    <       0.05313143 Ry

     iteration #  9     ecut=    50.00 Ry     beta=0.70
     Davidson diagonalization with overlap
     ethr =  7.46E-06,  avg # of iterations =  5.8

     negative rho (up, down):  1.756E+00 0.000E+00

     total cpu time spent up to now is     5747.3 secs

     total energy              =   -6604.39270025 Ry
     Harris-Foulkes estimate   =   -6604.39899422 Ry
     estimated scf accuracy    <       0.02185370 Ry

     iteration # 10     ecut=    50.00 Ry     beta=0.70
     Davidson diagonalization with overlap
     ethr =  3.07E-06,  avg # of iterations =  6.3

     negative rho (up, down):  1.757E+00 0.000E+00

     total cpu time spent up to now is     6174.7 secs

     total energy              =   -6604.39294381 Ry
     Harris-Foulkes estimate   =   -6604.39531558 Ry
     estimated scf accuracy    <       0.00804993 Ry

     iteration # 11     ecut=    50.00 Ry     beta=0.70
     Davidson diagonalization with overlap
     ethr =  1.13E-06,  avg # of iterations =  3.4

     negative rho (up, down):  1.757E+00 0.000E+00

     total cpu time spent up to now is     6557.4 secs

     total energy              =   -6604.39302593 Ry
     Harris-Foulkes estimate   =   -6604.39408748 Ry
     estimated scf accuracy    <       0.00392210 Ry

     iteration # 12     ecut=    50.00 Ry     beta=0.70
     Davidson diagonalization with overlap
     ethr =  5.51E-07,  avg # of iterations =  2.8

     negative rho (up, down):  1.758E+00 0.000E+00

     total cpu time spent up to now is     6941.6 secs

     total energy              =   -6604.39302633 Ry
     Harris-Foulkes estimate   =   -6604.39345403 Ry
     estimated scf accuracy    <       0.00079559 Ry

     iteration # 13     ecut=    50.00 Ry     beta=0.70
     Davidson diagonalization with overlap
     ethr =  1.12E-07,  avg # of iterations =  6.3

     negative rho (up, down):  1.758E+00 0.000E+00

     total cpu time spent up to now is     7479.4 secs

     total energy              =   -6604.39311666 Ry
     Harris-Foulkes estimate   =   -6604.39331792 Ry
     estimated scf accuracy    <       0.00072393 Ry

     iteration # 14     ecut=    50.00 Ry     beta=0.70
     Davidson diagonalization with overlap
     ethr =  1.02E-07,  avg # of iterations =  2.0

     negative rho (up, down):  1.758E+00 0.000E+00

     total cpu time spent up to now is     7867.0 secs

     total energy              =   -6604.39320655 Ry
     Harris-Foulkes estimate   =   -6604.39324643 Ry
     estimated scf accuracy    <       0.00014123 Ry

     iteration # 15     ecut=    50.00 Ry     beta=0.70
     Davidson diagonalization with overlap
     ethr =  1.98E-08,  avg # of iterations =  2.0

     negative rho (up, down):  1.757E+00 0.000E+00

     total cpu time spent up to now is     8269.0 secs

     total energy              =   -6604.39322203 Ry
     Harris-Foulkes estimate   =   -6604.39324020 Ry
     estimated scf accuracy    <       0.00007470 Ry

     iteration # 16     ecut=    50.00 Ry     beta=0.70
     Davidson diagonalization with overlap
     ethr =  1.05E-08,  avg # of iterations =  2.0

     negative rho (up, down):  1.757E+00 0.000E+00

     total cpu time spent up to now is     8655.2 secs

     total energy              =   -6604.39322970 Ry
     Harris-Foulkes estimate   =   -6604.39323212 Ry
     estimated scf accuracy    <       0.00000605 Ry

     iteration # 17     ecut=    50.00 Ry     beta=0.70
     Davidson diagonalization with overlap
     ethr =  8.49E-10,  avg # of iterations =  3.0

     negative rho (up, down):  1.757E+00 0.000E+00

     total cpu time spent up to now is     9018.9 secs

     total energy              =   -6604.39322759 Ry
     Harris-Foulkes estimate   =   -6604.39323553 Ry
     estimated scf accuracy    <       0.00007895 Ry

     iteration # 18     ecut=    50.00 Ry     beta=0.70
     Davidson diagonalization with overlap
     ethr =  8.49E-10,  avg # of iterations =  2.0

     negative rho (up, down):  1.757E+00 0.000E+00

     total cpu time spent up to now is     9411.9 secs

     total energy              =   -6604.39323130 Ry
     Harris-Foulkes estimate   =   -6604.39323231 Ry
     estimated scf accuracy    <       0.00000496 Ry

     iteration # 19     ecut=    50.00 Ry     beta=0.70
     Davidson diagonalization with overlap
     ethr =  6.96E-10,  avg # of iterations =  2.0

     negative rho (up, down):  1.757E+00 0.000E+00

     total cpu time spent up to now is     9801.0 secs

     total energy              =   -6604.39323178 Ry
     Harris-Foulkes estimate   =   -6604.39323195 Ry
     estimated scf accuracy    <       0.00000063 Ry

     iteration # 20     ecut=    50.00 Ry     beta=0.70
     Davidson diagonalization with overlap
     ethr =  8.80E-11,  avg # of iterations =  2.0

     negative rho (up, down):  1.757E+00 0.000E+00

     total cpu time spent up to now is    10191.1 secs

     total energy              =   -6604.39323188 Ry
     Harris-Foulkes estimate   =   -6604.39323194 Ry
     estimated scf accuracy    <       0.00000027 Ry

     iteration # 21     ecut=    50.00 Ry     beta=0.70
     Davidson diagonalization with overlap
     ethr =  3.73E-11,  avg # of iterations =  2.0

     negative rho (up, down):  1.757E+00 0.000E+00

     total cpu time spent up to now is    10573.5 secs

     total energy              =   -6604.39323192 Ry
     Harris-Foulkes estimate   =   -6604.39323195 Ry
     estimated scf accuracy    <       0.00000022 Ry

     iteration # 22     ecut=    50.00 Ry     beta=0.70
     Davidson diagonalization with overlap
     ethr =  3.14E-11,  avg # of iterations =  2.0

     negative rho (up, down):  1.757E+00 0.000E+00

     total cpu time spent up to now is    10966.8 secs

     End of self-consistent calculation

          k = 0.2500 0.4330 0.1111 (136853 PWs)   bands (ev):

   -19.0054  -7.3122  -6.3242  -5.9267  -5.9253  -5.2483  -4.9166  -4.9154
    -4.8773  -4.8753  -4.5170  -4.5152  -4.4184  -4.4168  -4.4035  -4.3803
    -4.3652  -4.2515  -4.2485  -4.2255  -4.1831  -4.1824  -4.1141  -4.1136
    -4.1074  -4.1058  -4.0859  -4.0826  -4.0783  -4.0192  -4.0075  -3.9791
    -3.9757  -3.9659  -3.9640  -3.9424  -3.9410  -3.9184  -3.9124  -3.9104
    -3.8839  -3.8331  -3.8318  -3.7845  -3.7821  -3.7304  -3.7266  -3.6737
    -3.6709  -3.6688  -3.6687  -3.6341  -3.6071  -3.5995  -3.5915  -3.5882
    -3.5860  -3.5634  -3.5568  -3.5492  -3.4950  -3.4906  -3.4861  -3.4599
    -3.4527  -3.3931  -3.3807  -3.3669  -3.3497  -3.3433  -3.3218  -3.3048
    -3.3013  -3.2824  -3.2297  -3.2260  -3.2131  -3.2097  -3.1652  -3.1566
    -3.1330  -3.1123  -3.0893  -3.0852  -3.0775  -3.0736  -3.0664  -3.0574
    -3.0560  -3.0485  -3.0222  -3.0018  -2.9673  -2.9640  -2.9542  -2.9489
    -2.9223  -2.9192  -2.9152  -2.8932  -2.8483  -2.8461  -2.8409  -2.8033
    -2.7935  -2.7826  -2.7816  -2.7611  -2.7505  -2.7219  -2.6914  -2.6819
    -2.6685  -2.6561  -2.6439  -2.6395  -2.5978  -2.5919  -2.5608  -2.5386
    -2.5357  -2.5166  -2.5113  -2.5024  -2.4989  -2.4911  -2.4723  -2.4702
    -2.4239  -2.4233  -2.4205  -2.4094  -2.4063  -2.3972  -2.3947  -2.3930
    -2.3883  -2.3850  -2.3799  -2.3754  -2.3699  -2.3608  -2.3473  -2.3312
    -2.3287  -2.3280  -2.3263  -2.3237  -2.3218  -2.3017  -2.2986  -2.2847
    -2.2800  -2.2625  -2.2613  -2.2574  -2.2520  -2.2509  -2.2484  -2.2352
    -2.2301  -2.2284  -2.2263  -2.2138  -2.1856  -2.1845  -2.1437  -2.1427
    -2.1243  -2.1210  -2.0931  -2.0917  -2.0721  -2.0638  -2.0532  -2.0433
    -2.0175  -2.0096  -1.9939  -1.9885  -1.9843  -1.9829  -1.9773  -1.9744
    -1.9486  -1.9444  -1.9398  -1.8849  -1.8748  -1.8718  -1.8689  -1.8663
    -1.8382  -1.8146  -1.8121  -1.7882  -1.7841  -1.7309  -1.7269  -1.6965
    -1.6805  -1.6757  -1.6345  -1.6177  -1.6126  -1.6037  -1.5965  -1.5938
    -1.5880  -1.5864  -1.5784  -1.5481  -1.5204  -1.5166  -1.5109  -1.5101
    -1.5010  -1.4917  -1.4640  -1.4559  -1.4464  -1.4414  -1.4387  -1.4310
    -1.4263  -1.4229  -1.4155  -1.3993  -1.3953  -1.3723  -1.3551  -1.3493
    -1.3449  -1.3286  -1.3086  -1.2797  -1.2682  -1.2455  -1.2400  -1.2366
    -1.2120  -1.1795  -1.1567  -1.1534  -1.1506  -1.1490  -1.1463  -1.1390
    -1.1266  -1.1192  -1.0888  -1.0764  -1.0627  -1.0511  -1.0462  -1.0398
    -1.0368  -1.0312  -1.0185  -1.0164  -1.0142  -1.0112  -0.9873  -0.9770
    -0.9730  -0.9706  -0.9563  -0.9462  -0.9376  -0.9186  -0.9101  -0.9054
    -0.8800  -0.8581  -0.8510  -0.8310  -0.8158  -0.8082  -0.8015  -0.7980
    -0.7923  -0.7899  -0.7879  -0.7815  -0.7739  -0.7602  -0.7530  -0.7507
    -0.7458  -0.7430  -0.7407  -0.7079  -0.7069  -0.6943  -0.6855  -0.6767
    -0.6711  -0.6611  -0.6547  -0.6059  -0.6034  -0.5974  -0.5948  -0.5922
    -0.5900  -0.5809  -0.5696  -0.5662  -0.5600  -0.5575  -0.5557  -0.5506
    -0.5182  -0.5160  -0.5144  -0.5071  -0.5054  -0.5003  -0.4986  -0.4841
    -0.4815  -0.4804  -0.4743  -0.4407  -0.4374  -0.4307  -0.4254  -0.4239
    -0.3534  -0.3462  -0.3441  -0.3435  -0.3366  -0.3330  -0.2996  -0.2884
    -0.2863  -0.2550  -0.2535  -0.2422  -0.1364  -0.1290  -0.0312   0.3831
     0.3851   0.3903   0.3909   0.4540   0.4605   0.8369   0.8388   0.8796
     0.8819   1.0002   1.0749   1.1829   1.1904   1.4053   1.4230   2.0375
     2.0395   2.1982   2.2018   2.3334   2.3404   2.4345   2.4354   2.5890
     2.8268   2.8431   2.9548   3.1760   3.1828   3.2545   3.2572   3.3571
     3.3739   3.5734   3.5918   3.6288   3.8284   3.8337   3.8950   3.8975
     4.1479   4.1595   4.1647   4.3992   4.4379   4.4437   4.4881   4.8152
     4.8271   4.8508   4.9842   5.1603   5.1640   5.2178   5.2415   5.5314
     5.8192   5.9333   5.9425   5.9523   5.9601   6.0142   6.0253   6.1005
     6.1300   6.1548   6.1609   6.1894   6.1946   6.2114   6.2317   6.2447
     6.2523   6.4454   6.5750   6.7047   6.7638   6.8071   6.8834   6.8962
     6.9076   7.0072   7.0182

          k = 0.2500-0.1443 0.1111 (136898 PWs)   bands (ev):

   -19.0054  -7.3127  -6.5330  -5.7436  -5.4516  -5.3949  -5.3926  -4.8566
    -4.8555  -4.7246  -4.7234  -4.5703  -4.5446  -4.4766  -4.4451  -4.4410
    -4.4105  -4.4089  -4.2815  -4.2404  -4.2394  -4.1798  -4.1595  -4.1575
    -4.0569  -4.0562  -4.0203  -4.0199  -4.0190  -3.9948  -3.9723  -3.9705
    -3.8731  -3.8663  -3.8637  -3.8454  -3.8273  -3.8264  -3.8164  -3.8153
    -3.8047  -3.7729  -3.7722  -3.7702  -3.7698  -3.7416  -3.7395  -3.7219
    -3.7200  -3.7143  -3.6773  -3.6670  -3.6334  -3.6232  -3.6199  -3.6115
    -3.6105  -3.5381  -3.5372  -3.5087  -3.5034  -3.4992  -3.4357  -3.4314
    -3.4164  -3.4152  -3.4027  -3.3890  -3.3879  -3.3845  -3.3313  -3.2306
    -3.2293  -3.2106  -3.2033  -3.1859  -3.1842  -3.1650  -3.1589  -3.1484
    -3.1094  -3.1077  -3.0940  -3.0893  -3.0713  -3.0254  -3.0165  -3.0048
    -2.9993  -2.9950  -2.9599  -2.9556  -2.9486  -2.9461  -2.9357  -2.9311
    -2.8971  -2.8951  -2.8738  -2.8717  -2.8698  -2.8663  -2.8629  -2.7948
    -2.7898  -2.7863  -2.7583  -2.7573  -2.7003  -2.6913  -2.6701  -2.6677
    -2.6566  -2.6540  -2.6467  -2.6219  -2.6177  -2.6085  -2.5947  -2.5739
    -2.5657  -2.5627  -2.5477  -2.5449  -2.5382  -2.5331  -2.5313  -2.5260
    -2.5196  -2.4743  -2.4471  -2.4428  -2.4286  -2.4158  -2.4117  -2.4069
    -2.4018  -2.3991  -2.3966  -2.3718  -2.3681  -2.3652  -2.3584  -2.3564
    -2.3445  -2.3191  -2.3169  -2.3151  -2.3119  -2.3112  -2.2650  -2.2395
    -2.2373  -2.2332  -2.2291  -2.2173  -2.2133  -2.2047  -2.1887  -2.1880
    -2.1637  -2.1575  -2.1548  -2.1452  -2.1367  -2.1330  -2.1110  -2.1015
    -2.0689  -2.0603  -2.0562  -2.0542  -2.0521  -2.0486  -2.0446  -2.0424
    -2.0393  -2.0382  -2.0306  -2.0210  -2.0154  -1.9077  -1.8901  -1.8747
    -1.8553  -1.8493  -1.8438  -1.8426  -1.8343  -1.8271  -1.8259  -1.8239
    -1.8204  -1.8014  -1.7986  -1.7919  -1.7841  -1.7814  -1.7772  -1.7579
    -1.7559  -1.7288  -1.7276  -1.7079  -1.7004  -1.6882  -1.6798  -1.6611
    -1.6591  -1.6558  -1.6408  -1.6279  -1.6244  -1.6189  -1.6171  -1.5986
    -1.5930  -1.5813  -1.5729  -1.5456  -1.5389  -1.5356  -1.4927  -1.4817
    -1.4724  -1.4660  -1.4646  -1.4410  -1.4381  -1.4113  -1.4078  -1.4047
    -1.3828  -1.3655  -1.3626  -1.3464  -1.3443  -1.3293  -1.3200  -1.3155
    -1.2932  -1.2867  -1.2843  -1.2310  -1.2219  -1.2166  -1.2100  -1.2043
    -1.1935  -1.1829  -1.1808  -1.1627  -1.1491  -1.1348  -1.1199  -1.1101
    -1.0955  -1.0728  -1.0708  -1.0644  -1.0587  -1.0565  -1.0549  -1.0529
    -1.0360  -1.0212  -1.0100  -1.0004  -0.9949  -0.9941  -0.9899  -0.9755
    -0.9579  -0.9497  -0.9338  -0.9294  -0.8815  -0.8369  -0.8284  -0.8216
    -0.8199  -0.8129  -0.8086  -0.7992  -0.7892  -0.7759  -0.7699  -0.7581
    -0.7558  -0.7517  -0.7415  -0.7284  -0.7220  -0.7150  -0.6969  -0.6398
    -0.6386  -0.6073  -0.6031  -0.6006  -0.5954  -0.5933  -0.5922  -0.5887
    -0.5802  -0.5748  -0.5574  -0.5371  -0.5204  -0.5071  -0.5044  -0.4943
    -0.4934  -0.4853  -0.4807  -0.4794  -0.4772  -0.4744  -0.4613  -0.4563
    -0.4554  -0.4267  -0.4241  -0.4226  -0.4103  -0.4102  -0.3910  -0.3603
    -0.3588  -0.3503  -0.3487  -0.2831  -0.2814  -0.2491  -0.2466  -0.1919
    -0.1894  -0.1859  -0.1652  -0.1648   0.0689   0.0811   0.4138   0.4143
     0.5061   0.5188   0.7032   0.7302   0.7345   0.8592   0.8642   1.2935
     1.2952   1.3123   1.5782   1.6040   1.6054   1.8813   1.8961   1.9564
     1.9601   1.9855   1.9982   2.2131   2.2165   2.3053   2.3064   2.3882
     2.4445   2.4621   2.6104   2.7119   3.1427   3.1468   3.1503   3.1538
     3.2018   3.2081   3.4971   3.4992   3.7784   3.7875   3.8963   4.1958
     4.2320   4.2395   4.4548   4.4837   4.5331   4.5405   4.6294   4.7476
     4.7518   4.8631   4.8655   5.1637   5.2308   5.2409   5.3677   5.4318
     5.4609   5.6220   5.6259   5.6511   5.6550   5.7119   5.7153   5.7614
     5.8847   6.0725   6.2878   6.3175   6.3726   6.4481   6.4573   6.4688
     6.4727   6.5320   6.6540   6.7047   6.7167   6.8546   6.9340   6.9542
     6.9685   7.0413   7.0837

          k =-0.2500-0.4330 0.1111 (136853 PWs)   bands (ev):

   -19.0054  -7.3122  -6.3242  -5.9267  -5.9253  -5.2483  -4.9166  -4.9154
    -4.8773  -4.8753  -4.5170  -4.5152  -4.4184  -4.4168  -4.4035  -4.3803
    -4.3652  -4.2515  -4.2485  -4.2255  -4.1831  -4.1824  -4.1141  -4.1136
    -4.1074  -4.1058  -4.0859  -4.0826  -4.0783  -4.0192  -4.0075  -3.9791
    -3.9757  -3.9659  -3.9640  -3.9424  -3.9410  -3.9184  -3.9124  -3.9104
    -3.8839  -3.8331  -3.8318  -3.7845  -3.7821  -3.7304  -3.7266  -3.6737
    -3.6709  -3.6688  -3.6687  -3.6341  -3.6071  -3.5995  -3.5915  -3.5882
    -3.5860  -3.5634  -3.5568  -3.5492  -3.4950  -3.4906  -3.4861  -3.4599
    -3.4527  -3.3931  -3.3807  -3.3669  -3.3497  -3.3433  -3.3218  -3.3048
    -3.3013  -3.2824  -3.2297  -3.2260  -3.2131  -3.2097  -3.1652  -3.1566
    -3.1330  -3.1123  -3.0893  -3.0852  -3.0775  -3.0736  -3.0664  -3.0574
    -3.0560  -3.0485  -3.0222  -3.0018  -2.9673  -2.9640  -2.9542  -2.9489
    -2.9223  -2.9192  -2.9152  -2.8932  -2.8483  -2.8461  -2.8409  -2.8033
    -2.7935  -2.7826  -2.7816  -2.7611  -2.7505  -2.7219  -2.6914  -2.6819
    -2.6685  -2.6561  -2.6439  -2.6395  -2.5978  -2.5919  -2.5608  -2.5386
    -2.5357  -2.5166  -2.5113  -2.5024  -2.4989  -2.4911  -2.4723  -2.4702
    -2.4239  -2.4233  -2.4205  -2.4094  -2.4063  -2.3972  -2.3947  -2.3930
    -2.3883  -2.3850  -2.3799  -2.3754  -2.3699  -2.3608  -2.3473  -2.3312
    -2.3287  -2.3280  -2.3263  -2.3237  -2.3218  -2.3017  -2.2986  -2.2847
    -2.2800  -2.2625  -2.2613  -2.2574  -2.2520  -2.2509  -2.2484  -2.2352
    -2.2301  -2.2284  -2.2263  -2.2138  -2.1856  -2.1845  -2.1437  -2.1427
    -2.1243  -2.1210  -2.0931  -2.0917  -2.0721  -2.0638  -2.0532  -2.0433
    -2.0175  -2.0096  -1.9939  -1.9885  -1.9843  -1.9829  -1.9773  -1.9744
    -1.9486  -1.9444  -1.9398  -1.8849  -1.8748  -1.8718  -1.8689  -1.8663
    -1.8382  -1.8146  -1.8121  -1.7882  -1.7842  -1.7309  -1.7269  -1.6965
    -1.6805  -1.6757  -1.6345  -1.6177  -1.6126  -1.6037  -1.5965  -1.5938
    -1.5880  -1.5864  -1.5784  -1.5481  -1.5204  -1.5166  -1.5109  -1.5101
    -1.5010  -1.4917  -1.4640  -1.4559  -1.4464  -1.4414  -1.4387  -1.4310
    -1.4263  -1.4229  -1.4155  -1.3993  -1.3953  -1.3723  -1.3551  -1.3493
    -1.3449  -1.3286  -1.3086  -1.2797  -1.2682  -1.2455  -1.2400  -1.2366
    -1.2120  -1.1795  -1.1567  -1.1534  -1.1506  -1.1490  -1.1463  -1.1390
    -1.1266  -1.1192  -1.0888  -1.0764  -1.0627  -1.0511  -1.0462  -1.0398
    -1.0368  -1.0312  -1.0185  -1.0164  -1.0142  -1.0112  -0.9873  -0.9770
    -0.9730  -0.9706  -0.9563  -0.9462  -0.9376  -0.9186  -0.9101  -0.9054
    -0.8800  -0.8581  -0.8510  -0.8310  -0.8158  -0.8082  -0.8015  -0.7980
    -0.7923  -0.7899  -0.7879  -0.7815  -0.7739  -0.7602  -0.7530  -0.7507
    -0.7458  -0.7430  -0.7407  -0.7079  -0.7069  -0.6943  -0.6855  -0.6767
    -0.6711  -0.6611  -0.6547  -0.6059  -0.6035  -0.5974  -0.5948  -0.5922
    -0.5900  -0.5809  -0.5696  -0.5662  -0.5600  -0.5575  -0.5557  -0.5506
    -0.5182  -0.5160  -0.5144  -0.5071  -0.5054  -0.5003  -0.4986  -0.4841
    -0.4815  -0.4804  -0.4743  -0.4407  -0.4374  -0.4307  -0.4254  -0.4239
    -0.3534  -0.3462  -0.3441  -0.3435  -0.3366  -0.3330  -0.2996  -0.2884
    -0.2863  -0.2550  -0.2535  -0.2422  -0.1364  -0.1290  -0.0312   0.3831
     0.3851   0.3903   0.3909   0.4540   0.4605   0.8369   0.8388   0.8796
     0.8819   1.0002   1.0749   1.1829   1.1904   1.4053   1.4230   2.0375
     2.0395   2.1982   2.2018   2.3334   2.3404   2.4345   2.4354   2.5890
     2.8268   2.8431   2.9548   3.1760   3.1828   3.2545   3.2572   3.3571
     3.3739   3.5734   3.5918   3.6288   3.8284   3.8337   3.8950   3.8975
     4.1479   4.1595   4.1647   4.3992   4.4379   4.4437   4.4881   4.8152
     4.8271   4.8508   4.9842   5.1603   5.1640   5.2178   5.2415   5.5315
     5.8184   5.9332   5.9424   5.9523   5.9601   6.0142   6.0252   6.1004
     6.1301   6.1551   6.1643   6.1896   6.1949   6.2113   6.2307   6.2447
     6.2528   6.4458   6.5757   6.6894   6.7638   6.8062   6.8832   6.8962
     6.9068   7.0167   7.0290

          k =-0.2500 0.4330-0.1111 (136853 PWs)   bands (ev):

   -19.0054  -7.3122  -6.3242  -5.9276  -5.9244  -5.2482  -4.9166  -4.9155
    -4.8785  -4.8741  -4.5169  -4.5153  -4.4185  -4.4167  -4.4033  -4.3803
    -4.3652  -4.2514  -4.2488  -4.2255  -4.1829  -4.1827  -4.1140  -4.1135
    -4.1074  -4.1060  -4.0860  -4.0834  -4.0773  -4.0196  -4.0073  -3.9793
    -3.9754  -3.9660  -3.9639  -3.9424  -3.9409  -3.9185  -3.9123  -3.9104
    -3.8841  -3.8334  -3.8318  -3.7850  -3.7817  -3.7306  -3.7267  -3.6742
    -3.6708  -3.6688  -3.6686  -3.6342  -3.6076  -3.5996  -3.5909  -3.5885
    -3.5860  -3.5632  -3.5566  -3.5488  -3.4952  -3.4904  -3.4854  -3.4598
    -3.4525  -3.3922  -3.3806  -3.3651  -3.3507  -3.3438  -3.3218  -3.3048
    -3.3026  -3.2829  -3.2299  -3.2263  -3.2127  -3.2100  -3.1651  -3.1564
    -3.1328  -3.1123  -3.0895  -3.0849  -3.0777  -3.0729  -3.0659  -3.0579
    -3.0562  -3.0484  -3.0226  -3.0021  -2.9678  -2.9637  -2.9545  -2.9491
    -2.9228  -2.9196  -2.9149  -2.8931  -2.8485  -2.8458  -2.8399  -2.8032
    -2.7934  -2.7829  -2.7810  -2.7601  -2.7506  -2.7220  -2.6920  -2.6817
    -2.6686  -2.6561  -2.6443  -2.6401  -2.5976  -2.5918  -2.5605  -2.5391
    -2.5358  -2.5163  -2.5115  -2.5022  -2.4993  -2.4912  -2.4723  -2.4698
    -2.4247  -2.4231  -2.4204  -2.4093  -2.4065  -2.3976  -2.3951  -2.3929
    -2.3886  -2.3851  -2.3798  -2.3754  -2.3696  -2.3621  -2.3465  -2.3309
    -2.3287  -2.3279  -2.3265  -2.3234  -2.3218  -2.3013  -2.2987  -2.2846
    -2.2797  -2.2628  -2.2608  -2.2567  -2.2520  -2.2508  -2.2487  -2.2362
    -2.2295  -2.2289  -2.2260  -2.2139  -2.1857  -2.1847  -2.1438  -2.1429
    -2.1242  -2.1212  -2.0937  -2.0914  -2.0700  -2.0636  -2.0528  -2.0432
    -2.0171  -2.0082  -1.9937  -1.9883  -1.9845  -1.9826  -1.9766  -1.9746
    -1.9485  -1.9446  -1.9398  -1.8879  -1.8748  -1.8720  -1.8690  -1.8666
    -1.8386  -1.8149  -1.8117  -1.7889  -1.7841  -1.7309  -1.7267  -1.6980
    -1.6785  -1.6755  -1.6345  -1.6170  -1.6130  -1.6038  -1.5969  -1.5941
    -1.5888  -1.5864  -1.5787  -1.5498  -1.5201  -1.5178  -1.5111  -1.5103
    -1.4998  -1.4918  -1.4628  -1.4561  -1.4456  -1.4419  -1.4386  -1.4306
    -1.4262  -1.4233  -1.4159  -1.3993  -1.3948  -1.3722  -1.3554  -1.3506
    -1.3449  -1.3286  -1.3086  -1.2780  -1.2680  -1.2463  -1.2395  -1.2365
    -1.2116  -1.1779  -1.1568  -1.1536  -1.1505  -1.1490  -1.1454  -1.1386
    -1.1270  -1.1186  -1.0903  -1.0775  -1.0656  -1.0506  -1.0455  -1.0398
    -1.0367  -1.0303  -1.0179  -1.0164  -1.0131  -1.0111  -0.9890  -0.9762
    -0.9727  -0.9710  -0.9567  -0.9448  -0.9382  -0.9212  -0.9123  -0.9035
    -0.8818  -0.8583  -0.8515  -0.8248  -0.8188  -0.8053  -0.7990  -0.7974
    -0.7922  -0.7903  -0.7862  -0.7815  -0.7741  -0.7619  -0.7532  -0.7490
    -0.7468  -0.7435  -0.7421  -0.7080  -0.7068  -0.6939  -0.6829  -0.6780
    -0.6717  -0.6618  -0.6583  -0.6049  -0.6045  -0.5973  -0.5946  -0.5910
    -0.5884  -0.5839  -0.5684  -0.5668  -0.5605  -0.5576  -0.5562  -0.5487
    -0.5187  -0.5159  -0.5145  -0.5065  -0.5055  -0.4999  -0.4976  -0.4839
    -0.4814  -0.4805  -0.4769  -0.4397  -0.4379  -0.4308  -0.4251  -0.4233
    -0.3534  -0.3459  -0.3446  -0.3436  -0.3365  -0.3336  -0.2996  -0.2886
    -0.2864  -0.2556  -0.2545  -0.2400  -0.1368  -0.1282  -0.0311   0.3832
     0.3849   0.3901   0.3911   0.4531   0.4617   0.8359   0.8394   0.8794
     0.8823   1.0004   1.0747   1.1816   1.1915   1.4045   1.4235   2.0362
     2.0409   2.1966   2.2037   2.3331   2.3407   2.4345   2.4353   2.5888
     2.8262   2.8437   2.9546   3.1747   3.1832   3.2541   3.2583   3.3566
     3.3740   3.5721   3.5926   3.6301   3.8286   3.8337   3.8952   3.8981
     4.1473   4.1584   4.1652   4.4000   4.4379   4.4431   4.4883   4.8152
     4.8274   4.8486   4.9852   5.1608   5.1640   5.2170   5.2425   5.5307
     5.8217   5.9346   5.9409   5.9514   5.9603   6.0138   6.0256   6.1007
     6.1307   6.1546   6.1650   6.1880   6.1974   6.2106   6.2312   6.2437
     6.2528   6.4465   6.5728   6.6898   6.7644   6.8033   6.8805   6.8976
     6.9067   7.0155   7.0323

          k = 0.2500-0.4330-0.1111 (136853 PWs)   bands (ev):

   -19.0054  -7.3122  -6.3242  -5.9276  -5.9244  -5.2482  -4.9166  -4.9155
    -4.8785  -4.8741  -4.5169  -4.5153  -4.4185  -4.4167  -4.4033  -4.3803
    -4.3652  -4.2514  -4.2488  -4.2255  -4.1829  -4.1827  -4.1140  -4.1135
    -4.1074  -4.1060  -4.0860  -4.0834  -4.0773  -4.0196  -4.0073  -3.9793
    -3.9754  -3.9660  -3.9639  -3.9424  -3.9409  -3.9185  -3.9123  -3.9104
    -3.8841  -3.8334  -3.8318  -3.7850  -3.7817  -3.7306  -3.7267  -3.6742
    -3.6708  -3.6688  -3.6686  -3.6342  -3.6076  -3.5996  -3.5909  -3.5885
    -3.5860  -3.5632  -3.5566  -3.5488  -3.4952  -3.4904  -3.4854  -3.4598
    -3.4525  -3.3922  -3.3806  -3.3651  -3.3507  -3.3438  -3.3218  -3.3048
    -3.3026  -3.2829  -3.2299  -3.2263  -3.2127  -3.2100  -3.1651  -3.1564
    -3.1328  -3.1123  -3.0895  -3.0849  -3.0777  -3.0729  -3.0659  -3.0579
    -3.0562  -3.0484  -3.0226  -3.0021  -2.9678  -2.9637  -2.9545  -2.9491
    -2.9228  -2.9196  -2.9149  -2.8931  -2.8486  -2.8458  -2.8399  -2.8032
    -2.7934  -2.7829  -2.7810  -2.7601  -2.7506  -2.7220  -2.6920  -2.6817
    -2.6686  -2.6561  -2.6443  -2.6401  -2.5976  -2.5918  -2.5605  -2.5390
    -2.5358  -2.5163  -2.5115  -2.5022  -2.4993  -2.4912  -2.4723  -2.4698
    -2.4247  -2.4231  -2.4204  -2.4093  -2.4065  -2.3976  -2.3951  -2.3929
    -2.3886  -2.3851  -2.3798  -2.3754  -2.3696  -2.3621  -2.3465  -2.3309
    -2.3286  -2.3279  -2.3265  -2.3234  -2.3218  -2.3013  -2.2987  -2.2846
    -2.2797  -2.2628  -2.2608  -2.2567  -2.2520  -2.2508  -2.2487  -2.2362
    -2.2295  -2.2289  -2.2260  -2.2139  -2.1857  -2.1847  -2.1438  -2.1429
    -2.1242  -2.1212  -2.0937  -2.0914  -2.0700  -2.0636  -2.0528  -2.0432
    -2.0171  -2.0082  -1.9937  -1.9883  -1.9845  -1.9826  -1.9766  -1.9746
    -1.9485  -1.9446  -1.9398  -1.8879  -1.8748  -1.8720  -1.8690  -1.8666
    -1.8386  -1.8149  -1.8117  -1.7889  -1.7841  -1.7309  -1.7267  -1.6980
    -1.6785  -1.6755  -1.6345  -1.6170  -1.6130  -1.6038  -1.5969  -1.5941
    -1.5888  -1.5864  -1.5787  -1.5498  -1.5201  -1.5178  -1.5111  -1.5103
    -1.4998  -1.4918  -1.4628  -1.4561  -1.4456  -1.4419  -1.4386  -1.4306
    -1.4262  -1.4233  -1.4159  -1.3993  -1.3948  -1.3722  -1.3554  -1.3506
    -1.3449  -1.3286  -1.3086  -1.2780  -1.2680  -1.2463  -1.2395  -1.2365
    -1.2116  -1.1779  -1.1568  -1.1536  -1.1505  -1.1490  -1.1454  -1.1386
    -1.1270  -1.1186  -1.0903  -1.0775  -1.0656  -1.0506  -1.0455  -1.0398
    -1.0367  -1.0303  -1.0179  -1.0164  -1.0131  -1.0111  -0.9890  -0.9762
    -0.9727  -0.9710  -0.9567  -0.9448  -0.9382  -0.9212  -0.9123  -0.9035
    -0.8818  -0.8583  -0.8515  -0.8248  -0.8188  -0.8053  -0.7990  -0.7974
    -0.7922  -0.7903  -0.7862  -0.7815  -0.7741  -0.7619  -0.7532  -0.7490
    -0.7468  -0.7435  -0.7421  -0.7080  -0.7068  -0.6939  -0.6829  -0.6780
    -0.6717  -0.6618  -0.6583  -0.6049  -0.6045  -0.5973  -0.5946  -0.5910
    -0.5884  -0.5839  -0.5684  -0.5668  -0.5605  -0.5576  -0.5562  -0.5487
    -0.5187  -0.5159  -0.5145  -0.5065  -0.5055  -0.4999  -0.4976  -0.4839
    -0.4814  -0.4805  -0.4769  -0.4397  -0.4379  -0.4308  -0.4251  -0.4233
    -0.3534  -0.3459  -0.3446  -0.3436  -0.3365  -0.3336  -0.2996  -0.2886
    -0.2864  -0.2556  -0.2545  -0.2400  -0.1368  -0.1282  -0.0311   0.3832
     0.3849   0.3901   0.3911   0.4531   0.4617   0.8359   0.8394   0.8794
     0.8823   1.0004   1.0747   1.1816   1.1915   1.4045   1.4235   2.0362
     2.0409   2.1966   2.2037   2.3331   2.3407   2.4345   2.4353   2.5888
     2.8262   2.8437   2.9546   3.1747   3.1832   3.2541   3.2583   3.3566
     3.3740   3.5721   3.5926   3.6301   3.8286   3.8337   3.8952   3.8981
     4.1473   4.1584   4.1652   4.4000   4.4379   4.4431   4.4883   4.8152
     4.8274   4.8486   4.9852   5.1608   5.1640   5.2170   5.2425   5.5306
     5.8225   5.9347   5.9410   5.9514   5.9604   6.0138   6.0257   6.1010
     6.1305   6.1544   6.1616   6.1879   6.1967   6.2107   6.2322   6.2437
     6.2524   6.4460   6.5722   6.7055   6.7645   6.8045   6.8806   6.8978
     6.9076   7.0084   7.0177

          k = 0.5000 0.0000 0.1111 (136853 PWs)   bands (ev):

   -19.0054  -7.3122  -6.3241  -5.9268  -5.9252  -5.2482  -4.9177  -4.9144
    -4.8785  -4.8742  -4.5175  -4.5144  -4.4178  -4.4173  -4.4030  -4.3803
    -4.3652  -4.2519  -4.2489  -4.2259  -4.1834  -4.1821  -4.1142  -4.1133
    -4.1088  -4.1045  -4.0864  -4.0836  -4.0771  -4.0195  -4.0075  -3.9807
    -3.9747  -3.9655  -3.9640  -3.9416  -3.9411  -3.9187  -3.9114  -3.9107
    -3.8841  -3.8328  -3.8323  -3.7859  -3.7815  -3.7302  -3.7277  -3.6725
    -3.6718  -3.6689  -3.6685  -3.6346  -3.6047  -3.6018  -3.5892  -3.5875
    -3.5870  -3.5615  -3.5563  -3.5493  -3.4969  -3.4911  -3.4852  -3.4595
    -3.4533  -3.3968  -3.3798  -3.3606  -3.3480  -3.3414  -3.3197  -3.3122
    -3.3039  -3.2868  -3.2316  -3.2255  -3.2112  -3.2092  -3.1618  -3.1568
    -3.1321  -3.1149  -3.0850  -3.0800  -3.0749  -3.0711  -3.0685  -3.0595
    -3.0564  -3.0491  -3.0281  -3.0044  -2.9681  -2.9641  -2.9556  -2.9506
    -2.9248  -2.9190  -2.9133  -2.8935  -2.8482  -2.8457  -2.8348  -2.8040
    -2.7935  -2.7823  -2.7814  -2.7540  -2.7457  -2.7228  -2.6950  -2.6822
    -2.6684  -2.6565  -2.6488  -2.6429  -2.5962  -2.5924  -2.5597  -2.5417
    -2.5365  -2.5122  -2.5116  -2.5021  -2.4982  -2.4920  -2.4706  -2.4686
    -2.4245  -2.4234  -2.4218  -2.4084  -2.4069  -2.3977  -2.3967  -2.3937
    -2.3875  -2.3853  -2.3826  -2.3793  -2.3685  -2.3662  -2.3443  -2.3304
    -2.3291  -2.3281  -2.3264  -2.3243  -2.3199  -2.2986  -2.2979  -2.2824
    -2.2774  -2.2622  -2.2617  -2.2583  -2.2527  -2.2513  -2.2469  -2.2372
    -2.2307  -2.2285  -2.2251  -2.2139  -2.1856  -2.1847  -2.1437  -2.1426
    -2.1250  -2.1217  -2.0983  -2.0909  -2.0661  -2.0635  -2.0471  -2.0433
    -2.0210  -2.0063  -1.9943  -1.9887  -1.9863  -1.9821  -1.9766  -1.9737
    -1.9487  -1.9430  -1.9390  -1.8913  -1.8742  -1.8734  -1.8687  -1.8668
    -1.8451  -1.8156  -1.8114  -1.7888  -1.7841  -1.7305  -1.7267  -1.6964
    -1.6789  -1.6753  -1.6336  -1.6152  -1.6106  -1.6053  -1.5968  -1.5928
    -1.5876  -1.5860  -1.5786  -1.5396  -1.5230  -1.5189  -1.5106  -1.5101
    -1.4933  -1.4922  -1.4761  -1.4576  -1.4434  -1.4418  -1.4397  -1.4322
    -1.4298  -1.4233  -1.4157  -1.3982  -1.3961  -1.3634  -1.3567  -1.3479
    -1.3441  -1.3286  -1.3093  -1.2858  -1.2672  -1.2519  -1.2395  -1.2377
    -1.2098  -1.1730  -1.1588  -1.1536  -1.1515  -1.1501  -1.1452  -1.1374
    -1.1250  -1.1207  -1.0951  -1.0760  -1.0637  -1.0527  -1.0430  -1.0413
    -1.0362  -1.0256  -1.0206  -1.0164  -1.0150  -1.0115  -0.9886  -0.9746
    -0.9724  -0.9718  -0.9467  -0.9414  -0.9379  -0.9217  -0.9110  -0.9037
    -0.8837  -0.8604  -0.8519  -0.8310  -0.8169  -0.8099  -0.7987  -0.7967
    -0.7920  -0.7906  -0.7869  -0.7853  -0.7750  -0.7571  -0.7530  -0.7503
    -0.7449  -0.7440  -0.7390  -0.7078  -0.7068  -0.6968  -0.6898  -0.6759
    -0.6729  -0.6613  -0.6525  -0.6052  -0.6033  -0.5984  -0.5941  -0.5921
    -0.5892  -0.5862  -0.5690  -0.5672  -0.5592  -0.5579  -0.5564  -0.5501
    -0.5216  -0.5150  -0.5142  -0.5067  -0.5054  -0.5011  -0.4968  -0.4860
    -0.4806  -0.4789  -0.4742  -0.4396  -0.4383  -0.4309  -0.4257  -0.4234
    -0.3523  -0.3459  -0.3443  -0.3428  -0.3357  -0.3338  -0.2992  -0.2882
    -0.2867  -0.2558  -0.2542  -0.2410  -0.1315  -0.1284  -0.0282   0.3834
     0.3842   0.3905   0.3909   0.4506   0.4613   0.8328   0.8392   0.8786
     0.8839   1.0014   1.0765   1.1811   1.1950   1.4015   1.4258   2.0335
     2.0414   2.1946   2.2067   2.3289   2.3451   2.4339   2.4358   2.5887
     2.8247   2.8455   2.9532   3.1719   3.1836   3.2528   3.2598   3.3533
     3.3744   3.5647   3.5994   3.6260   3.8295   3.8337   3.8944   3.9036
     4.1497   4.1558   4.1658   4.3996   4.4394   4.4462   4.4852   4.8147
     4.8260   4.8525   4.9887   5.1620   5.1649   5.2119   5.2540   5.5339
     5.8067   5.9364   5.9469   5.9562   5.9581   6.0146   6.0236   6.0956
     6.1331   6.1490   6.1617   6.1878   6.1954   6.2028   6.2296   6.2466
     6.2588   6.4451   6.5804   6.6933   6.7658   6.8180   6.8839   6.8958
     6.9039   7.0114   7.0218

          k =-0.5000 0.0000 0.1111 (136853 PWs)   bands (ev):

   -19.0054  -7.3122  -6.3241  -5.9268  -5.9252  -5.2482  -4.9177  -4.9144
    -4.8785  -4.8742  -4.5175  -4.5144  -4.4178  -4.4173  -4.4030  -4.3803
    -4.3652  -4.2519  -4.2489  -4.2259  -4.1834  -4.1821  -4.1142  -4.1133
    -4.1088  -4.1045  -4.0864  -4.0836  -4.0771  -4.0195  -4.0075  -3.9807
    -3.9747  -3.9655  -3.9640  -3.9416  -3.9411  -3.9187  -3.9114  -3.9107
    -3.8841  -3.8328  -3.8323  -3.7859  -3.7815  -3.7302  -3.7277  -3.6725
    -3.6718  -3.6689  -3.6685  -3.6346  -3.6047  -3.6018  -3.5892  -3.5875
    -3.5870  -3.5615  -3.5563  -3.5493  -3.4969  -3.4911  -3.4852  -3.4595
    -3.4533  -3.3968  -3.3798  -3.3606  -3.3480  -3.3414  -3.3197  -3.3122
    -3.3039  -3.2868  -3.2316  -3.2255  -3.2112  -3.2092  -3.1618  -3.1568
    -3.1321  -3.1149  -3.0850  -3.0800  -3.0749  -3.0711  -3.0685  -3.0595
    -3.0564  -3.0491  -3.0281  -3.0044  -2.9681  -2.9641  -2.9556  -2.9506
    -2.9248  -2.9190  -2.9133  -2.8935  -2.8482  -2.8457  -2.8348  -2.8040
    -2.7935  -2.7823  -2.7814  -2.7540  -2.7457  -2.7228  -2.6950  -2.6822
    -2.6684  -2.6565  -2.6488  -2.6429  -2.5962  -2.5924  -2.5597  -2.5417
    -2.5365  -2.5122  -2.5116  -2.5021  -2.4982  -2.4920  -2.4706  -2.4686
    -2.4246  -2.4234  -2.4218  -2.4084  -2.4069  -2.3977  -2.3967  -2.3937
    -2.3875  -2.3853  -2.3826  -2.3793  -2.3685  -2.3662  -2.3443  -2.3304
    -2.3291  -2.3281  -2.3264  -2.3243  -2.3199  -2.2986  -2.2979  -2.2824
    -2.2774  -2.2622  -2.2617  -2.2583  -2.2527  -2.2513  -2.2469  -2.2372
    -2.2307  -2.2285  -2.2251  -2.2139  -2.1856  -2.1847  -2.1437  -2.1426
    -2.1250  -2.1217  -2.0983  -2.0909  -2.0661  -2.0635  -2.0471  -2.0433
    -2.0210  -2.0063  -1.9943  -1.9887  -1.9863  -1.9821  -1.9766  -1.9737
    -1.9487  -1.9430  -1.9390  -1.8913  -1.8742  -1.8734  -1.8687  -1.8668
    -1.8451  -1.8156  -1.8114  -1.7888  -1.7841  -1.7305  -1.7267  -1.6964
    -1.6789  -1.6753  -1.6336  -1.6152  -1.6106  -1.6053  -1.5968  -1.5928
    -1.5876  -1.5860  -1.5786  -1.5396  -1.5230  -1.5189  -1.5106  -1.5101
    -1.4933  -1.4922  -1.4761  -1.4576  -1.4434  -1.4418  -1.4397  -1.4322
    -1.4298  -1.4233  -1.4157  -1.3982  -1.3961  -1.3634  -1.3567  -1.3479
    -1.3441  -1.3286  -1.3093  -1.2858  -1.2672  -1.2519  -1.2395  -1.2377
    -1.2098  -1.1730  -1.1588  -1.1536  -1.1515  -1.1501  -1.1452  -1.1374
    -1.1250  -1.1207  -1.0951  -1.0760  -1.0637  -1.0527  -1.0430  -1.0413
    -1.0362  -1.0256  -1.0206  -1.0164  -1.0150  -1.0115  -0.9886  -0.9746
    -0.9724  -0.9718  -0.9467  -0.9414  -0.9379  -0.9217  -0.9110  -0.9037
    -0.8837  -0.8604  -0.8519  -0.8310  -0.8169  -0.8099  -0.7987  -0.7967
    -0.7920  -0.7906  -0.7869  -0.7853  -0.7750  -0.7571  -0.7530  -0.7503
    -0.7449  -0.7440  -0.7390  -0.7078  -0.7068  -0.6968  -0.6898  -0.6759
    -0.6729  -0.6613  -0.6525  -0.6052  -0.6033  -0.5984  -0.5941  -0.5921
    -0.5892  -0.5862  -0.5690  -0.5672  -0.5592  -0.5579  -0.5564  -0.5501
    -0.5216  -0.5150  -0.5142  -0.5067  -0.5054  -0.5011  -0.4968  -0.4860
    -0.4806  -0.4789  -0.4742  -0.4396  -0.4383  -0.4309  -0.4257  -0.4234
    -0.3523  -0.3459  -0.3443  -0.3428  -0.3357  -0.3338  -0.2992  -0.2882
    -0.2867  -0.2558  -0.2542  -0.2410  -0.1315  -0.1284  -0.0282   0.3834
     0.3842   0.3905   0.3909   0.4506   0.4613   0.8328   0.8392   0.8786
     0.8839   1.0014   1.0765   1.1811   1.1950   1.4015   1.4258   2.0335
     2.0414   2.1946   2.2067   2.3289   2.3451   2.4339   2.4358   2.5887
     2.8247   2.8455   2.9532   3.1719   3.1836   3.2528   3.2598   3.3533
     3.3744   3.5647   3.5994   3.6260   3.8295   3.8337   3.8944   3.9036
     4.1497   4.1558   4.1658   4.3996   4.4394   4.4462   4.4852   4.8147
     4.8260   4.8525   4.9887   5.1620   5.1649   5.2119   5.2540   5.5339
     5.8067   5.9364   5.9468   5.9563   5.9581   6.0146   6.0236   6.0956
     6.1331   6.1490   6.1617   6.1878   6.1954   6.2027   6.2296   6.2466
     6.2588   6.4451   6.5802   6.6932   6.7662   6.8186   6.8839   6.8961
     6.9041   7.0114   7.0213

          k =-0.2500 0.1443 0.1111 (136898 PWs)   bands (ev):

   -19.0054  -7.3127  -6.5330  -5.7436  -5.4516  -5.3949  -5.3926  -4.8566
    -4.8555  -4.7246  -4.7234  -4.5703  -4.5446  -4.4766  -4.4451  -4.4410
    -4.4105  -4.4089  -4.2815  -4.2404  -4.2394  -4.1798  -4.1595  -4.1575
    -4.0569  -4.0562  -4.0203  -4.0199  -4.0190  -3.9948  -3.9723  -3.9705
    -3.8731  -3.8663  -3.8637  -3.8454  -3.8273  -3.8264  -3.8164  -3.8153
    -3.8047  -3.7729  -3.7722  -3.7702  -3.7698  -3.7416  -3.7395  -3.7219
    -3.7200  -3.7143  -3.6773  -3.6670  -3.6334  -3.6232  -3.6199  -3.6115
    -3.6105  -3.5381  -3.5372  -3.5087  -3.5034  -3.4992  -3.4357  -3.4314
    -3.4164  -3.4152  -3.4027  -3.3890  -3.3879  -3.3845  -3.3313  -3.2306
    -3.2293  -3.2106  -3.2033  -3.1859  -3.1842  -3.1650  -3.1589  -3.1484
    -3.1094  -3.1077  -3.0940  -3.0893  -3.0713  -3.0254  -3.0165  -3.0049
    -2.9993  -2.9950  -2.9599  -2.9556  -2.9486  -2.9461  -2.9357  -2.9311
    -2.8971  -2.8951  -2.8738  -2.8717  -2.8698  -2.8663  -2.8629  -2.7948
    -2.7898  -2.7863  -2.7583  -2.7573  -2.7003  -2.6913  -2.6701  -2.6677
    -2.6566  -2.6540  -2.6467  -2.6219  -2.6177  -2.6085  -2.5947  -2.5739
    -2.5657  -2.5627  -2.5477  -2.5449  -2.5382  -2.5331  -2.5313  -2.5260
    -2.5196  -2.4743  -2.4471  -2.4428  -2.4286  -2.4158  -2.4117  -2.4069
    -2.4018  -2.3991  -2.3966  -2.3718  -2.3681  -2.3652  -2.3584  -2.3564
    -2.3445  -2.3191  -2.3169  -2.3151  -2.3119  -2.3112  -2.2650  -2.2395
    -2.2373  -2.2332  -2.2291  -2.2173  -2.2133  -2.2047  -2.1887  -2.1880
    -2.1637  -2.1575  -2.1548  -2.1452  -2.1367  -2.1330  -2.1109  -2.1015
    -2.0689  -2.0603  -2.0562  -2.0542  -2.0521  -2.0486  -2.0446  -2.0424
    -2.0393  -2.0382  -2.0306  -2.0210  -2.0154  -1.9077  -1.8901  -1.8747
    -1.8553  -1.8493  -1.8438  -1.8426  -1.8343  -1.8271  -1.8259  -1.8239
    -1.8204  -1.8014  -1.7986  -1.7919  -1.7841  -1.7814  -1.7772  -1.7579
    -1.7559  -1.7288  -1.7276  -1.7079  -1.7004  -1.6882  -1.6798  -1.6611
    -1.6591  -1.6558  -1.6408  -1.6279  -1.6244  -1.6189  -1.6171  -1.5986
    -1.5930  -1.5813  -1.5729  -1.5456  -1.5389  -1.5356  -1.4927  -1.4817
    -1.4724  -1.4660  -1.4646  -1.4410  -1.4381  -1.4113  -1.4078  -1.4047
    -1.3828  -1.3655  -1.3626  -1.3464  -1.3443  -1.3293  -1.3200  -1.3155
    -1.2932  -1.2867  -1.2843  -1.2310  -1.2220  -1.2166  -1.2100  -1.2043
    -1.1935  -1.1829  -1.1808  -1.1627  -1.1491  -1.1348  -1.1199  -1.1101
    -1.0955  -1.0728  -1.0708  -1.0644  -1.0587  -1.0565  -1.0549  -1.0529
    -1.0360  -1.0212  -1.0100  -1.0004  -0.9949  -0.9941  -0.9899  -0.9755
    -0.9579  -0.9497  -0.9338  -0.9294  -0.8815  -0.8369  -0.8284  -0.8216
    -0.8199  -0.8129  -0.8086  -0.7992  -0.7892  -0.7759  -0.7699  -0.7581
    -0.7558  -0.7517  -0.7415  -0.7284  -0.7220  -0.7150  -0.6969  -0.6399
    -0.6386  -0.6073  -0.6031  -0.6006  -0.5954  -0.5933  -0.5922  -0.5887
    -0.5802  -0.5748  -0.5574  -0.5371  -0.5205  -0.5071  -0.5044  -0.4943
    -0.4934  -0.4853  -0.4807  -0.4794  -0.4772  -0.4744  -0.4613  -0.4563
    -0.4554  -0.4267  -0.4241  -0.4226  -0.4103  -0.4102  -0.3910  -0.3603
    -0.3588  -0.3503  -0.3487  -0.2831  -0.2814  -0.2491  -0.2466  -0.1919
    -0.1894  -0.1859  -0.1652  -0.1648   0.0689   0.0811   0.4138   0.4143
     0.5061   0.5188   0.7032   0.7302   0.7345   0.8592   0.8642   1.2935
     1.2952   1.3123   1.5782   1.6040   1.6054   1.8813   1.8961   1.9564
     1.9601   1.9855   1.9982   2.2131   2.2165   2.3053   2.3064   2.3882
     2.4445   2.4621   2.6104   2.7119   3.1427   3.1468   3.1503   3.1538
     3.2018   3.2081   3.4971   3.4992   3.7784   3.7875   3.8963   4.1958
     4.2320   4.2395   4.4548   4.4837   4.5331   4.5405   4.6294   4.7476
     4.7518   4.8631   4.8655   5.1637   5.2308   5.2409   5.3678   5.4319
     5.4607   5.6220   5.6259   5.6511   5.6551   5.7119   5.7154   5.7610
     5.8862   6.0697   6.2867   6.3175   6.3722   6.4478   6.4573   6.4696
     6.4725   6.5381   6.6597   6.7052   6.7166   6.8522   6.9320   6.9536
     6.9693   7.0385   7.0795

          k =-0.2500-0.1443-0.1111 (136898 PWs)   bands (ev):

   -19.0054  -7.3127  -6.5330  -5.7436  -5.4516  -5.3949  -5.3926  -4.8566
    -4.8554  -4.7250  -4.7231  -4.5703  -4.5446  -4.4767  -4.4451  -4.4410
    -4.4106  -4.4087  -4.2815  -4.2400  -4.2398  -4.1797  -4.1596  -4.1576
    -4.0569  -4.0561  -4.0204  -4.0199  -4.0190  -3.9947  -3.9726  -3.9702
    -3.8729  -3.8660  -3.8640  -3.8452  -3.8272  -3.8266  -3.8166  -3.8153
    -3.8045  -3.7731  -3.7721  -3.7702  -3.7697  -3.7416  -3.7398  -3.7218
    -3.7199  -3.7137  -3.6782  -3.6671  -3.6336  -3.6233  -3.6198  -3.6115
    -3.6105  -3.5382  -3.5372  -3.5081  -3.5035  -3.4991  -3.4367  -3.4315
    -3.4162  -3.4151  -3.4024  -3.3891  -3.3877  -3.3849  -3.3322  -3.2301
    -3.2292  -3.2107  -3.2037  -3.1859  -3.1843  -3.1647  -3.1587  -3.1489
    -3.1092  -3.1076  -3.0935  -3.0888  -3.0713  -3.0252  -3.0174  -3.0046
    -2.9994  -2.9949  -2.9597  -2.9553  -2.9489  -2.9466  -2.9357  -2.9306
    -2.8969  -2.8949  -2.8741  -2.8716  -2.8697  -2.8669  -2.8628  -2.7945
    -2.7898  -2.7862  -2.7583  -2.7572  -2.7013  -2.6918  -2.6692  -2.6677
    -2.6563  -2.6538  -2.6467  -2.6222  -2.6177  -2.6085  -2.5940  -2.5743
    -2.5658  -2.5624  -2.5478  -2.5446  -2.5378  -2.5334  -2.5315  -2.5263
    -2.5196  -2.4742  -2.4472  -2.4433  -2.4289  -2.4159  -2.4116  -2.4069
    -2.4015  -2.3992  -2.3968  -2.3720  -2.3679  -2.3654  -2.3580  -2.3566
    -2.3444  -2.3182  -2.3166  -2.3158  -2.3118  -2.3110  -2.2652  -2.2392
    -2.2376  -2.2333  -2.2294  -2.2175  -2.2134  -2.2048  -2.1884  -2.1880
    -2.1637  -2.1575  -2.1548  -2.1454  -2.1369  -2.1333  -2.1110  -2.1013
    -2.0688  -2.0607  -2.0562  -2.0544  -2.0520  -2.0485  -2.0448  -2.0425
    -2.0398  -2.0376  -2.0304  -2.0206  -2.0156  -1.9073  -1.8903  -1.8723
    -1.8555  -1.8493  -1.8438  -1.8425  -1.8359  -1.8276  -1.8258  -1.8237
    -1.8201  -1.8012  -1.7983  -1.7924  -1.7837  -1.7812  -1.7769  -1.7584
    -1.7563  -1.7293  -1.7281  -1.7071  -1.7006  -1.6878  -1.6797  -1.6604
    -1.6591  -1.6556  -1.6409  -1.6277  -1.6247  -1.6189  -1.6172  -1.5984
    -1.5928  -1.5811  -1.5730  -1.5468  -1.5392  -1.5353  -1.4912  -1.4821
    -1.4718  -1.4660  -1.4644  -1.4412  -1.4380  -1.4130  -1.4087  -1.4046
    -1.3814  -1.3657  -1.3623  -1.3463  -1.3442  -1.3315  -1.3201  -1.3155
    -1.2929  -1.2865  -1.2844  -1.2325  -1.2225  -1.2170  -1.2100  -1.2039
    -1.1935  -1.1825  -1.1805  -1.1621  -1.1489  -1.1292  -1.1205  -1.1121
    -1.0945  -1.0734  -1.0698  -1.0632  -1.0590  -1.0569  -1.0547  -1.0524
    -1.0360  -1.0255  -1.0102  -1.0019  -0.9954  -0.9937  -0.9884  -0.9755
    -0.9580  -0.9480  -0.9356  -0.9287  -0.8838  -0.8373  -0.8274  -0.8214
    -0.8200  -0.8107  -0.8087  -0.7985  -0.7891  -0.7752  -0.7705  -0.7611
    -0.7557  -0.7516  -0.7428  -0.7286  -0.7217  -0.7149  -0.6951  -0.6398
    -0.6381  -0.6065  -0.6030  -0.5989  -0.5949  -0.5933  -0.5923  -0.5884
    -0.5820  -0.5750  -0.5570  -0.5370  -0.5244  -0.5070  -0.5041  -0.4942
    -0.4931  -0.4849  -0.4803  -0.4797  -0.4773  -0.4746  -0.4613  -0.4564
    -0.4550  -0.4266  -0.4246  -0.4226  -0.4103  -0.4095  -0.3911  -0.3602
    -0.3594  -0.3501  -0.3495  -0.2821  -0.2817  -0.2490  -0.2467  -0.1917
    -0.1896  -0.1859  -0.1650  -0.1644   0.0697   0.0794   0.4137   0.4143
     0.5067   0.5184   0.7025   0.7277   0.7380   0.8594   0.8640   1.2936
     1.2952   1.3121   1.5787   1.6039   1.6054   1.8815   1.8958   1.9566
     1.9601   1.9862   1.9976   2.2136   2.2163   2.3051   2.3064   2.3883
     2.4448   2.4612   2.6104   2.7123   3.1419   3.1476   3.1498   3.1536
     3.2025   3.2078   3.4970   3.4990   3.7789   3.7870   3.8963   4.1958
     4.2328   4.2390   4.4549   4.4831   4.5338   4.5411   4.6293   4.7474
     4.7519   4.8621   4.8658   5.1631   5.2305   5.2415   5.3676   5.4318
     5.4614   5.6231   5.6255   5.6510   5.6547   5.7109   5.7158   5.7601
     5.8862   6.0675   6.2874   6.3181   6.3752   6.4497   6.4579   6.4682
     6.4725   6.5373   6.6584   6.7041   6.7158   6.8503   6.9321   6.9570
     6.9680   7.0382   7.0808

          k = 0.2500 0.1443-0.1111 (136898 PWs)   bands (ev):

   -19.0054  -7.3127  -6.5330  -5.7436  -5.4516  -5.3949  -5.3926  -4.8566
    -4.8554  -4.7250  -4.7231  -4.5703  -4.5446  -4.4767  -4.4451  -4.4410
    -4.4106  -4.4087  -4.2815  -4.2400  -4.2397  -4.1797  -4.1596  -4.1576
    -4.0569  -4.0561  -4.0204  -4.0199  -4.0190  -3.9947  -3.9726  -3.9702
    -3.8729  -3.8660  -3.8640  -3.8452  -3.8272  -3.8266  -3.8166  -3.8153
    -3.8045  -3.7731  -3.7721  -3.7702  -3.7697  -3.7416  -3.7398  -3.7218
    -3.7199  -3.7137  -3.6782  -3.6671  -3.6336  -3.6233  -3.6198  -3.6115
    -3.6105  -3.5382  -3.5372  -3.5081  -3.5035  -3.4991  -3.4367  -3.4315
    -3.4162  -3.4151  -3.4024  -3.3891  -3.3877  -3.3849  -3.3322  -3.2301
    -3.2292  -3.2107  -3.2037  -3.1859  -3.1843  -3.1647  -3.1587  -3.1489
    -3.1092  -3.1076  -3.0935  -3.0888  -3.0713  -3.0252  -3.0174  -3.0046
    -2.9994  -2.9949  -2.9597  -2.9553  -2.9489  -2.9466  -2.9357  -2.9306
    -2.8969  -2.8949  -2.8741  -2.8716  -2.8697  -2.8669  -2.8628  -2.7946
    -2.7898  -2.7862  -2.7583  -2.7572  -2.7013  -2.6918  -2.6692  -2.6677
    -2.6563  -2.6538  -2.6467  -2.6222  -2.6177  -2.6085  -2.5940  -2.5743
    -2.5658  -2.5624  -2.5478  -2.5446  -2.5378  -2.5334  -2.5315  -2.5263
    -2.5196  -2.4742  -2.4472  -2.4433  -2.4289  -2.4159  -2.4116  -2.4069
    -2.4015  -2.3992  -2.3968  -2.3720  -2.3679  -2.3654  -2.3580  -2.3566
    -2.3444  -2.3182  -2.3166  -2.3158  -2.3118  -2.3110  -2.2652  -2.2392
    -2.2376  -2.2333  -2.2294  -2.2175  -2.2134  -2.2048  -2.1884  -2.1880
    -2.1637  -2.1575  -2.1548  -2.1454  -2.1369  -2.1333  -2.1110  -2.1013
    -2.0688  -2.0607  -2.0562  -2.0544  -2.0520  -2.0485  -2.0448  -2.0425
    -2.0398  -2.0376  -2.0304  -2.0206  -2.0156  -1.9073  -1.8903  -1.8723
    -1.8555  -1.8493  -1.8438  -1.8425  -1.8359  -1.8276  -1.8258  -1.8237
    -1.8201  -1.8012  -1.7983  -1.7924  -1.7837  -1.7812  -1.7769  -1.7584
    -1.7563  -1.7293  -1.7281  -1.7071  -1.7006  -1.6878  -1.6797  -1.6604
    -1.6591  -1.6556  -1.6409  -1.6277  -1.6247  -1.6189  -1.6172  -1.5984
    -1.5928  -1.5811  -1.5730  -1.5468  -1.5392  -1.5353  -1.4912  -1.4821
    -1.4718  -1.4660  -1.4644  -1.4412  -1.4380  -1.4130  -1.4087  -1.4046
    -1.3814  -1.3657  -1.3623  -1.3463  -1.3442  -1.3315  -1.3201  -1.3155
    -1.2929  -1.2865  -1.2844  -1.2325  -1.2225  -1.2170  -1.2100  -1.2039
    -1.1935  -1.1825  -1.1805  -1.1621  -1.1489  -1.1292  -1.1205  -1.1121
    -1.0945  -1.0734  -1.0698  -1.0632  -1.0590  -1.0569  -1.0547  -1.0524
    -1.0360  -1.0255  -1.0102  -1.0019  -0.9954  -0.9938  -0.9884  -0.9755
    -0.9580  -0.9480  -0.9356  -0.9287  -0.8838  -0.8373  -0.8274  -0.8214
    -0.8200  -0.8107  -0.8088  -0.7985  -0.7891  -0.7752  -0.7705  -0.7611
    -0.7557  -0.7516  -0.7428  -0.7286  -0.7217  -0.7149  -0.6951  -0.6398
    -0.6381  -0.6065  -0.6030  -0.5989  -0.5949  -0.5933  -0.5923  -0.5884
    -0.5820  -0.5750  -0.5570  -0.5370  -0.5244  -0.5070  -0.5041  -0.4942
    -0.4931  -0.4849  -0.4803  -0.4797  -0.4773  -0.4746  -0.4613  -0.4564
    -0.4550  -0.4266  -0.4246  -0.4226  -0.4103  -0.4095  -0.3911  -0.3602
    -0.3594  -0.3501  -0.3495  -0.2821  -0.2817  -0.2490  -0.2467  -0.1917
    -0.1896  -0.1859  -0.1650  -0.1644   0.0697   0.0794   0.4137   0.4143
     0.5067   0.5184   0.7025   0.7277   0.7380   0.8594   0.8640   1.2936
     1.2952   1.3121   1.5787   1.6039   1.6054   1.8815   1.8958   1.9566
     1.9601   1.9862   1.9976   2.2136   2.2163   2.3051   2.3064   2.3883
     2.4448   2.4612   2.6104   2.7123   3.1419   3.1476   3.1498   3.1536
     3.2025   3.2078   3.4970   3.4990   3.7789   3.7870   3.8963   4.1958
     4.2328   4.2390   4.4549   4.4831   4.5338   4.5411   4.6293   4.7474
     4.7519   4.8621   4.8658   5.1631   5.2305   5.2415   5.3675   5.4316
     5.4616   5.6231   5.6255   5.6510   5.6547   5.7109   5.7158   5.7605
     5.8846   6.0702   6.2883   6.3182   6.3753   6.4499   6.4580   6.4675
     6.4727   6.5321   6.6531   6.7033   6.7158   6.8527   6.9339   6.9576
     6.9672   7.0415   7.0857

          k = 0.0000-0.2887 0.1111 (136898 PWs)   bands (ev):

   -19.0054  -7.3127  -6.5331  -5.7437  -5.4515  -5.3947  -5.3928  -4.8563
    -4.8556  -4.7252  -4.7232  -4.5704  -4.5446  -4.4771  -4.4443  -4.4416
    -4.4096  -4.4093  -4.2815  -4.2406  -4.2391  -4.1795  -4.1594  -4.1580
    -4.0572  -4.0559  -4.0205  -4.0197  -4.0189  -3.9947  -3.9712  -3.9710
    -3.8731  -3.8652  -3.8635  -3.8450  -3.8273  -3.8269  -3.8169  -3.8148
    -3.8042  -3.7737  -3.7722  -3.7716  -3.7695  -3.7418  -3.7404  -3.7234
    -3.7196  -3.7136  -3.6722  -3.6713  -3.6342  -3.6227  -3.6182  -3.6113
    -3.6104  -3.5378  -3.5375  -3.5095  -3.5015  -3.5009  -3.4419  -3.4312
    -3.4164  -3.4155  -3.3935  -3.3892  -3.3876  -3.3859  -3.3331  -3.2297
    -3.2276  -3.2131  -3.2046  -3.1847  -3.1844  -3.1625  -3.1611  -3.1540
    -3.1092  -3.1076  -3.0922  -3.0853  -3.0684  -3.0293  -3.0238  -3.0006
    -2.9989  -2.9932  -2.9600  -2.9570  -2.9501  -2.9481  -2.9336  -2.9211
    -2.8961  -2.8959  -2.8810  -2.8724  -2.8695  -2.8694  -2.8629  -2.7925
    -2.7903  -2.7824  -2.7582  -2.7576  -2.7079  -2.6940  -2.6683  -2.6642
    -2.6556  -2.6555  -2.6466  -2.6230  -2.6178  -2.6083  -2.5912  -2.5728
    -2.5670  -2.5614  -2.5467  -2.5463  -2.5355  -2.5327  -2.5314  -2.5251
    -2.5197  -2.4744  -2.4472  -2.4468  -2.4255  -2.4152  -2.4124  -2.4070
    -2.4003  -2.3989  -2.3980  -2.3743  -2.3688  -2.3663  -2.3582  -2.3573
    -2.3439  -2.3169  -2.3167  -2.3129  -2.3124  -2.3110  -2.2660  -2.2386
    -2.2358  -2.2343  -2.2287  -2.2237  -2.2164  -2.2057  -2.1886  -2.1884
    -2.1629  -2.1555  -2.1541  -2.1462  -2.1365  -2.1363  -2.1058  -2.1009
    -2.0687  -2.0590  -2.0562  -2.0553  -2.0525  -2.0474  -2.0444  -2.0410
    -2.0400  -2.0363  -2.0333  -2.0196  -2.0169  -1.9108  -1.8930  -1.8610
    -1.8567  -1.8514  -1.8444  -1.8433  -1.8361  -1.8276  -1.8250  -1.8211
    -1.8186  -1.8071  -1.7979  -1.7943  -1.7826  -1.7787  -1.7780  -1.7615
    -1.7562  -1.7332  -1.7293  -1.7017  -1.6937  -1.6888  -1.6775  -1.6608
    -1.6596  -1.6559  -1.6408  -1.6315  -1.6254  -1.6187  -1.6173  -1.5952
    -1.5905  -1.5820  -1.5770  -1.5488  -1.5393  -1.5315  -1.4881  -1.4872
    -1.4694  -1.4674  -1.4639  -1.4416  -1.4378  -1.4157  -1.4073  -1.4060
    -1.3734  -1.3709  -1.3637  -1.3459  -1.3443  -1.3275  -1.3214  -1.3155
    -1.2963  -1.2854  -1.2841  -1.2359  -1.2213  -1.2154  -1.2121  -1.1983
    -1.1954  -1.1807  -1.1802  -1.1626  -1.1496  -1.1241  -1.1228  -1.1088
    -1.0899  -1.0779  -1.0712  -1.0626  -1.0614  -1.0569  -1.0563  -1.0501
    -1.0360  -1.0287  -1.0154  -1.0057  -0.9959  -0.9930  -0.9893  -0.9763
    -0.9602  -0.9491  -0.9313  -0.9291  -0.8679  -0.8419  -0.8243  -0.8219
    -0.8196  -0.8138  -0.8085  -0.7929  -0.7857  -0.7802  -0.7734  -0.7596
    -0.7549  -0.7531  -0.7421  -0.7257  -0.7235  -0.7157  -0.6996  -0.6427
    -0.6391  -0.6064  -0.6041  -0.6010  -0.5965  -0.5939  -0.5921  -0.5876
    -0.5799  -0.5697  -0.5605  -0.5370  -0.5244  -0.5094  -0.5026  -0.4940
    -0.4935  -0.4831  -0.4802  -0.4785  -0.4772  -0.4741  -0.4607  -0.4564
    -0.4556  -0.4262  -0.4240  -0.4224  -0.4111  -0.4099  -0.3909  -0.3594
    -0.3589  -0.3500  -0.3494  -0.2847  -0.2807  -0.2489  -0.2467  -0.1920
    -0.1897  -0.1858  -0.1672  -0.1647   0.0731   0.0802   0.4134   0.4142
     0.5099   0.5157   0.6990   0.7299   0.7351   0.8606   0.8616   1.2935
     1.2962   1.3101   1.5791   1.6042   1.6059   1.8848   1.8921   1.9573
     1.9619   1.9892   1.9938   2.2137   2.2185   2.3043   2.3066   2.3892
     2.4474   2.4569   2.6086   2.7136   3.1416   3.1474   3.1517   3.1528
     3.2056   3.2080   3.4989   3.4993   3.7824   3.7850   3.8976   4.1940
     4.2339   4.2377   4.4634   4.4705   4.5290   4.5394   4.6341   4.7424
     4.7499   4.8656   4.8675   5.1649   5.2260   5.2377   5.3802   5.4186
     5.4578   5.6135   5.6268   5.6537   5.6545   5.7114   5.7169   5.7701
     5.8860   6.0822   6.2867   6.3173   6.3605   6.4477   6.4615   6.4715
     6.4725   6.5290   6.6558   6.6999   6.7130   6.8692   6.9248   6.9616
     6.9648   7.0395   7.0766

          k = 0.0000 0.2887 0.1111 (136898 PWs)   bands (ev):

   -19.0054  -7.3127  -6.5331  -5.7437  -5.4515  -5.3947  -5.3928  -4.8563
    -4.8556  -4.7252  -4.7232  -4.5704  -4.5446  -4.4771  -4.4443  -4.4416
    -4.4096  -4.4093  -4.2815  -4.2406  -4.2391  -4.1795  -4.1594  -4.1580
    -4.0572  -4.0559  -4.0205  -4.0197  -4.0189  -3.9947  -3.9712  -3.9710
    -3.8731  -3.8652  -3.8635  -3.8450  -3.8273  -3.8269  -3.8169  -3.8148
    -3.8042  -3.7737  -3.7722  -3.7716  -3.7695  -3.7418  -3.7404  -3.7234
    -3.7196  -3.7136  -3.6722  -3.6713  -3.6342  -3.6227  -3.6182  -3.6113
    -3.6104  -3.5378  -3.5375  -3.5095  -3.5015  -3.5009  -3.4419  -3.4312
    -3.4164  -3.4155  -3.3935  -3.3892  -3.3876  -3.3859  -3.3331  -3.2297
    -3.2276  -3.2131  -3.2046  -3.1847  -3.1844  -3.1625  -3.1611  -3.1540
    -3.1092  -3.1076  -3.0922  -3.0853  -3.0684  -3.0293  -3.0238  -3.0006
    -2.9989  -2.9932  -2.9600  -2.9570  -2.9501  -2.9481  -2.9336  -2.9211
    -2.8961  -2.8959  -2.8810  -2.8724  -2.8695  -2.8694  -2.8629  -2.7925
    -2.7902  -2.7824  -2.7582  -2.7576  -2.7079  -2.6940  -2.6683  -2.6642
    -2.6556  -2.6555  -2.6466  -2.6230  -2.6178  -2.6083  -2.5912  -2.5728
    -2.5670  -2.5614  -2.5467  -2.5463  -2.5355  -2.5327  -2.5314  -2.5251
    -2.5197  -2.4744  -2.4472  -2.4468  -2.4255  -2.4152  -2.4124  -2.4070
    -2.4003  -2.3989  -2.3980  -2.3743  -2.3688  -2.3663  -2.3582  -2.3573
    -2.3439  -2.3169  -2.3167  -2.3129  -2.3124  -2.3110  -2.2660  -2.2386
    -2.2358  -2.2343  -2.2287  -2.2237  -2.2164  -2.2057  -2.1886  -2.1884
    -2.1629  -2.1555  -2.1541  -2.1462  -2.1365  -2.1363  -2.1058  -2.1009
    -2.0687  -2.0590  -2.0562  -2.0553  -2.0525  -2.0474  -2.0444  -2.0410
    -2.0400  -2.0363  -2.0333  -2.0196  -2.0169  -1.9108  -1.8930  -1.8610
    -1.8567  -1.8514  -1.8444  -1.8433  -1.8361  -1.8276  -1.8250  -1.8211
    -1.8186  -1.8071  -1.7979  -1.7943  -1.7826  -1.7787  -1.7780  -1.7615
    -1.7562  -1.7332  -1.7293  -1.7017  -1.6938  -1.6888  -1.6775  -1.6608
    -1.6596  -1.6559  -1.6407  -1.6315  -1.6254  -1.6187  -1.6173  -1.5952
    -1.5905  -1.5820  -1.5770  -1.5488  -1.5393  -1.5315  -1.4881  -1.4872
    -1.4694  -1.4674  -1.4639  -1.4416  -1.4378  -1.4157  -1.4073  -1.4060
    -1.3734  -1.3709  -1.3637  -1.3459  -1.3443  -1.3275  -1.3213  -1.3155
    -1.2963  -1.2854  -1.2841  -1.2359  -1.2213  -1.2154  -1.2121  -1.1983
    -1.1954  -1.1807  -1.1802  -1.1626  -1.1496  -1.1241  -1.1228  -1.1088
    -1.0899  -1.0779  -1.0712  -1.0626  -1.0614  -1.0569  -1.0563  -1.0501
    -1.0360  -1.0287  -1.0154  -1.0057  -0.9959  -0.9930  -0.9893  -0.9763
    -0.9602  -0.9491  -0.9313  -0.9291  -0.8679  -0.8419  -0.8243  -0.8219
    -0.8196  -0.8138  -0.8085  -0.7929  -0.7857  -0.7802  -0.7734  -0.7596
    -0.7549  -0.7531  -0.7421  -0.7257  -0.7235  -0.7157  -0.6996  -0.6427
    -0.6391  -0.6064  -0.6041  -0.6010  -0.5965  -0.5939  -0.5921  -0.5876
    -0.5799  -0.5697  -0.5605  -0.5370  -0.5244  -0.5094  -0.5026  -0.4940
    -0.4935  -0.4831  -0.4802  -0.4785  -0.4771  -0.4741  -0.4607  -0.4564
    -0.4556  -0.4262  -0.4240  -0.4224  -0.4110  -0.4099  -0.3909  -0.3594
    -0.3589  -0.3500  -0.3494  -0.2847  -0.2807  -0.2489  -0.2467  -0.1920
    -0.1897  -0.1858  -0.1672  -0.1647   0.0731   0.0802   0.4134   0.4142
     0.5099   0.5157   0.6990   0.7299   0.7351   0.8606   0.8616   1.2935
     1.2962   1.3101   1.5791   1.6042   1.6059   1.8848   1.8921   1.9573
     1.9619   1.9892   1.9938   2.2137   2.2185   2.3043   2.3066   2.3892
     2.4474   2.4569   2.6086   2.7136   3.1416   3.1474   3.1517   3.1528
     3.2056   3.2080   3.4989   3.4993   3.7824   3.7850   3.8976   4.1940
     4.2339   4.2377   4.4634   4.4705   4.5290   4.5394   4.6341   4.7424
     4.7499   4.8656   4.8675   5.1649   5.2260   5.2377   5.3804   5.4186
     5.4575   5.6135   5.6268   5.6537   5.6545   5.7114   5.7169   5.7694
     5.8896   6.0777   6.2826   6.3174   6.3601   6.4477   6.4615   6.4712
     6.4725   6.5399   6.6583   6.7002   6.7130   6.8612   6.9250   6.9615
     6.9647   7.0472   7.0843

     the Fermi energy is     1.4413 ev

!    total energy              =   -6604.39323195 Ry
     Harris-Foulkes estimate   =   -6604.39323195 Ry
     estimated scf accuracy    <          7.6E-09 Ry

     The total energy is the sum of the following terms:

     one-electron contribution =  -48819.40522932 Ry
     hartree contribution      =   24910.88319732 Ry
     xc contribution           =   -3205.05607063 Ry
     ewald contribution        =   20509.18206680 Ry
     smearing contrib. (-TS)   =       0.00280387 Ry

     convergence has been achieved in  22 iterations

     Writing output data file 4655331.save

     init_run     :    210.00s CPU    216.10s WALL (       1 calls)
     electrons    :  10464.66s CPU  10749.63s WALL (       1 calls)

     Called by init_run:
     wfcinit      :    173.12s CPU    178.66s WALL (       1 calls)
     potinit      :     12.19s CPU     12.50s WALL (       1 calls)

     Called by electrons:
     c_bands      :   8928.38s CPU   9161.80s WALL (      23 calls)
     sum_band     :   1174.41s CPU   1216.11s WALL (      23 calls)
     v_of_rho     :    123.04s CPU    130.47s WALL (      23 calls)
     newd         :    245.71s CPU    247.64s WALL (      23 calls)
     mix_rho      :      3.49s CPU      3.72s WALL (      23 calls)
     vdW_energy   :      5.08s CPU      5.65s WALL (      23 calls)
     vdW_ffts     :     72.40s CPU     75.80s WALL (      46 calls)
     vdW_v        :     15.75s CPU     16.34s WALL (      23 calls)

     Called by c_bands:
     init_us_2    :      9.52s CPU      9.84s WALL (     564 calls)
     cegterg      :   8676.04s CPU   8906.02s WALL (     276 calls)

     Called by *egterg:
     h_psi        :   3627.39s CPU   3810.36s WALL (    1471 calls)
     s_psi        :    373.04s CPU    375.21s WALL (    1471 calls)
     g_psi        :      5.37s CPU      5.36s WALL (    1183 calls)
     cdiaghg      :   1870.91s CPU   1875.91s WALL (    1447 calls)

     Called by h_psi:
     add_vuspsi   :    373.52s CPU    375.66s WALL (    1471 calls)

     General routines
     calbec       :   1092.07s CPU   1094.78s WALL (    1747 calls)
     fft          :    204.74s CPU    211.66s WALL (    1518 calls)
     ffts         :      2.50s CPU      2.64s WALL (      46 calls)
     fftw         :   2951.04s CPU   3161.89s WALL (  668596 calls)
     interpolate  :      5.72s CPU      6.14s WALL (      46 calls)
     davcio       :      0.00s CPU      0.19s WALL (      12 calls)

     Parallel routines
     fft_scatter  :   2487.50s CPU   2676.47s WALL (  670160 calls)

     PWSCF        :     2h58m CPU        3h 3m WALL


   This run was terminated on:  16:15: 8  26Jun2015            

=------------------------------------------------------------------------------=
   JOB DONE.
=------------------------------------------------------------------------------=
