Setting SGE environment for SCC

     Program PWSCF v.5.1.2 starts on 29Jun2015 at 23:27:38 

     This program is part of the open-source Quantum ESPRESSO suite
     for quantum simulation of materials; please cite
         "P. Giannozzi et al., J. Phys.:Condens. Matter 21 395502 (2009);
          URL http://www.quantum-espresso.org", 
     in publications or presentations arising from this work. More details at
     http://www.quantum-espresso.org/quote

     Parallel version (MPI), running on    32 processors
     R & G space division:  proc/nbgrp/npool/nimage =      32
     Reading input from top.H2.Au50.d.2.1.phi.45.psi.0.in
Warning: card &IONS ignored
Warning: card / ignored
Warning: card &CELL ignored
Warning: card / ignored

     Current dimensions of program PWSCF are:
     Max number of different atomic species (ntypx) = 10
     Max number of k-points (npk) =  40000
     Max angular momentum in pseudopotentials (lmaxx) =  3

     IMPORTANT: XC functional enforced from input :
     Exchange-correlation      = VDW-DF ( 1  4  4  0 1 0)
     Any further DFT definition will be discarded
     Please, verify this is what you really want


     Subspace diagonalization in iterative solution of the eigenvalue problem:
     a serial algorithm will be used


     Parallelization info
     --------------------
     sticks:   dense  smooth     PW     G-vecs:    dense   smooth      PW
     Min         445     223     58                96775    34191    4534
     Max         446     224     59                96790    34246    4540
     Sum       14269    7147   1867              3097177  1095093  145167


     Title: 
     top.H2.Au50.d.2.1.phi.45.psi.0                                             


     bravais-lattice index     =            4
     lattice parameter (alat)  =      22.7436  a.u.
     unit-cell volume          =   22924.1508 (a.u.)^3
     number of atoms/cell      =           67
     number of atomic types    =            3
     number of electrons       =       712.00
     number of Kohn-Sham states=          427
     kinetic-energy cutoff     =      50.0000  Ry
     charge density cutoff     =     400.0000  Ry
     convergence threshold     =      1.0E-08
     mixing beta               =       0.7000
     number of iterations used =            8  plain     mixing
     Exchange-correlation      = VDW-DF ( 1  4  4  0 1 0)

     celldm(1)=  22.743643  celldm(2)=   0.000000  celldm(3)=   2.250000
     celldm(4)=   0.000000  celldm(5)=   0.000000  celldm(6)=   0.000000

     crystal axes: (cart. coord. in units of alat)
               a(1) = (   1.000000   0.000000   0.000000 )  
               a(2) = (  -0.500000   0.866025   0.000000 )  
               a(3) = (   0.000000   0.000000   2.250000 )  

     reciprocal axes: (cart. coord. in units 2 pi/alat)
               b(1) = (  1.000000  0.577350 -0.000000 )  
               b(2) = (  0.000000  1.154701  0.000000 )  
               b(3) = (  0.000000 -0.000000  0.444444 )  


     PseudoPot. # 1 for Au read from file:
     /home/scc/andrejb/qe/pseudo/Au.pbe-nd-van.UPF
     MD5 check sum: 458681b50f36d87ef23c61b04bba420a
     Pseudo is Ultrasoft + core correction, Zval = 11.0
     Generated by new atomic code, or converted to UPF format
     Using radial grid of  985 points,  3 beta functions with: 
                l(1) =   1
                l(2) =   2
                l(3) =   2
     Q(r) pseudized with  8 coefficients,  rinner =    1.100   1.100   1.100
                                                       1.100   1.100

     PseudoPot. # 2 for H  read from file:
     /home/scc/andrejb/qe/pseudo/H.pbe-van_ak.UPF
     MD5 check sum: 403db7282739603aa925980fa9b8608d
     Pseudo is Ultrasoft, Zval =  1.0
     Generated by new atomic code, or converted to UPF format
     Using radial grid of  615 points,  1 beta functions with: 
                l(1) =   0
     Q(r) pseudized with  8 coefficients,  rinner =    0.800

     PseudoPot. # 3 for O  read from file:
     /home/scc/andrejb/qe/pseudo/O.pbe-van_ak.UPF
     MD5 check sum: 4b8c549914a63cae506c6ff22b5af4fe
     Pseudo is Ultrasoft, Zval =  6.0
     Generated by new atomic code, or converted to UPF format
     Using radial grid of  737 points,  4 beta functions with: 
                l(1) =   0
                l(2) =   0
                l(3) =   1
                l(4) =   1
     Q(r) pseudized with  8 coefficients,  rinner =    0.800   0.800   0.800


     vdW kernel table read from file vdW_kernel_table
     MD5 check sum: 48e77a2e26edf626eeb0eaa751ad5cac

     atomic species   valence    mass     pseudopotential
        Au            11.00   196.96657     Au( 1.00)
        H              1.00     1.01000     H ( 1.00)
        O              6.00    16.00000     O ( 1.00)

     No symmetry found



   Cartesian axes

     site n.     atom                  positions (alat units)
         1           O   tau(   1) = (   0.4812593   0.4207388   0.8647568  )
         2           H   tau(   2) = (   0.4790780   0.3968269   0.7874818  )
         3           H   tau(   3) = (   0.4749979   0.3522601   0.9073854  )
         4           Au  tau(   4) = (   0.3540481   0.6132292   0.0000000  )
         5           Au  tau(   5) = (   0.4790062   0.3967954   0.0000000  )
         6           Au  tau(   6) = (   0.6039644   0.1803616   0.0000000  )
         7           Au  tau(   7) = (   0.7289225  -0.0360723   0.0000000  )
         8           Au  tau(   8) = (   0.1041318   0.6132292   0.0000000  )
         9           Au  tau(   9) = (   0.2290899   0.3967954   0.0000000  )
        10           Au  tau(  10) = (   0.3540481   0.1803616   0.0000000  )
        11           Au  tau(  11) = (   0.4790062  -0.0360723   0.0000000  )
        12           Au  tau(  12) = (  -0.1457845   0.6132292   0.0000000  )
        13           Au  tau(  13) = (  -0.0208264   0.3967954   0.0000000  )
        14           Au  tau(  14) = (   0.1041318   0.1803616   0.0000000  )
        15           Au  tau(  15) = (   0.2290899  -0.0360723   0.0000000  )
        16           Au  tau(  16) = (  -0.3957008   0.6132292   0.0000000  )
        17           Au  tau(  17) = (  -0.2707426   0.3967954   0.0000000  )
        18           Au  tau(  18) = (  -0.1457845   0.1803616   0.0000000  )
        19           Au  tau(  19) = (  -0.0208264  -0.0360723   0.0000000  )
        20           Au  tau(  20) = (   0.4790062   0.6853738   0.2040557  )
        21           Au  tau(  21) = (   0.6039644   0.4689400   0.2040557  )
        22           Au  tau(  22) = (   0.7289225   0.2525062   0.2040557  )
        23           Au  tau(  23) = (   0.8538806   0.0360723   0.2040557  )
        24           Au  tau(  24) = (   0.2290899   0.6853738   0.2040557  )
        25           Au  tau(  25) = (   0.3540481   0.4689400   0.2040557  )
        26           Au  tau(  26) = (   0.4790062   0.2525062   0.2040557  )
        27           Au  tau(  27) = (   0.6039644   0.0360723   0.2040557  )
        28           Au  tau(  28) = (  -0.0208264   0.6853738   0.2040557  )
        29           Au  tau(  29) = (   0.1041318   0.4689400   0.2040557  )
        30           Au  tau(  30) = (   0.2290899   0.2525062   0.2040557  )
        31           Au  tau(  31) = (   0.3540481   0.0360723   0.2040557  )
        32           Au  tau(  32) = (  -0.2707426   0.6853738   0.2040557  )
        33           Au  tau(  33) = (  -0.1457845   0.4689400   0.2040557  )
        34           Au  tau(  34) = (  -0.0208264   0.2525062   0.2040557  )
        35           Au  tau(  35) = (   0.1041318   0.0360723   0.2040557  )
        36           Au  tau(  36) = (   0.3541162   0.7576593   0.4066483  )
        37           Au  tau(  37) = (   0.4791000   0.5411421   0.4066696  )
        38           Au  tau(  38) = (   0.6040570   0.3246862   0.4066618  )
        39           Au  tau(  39) = (   0.7290270   0.1081684   0.4066530  )
        40           Au  tau(  40) = (   0.1041162   0.7576236   0.4066247  )
        41           Au  tau(  41) = (   0.2291001   0.5411062   0.4066455  )
        42           Au  tau(  42) = (   0.3540567   0.3246505   0.4066380  )
        43           Au  tau(  43) = (   0.4790276   0.1081324   0.4066292  )
        44           Au  tau(  44) = (  -0.1458201   0.7576104   0.4066225  )
        45           Au  tau(  45) = (  -0.0208365   0.5410930   0.4066438  )
        46           Au  tau(  46) = (   0.1041202   0.3246372   0.4066359  )
        47           Au  tau(  47) = (   0.2290908   0.1081193   0.4066273  )
        48           Au  tau(  48) = (  -0.3958167   0.7575791   0.4065812  )
        49           Au  tau(  49) = (  -0.2708328   0.5410617   0.4066025  )
        50           Au  tau(  50) = (  -0.1458763   0.3246061   0.4065947  )
        51           Au  tau(  51) = (  -0.0209056   0.1080882   0.4065858  )
        52           Au  tau(  52) = (   0.3541084   0.6133344   0.6129762  )
        53           Au  tau(  53) = (   0.4790780   0.3968269   0.6129968  )
        54           Au  tau(  54) = (   0.6040356   0.1803811   0.6129859  )
        55           Au  tau(  55) = (   0.7290165  -0.0361221   0.6129385  )
        56           Au  tau(  56) = (   0.1041243   0.6133091   0.6130023  )
        57           Au  tau(  57) = (   0.2290941   0.3968013   0.6130241  )
        58           Au  tau(  58) = (   0.3540515   0.1803552   0.6130121  )
        59           Au  tau(  59) = (   0.4790323  -0.0361475   0.6129659  )
        60           Au  tau(  60) = (  -0.1458030   0.6133014   0.6129980  )
        61           Au  tau(  61) = (  -0.0208339   0.3967936   0.6130189  )
        62           Au  tau(  62) = (   0.1041239   0.1803477   0.6130083  )
        63           Au  tau(  63) = (   0.2291046  -0.0361554   0.6129607  )
        64           Au  tau(  64) = (  -0.3957908   0.6132739   0.6129471  )
        65           Au  tau(  65) = (  -0.2708208   0.3967658   0.6129688  )
        66           Au  tau(  66) = (  -0.1458636   0.1803200   0.6129569  )
        67           Au  tau(  67) = (  -0.0208823  -0.0361826   0.6129110  )

     number of k points=    12  Marzari-Vanderbilt smearing, width (Ry)=  0.0200
                       cart. coord. in units 2pi/alat
        k(    1) = (   0.2500000   0.4330127   0.1111111), wk =   0.1666667
        k(    2) = (   0.2500000  -0.1443376   0.1111111), wk =   0.1666667
        k(    3) = (  -0.2500000  -0.4330127   0.1111111), wk =   0.1666667
        k(    4) = (  -0.2500000   0.4330127  -0.1111111), wk =   0.1666667
        k(    5) = (   0.2500000  -0.4330127  -0.1111111), wk =   0.1666667
        k(    6) = (   0.5000000   0.0000000   0.1111111), wk =   0.1666667
        k(    7) = (  -0.5000000   0.0000000   0.1111111), wk =   0.1666667
        k(    8) = (  -0.2500000   0.1443376   0.1111111), wk =   0.1666667
        k(    9) = (  -0.2500000  -0.1443376  -0.1111111), wk =   0.1666667
        k(   10) = (   0.2500000   0.1443376  -0.1111111), wk =   0.1666667
        k(   11) = (   0.0000000  -0.2886751   0.1111111), wk =   0.1666667
        k(   12) = (   0.0000000   0.2886751   0.1111111), wk =   0.1666667

     Dense  grid:  3097177 G-vectors     FFT dimensions: ( 150, 150, 360)

     Smooth grid:  1095093 G-vectors     FFT dimensions: ( 108, 108, 240)

     Largest allocated arrays     est. size (Mb)     dimensions
        Kohn-Sham Wavefunctions        28.01 Mb     (    4299,  427)
        NL pseudopotentials            55.23 Mb     (    4299,  842)
        Each V/rho on FFT grid          4.12 Mb     (  270000)
        Each G-vector array             0.74 Mb     (   96788)
        G-vector shells                 0.16 Mb     (   21404)
     Largest temporary arrays     est. size (Mb)     dimensions
        Auxiliary wavefunctions       112.04 Mb     (    4299, 1708)
        Each subspace H/S matrix       44.51 Mb     (    1708, 1708)
        Each <psi_i|beta_j> matrix      5.49 Mb     (     842,  427)
        Arrays for rho mixing          32.96 Mb     (  270000,    8)

     Initial potential from superposition of free atoms
     Check: negative starting charge=   -1.730245

     starting charge  711.25682, renormalised to  712.00000

     negative rho (up, down):  1.732E+00 0.000E+00


     ************************************************************************
     *
     * You are using vdW-DF for exchange-correlation in this calculation.
     * Please cite the following three references that made this development
     * possible:
     *
     *   M. Dion, H. Rydberg, E. Schroder, D. C. Langreth, and
     *   B. I. Lundqvist, Phys. Rev. Lett. 92, 246401 (2004).
     *
     *   T. Thonhauser, V. R. Cooper, S. Li, A. Puzder, P. Hyldgaard, and
     *   D. C. Langreth, Phys. Rev. B 76, 125112 (2007).
     *
     *   G. Roman-Perez and J. M. Soler, Phys. Rev. Lett. 103, 096102 (2009).
     *
     *
     * If you are using vdW-DF2, please also cite:
     *
     *   K. Lee, E. D. Murray, L. Kong, B. I. Lundqvist, and
     *   D. C. Langreth, Phys. Rev. B 82, 081101(R) (2010).
     *
     *
     * If you are calculating the stress with vdW-DF, please also cite:
     *
     *   R. Sabatini, E. Kucukbenli, B. Kolb, T. Thonhauser, and
     *   S. de Gironcoli, J. Phys.: Condens. Matter 24, 424209 (2012).
     *
     ************************************************************************

     Carrying out vdW-DF run using the following parameters:

     Nqs =      20    Nr_points =    1024   r_max =   100.000
     q_mesh =
               0.00001000     0.04494208     0.09755937     0.15916263
               0.23128650     0.31572767     0.41458969     0.53033537
               0.66584808     0.82450364     1.01025438     1.22772762
               1.48234092     1.78043706     2.12944203     2.53805004
               3.01644009     3.57652955     4.23227104     5.00000000

     Gradients computed in reciprocal space

     ************************************************************************


     Starting wfc are  582 randomized atomic wfcs

     total cpu time spent up to now is      154.7 secs

     Self-consistent Calculation

     iteration #  1     ecut=    50.00 Ry     beta=0.70
     Davidson diagonalization with overlap
     ethr =  1.00E-02,  avg # of iterations =  3.0

     Threshold (ethr) on eigenvalues was too large:
     Diagonalizing with lowered threshold

     Davidson diagonalization with overlap
     ethr =  3.38E-04,  avg # of iterations =  4.5

     negative rho (up, down):  1.727E+00 0.000E+00

     total cpu time spent up to now is      760.9 secs

     total energy              =   -6602.82481907 Ry
     Harris-Foulkes estimate   =   -6605.01574422 Ry
     estimated scf accuracy    <       2.74839220 Ry

     iteration #  2     ecut=    50.00 Ry     beta=0.70
     Davidson diagonalization with overlap
     ethr =  3.86E-04,  avg # of iterations = 11.4

     negative rho (up, down):  1.727E+00 0.000E+00

     total cpu time spent up to now is     1698.1 secs

     total energy              =   -6597.24048348 Ry
     Harris-Foulkes estimate   =   -6609.85317553 Ry
     estimated scf accuracy    <      68.56257752 Ry

     iteration #  3     ecut=    50.00 Ry     beta=0.70
     Davidson diagonalization with overlap
     ethr =  3.86E-04,  avg # of iterations =  5.9

     negative rho (up, down):  1.737E+00 0.000E+00

     total cpu time spent up to now is     2292.4 secs

     total energy              =   -6603.22152208 Ry
     Harris-Foulkes estimate   =   -6604.99928320 Ry
     estimated scf accuracy    <       7.93948613 Ry

     iteration #  4     ecut=    50.00 Ry     beta=0.70
     Davidson diagonalization with overlap
     ethr =  3.86E-04,  avg # of iterations =  6.8

     negative rho (up, down):  1.739E+00 0.000E+00

     total cpu time spent up to now is     2659.9 secs

     total energy              =   -6603.88429587 Ry
     Harris-Foulkes estimate   =   -6604.81888883 Ry
     estimated scf accuracy    <       6.23544997 Ry

     iteration #  5     ecut=    50.00 Ry     beta=0.70
     Davidson diagonalization with overlap
     ethr =  3.86E-04,  avg # of iterations =  5.5

     negative rho (up, down):  1.748E+00 0.000E+00

     total cpu time spent up to now is     3007.6 secs

     total energy              =   -6604.17279592 Ry
     Harris-Foulkes estimate   =   -6604.73976671 Ry
     estimated scf accuracy    <       5.26504133 Ry

     iteration #  6     ecut=    50.00 Ry     beta=0.70
     Davidson diagonalization with overlap
     ethr =  3.86E-04,  avg # of iterations =  3.3

     negative rho (up, down):  1.752E+00 0.000E+00

     total cpu time spent up to now is     3292.3 secs

     total energy              =   -6604.41365558 Ry
     Harris-Foulkes estimate   =   -6604.46252692 Ry
     estimated scf accuracy    <       0.16406408 Ry

     iteration #  7     ecut=    50.00 Ry     beta=0.70
     Davidson diagonalization with overlap
     ethr =  2.30E-05,  avg # of iterations = 10.2

     negative rho (up, down):  1.754E+00 0.000E+00

     total cpu time spent up to now is     3732.4 secs

     total energy              =   -6604.42144690 Ry
     Harris-Foulkes estimate   =   -6604.44986677 Ry
     estimated scf accuracy    <       0.12978913 Ry

     iteration #  8     ecut=    50.00 Ry     beta=0.70
     Davidson diagonalization with overlap
     ethr =  1.82E-05,  avg # of iterations =  3.7

     negative rho (up, down):  1.756E+00 0.000E+00

     total cpu time spent up to now is     4021.0 secs

     total energy              =   -6604.42433921 Ry
     Harris-Foulkes estimate   =   -6604.43805397 Ry
     estimated scf accuracy    <       0.05605445 Ry

     iteration #  9     ecut=    50.00 Ry     beta=0.70
     Davidson diagonalization with overlap
     ethr =  7.87E-06,  avg # of iterations =  6.9

     negative rho (up, down):  1.756E+00 0.000E+00

     total cpu time spent up to now is     4368.6 secs

     total energy              =   -6604.42377662 Ry
     Harris-Foulkes estimate   =   -6604.43039683 Ry
     estimated scf accuracy    <       0.02471080 Ry

     iteration # 10     ecut=    50.00 Ry     beta=0.70
     Davidson diagonalization with overlap
     ethr =  3.47E-06,  avg # of iterations =  6.4

     negative rho (up, down):  1.757E+00 0.000E+00

     total cpu time spent up to now is     4712.3 secs

     total energy              =   -6604.42309365 Ry
     Harris-Foulkes estimate   =   -6604.42619302 Ry
     estimated scf accuracy    <       0.01049987 Ry

     iteration # 11     ecut=    50.00 Ry     beta=0.70
     Davidson diagonalization with overlap
     ethr =  1.47E-06,  avg # of iterations =  8.1

     negative rho (up, down):  1.757E+00 0.000E+00

     total cpu time spent up to now is     5083.8 secs

     total energy              =   -6604.42286252 Ry
     Harris-Foulkes estimate   =   -6604.42432021 Ry
     estimated scf accuracy    <       0.00537388 Ry

     iteration # 12     ecut=    50.00 Ry     beta=0.70
     Davidson diagonalization with overlap
     ethr =  7.55E-07,  avg # of iterations =  3.7

     negative rho (up, down):  1.758E+00 0.000E+00

     total cpu time spent up to now is     5375.3 secs

     total energy              =   -6604.42264501 Ry
     Harris-Foulkes estimate   =   -6604.42338103 Ry
     estimated scf accuracy    <       0.00125788 Ry

     iteration # 13     ecut=    50.00 Ry     beta=0.70
     Davidson diagonalization with overlap
     c_bands:  1 eigenvalues not converged
     c_bands:  1 eigenvalues not converged
     ethr =  1.77E-07,  avg # of iterations = 10.0

     negative rho (up, down):  1.758E+00 0.000E+00

     total cpu time spent up to now is     5821.7 secs

     total energy              =   -6604.42282839 Ry
     Harris-Foulkes estimate   =   -6604.42304697 Ry
     estimated scf accuracy    <       0.00069854 Ry

     iteration # 14     ecut=    50.00 Ry     beta=0.70
     Davidson diagonalization with overlap
     ethr =  9.81E-08,  avg # of iterations =  2.0

     negative rho (up, down):  1.758E+00 0.000E+00

     total cpu time spent up to now is     6088.5 secs

     total energy              =   -6604.42291750 Ry
     Harris-Foulkes estimate   =   -6604.42298399 Ry
     estimated scf accuracy    <       0.00024196 Ry

     iteration # 15     ecut=    50.00 Ry     beta=0.70
     Davidson diagonalization with overlap
     ethr =  3.40E-08,  avg # of iterations =  2.0

     negative rho (up, down):  1.758E+00 0.000E+00

     total cpu time spent up to now is     6358.7 secs

     total energy              =   -6604.42292894 Ry
     Harris-Foulkes estimate   =   -6604.42297668 Ry
     estimated scf accuracy    <       0.00021602 Ry

     iteration # 16     ecut=    50.00 Ry     beta=0.70
     Davidson diagonalization with overlap
     ethr =  3.03E-08,  avg # of iterations =  2.0

     negative rho (up, down):  1.757E+00 0.000E+00

     total cpu time spent up to now is     6625.3 secs

     total energy              =   -6604.42291922 Ry
     Harris-Foulkes estimate   =   -6604.42299406 Ry
     estimated scf accuracy    <       0.00080496 Ry

     iteration # 17     ecut=    50.00 Ry     beta=0.70
     Davidson diagonalization with overlap
     ethr =  3.03E-08,  avg # of iterations =  1.0

     negative rho (up, down):  1.757E+00 0.000E+00

     total cpu time spent up to now is     6872.7 secs

     total energy              =   -6604.42295677 Ry
     Harris-Foulkes estimate   =   -6604.42295865 Ry
     estimated scf accuracy    <       0.00000716 Ry

     iteration # 18     ecut=    50.00 Ry     beta=0.70
     Davidson diagonalization with overlap
     ethr =  1.01E-09,  avg # of iterations =  3.0

     negative rho (up, down):  1.757E+00 0.000E+00

     total cpu time spent up to now is     7219.8 secs

     total energy              =   -6604.42295651 Ry
     Harris-Foulkes estimate   =   -6604.42295991 Ry
     estimated scf accuracy    <       0.00001345 Ry

     iteration # 19     ecut=    50.00 Ry     beta=0.70
     Davidson diagonalization with overlap
     ethr =  1.01E-09,  avg # of iterations =  2.0

     negative rho (up, down):  1.757E+00 0.000E+00

     total cpu time spent up to now is     7494.9 secs

     total energy              =   -6604.42295815 Ry
     Harris-Foulkes estimate   =   -6604.42295863 Ry
     estimated scf accuracy    <       0.00000195 Ry

     iteration # 20     ecut=    50.00 Ry     beta=0.70
     Davidson diagonalization with overlap
     ethr =  2.74E-10,  avg # of iterations =  2.0

     negative rho (up, down):  1.757E+00 0.000E+00

     total cpu time spent up to now is     7760.4 secs

     total energy              =   -6604.42295844 Ry
     Harris-Foulkes estimate   =   -6604.42295850 Ry
     estimated scf accuracy    <       0.00000028 Ry

     iteration # 21     ecut=    50.00 Ry     beta=0.70
     Davidson diagonalization with overlap
     ethr =  3.94E-11,  avg # of iterations =  2.5

     negative rho (up, down):  1.757E+00 0.000E+00

     total cpu time spent up to now is     8073.2 secs

     total energy              =   -6604.42295850 Ry
     Harris-Foulkes estimate   =   -6604.42295854 Ry
     estimated scf accuracy    <       0.00000020 Ry

     iteration # 22     ecut=    50.00 Ry     beta=0.70
     Davidson diagonalization with overlap
     ethr =  2.88E-11,  avg # of iterations =  2.0

     negative rho (up, down):  1.757E+00 0.000E+00

     total cpu time spent up to now is     8323.0 secs

     total energy              =   -6604.42295853 Ry
     Harris-Foulkes estimate   =   -6604.42295853 Ry
     estimated scf accuracy    <       0.00000001 Ry

     iteration # 23     ecut=    50.00 Ry     beta=0.70
     Davidson diagonalization with overlap
     ethr =  1.56E-12,  avg # of iterations =  3.0

     negative rho (up, down):  1.757E+00 0.000E+00

     total cpu time spent up to now is     8692.7 secs

     total energy              =   -6604.42295854 Ry
     Harris-Foulkes estimate   =   -6604.42295854 Ry
     estimated scf accuracy    <       0.00000002 Ry

     iteration # 24     ecut=    50.00 Ry     beta=0.70
     Davidson diagonalization with overlap
     ethr =  1.56E-12,  avg # of iterations =  3.0

     negative rho (up, down):  1.757E+00 0.000E+00

     total cpu time spent up to now is     9016.1 secs

     total energy              =   -6604.42295854 Ry
     Harris-Foulkes estimate   =   -6604.42295854 Ry
     estimated scf accuracy    <       0.00000002 Ry

     iteration # 25     ecut=    50.00 Ry     beta=0.70
     Davidson diagonalization with overlap
     ethr =  1.56E-12,  avg # of iterations =  2.0

     negative rho (up, down):  1.757E+00 0.000E+00

     total cpu time spent up to now is     9265.9 secs

     End of self-consistent calculation

          k = 0.2500 0.4330 0.1111 (136853 PWs)   bands (ev):

   -18.5787  -6.6233  -6.3880  -5.9933  -5.9918  -5.3145  -4.9829  -4.9825
    -4.9433  -4.9419  -4.5831  -4.5821  -4.4841  -4.4839  -4.4700  -4.4470
    -4.4249  -4.3178  -4.3152  -4.2921  -4.2491  -4.2486  -4.1811  -4.1794
    -4.1735  -4.1723  -4.1517  -4.1465  -4.1446  -4.0777  -4.0715  -4.0443
    -4.0427  -4.0316  -4.0308  -4.0084  -4.0076  -3.9853  -3.9773  -3.9768
    -3.9507  -3.8984  -3.8979  -3.8507  -3.8489  -3.7925  -3.7912  -3.7378
    -3.7359  -3.7358  -3.7350  -3.7002  -3.6643  -3.6621  -3.6549  -3.6536
    -3.6523  -3.6259  -3.6217  -3.6139  -3.5543  -3.5529  -3.5452  -3.5262
    -3.5190  -3.4473  -3.4457  -3.4168  -3.4118  -3.3876  -3.3846  -3.3710
    -3.3555  -3.2968  -3.2957  -3.2793  -3.2766  -3.2282  -3.2260  -3.2220
    -3.1817  -3.1553  -3.1496  -3.1457  -3.1417  -3.1346  -3.1310  -3.1214
    -3.1206  -3.1119  -3.0714  -3.0359  -3.0307  -3.0196  -3.0172  -2.9909
    -2.9844  -2.9813  -2.9678  -2.9175  -2.9143  -2.9089  -2.8693  -2.8653
    -2.8512  -2.8482  -2.8279  -2.8193  -2.7923  -2.7792  -2.7534  -2.7423
    -2.7302  -2.7218  -2.7086  -2.7028  -2.6592  -2.6550  -2.6250  -2.6029
    -2.6004  -2.5798  -2.5752  -2.5676  -2.5638  -2.5557  -2.5348  -2.5333
    -2.4879  -2.4874  -2.4863  -2.4716  -2.4699  -2.4634  -2.4580  -2.4547
    -2.4526  -2.4509  -2.4460  -2.4374  -2.4334  -2.4238  -2.4030  -2.3978
    -2.3953  -2.3933  -2.3920  -2.3902  -2.3878  -2.3644  -2.3612  -2.3486
    -2.3453  -2.3277  -2.3266  -2.3198  -2.3167  -2.3156  -2.3139  -2.2996
    -2.2943  -2.2933  -2.2906  -2.2764  -2.2510  -2.2486  -2.2096  -2.2092
    -2.1869  -2.1847  -2.1582  -2.1557  -2.1314  -2.1283  -2.1133  -2.1075
    -2.0808  -2.0646  -2.0597  -2.0524  -2.0502  -2.0470  -2.0407  -2.0395
    -2.0130  -2.0088  -2.0011  -1.9428  -1.9419  -1.9364  -1.9339  -1.9320
    -1.9009  -1.8791  -1.8776  -1.8525  -1.8488  -1.7927  -1.7902  -1.7609
    -1.7427  -1.7409  -1.6850  -1.6810  -1.6735  -1.6682  -1.6599  -1.6577
    -1.6539  -1.6484  -1.6433  -1.5964  -1.5859  -1.5816  -1.5754  -1.5751
    -1.5609  -1.5551  -1.5235  -1.5209  -1.5074  -1.5044  -1.5028  -1.4964
    -1.4907  -1.4857  -1.4800  -1.4639  -1.4610  -1.4271  -1.4178  -1.4131
    -1.4081  -1.3904  -1.3742  -1.3360  -1.3310  -1.3061  -1.3026  -1.3003
    -1.2727  -1.2283  -1.2192  -1.2180  -1.2159  -1.2128  -1.2108  -1.2020
    -1.1862  -1.1828  -1.1480  -1.1412  -1.1172  -1.1124  -1.1086  -1.1051
    -1.0998  -1.0879  -1.0822  -1.0810  -1.0783  -1.0760  -1.0423  -1.0394
    -1.0379  -1.0368  -1.0118  -1.0066  -1.0030  -0.9783  -0.9749  -0.9697
    -0.9277  -0.9194  -0.9163  -0.8842  -0.8758  -0.8658  -0.8622  -0.8575
    -0.8557  -0.8543  -0.8514  -0.8421  -0.8397  -0.8170  -0.8157  -0.8124
    -0.8111  -0.8077  -0.7731  -0.7721  -0.7709  -0.7599  -0.7462  -0.7396
    -0.7369  -0.7263  -0.6731  -0.6714  -0.6657  -0.6608  -0.6593  -0.6583
    -0.6535  -0.6359  -0.6332  -0.6291  -0.6232  -0.6229  -0.6216  -0.5870
    -0.5827  -0.5797  -0.5739  -0.5710  -0.5681  -0.5643  -0.5562  -0.5495
    -0.5462  -0.5449  -0.5329  -0.5038  -0.5009  -0.4947  -0.4902  -0.4889
    -0.4161  -0.4113  -0.4105  -0.4093  -0.4009  -0.3995  -0.3646  -0.3528
    -0.3507  -0.3199  -0.3187  -0.3154  -0.2002  -0.1941  -0.0955   0.3188
     0.3200   0.3242   0.3247   0.3851   0.3904   0.7732   0.7737   0.8158
     0.8172   0.9315   1.0060   1.1145   1.1209   1.3416   1.3456   1.9682
     1.9739   2.1300   2.1364   2.2639   2.2715   2.3692   2.3696   2.5234
     2.7613   2.7784   2.8847   3.1059   3.1144   3.1909   3.1935   3.2931
     3.3085   3.5137   3.5229   3.5637   3.7639   3.7675   3.8222   3.8338
     4.0807   4.0905   4.0981   4.3335   4.3735   4.3792   4.4219   4.7519
     4.7613   4.7881   4.9183   5.0962   5.0982   5.1594   5.1836   5.5477
     5.8187   5.8692   5.8868   5.8945   5.9228   5.9541   5.9610   6.0492
     6.0725   6.0924   6.1208   6.1274   6.1365   6.1568   6.1682   6.1814
     6.1862   6.4552   6.5897   6.7299   6.7582   6.7871   6.8250   6.8352
     6.8441   6.9529   7.0211

          k = 0.2500-0.1443 0.1111 (136898 PWs)   bands (ev):

   -18.5787  -6.6482  -6.5720  -5.8104  -5.5177  -5.4609  -5.4604  -4.9229
    -4.9225  -4.7909  -4.7901  -4.6350  -4.6067  -4.5433  -4.5101  -4.5085
    -4.4763  -4.4760  -4.3477  -4.3061  -4.3057  -4.2463  -4.2255  -4.2244
    -4.1228  -4.1223  -4.0870  -4.0859  -4.0857  -4.0592  -4.0376  -4.0374
    -3.9340  -3.9308  -3.9303  -3.9102  -3.8938  -3.8924  -3.8811  -3.8800
    -3.8679  -3.8377  -3.8372  -3.8367  -3.8359  -3.8050  -3.8038  -3.7871
    -3.7857  -3.7747  -3.7331  -3.7297  -3.6983  -3.6850  -3.6822  -3.6776
    -3.6774  -3.6038  -3.6030  -3.5696  -3.5667  -3.5651  -3.4986  -3.4972
    -3.4848  -3.4814  -3.4536  -3.4528  -3.4512  -3.4503  -3.3011  -3.2956
    -3.2768  -3.2732  -3.2680  -3.2511  -3.2497  -3.2254  -3.2246  -3.1760
    -3.1738  -3.1604  -3.1572  -3.1380  -3.0945  -3.0903  -3.0718  -3.0673
    -3.0638  -3.0287  -3.0238  -3.0172  -3.0154  -3.0048  -2.9988  -2.9645
    -2.9607  -2.9467  -2.9396  -2.9369  -2.9350  -2.9312  -2.8648  -2.8564
    -2.8550  -2.8373  -2.8234  -2.7904  -2.7629  -2.7534  -2.7335  -2.7278
    -2.7199  -2.7154  -2.7068  -2.6852  -2.6827  -2.6736  -2.6560  -2.6349
    -2.6325  -2.6239  -2.6116  -2.6100  -2.6021  -2.5990  -2.5951  -2.5907
    -2.5864  -2.5409  -2.5103  -2.5082  -2.4926  -2.4794  -2.4748  -2.4712
    -2.4651  -2.4641  -2.4629  -2.4349  -2.4340  -2.4300  -2.4232  -2.4207
    -2.4075  -2.3795  -2.3790  -2.3779  -2.3771  -2.3753  -2.3313  -2.3021
    -2.2999  -2.2987  -2.2928  -2.2837  -2.2737  -2.2705  -2.2542  -2.2540
    -2.2242  -2.2198  -2.2191  -2.2016  -2.2007  -2.1998  -2.1705  -2.1662
    -2.1291  -2.1230  -2.1191  -2.1172  -2.1153  -2.1103  -2.1094  -2.1058
    -2.1047  -2.1004  -2.0970  -2.0831  -2.0811  -1.9586  -1.9555  -1.9252
    -1.9181  -1.9146  -1.9094  -1.9091  -1.8955  -1.8935  -1.8893  -1.8885
    -1.8855  -1.8654  -1.8593  -1.8577  -1.8474  -1.8462  -1.8422  -1.8224
    -1.8208  -1.7932  -1.7924  -1.7642  -1.7625  -1.7516  -1.7427  -1.7249
    -1.7238  -1.7207  -1.7038  -1.6907  -1.6901  -1.6828  -1.6822  -1.6579
    -1.6571  -1.6414  -1.6381  -1.6072  -1.6046  -1.5979  -1.5507  -1.5455
    -1.5340  -1.5314  -1.5303  -1.5066  -1.5039  -1.4731  -1.4721  -1.4696
    -1.4384  -1.4276  -1.4267  -1.4111  -1.4094  -1.3880  -1.3840  -1.3806
    -1.3549  -1.3502  -1.3496  -1.2905  -1.2864  -1.2775  -1.2727  -1.2619
    -1.2571  -1.2455  -1.2445  -1.2269  -1.2136  -1.1895  -1.1844  -1.1743
    -1.1464  -1.1370  -1.1349  -1.1254  -1.1237  -1.1218  -1.1174  -1.1165
    -1.1022  -1.0781  -1.0724  -1.0616  -1.0599  -1.0581  -1.0565  -1.0372
    -1.0178  -1.0152  -0.9981  -0.9933  -0.9055  -0.8913  -0.8858  -0.8843
    -0.8819  -0.8762  -0.8730  -0.8561  -0.8511  -0.8369  -0.8318  -0.8201
    -0.8189  -0.8120  -0.7916  -0.7904  -0.7859  -0.7789  -0.7094  -0.7052
    -0.6808  -0.6717  -0.6679  -0.6666  -0.6596  -0.6584  -0.6580  -0.6475
    -0.6447  -0.6307  -0.6039  -0.5978  -0.5751  -0.5703  -0.5616  -0.5584
    -0.5579  -0.5474  -0.5466  -0.5444  -0.5422  -0.5294  -0.5255  -0.5211
    -0.5197  -0.4912  -0.4908  -0.4875  -0.4763  -0.4757  -0.4570  -0.4259
    -0.4249  -0.4158  -0.4148  -0.3490  -0.3467  -0.3120  -0.3103  -0.2548
    -0.2527  -0.2501  -0.2342  -0.2261   0.0035   0.0062   0.3485   0.3488
     0.4416   0.4447   0.6369   0.6559   0.6667   0.7965   0.7979   1.2286
     1.2295   1.2476   1.5098   1.5387   1.5394   1.8175   1.8227   1.8933
     1.8959   1.9211   1.9259   2.1511   2.1519   2.2398   2.2409   2.3246
     2.3784   2.3856   2.5438   2.6431   3.0749   3.0844   3.0856   3.0875
     3.1403   3.1413   3.4324   3.4337   3.7103   3.7195   3.8319   4.1293
     4.1638   4.1749   4.3979   4.4167   4.4684   4.4738   4.5625   4.6757
     4.6860   4.7964   4.8011   5.0997   5.1609   5.1767   5.3331   5.3650
     5.4521   5.5547   5.5629   5.5850   5.5892   5.6421   5.6535   5.7074
     5.8827   6.0616   6.2504   6.2869   6.3609   6.3896   6.3945   6.4004
     6.4101   6.5541   6.6453   6.6495   6.6659   6.8477   6.8858   6.9073
     6.9403   7.0245   7.1151

          k =-0.2500-0.4330 0.1111 (136853 PWs)   bands (ev):

   -18.5787  -6.6233  -6.3880  -5.9933  -5.9918  -5.3145  -4.9829  -4.9825
    -4.9433  -4.9419  -4.5831  -4.5821  -4.4841  -4.4839  -4.4700  -4.4470
    -4.4249  -4.3178  -4.3152  -4.2921  -4.2491  -4.2486  -4.1811  -4.1794
    -4.1735  -4.1723  -4.1517  -4.1465  -4.1446  -4.0777  -4.0715  -4.0443
    -4.0427  -4.0316  -4.0308  -4.0084  -4.0076  -3.9853  -3.9773  -3.9768
    -3.9507  -3.8984  -3.8979  -3.8507  -3.8489  -3.7925  -3.7912  -3.7378
    -3.7359  -3.7358  -3.7350  -3.7002  -3.6643  -3.6621  -3.6549  -3.6536
    -3.6523  -3.6259  -3.6217  -3.6139  -3.5543  -3.5529  -3.5452  -3.5262
    -3.5190  -3.4473  -3.4457  -3.4168  -3.4118  -3.3876  -3.3846  -3.3710
    -3.3555  -3.2968  -3.2957  -3.2793  -3.2766  -3.2282  -3.2260  -3.2220
    -3.1817  -3.1553  -3.1496  -3.1457  -3.1417  -3.1346  -3.1311  -3.1214
    -3.1206  -3.1119  -3.0714  -3.0359  -3.0307  -3.0196  -3.0172  -2.9909
    -2.9844  -2.9813  -2.9678  -2.9175  -2.9143  -2.9089  -2.8693  -2.8653
    -2.8512  -2.8482  -2.8279  -2.8193  -2.7923  -2.7792  -2.7534  -2.7423
    -2.7302  -2.7218  -2.7086  -2.7028  -2.6592  -2.6550  -2.6250  -2.6029
    -2.6004  -2.5798  -2.5752  -2.5676  -2.5638  -2.5557  -2.5348  -2.5334
    -2.4879  -2.4874  -2.4863  -2.4716  -2.4699  -2.4634  -2.4580  -2.4547
    -2.4526  -2.4509  -2.4460  -2.4374  -2.4334  -2.4238  -2.4030  -2.3978
    -2.3953  -2.3933  -2.3920  -2.3902  -2.3878  -2.3644  -2.3612  -2.3486
    -2.3453  -2.3277  -2.3266  -2.3198  -2.3167  -2.3156  -2.3139  -2.2996
    -2.2943  -2.2933  -2.2906  -2.2764  -2.2510  -2.2486  -2.2096  -2.2092
    -2.1869  -2.1847  -2.1582  -2.1557  -2.1314  -2.1283  -2.1133  -2.1075
    -2.0808  -2.0646  -2.0597  -2.0524  -2.0502  -2.0470  -2.0407  -2.0395
    -2.0130  -2.0088  -2.0011  -1.9428  -1.9419  -1.9364  -1.9339  -1.9320
    -1.9009  -1.8791  -1.8776  -1.8525  -1.8488  -1.7927  -1.7902  -1.7609
    -1.7427  -1.7409  -1.6850  -1.6810  -1.6735  -1.6682  -1.6599  -1.6577
    -1.6539  -1.6484  -1.6433  -1.5964  -1.5859  -1.5816  -1.5754  -1.5751
    -1.5609  -1.5551  -1.5235  -1.5209  -1.5074  -1.5044  -1.5028  -1.4964
    -1.4907  -1.4857  -1.4800  -1.4639  -1.4610  -1.4271  -1.4178  -1.4131
    -1.4081  -1.3904  -1.3742  -1.3360  -1.3310  -1.3061  -1.3026  -1.3003
    -1.2727  -1.2283  -1.2192  -1.2180  -1.2159  -1.2128  -1.2108  -1.2020
    -1.1862  -1.1828  -1.1480  -1.1412  -1.1172  -1.1124  -1.1086  -1.1051
    -1.0998  -1.0879  -1.0822  -1.0810  -1.0783  -1.0760  -1.0423  -1.0394
    -1.0379  -1.0368  -1.0118  -1.0066  -1.0030  -0.9783  -0.9749  -0.9697
    -0.9277  -0.9194  -0.9163  -0.8842  -0.8758  -0.8658  -0.8622  -0.8575
    -0.8557  -0.8543  -0.8514  -0.8421  -0.8397  -0.8170  -0.8157  -0.8124
    -0.8111  -0.8077  -0.7731  -0.7721  -0.7709  -0.7599  -0.7462  -0.7396
    -0.7369  -0.7263  -0.6731  -0.6714  -0.6657  -0.6608  -0.6593  -0.6583
    -0.6535  -0.6359  -0.6332  -0.6291  -0.6232  -0.6229  -0.6216  -0.5870
    -0.5827  -0.5797  -0.5739  -0.5710  -0.5681  -0.5643  -0.5562  -0.5495
    -0.5462  -0.5449  -0.5329  -0.5038  -0.5009  -0.4947  -0.4902  -0.4889
    -0.4161  -0.4113  -0.4105  -0.4093  -0.4009  -0.3995  -0.3646  -0.3528
    -0.3507  -0.3199  -0.3187  -0.3154  -0.2002  -0.1941  -0.0955   0.3188
     0.3200   0.3242   0.3247   0.3851   0.3904   0.7732   0.7737   0.8158
     0.8172   0.9315   1.0060   1.1145   1.1209   1.3416   1.3456   1.9682
     1.9739   2.1300   2.1364   2.2639   2.2715   2.3692   2.3696   2.5234
     2.7613   2.7784   2.8847   3.1059   3.1144   3.1909   3.1935   3.2931
     3.3085   3.5137   3.5229   3.5637   3.7639   3.7675   3.8222   3.8338
     4.0807   4.0905   4.0981   4.3335   4.3735   4.3792   4.4219   4.7519
     4.7613   4.7881   4.9183   5.0962   5.0982   5.1594   5.1836   5.5477
     5.8181   5.8692   5.8868   5.8945   5.9227   5.9541   5.9610   6.0491
     6.0723   6.0924   6.1213   6.1274   6.1386   6.1569   6.1679   6.1813
     6.1864   6.4564   6.5906   6.7168   6.7560   6.7867   6.8250   6.8350
     6.8437   6.9530   7.0281

          k =-0.2500 0.4330-0.1111 (136853 PWs)   bands (ev):

   -18.5787  -6.6233  -6.3880  -5.9943  -5.9908  -5.3145  -4.9834  -4.9820
    -4.9446  -4.9406  -4.5834  -4.5816  -4.4841  -4.4839  -4.4697  -4.4470
    -4.4249  -4.3177  -4.3156  -4.2922  -4.2490  -4.2487  -4.1811  -4.1794
    -4.1738  -4.1721  -4.1516  -4.1476  -4.1434  -4.0781  -4.0711  -4.0445
    -4.0422  -4.0318  -4.0306  -4.0083  -4.0076  -3.9853  -3.9774  -3.9768
    -3.9509  -3.8986  -3.8979  -3.8512  -3.8485  -3.7925  -3.7912  -3.7380
    -3.7359  -3.7355  -3.7351  -3.7003  -3.6644  -3.6621  -3.6547  -3.6539
    -3.6523  -3.6264  -3.6214  -3.6136  -3.5543  -3.5530  -3.5453  -3.5261
    -3.5187  -3.4480  -3.4454  -3.4168  -3.4117  -3.3872  -3.3848  -3.3709
    -3.3556  -3.2969  -3.2957  -3.2786  -3.2769  -3.2284  -3.2258  -3.2222
    -3.1816  -3.1554  -3.1491  -3.1456  -3.1421  -3.1340  -3.1309  -3.1218
    -3.1210  -3.1119  -3.0712  -3.0361  -3.0309  -3.0194  -3.0171  -2.9909
    -2.9844  -2.9810  -2.9682  -2.9182  -2.9139  -2.9096  -2.8693  -2.8651
    -2.8506  -2.8486  -2.8293  -2.8191  -2.7914  -2.7762  -2.7533  -2.7430
    -2.7301  -2.7219  -2.7088  -2.7040  -2.6593  -2.6546  -2.6248  -2.6031
    -2.6008  -2.5795  -2.5754  -2.5674  -2.5641  -2.5559  -2.5351  -2.5329
    -2.4877  -2.4873  -2.4864  -2.4717  -2.4699  -2.4635  -2.4581  -2.4546
    -2.4528  -2.4510  -2.4459  -2.4371  -2.4336  -2.4244  -2.4032  -2.3976
    -2.3952  -2.3934  -2.3920  -2.3902  -2.3878  -2.3643  -2.3612  -2.3487
    -2.3451  -2.3281  -2.3263  -2.3195  -2.3167  -2.3153  -2.3141  -2.3000
    -2.2946  -2.2931  -2.2904  -2.2764  -2.2511  -2.2488  -2.2102  -2.2088
    -2.1870  -2.1847  -2.1581  -2.1556  -2.1311  -2.1280  -2.1131  -2.1074
    -2.0807  -2.0643  -2.0598  -2.0526  -2.0500  -2.0468  -2.0404  -2.0397
    -2.0129  -2.0085  -2.0010  -1.9433  -1.9420  -1.9367  -1.9339  -1.9322
    -1.9012  -1.8795  -1.8771  -1.8527  -1.8488  -1.7926  -1.7902  -1.7614
    -1.7423  -1.7410  -1.6849  -1.6809  -1.6734  -1.6681  -1.6597  -1.6577
    -1.6540  -1.6484  -1.6435  -1.5958  -1.5859  -1.5819  -1.5756  -1.5752
    -1.5604  -1.5551  -1.5241  -1.5208  -1.5075  -1.5046  -1.5027  -1.4959
    -1.4911  -1.4857  -1.4802  -1.4642  -1.4605  -1.4267  -1.4179  -1.4129
    -1.4080  -1.3903  -1.3743  -1.3359  -1.3314  -1.3065  -1.3030  -1.3001
    -1.2728  -1.2281  -1.2191  -1.2183  -1.2160  -1.2129  -1.2109  -1.2022
    -1.1859  -1.1829  -1.1479  -1.1413  -1.1173  -1.1125  -1.1086  -1.1049
    -1.0998  -1.0879  -1.0822  -1.0811  -1.0781  -1.0758  -1.0428  -1.0390
    -1.0377  -1.0368  -1.0116  -1.0066  -1.0027  -0.9786  -0.9745  -0.9696
    -0.9275  -0.9197  -0.9161  -0.8843  -0.8756  -0.8659  -0.8620  -0.8574
    -0.8556  -0.8543  -0.8513  -0.8427  -0.8396  -0.8173  -0.8155  -0.8125
    -0.8111  -0.8077  -0.7730  -0.7720  -0.7700  -0.7599  -0.7466  -0.7403
    -0.7369  -0.7261  -0.6732  -0.6714  -0.6651  -0.6609  -0.6592  -0.6582
    -0.6535  -0.6359  -0.6330  -0.6293  -0.6233  -0.6228  -0.6216  -0.5871
    -0.5828  -0.5797  -0.5739  -0.5712  -0.5690  -0.5645  -0.5576  -0.5491
    -0.5465  -0.5448  -0.5321  -0.5037  -0.5013  -0.4948  -0.4902  -0.4886
    -0.4161  -0.4111  -0.4103  -0.4094  -0.4009  -0.3995  -0.3645  -0.3528
    -0.3507  -0.3201  -0.3192  -0.3149  -0.1997  -0.1939  -0.0951   0.3189
     0.3200   0.3240   0.3248   0.3850   0.3900   0.7730   0.7737   0.8159
     0.8171   0.9315   1.0062   1.1148   1.1210   1.3406   1.3465   1.9681
     1.9736   2.1304   2.1362   2.2641   2.2713   2.3689   2.3698   2.5233
     2.7614   2.7786   2.8847   3.1056   3.1147   3.1907   3.1937   3.2929
     3.3085   3.5113   3.5253   3.5639   3.7641   3.7674   3.8220   3.8341
     4.0807   4.0901   4.0981   4.3340   4.3731   4.3795   4.4216   4.7525
     4.7607   4.7874   4.9187   5.0962   5.0983   5.1599   5.1835   5.5486
     5.8146   5.8699   5.8874   5.8939   5.9261   5.9543   5.9608   6.0484
     6.0714   6.0926   6.1205   6.1282   6.1370   6.1574   6.1664   6.1816
     6.1874   6.4550   6.5939   6.7170   6.7549   6.7904   6.8247   6.8349
     6.8444   6.9531   7.0292

          k = 0.2500-0.4330-0.1111 (136853 PWs)   bands (ev):

   -18.5787  -6.6233  -6.3880  -5.9943  -5.9908  -5.3145  -4.9834  -4.9820
    -4.9446  -4.9406  -4.5834  -4.5816  -4.4841  -4.4839  -4.4697  -4.4470
    -4.4249  -4.3177  -4.3156  -4.2922  -4.2490  -4.2487  -4.1811  -4.1794
    -4.1738  -4.1721  -4.1516  -4.1476  -4.1434  -4.0781  -4.0711  -4.0445
    -4.0422  -4.0318  -4.0306  -4.0083  -4.0076  -3.9853  -3.9774  -3.9768
    -3.9509  -3.8986  -3.8979  -3.8512  -3.8485  -3.7925  -3.7912  -3.7380
    -3.7359  -3.7355  -3.7351  -3.7003  -3.6644  -3.6621  -3.6547  -3.6539
    -3.6523  -3.6264  -3.6214  -3.6136  -3.5543  -3.5530  -3.5453  -3.5261
    -3.5187  -3.4480  -3.4454  -3.4168  -3.4117  -3.3872  -3.3848  -3.3709
    -3.3556  -3.2969  -3.2957  -3.2786  -3.2769  -3.2284  -3.2258  -3.2222
    -3.1816  -3.1554  -3.1491  -3.1456  -3.1421  -3.1340  -3.1309  -3.1218
    -3.1210  -3.1119  -3.0712  -3.0361  -3.0309  -3.0194  -3.0171  -2.9909
    -2.9844  -2.9810  -2.9682  -2.9182  -2.9139  -2.9096  -2.8693  -2.8651
    -2.8506  -2.8486  -2.8293  -2.8191  -2.7914  -2.7762  -2.7533  -2.7430
    -2.7301  -2.7219  -2.7088  -2.7040  -2.6593  -2.6546  -2.6248  -2.6031
    -2.6008  -2.5795  -2.5754  -2.5674  -2.5641  -2.5559  -2.5351  -2.5329
    -2.4877  -2.4873  -2.4864  -2.4717  -2.4699  -2.4635  -2.4581  -2.4546
    -2.4528  -2.4510  -2.4459  -2.4371  -2.4336  -2.4244  -2.4032  -2.3976
    -2.3952  -2.3934  -2.3920  -2.3902  -2.3878  -2.3643  -2.3612  -2.3487
    -2.3451  -2.3281  -2.3263  -2.3195  -2.3167  -2.3153  -2.3141  -2.3000
    -2.2946  -2.2931  -2.2904  -2.2764  -2.2511  -2.2488  -2.2102  -2.2088
    -2.1870  -2.1847  -2.1581  -2.1556  -2.1311  -2.1280  -2.1131  -2.1074
    -2.0807  -2.0643  -2.0598  -2.0526  -2.0500  -2.0468  -2.0404  -2.0397
    -2.0129  -2.0085  -2.0010  -1.9433  -1.9420  -1.9367  -1.9339  -1.9322
    -1.9012  -1.8795  -1.8771  -1.8527  -1.8488  -1.7926  -1.7902  -1.7614
    -1.7423  -1.7410  -1.6849  -1.6809  -1.6734  -1.6681  -1.6597  -1.6577
    -1.6540  -1.6484  -1.6435  -1.5958  -1.5859  -1.5819  -1.5756  -1.5752
    -1.5604  -1.5551  -1.5241  -1.5208  -1.5075  -1.5046  -1.5027  -1.4959
    -1.4911  -1.4857  -1.4802  -1.4642  -1.4605  -1.4267  -1.4179  -1.4129
    -1.4080  -1.3903  -1.3743  -1.3359  -1.3314  -1.3065  -1.3030  -1.3001
    -1.2728  -1.2281  -1.2192  -1.2183  -1.2160  -1.2129  -1.2109  -1.2022
    -1.1859  -1.1829  -1.1479  -1.1413  -1.1173  -1.1125  -1.1086  -1.1049
    -1.0998  -1.0879  -1.0822  -1.0811  -1.0781  -1.0758  -1.0428  -1.0390
    -1.0377  -1.0368  -1.0116  -1.0066  -1.0027  -0.9786  -0.9745  -0.9696
    -0.9275  -0.9197  -0.9161  -0.8843  -0.8756  -0.8659  -0.8620  -0.8574
    -0.8556  -0.8543  -0.8513  -0.8427  -0.8396  -0.8173  -0.8155  -0.8125
    -0.8111  -0.8077  -0.7730  -0.7720  -0.7700  -0.7599  -0.7466  -0.7403
    -0.7369  -0.7261  -0.6732  -0.6714  -0.6651  -0.6609  -0.6592  -0.6582
    -0.6535  -0.6359  -0.6330  -0.6293  -0.6233  -0.6228  -0.6216  -0.5871
    -0.5828  -0.5797  -0.5739  -0.5712  -0.5690  -0.5645  -0.5576  -0.5491
    -0.5465  -0.5448  -0.5321  -0.5037  -0.5013  -0.4948  -0.4902  -0.4886
    -0.4161  -0.4111  -0.4103  -0.4094  -0.4009  -0.3995  -0.3645  -0.3528
    -0.3507  -0.3201  -0.3192  -0.3149  -0.1997  -0.1939  -0.0951   0.3189
     0.3200   0.3240   0.3248   0.3850   0.3900   0.7730   0.7737   0.8159
     0.8171   0.9315   1.0062   1.1148   1.1210   1.3406   1.3465   1.9681
     1.9736   2.1304   2.1362   2.2641   2.2713   2.3689   2.3698   2.5233
     2.7614   2.7786   2.8847   3.1056   3.1147   3.1907   3.1937   3.2929
     3.3085   3.5113   3.5253   3.5639   3.7641   3.7674   3.8220   3.8341
     4.0807   4.0901   4.0981   4.3340   4.3731   4.3795   4.4216   4.7525
     4.7607   4.7874   4.9187   5.0962   5.0983   5.1599   5.1835   5.5485
     5.8151   5.8699   5.8874   5.8939   5.9262   5.9543   5.9609   6.0486
     6.0715   6.0926   6.1201   6.1282   6.1351   6.1572   6.1668   6.1816
     6.1872   6.4540   6.5930   6.7275   6.7582   6.7906   6.8249   6.8350
     6.8450   6.9531   7.0220

          k = 0.5000 0.0000 0.1111 (136853 PWs)   bands (ev):

   -18.5787  -6.6233  -6.3880  -5.9937  -5.9914  -5.3145  -4.9834  -4.9820
    -4.9451  -4.9400  -4.5837  -4.5814  -4.4844  -4.4839  -4.4696  -4.4470
    -4.4249  -4.3177  -4.3152  -4.2921  -4.2493  -4.2485  -4.1810  -4.1793
    -4.1733  -4.1728  -4.1517  -4.1477  -4.1433  -4.0787  -4.0706  -4.0452
    -4.0418  -4.0316  -4.0309  -4.0080  -4.0076  -3.9854  -3.9772  -3.9767
    -3.9507  -3.8984  -3.8979  -3.8518  -3.8481  -3.7924  -3.7912  -3.7373
    -3.7360  -3.7357  -3.7350  -3.7002  -3.6645  -3.6624  -3.6546  -3.6535
    -3.6527  -3.6257  -3.6220  -3.6141  -3.5544  -3.5530  -3.5447  -3.5260
    -3.5190  -3.4472  -3.4460  -3.4164  -3.4117  -3.3881  -3.3840  -3.3709
    -3.3557  -3.2987  -3.2956  -3.2801  -3.2762  -3.2309  -3.2235  -3.2212
    -3.1815  -3.1598  -3.1493  -3.1422  -3.1415  -3.1329  -3.1309  -3.1211
    -3.1197  -3.1124  -3.0714  -3.0363  -3.0302  -3.0191  -3.0180  -2.9908
    -2.9868  -2.9824  -2.9653  -2.9180  -2.9138  -2.9068  -2.8674  -2.8670
    -2.8512  -2.8479  -2.8296  -2.8187  -2.7925  -2.7842  -2.7539  -2.7359
    -2.7313  -2.7221  -2.7103  -2.7028  -2.6591  -2.6571  -2.6248  -2.6038
    -2.5992  -2.5792  -2.5758  -2.5673  -2.5615  -2.5557  -2.5344  -2.5336
    -2.4877  -2.4867  -2.4857  -2.4715  -2.4698  -2.4634  -2.4579  -2.4546
    -2.4517  -2.4498  -2.4459  -2.4391  -2.4331  -2.4275  -2.4021  -2.3974
    -2.3950  -2.3932  -2.3922  -2.3894  -2.3858  -2.3647  -2.3610  -2.3472
    -2.3457  -2.3281  -2.3263  -2.3212  -2.3175  -2.3159  -2.3144  -2.2985
    -2.2940  -2.2925  -2.2921  -2.2762  -2.2511  -2.2490  -2.2102  -2.2086
    -2.1869  -2.1850  -2.1588  -2.1546  -2.1317  -2.1287  -2.1128  -2.1073
    -2.0809  -2.0638  -2.0620  -2.0534  -2.0514  -2.0478  -2.0419  -2.0393
    -2.0131  -2.0066  -2.0008  -1.9443  -1.9388  -1.9373  -1.9339  -1.9321
    -1.9026  -1.8798  -1.8769  -1.8518  -1.8490  -1.7930  -1.7898  -1.7608
    -1.7436  -1.7403  -1.6857  -1.6805  -1.6734  -1.6683  -1.6599  -1.6571
    -1.6538  -1.6482  -1.6433  -1.5909  -1.5874  -1.5821  -1.5755  -1.5748
    -1.5586  -1.5550  -1.5264  -1.5213  -1.5074  -1.5041  -1.5035  -1.4964
    -1.4923  -1.4861  -1.4797  -1.4634  -1.4614  -1.4246  -1.4188  -1.4112
    -1.4080  -1.3902  -1.3743  -1.3379  -1.3308  -1.3074  -1.3031  -1.3007
    -1.2729  -1.2276  -1.2200  -1.2175  -1.2167  -1.2133  -1.2107  -1.2016
    -1.1861  -1.1829  -1.1487  -1.1405  -1.1178  -1.1126  -1.1073  -1.1057
    -1.0998  -1.0869  -1.0835  -1.0807  -1.0783  -1.0763  -1.0437  -1.0387
    -1.0372  -1.0370  -1.0091  -1.0064  -1.0024  -0.9800  -0.9732  -0.9693
    -0.9265  -0.9216  -0.9159  -0.8845  -0.8762  -0.8661  -0.8621  -0.8567
    -0.8551  -0.8537  -0.8515  -0.8439  -0.8399  -0.8172  -0.8155  -0.8121
    -0.8110  -0.8084  -0.7726  -0.7723  -0.7647  -0.7609  -0.7484  -0.7420
    -0.7375  -0.7262  -0.6732  -0.6712  -0.6627  -0.6614  -0.6586  -0.6570
    -0.6532  -0.6355  -0.6324  -0.6314  -0.6240  -0.6230  -0.6217  -0.5884
    -0.5835  -0.5799  -0.5761  -0.5720  -0.5703  -0.5652  -0.5590  -0.5492
    -0.5457  -0.5443  -0.5316  -0.5038  -0.5013  -0.4949  -0.4895  -0.4878
    -0.4161  -0.4108  -0.4100  -0.4092  -0.4009  -0.3999  -0.3645  -0.3526
    -0.3508  -0.3203  -0.3192  -0.3155  -0.1959  -0.1946  -0.0937   0.3192
     0.3197   0.3243   0.3244   0.3859   0.3878   0.7713   0.7743   0.8160
     0.8175   0.9319   1.0068   1.1149   1.1219   1.3385   1.3486   1.9689
     1.9723   2.1313   2.1354   2.2655   2.2696   2.3685   2.3703   2.5232
     2.7609   2.7790   2.8847   3.1042   3.1159   3.1906   3.1939   3.2923
     3.3086   3.5065   3.5298   3.5638   3.7638   3.7678   3.8242   3.8325
     4.0818   4.0896   4.0975   4.3339   4.3748   4.3785   4.4212   4.7505
     4.7626   4.7879   4.9193   5.0969   5.0980   5.1619   5.1822   5.5521
     5.8012   5.8668   5.8851   5.8960   5.9384   5.9549   5.9610   6.0474
     6.0677   6.0939   6.1227   6.1273   6.1315   6.1574   6.1685   6.1808
     6.1848   6.4510   6.6049   6.7194   6.7590   6.8057   6.8245   6.8360
     6.8401   6.9526   7.0275

          k =-0.5000 0.0000 0.1111 (136853 PWs)   bands (ev):

   -18.5787  -6.6233  -6.3880  -5.9937  -5.9914  -5.3145  -4.9834  -4.9820
    -4.9451  -4.9400  -4.5837  -4.5814  -4.4844  -4.4839  -4.4696  -4.4470
    -4.4249  -4.3177  -4.3152  -4.2921  -4.2493  -4.2485  -4.1810  -4.1793
    -4.1733  -4.1728  -4.1517  -4.1477  -4.1433  -4.0787  -4.0706  -4.0452
    -4.0418  -4.0316  -4.0309  -4.0080  -4.0076  -3.9854  -3.9772  -3.9767
    -3.9507  -3.8984  -3.8979  -3.8518  -3.8481  -3.7924  -3.7912  -3.7373
    -3.7360  -3.7357  -3.7350  -3.7002  -3.6645  -3.6624  -3.6546  -3.6535
    -3.6527  -3.6257  -3.6220  -3.6141  -3.5544  -3.5530  -3.5447  -3.5260
    -3.5190  -3.4472  -3.4460  -3.4164  -3.4117  -3.3881  -3.3840  -3.3709
    -3.3557  -3.2987  -3.2956  -3.2801  -3.2762  -3.2309  -3.2235  -3.2212
    -3.1815  -3.1598  -3.1493  -3.1422  -3.1415  -3.1329  -3.1309  -3.1211
    -3.1197  -3.1124  -3.0714  -3.0363  -3.0302  -3.0191  -3.0180  -2.9908
    -2.9868  -2.9824  -2.9653  -2.9180  -2.9138  -2.9068  -2.8674  -2.8670
    -2.8512  -2.8479  -2.8296  -2.8187  -2.7925  -2.7842  -2.7539  -2.7359
    -2.7313  -2.7221  -2.7103  -2.7028  -2.6591  -2.6571  -2.6248  -2.6038
    -2.5992  -2.5792  -2.5758  -2.5673  -2.5615  -2.5557  -2.5344  -2.5336
    -2.4877  -2.4867  -2.4857  -2.4715  -2.4698  -2.4634  -2.4579  -2.4546
    -2.4517  -2.4498  -2.4459  -2.4391  -2.4331  -2.4275  -2.4021  -2.3974
    -2.3950  -2.3932  -2.3922  -2.3894  -2.3858  -2.3647  -2.3610  -2.3472
    -2.3457  -2.3281  -2.3263  -2.3212  -2.3175  -2.3159  -2.3144  -2.2985
    -2.2940  -2.2925  -2.2921  -2.2762  -2.2511  -2.2490  -2.2102  -2.2086
    -2.1869  -2.1850  -2.1588  -2.1546  -2.1317  -2.1287  -2.1128  -2.1073
    -2.0809  -2.0638  -2.0620  -2.0534  -2.0514  -2.0478  -2.0419  -2.0393
    -2.0131  -2.0066  -2.0008  -1.9443  -1.9388  -1.9373  -1.9339  -1.9321
    -1.9026  -1.8798  -1.8769  -1.8518  -1.8490  -1.7930  -1.7898  -1.7608
    -1.7436  -1.7403  -1.6857  -1.6805  -1.6734  -1.6683  -1.6599  -1.6571
    -1.6538  -1.6482  -1.6433  -1.5909  -1.5874  -1.5821  -1.5755  -1.5748
    -1.5586  -1.5550  -1.5264  -1.5213  -1.5074  -1.5041  -1.5035  -1.4964
    -1.4923  -1.4861  -1.4797  -1.4634  -1.4614  -1.4246  -1.4188  -1.4112
    -1.4080  -1.3902  -1.3743  -1.3379  -1.3308  -1.3074  -1.3031  -1.3007
    -1.2729  -1.2276  -1.2200  -1.2175  -1.2167  -1.2133  -1.2107  -1.2016
    -1.1861  -1.1829  -1.1487  -1.1405  -1.1178  -1.1126  -1.1073  -1.1057
    -1.0998  -1.0869  -1.0835  -1.0807  -1.0783  -1.0763  -1.0437  -1.0387
    -1.0372  -1.0370  -1.0091  -1.0064  -1.0024  -0.9800  -0.9732  -0.9693
    -0.9265  -0.9216  -0.9159  -0.8845  -0.8762  -0.8661  -0.8621  -0.8567
    -0.8551  -0.8537  -0.8515  -0.8439  -0.8399  -0.8172  -0.8155  -0.8121
    -0.8110  -0.8084  -0.7726  -0.7723  -0.7647  -0.7609  -0.7484  -0.7420
    -0.7375  -0.7262  -0.6732  -0.6712  -0.6627  -0.6614  -0.6586  -0.6570
    -0.6532  -0.6355  -0.6324  -0.6314  -0.6240  -0.6230  -0.6217  -0.5884
    -0.5835  -0.5799  -0.5761  -0.5720  -0.5703  -0.5652  -0.5590  -0.5492
    -0.5457  -0.5443  -0.5316  -0.5038  -0.5013  -0.4949  -0.4895  -0.4878
    -0.4161  -0.4108  -0.4100  -0.4092  -0.4009  -0.3999  -0.3645  -0.3526
    -0.3508  -0.3203  -0.3192  -0.3155  -0.1959  -0.1946  -0.0937   0.3192
     0.3197   0.3243   0.3244   0.3859   0.3878   0.7713   0.7743   0.8160
     0.8175   0.9319   1.0068   1.1149   1.1219   1.3385   1.3486   1.9689
     1.9723   2.1313   2.1354   2.2655   2.2696   2.3685   2.3703   2.5232
     2.7609   2.7790   2.8847   3.1042   3.1159   3.1906   3.1939   3.2923
     3.3086   3.5065   3.5298   3.5638   3.7638   3.7678   3.8242   3.8325
     4.0818   4.0896   4.0975   4.3339   4.3748   4.3785   4.4212   4.7505
     4.7626   4.7879   4.9193   5.0969   5.0980   5.1619   5.1822   5.5521
     5.8012   5.8668   5.8851   5.8960   5.9384   5.9549   5.9610   6.0474
     6.0676   6.0939   6.1227   6.1273   6.1317   6.1574   6.1684   6.1808
     6.1849   6.4511   6.6050   6.7185   6.7585   6.8055   6.8245   6.8360
     6.8400   6.9526   7.0281

          k =-0.2500 0.1443 0.1111 (136898 PWs)   bands (ev):

   -18.5787  -6.6482  -6.5720  -5.8104  -5.5177  -5.4609  -5.4604  -4.9229
    -4.9225  -4.7909  -4.7901  -4.6350  -4.6067  -4.5433  -4.5101  -4.5085
    -4.4763  -4.4760  -4.3477  -4.3061  -4.3057  -4.2463  -4.2255  -4.2244
    -4.1228  -4.1223  -4.0870  -4.0859  -4.0857  -4.0592  -4.0376  -4.0374
    -3.9340  -3.9308  -3.9303  -3.9102  -3.8938  -3.8924  -3.8811  -3.8800
    -3.8679  -3.8377  -3.8372  -3.8367  -3.8359  -3.8050  -3.8039  -3.7871
    -3.7857  -3.7747  -3.7331  -3.7297  -3.6983  -3.6850  -3.6822  -3.6776
    -3.6774  -3.6038  -3.6030  -3.5696  -3.5667  -3.5651  -3.4986  -3.4972
    -3.4848  -3.4814  -3.4536  -3.4528  -3.4512  -3.4503  -3.3011  -3.2956
    -3.2768  -3.2732  -3.2680  -3.2510  -3.2497  -3.2254  -3.2246  -3.1760
    -3.1738  -3.1604  -3.1572  -3.1380  -3.0945  -3.0903  -3.0718  -3.0673
    -3.0638  -3.0287  -3.0238  -3.0172  -3.0154  -3.0048  -2.9988  -2.9645
    -2.9607  -2.9467  -2.9396  -2.9369  -2.9350  -2.9312  -2.8648  -2.8564
    -2.8550  -2.8373  -2.8234  -2.7904  -2.7629  -2.7534  -2.7335  -2.7278
    -2.7199  -2.7154  -2.7068  -2.6852  -2.6827  -2.6736  -2.6560  -2.6349
    -2.6325  -2.6239  -2.6116  -2.6100  -2.6021  -2.5990  -2.5951  -2.5907
    -2.5864  -2.5409  -2.5103  -2.5082  -2.4926  -2.4794  -2.4748  -2.4712
    -2.4651  -2.4641  -2.4629  -2.4349  -2.4340  -2.4300  -2.4232  -2.4207
    -2.4075  -2.3795  -2.3790  -2.3779  -2.3771  -2.3753  -2.3313  -2.3021
    -2.2999  -2.2987  -2.2928  -2.2837  -2.2737  -2.2705  -2.2542  -2.2540
    -2.2242  -2.2198  -2.2191  -2.2016  -2.2007  -2.1998  -2.1705  -2.1662
    -2.1291  -2.1230  -2.1191  -2.1172  -2.1153  -2.1103  -2.1094  -2.1058
    -2.1047  -2.1004  -2.0970  -2.0831  -2.0811  -1.9586  -1.9555  -1.9252
    -1.9181  -1.9146  -1.9094  -1.9091  -1.8955  -1.8935  -1.8893  -1.8885
    -1.8855  -1.8653  -1.8593  -1.8577  -1.8474  -1.8462  -1.8422  -1.8224
    -1.8208  -1.7932  -1.7925  -1.7642  -1.7625  -1.7516  -1.7427  -1.7249
    -1.7238  -1.7207  -1.7038  -1.6907  -1.6901  -1.6828  -1.6822  -1.6579
    -1.6571  -1.6414  -1.6381  -1.6072  -1.6046  -1.5979  -1.5507  -1.5455
    -1.5340  -1.5314  -1.5303  -1.5066  -1.5039  -1.4731  -1.4721  -1.4696
    -1.4384  -1.4276  -1.4267  -1.4111  -1.4094  -1.3880  -1.3840  -1.3806
    -1.3549  -1.3502  -1.3496  -1.2906  -1.2864  -1.2775  -1.2727  -1.2619
    -1.2571  -1.2455  -1.2445  -1.2269  -1.2136  -1.1895  -1.1844  -1.1743
    -1.1464  -1.1370  -1.1349  -1.1254  -1.1237  -1.1218  -1.1174  -1.1165
    -1.1022  -1.0781  -1.0724  -1.0616  -1.0599  -1.0581  -1.0565  -1.0372
    -1.0178  -1.0152  -0.9981  -0.9933  -0.9055  -0.8913  -0.8858  -0.8843
    -0.8819  -0.8762  -0.8730  -0.8561  -0.8511  -0.8369  -0.8318  -0.8201
    -0.8189  -0.8120  -0.7916  -0.7904  -0.7859  -0.7789  -0.7094  -0.7052
    -0.6808  -0.6717  -0.6679  -0.6666  -0.6596  -0.6584  -0.6580  -0.6475
    -0.6447  -0.6307  -0.6039  -0.5978  -0.5751  -0.5703  -0.5616  -0.5584
    -0.5579  -0.5474  -0.5466  -0.5444  -0.5422  -0.5294  -0.5255  -0.5211
    -0.5197  -0.4912  -0.4908  -0.4875  -0.4763  -0.4757  -0.4570  -0.4259
    -0.4249  -0.4158  -0.4149  -0.3490  -0.3467  -0.3120  -0.3103  -0.2548
    -0.2527  -0.2501  -0.2343  -0.2261   0.0035   0.0062   0.3485   0.3488
     0.4416   0.4447   0.6369   0.6559   0.6667   0.7965   0.7979   1.2286
     1.2295   1.2476   1.5098   1.5387   1.5394   1.8175   1.8227   1.8933
     1.8959   1.9211   1.9259   2.1511   2.1519   2.2398   2.2409   2.3246
     2.3784   2.3856   2.5438   2.6431   3.0749   3.0844   3.0856   3.0875
     3.1403   3.1413   3.4324   3.4337   3.7103   3.7195   3.8319   4.1293
     4.1638   4.1749   4.3979   4.4167   4.4684   4.4738   4.5625   4.6757
     4.6860   4.7964   4.8011   5.0997   5.1609   5.1767   5.3332   5.3651
     5.4520   5.5547   5.5629   5.5850   5.5892   5.6421   5.6535   5.7073
     5.8835   6.0600   6.2504   6.2864   6.3607   6.3896   6.3946   6.4003
     6.4101   6.5575   6.6450   6.6506   6.6708   6.8474   6.8842   6.9073
     6.9388   7.0220   7.1129

          k =-0.2500-0.1443-0.1111 (136898 PWs)   bands (ev):

   -18.5787  -6.6482  -6.5720  -5.8104  -5.5177  -5.4609  -5.4603  -4.9228
    -4.9225  -4.7911  -4.7900  -4.6350  -4.6067  -4.5434  -4.5101  -4.5086
    -4.4762  -4.4760  -4.3477  -4.3060  -4.3059  -4.2462  -4.2256  -4.2245
    -4.1227  -4.1222  -4.0870  -4.0860  -4.0856  -4.0592  -4.0377  -4.0373
    -3.9340  -3.9308  -3.9305  -3.9101  -3.8938  -3.8924  -3.8811  -3.8800
    -3.8678  -3.8376  -3.8371  -3.8366  -3.8358  -3.8051  -3.8039  -3.7871
    -3.7857  -3.7746  -3.7332  -3.7297  -3.6985  -3.6850  -3.6821  -3.6776
    -3.6774  -3.6039  -3.6031  -3.5695  -3.5666  -3.5650  -3.4988  -3.4974
    -3.4846  -3.4813  -3.4538  -3.4525  -3.4514  -3.4507  -3.3014  -3.2956
    -3.2766  -3.2735  -3.2678  -3.2511  -3.2497  -3.2252  -3.2246  -3.1761
    -3.1738  -3.1606  -3.1572  -3.1378  -3.0943  -3.0904  -3.0715  -3.0677
    -3.0639  -3.0289  -3.0238  -3.0169  -3.0155  -3.0045  -2.9988  -2.9644
    -2.9605  -2.9463  -2.9397  -2.9370  -2.9349  -2.9312  -2.8655  -2.8563
    -2.8551  -2.8371  -2.8234  -2.7890  -2.7629  -2.7556  -2.7335  -2.7277
    -2.7197  -2.7151  -2.7060  -2.6850  -2.6835  -2.6737  -2.6554  -2.6352
    -2.6323  -2.6234  -2.6116  -2.6100  -2.6018  -2.5994  -2.5950  -2.5910
    -2.5864  -2.5408  -2.5103  -2.5084  -2.4928  -2.4796  -2.4748  -2.4712
    -2.4651  -2.4642  -2.4631  -2.4350  -2.4338  -2.4302  -2.4231  -2.4206
    -2.4074  -2.3796  -2.3792  -2.3776  -2.3770  -2.3750  -2.3315  -2.3022
    -2.3000  -2.2988  -2.2929  -2.2838  -2.2741  -2.2702  -2.2540  -2.2539
    -2.2242  -2.2198  -2.2190  -2.2018  -2.2008  -2.1999  -2.1703  -2.1663
    -2.1290  -2.1230  -2.1190  -2.1172  -2.1155  -2.1101  -2.1094  -2.1058
    -2.1052  -2.1000  -2.0970  -2.0831  -2.0812  -1.9586  -1.9558  -1.9242
    -1.9182  -1.9147  -1.9093  -1.9089  -1.8959  -1.8939  -1.8894  -1.8886
    -1.8851  -1.8654  -1.8593  -1.8579  -1.8472  -1.8460  -1.8419  -1.8228
    -1.8210  -1.7935  -1.7927  -1.7638  -1.7624  -1.7514  -1.7426  -1.7248
    -1.7237  -1.7206  -1.7039  -1.6910  -1.6903  -1.6830  -1.6823  -1.6576
    -1.6568  -1.6414  -1.6382  -1.6077  -1.6048  -1.5977  -1.5506  -1.5457
    -1.5338  -1.5315  -1.5305  -1.5068  -1.5037  -1.4732  -1.4720  -1.4696
    -1.4382  -1.4277  -1.4266  -1.4110  -1.4093  -1.3878  -1.3843  -1.3805
    -1.3549  -1.3503  -1.3496  -1.2908  -1.2866  -1.2775  -1.2728  -1.2619
    -1.2571  -1.2451  -1.2442  -1.2264  -1.2134  -1.1894  -1.1846  -1.1743
    -1.1457  -1.1369  -1.1351  -1.1255  -1.1239  -1.1221  -1.1177  -1.1166
    -1.1021  -1.0780  -1.0725  -1.0618  -1.0605  -1.0580  -1.0566  -1.0372
    -1.0181  -1.0155  -0.9980  -0.9932  -0.9052  -0.8915  -0.8857  -0.8843
    -0.8815  -0.8765  -0.8733  -0.8549  -0.8511  -0.8369  -0.8320  -0.8201
    -0.8190  -0.8123  -0.7917  -0.7902  -0.7859  -0.7790  -0.7090  -0.7052
    -0.6804  -0.6723  -0.6680  -0.6660  -0.6599  -0.6585  -0.6580  -0.6476
    -0.6456  -0.6304  -0.6038  -0.5973  -0.5755  -0.5708  -0.5616  -0.5586
    -0.5579  -0.5474  -0.5466  -0.5443  -0.5423  -0.5291  -0.5251  -0.5213
    -0.5198  -0.4911  -0.4907  -0.4874  -0.4763  -0.4757  -0.4571  -0.4259
    -0.4248  -0.4157  -0.4148  -0.3491  -0.3467  -0.3121  -0.3102  -0.2549
    -0.2527  -0.2501  -0.2350  -0.2261   0.0035   0.0070   0.3484   0.3489
     0.4415   0.4450   0.6364   0.6560   0.6665   0.7965   0.7977   1.2286
     1.2296   1.2476   1.5098   1.5387   1.5396   1.8174   1.8228   1.8933
     1.8960   1.9211   1.9259   2.1511   2.1517   2.2397   2.2409   2.3247
     2.3784   2.3855   2.5436   2.6431   3.0749   3.0844   3.0860   3.0874
     3.1404   3.1415   3.4325   3.4336   3.7103   3.7196   3.8320   4.1294
     4.1635   4.1748   4.3981   4.4162   4.4684   4.4740   4.5626   4.6756
     4.6859   4.7967   4.8014   5.0998   5.1608   5.1765   5.3340   5.3647
     5.4511   5.5546   5.5626   5.5849   5.5892   5.6416   5.6539   5.7085
     5.8838   6.0622   6.2505   6.2842   6.3577   6.3894   6.3944   6.4004
     6.4103   6.5583   6.6450   6.6504   6.6724   6.8482   6.8864   6.9060
     6.9365   7.0237   7.1111

          k = 0.2500 0.1443-0.1111 (136898 PWs)   bands (ev):

   -18.5787  -6.6482  -6.5720  -5.8104  -5.5177  -5.4609  -5.4603  -4.9228
    -4.9225  -4.7911  -4.7900  -4.6350  -4.6067  -4.5434  -4.5101  -4.5086
    -4.4762  -4.4760  -4.3477  -4.3060  -4.3059  -4.2462  -4.2256  -4.2245
    -4.1227  -4.1222  -4.0870  -4.0860  -4.0856  -4.0592  -4.0377  -4.0373
    -3.9340  -3.9308  -3.9305  -3.9101  -3.8938  -3.8924  -3.8811  -3.8800
    -3.8678  -3.8376  -3.8371  -3.8366  -3.8358  -3.8051  -3.8039  -3.7871
    -3.7857  -3.7746  -3.7332  -3.7297  -3.6985  -3.6850  -3.6821  -3.6776
    -3.6774  -3.6039  -3.6031  -3.5695  -3.5666  -3.5650  -3.4988  -3.4974
    -3.4846  -3.4813  -3.4538  -3.4525  -3.4514  -3.4507  -3.3014  -3.2956
    -3.2766  -3.2735  -3.2678  -3.2511  -3.2497  -3.2252  -3.2246  -3.1761
    -3.1738  -3.1606  -3.1572  -3.1378  -3.0943  -3.0904  -3.0715  -3.0677
    -3.0639  -3.0289  -3.0238  -3.0169  -3.0155  -3.0045  -2.9988  -2.9644
    -2.9605  -2.9463  -2.9397  -2.9370  -2.9349  -2.9312  -2.8655  -2.8563
    -2.8551  -2.8371  -2.8234  -2.7890  -2.7629  -2.7556  -2.7335  -2.7277
    -2.7197  -2.7151  -2.7060  -2.6850  -2.6835  -2.6737  -2.6554  -2.6352
    -2.6323  -2.6234  -2.6116  -2.6100  -2.6018  -2.5994  -2.5950  -2.5910
    -2.5864  -2.5408  -2.5103  -2.5084  -2.4928  -2.4796  -2.4748  -2.4711
    -2.4651  -2.4642  -2.4631  -2.4350  -2.4338  -2.4302  -2.4231  -2.4206
    -2.4074  -2.3796  -2.3792  -2.3776  -2.3770  -2.3750  -2.3315  -2.3022
    -2.3000  -2.2988  -2.2929  -2.2838  -2.2741  -2.2702  -2.2540  -2.2539
    -2.2242  -2.2198  -2.2190  -2.2018  -2.2008  -2.1999  -2.1703  -2.1663
    -2.1290  -2.1230  -2.1190  -2.1172  -2.1155  -2.1101  -2.1094  -2.1058
    -2.1052  -2.1000  -2.0970  -2.0831  -2.0812  -1.9586  -1.9558  -1.9242
    -1.9182  -1.9147  -1.9093  -1.9089  -1.8959  -1.8939  -1.8894  -1.8886
    -1.8851  -1.8654  -1.8593  -1.8579  -1.8472  -1.8460  -1.8419  -1.8228
    -1.8210  -1.7935  -1.7927  -1.7638  -1.7624  -1.7514  -1.7426  -1.7248
    -1.7237  -1.7206  -1.7039  -1.6910  -1.6903  -1.6830  -1.6823  -1.6576
    -1.6568  -1.6414  -1.6382  -1.6077  -1.6048  -1.5977  -1.5506  -1.5457
    -1.5338  -1.5315  -1.5305  -1.5068  -1.5037  -1.4732  -1.4720  -1.4696
    -1.4382  -1.4277  -1.4266  -1.4110  -1.4093  -1.3878  -1.3843  -1.3805
    -1.3549  -1.3503  -1.3496  -1.2908  -1.2866  -1.2775  -1.2728  -1.2619
    -1.2571  -1.2451  -1.2442  -1.2264  -1.2135  -1.1894  -1.1846  -1.1743
    -1.1457  -1.1369  -1.1351  -1.1255  -1.1239  -1.1221  -1.1177  -1.1166
    -1.1021  -1.0780  -1.0725  -1.0618  -1.0605  -1.0580  -1.0566  -1.0372
    -1.0181  -1.0155  -0.9980  -0.9932  -0.9052  -0.8915  -0.8857  -0.8843
    -0.8815  -0.8765  -0.8733  -0.8549  -0.8511  -0.8369  -0.8320  -0.8201
    -0.8190  -0.8123  -0.7917  -0.7902  -0.7859  -0.7790  -0.7090  -0.7052
    -0.6804  -0.6723  -0.6680  -0.6660  -0.6599  -0.6585  -0.6580  -0.6476
    -0.6456  -0.6304  -0.6038  -0.5973  -0.5755  -0.5708  -0.5616  -0.5586
    -0.5579  -0.5474  -0.5466  -0.5443  -0.5423  -0.5291  -0.5251  -0.5213
    -0.5198  -0.4911  -0.4907  -0.4874  -0.4763  -0.4757  -0.4571  -0.4259
    -0.4248  -0.4157  -0.4148  -0.3491  -0.3467  -0.3121  -0.3102  -0.2549
    -0.2527  -0.2501  -0.2350  -0.2261   0.0035   0.0070   0.3484   0.3489
     0.4415   0.4450   0.6364   0.6560   0.6665   0.7965   0.7977   1.2286
     1.2296   1.2476   1.5098   1.5387   1.5396   1.8174   1.8228   1.8933
     1.8960   1.9211   1.9259   2.1511   2.1517   2.2397   2.2409   2.3247
     2.3784   2.3855   2.5436   2.6431   3.0749   3.0844   3.0860   3.0874
     3.1404   3.1415   3.4325   3.4336   3.7103   3.7196   3.8320   4.1294
     4.1635   4.1748   4.3981   4.4162   4.4684   4.4740   4.5626   4.6756
     4.6859   4.7967   4.8014   5.0998   5.1608   5.1765   5.3340   5.3647
     5.4512   5.5546   5.5626   5.5849   5.5892   5.6416   5.6539   5.7087
     5.8826   6.0644   6.2506   6.2851   6.3579   6.3894   6.3944   6.4005
     6.4103   6.5535   6.6453   6.6491   6.6667   6.8489   6.8883   6.9065
     6.9383   7.0253   7.1129

          k = 0.0000-0.2887 0.1111 (136898 PWs)   bands (ev):

   -18.5787  -6.6482  -6.5720  -5.8104  -5.5177  -5.4607  -5.4605  -4.9229
    -4.9224  -4.7911  -4.7900  -4.6351  -4.6067  -4.5432  -4.5098  -4.5089
    -4.4764  -4.4759  -4.3477  -4.3063  -4.3056  -4.2462  -4.2255  -4.2245
    -4.1230  -4.1222  -4.0871  -4.0858  -4.0857  -4.0592  -4.0377  -4.0374
    -3.9338  -3.9308  -3.9301  -3.9100  -3.8938  -3.8925  -3.8812  -3.8799
    -3.8679  -3.8379  -3.8371  -3.8370  -3.8357  -3.8051  -3.8039  -3.7871
    -3.7856  -3.7743  -3.7329  -3.7303  -3.6989  -3.6850  -3.6820  -3.6776
    -3.6774  -3.6037  -3.6031  -3.5694  -3.5661  -3.5653  -3.4989  -3.4973
    -3.4852  -3.4813  -3.4531  -3.4528  -3.4519  -3.4505  -3.2987  -3.2956
    -3.2748  -3.2730  -3.2709  -3.2508  -3.2497  -3.2251  -3.2242  -3.1755
    -3.1738  -3.1602  -3.1572  -3.1389  -3.0922  -3.0905  -3.0768  -3.0656
    -3.0638  -3.0258  -3.0240  -3.0193  -3.0158  -3.0095  -2.9987  -2.9625
    -2.9604  -2.9421  -2.9412  -2.9368  -2.9348  -2.9313  -2.8675  -2.8557
    -2.8554  -2.8357  -2.8233  -2.7910  -2.7662  -2.7480  -2.7343  -2.7262
    -2.7196  -2.7175  -2.7105  -2.6857  -2.6793  -2.6736  -2.6580  -2.6349
    -2.6328  -2.6266  -2.6109  -2.6105  -2.5998  -2.5989  -2.5951  -2.5897
    -2.5864  -2.5409  -2.5100  -2.5096  -2.4892  -2.4784  -2.4749  -2.4714
    -2.4642  -2.4637  -2.4635  -2.4356  -2.4331  -2.4303  -2.4230  -2.4227
    -2.4072  -2.3804  -2.3794  -2.3776  -2.3766  -2.3762  -2.3315  -2.3016
    -2.2992  -2.2990  -2.2926  -2.2840  -2.2760  -2.2707  -2.2542  -2.2540
    -2.2240  -2.2192  -2.2188  -2.2024  -2.2007  -2.2002  -2.1672  -2.1667
    -2.1291  -2.1230  -2.1188  -2.1161  -2.1158  -2.1103  -2.1085  -2.1052
    -2.1047  -2.0995  -2.0986  -2.0838  -2.0821  -1.9589  -1.9565  -1.9248
    -1.9169  -1.9164  -1.9094  -1.9093  -1.8961  -1.8926  -1.8890  -1.8883
    -1.8840  -1.8658  -1.8602  -1.8578  -1.8471  -1.8457  -1.8423  -1.8233
    -1.8207  -1.7946  -1.7926  -1.7626  -1.7608  -1.7516  -1.7425  -1.7252
    -1.7238  -1.7206  -1.7038  -1.6918  -1.6904  -1.6830  -1.6825  -1.6572
    -1.6563  -1.6409  -1.6401  -1.6088  -1.6044  -1.5966  -1.5504  -1.5466
    -1.5340  -1.5320  -1.5302  -1.5069  -1.5037  -1.4735  -1.4711  -1.4700
    -1.4367  -1.4290  -1.4267  -1.4110  -1.4094  -1.3852  -1.3849  -1.3809
    -1.3556  -1.3498  -1.3496  -1.2920  -1.2860  -1.2773  -1.2733  -1.2613
    -1.2571  -1.2448  -1.2443  -1.2264  -1.2135  -1.1891  -1.1849  -1.1738
    -1.1431  -1.1371  -1.1362  -1.1251  -1.1243  -1.1220  -1.1183  -1.1164
    -1.1021  -1.0772  -1.0741  -1.0629  -1.0621  -1.0578  -1.0572  -1.0374
    -1.0178  -1.0165  -0.9976  -0.9932  -0.9040  -0.8921  -0.8858  -0.8844
    -0.8802  -0.8755  -0.8748  -0.8514  -0.8507  -0.8369  -0.8332  -0.8194
    -0.8193  -0.8123  -0.7924  -0.7886  -0.7871  -0.7790  -0.7076  -0.7056
    -0.6772  -0.6761  -0.6681  -0.6634  -0.6624  -0.6585  -0.6582  -0.6484
    -0.6473  -0.6291  -0.6038  -0.5915  -0.5817  -0.5727  -0.5614  -0.5609
    -0.5578  -0.5473  -0.5463  -0.5440  -0.5423  -0.5283  -0.5221  -0.5217
    -0.5199  -0.4910  -0.4907  -0.4866  -0.4772  -0.4755  -0.4568  -0.4260
    -0.4244  -0.4160  -0.4148  -0.3498  -0.3461  -0.3121  -0.3102  -0.2549
    -0.2527  -0.2500  -0.2369  -0.2261   0.0030   0.0097   0.3483   0.3489
     0.4405   0.4462   0.6347   0.6562   0.6667   0.7964   0.7974   1.2284
     1.2299   1.2469   1.5097   1.5387   1.5397   1.8167   1.8237   1.8933
     1.8967   1.9206   1.9262   2.1511   2.1524   2.2395   2.2410   2.3249
     2.3782   2.3854   2.5431   2.6431   3.0750   3.0845   3.0852   3.0882
     3.1408   3.1417   3.4327   3.4337   3.7099   3.7202   3.8322   4.1289
     4.1632   4.1751   4.3968   4.4150   4.4668   4.4756   4.5630   4.6745
     4.6867   4.7973   4.8015   5.1006   5.1566   5.1785   5.3386   5.3648
     5.4448   5.5522   5.5630   5.5861   5.5888   5.6447   5.6519   5.7126
     5.8826   6.0775   6.2510   6.2781   6.3440   6.3886   6.3959   6.4007
     6.4104   6.5521   6.6437   6.6510   6.6735   6.8577   6.8875   6.9105
     6.9277   7.0250   7.1010

          k = 0.0000 0.2887 0.1111 (136898 PWs)   bands (ev):

   -18.5787  -6.6482  -6.5720  -5.8104  -5.5177  -5.4607  -5.4605  -4.9229
    -4.9224  -4.7911  -4.7900  -4.6351  -4.6067  -4.5432  -4.5098  -4.5089
    -4.4764  -4.4759  -4.3477  -4.3063  -4.3056  -4.2462  -4.2255  -4.2245
    -4.1230  -4.1222  -4.0871  -4.0858  -4.0857  -4.0592  -4.0377  -4.0374
    -3.9338  -3.9308  -3.9301  -3.9100  -3.8938  -3.8925  -3.8812  -3.8799
    -3.8679  -3.8379  -3.8371  -3.8370  -3.8357  -3.8051  -3.8039  -3.7872
    -3.7856  -3.7743  -3.7329  -3.7303  -3.6989  -3.6850  -3.6820  -3.6776
    -3.6774  -3.6037  -3.6031  -3.5694  -3.5661  -3.5653  -3.4989  -3.4973
    -3.4852  -3.4813  -3.4531  -3.4528  -3.4519  -3.4505  -3.2987  -3.2956
    -3.2748  -3.2730  -3.2709  -3.2508  -3.2497  -3.2251  -3.2242  -3.1755
    -3.1738  -3.1602  -3.1572  -3.1389  -3.0922  -3.0905  -3.0768  -3.0656
    -3.0638  -3.0258  -3.0240  -3.0193  -3.0158  -3.0095  -2.9987  -2.9625
    -2.9604  -2.9421  -2.9412  -2.9368  -2.9348  -2.9313  -2.8675  -2.8557
    -2.8554  -2.8357  -2.8233  -2.7910  -2.7662  -2.7480  -2.7343  -2.7262
    -2.7196  -2.7175  -2.7105  -2.6857  -2.6793  -2.6736  -2.6580  -2.6349
    -2.6328  -2.6266  -2.6109  -2.6105  -2.5998  -2.5989  -2.5951  -2.5897
    -2.5864  -2.5409  -2.5100  -2.5097  -2.4892  -2.4784  -2.4749  -2.4714
    -2.4642  -2.4637  -2.4635  -2.4356  -2.4331  -2.4303  -2.4230  -2.4227
    -2.4072  -2.3804  -2.3794  -2.3776  -2.3766  -2.3762  -2.3316  -2.3016
    -2.2992  -2.2990  -2.2926  -2.2840  -2.2760  -2.2707  -2.2542  -2.2540
    -2.2240  -2.2191  -2.2188  -2.2024  -2.2007  -2.2002  -2.1672  -2.1667
    -2.1291  -2.1230  -2.1188  -2.1161  -2.1158  -2.1103  -2.1085  -2.1052
    -2.1047  -2.0995  -2.0986  -2.0838  -2.0821  -1.9589  -1.9565  -1.9248
    -1.9169  -1.9164  -1.9094  -1.9093  -1.8961  -1.8926  -1.8890  -1.8883
    -1.8840  -1.8658  -1.8602  -1.8578  -1.8471  -1.8457  -1.8423  -1.8233
    -1.8207  -1.7946  -1.7926  -1.7626  -1.7608  -1.7516  -1.7425  -1.7252
    -1.7238  -1.7206  -1.7038  -1.6918  -1.6904  -1.6830  -1.6825  -1.6572
    -1.6563  -1.6409  -1.6401  -1.6088  -1.6044  -1.5966  -1.5504  -1.5466
    -1.5340  -1.5320  -1.5302  -1.5069  -1.5037  -1.4735  -1.4711  -1.4700
    -1.4367  -1.4290  -1.4267  -1.4110  -1.4094  -1.3852  -1.3849  -1.3809
    -1.3556  -1.3498  -1.3496  -1.2920  -1.2860  -1.2773  -1.2733  -1.2613
    -1.2571  -1.2448  -1.2443  -1.2264  -1.2135  -1.1891  -1.1849  -1.1738
    -1.1431  -1.1371  -1.1362  -1.1251  -1.1243  -1.1220  -1.1183  -1.1164
    -1.1021  -1.0772  -1.0741  -1.0629  -1.0621  -1.0578  -1.0572  -1.0374
    -1.0178  -1.0165  -0.9976  -0.9932  -0.9040  -0.8921  -0.8858  -0.8844
    -0.8802  -0.8755  -0.8748  -0.8514  -0.8507  -0.8369  -0.8332  -0.8194
    -0.8193  -0.8123  -0.7924  -0.7886  -0.7871  -0.7790  -0.7076  -0.7056
    -0.6772  -0.6761  -0.6681  -0.6634  -0.6624  -0.6585  -0.6582  -0.6484
    -0.6473  -0.6291  -0.6038  -0.5915  -0.5817  -0.5727  -0.5614  -0.5609
    -0.5578  -0.5473  -0.5462  -0.5440  -0.5423  -0.5283  -0.5221  -0.5217
    -0.5199  -0.4910  -0.4907  -0.4866  -0.4772  -0.4755  -0.4568  -0.4260
    -0.4244  -0.4160  -0.4148  -0.3498  -0.3461  -0.3121  -0.3102  -0.2549
    -0.2527  -0.2500  -0.2369  -0.2261   0.0030   0.0097   0.3483   0.3489
     0.4405   0.4462   0.6347   0.6562   0.6667   0.7964   0.7974   1.2284
     1.2299   1.2469   1.5097   1.5387   1.5397   1.8167   1.8237   1.8933
     1.8967   1.9206   1.9262   2.1511   2.1524   2.2395   2.2410   2.3249
     2.3782   2.3854   2.5431   2.6431   3.0750   3.0845   3.0852   3.0882
     3.1408   3.1417   3.4327   3.4337   3.7099   3.7202   3.8322   4.1289
     4.1632   4.1751   4.3968   4.4150   4.4668   4.4756   4.5630   4.6745
     4.6867   4.7973   4.8015   5.1006   5.1566   5.1785   5.3387   5.3648
     5.4446   5.5522   5.5630   5.5861   5.5888   5.6447   5.6519   5.7124
     5.8849   6.0746   6.2508   6.2750   6.3437   6.3887   6.3959   6.4007
     6.4104   6.5603   6.6444   6.6510   6.6755   6.8550   6.8877   6.9049
     6.9276   7.0331   7.1078

     the Fermi energy is     1.3736 ev

!    total energy              =   -6604.42295854 Ry
     Harris-Foulkes estimate   =   -6604.42295854 Ry
     estimated scf accuracy    <          3.9E-09 Ry

     The total energy is the sum of the following terms:

     one-electron contribution =  -48697.32353503 Ry
     hartree contribution      =   24848.27235427 Ry
     xc contribution           =   -3205.00627541 Ry
     ewald contribution        =   20449.63157322 Ry
     smearing contrib. (-TS)   =       0.00292441 Ry

     convergence has been achieved in  25 iterations

     Writing output data file 4774127.save

     init_run     :    140.47s CPU    154.02s WALL (       1 calls)
     electrons    :   8450.13s CPU   9111.75s WALL (       1 calls)

     Called by init_run:
     wfcinit      :    107.96s CPU    119.37s WALL (       1 calls)
     potinit      :     10.34s CPU     10.87s WALL (       1 calls)

     Called by electrons:
     c_bands      :   7022.36s CPU   7553.58s WALL (      26 calls)
     sum_band     :   1018.36s CPU   1132.01s WALL (      26 calls)
     v_of_rho     :    115.37s CPU    126.78s WALL (      26 calls)
     newd         :    304.30s CPU    309.27s WALL (      26 calls)
     mix_rho      :      3.55s CPU      3.87s WALL (      26 calls)
     vdW_energy   :      9.25s CPU     10.46s WALL (      26 calls)
     vdW_ffts     :     58.11s CPU     63.98s WALL (      52 calls)
     vdW_v        :     15.16s CPU     16.06s WALL (      26 calls)

     Called by c_bands:
     init_us_2    :     17.16s CPU     17.75s WALL (     636 calls)
     cegterg      :   6947.58s CPU   7477.21s WALL (     312 calls)

     Called by *egterg:
     h_psi        :   3000.15s CPU   3487.94s WALL (    1714 calls)
     s_psi        :    453.13s CPU    456.26s WALL (    1714 calls)
     g_psi        :      6.28s CPU      6.33s WALL (    1390 calls)
     cdiaghg      :   2120.13s CPU   2126.27s WALL (    1690 calls)

     Called by h_psi:
     add_vuspsi   :    455.89s CPU    459.08s WALL (    1714 calls)

     General routines
     calbec       :    651.09s CPU    654.82s WALL (    2026 calls)
     fft          :    150.64s CPU    160.82s WALL (    1716 calls)
     ffts         :      1.54s CPU      1.83s WALL (      52 calls)
     fftw         :   2130.84s CPU   2630.08s WALL (  760670 calls)
     interpolate  :      4.66s CPU      5.40s WALL (      52 calls)
     davcio       :      0.02s CPU      0.46s WALL (      12 calls)

     Parallel routines
     fft_scatter  :   1450.38s CPU   1798.44s WALL (  762438 calls)

     PWSCF        :     2h23m CPU        2h34m WALL


   This run was terminated on:   2: 2:22  30Jun2015            

=------------------------------------------------------------------------------=
   JOB DONE.
=------------------------------------------------------------------------------=
