
     Program PWSCF v.5.1.2 starts on 29Aug2015 at 12:18: 0 

     This program is part of the open-source Quantum ESPRESSO suite
     for quantum simulation of materials; please cite
         "P. Giannozzi et al., J. Phys.:Condens. Matter 21 395502 (2009);
          URL http://www.quantum-espresso.org", 
     in publications or presentations arising from this work. More details at
     http://www.quantum-espresso.org/quote

     Parallel version (MPI), running on    32 processors
     R & G space division:  proc/nbgrp/npool/nimage =      32
     Reading input from top.O1.Au50.d.2.8.phi.0.psi.0.in
Warning: card &IONS ignored
Warning: card / ignored
Warning: card &CELL ignored
Warning: card / ignored

     Current dimensions of program PWSCF are:
     Max number of different atomic species (ntypx) = 10
     Max number of k-points (npk) =  40000
     Max angular momentum in pseudopotentials (lmaxx) =  3

     IMPORTANT: XC functional enforced from input :
     Exchange-correlation      = VDW-DF ( 1  4  4  0 1 0)
     Any further DFT definition will be discarded
     Please, verify this is what you really want


     Subspace diagonalization in iterative solution of the eigenvalue problem:
     a serial algorithm will be used


     Parallelization info
     --------------------
     sticks:   dense  smooth     PW     G-vecs:    dense   smooth      PW
     Min         445     223     58                96775    34191    4534
     Max         446     224     59                96790    34246    4540
     Sum       14269    7147   1867              3097177  1095093  145167


     Title: 
     top.O1.Au50.d.2.8.phi.0.psi.0                                              


     bravais-lattice index     =            4
     lattice parameter (alat)  =      22.7436  a.u.
     unit-cell volume          =   22924.1508 (a.u.)^3
     number of atoms/cell      =           67
     number of atomic types    =            3
     number of electrons       =       712.00
     number of Kohn-Sham states=          427
     kinetic-energy cutoff     =      50.0000  Ry
     charge density cutoff     =     400.0000  Ry
     convergence threshold     =      1.0E-08
     mixing beta               =       0.7000
     number of iterations used =            8  plain     mixing
     Exchange-correlation      = VDW-DF ( 1  4  4  0 1 0)

     celldm(1)=  22.743643  celldm(2)=   0.000000  celldm(3)=   2.250000
     celldm(4)=   0.000000  celldm(5)=   0.000000  celldm(6)=   0.000000

     crystal axes: (cart. coord. in units of alat)
               a(1) = (   1.000000   0.000000   0.000000 )  
               a(2) = (  -0.500000   0.866025   0.000000 )  
               a(3) = (   0.000000   0.000000   2.250000 )  

     reciprocal axes: (cart. coord. in units 2 pi/alat)
               b(1) = (  1.000000  0.577350 -0.000000 )  
               b(2) = (  0.000000  1.154701  0.000000 )  
               b(3) = (  0.000000 -0.000000  0.444444 )  


     PseudoPot. # 1 for Au read from file:
     /home/scc/andrejb/qe/pseudo/Au.pbe-nd-van.UPF
     MD5 check sum: 458681b50f36d87ef23c61b04bba420a
     Pseudo is Ultrasoft + core correction, Zval = 11.0
     Generated by new atomic code, or converted to UPF format
     Using radial grid of  985 points,  3 beta functions with: 
                l(1) =   1
                l(2) =   2
                l(3) =   2
     Q(r) pseudized with  8 coefficients,  rinner =    1.100   1.100   1.100
                                                       1.100   1.100

     PseudoPot. # 2 for H  read from file:
     /home/scc/andrejb/qe/pseudo/H.pbe-van_ak.UPF
     MD5 check sum: 403db7282739603aa925980fa9b8608d
     Pseudo is Ultrasoft, Zval =  1.0
     Generated by new atomic code, or converted to UPF format
     Using radial grid of  615 points,  1 beta functions with: 
                l(1) =   0
     Q(r) pseudized with  8 coefficients,  rinner =    0.800

     PseudoPot. # 3 for O  read from file:
     /home/scc/andrejb/qe/pseudo/O.pbe-van_ak.UPF
     MD5 check sum: 4b8c549914a63cae506c6ff22b5af4fe
     Pseudo is Ultrasoft, Zval =  6.0
     Generated by new atomic code, or converted to UPF format
     Using radial grid of  737 points,  4 beta functions with: 
                l(1) =   0
                l(2) =   0
                l(3) =   1
                l(4) =   1
     Q(r) pseudized with  8 coefficients,  rinner =    0.800   0.800   0.800


     vdW kernel table read from file vdW_kernel_table
     MD5 check sum: 48e77a2e26edf626eeb0eaa751ad5cac

     atomic species   valence    mass     pseudopotential
        Au            11.00   196.96657     Au( 1.00)
        H              1.00     1.01000     H ( 1.00)
        O              6.00    16.00000     O ( 1.00)

     No symmetry found



   Cartesian axes

     site n.     atom                  positions (alat units)
         1           O   tau(   1) = (   0.4790780   0.3968269   0.8456435  )
         2           H   tau(   2) = (   0.4291446   0.3552792   0.8938970  )
         3           H   tau(   3) = (   0.5274974   0.4371337   0.8964042  )
         4           Au  tau(   4) = (   0.3540481   0.6132292   0.0000000  )
         5           Au  tau(   5) = (   0.4790062   0.3967954   0.0000000  )
         6           Au  tau(   6) = (   0.6039644   0.1803616   0.0000000  )
         7           Au  tau(   7) = (   0.7289225  -0.0360723   0.0000000  )
         8           Au  tau(   8) = (   0.1041318   0.6132292   0.0000000  )
         9           Au  tau(   9) = (   0.2290899   0.3967954   0.0000000  )
        10           Au  tau(  10) = (   0.3540481   0.1803616   0.0000000  )
        11           Au  tau(  11) = (   0.4790062  -0.0360723   0.0000000  )
        12           Au  tau(  12) = (  -0.1457845   0.6132292   0.0000000  )
        13           Au  tau(  13) = (  -0.0208264   0.3967954   0.0000000  )
        14           Au  tau(  14) = (   0.1041318   0.1803616   0.0000000  )
        15           Au  tau(  15) = (   0.2290899  -0.0360723   0.0000000  )
        16           Au  tau(  16) = (  -0.3957008   0.6132292   0.0000000  )
        17           Au  tau(  17) = (  -0.2707426   0.3967954   0.0000000  )
        18           Au  tau(  18) = (  -0.1457845   0.1803616   0.0000000  )
        19           Au  tau(  19) = (  -0.0208264  -0.0360723   0.0000000  )
        20           Au  tau(  20) = (   0.4790062   0.6853738   0.2040557  )
        21           Au  tau(  21) = (   0.6039644   0.4689400   0.2040557  )
        22           Au  tau(  22) = (   0.7289225   0.2525061   0.2040557  )
        23           Au  tau(  23) = (   0.8538806   0.0360723   0.2040557  )
        24           Au  tau(  24) = (   0.2290899   0.6853738   0.2040557  )
        25           Au  tau(  25) = (   0.3540481   0.4689400   0.2040557  )
        26           Au  tau(  26) = (   0.4790062   0.2525061   0.2040557  )
        27           Au  tau(  27) = (   0.6039644   0.0360723   0.2040557  )
        28           Au  tau(  28) = (  -0.0208264   0.6853738   0.2040557  )
        29           Au  tau(  29) = (   0.1041318   0.4689400   0.2040557  )
        30           Au  tau(  30) = (   0.2290899   0.2525061   0.2040557  )
        31           Au  tau(  31) = (   0.3540481   0.0360723   0.2040557  )
        32           Au  tau(  32) = (  -0.2707426   0.6853738   0.2040557  )
        33           Au  tau(  33) = (  -0.1457845   0.4689400   0.2040557  )
        34           Au  tau(  34) = (  -0.0208264   0.2525061   0.2040557  )
        35           Au  tau(  35) = (   0.1041318   0.0360723   0.2040557  )
        36           Au  tau(  36) = (   0.3541162   0.7576593   0.4066483  )
        37           Au  tau(  37) = (   0.4791000   0.5411421   0.4066695  )
        38           Au  tau(  38) = (   0.6040570   0.3246862   0.4066617  )
        39           Au  tau(  39) = (   0.7290270   0.1081684   0.4066529  )
        40           Au  tau(  40) = (   0.1041162   0.7576236   0.4066247  )
        41           Au  tau(  41) = (   0.2291001   0.5411063   0.4066455  )
        42           Au  tau(  42) = (   0.3540567   0.3246505   0.4066380  )
        43           Au  tau(  43) = (   0.4790276   0.1081324   0.4066292  )
        44           Au  tau(  44) = (  -0.1458201   0.7576104   0.4066224  )
        45           Au  tau(  45) = (  -0.0208365   0.5410930   0.4066438  )
        46           Au  tau(  46) = (   0.1041202   0.3246372   0.4066359  )
        47           Au  tau(  47) = (   0.2290908   0.1081193   0.4066273  )
        48           Au  tau(  48) = (  -0.3958167   0.7575791   0.4065812  )
        49           Au  tau(  49) = (  -0.2708328   0.5410617   0.4066025  )
        50           Au  tau(  50) = (  -0.1458763   0.3246061   0.4065947  )
        51           Au  tau(  51) = (  -0.0209056   0.1080882   0.4065858  )
        52           Au  tau(  52) = (   0.3541085   0.6133344   0.6129762  )
        53           Au  tau(  53) = (   0.4790780   0.3968269   0.6129968  )
        54           Au  tau(  54) = (   0.6040356   0.1803811   0.6129859  )
        55           Au  tau(  55) = (   0.7290165  -0.0361221   0.6129385  )
        56           Au  tau(  56) = (   0.1041243   0.6133091   0.6130022  )
        57           Au  tau(  57) = (   0.2290941   0.3968013   0.6130241  )
        58           Au  tau(  58) = (   0.3540515   0.1803552   0.6130121  )
        59           Au  tau(  59) = (   0.4790323  -0.0361475   0.6129659  )
        60           Au  tau(  60) = (  -0.1458030   0.6133014   0.6129980  )
        61           Au  tau(  61) = (  -0.0208339   0.3967936   0.6130188  )
        62           Au  tau(  62) = (   0.1041239   0.1803477   0.6130083  )
        63           Au  tau(  63) = (   0.2291046  -0.0361554   0.6129607  )
        64           Au  tau(  64) = (  -0.3957908   0.6132739   0.6129471  )
        65           Au  tau(  65) = (  -0.2708208   0.3967658   0.6129688  )
        66           Au  tau(  66) = (  -0.1458636   0.1803200   0.6129569  )
        67           Au  tau(  67) = (  -0.0208823  -0.0361826   0.6129110  )

     number of k points=    12  Marzari-Vanderbilt smearing, width (Ry)=  0.0200
                       cart. coord. in units 2pi/alat
        k(    1) = (   0.2500000   0.4330127   0.1111111), wk =   0.1666667
        k(    2) = (   0.2500000  -0.1443376   0.1111111), wk =   0.1666667
        k(    3) = (  -0.2500000  -0.4330127   0.1111111), wk =   0.1666667
        k(    4) = (  -0.2500000   0.4330127  -0.1111111), wk =   0.1666667
        k(    5) = (   0.2500000  -0.4330127  -0.1111111), wk =   0.1666667
        k(    6) = (   0.5000000   0.0000000   0.1111111), wk =   0.1666667
        k(    7) = (  -0.5000000   0.0000000   0.1111111), wk =   0.1666667
        k(    8) = (  -0.2500000   0.1443376   0.1111111), wk =   0.1666667
        k(    9) = (  -0.2500000  -0.1443376  -0.1111111), wk =   0.1666667
        k(   10) = (   0.2500000   0.1443376  -0.1111111), wk =   0.1666667
        k(   11) = (   0.0000000  -0.2886751   0.1111111), wk =   0.1666667
        k(   12) = (   0.0000000   0.2886751   0.1111111), wk =   0.1666667

     Dense  grid:  3097177 G-vectors     FFT dimensions: ( 150, 150, 360)

     Smooth grid:  1095093 G-vectors     FFT dimensions: ( 108, 108, 240)

     Largest allocated arrays     est. size (Mb)     dimensions
        Kohn-Sham Wavefunctions        28.01 Mb     (    4299,  427)
        NL pseudopotentials            55.23 Mb     (    4299,  842)
        Each V/rho on FFT grid          4.12 Mb     (  270000)
        Each G-vector array             0.74 Mb     (   96788)
        G-vector shells                 0.16 Mb     (   21404)
     Largest temporary arrays     est. size (Mb)     dimensions
        Auxiliary wavefunctions       112.04 Mb     (    4299, 1708)
        Each subspace H/S matrix       44.51 Mb     (    1708, 1708)
        Each <psi_i|beta_j> matrix      5.49 Mb     (     842,  427)
        Arrays for rho mixing          32.96 Mb     (  270000,    8)

     Initial potential from superposition of free atoms
     Check: negative starting charge=   -1.730178

     starting charge  711.25682, renormalised to  712.00000

     negative rho (up, down):  1.732E+00 0.000E+00


     ************************************************************************
     *
     * You are using vdW-DF for exchange-correlation in this calculation.
     * Please cite the following three references that made this development
     * possible:
     *
     *   M. Dion, H. Rydberg, E. Schroder, D. C. Langreth, and
     *   B. I. Lundqvist, Phys. Rev. Lett. 92, 246401 (2004).
     *
     *   T. Thonhauser, V. R. Cooper, S. Li, A. Puzder, P. Hyldgaard, and
     *   D. C. Langreth, Phys. Rev. B 76, 125112 (2007).
     *
     *   G. Roman-Perez and J. M. Soler, Phys. Rev. Lett. 103, 096102 (2009).
     *
     *
     * If you are using vdW-DF2, please also cite:
     *
     *   K. Lee, E. D. Murray, L. Kong, B. I. Lundqvist, and
     *   D. C. Langreth, Phys. Rev. B 82, 081101(R) (2010).
     *
     *
     * If you are calculating the stress with vdW-DF, please also cite:
     *
     *   R. Sabatini, E. Kucukbenli, B. Kolb, T. Thonhauser, and
     *   S. de Gironcoli, J. Phys.: Condens. Matter 24, 424209 (2012).
     *
     ************************************************************************

     Carrying out vdW-DF run using the following parameters:

     Nqs =      20    Nr_points =    1024   r_max =   100.000
     q_mesh =
               0.00001000     0.04494208     0.09755937     0.15916263
               0.23128650     0.31572767     0.41458969     0.53033537
               0.66584808     0.82450364     1.01025438     1.22772762
               1.48234092     1.78043706     2.12944203     2.53805004
               3.01644009     3.57652955     4.23227104     5.00000000

     Gradients computed in reciprocal space

     ************************************************************************


     Starting wfc are  582 randomized atomic wfcs

     total cpu time spent up to now is      177.4 secs

     Self-consistent Calculation

     iteration #  1     ecut=    50.00 Ry     beta=0.70
     Davidson diagonalization with overlap
     ethr =  1.00E-02,  avg # of iterations =  3.0

     Threshold (ethr) on eigenvalues was too large:
     Diagonalizing with lowered threshold

     Davidson diagonalization with overlap
     ethr =  3.57E-04,  avg # of iterations =  5.0

     negative rho (up, down):  1.728E+00 0.000E+00

     total cpu time spent up to now is      841.3 secs

     total energy              =   -6602.75447839 Ry
     Harris-Foulkes estimate   =   -6605.05323875 Ry
     estimated scf accuracy    <       2.87497505 Ry

     iteration #  2     ecut=    50.00 Ry     beta=0.70
     Davidson diagonalization with overlap
     ethr =  4.04E-04,  avg # of iterations = 11.4

     negative rho (up, down):  1.725E+00 0.000E+00

     total cpu time spent up to now is     1885.8 secs

     total energy              =   -6595.90672971 Ry
     Harris-Foulkes estimate   =   -6610.36271687 Ry
     estimated scf accuracy    <      83.60911654 Ry

     iteration #  3     ecut=    50.00 Ry     beta=0.70
     Davidson diagonalization with overlap
     ethr =  4.04E-04,  avg # of iterations =  6.0

     negative rho (up, down):  1.733E+00 0.000E+00

     total cpu time spent up to now is     2533.4 secs

     total energy              =   -6602.95567885 Ry
     Harris-Foulkes estimate   =   -6605.03945540 Ry
     estimated scf accuracy    <      10.24400708 Ry

     iteration #  4     ecut=    50.00 Ry     beta=0.70
     Davidson diagonalization with overlap
     ethr =  4.04E-04,  avg # of iterations =  6.3

     negative rho (up, down):  1.736E+00 0.000E+00

     total cpu time spent up to now is     2938.3 secs

     total energy              =   -6603.18114479 Ry
     Harris-Foulkes estimate   =   -6605.44716013 Ry
     estimated scf accuracy    <      23.61963233 Ry

     iteration #  5     ecut=    50.00 Ry     beta=0.70
     Davidson diagonalization with overlap
     ethr =  4.04E-04,  avg # of iterations =  5.8

     negative rho (up, down):  1.746E+00 0.000E+00

     total cpu time spent up to now is     3332.5 secs

     total energy              =   -6604.33740691 Ry
     Harris-Foulkes estimate   =   -6604.61134568 Ry
     estimated scf accuracy    <       1.65978972 Ry

     iteration #  6     ecut=    50.00 Ry     beta=0.70
     Davidson diagonalization with overlap
     ethr =  2.33E-04,  avg # of iterations =  2.9

     negative rho (up, down):  1.750E+00 0.000E+00

     total cpu time spent up to now is     3653.4 secs

     total energy              =   -6604.41488394 Ry
     Harris-Foulkes estimate   =   -6604.47626310 Ry
     estimated scf accuracy    <       0.19195021 Ry

     iteration #  7     ecut=    50.00 Ry     beta=0.70
     Davidson diagonalization with overlap
     c_bands:  1 eigenvalues not converged
     ethr =  2.70E-05,  avg # of iterations = 11.3

     negative rho (up, down):  1.753E+00 0.000E+00

     total cpu time spent up to now is     4152.3 secs

     total energy              =   -6604.42914730 Ry
     Harris-Foulkes estimate   =   -6604.45733428 Ry
     estimated scf accuracy    <       0.11748046 Ry

     iteration #  8     ecut=    50.00 Ry     beta=0.70
     Davidson diagonalization with overlap
     ethr =  1.65E-05,  avg # of iterations =  5.8

     negative rho (up, down):  1.754E+00 0.000E+00

     total cpu time spent up to now is     4513.3 secs

     total energy              =   -6604.43204216 Ry
     Harris-Foulkes estimate   =   -6604.44678757 Ry
     estimated scf accuracy    <       0.05228027 Ry

     iteration #  9     ecut=    50.00 Ry     beta=0.70
     Davidson diagonalization with overlap
     ethr =  7.34E-06,  avg # of iterations = 10.3

     negative rho (up, down):  1.755E+00 0.000E+00

     total cpu time spent up to now is     4974.6 secs

     total energy              =   -6604.43365512 Ry
     Harris-Foulkes estimate   =   -6604.43997248 Ry
     estimated scf accuracy    <       0.01957610 Ry

     iteration # 10     ecut=    50.00 Ry     beta=0.70
     Davidson diagonalization with overlap
     ethr =  2.75E-06,  avg # of iterations =  9.0

     negative rho (up, down):  1.756E+00 0.000E+00

     total cpu time spent up to now is     5435.5 secs

     total energy              =   -6604.43474693 Ry
     Harris-Foulkes estimate   =   -6604.43672220 Ry
     estimated scf accuracy    <       0.00735488 Ry

     iteration # 11     ecut=    50.00 Ry     beta=0.70
     Davidson diagonalization with overlap
     ethr =  1.03E-06,  avg # of iterations =  6.8

     negative rho (up, down):  1.757E+00 0.000E+00

     total cpu time spent up to now is     5833.6 secs

     total energy              =   -6604.43499623 Ry
     Harris-Foulkes estimate   =   -6604.43586682 Ry
     estimated scf accuracy    <       0.00410102 Ry

     iteration # 12     ecut=    50.00 Ry     beta=0.70
     Davidson diagonalization with overlap
     ethr =  5.76E-07,  avg # of iterations =  4.8

     negative rho (up, down):  1.758E+00 0.000E+00

     total cpu time spent up to now is     6192.9 secs

     total energy              =   -6604.43487668 Ry
     Harris-Foulkes estimate   =   -6604.43538420 Ry
     estimated scf accuracy    <       0.00095100 Ry

     iteration # 13     ecut=    50.00 Ry     beta=0.70
     Davidson diagonalization with overlap
     ethr =  1.34E-07,  avg # of iterations =  8.7

     negative rho (up, down):  1.758E+00 0.000E+00

     total cpu time spent up to now is     6655.9 secs

     total energy              =   -6604.43500504 Ry
     Harris-Foulkes estimate   =   -6604.43514758 Ry
     estimated scf accuracy    <       0.00045383 Ry

     iteration # 14     ecut=    50.00 Ry     beta=0.70
     Davidson diagonalization with overlap
     ethr =  6.37E-08,  avg # of iterations =  2.5

     negative rho (up, down):  1.757E+00 0.000E+00

     total cpu time spent up to now is     6965.4 secs

     total energy              =   -6604.43506862 Ry
     Harris-Foulkes estimate   =   -6604.43509906 Ry
     estimated scf accuracy    <       0.00010360 Ry

     iteration # 15     ecut=    50.00 Ry     beta=0.70
     Davidson diagonalization with overlap
     ethr =  1.45E-08,  avg # of iterations =  2.0

     negative rho (up, down):  1.757E+00 0.000E+00

     total cpu time spent up to now is     7275.0 secs

     total energy              =   -6604.43507800 Ry
     Harris-Foulkes estimate   =   -6604.43509978 Ry
     estimated scf accuracy    <       0.00014165 Ry

     iteration # 16     ecut=    50.00 Ry     beta=0.70
     Davidson diagonalization with overlap
     ethr =  1.45E-08,  avg # of iterations =  2.0

     negative rho (up, down):  1.757E+00 0.000E+00

     total cpu time spent up to now is     7570.6 secs

     total energy              =   -6604.43508684 Ry
     Harris-Foulkes estimate   =   -6604.43509171 Ry
     estimated scf accuracy    <       0.00001431 Ry

     iteration # 17     ecut=    50.00 Ry     beta=0.70
     Davidson diagonalization with overlap
     ethr =  2.01E-09,  avg # of iterations =  2.0

     negative rho (up, down):  1.757E+00 0.000E+00

     total cpu time spent up to now is     7891.4 secs

     total energy              =   -6604.43508693 Ry
     Harris-Foulkes estimate   =   -6604.43509285 Ry
     estimated scf accuracy    <       0.00004099 Ry

     iteration # 18     ecut=    50.00 Ry     beta=0.70
     Davidson diagonalization with overlap
     ethr =  2.01E-09,  avg # of iterations =  2.0

     negative rho (up, down):  1.757E+00 0.000E+00

     total cpu time spent up to now is     8205.5 secs

     total energy              =   -6604.43508963 Ry
     Harris-Foulkes estimate   =   -6604.43509078 Ry
     estimated scf accuracy    <       0.00000559 Ry

     iteration # 19     ecut=    50.00 Ry     beta=0.70
     Davidson diagonalization with overlap
     ethr =  7.86E-10,  avg # of iterations =  2.0

     negative rho (up, down):  1.757E+00 0.000E+00

     total cpu time spent up to now is     8497.3 secs

     total energy              =   -6604.43509029 Ry
     Harris-Foulkes estimate   =   -6604.43509045 Ry
     estimated scf accuracy    <       0.00000088 Ry

     iteration # 20     ecut=    50.00 Ry     beta=0.70
     Davidson diagonalization with overlap
     ethr =  1.24E-10,  avg # of iterations =  2.0

     negative rho (up, down):  1.757E+00 0.000E+00

     total cpu time spent up to now is     8819.9 secs

     total energy              =   -6604.43509049 Ry
     Harris-Foulkes estimate   =   -6604.43509054 Ry
     estimated scf accuracy    <       0.00000073 Ry

     iteration # 21     ecut=    50.00 Ry     beta=0.70
     Davidson diagonalization with overlap
     ethr =  1.03E-10,  avg # of iterations =  2.0

     negative rho (up, down):  1.757E+00 0.000E+00

     total cpu time spent up to now is     9116.7 secs

     total energy              =   -6604.43509061 Ry
     Harris-Foulkes estimate   =   -6604.43509059 Ry
     estimated scf accuracy    <       0.00000015 Ry

     iteration # 22     ecut=    50.00 Ry     beta=0.70
     Davidson diagonalization with overlap
     ethr =  2.09E-11,  avg # of iterations =  2.0

     negative rho (up, down):  1.757E+00 0.000E+00

     total cpu time spent up to now is     9421.1 secs

     total energy              =   -6604.43509061 Ry
     Harris-Foulkes estimate   =   -6604.43509064 Ry
     estimated scf accuracy    <       0.00000004 Ry

     iteration # 23     ecut=    50.00 Ry     beta=0.70
     Davidson diagonalization with overlap
     ethr =  4.93E-12,  avg # of iterations =  3.0

     negative rho (up, down):  1.757E+00 0.000E+00

     total cpu time spent up to now is     9750.8 secs

     total energy              =   -6604.43509063 Ry
     Harris-Foulkes estimate   =   -6604.43509063 Ry
     estimated scf accuracy    <       0.00000004 Ry

     iteration # 24     ecut=    50.00 Ry     beta=0.70
     Davidson diagonalization with overlap
     ethr =  4.93E-12,  avg # of iterations =  2.0

     negative rho (up, down):  1.757E+00 0.000E+00

     total cpu time spent up to now is    10049.5 secs

     End of self-consistent calculation

          k = 0.2500 0.4330 0.1111 (136853 PWs)   bands (ev):

   -19.4072  -7.1984  -6.1864  -5.7876  -5.7865  -5.1123  -4.7764  -4.7754
    -4.7435  -4.7369  -4.3763  -4.3748  -4.2783  -4.2761  -4.2630  -4.2408
    -4.2242  -4.1120  -4.1084  -4.0859  -4.0417  -4.0406  -4.0050  -3.9720
    -3.9708  -3.9661  -3.9440  -3.9407  -3.9380  -3.9006  -3.8670  -3.8395
    -3.8357  -3.8296  -3.8234  -3.8093  -3.8000  -3.7878  -3.7740  -3.7688
    -3.7633  -3.7253  -3.6901  -3.6870  -3.6415  -3.6402  -3.5840  -3.5799
    -3.5285  -3.5278  -3.5277  -3.5190  -3.4914  -3.4546  -3.4524  -3.4465
    -3.4450  -3.4446  -3.4155  -3.4103  -3.4063  -3.3452  -3.3441  -3.3351
    -3.3166  -3.3100  -3.2388  -3.2345  -3.2060  -3.2046  -3.1774  -3.1767
    -3.1631  -3.1446  -3.0876  -3.0855  -3.0695  -3.0680  -3.0183  -3.0132
    -3.0123  -2.9739  -2.9434  -2.9433  -2.9337  -2.9318  -2.9211  -2.9198
    -2.9136  -2.9128  -2.9025  -2.8614  -2.8239  -2.8226  -2.8097  -2.8094
    -2.7830  -2.7741  -2.7736  -2.7491  -2.7067  -2.7049  -2.6981  -2.6590
    -2.6512  -2.6404  -2.6389  -2.6124  -2.6110  -2.5808  -2.5452  -2.5445
    -2.5226  -2.5142  -2.5012  -2.5005  -2.4507  -2.4497  -2.4174  -2.3945
    -2.3940  -2.3712  -2.3696  -2.3590  -2.3578  -2.3478  -2.3267  -2.3260
    -2.2802  -2.2797  -2.2788  -2.2625  -2.2624  -2.2558  -2.2477  -2.2464
    -2.2457  -2.2448  -2.2377  -2.2264  -2.2254  -2.2201  -2.1904  -2.1894
    -2.1880  -2.1873  -2.1861  -2.1840  -2.1819  -2.1573  -2.1530  -2.1400
    -2.1388  -2.1200  -2.1192  -2.1107  -2.1101  -2.1092  -2.1079  -2.0893
    -2.0889  -2.0879  -2.0845  -2.0683  -2.0435  -2.0411  -2.0019  -2.0013
    -1.9776  -1.9772  -1.9505  -1.9481  -1.9243  -1.9219  -1.9070  -1.9000
    -1.8734  -1.8576  -1.8518  -1.8466  -1.8441  -1.8408  -1.8346  -1.8324
    -1.8065  -1.7993  -1.7911  -1.7363  -1.7329  -1.7303  -1.7288  -1.7247
    -1.6934  -1.6706  -1.6704  -1.6447  -1.6412  -1.5831  -1.5827  -1.5550
    -1.5417  -1.5311  -1.5113  -1.4737  -1.4686  -1.4618  -1.4573  -1.4504
    -1.4489  -1.4456  -1.4375  -1.4304  -1.3798  -1.3748  -1.3697  -1.3683
    -1.3635  -1.3502  -1.3313  -1.3144  -1.3078  -1.2968  -1.2962  -1.2911
    -1.2885  -1.2809  -1.2754  -1.2683  -1.2548  -1.2527  -1.2126  -1.2087
    -1.2022  -1.1924  -1.1763  -1.1662  -1.1251  -1.1210  -1.0975  -1.0935
    -1.0917  -1.0629  -1.0129  -1.0111  -1.0100  -1.0082  -1.0043  -1.0006
    -0.9927  -0.9753  -0.9743  -0.9356  -0.9350  -0.9049  -0.9046  -0.8982
    -0.8970  -0.8920  -0.8751  -0.8747  -0.8729  -0.8707  -0.8683  -0.8347
    -0.8304  -0.8297  -0.8277  -0.7999  -0.7973  -0.7939  -0.7716  -0.7633
    -0.7603  -0.7167  -0.7103  -0.7060  -0.6745  -0.6661  -0.6558  -0.6555
    -0.6490  -0.6478  -0.6458  -0.6412  -0.6339  -0.6283  -0.6080  -0.6068
    -0.6038  -0.6024  -0.5990  -0.5645  -0.5641  -0.5539  -0.5516  -0.5369
    -0.5311  -0.5252  -0.5174  -0.4627  -0.4608  -0.4525  -0.4521  -0.4503
    -0.4495  -0.4431  -0.4265  -0.4222  -0.4170  -0.4164  -0.4147  -0.4074
    -0.3745  -0.3732  -0.3720  -0.3645  -0.3626  -0.3583  -0.3566  -0.3451
    -0.3398  -0.3376  -0.3245  -0.2952  -0.2942  -0.2866  -0.2826  -0.2809
    -0.2056  -0.2050  -0.2025  -0.2006  -0.1931  -0.1900  -0.1561  -0.1440
    -0.1432  -0.1178  -0.1116  -0.0932   0.0088   0.0122   0.1122   0.5282
     0.5287   0.5311   0.5316   0.5893   0.6045   0.9808   0.9810   1.0228
     1.0241   1.1333   1.2155   1.3194   1.3346   1.5371   1.5657   2.1762
     2.1830   2.3363   2.3462   2.4667   2.4858   2.5772   2.5773   2.7314
     2.9636   2.9689   3.0942   3.3112   3.3265   3.3992   3.4015   3.4997
     3.5165   3.6957   3.7021   3.7721   3.9736   3.9739   4.0325   4.0411
     4.2923   4.2942   4.3117   4.5436   4.5824   4.5884   4.6322   4.9631
     4.9696   4.9922   5.0209   5.1333   5.3038   5.3048   5.3426   5.3985
     5.6984   5.9356   6.0631   6.0886   6.0927   6.1095   6.1631   6.1660
     6.2129   6.2709   6.2978   6.3202   6.3230   6.3313   6.3344   6.3752
     6.3861   6.4268   6.5026   6.5774   6.6996   6.7673   6.9037   6.9821
     7.0270   7.0301   7.0465

          k = 0.2500-0.1443 0.1111 (136898 PWs)   bands (ev):

   -19.4072  -7.1984  -6.3963  -5.6044  -5.3160  -5.2542  -5.2539  -4.7161
    -4.7154  -4.5886  -4.5832  -4.4315  -4.4023  -4.3364  -4.3125  -4.3033
    -4.2697  -4.2684  -4.1398  -4.0980  -4.0978  -4.0466  -4.0285  -4.0179
    -3.9197  -3.9147  -3.8979  -3.8784  -3.8782  -3.8605  -3.8417  -3.8296
    -3.8134  -3.7237  -3.7226  -3.7168  -3.7004  -3.6852  -3.6802  -3.6731
    -3.6681  -3.6578  -3.6294  -3.6288  -3.6286  -3.6242  -3.5969  -3.5959
    -3.5785  -3.5763  -3.5640  -3.5224  -3.5195  -3.4879  -3.4764  -3.4706
    -3.4697  -3.4661  -3.3954  -3.3941  -3.3612  -3.3585  -3.3504  -3.2899
    -3.2893  -3.2748  -3.2694  -3.2440  -3.2436  -3.2429  -3.2394  -3.0891
    -3.0866  -3.0644  -3.0636  -3.0590  -3.0422  -3.0403  -3.0166  -3.0150
    -2.9663  -2.9648  -2.9502  -2.9492  -2.9287  -2.8818  -2.8812  -2.8617
    -2.8568  -2.8551  -2.8159  -2.8150  -2.8082  -2.8064  -2.7928  -2.7894
    -2.7528  -2.7520  -2.7309  -2.7307  -2.7275  -2.7257  -2.7223  -2.6479
    -2.6475  -2.6442  -2.6166  -2.6137  -2.5555  -2.5551  -2.5259  -2.5253
    -2.5125  -2.5112  -2.5053  -2.4771  -2.4768  -2.4663  -2.4496  -2.4259
    -2.4245  -2.4234  -2.4034  -2.4032  -2.3922  -2.3915  -2.3893  -2.3875
    -2.3787  -2.3327  -2.3017  -2.3014  -2.2851  -2.2716  -2.2654  -2.2649
    -2.2580  -2.2566  -2.2552  -2.2266  -2.2259  -2.2245  -2.2158  -2.2142
    -2.1994  -2.1723  -2.1713  -2.1709  -2.1699  -2.1664  -2.1233  -2.0928
    -2.0924  -2.0907  -2.0857  -2.0757  -2.0650  -2.0642  -2.0463  -2.0460
    -2.0142  -2.0120  -2.0119  -1.9938  -1.9932  -1.9930  -1.9616  -1.9598
    -1.9188  -1.9152  -1.9109  -1.9078  -1.9070  -1.9024  -1.9013  -1.8994
    -1.8984  -1.8934  -1.8918  -1.8761  -1.8753  -1.7541  -1.7488  -1.7222
    -1.7124  -1.7097  -1.7022  -1.7014  -1.6916  -1.6854  -1.6844  -1.6829
    -1.6780  -1.6564  -1.6557  -1.6514  -1.6428  -1.6374  -1.6332  -1.6148
    -1.6133  -1.5871  -1.5851  -1.5692  -1.5547  -1.5428  -1.5372  -1.5171
    -1.5156  -1.5132  -1.4956  -1.4858  -1.4816  -1.4794  -1.4750  -1.4655
    -1.4487  -1.4416  -1.4325  -1.4190  -1.3997  -1.3939  -1.3701  -1.3392
    -1.3358  -1.3263  -1.3213  -1.3026  -1.2985  -1.2959  -1.2641  -1.2632
    -1.2590  -1.2246  -1.2194  -1.2140  -1.2026  -1.2004  -1.1763  -1.1741
    -1.1650  -1.1441  -1.1426  -1.1407  -1.0796  -1.0788  -1.0675  -1.0656
    -1.0502  -1.0488  -1.0379  -1.0332  -1.0186  -1.0061  -0.9783  -0.9770
    -0.9651  -0.9356  -0.9290  -0.9252  -0.9158  -0.9154  -0.9144  -0.9104
    -0.9027  -0.8942  -0.8659  -0.8644  -0.8561  -0.8535  -0.8521  -0.8388
    -0.8289  -0.8116  -0.8026  -0.7896  -0.7784  -0.6953  -0.6822  -0.6767
    -0.6763  -0.6715  -0.6677  -0.6624  -0.6419  -0.6396  -0.6274  -0.6229
    -0.6117  -0.6078  -0.6026  -0.5830  -0.5808  -0.5750  -0.5715  -0.4983
    -0.4978  -0.4668  -0.4608  -0.4600  -0.4550  -0.4517  -0.4510  -0.4484
    -0.4400  -0.4336  -0.4160  -0.3960  -0.3806  -0.3635  -0.3617  -0.3524
    -0.3488  -0.3397  -0.3382  -0.3364  -0.3363  -0.3298  -0.3186  -0.3146
    -0.3086  -0.2833  -0.2822  -0.2771  -0.2687  -0.2667  -0.2493  -0.2179
    -0.2154  -0.2086  -0.2047  -0.1401  -0.1379  -0.1034  -0.1031  -0.0453
    -0.0443  -0.0442  -0.0244  -0.0166   0.2030   0.2272   0.5565   0.5568
     0.6412   0.6618   0.8379   0.8706   0.8773   1.0025   1.0077   1.4368
     1.4370   1.4546   1.7145   1.7467   1.7472   2.0130   2.0369   2.1011
     2.1030   2.1240   2.1444   2.3580   2.3589   2.4477   2.4487   2.5102
     2.5771   2.6067   2.7525   2.8520   3.2860   3.2892   3.2900   3.3036
     3.3461   3.3494   3.6404   3.6415   3.9142   3.9309   4.0096   4.3371
     4.3737   4.3853   4.5676   4.5783   4.6768   4.6844   4.7689   4.8857
     4.8971   5.0032   5.0067   5.0299   5.3096   5.3716   5.3877   5.5056
     5.5553   5.7620   5.7649   5.7767   5.7936   5.7964   5.8514   5.8548
     5.9137   6.0234   6.1891   6.2650   6.4432   6.4613   6.5931   6.5986
     6.6017   6.6078   6.6396   6.7450   6.8100   6.8488   6.8578   6.9851
     7.0205   7.0507   7.0745

          k =-0.2500-0.4330 0.1111 (136853 PWs)   bands (ev):

   -19.4072  -7.1984  -6.1864  -5.7876  -5.7865  -5.1123  -4.7764  -4.7754
    -4.7435  -4.7369  -4.3763  -4.3748  -4.2783  -4.2761  -4.2630  -4.2408
    -4.2242  -4.1120  -4.1084  -4.0859  -4.0417  -4.0406  -4.0050  -3.9720
    -3.9708  -3.9661  -3.9440  -3.9407  -3.9380  -3.9006  -3.8670  -3.8395
    -3.8357  -3.8296  -3.8234  -3.8093  -3.8000  -3.7878  -3.7740  -3.7688
    -3.7633  -3.7253  -3.6901  -3.6870  -3.6415  -3.6402  -3.5840  -3.5799
    -3.5285  -3.5278  -3.5277  -3.5190  -3.4914  -3.4546  -3.4524  -3.4465
    -3.4450  -3.4446  -3.4155  -3.4103  -3.4063  -3.3452  -3.3441  -3.3351
    -3.3166  -3.3100  -3.2388  -3.2345  -3.2060  -3.2046  -3.1774  -3.1767
    -3.1631  -3.1446  -3.0876  -3.0855  -3.0695  -3.0680  -3.0183  -3.0132
    -3.0123  -2.9739  -2.9434  -2.9433  -2.9337  -2.9318  -2.9211  -2.9198
    -2.9136  -2.9128  -2.9025  -2.8614  -2.8239  -2.8226  -2.8097  -2.8094
    -2.7830  -2.7741  -2.7736  -2.7491  -2.7067  -2.7049  -2.6981  -2.6590
    -2.6512  -2.6404  -2.6389  -2.6124  -2.6110  -2.5808  -2.5452  -2.5445
    -2.5226  -2.5142  -2.5012  -2.5005  -2.4507  -2.4497  -2.4174  -2.3945
    -2.3940  -2.3712  -2.3696  -2.3590  -2.3578  -2.3478  -2.3267  -2.3260
    -2.2802  -2.2797  -2.2788  -2.2625  -2.2624  -2.2558  -2.2477  -2.2464
    -2.2457  -2.2448  -2.2377  -2.2264  -2.2254  -2.2201  -2.1904  -2.1894
    -2.1880  -2.1873  -2.1861  -2.1840  -2.1819  -2.1573  -2.1530  -2.1400
    -2.1388  -2.1200  -2.1192  -2.1107  -2.1101  -2.1092  -2.1079  -2.0893
    -2.0889  -2.0879  -2.0845  -2.0683  -2.0435  -2.0411  -2.0019  -2.0013
    -1.9776  -1.9772  -1.9505  -1.9481  -1.9243  -1.9219  -1.9070  -1.9000
    -1.8734  -1.8576  -1.8518  -1.8466  -1.8441  -1.8408  -1.8346  -1.8324
    -1.8065  -1.7993  -1.7911  -1.7363  -1.7330  -1.7303  -1.7288  -1.7247
    -1.6934  -1.6706  -1.6704  -1.6447  -1.6412  -1.5831  -1.5827  -1.5550
    -1.5417  -1.5311  -1.5113  -1.4737  -1.4686  -1.4618  -1.4573  -1.4504
    -1.4489  -1.4456  -1.4375  -1.4304  -1.3798  -1.3748  -1.3697  -1.3683
    -1.3635  -1.3502  -1.3313  -1.3144  -1.3078  -1.2968  -1.2962  -1.2911
    -1.2885  -1.2809  -1.2753  -1.2683  -1.2548  -1.2527  -1.2126  -1.2087
    -1.2022  -1.1924  -1.1763  -1.1662  -1.1251  -1.1210  -1.0975  -1.0935
    -1.0917  -1.0629  -1.0129  -1.0111  -1.0100  -1.0082  -1.0043  -1.0006
    -0.9927  -0.9753  -0.9743  -0.9356  -0.9350  -0.9049  -0.9046  -0.8983
    -0.8970  -0.8920  -0.8751  -0.8747  -0.8729  -0.8707  -0.8683  -0.8347
    -0.8304  -0.8297  -0.8277  -0.7999  -0.7973  -0.7939  -0.7716  -0.7633
    -0.7603  -0.7167  -0.7103  -0.7060  -0.6745  -0.6661  -0.6558  -0.6555
    -0.6490  -0.6478  -0.6458  -0.6412  -0.6339  -0.6283  -0.6080  -0.6068
    -0.6038  -0.6024  -0.5990  -0.5645  -0.5641  -0.5539  -0.5516  -0.5369
    -0.5311  -0.5252  -0.5174  -0.4627  -0.4608  -0.4525  -0.4521  -0.4503
    -0.4495  -0.4431  -0.4265  -0.4222  -0.4170  -0.4164  -0.4147  -0.4074
    -0.3745  -0.3732  -0.3720  -0.3645  -0.3626  -0.3583  -0.3566  -0.3451
    -0.3398  -0.3376  -0.3245  -0.2952  -0.2942  -0.2866  -0.2826  -0.2809
    -0.2056  -0.2050  -0.2025  -0.2006  -0.1931  -0.1900  -0.1561  -0.1440
    -0.1432  -0.1178  -0.1116  -0.0932   0.0088   0.0122   0.1122   0.5282
     0.5287   0.5311   0.5316   0.5893   0.6045   0.9808   0.9810   1.0228
     1.0241   1.1333   1.2155   1.3194   1.3346   1.5371   1.5657   2.1762
     2.1830   2.3363   2.3462   2.4667   2.4858   2.5772   2.5773   2.7314
     2.9636   2.9689   3.0942   3.3112   3.3265   3.3992   3.4015   3.4997
     3.5165   3.6957   3.7021   3.7721   3.9736   3.9739   4.0325   4.0411
     4.2923   4.2942   4.3117   4.5436   4.5824   4.5884   4.6322   4.9631
     4.9696   4.9922   5.0209   5.1333   5.3038   5.3048   5.3426   5.3985
     5.6984   5.9357   6.0636   6.0886   6.0926   6.1094   6.1631   6.1660
     6.2128   6.2709   6.2978   6.3202   6.3230   6.3313   6.3345   6.3752
     6.3861   6.4265   6.5027   6.5761   6.7010   6.7670   6.9062   6.9815
     7.0265   7.0307   7.0460

          k =-0.2500 0.4330-0.1111 (136853 PWs)   bands (ev):

   -19.4072  -7.1984  -6.1864  -5.7886  -5.7856  -5.1124  -4.7767  -4.7751
    -4.7430  -4.7374  -4.3768  -4.3742  -4.2784  -4.2763  -4.2627  -4.2409
    -4.2243  -4.1117  -4.1090  -4.0859  -4.0416  -4.0409  -4.0048  -3.9722
    -3.9707  -3.9662  -3.9438  -3.9415  -3.9368  -3.9004  -3.8679  -3.8399
    -3.8350  -3.8292  -3.8234  -3.8088  -3.8000  -3.7877  -3.7740  -3.7689
    -3.7635  -3.7254  -3.6905  -3.6868  -3.6415  -3.6401  -3.5838  -3.5802
    -3.5289  -3.5279  -3.5275  -3.5190  -3.4916  -3.4546  -3.4529  -3.4465
    -3.4451  -3.4445  -3.4158  -3.4095  -3.4065  -3.3455  -3.3441  -3.3348
    -3.3165  -3.3098  -3.2389  -3.2344  -3.2061  -3.2040  -3.1777  -3.1762
    -3.1631  -3.1448  -3.0879  -3.0856  -3.0695  -3.0676  -3.0179  -3.0134
    -3.0124  -2.9738  -2.9433  -2.9429  -2.9340  -2.9313  -2.9215  -2.9203
    -2.9135  -2.9125  -2.9027  -2.8614  -2.8247  -2.8219  -2.8099  -2.8091
    -2.7832  -2.7740  -2.7736  -2.7491  -2.7072  -2.7044  -2.6981  -2.6589
    -2.6511  -2.6410  -2.6382  -2.6117  -2.6112  -2.5809  -2.5451  -2.5445
    -2.5226  -2.5143  -2.5016  -2.5009  -2.4506  -2.4495  -2.4172  -2.3949
    -2.3942  -2.3705  -2.3700  -2.3586  -2.3578  -2.3480  -2.3267  -2.3257
    -2.2799  -2.2794  -2.2790  -2.2633  -2.2616  -2.2559  -2.2478  -2.2465
    -2.2454  -2.2447  -2.2376  -2.2270  -2.2249  -2.2228  -2.1910  -2.1895
    -2.1880  -2.1878  -2.1858  -2.1837  -2.1811  -2.1565  -2.1531  -2.1393
    -2.1385  -2.1203  -2.1190  -2.1108  -2.1097  -2.1092  -2.1078  -2.0900
    -2.0892  -2.0881  -2.0835  -2.0685  -2.0438  -2.0413  -2.0029  -2.0004
    -1.9781  -1.9769  -1.9517  -1.9477  -1.9224  -1.9216  -1.9058  -1.8999
    -1.8737  -1.8556  -1.8534  -1.8476  -1.8448  -1.8399  -1.8347  -1.8300
    -1.8065  -1.7987  -1.7909  -1.7415  -1.7332  -1.7292  -1.7276  -1.7262
    -1.6985  -1.6713  -1.6696  -1.6456  -1.6411  -1.5835  -1.5823  -1.5542
    -1.5367  -1.5314  -1.5050  -1.4739  -1.4703  -1.4623  -1.4546  -1.4512
    -1.4459  -1.4452  -1.4381  -1.4278  -1.3832  -1.3751  -1.3695  -1.3674
    -1.3607  -1.3507  -1.3483  -1.3146  -1.3052  -1.2968  -1.2965  -1.2950
    -1.2883  -1.2804  -1.2762  -1.2600  -1.2547  -1.2486  -1.2160  -1.2036
    -1.2026  -1.2000  -1.1802  -1.1663  -1.1260  -1.1192  -1.0973  -1.0935
    -1.0864  -1.0632  -1.0134  -1.0112  -1.0110  -1.0089  -1.0054  -0.9982
    -0.9930  -0.9753  -0.9750  -0.9358  -0.9337  -0.9055  -0.9029  -0.8987
    -0.8977  -0.8910  -0.8754  -0.8739  -0.8731  -0.8704  -0.8693  -0.8366
    -0.8307  -0.8299  -0.8238  -0.8005  -0.7993  -0.7929  -0.7717  -0.7644
    -0.7590  -0.7175  -0.7114  -0.7050  -0.6745  -0.6665  -0.6556  -0.6552
    -0.6490  -0.6480  -0.6467  -0.6402  -0.6344  -0.6273  -0.6084  -0.6068
    -0.6036  -0.6030  -0.5988  -0.5645  -0.5639  -0.5568  -0.5501  -0.5361
    -0.5316  -0.5250  -0.5171  -0.4626  -0.4606  -0.4529  -0.4519  -0.4512
    -0.4489  -0.4428  -0.4271  -0.4222  -0.4166  -0.4159  -0.4150  -0.4075
    -0.3747  -0.3734  -0.3715  -0.3650  -0.3621  -0.3576  -0.3571  -0.3459
    -0.3393  -0.3380  -0.3237  -0.2960  -0.2936  -0.2868  -0.2828  -0.2807
    -0.2056  -0.2050  -0.2024  -0.2000  -0.1931  -0.1901  -0.1561  -0.1443
    -0.1431  -0.1202  -0.1114  -0.0908   0.0077   0.0148   0.1131   0.5280
     0.5287   0.5311   0.5318   0.5859   0.6069   0.9796   0.9808   1.0215
     1.0257   1.1349   1.2159   1.3170   1.3385   1.5331   1.5677   2.1735
     2.1849   2.3335   2.3504   2.4621   2.4899   2.5767   2.5778   2.7312
     2.9649   2.9687   3.0931   3.3089   3.3270   3.3984   3.4035   3.4983
     3.5166   3.6877   3.7072   3.7725   3.9729   3.9747   4.0303   4.0475
     4.2911   4.2924   4.3130   4.5442   4.5818   4.5890   4.6318   4.9626
     4.9679   4.9951   5.0344   5.1323   5.3035   5.3060   5.3223   5.3898
     5.7760   5.8596   6.0862   6.0891   6.0918   6.1169   6.1634   6.1667
     6.2209   6.2722   6.2996   6.3151   6.3252   6.3276   6.3340   6.3799
     6.3869   6.4172   6.4446   6.5987   6.6892   6.7625   6.9275   6.9665
     7.0242   7.0343   7.0456

          k = 0.2500-0.4330-0.1111 (136853 PWs)   bands (ev):

   -19.4072  -7.1984  -6.1864  -5.7886  -5.7856  -5.1124  -4.7767  -4.7751
    -4.7430  -4.7374  -4.3768  -4.3742  -4.2784  -4.2763  -4.2627  -4.2409
    -4.2243  -4.1117  -4.1090  -4.0859  -4.0416  -4.0409  -4.0048  -3.9722
    -3.9707  -3.9662  -3.9438  -3.9415  -3.9368  -3.9004  -3.8679  -3.8399
    -3.8350  -3.8292  -3.8234  -3.8088  -3.8000  -3.7877  -3.7740  -3.7689
    -3.7635  -3.7254  -3.6905  -3.6868  -3.6415  -3.6401  -3.5838  -3.5802
    -3.5289  -3.5279  -3.5275  -3.5190  -3.4916  -3.4546  -3.4529  -3.4465
    -3.4451  -3.4445  -3.4158  -3.4095  -3.4065  -3.3455  -3.3441  -3.3348
    -3.3165  -3.3098  -3.2389  -3.2344  -3.2061  -3.2040  -3.1777  -3.1762
    -3.1631  -3.1448  -3.0879  -3.0856  -3.0695  -3.0676  -3.0179  -3.0134
    -3.0124  -2.9738  -2.9433  -2.9429  -2.9340  -2.9313  -2.9215  -2.9203
    -2.9135  -2.9125  -2.9027  -2.8614  -2.8247  -2.8219  -2.8099  -2.8091
    -2.7832  -2.7740  -2.7736  -2.7491  -2.7072  -2.7044  -2.6981  -2.6589
    -2.6511  -2.6410  -2.6382  -2.6117  -2.6112  -2.5809  -2.5451  -2.5445
    -2.5226  -2.5143  -2.5016  -2.5009  -2.4506  -2.4495  -2.4172  -2.3949
    -2.3942  -2.3705  -2.3700  -2.3586  -2.3578  -2.3480  -2.3267  -2.3257
    -2.2799  -2.2794  -2.2790  -2.2633  -2.2616  -2.2559  -2.2478  -2.2465
    -2.2454  -2.2447  -2.2376  -2.2270  -2.2249  -2.2228  -2.1910  -2.1895
    -2.1880  -2.1878  -2.1858  -2.1837  -2.1811  -2.1565  -2.1531  -2.1393
    -2.1385  -2.1203  -2.1190  -2.1108  -2.1097  -2.1092  -2.1078  -2.0900
    -2.0893  -2.0881  -2.0835  -2.0685  -2.0438  -2.0413  -2.0029  -2.0004
    -1.9781  -1.9769  -1.9517  -1.9477  -1.9224  -1.9216  -1.9058  -1.8999
    -1.8737  -1.8556  -1.8534  -1.8476  -1.8448  -1.8399  -1.8347  -1.8300
    -1.8065  -1.7987  -1.7909  -1.7415  -1.7332  -1.7292  -1.7276  -1.7262
    -1.6985  -1.6713  -1.6696  -1.6456  -1.6411  -1.5835  -1.5823  -1.5542
    -1.5367  -1.5314  -1.5050  -1.4739  -1.4703  -1.4623  -1.4546  -1.4512
    -1.4459  -1.4452  -1.4381  -1.4278  -1.3832  -1.3751  -1.3695  -1.3674
    -1.3607  -1.3507  -1.3483  -1.3146  -1.3052  -1.2968  -1.2965  -1.2950
    -1.2883  -1.2804  -1.2762  -1.2600  -1.2547  -1.2486  -1.2160  -1.2036
    -1.2026  -1.2000  -1.1802  -1.1663  -1.1260  -1.1192  -1.0973  -1.0935
    -1.0864  -1.0632  -1.0134  -1.0112  -1.0110  -1.0089  -1.0054  -0.9982
    -0.9930  -0.9753  -0.9750  -0.9358  -0.9337  -0.9055  -0.9029  -0.8987
    -0.8977  -0.8910  -0.8754  -0.8739  -0.8731  -0.8704  -0.8693  -0.8366
    -0.8307  -0.8299  -0.8238  -0.8005  -0.7993  -0.7929  -0.7717  -0.7644
    -0.7590  -0.7175  -0.7114  -0.7050  -0.6745  -0.6665  -0.6556  -0.6552
    -0.6490  -0.6480  -0.6467  -0.6402  -0.6344  -0.6273  -0.6084  -0.6068
    -0.6036  -0.6030  -0.5988  -0.5645  -0.5639  -0.5568  -0.5501  -0.5361
    -0.5316  -0.5250  -0.5171  -0.4626  -0.4606  -0.4529  -0.4519  -0.4512
    -0.4489  -0.4428  -0.4271  -0.4222  -0.4166  -0.4159  -0.4150  -0.4075
    -0.3747  -0.3734  -0.3715  -0.3650  -0.3621  -0.3576  -0.3571  -0.3459
    -0.3393  -0.3380  -0.3237  -0.2960  -0.2936  -0.2868  -0.2828  -0.2807
    -0.2056  -0.2050  -0.2024  -0.2000  -0.1931  -0.1901  -0.1561  -0.1443
    -0.1431  -0.1202  -0.1114  -0.0908   0.0077   0.0148   0.1131   0.5280
     0.5287   0.5311   0.5318   0.5859   0.6069   0.9796   0.9808   1.0215
     1.0257   1.1349   1.2159   1.3170   1.3385   1.5331   1.5677   2.1735
     2.1849   2.3335   2.3504   2.4621   2.4899   2.5767   2.5778   2.7312
     2.9649   2.9687   3.0931   3.3089   3.3270   3.3984   3.4035   3.4983
     3.5166   3.6877   3.7072   3.7725   3.9729   3.9747   4.0303   4.0475
     4.2911   4.2924   4.3130   4.5442   4.5818   4.5890   4.6318   4.9626
     4.9679   4.9951   5.0344   5.1323   5.3035   5.3060   5.3223   5.3898
     5.7760   5.8596   6.0863   6.0892   6.0917   6.1168   6.1633   6.1668
     6.2208   6.2722   6.2996   6.3151   6.3250   6.3278   6.3339   6.3799
     6.3869   6.4170   6.4451   6.5991   6.6887   6.7625   6.9273   6.9666
     7.0241   7.0350   7.0450

          k = 0.5000 0.0000 0.1111 (136853 PWs)   bands (ev):

   -19.4072  -7.1984  -6.1864  -5.7890  -5.7851  -5.1123  -4.7765  -4.7754
    -4.7446  -4.7358  -4.3762  -4.3747  -4.2783  -4.2762  -4.2628  -4.2408
    -4.2242  -4.1124  -4.1082  -4.0861  -4.0418  -4.0407  -4.0046  -3.9720
    -3.9710  -3.9665  -3.9440  -3.9410  -3.9377  -3.9004  -3.8665  -3.8390
    -3.8365  -3.8291  -3.8235  -3.8089  -3.7999  -3.7879  -3.7741  -3.7687
    -3.7631  -3.7258  -3.6900  -3.6872  -3.6418  -3.6399  -3.5839  -3.5799
    -3.5285  -3.5277  -3.5274  -3.5195  -3.4916  -3.4547  -3.4526  -3.4464
    -3.4454  -3.4442  -3.4160  -3.4100  -3.4060  -3.3452  -3.3442  -3.3349
    -3.3166  -3.3096  -3.2393  -3.2342  -3.2064  -3.2039  -3.1771  -3.1768
    -3.1631  -3.1448  -3.0876  -3.0858  -3.0694  -3.0677  -3.0182  -3.0132
    -3.0123  -2.9737  -2.9439  -2.9427  -2.9333  -2.9321  -2.9213  -2.9196
    -2.9136  -2.9130  -2.9027  -2.8613  -2.8239  -2.8227  -2.8098  -2.8091
    -2.7831  -2.7740  -2.7737  -2.7491  -2.7061  -2.7056  -2.6983  -2.6589
    -2.6511  -2.6403  -2.6388  -2.6125  -2.6110  -2.5809  -2.5452  -2.5441
    -2.5226  -2.5142  -2.5015  -2.5007  -2.4505  -2.4497  -2.4172  -2.3946
    -2.3943  -2.3711  -2.3698  -2.3591  -2.3574  -2.3479  -2.3270  -2.3257
    -2.2802  -2.2793  -2.2787  -2.2632  -2.2617  -2.2559  -2.2477  -2.2464
    -2.2456  -2.2448  -2.2377  -2.2265  -2.2251  -2.2212  -2.1905  -2.1895
    -2.1879  -2.1877  -2.1858  -2.1835  -2.1817  -2.1572  -2.1531  -2.1397
    -2.1388  -2.1202  -2.1190  -2.1107  -2.1100  -2.1096  -2.1075  -2.0893
    -2.0888  -2.0878  -2.0849  -2.0683  -2.0435  -2.0415  -2.0029  -2.0004
    -1.9781  -1.9769  -1.9508  -1.9478  -1.9235  -1.9219  -1.9067  -1.8998
    -1.8734  -1.8573  -1.8520  -1.8471  -1.8441  -1.8408  -1.8346  -1.8315
    -1.8065  -1.7989  -1.7910  -1.7379  -1.7331  -1.7296  -1.7289  -1.7253
    -1.6954  -1.6714  -1.6696  -1.6448  -1.6413  -1.5835  -1.5821  -1.5547
    -1.5401  -1.5310  -1.5092  -1.4737  -1.4693  -1.4618  -1.4564  -1.4505
    -1.4482  -1.4457  -1.4377  -1.4296  -1.3806  -1.3752  -1.3699  -1.3679
    -1.3630  -1.3503  -1.3372  -1.3146  -1.3061  -1.2970  -1.2962  -1.2927
    -1.2882  -1.2810  -1.2753  -1.2650  -1.2551  -1.2517  -1.2138  -1.2074
    -1.2023  -1.1938  -1.1781  -1.1663  -1.1250  -1.1204  -1.0975  -1.0936
    -1.0901  -1.0631  -1.0132  -1.0110  -1.0105  -1.0083  -1.0045  -1.0002
    -0.9929  -0.9757  -0.9741  -0.9355  -0.9346  -0.9052  -0.9041  -0.8985
    -0.8971  -0.8915  -0.8750  -0.8746  -0.8728  -0.8707  -0.8685  -0.8352
    -0.8306  -0.8298  -0.8264  -0.7999  -0.7979  -0.7937  -0.7719  -0.7633
    -0.7600  -0.7170  -0.7108  -0.7055  -0.6745  -0.6662  -0.6558  -0.6554
    -0.6487  -0.6481  -0.6462  -0.6408  -0.6342  -0.6278  -0.6083  -0.6066
    -0.6038  -0.6029  -0.5988  -0.5646  -0.5638  -0.5552  -0.5510  -0.5367
    -0.5312  -0.5251  -0.5172  -0.4625  -0.4608  -0.4526  -0.4520  -0.4507
    -0.4492  -0.4430  -0.4267  -0.4222  -0.4168  -0.4162  -0.4147  -0.4075
    -0.3747  -0.3731  -0.3718  -0.3646  -0.3625  -0.3581  -0.3569  -0.3453
    -0.3396  -0.3378  -0.3242  -0.2955  -0.2939  -0.2868  -0.2828  -0.2809
    -0.2056  -0.2050  -0.2025  -0.2003  -0.1932  -0.1899  -0.1561  -0.1441
    -0.1431  -0.1182  -0.1116  -0.0928   0.0084   0.0130   0.1126   0.5281
     0.5288   0.5309   0.5318   0.5879   0.6055   0.9802   0.9812   1.0219
     1.0250   1.1338   1.2157   1.3193   1.3354   1.5362   1.5659   2.1748
     2.1840   2.3349   2.3481   2.4649   2.4874   2.5766   2.5779   2.7313
     2.9640   2.9690   3.0938   3.3109   3.3262   3.3984   3.4026   3.4991
     3.5166   3.6936   3.7032   3.7724   3.9734   3.9742   4.0312   4.0440
     4.2919   4.2925   4.3128   4.5440   4.5813   4.5890   4.6320   4.9629
     4.9688   4.9943   5.0263   5.1320   5.3034   5.3055   5.3348   5.3956
     5.7213   5.9125   6.0731   6.0886   6.0928   6.1111   6.1631   6.1662
     6.2144   6.2709   6.2983   6.3206   6.3223   6.3293   6.3353   6.3754
     6.3860   6.4282   6.4801   6.5886   6.7068   6.7450   6.9150   6.9768
     7.0264   7.0315   7.0459

          k =-0.5000 0.0000 0.1111 (136853 PWs)   bands (ev):

   -19.4072  -7.1984  -6.1864  -5.7890  -5.7851  -5.1123  -4.7765  -4.7754
    -4.7446  -4.7358  -4.3762  -4.3747  -4.2783  -4.2762  -4.2628  -4.2408
    -4.2242  -4.1124  -4.1082  -4.0861  -4.0418  -4.0407  -4.0046  -3.9720
    -3.9710  -3.9665  -3.9440  -3.9410  -3.9377  -3.9004  -3.8665  -3.8390
    -3.8365  -3.8291  -3.8235  -3.8089  -3.7999  -3.7879  -3.7741  -3.7687
    -3.7631  -3.7258  -3.6900  -3.6872  -3.6418  -3.6399  -3.5839  -3.5799
    -3.5285  -3.5277  -3.5274  -3.5195  -3.4916  -3.4547  -3.4526  -3.4464
    -3.4454  -3.4442  -3.4160  -3.4100  -3.4060  -3.3452  -3.3442  -3.3349
    -3.3166  -3.3096  -3.2393  -3.2342  -3.2064  -3.2039  -3.1771  -3.1768
    -3.1630  -3.1448  -3.0876  -3.0858  -3.0694  -3.0677  -3.0182  -3.0132
    -3.0123  -2.9737  -2.9439  -2.9427  -2.9333  -2.9321  -2.9213  -2.9196
    -2.9136  -2.9130  -2.9027  -2.8613  -2.8239  -2.8227  -2.8098  -2.8091
    -2.7831  -2.7740  -2.7737  -2.7491  -2.7061  -2.7056  -2.6983  -2.6589
    -2.6511  -2.6403  -2.6388  -2.6125  -2.6110  -2.5809  -2.5452  -2.5441
    -2.5226  -2.5142  -2.5015  -2.5007  -2.4505  -2.4497  -2.4172  -2.3946
    -2.3943  -2.3711  -2.3698  -2.3591  -2.3574  -2.3479  -2.3270  -2.3257
    -2.2802  -2.2793  -2.2787  -2.2632  -2.2617  -2.2559  -2.2477  -2.2464
    -2.2456  -2.2448  -2.2377  -2.2265  -2.2251  -2.2212  -2.1905  -2.1895
    -2.1879  -2.1877  -2.1858  -2.1835  -2.1817  -2.1572  -2.1531  -2.1397
    -2.1388  -2.1202  -2.1190  -2.1107  -2.1100  -2.1096  -2.1075  -2.0893
    -2.0888  -2.0878  -2.0849  -2.0683  -2.0435  -2.0415  -2.0029  -2.0004
    -1.9781  -1.9769  -1.9508  -1.9478  -1.9235  -1.9219  -1.9067  -1.8998
    -1.8734  -1.8573  -1.8520  -1.8471  -1.8441  -1.8408  -1.8346  -1.8315
    -1.8065  -1.7989  -1.7910  -1.7379  -1.7331  -1.7296  -1.7289  -1.7253
    -1.6954  -1.6714  -1.6696  -1.6448  -1.6413  -1.5835  -1.5821  -1.5547
    -1.5401  -1.5310  -1.5092  -1.4737  -1.4693  -1.4618  -1.4564  -1.4505
    -1.4482  -1.4457  -1.4377  -1.4296  -1.3806  -1.3752  -1.3699  -1.3679
    -1.3630  -1.3503  -1.3372  -1.3146  -1.3061  -1.2970  -1.2962  -1.2927
    -1.2882  -1.2810  -1.2753  -1.2650  -1.2551  -1.2517  -1.2138  -1.2074
    -1.2023  -1.1938  -1.1781  -1.1663  -1.1250  -1.1204  -1.0975  -1.0937
    -1.0901  -1.0631  -1.0132  -1.0110  -1.0105  -1.0083  -1.0045  -1.0002
    -0.9929  -0.9757  -0.9741  -0.9355  -0.9346  -0.9052  -0.9041  -0.8985
    -0.8971  -0.8915  -0.8750  -0.8746  -0.8728  -0.8707  -0.8685  -0.8352
    -0.8306  -0.8298  -0.8264  -0.7999  -0.7979  -0.7937  -0.7719  -0.7633
    -0.7600  -0.7170  -0.7108  -0.7055  -0.6745  -0.6662  -0.6558  -0.6554
    -0.6487  -0.6481  -0.6462  -0.6408  -0.6342  -0.6278  -0.6083  -0.6066
    -0.6038  -0.6029  -0.5988  -0.5646  -0.5638  -0.5552  -0.5510  -0.5367
    -0.5312  -0.5251  -0.5172  -0.4625  -0.4608  -0.4527  -0.4520  -0.4507
    -0.4492  -0.4430  -0.4267  -0.4222  -0.4168  -0.4162  -0.4147  -0.4075
    -0.3747  -0.3731  -0.3718  -0.3646  -0.3625  -0.3581  -0.3569  -0.3453
    -0.3396  -0.3378  -0.3242  -0.2955  -0.2939  -0.2868  -0.2828  -0.2809
    -0.2056  -0.2050  -0.2025  -0.2003  -0.1932  -0.1899  -0.1561  -0.1441
    -0.1431  -0.1182  -0.1116  -0.0928   0.0084   0.0130   0.1126   0.5281
     0.5288   0.5309   0.5318   0.5879   0.6055   0.9802   0.9812   1.0219
     1.0250   1.1338   1.2157   1.3193   1.3354   1.5362   1.5659   2.1748
     2.1840   2.3349   2.3481   2.4649   2.4874   2.5766   2.5779   2.7313
     2.9640   2.9690   3.0938   3.3109   3.3262   3.3984   3.4026   3.4991
     3.5166   3.6936   3.7032   3.7724   3.9734   3.9742   4.0312   4.0440
     4.2919   4.2925   4.3128   4.5440   4.5813   4.5890   4.6320   4.9629
     4.9688   4.9943   5.0263   5.1320   5.3034   5.3055   5.3348   5.3956
     5.7213   5.9126   6.0736   6.0887   6.0927   6.1108   6.1629   6.1662
     6.2143   6.2709   6.2984   6.3205   6.3222   6.3293   6.3353   6.3753
     6.3861   6.4278   6.4806   6.5875   6.7089   6.7440   6.9169   6.9762
     7.0260   7.0323   7.0453

          k =-0.2500 0.1443 0.1111 (136898 PWs)   bands (ev):

   -19.4072  -7.1984  -6.3963  -5.6044  -5.3160  -5.2542  -5.2539  -4.7161
    -4.7154  -4.5886  -4.5832  -4.4315  -4.4023  -4.3364  -4.3125  -4.3033
    -4.2697  -4.2684  -4.1398  -4.0980  -4.0978  -4.0466  -4.0285  -4.0179
    -3.9197  -3.9147  -3.8979  -3.8784  -3.8782  -3.8605  -3.8417  -3.8296
    -3.8134  -3.7237  -3.7226  -3.7168  -3.7004  -3.6852  -3.6802  -3.6731
    -3.6681  -3.6578  -3.6294  -3.6288  -3.6286  -3.6243  -3.5969  -3.5959
    -3.5785  -3.5763  -3.5640  -3.5224  -3.5195  -3.4879  -3.4764  -3.4706
    -3.4697  -3.4661  -3.3954  -3.3941  -3.3612  -3.3585  -3.3504  -3.2899
    -3.2893  -3.2748  -3.2694  -3.2440  -3.2436  -3.2429  -3.2394  -3.0891
    -3.0866  -3.0644  -3.0636  -3.0590  -3.0422  -3.0403  -3.0166  -3.0150
    -2.9663  -2.9648  -2.9502  -2.9492  -2.9287  -2.8818  -2.8812  -2.8617
    -2.8568  -2.8551  -2.8159  -2.8150  -2.8082  -2.8064  -2.7928  -2.7894
    -2.7528  -2.7520  -2.7309  -2.7307  -2.7275  -2.7257  -2.7223  -2.6479
    -2.6475  -2.6442  -2.6166  -2.6137  -2.5555  -2.5551  -2.5259  -2.5253
    -2.5125  -2.5112  -2.5052  -2.4771  -2.4768  -2.4663  -2.4496  -2.4259
    -2.4245  -2.4234  -2.4034  -2.4032  -2.3921  -2.3915  -2.3893  -2.3875
    -2.3787  -2.3327  -2.3017  -2.3014  -2.2851  -2.2716  -2.2654  -2.2649
    -2.2580  -2.2566  -2.2552  -2.2266  -2.2259  -2.2245  -2.2158  -2.2142
    -2.1994  -2.1723  -2.1713  -2.1709  -2.1699  -2.1664  -2.1233  -2.0928
    -2.0924  -2.0907  -2.0856  -2.0757  -2.0650  -2.0642  -2.0463  -2.0460
    -2.0142  -2.0120  -2.0119  -1.9938  -1.9932  -1.9930  -1.9616  -1.9597
    -1.9188  -1.9152  -1.9109  -1.9078  -1.9070  -1.9024  -1.9013  -1.8994
    -1.8984  -1.8934  -1.8918  -1.8761  -1.8753  -1.7541  -1.7488  -1.7222
    -1.7124  -1.7097  -1.7022  -1.7014  -1.6916  -1.6854  -1.6844  -1.6829
    -1.6780  -1.6564  -1.6557  -1.6514  -1.6428  -1.6374  -1.6332  -1.6148
    -1.6133  -1.5871  -1.5851  -1.5692  -1.5547  -1.5428  -1.5372  -1.5171
    -1.5156  -1.5132  -1.4956  -1.4858  -1.4816  -1.4794  -1.4750  -1.4655
    -1.4487  -1.4416  -1.4325  -1.4190  -1.3996  -1.3939  -1.3701  -1.3392
    -1.3358  -1.3263  -1.3213  -1.3026  -1.2985  -1.2959  -1.2641  -1.2632
    -1.2590  -1.2246  -1.2194  -1.2140  -1.2026  -1.2004  -1.1763  -1.1741
    -1.1650  -1.1441  -1.1426  -1.1407  -1.0796  -1.0788  -1.0675  -1.0656
    -1.0502  -1.0488  -1.0379  -1.0332  -1.0186  -1.0061  -0.9783  -0.9770
    -0.9651  -0.9356  -0.9289  -0.9252  -0.9158  -0.9154  -0.9144  -0.9104
    -0.9027  -0.8942  -0.8659  -0.8644  -0.8561  -0.8535  -0.8521  -0.8388
    -0.8289  -0.8116  -0.8026  -0.7896  -0.7784  -0.6953  -0.6823  -0.6767
    -0.6763  -0.6715  -0.6677  -0.6624  -0.6419  -0.6396  -0.6274  -0.6229
    -0.6117  -0.6078  -0.6026  -0.5830  -0.5808  -0.5750  -0.5715  -0.4983
    -0.4978  -0.4668  -0.4608  -0.4600  -0.4550  -0.4517  -0.4510  -0.4484
    -0.4399  -0.4336  -0.4160  -0.3960  -0.3806  -0.3635  -0.3617  -0.3524
    -0.3489  -0.3397  -0.3382  -0.3364  -0.3363  -0.3298  -0.3186  -0.3146
    -0.3086  -0.2833  -0.2822  -0.2771  -0.2687  -0.2667  -0.2493  -0.2179
    -0.2154  -0.2086  -0.2047  -0.1401  -0.1379  -0.1034  -0.1031  -0.0453
    -0.0443  -0.0442  -0.0244  -0.0166   0.2030   0.2272   0.5565   0.5568
     0.6412   0.6618   0.8379   0.8706   0.8773   1.0025   1.0077   1.4368
     1.4370   1.4546   1.7145   1.7467   1.7472   2.0130   2.0369   2.1011
     2.1030   2.1240   2.1444   2.3580   2.3589   2.4477   2.4487   2.5102
     2.5771   2.6067   2.7525   2.8520   3.2860   3.2892   3.2900   3.3036
     3.3461   3.3494   3.6404   3.6415   3.9142   3.9309   4.0096   4.3371
     4.3737   4.3853   4.5676   4.5783   4.6768   4.6844   4.7689   4.8857
     4.8971   5.0032   5.0067   5.0299   5.3096   5.3716   5.3877   5.5056
     5.5553   5.7618   5.7649   5.7769   5.7936   5.7965   5.8514   5.8548
     5.9135   6.0235   6.1889   6.2654   6.4430   6.4617   6.5950   6.5987
     6.6023   6.6078   6.6408   6.7448   6.8104   6.8487   6.8578   6.9814
     7.0159   7.0494   7.0722

          k =-0.2500-0.1443-0.1111 (136898 PWs)   bands (ev):

   -19.4072  -7.1984  -6.3963  -5.6044  -5.3159  -5.2543  -5.2539  -4.7161
    -4.7153  -4.5883  -4.5836  -4.4314  -4.4023  -4.3365  -4.3128  -4.3031
    -4.2695  -4.2686  -4.1397  -4.0980  -4.0979  -4.0468  -4.0284  -4.0178
    -3.9200  -3.9147  -3.8976  -3.8783  -3.8783  -3.8604  -3.8417  -3.8298
    -3.8132  -3.7235  -3.7226  -3.7168  -3.7001  -3.6852  -3.6804  -3.6731
    -3.6683  -3.6575  -3.6294  -3.6287  -3.6285  -3.6243  -3.5968  -3.5962
    -3.5784  -3.5762  -3.5637  -3.5222  -3.5200  -3.4879  -3.4762  -3.4707
    -3.4698  -3.4665  -3.3955  -3.3941  -3.3609  -3.3583  -3.3504  -3.2900
    -3.2894  -3.2745  -3.2694  -3.2439  -3.2436  -3.2432  -3.2397  -3.0890
    -3.0868  -3.0646  -3.0638  -3.0585  -3.0422  -3.0405  -3.0164  -3.0150
    -2.9663  -2.9649  -2.9500  -2.9491  -2.9286  -2.8818  -2.8813  -2.8614
    -2.8569  -2.8553  -2.8160  -2.8149  -2.8083  -2.8067  -2.7926  -2.7894
    -2.7526  -2.7519  -2.7313  -2.7306  -2.7274  -2.7258  -2.7222  -2.6478
    -2.6474  -2.6443  -2.6165  -2.6138  -2.5560  -2.5553  -2.5257  -2.5249
    -2.5123  -2.5112  -2.5053  -2.4772  -2.4768  -2.4664  -2.4493  -2.4252
    -2.4250  -2.4238  -2.4036  -2.4030  -2.3924  -2.3910  -2.3892  -2.3877
    -2.3788  -2.3327  -2.3021  -2.3015  -2.2848  -2.2717  -2.2657  -2.2647
    -2.2578  -2.2565  -2.2554  -2.2267  -2.2261  -2.2246  -2.2160  -2.2140
    -2.1992  -2.1721  -2.1711  -2.1705  -2.1701  -2.1665  -2.1234  -2.0928
    -2.0925  -2.0906  -2.0856  -2.0757  -2.0665  -2.0642  -2.0464  -2.0458
    -2.0141  -2.0118  -2.0114  -1.9952  -1.9933  -1.9929  -1.9603  -1.9593
    -1.9189  -1.9151  -1.9100  -1.9082  -1.9068  -1.9041  -1.9014  -1.9000
    -1.8966  -1.8942  -1.8908  -1.8768  -1.8746  -1.7566  -1.7485  -1.7177
    -1.7144  -1.7085  -1.7029  -1.7010  -1.6918  -1.6846  -1.6835  -1.6824
    -1.6778  -1.6625  -1.6564  -1.6511  -1.6412  -1.6379  -1.6300  -1.6186
    -1.6131  -1.5925  -1.5858  -1.5556  -1.5543  -1.5438  -1.5349  -1.5189
    -1.5148  -1.5141  -1.4973  -1.4943  -1.4815  -1.4788  -1.4745  -1.4607
    -1.4482  -1.4467  -1.4325  -1.4171  -1.3960  -1.3902  -1.3711  -1.3394
    -1.3332  -1.3265  -1.3189  -1.3126  -1.2986  -1.2956  -1.2639  -1.2606
    -1.2563  -1.2288  -1.2176  -1.2119  -1.2022  -1.2018  -1.1780  -1.1721
    -1.1708  -1.1441  -1.1424  -1.1386  -1.0796  -1.0775  -1.0662  -1.0646
    -1.0497  -1.0485  -1.0370  -1.0362  -1.0179  -1.0054  -0.9782  -0.9771
    -0.9660  -0.9377  -0.9274  -0.9261  -0.9159  -0.9156  -0.9150  -0.9083
    -0.9061  -0.8941  -0.8657  -0.8654  -0.8541  -0.8538  -0.8486  -0.8434
    -0.8282  -0.8074  -0.8043  -0.7881  -0.7786  -0.6959  -0.6820  -0.6766
    -0.6764  -0.6722  -0.6664  -0.6629  -0.6418  -0.6407  -0.6260  -0.6243
    -0.6115  -0.6091  -0.6024  -0.5817  -0.5799  -0.5776  -0.5713  -0.4985
    -0.4983  -0.4656  -0.4627  -0.4599  -0.4545  -0.4521  -0.4503  -0.4489
    -0.4395  -0.4327  -0.4170  -0.3959  -0.3809  -0.3629  -0.3624  -0.3522
    -0.3491  -0.3397  -0.3378  -0.3369  -0.3360  -0.3300  -0.3182  -0.3145
    -0.3088  -0.2831  -0.2825  -0.2766  -0.2687  -0.2667  -0.2492  -0.2178
    -0.2156  -0.2083  -0.2049  -0.1404  -0.1378  -0.1037  -0.1029  -0.0452
    -0.0447  -0.0435  -0.0253  -0.0166   0.2064   0.2246   0.5566   0.5567
     0.6443   0.6600   0.8345   0.8695   0.8790   1.0035   1.0067   1.4368
     1.4373   1.4538   1.7150   1.7467   1.7474   2.0172   2.0327   2.1021
     2.1024   2.1266   2.1416   2.3575   2.3601   2.4479   2.4482   2.5110
     2.5805   2.6017   2.7519   2.8536   3.2861   3.2884   3.2914   3.3017
     3.3480   3.3493   3.6407   3.6415   3.9169   3.9294   4.0123   4.3369
     4.3752   4.3839   4.5502   4.5824   4.6773   4.6819   4.7736   4.8853
     4.8900   5.0058   5.0094   5.0424   5.3094   5.3695   5.3880   5.5239
     5.5476   5.7482   5.7653   5.7698   5.7943   5.7971   5.8516   5.8573
     5.8817   5.9906   6.2400   6.3346   6.4340   6.4640   6.5882   6.5978
     6.6010   6.6099   6.6227   6.6859   6.8506   6.8541   6.9052   6.9603
     6.9958   7.0598   7.0658

          k = 0.2500 0.1443-0.1111 (136898 PWs)   bands (ev):

   -19.4072  -7.1984  -6.3963  -5.6044  -5.3160  -5.2543  -5.2539  -4.7161
    -4.7153  -4.5883  -4.5836  -4.4314  -4.4023  -4.3365  -4.3128  -4.3031
    -4.2695  -4.2686  -4.1397  -4.0980  -4.0979  -4.0468  -4.0284  -4.0178
    -3.9200  -3.9147  -3.8976  -3.8783  -3.8783  -3.8604  -3.8417  -3.8298
    -3.8132  -3.7235  -3.7226  -3.7168  -3.7001  -3.6852  -3.6804  -3.6731
    -3.6683  -3.6575  -3.6294  -3.6287  -3.6285  -3.6243  -3.5968  -3.5962
    -3.5784  -3.5762  -3.5637  -3.5222  -3.5200  -3.4879  -3.4762  -3.4707
    -3.4698  -3.4665  -3.3955  -3.3941  -3.3609  -3.3583  -3.3504  -3.2900
    -3.2894  -3.2745  -3.2694  -3.2439  -3.2436  -3.2432  -3.2397  -3.0890
    -3.0868  -3.0646  -3.0638  -3.0585  -3.0422  -3.0405  -3.0164  -3.0150
    -2.9663  -2.9649  -2.9500  -2.9491  -2.9286  -2.8818  -2.8813  -2.8614
    -2.8569  -2.8553  -2.8160  -2.8149  -2.8083  -2.8067  -2.7926  -2.7894
    -2.7526  -2.7519  -2.7313  -2.7306  -2.7274  -2.7258  -2.7222  -2.6478
    -2.6474  -2.6443  -2.6165  -2.6138  -2.5560  -2.5553  -2.5257  -2.5249
    -2.5123  -2.5112  -2.5053  -2.4772  -2.4768  -2.4664  -2.4493  -2.4252
    -2.4250  -2.4238  -2.4036  -2.4030  -2.3924  -2.3910  -2.3892  -2.3877
    -2.3788  -2.3327  -2.3021  -2.3015  -2.2848  -2.2717  -2.2657  -2.2647
    -2.2578  -2.2565  -2.2554  -2.2267  -2.2262  -2.2246  -2.2160  -2.2140
    -2.1992  -2.1721  -2.1711  -2.1705  -2.1701  -2.1665  -2.1235  -2.0928
    -2.0925  -2.0906  -2.0856  -2.0757  -2.0665  -2.0642  -2.0464  -2.0459
    -2.0141  -2.0117  -2.0114  -1.9952  -1.9933  -1.9929  -1.9604  -1.9593
    -1.9189  -1.9151  -1.9100  -1.9082  -1.9068  -1.9041  -1.9014  -1.9000
    -1.8966  -1.8942  -1.8908  -1.8768  -1.8746  -1.7566  -1.7485  -1.7177
    -1.7144  -1.7085  -1.7029  -1.7010  -1.6918  -1.6846  -1.6835  -1.6824
    -1.6778  -1.6625  -1.6564  -1.6511  -1.6412  -1.6379  -1.6300  -1.6186
    -1.6131  -1.5925  -1.5858  -1.5556  -1.5543  -1.5438  -1.5349  -1.5189
    -1.5148  -1.5141  -1.4973  -1.4943  -1.4815  -1.4788  -1.4745  -1.4607
    -1.4482  -1.4467  -1.4325  -1.4172  -1.3960  -1.3902  -1.3711  -1.3394
    -1.3332  -1.3265  -1.3189  -1.3126  -1.2986  -1.2956  -1.2639  -1.2606
    -1.2563  -1.2288  -1.2176  -1.2119  -1.2022  -1.2018  -1.1780  -1.1721
    -1.1708  -1.1441  -1.1424  -1.1386  -1.0796  -1.0775  -1.0662  -1.0646
    -1.0497  -1.0485  -1.0370  -1.0362  -1.0179  -1.0054  -0.9782  -0.9771
    -0.9660  -0.9377  -0.9274  -0.9261  -0.9159  -0.9156  -0.9150  -0.9083
    -0.9061  -0.8941  -0.8657  -0.8654  -0.8541  -0.8538  -0.8486  -0.8435
    -0.8282  -0.8074  -0.8043  -0.7881  -0.7786  -0.6960  -0.6819  -0.6766
    -0.6764  -0.6723  -0.6664  -0.6629  -0.6418  -0.6407  -0.6260  -0.6243
    -0.6115  -0.6091  -0.6024  -0.5817  -0.5799  -0.5776  -0.5713  -0.4985
    -0.4982  -0.4656  -0.4627  -0.4599  -0.4545  -0.4521  -0.4503  -0.4489
    -0.4395  -0.4327  -0.4170  -0.3959  -0.3808  -0.3629  -0.3624  -0.3522
    -0.3491  -0.3397  -0.3378  -0.3369  -0.3360  -0.3300  -0.3182  -0.3145
    -0.3088  -0.2831  -0.2825  -0.2766  -0.2687  -0.2667  -0.2492  -0.2178
    -0.2156  -0.2083  -0.2049  -0.1404  -0.1378  -0.1037  -0.1029  -0.0452
    -0.0447  -0.0435  -0.0253  -0.0166   0.2064   0.2246   0.5566   0.5567
     0.6443   0.6600   0.8345   0.8695   0.8790   1.0035   1.0067   1.4368
     1.4373   1.4538   1.7150   1.7467   1.7474   2.0172   2.0327   2.1021
     2.1024   2.1266   2.1416   2.3575   2.3601   2.4479   2.4482   2.5110
     2.5805   2.6017   2.7519   2.8536   3.2861   3.2884   3.2914   3.3017
     3.3480   3.3493   3.6407   3.6415   3.9169   3.9294   4.0123   4.3369
     4.3752   4.3839   4.5502   4.5824   4.6773   4.6819   4.7736   4.8853
     4.8900   5.0058   5.0094   5.0424   5.3094   5.3695   5.3880   5.5239
     5.5476   5.7483   5.7653   5.7695   5.7943   5.7972   5.8516   5.8573
     5.8818   5.9913   6.2398   6.3339   6.4319   6.4635   6.5863   6.5981
     6.6010   6.6099   6.6233   6.6862   6.8506   6.8541   6.9072   6.9621
     7.0014   7.0608   7.0676

          k = 0.0000-0.2887 0.1111 (136898 PWs)   bands (ev):

   -19.4072  -7.1984  -6.3963  -5.6044  -5.3160  -5.2542  -5.2539  -4.7160
    -4.7153  -4.5887  -4.5831  -4.4315  -4.4023  -4.3365  -4.3127  -4.3033
    -4.2696  -4.2684  -4.1397  -4.0981  -4.0978  -4.0463  -4.0286  -4.0179
    -3.9197  -3.9147  -3.8977  -3.8784  -3.8782  -3.8607  -3.8417  -3.8296
    -3.8134  -3.7236  -3.7227  -3.7167  -3.7004  -3.6852  -3.6803  -3.6731
    -3.6682  -3.6578  -3.6295  -3.6287  -3.6285  -3.6239  -3.5968  -3.5961
    -3.5784  -3.5762  -3.5639  -3.5225  -3.5196  -3.4881  -3.4763  -3.4706
    -3.4697  -3.4662  -3.3955  -3.3942  -3.3610  -3.3583  -3.3504  -3.2900
    -3.2895  -3.2746  -3.2693  -3.2439  -3.2435  -3.2432  -3.2397  -3.0891
    -3.0867  -3.0644  -3.0637  -3.0588  -3.0422  -3.0404  -3.0166  -3.0148
    -2.9664  -2.9649  -2.9501  -2.9492  -2.9286  -2.8819  -2.8810  -2.8617
    -2.8569  -2.8553  -2.8159  -2.8150  -2.8083  -2.8065  -2.7927  -2.7895
    -2.7526  -2.7518  -2.7310  -2.7307  -2.7274  -2.7256  -2.7223  -2.6479
    -2.6474  -2.6444  -2.6166  -2.6138  -2.5558  -2.5550  -2.5258  -2.5251
    -2.5123  -2.5111  -2.5053  -2.4771  -2.4767  -2.4664  -2.4494  -2.4259
    -2.4245  -2.4236  -2.4035  -2.4030  -2.3925  -2.3916  -2.3893  -2.3874
    -2.3788  -2.3327  -2.3019  -2.3015  -2.2849  -2.2718  -2.2655  -2.2649
    -2.2580  -2.2565  -2.2554  -2.2265  -2.2260  -2.2246  -2.2156  -2.2143
    -2.1992  -2.1721  -2.1715  -2.1707  -2.1698  -2.1666  -2.1234  -2.0928
    -2.0924  -2.0908  -2.0856  -2.0757  -2.0655  -2.0641  -2.0462  -2.0458
    -2.0141  -2.0119  -2.0117  -1.9943  -1.9932  -1.9929  -1.9612  -1.9595
    -1.9188  -1.9151  -1.9105  -1.9078  -1.9069  -1.9033  -1.9015  -1.8992
    -1.8982  -1.8937  -1.8913  -1.8765  -1.8750  -1.7554  -1.7484  -1.7209
    -1.7131  -1.7091  -1.7024  -1.7012  -1.6915  -1.6854  -1.6844  -1.6826
    -1.6779  -1.6581  -1.6564  -1.6509  -1.6424  -1.6374  -1.6320  -1.6163
    -1.6132  -1.5896  -1.5852  -1.5640  -1.5545  -1.5430  -1.5366  -1.5174
    -1.5155  -1.5132  -1.4957  -1.4899  -1.4816  -1.4790  -1.4747  -1.4636
    -1.4485  -1.4437  -1.4323  -1.4181  -1.3978  -1.3938  -1.3705  -1.3393
    -1.3350  -1.3262  -1.3211  -1.3054  -1.2987  -1.2956  -1.2640  -1.2622
    -1.2581  -1.2263  -1.2182  -1.2136  -1.2024  -1.2006  -1.1769  -1.1737
    -1.1669  -1.1441  -1.1426  -1.1399  -1.0798  -1.0783  -1.0665  -1.0658
    -1.0501  -1.0489  -1.0376  -1.0338  -1.0181  -1.0058  -0.9784  -0.9770
    -0.9654  -0.9364  -0.9283  -0.9254  -0.9160  -0.9155  -0.9147  -0.9099
    -0.9038  -0.8941  -0.8658  -0.8648  -0.8551  -0.8539  -0.8511  -0.8402
    -0.8286  -0.8102  -0.8031  -0.7891  -0.7785  -0.6955  -0.6822  -0.6766
    -0.6764  -0.6717  -0.6674  -0.6625  -0.6419  -0.6399  -0.6269  -0.6233
    -0.6116  -0.6083  -0.6026  -0.5825  -0.5807  -0.5757  -0.5715  -0.4983
    -0.4980  -0.4664  -0.4615  -0.4600  -0.4548  -0.4518  -0.4507  -0.4485
    -0.4399  -0.4333  -0.4164  -0.3959  -0.3808  -0.3634  -0.3620  -0.3523
    -0.3490  -0.3397  -0.3380  -0.3365  -0.3362  -0.3298  -0.3184  -0.3146
    -0.3088  -0.2832  -0.2822  -0.2769  -0.2686  -0.2668  -0.2493  -0.2179
    -0.2154  -0.2084  -0.2047  -0.1402  -0.1379  -0.1036  -0.1029  -0.0453
    -0.0445  -0.0439  -0.0249  -0.0166   0.2042   0.2265   0.5565   0.5568
     0.6423   0.6611   0.8368   0.8707   0.8773   1.0028   1.0073   1.4368
     1.4371   1.4545   1.7146   1.7468   1.7472   2.0144   2.0355   2.1014
     2.1029   2.1248   2.1436   2.3580   2.3590   2.4477   2.4486   2.5104
     2.5782   2.6049   2.7523   2.8526   3.2859   3.2892   3.2903   3.3032
     3.3469   3.3492   3.6405   3.6415   3.9148   3.9304   4.0107   4.3370
     4.3740   4.3849   4.5662   4.5749   4.6770   4.6835   4.7712   4.8852
     4.8952   5.0035   5.0086   5.0330   5.3095   5.3713   5.3876   5.5119
     5.5528   5.7598   5.7649   5.7740   5.7938   5.7972   5.8508   5.8555
     5.9000   6.0049   6.2384   6.2594   6.4414   6.4627   6.5942   6.5992
     6.6020   6.6087   6.6371   6.7269   6.8329   6.8501   6.8567   6.9765
     7.0059   7.0509   7.0762

          k = 0.0000 0.2887 0.1111 (136898 PWs)   bands (ev):

   -19.4072  -7.1984  -6.3963  -5.6044  -5.3160  -5.2542  -5.2539  -4.7160
    -4.7153  -4.5887  -4.5832  -4.4315  -4.4023  -4.3365  -4.3127  -4.3033
    -4.2696  -4.2684  -4.1397  -4.0981  -4.0978  -4.0463  -4.0286  -4.0179
    -3.9197  -3.9147  -3.8977  -3.8784  -3.8782  -3.8607  -3.8417  -3.8296
    -3.8134  -3.7236  -3.7227  -3.7167  -3.7003  -3.6852  -3.6803  -3.6731
    -3.6682  -3.6578  -3.6295  -3.6287  -3.6285  -3.6239  -3.5968  -3.5961
    -3.5784  -3.5762  -3.5639  -3.5225  -3.5196  -3.4881  -3.4763  -3.4706
    -3.4697  -3.4662  -3.3955  -3.3942  -3.3610  -3.3583  -3.3504  -3.2900
    -3.2894  -3.2746  -3.2693  -3.2439  -3.2435  -3.2432  -3.2397  -3.0891
    -3.0867  -3.0644  -3.0637  -3.0588  -3.0422  -3.0404  -3.0166  -3.0148
    -2.9664  -2.9649  -2.9501  -2.9492  -2.9286  -2.8819  -2.8810  -2.8616
    -2.8569  -2.8553  -2.8159  -2.8150  -2.8083  -2.8065  -2.7927  -2.7895
    -2.7526  -2.7518  -2.7310  -2.7307  -2.7274  -2.7256  -2.7223  -2.6479
    -2.6474  -2.6444  -2.6166  -2.6138  -2.5558  -2.5550  -2.5258  -2.5251
    -2.5123  -2.5111  -2.5053  -2.4771  -2.4767  -2.4664  -2.4494  -2.4259
    -2.4245  -2.4236  -2.4035  -2.4030  -2.3925  -2.3916  -2.3893  -2.3874
    -2.3788  -2.3327  -2.3019  -2.3015  -2.2849  -2.2717  -2.2655  -2.2649
    -2.2580  -2.2565  -2.2553  -2.2265  -2.2260  -2.2246  -2.2156  -2.2143
    -2.1992  -2.1721  -2.1715  -2.1707  -2.1698  -2.1666  -2.1234  -2.0928
    -2.0924  -2.0908  -2.0856  -2.0757  -2.0655  -2.0641  -2.0462  -2.0458
    -2.0141  -2.0119  -2.0117  -1.9943  -1.9932  -1.9929  -1.9612  -1.9595
    -1.9188  -1.9151  -1.9105  -1.9078  -1.9069  -1.9033  -1.9015  -1.8992
    -1.8982  -1.8937  -1.8913  -1.8765  -1.8750  -1.7554  -1.7484  -1.7209
    -1.7131  -1.7091  -1.7024  -1.7012  -1.6915  -1.6854  -1.6844  -1.6826
    -1.6779  -1.6582  -1.6564  -1.6509  -1.6424  -1.6374  -1.6320  -1.6163
    -1.6133  -1.5896  -1.5852  -1.5640  -1.5545  -1.5430  -1.5366  -1.5174
    -1.5155  -1.5132  -1.4957  -1.4899  -1.4816  -1.4790  -1.4747  -1.4636
    -1.4485  -1.4437  -1.4323  -1.4181  -1.3978  -1.3938  -1.3705  -1.3393
    -1.3350  -1.3262  -1.3211  -1.3054  -1.2987  -1.2956  -1.2640  -1.2622
    -1.2581  -1.2263  -1.2182  -1.2136  -1.2024  -1.2006  -1.1769  -1.1737
    -1.1669  -1.1441  -1.1426  -1.1399  -1.0798  -1.0783  -1.0665  -1.0658
    -1.0501  -1.0489  -1.0376  -1.0338  -1.0181  -1.0058  -0.9784  -0.9770
    -0.9654  -0.9364  -0.9283  -0.9254  -0.9160  -0.9155  -0.9147  -0.9099
    -0.9038  -0.8941  -0.8658  -0.8648  -0.8551  -0.8539  -0.8511  -0.8402
    -0.8286  -0.8102  -0.8031  -0.7891  -0.7785  -0.6955  -0.6822  -0.6766
    -0.6764  -0.6717  -0.6674  -0.6625  -0.6419  -0.6400  -0.6269  -0.6233
    -0.6116  -0.6083  -0.6026  -0.5825  -0.5807  -0.5757  -0.5715  -0.4983
    -0.4980  -0.4664  -0.4615  -0.4600  -0.4548  -0.4518  -0.4507  -0.4485
    -0.4399  -0.4333  -0.4164  -0.3959  -0.3808  -0.3634  -0.3620  -0.3523
    -0.3490  -0.3397  -0.3380  -0.3365  -0.3362  -0.3298  -0.3184  -0.3146
    -0.3088  -0.2832  -0.2822  -0.2769  -0.2686  -0.2668  -0.2493  -0.2179
    -0.2154  -0.2084  -0.2047  -0.1402  -0.1379  -0.1036  -0.1029  -0.0453
    -0.0445  -0.0439  -0.0249  -0.0166   0.2042   0.2265   0.5565   0.5568
     0.6423   0.6611   0.8368   0.8707   0.8773   1.0028   1.0073   1.4368
     1.4371   1.4545   1.7146   1.7468   1.7472   2.0144   2.0355   2.1014
     2.1029   2.1248   2.1436   2.3580   2.3590   2.4477   2.4486   2.5104
     2.5782   2.6049   2.7523   2.8526   3.2859   3.2892   3.2903   3.3032
     3.3469   3.3492   3.6405   3.6415   3.9148   3.9304   4.0107   4.3370
     4.3740   4.3849   4.5662   4.5749   4.6770   4.6834   4.7712   4.8852
     4.8952   5.0035   5.0086   5.0330   5.3095   5.3713   5.3876   5.5119
     5.5528   5.7601   5.7649   5.7738   5.7938   5.7972   5.8508   5.8556
     5.9001   6.0047   6.2389   6.2588   6.4418   6.4622   6.5930   6.5991
     6.6012   6.6088   6.6360   6.7259   6.8333   6.8501   6.8566   6.9805
     7.0102   7.0521   7.0782

     the Fermi energy is     1.5813 ev

!    total energy              =   -6604.43509065 Ry
     Harris-Foulkes estimate   =   -6604.43509064 Ry
     estimated scf accuracy    <          8.1E-09 Ry

     The total energy is the sum of the following terms:

     one-electron contribution =  -48714.76955085 Ry
     hartree contribution      =   24862.12699985 Ry
     xc contribution           =   -3204.97762811 Ry
     ewald contribution        =   20453.18228577 Ry
     smearing contrib. (-TS)   =       0.00280270 Ry

     convergence has been achieved in  24 iterations

     Writing output data file 5343948.save

     init_run     :    160.53s CPU    169.93s WALL (       1 calls)
     electrons    :   9377.77s CPU   9872.52s WALL (       1 calls)

     Called by init_run:
     wfcinit      :    120.28s CPU    128.86s WALL (       1 calls)
     potinit      :     11.74s CPU     12.18s WALL (       1 calls)

     Called by electrons:
     c_bands      :   7704.61s CPU   8086.42s WALL (      25 calls)
     sum_band     :   1220.19s CPU   1306.61s WALL (      25 calls)
     v_of_rho     :    124.48s CPU    133.38s WALL (      25 calls)
     newd         :    341.82s CPU    345.01s WALL (      25 calls)
     mix_rho      :      3.12s CPU      3.42s WALL (      25 calls)
     vdW_energy   :      6.39s CPU      6.86s WALL (      25 calls)
     vdW_ffts     :     72.00s CPU     76.88s WALL (      50 calls)
     vdW_v        :     15.12s CPU     15.80s WALL (      25 calls)

     Called by c_bands:
     init_us_2    :     11.39s CPU     11.75s WALL (     612 calls)
     cegterg      :   7595.64s CPU   7976.10s WALL (     300 calls)

     Called by *egterg:
     h_psi        :   3404.89s CPU   3749.49s WALL (    1760 calls)
     s_psi        :    419.29s CPU    421.95s WALL (    1760 calls)
     g_psi        :      5.93s CPU      5.86s WALL (    1448 calls)
     cdiaghg      :   2271.33s CPU   2278.52s WALL (    1736 calls)

     Called by h_psi:
     add_vuspsi   :    419.12s CPU    421.83s WALL (    1760 calls)

     General routines
     calbec       :    687.67s CPU    690.20s WALL (    2060 calls)
     fft          :    271.95s CPU    281.06s WALL (    1650 calls)
     ffts         :      2.04s CPU      2.23s WALL (      50 calls)
     fftw         :   2940.29s CPU   3334.68s WALL (  721840 calls)
     interpolate  :      5.13s CPU      5.67s WALL (      50 calls)
     davcio       :      0.01s CPU      0.17s WALL (      12 calls)

     Parallel routines
     fft_scatter  :   2422.59s CPU   2774.78s WALL (  723540 calls)

     PWSCF        :     2h39m CPU        2h47m WALL


   This run was terminated on:  15: 5:45  29Aug2015            

=------------------------------------------------------------------------------=
   JOB DONE.
=------------------------------------------------------------------------------=
