Setting SGE environment for SCC

     Program PWSCF v.5.1.2 starts on 27Jun2015 at  9:13:41 

     This program is part of the open-source Quantum ESPRESSO suite
     for quantum simulation of materials; please cite
         "P. Giannozzi et al., J. Phys.:Condens. Matter 21 395502 (2009);
          URL http://www.quantum-espresso.org", 
     in publications or presentations arising from this work. More details at
     http://www.quantum-espresso.org/quote

     Parallel version (MPI), running on    32 processors
     R & G space division:  proc/nbgrp/npool/nimage =      32
     Reading input from top.O1.Au50.d.3.0.phi.45.psi.180.in
Warning: card &IONS ignored
Warning: card / ignored
Warning: card &CELL ignored
Warning: card / ignored

     Current dimensions of program PWSCF are:
     Max number of different atomic species (ntypx) = 10
     Max number of k-points (npk) =  40000
     Max angular momentum in pseudopotentials (lmaxx) =  3

     IMPORTANT: XC functional enforced from input :
     Exchange-correlation      = VDW-DF ( 1  4  4  0 1 0)
     Any further DFT definition will be discarded
     Please, verify this is what you really want


     Subspace diagonalization in iterative solution of the eigenvalue problem:
     a serial algorithm will be used


     Parallelization info
     --------------------
     sticks:   dense  smooth     PW     G-vecs:    dense   smooth      PW
     Min         445     223     58                96775    34191    4534
     Max         446     224     59                96790    34246    4540
     Sum       14269    7147   1867              3097177  1095093  145167


     Title: 
     top.O1.Au50.d.3.0.phi.45.psi.180                                           


     bravais-lattice index     =            4
     lattice parameter (alat)  =      22.7436  a.u.
     unit-cell volume          =   22924.1508 (a.u.)^3
     number of atoms/cell      =           67
     number of atomic types    =            3
     number of electrons       =       712.00
     number of Kohn-Sham states=          427
     kinetic-energy cutoff     =      50.0000  Ry
     charge density cutoff     =     400.0000  Ry
     convergence threshold     =      1.0E-08
     mixing beta               =       0.7000
     number of iterations used =            8  plain     mixing
     Exchange-correlation      = VDW-DF ( 1  4  4  0 1 0)

     celldm(1)=  22.743643  celldm(2)=   0.000000  celldm(3)=   2.250000
     celldm(4)=   0.000000  celldm(5)=   0.000000  celldm(6)=   0.000000

     crystal axes: (cart. coord. in units of alat)
               a(1) = (   1.000000   0.000000   0.000000 )  
               a(2) = (  -0.500000   0.866025   0.000000 )  
               a(3) = (   0.000000   0.000000   2.250000 )  

     reciprocal axes: (cart. coord. in units 2 pi/alat)
               b(1) = (  1.000000  0.577350 -0.000000 )  
               b(2) = (  0.000000  1.154701  0.000000 )  
               b(3) = (  0.000000 -0.000000  0.444444 )  


     PseudoPot. # 1 for Au read from file:
     /home/scc/andrejb/qe/pseudo/Au.pbe-nd-van.UPF
     MD5 check sum: 458681b50f36d87ef23c61b04bba420a
     Pseudo is Ultrasoft + core correction, Zval = 11.0
     Generated by new atomic code, or converted to UPF format
     Using radial grid of  985 points,  3 beta functions with: 
                l(1) =   1
                l(2) =   2
                l(3) =   2
     Q(r) pseudized with  8 coefficients,  rinner =    1.100   1.100   1.100
                                                       1.100   1.100

     PseudoPot. # 2 for H  read from file:
     /home/scc/andrejb/qe/pseudo/H.pbe-van_ak.UPF
     MD5 check sum: 403db7282739603aa925980fa9b8608d
     Pseudo is Ultrasoft, Zval =  1.0
     Generated by new atomic code, or converted to UPF format
     Using radial grid of  615 points,  1 beta functions with: 
                l(1) =   0
     Q(r) pseudized with  8 coefficients,  rinner =    0.800

     PseudoPot. # 3 for O  read from file:
     /home/scc/andrejb/qe/pseudo/O.pbe-van_ak.UPF
     MD5 check sum: 4b8c549914a63cae506c6ff22b5af4fe
     Pseudo is Ultrasoft, Zval =  6.0
     Generated by new atomic code, or converted to UPF format
     Using radial grid of  737 points,  4 beta functions with: 
                l(1) =   0
                l(2) =   0
                l(3) =   1
                l(4) =   1
     Q(r) pseudized with  8 coefficients,  rinner =    0.800   0.800   0.800


     vdW kernel table read from file vdW_kernel_table
     MD5 check sum: 48e77a2e26edf626eeb0eaa751ad5cac

     atomic species   valence    mass     pseudopotential
        Au            11.00   196.96657     Au( 1.00)
        H              1.00     1.01000     H ( 1.00)
        O              6.00    16.00000     O ( 1.00)

     No symmetry found



   Cartesian axes

     site n.     atom                  positions (alat units)
         1           O   tau(   1) = (   0.4790780   0.3968269   0.8622611  )
         2           H   tau(   2) = (   0.4731484   0.4615137   0.8140075  )
         3           H   tau(   3) = (   0.4848144   0.3340879   0.8115004  )
         4           Au  tau(   4) = (   0.3540481   0.6132292   0.0000000  )
         5           Au  tau(   5) = (   0.4790062   0.3967954   0.0000000  )
         6           Au  tau(   6) = (   0.6039644   0.1803616   0.0000000  )
         7           Au  tau(   7) = (   0.7289225  -0.0360723   0.0000000  )
         8           Au  tau(   8) = (   0.1041318   0.6132292   0.0000000  )
         9           Au  tau(   9) = (   0.2290899   0.3967954   0.0000000  )
        10           Au  tau(  10) = (   0.3540481   0.1803616   0.0000000  )
        11           Au  tau(  11) = (   0.4790062  -0.0360723   0.0000000  )
        12           Au  tau(  12) = (  -0.1457845   0.6132292   0.0000000  )
        13           Au  tau(  13) = (  -0.0208264   0.3967954   0.0000000  )
        14           Au  tau(  14) = (   0.1041318   0.1803616   0.0000000  )
        15           Au  tau(  15) = (   0.2290899  -0.0360723   0.0000000  )
        16           Au  tau(  16) = (  -0.3957008   0.6132292   0.0000000  )
        17           Au  tau(  17) = (  -0.2707426   0.3967954   0.0000000  )
        18           Au  tau(  18) = (  -0.1457845   0.1803616   0.0000000  )
        19           Au  tau(  19) = (  -0.0208264  -0.0360723   0.0000000  )
        20           Au  tau(  20) = (   0.4790062   0.6853738   0.2040557  )
        21           Au  tau(  21) = (   0.6039644   0.4689400   0.2040557  )
        22           Au  tau(  22) = (   0.7289225   0.2525062   0.2040557  )
        23           Au  tau(  23) = (   0.8538806   0.0360723   0.2040557  )
        24           Au  tau(  24) = (   0.2290899   0.6853738   0.2040557  )
        25           Au  tau(  25) = (   0.3540481   0.4689400   0.2040557  )
        26           Au  tau(  26) = (   0.4790062   0.2525062   0.2040557  )
        27           Au  tau(  27) = (   0.6039644   0.0360723   0.2040557  )
        28           Au  tau(  28) = (  -0.0208264   0.6853738   0.2040557  )
        29           Au  tau(  29) = (   0.1041318   0.4689400   0.2040557  )
        30           Au  tau(  30) = (   0.2290899   0.2525062   0.2040557  )
        31           Au  tau(  31) = (   0.3540481   0.0360723   0.2040557  )
        32           Au  tau(  32) = (  -0.2707426   0.6853738   0.2040557  )
        33           Au  tau(  33) = (  -0.1457845   0.4689400   0.2040557  )
        34           Au  tau(  34) = (  -0.0208264   0.2525062   0.2040557  )
        35           Au  tau(  35) = (   0.1041318   0.0360723   0.2040557  )
        36           Au  tau(  36) = (   0.3541162   0.7576593   0.4066483  )
        37           Au  tau(  37) = (   0.4791000   0.5411421   0.4066696  )
        38           Au  tau(  38) = (   0.6040570   0.3246862   0.4066618  )
        39           Au  tau(  39) = (   0.7290270   0.1081684   0.4066530  )
        40           Au  tau(  40) = (   0.1041162   0.7576236   0.4066247  )
        41           Au  tau(  41) = (   0.2291001   0.5411062   0.4066455  )
        42           Au  tau(  42) = (   0.3540567   0.3246505   0.4066380  )
        43           Au  tau(  43) = (   0.4790276   0.1081324   0.4066292  )
        44           Au  tau(  44) = (  -0.1458201   0.7576104   0.4066225  )
        45           Au  tau(  45) = (  -0.0208365   0.5410930   0.4066438  )
        46           Au  tau(  46) = (   0.1041202   0.3246372   0.4066359  )
        47           Au  tau(  47) = (   0.2290908   0.1081193   0.4066273  )
        48           Au  tau(  48) = (  -0.3958167   0.7575791   0.4065812  )
        49           Au  tau(  49) = (  -0.2708328   0.5410617   0.4066025  )
        50           Au  tau(  50) = (  -0.1458763   0.3246061   0.4065947  )
        51           Au  tau(  51) = (  -0.0209056   0.1080882   0.4065858  )
        52           Au  tau(  52) = (   0.3541084   0.6133344   0.6129762  )
        53           Au  tau(  53) = (   0.4790780   0.3968269   0.6129968  )
        54           Au  tau(  54) = (   0.6040356   0.1803811   0.6129859  )
        55           Au  tau(  55) = (   0.7290165  -0.0361221   0.6129385  )
        56           Au  tau(  56) = (   0.1041243   0.6133091   0.6130023  )
        57           Au  tau(  57) = (   0.2290941   0.3968013   0.6130241  )
        58           Au  tau(  58) = (   0.3540515   0.1803552   0.6130121  )
        59           Au  tau(  59) = (   0.4790323  -0.0361475   0.6129659  )
        60           Au  tau(  60) = (  -0.1458030   0.6133014   0.6129980  )
        61           Au  tau(  61) = (  -0.0208339   0.3967936   0.6130189  )
        62           Au  tau(  62) = (   0.1041239   0.1803477   0.6130083  )
        63           Au  tau(  63) = (   0.2291046  -0.0361554   0.6129607  )
        64           Au  tau(  64) = (  -0.3957908   0.6132739   0.6129471  )
        65           Au  tau(  65) = (  -0.2708208   0.3967658   0.6129688  )
        66           Au  tau(  66) = (  -0.1458636   0.1803200   0.6129569  )
        67           Au  tau(  67) = (  -0.0208823  -0.0361826   0.6129110  )

     number of k points=    12  Marzari-Vanderbilt smearing, width (Ry)=  0.0200
                       cart. coord. in units 2pi/alat
        k(    1) = (   0.2500000   0.4330127   0.1111111), wk =   0.1666667
        k(    2) = (   0.2500000  -0.1443376   0.1111111), wk =   0.1666667
        k(    3) = (  -0.2500000  -0.4330127   0.1111111), wk =   0.1666667
        k(    4) = (  -0.2500000   0.4330127  -0.1111111), wk =   0.1666667
        k(    5) = (   0.2500000  -0.4330127  -0.1111111), wk =   0.1666667
        k(    6) = (   0.5000000   0.0000000   0.1111111), wk =   0.1666667
        k(    7) = (  -0.5000000   0.0000000   0.1111111), wk =   0.1666667
        k(    8) = (  -0.2500000   0.1443376   0.1111111), wk =   0.1666667
        k(    9) = (  -0.2500000  -0.1443376  -0.1111111), wk =   0.1666667
        k(   10) = (   0.2500000   0.1443376  -0.1111111), wk =   0.1666667
        k(   11) = (   0.0000000  -0.2886751   0.1111111), wk =   0.1666667
        k(   12) = (   0.0000000   0.2886751   0.1111111), wk =   0.1666667

     Dense  grid:  3097177 G-vectors     FFT dimensions: ( 150, 150, 360)

     Smooth grid:  1095093 G-vectors     FFT dimensions: ( 108, 108, 240)

     Largest allocated arrays     est. size (Mb)     dimensions
        Kohn-Sham Wavefunctions        28.01 Mb     (    4299,  427)
        NL pseudopotentials            55.23 Mb     (    4299,  842)
        Each V/rho on FFT grid          4.12 Mb     (  270000)
        Each G-vector array             0.74 Mb     (   96788)
        G-vector shells                 0.16 Mb     (   21404)
     Largest temporary arrays     est. size (Mb)     dimensions
        Auxiliary wavefunctions       112.04 Mb     (    4299, 1708)
        Each subspace H/S matrix       44.51 Mb     (    1708, 1708)
        Each <psi_i|beta_j> matrix      5.49 Mb     (     842,  427)
        Arrays for rho mixing          32.96 Mb     (  270000,    8)

     Initial potential from superposition of free atoms
     Check: negative starting charge=   -1.730400

     starting charge  711.25682, renormalised to  712.00000

     negative rho (up, down):  1.732E+00 0.000E+00


     ************************************************************************
     *
     * You are using vdW-DF for exchange-correlation in this calculation.
     * Please cite the following three references that made this development
     * possible:
     *
     *   M. Dion, H. Rydberg, E. Schroder, D. C. Langreth, and
     *   B. I. Lundqvist, Phys. Rev. Lett. 92, 246401 (2004).
     *
     *   T. Thonhauser, V. R. Cooper, S. Li, A. Puzder, P. Hyldgaard, and
     *   D. C. Langreth, Phys. Rev. B 76, 125112 (2007).
     *
     *   G. Roman-Perez and J. M. Soler, Phys. Rev. Lett. 103, 096102 (2009).
     *
     *
     * If you are using vdW-DF2, please also cite:
     *
     *   K. Lee, E. D. Murray, L. Kong, B. I. Lundqvist, and
     *   D. C. Langreth, Phys. Rev. B 82, 081101(R) (2010).
     *
     *
     * If you are calculating the stress with vdW-DF, please also cite:
     *
     *   R. Sabatini, E. Kucukbenli, B. Kolb, T. Thonhauser, and
     *   S. de Gironcoli, J. Phys.: Condens. Matter 24, 424209 (2012).
     *
     ************************************************************************

     Carrying out vdW-DF run using the following parameters:

     Nqs =      20    Nr_points =    1024   r_max =   100.000
     q_mesh =
               0.00001000     0.04494208     0.09755937     0.15916263
               0.23128650     0.31572767     0.41458969     0.53033537
               0.66584808     0.82450364     1.01025438     1.22772762
               1.48234092     1.78043706     2.12944203     2.53805004
               3.01644009     3.57652955     4.23227104     5.00000000

     Gradients computed in reciprocal space

     ************************************************************************


     Starting wfc are  582 randomized atomic wfcs

     total cpu time spent up to now is      175.1 secs

     Self-consistent Calculation

     iteration #  1     ecut=    50.00 Ry     beta=0.70
     Davidson diagonalization with overlap
     ethr =  1.00E-02,  avg # of iterations =  3.0

     Threshold (ethr) on eigenvalues was too large:
     Diagonalizing with lowered threshold

     Davidson diagonalization with overlap
     ethr =  3.38E-04,  avg # of iterations =  3.3

     negative rho (up, down):  1.727E+00 0.000E+00

     total cpu time spent up to now is      934.4 secs

     total energy              =   -6602.81888498 Ry
     Harris-Foulkes estimate   =   -6605.00881300 Ry
     estimated scf accuracy    <       2.75092608 Ry

     iteration #  2     ecut=    50.00 Ry     beta=0.70
     Davidson diagonalization with overlap
     ethr =  3.86E-04,  avg # of iterations = 11.7

     negative rho (up, down):  1.727E+00 0.000E+00

     total cpu time spent up to now is     1972.0 secs

     total energy              =   -6597.14505658 Ry
     Harris-Foulkes estimate   =   -6609.93870846 Ry
     estimated scf accuracy    <      70.27252723 Ry

     iteration #  3     ecut=    50.00 Ry     beta=0.70
     Davidson diagonalization with overlap
     ethr =  3.86E-04,  avg # of iterations =  6.0

     negative rho (up, down):  1.737E+00 0.000E+00

     total cpu time spent up to now is     2576.1 secs

     total energy              =   -6603.05217990 Ry
     Harris-Foulkes estimate   =   -6605.03498894 Ry
     estimated scf accuracy    <       9.38530865 Ry

     iteration #  4     ecut=    50.00 Ry     beta=0.70
     Davidson diagonalization with overlap
     ethr =  3.86E-04,  avg # of iterations =  5.9

     negative rho (up, down):  1.738E+00 0.000E+00

     total cpu time spent up to now is     2944.8 secs

     total energy              =   -6603.46876463 Ry
     Harris-Foulkes estimate   =   -6605.20399984 Ry
     estimated scf accuracy    <      16.23743027 Ry

     iteration #  5     ecut=    50.00 Ry     beta=0.70
     Davidson diagonalization with overlap
     ethr =  3.86E-04,  avg # of iterations =  7.8

     negative rho (up, down):  1.747E+00 0.000E+00

     total cpu time spent up to now is     3346.6 secs

     total energy              =   -6604.30328883 Ry
     Harris-Foulkes estimate   =   -6604.63866440 Ry
     estimated scf accuracy    <       2.30537820 Ry

     iteration #  6     ecut=    50.00 Ry     beta=0.70
     Davidson diagonalization with overlap
     ethr =  3.24E-04,  avg # of iterations =  2.8

     negative rho (up, down):  1.752E+00 0.000E+00

     total cpu time spent up to now is     3627.0 secs

     total energy              =   -6604.41775810 Ry
     Harris-Foulkes estimate   =   -6604.46298103 Ry
     estimated scf accuracy    <       0.14654383 Ry

     iteration #  7     ecut=    50.00 Ry     beta=0.70
     Davidson diagonalization with overlap
     c_bands:  1 eigenvalues not converged
     ethr =  2.06E-05,  avg # of iterations = 10.3

     negative rho (up, down):  1.754E+00 0.000E+00

     total cpu time spent up to now is     4092.3 secs

     total energy              =   -6604.42313299 Ry
     Harris-Foulkes estimate   =   -6604.45183741 Ry
     estimated scf accuracy    <       0.13100560 Ry

     iteration #  8     ecut=    50.00 Ry     beta=0.70
     Davidson diagonalization with overlap
     ethr =  1.84E-05,  avg # of iterations =  3.2

     negative rho (up, down):  1.755E+00 0.000E+00

     total cpu time spent up to now is     4390.2 secs

     total energy              =   -6604.42587840 Ry
     Harris-Foulkes estimate   =   -6604.43963449 Ry
     estimated scf accuracy    <       0.05451482 Ry

     iteration #  9     ecut=    50.00 Ry     beta=0.70
     Davidson diagonalization with overlap
     ethr =  7.66E-06,  avg # of iterations =  6.0

     negative rho (up, down):  1.756E+00 0.000E+00

     total cpu time spent up to now is     4742.7 secs

     total energy              =   -6604.42555337 Ry
     Harris-Foulkes estimate   =   -6604.43184668 Ry
     estimated scf accuracy    <       0.02403261 Ry

     iteration # 10     ecut=    50.00 Ry     beta=0.70
     Davidson diagonalization with overlap
     ethr =  3.38E-06,  avg # of iterations =  5.6

     negative rho (up, down):  1.757E+00 0.000E+00

     total cpu time spent up to now is     5082.2 secs

     total energy              =   -6604.42496583 Ry
     Harris-Foulkes estimate   =   -6604.42787699 Ry
     estimated scf accuracy    <       0.01106861 Ry

     iteration # 11     ecut=    50.00 Ry     beta=0.70
     Davidson diagonalization with overlap
     ethr =  1.55E-06,  avg # of iterations =  5.9

     negative rho (up, down):  1.757E+00 0.000E+00

     total cpu time spent up to now is     5427.7 secs

     total energy              =   -6604.42467454 Ry
     Harris-Foulkes estimate   =   -6604.42615331 Ry
     estimated scf accuracy    <       0.00597458 Ry

     iteration # 12     ecut=    50.00 Ry     beta=0.70
     Davidson diagonalization with overlap
     ethr =  8.39E-07,  avg # of iterations =  5.9

     negative rho (up, down):  1.758E+00 0.000E+00

     total cpu time spent up to now is     5756.3 secs

     total energy              =   -6604.42450640 Ry
     Harris-Foulkes estimate   =   -6604.42520452 Ry
     estimated scf accuracy    <       0.00132073 Ry

     iteration # 13     ecut=    50.00 Ry     beta=0.70
     Davidson diagonalization with overlap
     ethr =  1.85E-07,  avg # of iterations =  5.8

     negative rho (up, down):  1.757E+00 0.000E+00

     total cpu time spent up to now is     6135.0 secs

     total energy              =   -6604.42474499 Ry
     Harris-Foulkes estimate   =   -6604.42484913 Ry
     estimated scf accuracy    <       0.00026908 Ry

     iteration # 14     ecut=    50.00 Ry     beta=0.70
     Davidson diagonalization with overlap
     ethr =  3.78E-08,  avg # of iterations =  2.0

     negative rho (up, down):  1.757E+00 0.000E+00

     total cpu time spent up to now is     6458.8 secs

     total energy              =   -6604.42477665 Ry
     Harris-Foulkes estimate   =   -6604.42482980 Ry
     estimated scf accuracy    <       0.00021801 Ry

     iteration # 15     ecut=    50.00 Ry     beta=0.70
     Davidson diagonalization with overlap
     ethr =  3.06E-08,  avg # of iterations =  2.0

     negative rho (up, down):  1.757E+00 0.000E+00

     total cpu time spent up to now is     6789.0 secs

     total energy              =   -6604.42479042 Ry
     Harris-Foulkes estimate   =   -6604.42482329 Ry
     estimated scf accuracy    <       0.00027124 Ry

     iteration # 16     ecut=    50.00 Ry     beta=0.70
     Davidson diagonalization with overlap
     ethr =  3.06E-08,  avg # of iterations =  2.0

     negative rho (up, down):  1.757E+00 0.000E+00

     total cpu time spent up to now is     7066.1 secs

     total energy              =   -6604.42480526 Ry
     Harris-Foulkes estimate   =   -6604.42481040 Ry
     estimated scf accuracy    <       0.00002172 Ry

     iteration # 17     ecut=    50.00 Ry     beta=0.70
     Davidson diagonalization with overlap
     ethr =  3.05E-09,  avg # of iterations =  3.0

     negative rho (up, down):  1.757E+00 0.000E+00

     total cpu time spent up to now is     7393.6 secs

     total energy              =   -6604.42480624 Ry
     Harris-Foulkes estimate   =   -6604.42481179 Ry
     estimated scf accuracy    <       0.00002940 Ry

     iteration # 18     ecut=    50.00 Ry     beta=0.70
     Davidson diagonalization with overlap
     ethr =  3.05E-09,  avg # of iterations =  2.0

     negative rho (up, down):  1.757E+00 0.000E+00

     total cpu time spent up to now is     7714.0 secs

     total energy              =   -6604.42480859 Ry
     Harris-Foulkes estimate   =   -6604.42480962 Ry
     estimated scf accuracy    <       0.00000334 Ry

     iteration # 19     ecut=    50.00 Ry     beta=0.70
     Davidson diagonalization with overlap
     ethr =  4.68E-10,  avg # of iterations =  2.0

     negative rho (up, down):  1.757E+00 0.000E+00

     total cpu time spent up to now is     8095.5 secs

     total energy              =   -6604.42480908 Ry
     Harris-Foulkes estimate   =   -6604.42480938 Ry
     estimated scf accuracy    <       0.00000130 Ry

     iteration # 20     ecut=    50.00 Ry     beta=0.70
     Davidson diagonalization with overlap
     ethr =  1.83E-10,  avg # of iterations =  2.0

     negative rho (up, down):  1.757E+00 0.000E+00

     total cpu time spent up to now is     8408.8 secs

     total energy              =   -6604.42480925 Ry
     Harris-Foulkes estimate   =   -6604.42480931 Ry
     estimated scf accuracy    <       0.00000034 Ry

     iteration # 21     ecut=    50.00 Ry     beta=0.70
     Davidson diagonalization with overlap
     ethr =  4.81E-11,  avg # of iterations =  2.0

     negative rho (up, down):  1.757E+00 0.000E+00

     total cpu time spent up to now is     8710.0 secs

     total energy              =   -6604.42480931 Ry
     Harris-Foulkes estimate   =   -6604.42480932 Ry
     estimated scf accuracy    <       0.00000014 Ry

     iteration # 22     ecut=    50.00 Ry     beta=0.70
     Davidson diagonalization with overlap
     ethr =  2.00E-11,  avg # of iterations =  2.0

     negative rho (up, down):  1.757E+00 0.000E+00

     total cpu time spent up to now is     8996.4 secs

     total energy              =   -6604.42480932 Ry
     Harris-Foulkes estimate   =   -6604.42480933 Ry
     estimated scf accuracy    <       0.00000001 Ry

     iteration # 23     ecut=    50.00 Ry     beta=0.70
     Davidson diagonalization with overlap
     ethr =  1.90E-12,  avg # of iterations =  3.9

     negative rho (up, down):  1.757E+00 0.000E+00

     total cpu time spent up to now is     9390.8 secs

     total energy              =   -6604.42480932 Ry
     Harris-Foulkes estimate   =   -6604.42480933 Ry
     estimated scf accuracy    <       0.00000002 Ry

     iteration # 24     ecut=    50.00 Ry     beta=0.70
     Davidson diagonalization with overlap
     ethr =  1.90E-12,  avg # of iterations =  3.0

     negative rho (up, down):  1.757E+00 0.000E+00

     total cpu time spent up to now is     9689.9 secs

     End of self-consistent calculation

          k = 0.2500 0.4330 0.1111 (136853 PWs)   bands (ev):

   -18.7193  -6.5581  -6.4585  -6.0609  -6.0577  -5.3846  -5.0490  -5.0472
    -5.0162  -5.0068  -4.6480  -4.6467  -4.5491  -4.5483  -4.5347  -4.5110
    -4.4959  -4.3828  -4.3797  -4.3568  -4.3134  -4.3129  -4.2489  -4.2440
    -4.2413  -4.2374  -4.2161  -4.2122  -4.2090  -4.1496  -4.1367  -4.1085
    -4.1074  -4.0965  -4.0954  -4.0730  -4.0720  -4.0498  -4.0415  -4.0413
    -4.0165  -3.9632  -3.9624  -3.9153  -3.9134  -3.8588  -3.8570  -3.8058
    -3.8013  -3.8002  -3.7995  -3.7646  -3.7307  -3.7284  -3.7195  -3.7186
    -3.7170  -3.6949  -3.6863  -3.6787  -3.6207  -3.6184  -3.6127  -3.5918
    -3.5837  -3.5180  -3.5106  -3.4833  -3.4772  -3.4526  -3.4495  -3.4353
    -3.4224  -3.3654  -3.3611  -3.3445  -3.3423  -3.2935  -3.2897  -3.2875
    -3.2466  -3.2283  -3.2177  -3.2126  -3.2066  -3.1982  -3.1964  -3.1863
    -3.1857  -3.1770  -3.1409  -3.1125  -3.0957  -3.0851  -3.0825  -3.0728
    -3.0546  -3.0482  -3.0430  -3.0056  -2.9786  -2.9726  -2.9599  -2.9317
    -2.9200  -2.9128  -2.9034  -2.8870  -2.8757  -2.8509  -2.8183  -2.8157
    -2.7959  -2.7866  -2.7742  -2.7716  -2.7246  -2.7203  -2.6900  -2.6679
    -2.6655  -2.6454  -2.6398  -2.6326  -2.6277  -2.6204  -2.6000  -2.5990
    -2.5526  -2.5514  -2.5510  -2.5367  -2.5349  -2.5276  -2.5222  -2.5199
    -2.5180  -2.5149  -2.5103  -2.5043  -2.4982  -2.4925  -2.4665  -2.4630
    -2.4605  -2.4579  -2.4573  -2.4549  -2.4510  -2.4301  -2.4262  -2.4132
    -2.4108  -2.3922  -2.3907  -2.3846  -2.3822  -2.3809  -2.3783  -2.3649
    -2.3589  -2.3580  -2.3542  -2.3394  -2.3158  -2.3123  -2.2737  -2.2735
    -2.2522  -2.2496  -2.2234  -2.2192  -2.1966  -2.1931  -2.1789  -2.1720
    -2.1458  -2.1304  -2.1253  -2.1171  -2.1156  -2.1109  -2.1058  -2.1037
    -2.0766  -2.0722  -2.0637  -2.0085  -2.0041  -2.0016  -1.9996  -1.9947
    -1.9687  -1.9437  -1.9422  -1.9164  -1.9128  -1.8581  -1.8550  -1.8247
    -1.8071  -1.8026  -1.7490  -1.7462  -1.7377  -1.7329  -1.7248  -1.7221
    -1.7180  -1.7138  -1.7082  -1.6603  -1.6513  -1.6422  -1.6408  -1.6398
    -1.6276  -1.6197  -1.5906  -1.5864  -1.5711  -1.5689  -1.5683  -1.5609
    -1.5561  -1.5514  -1.5449  -1.5280  -1.5260  -1.4916  -1.4813  -1.4781
    -1.4733  -1.4562  -1.4386  -1.4026  -1.3966  -1.3716  -1.3676  -1.3658
    -1.3372  -1.2915  -1.2841  -1.2825  -1.2794  -1.2776  -1.2745  -1.2669
    -1.2524  -1.2473  -1.2131  -1.2057  -1.1809  -1.1771  -1.1739  -1.1701
    -1.1651  -1.1526  -1.1474  -1.1460  -1.1426  -1.1415  -1.1059  -1.1037
    -1.1024  -1.1010  -1.0774  -1.0706  -1.0674  -1.0418  -1.0390  -1.0327
    -0.9927  -0.9841  -0.9801  -0.9465  -0.9403  -0.9303  -0.9270  -0.9219
    -0.9210  -0.9172  -0.9160  -0.9059  -0.9042  -0.8821  -0.8803  -0.8760
    -0.8748  -0.8732  -0.8396  -0.8373  -0.8368  -0.8240  -0.8097  -0.8038
    -0.8014  -0.7908  -0.7394  -0.7337  -0.7318  -0.7257  -0.7238  -0.7208
    -0.7175  -0.7006  -0.6974  -0.6946  -0.6886  -0.6875  -0.6853  -0.6578
    -0.6469  -0.6444  -0.6406  -0.6354  -0.6347  -0.6296  -0.6235  -0.6144
    -0.6099  -0.6088  -0.6047  -0.5684  -0.5665  -0.5598  -0.5551  -0.5533
    -0.4808  -0.4753  -0.4745  -0.4738  -0.4656  -0.4636  -0.4289  -0.4172
    -0.4161  -0.3841  -0.3824  -0.3751  -0.2653  -0.2591  -0.1607   0.2543
     0.2555   0.2595   0.2599   0.3231   0.3275   0.7059   0.7092   0.7496
     0.7517   0.8686   0.9427   1.0521   1.0556   1.2795   1.2814   1.9058
     1.9076   2.0673   2.0690   2.2035   2.2050   2.3043   2.3049   2.4588
     2.6960   2.7110   2.8217   3.0446   3.0490   3.1251   3.1272   3.2258
     3.2438   3.4453   3.4564   3.4982   3.6991   3.7029   3.7636   3.7667
     4.0195   4.0287   4.0302   4.2705   4.3093   4.3122   4.3579   4.6890
     4.6962   4.7212   4.8574   5.0308   5.0332   5.1011   5.1138   5.5875
     5.8085   5.8177   5.8263   5.8482   5.8835   5.8911   5.8956   5.9967
     6.0057   6.0269   6.0562   6.0596   6.0883   6.0953   6.1155   6.1177
     6.2306   6.5653   6.6060   6.7046   6.7392   6.7608   6.7711   6.7768
     6.8068   6.8837   6.9783

          k = 0.2500-0.1443 0.1111 (136898 PWs)   bands (ev):

   -18.7193  -6.6688  -6.5577  -5.8767  -5.5886  -5.5268  -5.5255  -4.9884
    -4.9872  -4.8599  -4.8551  -4.7021  -4.6754  -4.6080  -4.5799  -4.5744
    -4.5411  -4.5405  -4.4120  -4.3704  -4.3700  -4.3122  -4.2926  -4.2896
    -4.1873  -4.1868  -4.1518  -4.1504  -4.1501  -4.1250  -4.1024  -4.1019
    -4.0032  -3.9950  -3.9949  -3.9757  -3.9590  -3.9571  -3.9466  -3.9449
    -3.9335  -3.9033  -3.9018  -3.9013  -3.9006  -3.8701  -3.8690  -3.8518
    -3.8504  -3.8415  -3.8001  -3.7974  -3.7663  -3.7524  -3.7479  -3.7420
    -3.7419  -3.6687  -3.6677  -3.6374  -3.6344  -3.6304  -3.5630  -3.5619
    -3.5522  -3.5464  -3.5186  -3.5178  -3.5169  -3.5151  -3.3682  -3.3604
    -3.3396  -3.3388  -3.3343  -3.3187  -3.3143  -3.2923  -3.2899  -3.2458
    -3.2386  -3.2265  -3.2222  -3.2056  -3.1686  -3.1567  -3.1468  -3.1335
    -3.1288  -3.1103  -3.0886  -3.0853  -3.0800  -3.0729  -3.0641  -3.0397
    -3.0255  -3.0200  -3.0057  -3.0022  -2.9998  -2.9966  -2.9692  -2.9213
    -2.9206  -2.9105  -2.8883  -2.8748  -2.8300  -2.8251  -2.7985  -2.7959
    -2.7850  -2.7831  -2.7747  -2.7502  -2.7491  -2.7384  -2.7221  -2.6996
    -2.6986  -2.6926  -2.6763  -2.6757  -2.6663  -2.6643  -2.6610  -2.6561
    -2.6506  -2.6053  -2.5749  -2.5745  -2.5561  -2.5440  -2.5393  -2.5359
    -2.5296  -2.5287  -2.5276  -2.4998  -2.4984  -2.4944  -2.4881  -2.4851
    -2.4727  -2.4453  -2.4441  -2.4425  -2.4418  -2.4382  -2.3957  -2.3659
    -2.3641  -2.3633  -2.3571  -2.3480  -2.3399  -2.3362  -2.3187  -2.3186
    -2.2888  -2.2847  -2.2841  -2.2671  -2.2668  -2.2654  -2.2348  -2.2320
    -2.1947  -2.1873  -2.1839  -2.1811  -2.1805  -2.1757  -2.1749  -2.1706
    -2.1702  -2.1649  -2.1636  -2.1478  -2.1474  -2.0239  -2.0227  -1.9896
    -1.9830  -1.9817  -1.9741  -1.9732  -1.9600  -1.9586  -1.9547  -1.9540
    -1.9480  -1.9298  -1.9254  -1.9242  -1.9124  -1.9081  -1.9017  -1.8877
    -1.8840  -1.8590  -1.8571  -1.8304  -1.8282  -1.8164  -1.8075  -1.7888
    -1.7880  -1.7858  -1.7691  -1.7556  -1.7541  -1.7479  -1.7471  -1.7228
    -1.7223  -1.7062  -1.7053  -1.6730  -1.6670  -1.6629  -1.6150  -1.6125
    -1.5985  -1.5972  -1.5911  -1.5712  -1.5680  -1.5381  -1.5358  -1.5341
    -1.5012  -1.4934  -1.4909  -1.4752  -1.4744  -1.4529  -1.4490  -1.4438
    -1.4197  -1.4156  -1.4143  -1.3546  -1.3516  -1.3415  -1.3396  -1.3257
    -1.3230  -1.3103  -1.3099  -1.2919  -1.2786  -1.2521  -1.2501  -1.2383
    -1.2091  -1.2014  -1.1991  -1.1890  -1.1884  -1.1862  -1.1829  -1.1810
    -1.1666  -1.1419  -1.1386  -1.1279  -1.1243  -1.1225  -1.1167  -1.1028
    -1.0829  -1.0754  -1.0594  -1.0571  -0.9698  -0.9568  -0.9510  -0.9492
    -0.9464  -0.9397  -0.9373  -0.9183  -0.9165  -0.9002  -0.8986  -0.8850
    -0.8842  -0.8776  -0.8586  -0.8540  -0.8519  -0.8440  -0.7747  -0.7703
    -0.7473  -0.7362  -0.7325  -0.7260  -0.7246  -0.7232  -0.7225  -0.7130
    -0.7097  -0.6937  -0.6682  -0.6651  -0.6446  -0.6355  -0.6294  -0.6236
    -0.6224  -0.6123  -0.6101  -0.6085  -0.6073  -0.6007  -0.5906  -0.5861
    -0.5846  -0.5559  -0.5535  -0.5530  -0.5408  -0.5402  -0.5215  -0.4898
    -0.4890  -0.4804  -0.4792  -0.4124  -0.4116  -0.3768  -0.3756  -0.3193
    -0.3174  -0.3159  -0.2958  -0.2923  -0.0612  -0.0523   0.2839   0.2842
     0.3763   0.3851   0.5740   0.5939   0.6019   0.7305   0.7327   1.1640
     1.1646   1.1814   1.4466   1.4738   1.4746   1.7529   1.7609   1.8281
     1.8290   1.8574   1.8611   2.0835   2.0866   2.1753   2.1759   2.2574
     2.3156   2.3215   2.4781   2.5795   3.0126   3.0178   3.0197   3.0212
     3.0717   3.0768   3.3674   3.3685   3.6503   3.6539   3.7645   4.0645
     4.1058   4.1066   4.3391   4.3429   4.4056   4.4071   4.4991   4.6177
     4.6190   4.7342   4.7351   5.0366   5.1028   5.1090   5.2838   5.2978
     5.4562   5.4928   5.4963   5.5213   5.5239   5.5821   5.5868   5.6453
     5.9940   6.0554   6.1894   6.2845   6.2939   6.3215   6.3285   6.3424
     6.3435   6.5753   6.5798   6.6377   6.7550   6.8117   6.8244   6.8730
     6.8838   7.1133   7.1310

          k =-0.2500-0.4330 0.1111 (136853 PWs)   bands (ev):

   -18.7193  -6.5581  -6.4585  -6.0609  -6.0577  -5.3846  -5.0490  -5.0472
    -5.0162  -5.0068  -4.6480  -4.6467  -4.5491  -4.5483  -4.5347  -4.5110
    -4.4959  -4.3828  -4.3797  -4.3568  -4.3134  -4.3129  -4.2489  -4.2440
    -4.2413  -4.2374  -4.2161  -4.2122  -4.2090  -4.1496  -4.1367  -4.1085
    -4.1074  -4.0965  -4.0954  -4.0730  -4.0720  -4.0498  -4.0415  -4.0413
    -4.0165  -3.9632  -3.9624  -3.9153  -3.9134  -3.8588  -3.8570  -3.8058
    -3.8013  -3.8002  -3.7995  -3.7646  -3.7307  -3.7284  -3.7195  -3.7186
    -3.7170  -3.6949  -3.6863  -3.6787  -3.6207  -3.6184  -3.6127  -3.5918
    -3.5837  -3.5180  -3.5106  -3.4833  -3.4772  -3.4526  -3.4495  -3.4353
    -3.4224  -3.3654  -3.3611  -3.3445  -3.3423  -3.2935  -3.2897  -3.2875
    -3.2466  -3.2283  -3.2177  -3.2126  -3.2066  -3.1982  -3.1964  -3.1863
    -3.1857  -3.1770  -3.1409  -3.1125  -3.0957  -3.0851  -3.0825  -3.0728
    -3.0546  -3.0482  -3.0430  -3.0056  -2.9786  -2.9726  -2.9599  -2.9317
    -2.9200  -2.9128  -2.9034  -2.8870  -2.8757  -2.8509  -2.8183  -2.8157
    -2.7959  -2.7866  -2.7742  -2.7716  -2.7246  -2.7203  -2.6900  -2.6679
    -2.6655  -2.6454  -2.6398  -2.6326  -2.6277  -2.6204  -2.6000  -2.5990
    -2.5526  -2.5514  -2.5510  -2.5367  -2.5349  -2.5276  -2.5222  -2.5199
    -2.5180  -2.5149  -2.5103  -2.5043  -2.4982  -2.4925  -2.4665  -2.4630
    -2.4605  -2.4579  -2.4573  -2.4549  -2.4510  -2.4301  -2.4262  -2.4131
    -2.4108  -2.3922  -2.3907  -2.3846  -2.3822  -2.3809  -2.3783  -2.3649
    -2.3589  -2.3580  -2.3542  -2.3394  -2.3158  -2.3123  -2.2737  -2.2735
    -2.2522  -2.2496  -2.2234  -2.2192  -2.1966  -2.1931  -2.1789  -2.1720
    -2.1458  -2.1304  -2.1253  -2.1171  -2.1156  -2.1109  -2.1058  -2.1037
    -2.0766  -2.0722  -2.0637  -2.0085  -2.0041  -2.0016  -1.9996  -1.9947
    -1.9687  -1.9437  -1.9422  -1.9164  -1.9128  -1.8581  -1.8550  -1.8247
    -1.8071  -1.8026  -1.7490  -1.7462  -1.7377  -1.7329  -1.7248  -1.7221
    -1.7180  -1.7138  -1.7082  -1.6603  -1.6513  -1.6422  -1.6408  -1.6398
    -1.6276  -1.6197  -1.5906  -1.5864  -1.5711  -1.5689  -1.5683  -1.5609
    -1.5561  -1.5514  -1.5449  -1.5280  -1.5260  -1.4916  -1.4813  -1.4781
    -1.4733  -1.4562  -1.4386  -1.4026  -1.3966  -1.3716  -1.3676  -1.3658
    -1.3372  -1.2915  -1.2841  -1.2825  -1.2794  -1.2776  -1.2745  -1.2669
    -1.2524  -1.2473  -1.2131  -1.2057  -1.1809  -1.1771  -1.1739  -1.1701
    -1.1651  -1.1526  -1.1474  -1.1460  -1.1426  -1.1415  -1.1059  -1.1037
    -1.1024  -1.1010  -1.0774  -1.0706  -1.0674  -1.0418  -1.0390  -1.0327
    -0.9927  -0.9841  -0.9800  -0.9465  -0.9403  -0.9303  -0.9270  -0.9219
    -0.9210  -0.9172  -0.9160  -0.9059  -0.9042  -0.8821  -0.8803  -0.8760
    -0.8748  -0.8732  -0.8396  -0.8373  -0.8368  -0.8240  -0.8097  -0.8038
    -0.8014  -0.7908  -0.7394  -0.7337  -0.7318  -0.7257  -0.7238  -0.7208
    -0.7175  -0.7006  -0.6974  -0.6946  -0.6886  -0.6875  -0.6853  -0.6578
    -0.6469  -0.6444  -0.6406  -0.6354  -0.6347  -0.6296  -0.6235  -0.6144
    -0.6099  -0.6088  -0.6047  -0.5684  -0.5665  -0.5598  -0.5551  -0.5533
    -0.4808  -0.4753  -0.4745  -0.4738  -0.4656  -0.4636  -0.4289  -0.4172
    -0.4161  -0.3841  -0.3824  -0.3751  -0.2653  -0.2591  -0.1607   0.2543
     0.2555   0.2595   0.2599   0.3231   0.3275   0.7059   0.7092   0.7496
     0.7517   0.8686   0.9427   1.0521   1.0556   1.2795   1.2814   1.9058
     1.9076   2.0673   2.0690   2.2035   2.2050   2.3043   2.3049   2.4588
     2.6960   2.7110   2.8217   3.0446   3.0490   3.1251   3.1272   3.2258
     3.2438   3.4453   3.4564   3.4982   3.6991   3.7029   3.7636   3.7667
     4.0195   4.0287   4.0302   4.2705   4.3093   4.3122   4.3579   4.6890
     4.6962   4.7212   4.8574   5.0308   5.0332   5.1011   5.1137   5.5875
     5.8085   5.8177   5.8263   5.8482   5.8835   5.8912   5.8956   5.9967
     6.0057   6.0269   6.0562   6.0596   6.0883   6.0953   6.1155   6.1177
     6.2306   6.5652   6.6061   6.7046   6.7392   6.7608   6.7711   6.7770
     6.8064   6.8837   6.9750

          k =-0.2500 0.4330-0.1111 (136853 PWs)   bands (ev):

   -18.7193  -6.5582  -6.4584  -6.0613  -6.0574  -5.3846  -5.0496  -5.0466
    -5.0163  -5.0068  -4.6485  -4.6460  -4.5492  -4.5484  -4.5343  -4.5111
    -4.4959  -4.3827  -4.3802  -4.3570  -4.3134  -4.3130  -4.2489  -4.2438
    -4.2421  -4.2369  -4.2160  -4.2132  -4.2078  -4.1498  -4.1367  -4.1090
    -4.1066  -4.0966  -4.0951  -4.0729  -4.0720  -4.0498  -4.0417  -4.0412
    -4.0167  -3.9632  -3.9626  -3.9158  -3.9128  -3.8585  -3.8569  -3.8055
    -3.8014  -3.8001  -3.7995  -3.7648  -3.7306  -3.7282  -3.7199  -3.7187
    -3.7169  -3.6961  -3.6859  -3.6783  -3.6206  -3.6183  -3.6132  -3.5916
    -3.5833  -3.5188  -3.5104  -3.4840  -3.4767  -3.4522  -3.4494  -3.4352
    -3.4224  -3.3650  -3.3614  -3.3440  -3.3425  -3.2936  -3.2897  -3.2876
    -3.2464  -3.2285  -3.2184  -3.2120  -3.2070  -3.1978  -3.1961  -3.1865
    -3.1859  -3.1770  -3.1406  -3.1127  -3.0963  -3.0849  -3.0825  -3.0719
    -3.0547  -3.0487  -3.0426  -3.0053  -2.9789  -2.9728  -2.9595  -2.9316
    -2.9198  -2.9133  -2.9032  -2.8874  -2.8754  -2.8510  -2.8180  -2.8155
    -2.7960  -2.7866  -2.7742  -2.7717  -2.7250  -2.7201  -2.6898  -2.6681
    -2.6654  -2.6456  -2.6402  -2.6324  -2.6278  -2.6205  -2.6004  -2.5987
    -2.5523  -2.5514  -2.5506  -2.5371  -2.5347  -2.5277  -2.5221  -2.5195
    -2.5184  -2.5149  -2.5102  -2.5036  -2.4986  -2.4923  -2.4667  -2.4627
    -2.4602  -2.4580  -2.4574  -2.4547  -2.4509  -2.4305  -2.4263  -2.4135
    -2.4105  -2.3926  -2.3904  -2.3844  -2.3823  -2.3810  -2.3784  -2.3652
    -2.3593  -2.3574  -2.3542  -2.3394  -2.3161  -2.3124  -2.2745  -2.2728
    -2.2525  -2.2494  -2.2231  -2.2189  -2.1970  -2.1926  -2.1790  -2.1719
    -2.1457  -2.1303  -2.1254  -2.1168  -2.1157  -2.1109  -2.1057  -2.1040
    -2.0764  -2.0721  -2.0635  -2.0083  -2.0042  -2.0018  -2.0000  -1.9950
    -1.9686  -1.9440  -1.9418  -1.9166  -1.9128  -1.8579  -1.8551  -1.8251
    -1.8069  -1.8025  -1.7491  -1.7463  -1.7377  -1.7327  -1.7248  -1.7220
    -1.7181  -1.7140  -1.7083  -1.6609  -1.6511  -1.6420  -1.6408  -1.6398
    -1.6280  -1.6195  -1.5903  -1.5864  -1.5716  -1.5691  -1.5680  -1.5605
    -1.5559  -1.5515  -1.5449  -1.5286  -1.5254  -1.4918  -1.4811  -1.4784
    -1.4729  -1.4560  -1.4385  -1.4021  -1.3971  -1.3716  -1.3678  -1.3656
    -1.3373  -1.2918  -1.2840  -1.2826  -1.2795  -1.2775  -1.2745  -1.2673
    -1.2521  -1.2473  -1.2132  -1.2055  -1.1811  -1.1769  -1.1744  -1.1697
    -1.1649  -1.1529  -1.1475  -1.1460  -1.1422  -1.1411  -1.1061  -1.1035
    -1.1022  -1.1012  -1.0781  -1.0708  -1.0669  -1.0418  -1.0391  -1.0328
    -0.9931  -0.9838  -0.9798  -0.9466  -0.9398  -0.9304  -0.9265  -0.9219
    -0.9212  -0.9172  -0.9160  -0.9056  -0.9044  -0.8826  -0.8801  -0.8759
    -0.8753  -0.8730  -0.8408  -0.8372  -0.8366  -0.8237  -0.8090  -0.8036
    -0.8015  -0.7906  -0.7397  -0.7338  -0.7322  -0.7261  -0.7236  -0.7208
    -0.7174  -0.7002  -0.6975  -0.6943  -0.6884  -0.6874  -0.6851  -0.6569
    -0.6468  -0.6443  -0.6396  -0.6357  -0.6342  -0.6296  -0.6230  -0.6141
    -0.6103  -0.6097  -0.6050  -0.5685  -0.5666  -0.5599  -0.5551  -0.5537
    -0.4812  -0.4752  -0.4745  -0.4737  -0.4656  -0.4635  -0.4288  -0.4173
    -0.4160  -0.3841  -0.3818  -0.3755  -0.2668  -0.2588  -0.1612   0.2546
     0.2556   0.2592   0.2599   0.3243   0.3265   0.7068   0.7092   0.7491
     0.7518   0.8684   0.9426   1.0515   1.0559   1.2803   1.2807   1.9063
     1.9073   2.0665   2.0697   2.2033   2.2052   2.3041   2.3051   2.4587
     2.6965   2.7110   2.8219   3.0442   3.0497   3.1244   3.1279   3.2264
     3.2437   3.4438   3.4578   3.4985   3.6992   3.7028   3.7614   3.7683
     4.0193   4.0285   4.0307   4.2710   4.3083   4.3127   4.3578   4.6893
     4.6958   4.7211   4.8561   5.0302   5.0336   5.0951   5.1179   5.5890
     5.8075   5.8152   5.8272   5.8463   5.8865   5.8908   5.8962   5.9969
     6.0044   6.0279   6.0578   6.0593   6.0882   6.0963   6.1157   6.1186
     6.2302   6.5621   6.6091   6.6954   6.7445   6.7599   6.7718   6.7773
     6.8065   6.8853   6.9814

          k = 0.2500-0.4330-0.1111 (136853 PWs)   bands (ev):

   -18.7193  -6.5582  -6.4584  -6.0613  -6.0574  -5.3846  -5.0496  -5.0466
    -5.0163  -5.0068  -4.6485  -4.6460  -4.5492  -4.5484  -4.5343  -4.5111
    -4.4959  -4.3827  -4.3802  -4.3570  -4.3134  -4.3130  -4.2489  -4.2438
    -4.2421  -4.2369  -4.2160  -4.2132  -4.2078  -4.1498  -4.1367  -4.1090
    -4.1066  -4.0966  -4.0951  -4.0729  -4.0720  -4.0498  -4.0417  -4.0412
    -4.0167  -3.9632  -3.9626  -3.9158  -3.9128  -3.8585  -3.8569  -3.8055
    -3.8014  -3.8001  -3.7995  -3.7648  -3.7306  -3.7282  -3.7199  -3.7187
    -3.7169  -3.6961  -3.6859  -3.6783  -3.6206  -3.6183  -3.6132  -3.5916
    -3.5833  -3.5188  -3.5104  -3.4840  -3.4767  -3.4522  -3.4494  -3.4352
    -3.4224  -3.3650  -3.3614  -3.3440  -3.3425  -3.2936  -3.2897  -3.2876
    -3.2464  -3.2285  -3.2184  -3.2120  -3.2070  -3.1978  -3.1961  -3.1865
    -3.1859  -3.1770  -3.1406  -3.1127  -3.0963  -3.0849  -3.0825  -3.0719
    -3.0547  -3.0487  -3.0426  -3.0053  -2.9789  -2.9728  -2.9595  -2.9316
    -2.9198  -2.9133  -2.9032  -2.8874  -2.8754  -2.8510  -2.8180  -2.8155
    -2.7960  -2.7866  -2.7742  -2.7717  -2.7250  -2.7201  -2.6898  -2.6681
    -2.6654  -2.6456  -2.6402  -2.6324  -2.6278  -2.6205  -2.6004  -2.5987
    -2.5523  -2.5514  -2.5506  -2.5371  -2.5347  -2.5277  -2.5221  -2.5195
    -2.5184  -2.5148  -2.5102  -2.5036  -2.4986  -2.4923  -2.4667  -2.4627
    -2.4602  -2.4580  -2.4574  -2.4547  -2.4509  -2.4305  -2.4263  -2.4135
    -2.4105  -2.3926  -2.3904  -2.3844  -2.3823  -2.3810  -2.3784  -2.3652
    -2.3593  -2.3574  -2.3542  -2.3394  -2.3161  -2.3124  -2.2745  -2.2728
    -2.2525  -2.2494  -2.2231  -2.2189  -2.1970  -2.1926  -2.1790  -2.1719
    -2.1457  -2.1303  -2.1254  -2.1168  -2.1157  -2.1109  -2.1057  -2.1040
    -2.0764  -2.0721  -2.0635  -2.0083  -2.0042  -2.0018  -2.0000  -1.9950
    -1.9686  -1.9440  -1.9418  -1.9166  -1.9128  -1.8579  -1.8551  -1.8251
    -1.8069  -1.8025  -1.7491  -1.7463  -1.7377  -1.7327  -1.7248  -1.7220
    -1.7181  -1.7140  -1.7083  -1.6609  -1.6511  -1.6420  -1.6408  -1.6398
    -1.6280  -1.6195  -1.5903  -1.5864  -1.5716  -1.5691  -1.5680  -1.5605
    -1.5559  -1.5515  -1.5449  -1.5286  -1.5254  -1.4918  -1.4811  -1.4784
    -1.4729  -1.4560  -1.4385  -1.4021  -1.3971  -1.3716  -1.3678  -1.3656
    -1.3373  -1.2918  -1.2840  -1.2826  -1.2795  -1.2775  -1.2745  -1.2673
    -1.2521  -1.2473  -1.2132  -1.2055  -1.1811  -1.1769  -1.1744  -1.1697
    -1.1649  -1.1529  -1.1475  -1.1460  -1.1422  -1.1411  -1.1061  -1.1035
    -1.1022  -1.1012  -1.0781  -1.0708  -1.0669  -1.0418  -1.0391  -1.0328
    -0.9931  -0.9838  -0.9798  -0.9466  -0.9398  -0.9304  -0.9265  -0.9219
    -0.9212  -0.9172  -0.9160  -0.9056  -0.9043  -0.8826  -0.8801  -0.8759
    -0.8753  -0.8730  -0.8408  -0.8372  -0.8366  -0.8237  -0.8090  -0.8036
    -0.8015  -0.7906  -0.7397  -0.7338  -0.7322  -0.7261  -0.7236  -0.7208
    -0.7174  -0.7002  -0.6975  -0.6943  -0.6884  -0.6874  -0.6851  -0.6569
    -0.6468  -0.6443  -0.6396  -0.6357  -0.6342  -0.6296  -0.6230  -0.6141
    -0.6103  -0.6097  -0.6050  -0.5685  -0.5666  -0.5599  -0.5551  -0.5537
    -0.4812  -0.4752  -0.4745  -0.4737  -0.4656  -0.4635  -0.4288  -0.4173
    -0.4160  -0.3841  -0.3818  -0.3755  -0.2668  -0.2588  -0.1612   0.2546
     0.2556   0.2592   0.2599   0.3243   0.3265   0.7068   0.7092   0.7491
     0.7518   0.8684   0.9426   1.0515   1.0559   1.2803   1.2807   1.9063
     1.9073   2.0665   2.0697   2.2033   2.2052   2.3041   2.3051   2.4587
     2.6965   2.7110   2.8219   3.0442   3.0497   3.1244   3.1279   3.2264
     3.2437   3.4438   3.4578   3.4985   3.6992   3.7028   3.7614   3.7683
     4.0193   4.0285   4.0307   4.2710   4.3083   4.3127   4.3578   4.6893
     4.6958   4.7211   4.8561   5.0302   5.0336   5.0951   5.1179   5.5890
     5.8075   5.8152   5.8272   5.8463   5.8865   5.8908   5.8962   5.9969
     6.0044   6.0279   6.0578   6.0592   6.0882   6.0963   6.1157   6.1186
     6.2302   6.5622   6.6090   6.6954   6.7445   6.7599   6.7718   6.7772
     6.8069   6.8852   6.9813

          k = 0.5000 0.0000 0.1111 (136853 PWs)   bands (ev):

   -18.7193  -6.5578  -6.4588  -6.0621  -6.0565  -5.3848  -5.0486  -5.0475
    -5.0169  -5.0061  -4.6483  -4.6465  -4.5493  -4.5484  -4.5345  -4.5110
    -4.4962  -4.3827  -4.3797  -4.3568  -4.3135  -4.3130  -4.2481  -4.2441
    -4.2405  -4.2383  -4.2159  -4.2126  -4.2086  -4.1494  -4.1370  -4.1091
    -4.1065  -4.0962  -4.0956  -4.0728  -4.0721  -4.0499  -4.0417  -4.0413
    -4.0168  -3.9636  -3.9624  -3.9162  -3.9125  -3.8596  -3.8573  -3.8068
    -3.8008  -3.8001  -3.7999  -3.7647  -3.7307  -3.7294  -3.7189  -3.7179
    -3.7175  -3.6916  -3.6874  -3.6788  -3.6210  -3.6189  -3.6110  -3.5920
    -3.5835  -3.5161  -3.5115  -3.4810  -3.4782  -3.4534  -3.4494  -3.4352
    -3.4231  -3.3668  -3.3610  -3.3444  -3.3417  -3.2934  -3.2900  -3.2873
    -3.2469  -3.2277  -3.2159  -3.2135  -3.2057  -3.1982  -3.1965  -3.1865
    -3.1855  -3.1774  -3.1405  -3.1122  -3.0955  -3.0841  -3.0823  -3.0755
    -3.0545  -3.0474  -3.0443  -3.0065  -2.9778  -2.9729  -2.9604  -2.9316
    -2.9203  -2.9122  -2.9025  -2.8862  -2.8777  -2.8510  -2.8184  -2.8157
    -2.7961  -2.7867  -2.7744  -2.7715  -2.7237  -2.7209  -2.6898  -2.6678
    -2.6664  -2.6451  -2.6396  -2.6322  -2.6277  -2.6205  -2.6002  -2.5989
    -2.5524  -2.5516  -2.5508  -2.5364  -2.5349  -2.5277  -2.5219  -2.5207
    -2.5176  -2.5148  -2.5103  -2.5061  -2.4978  -2.4923  -2.4664  -2.4634
    -2.4604  -2.4579  -2.4566  -2.4549  -2.4509  -2.4299  -2.4263  -2.4124
    -2.4114  -2.3925  -2.3906  -2.3845  -2.3816  -2.3810  -2.3788  -2.3641
    -2.3591  -2.3587  -2.3539  -2.3394  -2.3159  -2.3130  -2.2746  -2.2727
    -2.2520  -2.2498  -2.2234  -2.2192  -2.1958  -2.1932  -2.1788  -2.1716
    -2.1458  -2.1300  -2.1255  -2.1180  -2.1149  -2.1114  -2.1061  -2.1034
    -2.0769  -2.0714  -2.0641  -2.0097  -2.0039  -2.0023  -1.9992  -1.9945
    -1.9693  -1.9442  -1.9417  -1.9162  -1.9128  -1.8582  -1.8549  -1.8249
    -1.8074  -1.8023  -1.7490  -1.7458  -1.7375  -1.7331  -1.7245  -1.7225
    -1.7182  -1.7133  -1.7088  -1.6572  -1.6523  -1.6432  -1.6408  -1.6403
    -1.6256  -1.6204  -1.5918  -1.5868  -1.5707  -1.5689  -1.5686  -1.5606
    -1.5572  -1.5508  -1.5456  -1.5270  -1.5267  -1.4897  -1.4816  -1.4769
    -1.4741  -1.4563  -1.4386  -1.4034  -1.3967  -1.3728  -1.3677  -1.3663
    -1.3374  -1.2906  -1.2839  -1.2825  -1.2802  -1.2783  -1.2747  -1.2664
    -1.2520  -1.2473  -1.2125  -1.2063  -1.1804  -1.1781  -1.1724  -1.1708
    -1.1654  -1.1514  -1.1479  -1.1462  -1.1432  -1.1413  -1.1060  -1.1038
    -1.1028  -1.1008  -1.0743  -1.0704  -1.0677  -1.0428  -1.0380  -1.0323
    -0.9910  -0.9850  -0.9813  -0.9463  -0.9413  -0.9302  -0.9276  -0.9205
    -0.9198  -0.9174  -0.9164  -0.9070  -0.9045  -0.8819  -0.8802  -0.8765
    -0.8745  -0.8734  -0.8373  -0.8368  -0.8315  -0.8279  -0.8133  -0.8040
    -0.8018  -0.7904  -0.7378  -0.7330  -0.7287  -0.7255  -0.7231  -0.7213
    -0.7176  -0.7023  -0.6973  -0.6964  -0.6889  -0.6873  -0.6860  -0.6620
    -0.6477  -0.6447  -0.6436  -0.6359  -0.6348  -0.6300  -0.6240  -0.6151
    -0.6102  -0.6074  -0.6018  -0.5683  -0.5670  -0.5600  -0.5552  -0.5524
    -0.4797  -0.4755  -0.4745  -0.4733  -0.4657  -0.4639  -0.4289  -0.4166
    -0.4165  -0.3856  -0.3839  -0.3727  -0.2618  -0.2587  -0.1585   0.2542
     0.2551   0.2598   0.2599   0.3181   0.3300   0.7038   0.7091   0.7491
     0.7531   0.8693   0.9439   1.0536   1.0566   1.2759   1.2844   1.9015
     1.9098   2.0644   2.0731   2.1981   2.2105   2.3038   2.3053   2.4585
     2.6957   2.7106   2.8214   3.0457   3.0475   3.1240   3.1285   3.2240
     3.2439   3.4502   3.4512   3.4978   3.6995   3.7029   3.7625   3.7692
     4.0192   4.0256   4.0330   4.2710   4.3084   4.3142   4.3573   4.6892
     4.6965   4.7191   4.8586   5.0310   5.0338   5.0990   5.1238   5.5812
     5.8111   5.8185   5.8283   5.8563   5.8699   5.8917   5.8937   5.9897
     6.0101   6.0273   6.0539   6.0639   6.0874   6.0900   6.1141   6.1211
     6.2315   6.5860   6.5907   6.7105   6.7426   6.7673   6.7694   6.7769
     6.8075   6.8812   6.9764

          k =-0.5000 0.0000 0.1111 (136853 PWs)   bands (ev):

   -18.7193  -6.5578  -6.4588  -6.0621  -6.0565  -5.3848  -5.0486  -5.0475
    -5.0169  -5.0061  -4.6483  -4.6465  -4.5493  -4.5484  -4.5345  -4.5110
    -4.4962  -4.3827  -4.3797  -4.3568  -4.3135  -4.3130  -4.2481  -4.2441
    -4.2405  -4.2383  -4.2159  -4.2126  -4.2086  -4.1494  -4.1370  -4.1091
    -4.1065  -4.0962  -4.0956  -4.0728  -4.0721  -4.0499  -4.0417  -4.0413
    -4.0168  -3.9636  -3.9624  -3.9162  -3.9125  -3.8596  -3.8573  -3.8068
    -3.8008  -3.8001  -3.7999  -3.7647  -3.7307  -3.7294  -3.7189  -3.7179
    -3.7175  -3.6916  -3.6874  -3.6788  -3.6210  -3.6189  -3.6110  -3.5920
    -3.5835  -3.5161  -3.5115  -3.4810  -3.4782  -3.4534  -3.4494  -3.4352
    -3.4231  -3.3668  -3.3610  -3.3444  -3.3417  -3.2934  -3.2900  -3.2873
    -3.2469  -3.2277  -3.2159  -3.2135  -3.2057  -3.1982  -3.1965  -3.1865
    -3.1855  -3.1774  -3.1405  -3.1122  -3.0955  -3.0841  -3.0823  -3.0755
    -3.0545  -3.0474  -3.0443  -3.0065  -2.9778  -2.9729  -2.9604  -2.9316
    -2.9203  -2.9122  -2.9025  -2.8862  -2.8777  -2.8510  -2.8184  -2.8157
    -2.7961  -2.7867  -2.7744  -2.7715  -2.7237  -2.7209  -2.6898  -2.6678
    -2.6664  -2.6451  -2.6396  -2.6322  -2.6277  -2.6205  -2.6002  -2.5989
    -2.5524  -2.5516  -2.5508  -2.5364  -2.5349  -2.5277  -2.5219  -2.5207
    -2.5176  -2.5148  -2.5103  -2.5061  -2.4978  -2.4923  -2.4664  -2.4634
    -2.4604  -2.4579  -2.4566  -2.4549  -2.4509  -2.4299  -2.4263  -2.4124
    -2.4114  -2.3925  -2.3906  -2.3845  -2.3816  -2.3810  -2.3788  -2.3641
    -2.3591  -2.3587  -2.3539  -2.3394  -2.3159  -2.3130  -2.2746  -2.2727
    -2.2520  -2.2498  -2.2234  -2.2192  -2.1958  -2.1932  -2.1788  -2.1716
    -2.1458  -2.1300  -2.1255  -2.1180  -2.1149  -2.1114  -2.1061  -2.1034
    -2.0769  -2.0714  -2.0641  -2.0097  -2.0039  -2.0023  -1.9992  -1.9945
    -1.9693  -1.9442  -1.9417  -1.9162  -1.9128  -1.8582  -1.8549  -1.8249
    -1.8074  -1.8023  -1.7490  -1.7458  -1.7375  -1.7331  -1.7245  -1.7225
    -1.7182  -1.7133  -1.7088  -1.6572  -1.6523  -1.6432  -1.6408  -1.6403
    -1.6256  -1.6204  -1.5918  -1.5868  -1.5707  -1.5689  -1.5686  -1.5606
    -1.5572  -1.5508  -1.5456  -1.5270  -1.5267  -1.4897  -1.4816  -1.4769
    -1.4741  -1.4563  -1.4386  -1.4034  -1.3967  -1.3728  -1.3677  -1.3663
    -1.3374  -1.2906  -1.2839  -1.2825  -1.2802  -1.2783  -1.2747  -1.2664
    -1.2520  -1.2473  -1.2125  -1.2063  -1.1804  -1.1781  -1.1724  -1.1708
    -1.1654  -1.1514  -1.1479  -1.1462  -1.1432  -1.1413  -1.1060  -1.1038
    -1.1028  -1.1008  -1.0743  -1.0704  -1.0677  -1.0428  -1.0380  -1.0323
    -0.9910  -0.9850  -0.9813  -0.9463  -0.9413  -0.9302  -0.9276  -0.9205
    -0.9198  -0.9174  -0.9164  -0.9070  -0.9045  -0.8819  -0.8802  -0.8765
    -0.8745  -0.8734  -0.8373  -0.8368  -0.8315  -0.8279  -0.8133  -0.8040
    -0.8018  -0.7904  -0.7378  -0.7330  -0.7287  -0.7255  -0.7231  -0.7213
    -0.7176  -0.7023  -0.6973  -0.6964  -0.6889  -0.6873  -0.6860  -0.6620
    -0.6477  -0.6447  -0.6436  -0.6359  -0.6348  -0.6300  -0.6240  -0.6151
    -0.6102  -0.6074  -0.6018  -0.5683  -0.5670  -0.5600  -0.5552  -0.5524
    -0.4797  -0.4755  -0.4745  -0.4733  -0.4657  -0.4639  -0.4289  -0.4166
    -0.4165  -0.3856  -0.3839  -0.3727  -0.2618  -0.2587  -0.1585   0.2542
     0.2551   0.2598   0.2599   0.3181   0.3300   0.7038   0.7091   0.7491
     0.7531   0.8693   0.9439   1.0536   1.0566   1.2759   1.2844   1.9015
     1.9098   2.0644   2.0731   2.1981   2.2105   2.3038   2.3053   2.4585
     2.6957   2.7106   2.8214   3.0457   3.0475   3.1240   3.1285   3.2240
     3.2439   3.4502   3.4512   3.4978   3.6995   3.7029   3.7625   3.7692
     4.0192   4.0256   4.0330   4.2710   4.3084   4.3142   4.3573   4.6892
     4.6965   4.7191   4.8586   5.0310   5.0338   5.0990   5.1238   5.5812
     5.8111   5.8185   5.8283   5.8564   5.8699   5.8917   5.8937   5.9897
     6.0101   6.0273   6.0539   6.0639   6.0874   6.0900   6.1142   6.1211
     6.2315   6.5862   6.5905   6.7105   6.7426   6.7673   6.7694   6.7769
     6.8075   6.8812   6.9769

          k =-0.2500 0.1443 0.1111 (136898 PWs)   bands (ev):

   -18.7193  -6.6688  -6.5577  -5.8767  -5.5886  -5.5268  -5.5255  -4.9884
    -4.9872  -4.8599  -4.8551  -4.7021  -4.6754  -4.6080  -4.5799  -4.5744
    -4.5411  -4.5405  -4.4120  -4.3704  -4.3700  -4.3122  -4.2926  -4.2896
    -4.1873  -4.1868  -4.1518  -4.1504  -4.1501  -4.1250  -4.1024  -4.1019
    -4.0032  -3.9950  -3.9949  -3.9757  -3.9590  -3.9571  -3.9466  -3.9449
    -3.9335  -3.9033  -3.9018  -3.9013  -3.9006  -3.8701  -3.8690  -3.8518
    -3.8504  -3.8415  -3.8001  -3.7974  -3.7663  -3.7524  -3.7479  -3.7420
    -3.7419  -3.6687  -3.6677  -3.6374  -3.6344  -3.6304  -3.5631  -3.5619
    -3.5522  -3.5464  -3.5186  -3.5178  -3.5169  -3.5151  -3.3682  -3.3604
    -3.3396  -3.3388  -3.3343  -3.3187  -3.3143  -3.2923  -3.2899  -3.2458
    -3.2386  -3.2265  -3.2222  -3.2056  -3.1686  -3.1567  -3.1468  -3.1335
    -3.1288  -3.1103  -3.0886  -3.0853  -3.0800  -3.0729  -3.0641  -3.0397
    -3.0255  -3.0200  -3.0057  -3.0022  -2.9998  -2.9966  -2.9692  -2.9213
    -2.9206  -2.9105  -2.8883  -2.8748  -2.8300  -2.8251  -2.7985  -2.7959
    -2.7850  -2.7831  -2.7747  -2.7502  -2.7491  -2.7384  -2.7221  -2.6996
    -2.6987  -2.6926  -2.6763  -2.6757  -2.6663  -2.6643  -2.6610  -2.6561
    -2.6506  -2.6053  -2.5749  -2.5745  -2.5561  -2.5440  -2.5393  -2.5359
    -2.5296  -2.5287  -2.5276  -2.4998  -2.4984  -2.4944  -2.4881  -2.4851
    -2.4727  -2.4453  -2.4442  -2.4425  -2.4418  -2.4382  -2.3957  -2.3659
    -2.3641  -2.3633  -2.3571  -2.3480  -2.3399  -2.3362  -2.3187  -2.3186
    -2.2888  -2.2847  -2.2841  -2.2671  -2.2668  -2.2654  -2.2348  -2.2320
    -2.1947  -2.1873  -2.1839  -2.1811  -2.1805  -2.1757  -2.1749  -2.1706
    -2.1702  -2.1649  -2.1636  -2.1478  -2.1474  -2.0239  -2.0227  -1.9896
    -1.9830  -1.9817  -1.9741  -1.9732  -1.9600  -1.9586  -1.9547  -1.9540
    -1.9480  -1.9298  -1.9254  -1.9242  -1.9124  -1.9081  -1.9017  -1.8877
    -1.8840  -1.8591  -1.8571  -1.8304  -1.8282  -1.8164  -1.8075  -1.7888
    -1.7880  -1.7858  -1.7691  -1.7556  -1.7541  -1.7479  -1.7471  -1.7228
    -1.7223  -1.7062  -1.7053  -1.6729  -1.6670  -1.6629  -1.6150  -1.6125
    -1.5985  -1.5972  -1.5911  -1.5712  -1.5680  -1.5381  -1.5358  -1.5341
    -1.5012  -1.4934  -1.4909  -1.4752  -1.4744  -1.4529  -1.4490  -1.4438
    -1.4197  -1.4156  -1.4143  -1.3546  -1.3516  -1.3415  -1.3396  -1.3257
    -1.3230  -1.3103  -1.3099  -1.2919  -1.2786  -1.2521  -1.2501  -1.2383
    -1.2091  -1.2014  -1.1991  -1.1890  -1.1884  -1.1862  -1.1829  -1.1810
    -1.1666  -1.1419  -1.1386  -1.1279  -1.1242  -1.1225  -1.1167  -1.1028
    -1.0829  -1.0754  -1.0594  -1.0571  -0.9698  -0.9568  -0.9510  -0.9492
    -0.9464  -0.9397  -0.9373  -0.9183  -0.9165  -0.9002  -0.8986  -0.8850
    -0.8842  -0.8776  -0.8586  -0.8540  -0.8519  -0.8440  -0.7747  -0.7703
    -0.7473  -0.7362  -0.7325  -0.7260  -0.7246  -0.7232  -0.7225  -0.7130
    -0.7097  -0.6937  -0.6682  -0.6651  -0.6446  -0.6355  -0.6294  -0.6236
    -0.6224  -0.6123  -0.6101  -0.6085  -0.6073  -0.6007  -0.5906  -0.5861
    -0.5846  -0.5559  -0.5535  -0.5530  -0.5408  -0.5402  -0.5215  -0.4898
    -0.4890  -0.4804  -0.4792  -0.4124  -0.4116  -0.3768  -0.3756  -0.3193
    -0.3174  -0.3159  -0.2958  -0.2923  -0.0612  -0.0523   0.2839   0.2842
     0.3763   0.3851   0.5741   0.5939   0.6019   0.7305   0.7327   1.1640
     1.1646   1.1814   1.4466   1.4738   1.4746   1.7529   1.7609   1.8281
     1.8290   1.8574   1.8611   2.0835   2.0866   2.1753   2.1759   2.2574
     2.3156   2.3215   2.4781   2.5795   3.0126   3.0178   3.0197   3.0212
     3.0717   3.0768   3.3674   3.3685   3.6503   3.6539   3.7646   4.0645
     4.1058   4.1066   4.3391   4.3429   4.4056   4.4071   4.4991   4.6177
     4.6190   4.7342   4.7351   5.0366   5.1028   5.1090   5.2838   5.2978
     5.4562   5.4928   5.4963   5.5213   5.5240   5.5821   5.5868   5.6453
     5.9938   6.0552   6.1894   6.2847   6.2941   6.3216   6.3285   6.3424
     6.3435   6.5752   6.5799   6.6383   6.7578   6.8122   6.8243   6.8729
     6.8834   7.1099   7.1268

          k =-0.2500-0.1443-0.1111 (136898 PWs)   bands (ev):

   -18.7193  -6.6688  -6.5577  -5.8767  -5.5886  -5.5267  -5.5255  -4.9883
    -4.9872  -4.8601  -4.8552  -4.7020  -4.6755  -4.6082  -4.5795  -4.5745
    -4.5409  -4.5405  -4.4120  -4.3703  -4.3701  -4.3122  -4.2925  -4.2897
    -4.1872  -4.1867  -4.1518  -4.1505  -4.1501  -4.1250  -4.1022  -4.1021
    -4.0037  -3.9952  -3.9949  -3.9757  -3.9590  -3.9572  -3.9465  -3.9450
    -3.9335  -3.9030  -3.9018  -3.9013  -3.9005  -3.8703  -3.8688  -3.8517
    -3.8503  -3.8418  -3.7999  -3.7971  -3.7668  -3.7520  -3.7480  -3.7421
    -3.7419  -3.6687  -3.6677  -3.6374  -3.6341  -3.6304  -3.5633  -3.5620
    -3.5520  -3.5463  -3.5185  -3.5176  -3.5169  -3.5155  -3.3683  -3.3605
    -3.3395  -3.3389  -3.3342  -3.3186  -3.3144  -3.2920  -3.2898  -3.2456
    -3.2387  -3.2269  -3.2223  -3.2053  -3.1687  -3.1569  -3.1467  -3.1337
    -3.1290  -3.1099  -3.0886  -3.0851  -3.0800  -3.0731  -3.0643  -3.0396
    -3.0254  -3.0197  -3.0058  -3.0020  -2.9998  -2.9968  -2.9693  -2.9214
    -2.9207  -2.9106  -2.8884  -2.8749  -2.8300  -2.8249  -2.7986  -2.7958
    -2.7848  -2.7827  -2.7747  -2.7503  -2.7487  -2.7385  -2.7220  -2.6998
    -2.6991  -2.6929  -2.6763  -2.6757  -2.6662  -2.6646  -2.6611  -2.6559
    -2.6507  -2.6052  -2.5749  -2.5746  -2.5561  -2.5442  -2.5392  -2.5359
    -2.5298  -2.5286  -2.5277  -2.4999  -2.4981  -2.4946  -2.4879  -2.4850
    -2.4726  -2.4454  -2.4445  -2.4425  -2.4416  -2.4381  -2.3958  -2.3658
    -2.3642  -2.3635  -2.3570  -2.3481  -2.3402  -2.3356  -2.3186  -2.3185
    -2.2888  -2.2846  -2.2841  -2.2673  -2.2668  -2.2655  -2.2346  -2.2321
    -2.1946  -2.1873  -2.1837  -2.1812  -2.1806  -2.1755  -2.1751  -2.1708
    -2.1703  -2.1650  -2.1636  -2.1478  -2.1475  -2.0238  -2.0228  -1.9896
    -1.9830  -1.9818  -1.9740  -1.9730  -1.9601  -1.9589  -1.9551  -1.9543
    -1.9475  -1.9298  -1.9252  -1.9240  -1.9126  -1.9076  -1.9017  -1.8878
    -1.8842  -1.8589  -1.8572  -1.8307  -1.8283  -1.8163  -1.8074  -1.7889
    -1.7879  -1.7856  -1.7691  -1.7555  -1.7541  -1.7481  -1.7472  -1.7226
    -1.7222  -1.7062  -1.7050  -1.6730  -1.6674  -1.6631  -1.6151  -1.6121
    -1.5988  -1.5972  -1.5912  -1.5714  -1.5677  -1.5379  -1.5355  -1.5342
    -1.5016  -1.4933  -1.4907  -1.4751  -1.4743  -1.4530  -1.4492  -1.4437
    -1.4194  -1.4158  -1.4145  -1.3545  -1.3520  -1.3414  -1.3398  -1.3260
    -1.3227  -1.3101  -1.3097  -1.2916  -1.2783  -1.2523  -1.2500  -1.2383
    -1.2094  -1.2013  -1.1989  -1.1890  -1.1885  -1.1864  -1.1830  -1.1814
    -1.1665  -1.1420  -1.1383  -1.1270  -1.1244  -1.1225  -1.1167  -1.1030
    -1.0829  -1.0755  -1.0595  -1.0569  -0.9699  -0.9565  -0.9510  -0.9492
    -0.9468  -0.9394  -0.9377  -0.9188  -0.9166  -0.8999  -0.8985  -0.8850
    -0.8844  -0.8780  -0.8579  -0.8545  -0.8520  -0.8440  -0.7751  -0.7701
    -0.7467  -0.7366  -0.7326  -0.7256  -0.7248  -0.7231  -0.7225  -0.7117
    -0.7099  -0.6945  -0.6681  -0.6658  -0.6430  -0.6353  -0.6296  -0.6237
    -0.6223  -0.6128  -0.6100  -0.6088  -0.6074  -0.6010  -0.5908  -0.5862
    -0.5846  -0.5559  -0.5536  -0.5527  -0.5407  -0.5401  -0.5216  -0.4898
    -0.4889  -0.4805  -0.4790  -0.4127  -0.4115  -0.3769  -0.3755  -0.3196
    -0.3172  -0.3158  -0.2954  -0.2923  -0.0623  -0.0516   0.2839   0.2842
     0.3755   0.3860   0.5743   0.5939   0.6021   0.7304   0.7330   1.1639
     1.1645   1.1820   1.4466   1.4737   1.4746   1.7516   1.7620   1.8277
     1.8288   1.8568   1.8619   2.0827   2.0867   2.1755   2.1758   2.2574
     2.3146   2.3225   2.4782   2.5793   3.0128   3.0180   3.0196   3.0212
     3.0705   3.0776   3.3669   3.3688   3.6496   3.6546   3.7639   4.0647
     4.1057   4.1061   4.3370   4.3466   4.4059   4.4070   4.4985   4.6181
     4.6189   4.7348   4.7355   5.0363   5.1055   5.1081   5.2829   5.3004
     5.4545   5.4932   5.4954   5.5208   5.5245   5.5827   5.5870   5.6429
     5.9908   6.0584   6.1877   6.2859   6.2956   6.3202   6.3294   6.3425
     6.3436   6.5777   6.5805   6.6382   6.7593   6.8120   6.8233   6.8666
     6.8884   7.1079   7.1274

          k = 0.2500 0.1443-0.1111 (136898 PWs)   bands (ev):

   -18.7193  -6.6688  -6.5577  -5.8767  -5.5886  -5.5267  -5.5255  -4.9883
    -4.9872  -4.8601  -4.8552  -4.7020  -4.6755  -4.6082  -4.5795  -4.5745
    -4.5409  -4.5405  -4.4120  -4.3703  -4.3701  -4.3122  -4.2925  -4.2897
    -4.1872  -4.1867  -4.1518  -4.1505  -4.1501  -4.1250  -4.1022  -4.1021
    -4.0037  -3.9952  -3.9949  -3.9757  -3.9590  -3.9572  -3.9465  -3.9450
    -3.9335  -3.9030  -3.9018  -3.9013  -3.9005  -3.8703  -3.8688  -3.8517
    -3.8503  -3.8418  -3.7999  -3.7971  -3.7668  -3.7520  -3.7480  -3.7421
    -3.7419  -3.6687  -3.6677  -3.6374  -3.6341  -3.6304  -3.5633  -3.5620
    -3.5520  -3.5463  -3.5185  -3.5176  -3.5169  -3.5155  -3.3683  -3.3605
    -3.3395  -3.3389  -3.3342  -3.3186  -3.3144  -3.2920  -3.2898  -3.2456
    -3.2387  -3.2269  -3.2223  -3.2053  -3.1687  -3.1569  -3.1467  -3.1337
    -3.1290  -3.1099  -3.0886  -3.0851  -3.0800  -3.0731  -3.0643  -3.0396
    -3.0254  -3.0197  -3.0058  -3.0020  -2.9998  -2.9968  -2.9693  -2.9214
    -2.9207  -2.9106  -2.8884  -2.8749  -2.8300  -2.8249  -2.7986  -2.7958
    -2.7848  -2.7827  -2.7747  -2.7503  -2.7487  -2.7385  -2.7220  -2.6998
    -2.6991  -2.6929  -2.6763  -2.6757  -2.6662  -2.6646  -2.6611  -2.6559
    -2.6507  -2.6052  -2.5749  -2.5746  -2.5561  -2.5442  -2.5392  -2.5359
    -2.5298  -2.5286  -2.5277  -2.4999  -2.4981  -2.4946  -2.4879  -2.4850
    -2.4726  -2.4454  -2.4445  -2.4425  -2.4416  -2.4381  -2.3958  -2.3658
    -2.3642  -2.3635  -2.3570  -2.3481  -2.3402  -2.3356  -2.3186  -2.3185
    -2.2888  -2.2846  -2.2841  -2.2673  -2.2668  -2.2655  -2.2346  -2.2321
    -2.1946  -2.1873  -2.1837  -2.1812  -2.1806  -2.1755  -2.1751  -2.1708
    -2.1703  -2.1650  -2.1636  -2.1478  -2.1475  -2.0238  -2.0228  -1.9896
    -1.9830  -1.9818  -1.9740  -1.9730  -1.9601  -1.9589  -1.9551  -1.9543
    -1.9475  -1.9298  -1.9252  -1.9240  -1.9126  -1.9076  -1.9017  -1.8878
    -1.8842  -1.8589  -1.8572  -1.8307  -1.8283  -1.8163  -1.8074  -1.7889
    -1.7879  -1.7856  -1.7691  -1.7555  -1.7541  -1.7480  -1.7472  -1.7226
    -1.7222  -1.7062  -1.7050  -1.6730  -1.6674  -1.6631  -1.6151  -1.6121
    -1.5988  -1.5972  -1.5912  -1.5714  -1.5677  -1.5379  -1.5355  -1.5342
    -1.5016  -1.4933  -1.4907  -1.4751  -1.4743  -1.4530  -1.4492  -1.4437
    -1.4194  -1.4158  -1.4145  -1.3545  -1.3520  -1.3414  -1.3398  -1.3260
    -1.3227  -1.3101  -1.3097  -1.2916  -1.2783  -1.2523  -1.2500  -1.2383
    -1.2094  -1.2013  -1.1989  -1.1890  -1.1885  -1.1864  -1.1830  -1.1814
    -1.1665  -1.1420  -1.1383  -1.1270  -1.1244  -1.1225  -1.1167  -1.1030
    -1.0829  -1.0755  -1.0595  -1.0569  -0.9699  -0.9565  -0.9510  -0.9492
    -0.9468  -0.9394  -0.9377  -0.9188  -0.9166  -0.8999  -0.8985  -0.8850
    -0.8844  -0.8780  -0.8579  -0.8545  -0.8520  -0.8440  -0.7751  -0.7701
    -0.7467  -0.7366  -0.7326  -0.7256  -0.7248  -0.7231  -0.7225  -0.7117
    -0.7099  -0.6945  -0.6681  -0.6657  -0.6430  -0.6353  -0.6296  -0.6237
    -0.6223  -0.6128  -0.6100  -0.6088  -0.6074  -0.6010  -0.5908  -0.5862
    -0.5846  -0.5559  -0.5536  -0.5528  -0.5407  -0.5401  -0.5216  -0.4898
    -0.4889  -0.4805  -0.4790  -0.4127  -0.4115  -0.3769  -0.3755  -0.3196
    -0.3172  -0.3158  -0.2954  -0.2923  -0.0623  -0.0516   0.2839   0.2842
     0.3755   0.3860   0.5743   0.5939   0.6021   0.7304   0.7330   1.1639
     1.1645   1.1820   1.4466   1.4737   1.4746   1.7516   1.7620   1.8277
     1.8288   1.8568   1.8619   2.0827   2.0867   2.1755   2.1758   2.2574
     2.3146   2.3225   2.4782   2.5793   3.0128   3.0180   3.0196   3.0212
     3.0705   3.0776   3.3669   3.3688   3.6496   3.6546   3.7639   4.0647
     4.1057   4.1061   4.3370   4.3466   4.4059   4.4070   4.4985   4.6181
     4.6189   4.7348   4.7354   5.0363   5.1055   5.1081   5.2829   5.3004
     5.4545   5.4932   5.4954   5.5208   5.5245   5.5827   5.5870   5.6429
     5.9910   6.0585   6.1877   6.2857   6.2954   6.3202   6.3294   6.3425
     6.3435   6.5778   6.5804   6.6376   6.7564   6.8117   6.8233   6.8667
     6.8887   7.1115   7.1317

          k = 0.0000-0.2887 0.1111 (136898 PWs)   bands (ev):

   -18.7193  -6.6689  -6.5576  -5.8765  -5.5887  -5.5270  -5.5254  -4.9885
    -4.9871  -4.8592  -4.8552  -4.7021  -4.6755  -4.6080  -4.5811  -4.5741
    -4.5410  -4.5405  -4.4119  -4.3704  -4.3701  -4.3117  -4.2932  -4.2895
    -4.1873  -4.1867  -4.1518  -4.1503  -4.1502  -4.1246  -4.1026  -4.1019
    -4.0019  -3.9952  -3.9949  -3.9751  -3.9591  -3.9571  -3.9475  -3.9448
    -3.9330  -3.9039  -3.9018  -3.9013  -3.9004  -3.8700  -3.8694  -3.8517
    -3.8503  -3.8401  -3.8012  -3.7982  -3.7653  -3.7539  -3.7474  -3.7421
    -3.7419  -3.6689  -3.6677  -3.6376  -3.6343  -3.6302  -3.5630  -3.5619
    -3.5524  -3.5460  -3.5193  -3.5175  -3.5171  -3.5153  -3.3684  -3.3602
    -3.3402  -3.3385  -3.3344  -3.3190  -3.3143  -3.2933  -3.2898  -3.2462
    -3.2386  -3.2258  -3.2220  -3.2058  -3.1686  -3.1564  -3.1469  -3.1330
    -3.1287  -3.1118  -3.0885  -3.0853  -3.0801  -3.0728  -3.0638  -3.0390
    -3.0251  -3.0212  -3.0051  -3.0027  -2.9995  -2.9963  -2.9686  -2.9213
    -2.9205  -2.9105  -2.8881  -2.8746  -2.8298  -2.8254  -2.7983  -2.7953
    -2.7847  -2.7843  -2.7751  -2.7500  -2.7496  -2.7386  -2.7218  -2.6990
    -2.6987  -2.6919  -2.6763  -2.6757  -2.6666  -2.6644  -2.6603  -2.6573
    -2.6507  -2.6052  -2.5752  -2.5746  -2.5561  -2.5440  -2.5397  -2.5361
    -2.5292  -2.5286  -2.5278  -2.4995  -2.4987  -2.4942  -2.4878  -2.4857
    -2.4725  -2.4445  -2.4441  -2.4424  -2.4417  -2.4390  -2.3958  -2.3662
    -2.3640  -2.3628  -2.3574  -2.3481  -2.3398  -2.3367  -2.3185  -2.3185
    -2.2883  -2.2849  -2.2838  -2.2670  -2.2666  -2.2655  -2.2348  -2.2319
    -2.1951  -2.1873  -2.1840  -2.1806  -2.1804  -2.1753  -2.1748  -2.1711
    -2.1703  -2.1642  -2.1640  -2.1476  -2.1474  -2.0236  -2.0233  -1.9890
    -1.9827  -1.9821  -1.9740  -1.9732  -1.9608  -1.9577  -1.9543  -1.9533
    -1.9490  -1.9296  -1.9259  -1.9244  -1.9111  -1.9087  -1.9020  -1.8883
    -1.8842  -1.8595  -1.8576  -1.8292  -1.8279  -1.8160  -1.8074  -1.7883
    -1.7879  -1.7856  -1.7691  -1.7562  -1.7543  -1.7479  -1.7470  -1.7227
    -1.7221  -1.7066  -1.7058  -1.6737  -1.6668  -1.6624  -1.6149  -1.6134
    -1.5982  -1.5971  -1.5913  -1.5714  -1.5679  -1.5388  -1.5359  -1.5332
    -1.5002  -1.4935  -1.4914  -1.4755  -1.4741  -1.4516  -1.4495  -1.4441
    -1.4206  -1.4152  -1.4142  -1.3559  -1.3512  -1.3420  -1.3390  -1.3254
    -1.3236  -1.3096  -1.3093  -1.2912  -1.2786  -1.2513  -1.2509  -1.2383
    -1.2067  -1.2019  -1.1994  -1.1891  -1.1889  -1.1867  -1.1833  -1.1810
    -1.1665  -1.1408  -1.1398  -1.1320  -1.1239  -1.1222  -1.1169  -1.1023
    -1.0835  -1.0764  -1.0587  -1.0574  -0.9690  -0.9579  -0.9500  -0.9495
    -0.9440  -0.9426  -0.9365  -0.9170  -0.9135  -0.9005  -0.8996  -0.8848
    -0.8839  -0.8770  -0.8596  -0.8524  -0.8521  -0.8446  -0.7718  -0.7712
    -0.7486  -0.7344  -0.7332  -0.7284  -0.7253  -0.7237  -0.7226  -0.7170
    -0.7076  -0.6916  -0.6681  -0.6589  -0.6542  -0.6368  -0.6288  -0.6235
    -0.6229  -0.6112  -0.6090  -0.6076  -0.6075  -0.5998  -0.5896  -0.5860
    -0.5852  -0.5556  -0.5530  -0.5526  -0.5409  -0.5407  -0.5213  -0.4894
    -0.4893  -0.4798  -0.4797  -0.4121  -0.4120  -0.3766  -0.3758  -0.3186
    -0.3182  -0.3159  -0.2986  -0.2923  -0.0555  -0.0545   0.2837   0.2842
     0.3807   0.3814   0.5712   0.5940   0.6014   0.7303   0.7322   1.1641
     1.1651   1.1801   1.4465   1.4740   1.4751   1.7560   1.7582   1.8286
     1.8305   1.8570   1.8604   2.0842   2.0873   2.1746   2.1763   2.2576
     2.3170   2.3195   2.4767   2.5799   3.0151   3.0172   3.0182   3.0216
     3.0733   3.0765   3.3676   3.3688   3.6504   3.6544   3.7660   4.0639
     4.1034   4.1090   4.3255   4.3524   4.4055   4.4070   4.4999   4.6166
     4.6181   4.7334   4.7362   5.0364   5.1048   5.1065   5.2785   5.3020
     5.4573   5.4904   5.4971   5.5221   5.5239   5.5834   5.5845   5.6500
     6.0033   6.0452   6.1880   6.2561   6.3154   6.3245   6.3306   6.3422
     6.3451   6.5639   6.5846   6.6384   6.7703   6.8095   6.8278   6.8529
     6.8935   7.1012   7.1374

          k = 0.0000 0.2887 0.1111 (136898 PWs)   bands (ev):

   -18.7193  -6.6689  -6.5576  -5.8765  -5.5887  -5.5270  -5.5254  -4.9885
    -4.9871  -4.8592  -4.8552  -4.7021  -4.6755  -4.6080  -4.5811  -4.5741
    -4.5410  -4.5405  -4.4119  -4.3704  -4.3701  -4.3117  -4.2932  -4.2895
    -4.1873  -4.1867  -4.1518  -4.1503  -4.1502  -4.1246  -4.1026  -4.1019
    -4.0019  -3.9952  -3.9949  -3.9751  -3.9591  -3.9571  -3.9475  -3.9448
    -3.9330  -3.9039  -3.9018  -3.9013  -3.9004  -3.8700  -3.8694  -3.8517
    -3.8503  -3.8401  -3.8012  -3.7982  -3.7653  -3.7539  -3.7474  -3.7421
    -3.7419  -3.6689  -3.6677  -3.6376  -3.6343  -3.6302  -3.5630  -3.5619
    -3.5524  -3.5460  -3.5193  -3.5175  -3.5171  -3.5153  -3.3684  -3.3602
    -3.3402  -3.3385  -3.3344  -3.3190  -3.3143  -3.2933  -3.2898  -3.2462
    -3.2386  -3.2258  -3.2220  -3.2058  -3.1686  -3.1564  -3.1469  -3.1330
    -3.1287  -3.1118  -3.0885  -3.0853  -3.0801  -3.0729  -3.0638  -3.0390
    -3.0251  -3.0212  -3.0051  -3.0027  -2.9995  -2.9963  -2.9686  -2.9213
    -2.9205  -2.9105  -2.8881  -2.8746  -2.8298  -2.8254  -2.7983  -2.7953
    -2.7847  -2.7843  -2.7751  -2.7500  -2.7496  -2.7386  -2.7218  -2.6990
    -2.6987  -2.6919  -2.6763  -2.6757  -2.6666  -2.6644  -2.6603  -2.6573
    -2.6507  -2.6052  -2.5752  -2.5746  -2.5561  -2.5440  -2.5397  -2.5361
    -2.5292  -2.5286  -2.5278  -2.4995  -2.4987  -2.4942  -2.4878  -2.4857
    -2.4725  -2.4445  -2.4441  -2.4424  -2.4417  -2.4390  -2.3958  -2.3662
    -2.3640  -2.3628  -2.3574  -2.3481  -2.3398  -2.3367  -2.3185  -2.3185
    -2.2883  -2.2849  -2.2838  -2.2670  -2.2666  -2.2655  -2.2348  -2.2319
    -2.1951  -2.1873  -2.1840  -2.1806  -2.1804  -2.1753  -2.1748  -2.1711
    -2.1703  -2.1642  -2.1640  -2.1476  -2.1474  -2.0236  -2.0233  -1.9890
    -1.9827  -1.9821  -1.9740  -1.9732  -1.9608  -1.9577  -1.9543  -1.9533
    -1.9490  -1.9296  -1.9259  -1.9244  -1.9111  -1.9087  -1.9020  -1.8883
    -1.8842  -1.8595  -1.8576  -1.8292  -1.8279  -1.8160  -1.8074  -1.7883
    -1.7879  -1.7856  -1.7691  -1.7562  -1.7543  -1.7479  -1.7470  -1.7227
    -1.7221  -1.7066  -1.7058  -1.6737  -1.6668  -1.6624  -1.6149  -1.6134
    -1.5982  -1.5971  -1.5913  -1.5714  -1.5679  -1.5388  -1.5359  -1.5332
    -1.5002  -1.4935  -1.4914  -1.4755  -1.4741  -1.4516  -1.4495  -1.4441
    -1.4206  -1.4152  -1.4142  -1.3559  -1.3512  -1.3420  -1.3390  -1.3254
    -1.3236  -1.3096  -1.3093  -1.2912  -1.2786  -1.2513  -1.2509  -1.2383
    -1.2067  -1.2019  -1.1994  -1.1891  -1.1889  -1.1867  -1.1833  -1.1810
    -1.1665  -1.1408  -1.1398  -1.1320  -1.1239  -1.1222  -1.1169  -1.1023
    -1.0835  -1.0764  -1.0587  -1.0574  -0.9690  -0.9579  -0.9500  -0.9495
    -0.9440  -0.9426  -0.9365  -0.9170  -0.9135  -0.9005  -0.8996  -0.8848
    -0.8839  -0.8770  -0.8596  -0.8524  -0.8521  -0.8445  -0.7718  -0.7712
    -0.7486  -0.7344  -0.7332  -0.7284  -0.7253  -0.7237  -0.7226  -0.7170
    -0.7076  -0.6916  -0.6681  -0.6589  -0.6542  -0.6368  -0.6288  -0.6235
    -0.6229  -0.6112  -0.6090  -0.6076  -0.6075  -0.5998  -0.5896  -0.5860
    -0.5852  -0.5556  -0.5530  -0.5526  -0.5409  -0.5407  -0.5213  -0.4894
    -0.4893  -0.4798  -0.4797  -0.4121  -0.4120  -0.3766  -0.3758  -0.3186
    -0.3182  -0.3158  -0.2986  -0.2923  -0.0555  -0.0545   0.2837   0.2842
     0.3807   0.3814   0.5712   0.5940   0.6014   0.7303   0.7322   1.1641
     1.1651   1.1801   1.4464   1.4740   1.4751   1.7560   1.7582   1.8286
     1.8305   1.8570   1.8604   2.0842   2.0873   2.1746   2.1763   2.2576
     2.3170   2.3195   2.4767   2.5800   3.0151   3.0171   3.0182   3.0216
     3.0733   3.0765   3.3676   3.3688   3.6504   3.6544   3.7660   4.0639
     4.1034   4.1090   4.3255   4.3524   4.4055   4.4070   4.4999   4.6166
     4.6181   4.7334   4.7362   5.0364   5.1048   5.1065   5.2785   5.3020
     5.4573   5.4903   5.4971   5.5221   5.5239   5.5834   5.5845   5.6500
     6.0035   6.0453   6.1880   6.2559   6.3152   6.3245   6.3306   6.3422
     6.3451   6.5639   6.5846   6.6380   6.7669   6.8095   6.8278   6.8532
     6.8939   7.1052   7.1428

     the Fermi energy is     1.3094 ev

!    total energy              =   -6604.42480933 Ry
     Harris-Foulkes estimate   =   -6604.42480932 Ry
     estimated scf accuracy    <          6.7E-09 Ry

     The total energy is the sum of the following terms:

     one-electron contribution =  -48730.96871440 Ry
     hartree contribution      =   24863.38750333 Ry
     xc contribution           =   -3204.99757351 Ry
     ewald contribution        =   20468.15109775 Ry
     smearing contrib. (-TS)   =       0.00287750 Ry

     convergence has been achieved in  24 iterations

     Writing output data file 4336142.save

     init_run     :    162.20s CPU    174.27s WALL (       1 calls)
     electrons    :   8951.84s CPU   9515.64s WALL (       1 calls)

     Called by init_run:
     wfcinit      :    125.42s CPU    136.35s WALL (       1 calls)
     potinit      :     11.75s CPU     12.40s WALL (       1 calls)

     Called by electrons:
     c_bands      :   7428.80s CPU   7882.00s WALL (      25 calls)
     sum_band     :   1094.92s CPU   1189.89s WALL (      25 calls)
     v_of_rho     :    126.19s CPU    137.48s WALL (      25 calls)
     newd         :    312.56s CPU    316.34s WALL (      25 calls)
     mix_rho      :      3.41s CPU      3.80s WALL (      25 calls)
     vdW_energy   :      7.54s CPU      8.42s WALL (      25 calls)
     vdW_ffts     :     69.58s CPU     75.20s WALL (      50 calls)
     vdW_v        :     15.41s CPU     16.23s WALL (      25 calls)

     Called by c_bands:
     init_us_2    :     20.10s CPU     20.50s WALL (     612 calls)
     cegterg      :   7305.88s CPU   7753.48s WALL (     300 calls)

     Called by *egterg:
     h_psi        :   3157.09s CPU   3560.35s WALL (    1623 calls)
     s_psi        :    433.85s CPU    436.72s WALL (    1623 calls)
     g_psi        :      5.94s CPU      5.99s WALL (    1311 calls)
     cdiaghg      :   2050.67s CPU   2056.22s WALL (    1599 calls)

     Called by h_psi:
     add_vuspsi   :    434.79s CPU    437.61s WALL (    1623 calls)

     General routines
     calbec       :    751.23s CPU    753.89s WALL (    1923 calls)
     fft          :    244.24s CPU    255.13s WALL (    1650 calls)
     ffts         :      1.98s CPU      2.23s WALL (      50 calls)
     fftw         :   2319.45s CPU   2746.52s WALL (  720744 calls)
     interpolate  :      5.26s CPU      6.00s WALL (      50 calls)
     davcio       :      0.02s CPU      0.25s WALL (      12 calls)

     Parallel routines
     fft_scatter  :   1767.00s CPU   2083.84s WALL (  722444 calls)

     PWSCF        :     2h32m CPU        2h41m WALL


   This run was terminated on:  11:55:31  27Jun2015            

=------------------------------------------------------------------------------=
   JOB DONE.
=------------------------------------------------------------------------------=
