Setting SGE environment for SCC

     Program PWSCF v.5.1.2 starts on 24Jun2015 at 22:44:50 

     This program is part of the open-source Quantum ESPRESSO suite
     for quantum simulation of materials; please cite
         "P. Giannozzi et al., J. Phys.:Condens. Matter 21 395502 (2009);
          URL http://www.quantum-espresso.org", 
     in publications or presentations arising from this work. More details at
     http://www.quantum-espresso.org/quote

     Parallel version (MPI), running on    32 processors
     R & G space division:  proc/nbgrp/npool/nimage =      32
     Reading input from top.O1.Au50.d.3.4.phi.0.psi.90.in
Warning: card &IONS ignored
Warning: card / ignored
Warning: card &CELL ignored
Warning: card / ignored

     Current dimensions of program PWSCF are:
     Max number of different atomic species (ntypx) = 10
     Max number of k-points (npk) =  40000
     Max angular momentum in pseudopotentials (lmaxx) =  3

     IMPORTANT: XC functional enforced from input :
     Exchange-correlation      = VDW-DF ( 1  4  4  0 1 0)
     Any further DFT definition will be discarded
     Please, verify this is what you really want


     Subspace diagonalization in iterative solution of the eigenvalue problem:
     a serial algorithm will be used


     Parallelization info
     --------------------
     sticks:   dense  smooth     PW     G-vecs:    dense   smooth      PW
     Min         445     223     58                96775    34191    4534
     Max         446     224     59                96790    34246    4540
     Sum       14269    7147   1867              3097177  1095093  145167


     Title: 
     top.O1.Au50.d.3.4.phi.0.psi.90                                             


     bravais-lattice index     =            4
     lattice parameter (alat)  =      22.7436  a.u.
     unit-cell volume          =   22924.1508 (a.u.)^3
     number of atoms/cell      =           67
     number of atomic types    =            3
     number of electrons       =       712.00
     number of Kohn-Sham states=          427
     kinetic-energy cutoff     =      50.0000  Ry
     charge density cutoff     =     400.0000  Ry
     convergence threshold     =      1.0E-08
     mixing beta               =       0.7000
     number of iterations used =            8  plain     mixing
     Exchange-correlation      = VDW-DF ( 1  4  4  0 1 0)

     celldm(1)=  22.743643  celldm(2)=   0.000000  celldm(3)=   2.250000
     celldm(4)=   0.000000  celldm(5)=   0.000000  celldm(6)=   0.000000

     crystal axes: (cart. coord. in units of alat)
               a(1) = (   1.000000   0.000000   0.000000 )  
               a(2) = (  -0.500000   0.866025   0.000000 )  
               a(3) = (   0.000000   0.000000   2.250000 )  

     reciprocal axes: (cart. coord. in units 2 pi/alat)
               b(1) = (  1.000000  0.577350 -0.000000 )  
               b(2) = (  0.000000  1.154701  0.000000 )  
               b(3) = (  0.000000 -0.000000  0.444444 )  


     PseudoPot. # 1 for Au read from file:
     /home/scc/andrejb/qe/pseudo/Au.pbe-nd-van.UPF
     MD5 check sum: 458681b50f36d87ef23c61b04bba420a
     Pseudo is Ultrasoft + core correction, Zval = 11.0
     Generated by new atomic code, or converted to UPF format
     Using radial grid of  985 points,  3 beta functions with: 
                l(1) =   1
                l(2) =   2
                l(3) =   2
     Q(r) pseudized with  8 coefficients,  rinner =    1.100   1.100   1.100
                                                       1.100   1.100

     PseudoPot. # 2 for H  read from file:
     /home/scc/andrejb/qe/pseudo/H.pbe-van_ak.UPF
     MD5 check sum: 403db7282739603aa925980fa9b8608d
     Pseudo is Ultrasoft, Zval =  1.0
     Generated by new atomic code, or converted to UPF format
     Using radial grid of  615 points,  1 beta functions with: 
                l(1) =   0
     Q(r) pseudized with  8 coefficients,  rinner =    0.800

     PseudoPot. # 3 for O  read from file:
     /home/scc/andrejb/qe/pseudo/O.pbe-van_ak.UPF
     MD5 check sum: 4b8c549914a63cae506c6ff22b5af4fe
     Pseudo is Ultrasoft, Zval =  6.0
     Generated by new atomic code, or converted to UPF format
     Using radial grid of  737 points,  4 beta functions with: 
                l(1) =   0
                l(2) =   0
                l(3) =   1
                l(4) =   1
     Q(r) pseudized with  8 coefficients,  rinner =    0.800   0.800   0.800


     vdW kernel table read from file vdW_kernel_table
     MD5 check sum: 48e77a2e26edf626eeb0eaa751ad5cac

     atomic species   valence    mass     pseudopotential
        Au            11.00   196.96657     Au( 1.00)
        H              1.00     1.01000     H ( 1.00)
        O              6.00    16.00000     O ( 1.00)

     No symmetry found



   Cartesian axes

     site n.     atom                  positions (alat units)
         1           O   tau(   1) = (   0.4790780   0.3968269   0.8954964  )
         2           H   tau(   2) = (   0.4291446   0.3485733   0.8539487  )
         3           H   tau(   3) = (   0.5274974   0.3460662   0.9358032  )
         4           Au  tau(   4) = (   0.3540481   0.6132292   0.0000000  )
         5           Au  tau(   5) = (   0.4790062   0.3967954   0.0000000  )
         6           Au  tau(   6) = (   0.6039644   0.1803616   0.0000000  )
         7           Au  tau(   7) = (   0.7289225  -0.0360723   0.0000000  )
         8           Au  tau(   8) = (   0.1041318   0.6132292   0.0000000  )
         9           Au  tau(   9) = (   0.2290899   0.3967954   0.0000000  )
        10           Au  tau(  10) = (   0.3540481   0.1803616   0.0000000  )
        11           Au  tau(  11) = (   0.4790062  -0.0360723   0.0000000  )
        12           Au  tau(  12) = (  -0.1457845   0.6132292   0.0000000  )
        13           Au  tau(  13) = (  -0.0208264   0.3967954   0.0000000  )
        14           Au  tau(  14) = (   0.1041318   0.1803616   0.0000000  )
        15           Au  tau(  15) = (   0.2290899  -0.0360723   0.0000000  )
        16           Au  tau(  16) = (  -0.3957008   0.6132292   0.0000000  )
        17           Au  tau(  17) = (  -0.2707426   0.3967954   0.0000000  )
        18           Au  tau(  18) = (  -0.1457845   0.1803616   0.0000000  )
        19           Au  tau(  19) = (  -0.0208264  -0.0360723   0.0000000  )
        20           Au  tau(  20) = (   0.4790062   0.6853738   0.2040557  )
        21           Au  tau(  21) = (   0.6039644   0.4689400   0.2040557  )
        22           Au  tau(  22) = (   0.7289225   0.2525062   0.2040557  )
        23           Au  tau(  23) = (   0.8538806   0.0360723   0.2040557  )
        24           Au  tau(  24) = (   0.2290899   0.6853738   0.2040557  )
        25           Au  tau(  25) = (   0.3540481   0.4689400   0.2040557  )
        26           Au  tau(  26) = (   0.4790062   0.2525062   0.2040557  )
        27           Au  tau(  27) = (   0.6039644   0.0360723   0.2040557  )
        28           Au  tau(  28) = (  -0.0208264   0.6853738   0.2040557  )
        29           Au  tau(  29) = (   0.1041318   0.4689400   0.2040557  )
        30           Au  tau(  30) = (   0.2290899   0.2525062   0.2040557  )
        31           Au  tau(  31) = (   0.3540481   0.0360723   0.2040557  )
        32           Au  tau(  32) = (  -0.2707426   0.6853738   0.2040557  )
        33           Au  tau(  33) = (  -0.1457845   0.4689400   0.2040557  )
        34           Au  tau(  34) = (  -0.0208264   0.2525062   0.2040557  )
        35           Au  tau(  35) = (   0.1041318   0.0360723   0.2040557  )
        36           Au  tau(  36) = (   0.3541162   0.7576593   0.4066483  )
        37           Au  tau(  37) = (   0.4791000   0.5411421   0.4066696  )
        38           Au  tau(  38) = (   0.6040570   0.3246862   0.4066618  )
        39           Au  tau(  39) = (   0.7290270   0.1081684   0.4066530  )
        40           Au  tau(  40) = (   0.1041162   0.7576236   0.4066247  )
        41           Au  tau(  41) = (   0.2291001   0.5411062   0.4066455  )
        42           Au  tau(  42) = (   0.3540567   0.3246505   0.4066380  )
        43           Au  tau(  43) = (   0.4790276   0.1081324   0.4066292  )
        44           Au  tau(  44) = (  -0.1458201   0.7576104   0.4066225  )
        45           Au  tau(  45) = (  -0.0208365   0.5410930   0.4066438  )
        46           Au  tau(  46) = (   0.1041202   0.3246372   0.4066359  )
        47           Au  tau(  47) = (   0.2290908   0.1081193   0.4066273  )
        48           Au  tau(  48) = (  -0.3958167   0.7575791   0.4065812  )
        49           Au  tau(  49) = (  -0.2708328   0.5410617   0.4066025  )
        50           Au  tau(  50) = (  -0.1458763   0.3246061   0.4065947  )
        51           Au  tau(  51) = (  -0.0209056   0.1080882   0.4065858  )
        52           Au  tau(  52) = (   0.3541084   0.6133344   0.6129762  )
        53           Au  tau(  53) = (   0.4790780   0.3968269   0.6129968  )
        54           Au  tau(  54) = (   0.6040356   0.1803811   0.6129859  )
        55           Au  tau(  55) = (   0.7290165  -0.0361221   0.6129385  )
        56           Au  tau(  56) = (   0.1041243   0.6133091   0.6130023  )
        57           Au  tau(  57) = (   0.2290941   0.3968013   0.6130241  )
        58           Au  tau(  58) = (   0.3540515   0.1803552   0.6130121  )
        59           Au  tau(  59) = (   0.4790323  -0.0361475   0.6129659  )
        60           Au  tau(  60) = (  -0.1458030   0.6133014   0.6129980  )
        61           Au  tau(  61) = (  -0.0208339   0.3967936   0.6130189  )
        62           Au  tau(  62) = (   0.1041239   0.1803477   0.6130083  )
        63           Au  tau(  63) = (   0.2291046  -0.0361554   0.6129607  )
        64           Au  tau(  64) = (  -0.3957908   0.6132739   0.6129471  )
        65           Au  tau(  65) = (  -0.2708208   0.3967658   0.6129688  )
        66           Au  tau(  66) = (  -0.1458636   0.1803200   0.6129569  )
        67           Au  tau(  67) = (  -0.0208823  -0.0361826   0.6129110  )

     number of k points=    12  Marzari-Vanderbilt smearing, width (Ry)=  0.0200
                       cart. coord. in units 2pi/alat
        k(    1) = (   0.2500000   0.4330127   0.1111111), wk =   0.1666667
        k(    2) = (   0.2500000  -0.1443376   0.1111111), wk =   0.1666667
        k(    3) = (  -0.2500000  -0.4330127   0.1111111), wk =   0.1666667
        k(    4) = (  -0.2500000   0.4330127  -0.1111111), wk =   0.1666667
        k(    5) = (   0.2500000  -0.4330127  -0.1111111), wk =   0.1666667
        k(    6) = (   0.5000000   0.0000000   0.1111111), wk =   0.1666667
        k(    7) = (  -0.5000000   0.0000000   0.1111111), wk =   0.1666667
        k(    8) = (  -0.2500000   0.1443376   0.1111111), wk =   0.1666667
        k(    9) = (  -0.2500000  -0.1443376  -0.1111111), wk =   0.1666667
        k(   10) = (   0.2500000   0.1443376  -0.1111111), wk =   0.1666667
        k(   11) = (   0.0000000  -0.2886751   0.1111111), wk =   0.1666667
        k(   12) = (   0.0000000   0.2886751   0.1111111), wk =   0.1666667

     Dense  grid:  3097177 G-vectors     FFT dimensions: ( 150, 150, 360)

     Smooth grid:  1095093 G-vectors     FFT dimensions: ( 108, 108, 240)

     Largest allocated arrays     est. size (Mb)     dimensions
        Kohn-Sham Wavefunctions        28.01 Mb     (    4299,  427)
        NL pseudopotentials            55.23 Mb     (    4299,  842)
        Each V/rho on FFT grid          4.12 Mb     (  270000)
        Each G-vector array             0.74 Mb     (   96788)
        G-vector shells                 0.16 Mb     (   21404)
     Largest temporary arrays     est. size (Mb)     dimensions
        Auxiliary wavefunctions       112.04 Mb     (    4299, 1708)
        Each subspace H/S matrix       44.51 Mb     (    1708, 1708)
        Each <psi_i|beta_j> matrix      5.49 Mb     (     842,  427)
        Arrays for rho mixing          32.96 Mb     (  270000,    8)

     Initial potential from superposition of free atoms
     Check: negative starting charge=   -1.730229

     starting charge  711.25682, renormalised to  712.00000

     negative rho (up, down):  1.732E+00 0.000E+00


     ************************************************************************
     *
     * You are using vdW-DF for exchange-correlation in this calculation.
     * Please cite the following three references that made this development
     * possible:
     *
     *   M. Dion, H. Rydberg, E. Schroder, D. C. Langreth, and
     *   B. I. Lundqvist, Phys. Rev. Lett. 92, 246401 (2004).
     *
     *   T. Thonhauser, V. R. Cooper, S. Li, A. Puzder, P. Hyldgaard, and
     *   D. C. Langreth, Phys. Rev. B 76, 125112 (2007).
     *
     *   G. Roman-Perez and J. M. Soler, Phys. Rev. Lett. 103, 096102 (2009).
     *
     *
     * If you are using vdW-DF2, please also cite:
     *
     *   K. Lee, E. D. Murray, L. Kong, B. I. Lundqvist, and
     *   D. C. Langreth, Phys. Rev. B 82, 081101(R) (2010).
     *
     *
     * If you are calculating the stress with vdW-DF, please also cite:
     *
     *   R. Sabatini, E. Kucukbenli, B. Kolb, T. Thonhauser, and
     *   S. de Gironcoli, J. Phys.: Condens. Matter 24, 424209 (2012).
     *
     ************************************************************************

     Carrying out vdW-DF run using the following parameters:

     Nqs =      20    Nr_points =    1024   r_max =   100.000
     q_mesh =
               0.00001000     0.04494208     0.09755937     0.15916263
               0.23128650     0.31572767     0.41458969     0.53033537
               0.66584808     0.82450364     1.01025438     1.22772762
               1.48234092     1.78043706     2.12944203     2.53805004
               3.01644009     3.57652955     4.23227104     5.00000000

     Gradients computed in reciprocal space

     ************************************************************************


     Starting wfc are  582 randomized atomic wfcs

     total cpu time spent up to now is      137.4 secs

     Self-consistent Calculation

     iteration #  1     ecut=    50.00 Ry     beta=0.70
     Davidson diagonalization with overlap
     ethr =  1.00E-02,  avg # of iterations =  3.0

     Threshold (ethr) on eigenvalues was too large:
     Diagonalizing with lowered threshold

     Davidson diagonalization with overlap
     ethr =  3.50E-04,  avg # of iterations =  4.2

     negative rho (up, down):  1.727E+00 0.000E+00

     total cpu time spent up to now is      746.2 secs

     total energy              =   -6602.78240444 Ry
     Harris-Foulkes estimate   =   -6605.04218899 Ry
     estimated scf accuracy    <       2.83142433 Ry

     iteration #  2     ecut=    50.00 Ry     beta=0.70
     Davidson diagonalization with overlap
     ethr =  3.98E-04,  avg # of iterations = 11.2

     negative rho (up, down):  1.726E+00 0.000E+00

     total cpu time spent up to now is     1695.3 secs

     total energy              =   -6596.69330747 Ry
     Harris-Foulkes estimate   =   -6610.17055118 Ry
     estimated scf accuracy    <      75.09982975 Ry

     iteration #  3     ecut=    50.00 Ry     beta=0.70
     Davidson diagonalization with overlap
     ethr =  3.98E-04,  avg # of iterations =  6.5

     negative rho (up, down):  1.737E+00 0.000E+00

     total cpu time spent up to now is     2321.4 secs

     total energy              =   -6603.11936190 Ry
     Harris-Foulkes estimate   =   -6605.01966445 Ry
     estimated scf accuracy    <       8.76510984 Ry

     iteration #  4     ecut=    50.00 Ry     beta=0.70
     Davidson diagonalization with overlap
     ethr =  3.98E-04,  avg # of iterations =  6.6

     negative rho (up, down):  1.738E+00 0.000E+00

     total cpu time spent up to now is     2714.4 secs

     total energy              =   -6603.47476347 Ry
     Harris-Foulkes estimate   =   -6605.20403803 Ry
     estimated scf accuracy    <      16.36837603 Ry

     iteration #  5     ecut=    50.00 Ry     beta=0.70
     Davidson diagonalization with overlap
     ethr =  3.98E-04,  avg # of iterations =  6.5

     negative rho (up, down):  1.748E+00 0.000E+00

     total cpu time spent up to now is     3106.9 secs

     total energy              =   -6604.33071453 Ry
     Harris-Foulkes estimate   =   -6604.62409200 Ry
     estimated scf accuracy    <       2.03939247 Ry

     iteration #  6     ecut=    50.00 Ry     beta=0.70
     Davidson diagonalization with overlap
     ethr =  2.86E-04,  avg # of iterations =  2.8

     negative rho (up, down):  1.752E+00 0.000E+00

     total cpu time spent up to now is     3414.7 secs

     total energy              =   -6604.42766644 Ry
     Harris-Foulkes estimate   =   -6604.46965057 Ry
     estimated scf accuracy    <       0.12565098 Ry

     iteration #  7     ecut=    50.00 Ry     beta=0.70
     Davidson diagonalization with overlap
     ethr =  1.76E-05,  avg # of iterations = 10.7

     negative rho (up, down):  1.754E+00 0.000E+00

     total cpu time spent up to now is     3929.9 secs

     total energy              =   -6604.43254758 Ry
     Harris-Foulkes estimate   =   -6604.45973792 Ry
     estimated scf accuracy    <       0.11469923 Ry

     iteration #  8     ecut=    50.00 Ry     beta=0.70
     Davidson diagonalization with overlap
     ethr =  1.61E-05,  avg # of iterations =  3.1

     negative rho (up, down):  1.755E+00 0.000E+00

     total cpu time spent up to now is     4234.1 secs

     total energy              =   -6604.43558312 Ry
     Harris-Foulkes estimate   =   -6604.44848558 Ry
     estimated scf accuracy    <       0.04728272 Ry

     iteration #  9     ecut=    50.00 Ry     beta=0.70
     Davidson diagonalization with overlap
     ethr =  6.64E-06,  avg # of iterations =  8.5

     negative rho (up, down):  1.756E+00 0.000E+00

     total cpu time spent up to now is     4629.8 secs

     total energy              =   -6604.43557942 Ry
     Harris-Foulkes estimate   =   -6604.44170221 Ry
     estimated scf accuracy    <       0.02089055 Ry

     iteration # 10     ecut=    50.00 Ry     beta=0.70
     Davidson diagonalization with overlap
     ethr =  2.93E-06,  avg # of iterations =  6.3

     negative rho (up, down):  1.757E+00 0.000E+00

     total cpu time spent up to now is     5001.8 secs

     total energy              =   -6604.43539062 Ry
     Harris-Foulkes estimate   =   -6604.43806043 Ry
     estimated scf accuracy    <       0.00946594 Ry

     iteration # 11     ecut=    50.00 Ry     beta=0.70
     Davidson diagonalization with overlap
     ethr =  1.33E-06,  avg # of iterations =  5.3

     negative rho (up, down):  1.757E+00 0.000E+00

     total cpu time spent up to now is     5336.5 secs

     total energy              =   -6604.43534119 Ry
     Harris-Foulkes estimate   =   -6604.43652734 Ry
     estimated scf accuracy    <       0.00492596 Ry

     iteration # 12     ecut=    50.00 Ry     beta=0.70
     Davidson diagonalization with overlap
     ethr =  6.92E-07,  avg # of iterations =  4.2

     negative rho (up, down):  1.758E+00 0.000E+00

     total cpu time spent up to now is     5645.9 secs

     total energy              =   -6604.43504802 Ry
     Harris-Foulkes estimate   =   -6604.43578955 Ry
     estimated scf accuracy    <       0.00127792 Ry

     iteration # 13     ecut=    50.00 Ry     beta=0.70
     Davidson diagonalization with overlap
     ethr =  1.79E-07,  avg # of iterations =  7.7

     negative rho (up, down):  1.758E+00 0.000E+00

     total cpu time spent up to now is     6061.3 secs

     total energy              =   -6604.43524180 Ry
     Harris-Foulkes estimate   =   -6604.43539960 Ry
     estimated scf accuracy    <       0.00043381 Ry

     iteration # 14     ecut=    50.00 Ry     beta=0.70
     Davidson diagonalization with overlap
     ethr =  6.09E-08,  avg # of iterations =  2.0

     negative rho (up, down):  1.757E+00 0.000E+00

     total cpu time spent up to now is     6334.3 secs

     total energy              =   -6604.43529566 Ry
     Harris-Foulkes estimate   =   -6604.43537062 Ry
     estimated scf accuracy    <       0.00030118 Ry

     iteration # 15     ecut=    50.00 Ry     beta=0.70
     Davidson diagonalization with overlap
     ethr =  4.23E-08,  avg # of iterations =  2.0

     negative rho (up, down):  1.757E+00 0.000E+00

     total cpu time spent up to now is     6600.0 secs

     total energy              =   -6604.43532467 Ry
     Harris-Foulkes estimate   =   -6604.43535072 Ry
     estimated scf accuracy    <       0.00009830 Ry

     iteration # 16     ecut=    50.00 Ry     beta=0.70
     Davidson diagonalization with overlap
     ethr =  1.38E-08,  avg # of iterations =  2.0

     negative rho (up, down):  1.757E+00 0.000E+00

     total cpu time spent up to now is     6870.7 secs

     total energy              =   -6604.43532841 Ry
     Harris-Foulkes estimate   =   -6604.43534597 Ry
     estimated scf accuracy    <       0.00013826 Ry

     iteration # 17     ecut=    50.00 Ry     beta=0.70
     Davidson diagonalization with overlap
     ethr =  1.38E-08,  avg # of iterations =  1.0

     negative rho (up, down):  1.757E+00 0.000E+00

     total cpu time spent up to now is     7130.2 secs

     total energy              =   -6604.43533729 Ry
     Harris-Foulkes estimate   =   -6604.43534158 Ry
     estimated scf accuracy    <       0.00003646 Ry

     iteration # 18     ecut=    50.00 Ry     beta=0.70
     Davidson diagonalization with overlap
     ethr =  5.12E-09,  avg # of iterations =  1.0

     negative rho (up, down):  1.757E+00 0.000E+00

     total cpu time spent up to now is     7384.7 secs

     total energy              =   -6604.43533854 Ry
     Harris-Foulkes estimate   =   -6604.43534064 Ry
     estimated scf accuracy    <       0.00000793 Ry

     iteration # 19     ecut=    50.00 Ry     beta=0.70
     Davidson diagonalization with overlap
     ethr =  1.11E-09,  avg # of iterations =  2.0

     negative rho (up, down):  1.757E+00 0.000E+00

     total cpu time spent up to now is     7676.3 secs

     total energy              =   -6604.43533966 Ry
     Harris-Foulkes estimate   =   -6604.43533999 Ry
     estimated scf accuracy    <       0.00000148 Ry

     iteration # 20     ecut=    50.00 Ry     beta=0.70
     Davidson diagonalization with overlap
     ethr =  2.08E-10,  avg # of iterations =  2.0

     negative rho (up, down):  1.757E+00 0.000E+00

     total cpu time spent up to now is     7960.5 secs

     total energy              =   -6604.43533993 Ry
     Harris-Foulkes estimate   =   -6604.43533992 Ry
     estimated scf accuracy    <       0.00000013 Ry

     iteration # 21     ecut=    50.00 Ry     beta=0.70
     Davidson diagonalization with overlap
     ethr =  1.80E-11,  avg # of iterations =  3.0

     negative rho (up, down):  1.757E+00 0.000E+00

     total cpu time spent up to now is     8326.7 secs

     total energy              =   -6604.43533996 Ry
     Harris-Foulkes estimate   =   -6604.43533999 Ry
     estimated scf accuracy    <       0.00000019 Ry

     iteration # 22     ecut=    50.00 Ry     beta=0.70
     Davidson diagonalization with overlap
     ethr =  1.80E-11,  avg # of iterations =  2.0

     negative rho (up, down):  1.757E+00 0.000E+00

     total cpu time spent up to now is     8606.3 secs

     total energy              =   -6604.43533998 Ry
     Harris-Foulkes estimate   =   -6604.43533999 Ry
     estimated scf accuracy    <       0.00000001 Ry

     iteration # 23     ecut=    50.00 Ry     beta=0.70
     Davidson diagonalization with overlap
     ethr =  2.09E-12,  avg # of iterations =  4.0

     negative rho (up, down):  1.757E+00 0.000E+00

     total cpu time spent up to now is     8985.8 secs

     total energy              =   -6604.43533999 Ry
     Harris-Foulkes estimate   =   -6604.43533999 Ry
     estimated scf accuracy    <       0.00000001 Ry

     iteration # 24     ecut=    50.00 Ry     beta=0.70
     Davidson diagonalization with overlap
     ethr =  1.56E-12,  avg # of iterations =  3.0

     negative rho (up, down):  1.757E+00 0.000E+00

     total cpu time spent up to now is     9311.5 secs

     total energy              =   -6604.43533999 Ry
     Harris-Foulkes estimate   =   -6604.43533999 Ry
     estimated scf accuracy    <       0.00000001 Ry

     iteration # 25     ecut=    50.00 Ry     beta=0.70
     Davidson diagonalization with overlap
     ethr =  1.56E-12,  avg # of iterations =  2.0

     negative rho (up, down):  1.757E+00 0.000E+00

     total cpu time spent up to now is     9576.7 secs

     End of self-consistent calculation

          k = 0.2500 0.4330 0.1111 (136853 PWs)   bands (ev):

   -18.8331  -6.6579  -6.3394  -5.9404  -5.9401  -5.2625  -4.9289  -4.9288
    -4.8900  -4.8893  -4.5287  -4.5285  -4.4300  -4.4299  -4.4159  -4.3939
    -4.3691  -4.2625  -4.2620  -4.2381  -4.1948  -4.1945  -4.1258  -4.1257
    -4.1190  -4.1186  -4.0975  -4.0918  -4.0912  -4.0202  -4.0187  -3.9894
    -3.9890  -3.9770  -3.9769  -3.9537  -3.9537  -3.9312  -3.9227  -3.9227
    -3.8961  -3.8438  -3.8437  -3.7959  -3.7955  -3.7367  -3.7364  -3.6817
    -3.6817  -3.6815  -3.6813  -3.6458  -3.6071  -3.6069  -3.6004  -3.5989
    -3.5987  -3.5685  -3.5680  -3.5597  -3.4980  -3.4978  -3.4888  -3.4718
    -3.4646  -3.3922  -3.3919  -3.3591  -3.3583  -3.3309  -3.3304  -3.3171
    -3.3004  -3.2405  -3.2403  -3.2229  -3.2226  -3.1711  -3.1666  -3.1659
    -3.1274  -3.0966  -3.0958  -3.0874  -3.0872  -3.0746  -3.0738  -3.0668
    -3.0661  -3.0562  -3.0154  -2.9774  -2.9772  -2.9634  -2.9626  -2.9368
    -2.9275  -2.9269  -2.9056  -2.8768  -2.8604  -2.8586  -2.8512  -2.8117
    -2.8055  -2.7939  -2.7938  -2.7648  -2.7642  -2.7350  -2.6976  -2.6967
    -2.6755  -2.6678  -2.6539  -2.6533  -2.6035  -2.6032  -2.5704  -2.5477
    -2.5474  -2.5236  -2.5232  -2.5121  -2.5118  -2.5012  -2.4785  -2.4783
    -2.4337  -2.4335  -2.4322  -2.4155  -2.4152  -2.4097  -2.4008  -2.3988
    -2.3979  -2.3975  -2.3917  -2.3797  -2.3789  -2.3697  -2.3431  -2.3424
    -2.3412  -2.3397  -2.3393  -2.3367  -2.3365  -2.3088  -2.3058  -2.2916
    -2.2915  -2.2735  -2.2734  -2.2635  -2.2632  -2.2621  -2.2615  -2.2424
    -2.2413  -2.2402  -2.2396  -2.2231  -2.1961  -2.1959  -2.1557  -2.1556
    -2.1305  -2.1303  -2.1031  -2.1028  -2.0753  -2.0750  -2.0576  -2.0534
    -2.0261  -2.0051  -2.0041  -1.9991  -1.9982  -1.9941  -1.9870  -1.9863
    -1.9611  -1.9543  -1.9450  -1.8872  -1.8837  -1.8828  -1.8800  -1.8800
    -1.8434  -1.8239  -1.8238  -1.7963  -1.7958  -1.7357  -1.7356  -1.7067
    -1.6891  -1.6878  -1.6268  -1.6267  -1.6150  -1.6145  -1.6037  -1.6032
    -1.5998  -1.5905  -1.5900  -1.5370  -1.5352  -1.5229  -1.5219  -1.5214
    -1.5029  -1.5020  -1.4671  -1.4664  -1.4498  -1.4491  -1.4489  -1.4421
    -1.4388  -1.4277  -1.4270  -1.4083  -1.4079  -1.3712  -1.3671  -1.3545
    -1.3539  -1.3339  -1.3200  -1.2777  -1.2770  -1.2524  -1.2463  -1.2459
    -1.2165  -1.1740  -1.1651  -1.1640  -1.1631  -1.1588  -1.1573  -1.1476
    -1.1296  -1.1286  -1.0895  -1.0878  -1.0605  -1.0571  -1.0544  -1.0519
    -1.0444  -1.0375  -1.0276  -1.0271  -1.0253  -1.0235  -1.0106  -0.9858
    -0.9837  -0.9834  -0.9629  -0.9525  -0.9493  -0.9385  -0.9192  -0.9169
    -0.8890  -0.8701  -0.8625  -0.8519  -0.8252  -0.8158  -0.8085  -0.8075
    -0.8003  -0.7999  -0.7985  -0.7920  -0.7866  -0.7748  -0.7608  -0.7591
    -0.7572  -0.7550  -0.7491  -0.7177  -0.7174  -0.7079  -0.7009  -0.6882
    -0.6837  -0.6751  -0.6691  -0.6159  -0.6128  -0.6053  -0.6050  -0.6038
    -0.6013  -0.5950  -0.5787  -0.5753  -0.5699  -0.5690  -0.5676  -0.5628
    -0.5280  -0.5257  -0.5247  -0.5171  -0.5160  -0.5112  -0.5100  -0.4967
    -0.4921  -0.4906  -0.4829  -0.4481  -0.4477  -0.4395  -0.4358  -0.4351
    -0.3586  -0.3576  -0.3555  -0.3545  -0.3462  -0.3446  -0.3093  -0.2968
    -0.2964  -0.2684  -0.2645  -0.2562  -0.1430  -0.1422  -0.0406   0.3748
     0.3749   0.3780   0.3783   0.4380   0.4438   0.8272   0.8282   0.8703
     0.8709   0.9815   1.0604   1.1703   1.1732   1.3912   1.3986   2.0238
     2.0265   2.1861   2.1888   2.3178   2.3229   2.4236   2.4237   2.5778
     2.8149   2.8203   2.9390   3.1632   3.1656   3.2466   3.2475   3.3469
     3.3629   3.5574   3.5603   3.6186   3.8199   3.8205   3.8816   3.8842
     4.1398   4.1462   4.1499   4.3903   4.4306   4.4334   4.4778   4.8131
     4.8146   4.8434   4.9773   5.1471   5.1512   5.1836   5.2089   5.3733
     5.7713   5.9084   5.9369   5.9446   5.9467   6.0128   6.0139   6.0796
     6.1124   6.1269   6.1481   6.1745   6.1775   6.1956   6.2062   6.2346
     6.2392   6.4063   6.5478   6.6985   6.7373   6.7576   6.8839   6.8862
     6.8946   6.9973   7.0050

          k = 0.2500-0.1443 0.1111 (136898 PWs)   bands (ev):

   -18.8331  -6.6585  -6.5487  -5.7575  -5.4663  -5.4073  -5.4071  -4.8689
    -4.8687  -4.7370  -4.7367  -4.5818  -4.5514  -4.4892  -4.4559  -4.4551
    -4.4222  -4.4221  -4.2936  -4.2519  -4.2516  -4.1919  -4.1708  -4.1705
    -4.0683  -4.0683  -4.0321  -4.0319  -4.0318  -4.0050  -3.9833  -3.9833
    -3.8786  -3.8763  -3.8760  -3.8556  -3.8386  -3.8385  -3.8265  -3.8260
    -3.8130  -3.7829  -3.7827  -3.7823  -3.7822  -3.7498  -3.7496  -3.7320
    -3.7319  -3.7182  -3.6747  -3.6745  -3.6439  -3.6293  -3.6280  -3.6236
    -3.6235  -3.5490  -3.5489  -3.5140  -3.5116  -3.5110  -3.4435  -3.4434
    -3.4281  -3.4278  -3.3975  -3.3970  -3.3959  -3.3957  -3.2425  -3.2420
    -3.2179  -3.2169  -3.2119  -3.1957  -3.1953  -3.1697  -3.1695  -3.1197
    -3.1195  -3.1035  -3.1031  -3.0829  -3.0353  -3.0345  -3.0149  -3.0099
    -3.0095  -2.9693  -2.9687  -2.9625  -2.9618  -2.9459  -2.9452  -2.9059
    -2.9059  -2.8926  -2.8840  -2.8813  -2.8807  -2.8774  -2.8660  -2.8007
    -2.7999  -2.7988  -2.7700  -2.7696  -2.7080  -2.7066  -2.6796  -2.6785
    -2.6654  -2.6652  -2.6596  -2.6302  -2.6298  -2.6203  -2.6030  -2.5777
    -2.5773  -2.5766  -2.5562  -2.5559  -2.5448  -2.5444  -2.5420  -2.5407
    -2.5327  -2.4868  -2.4546  -2.4544  -2.4390  -2.4250  -2.4186  -2.4183
    -2.4111  -2.4106  -2.4089  -2.3795  -2.3791  -2.3788  -2.3693  -2.3690
    -2.3521  -2.3249  -2.3238  -2.3235  -2.3230  -2.3227  -2.2770  -2.2463
    -2.2455  -2.2451  -2.2385  -2.2295  -2.2170  -2.2167  -2.1998  -2.1996
    -2.1671  -2.1649  -2.1645  -2.1460  -2.1453  -2.1441  -2.1122  -2.1111
    -2.0712  -2.0692  -2.0627  -2.0605  -2.0603  -2.0541  -2.0538  -2.0514
    -2.0510  -2.0455  -2.0433  -2.0280  -2.0267  -1.9014  -1.8992  -1.8685
    -1.8624  -1.8607  -1.8556  -1.8553  -1.8387  -1.8377  -1.8355  -1.8344
    -1.8331  -1.8099  -1.8045  -1.8014  -1.7999  -1.7902  -1.7895  -1.7670
    -1.7666  -1.7380  -1.7378  -1.7068  -1.7055  -1.6954  -1.6875  -1.6698
    -1.6692  -1.6663  -1.6482  -1.6357  -1.6353  -1.6283  -1.6279  -1.6017
    -1.6011  -1.5844  -1.5842  -1.5541  -1.5518  -1.5423  -1.4917  -1.4911
    -1.4811  -1.4781  -1.4777  -1.4522  -1.4499  -1.4171  -1.4163  -1.4156
    -1.3856  -1.3731  -1.3715  -1.3559  -1.3555  -1.3303  -1.3291  -1.3276
    -1.2978  -1.2953  -1.2952  -1.2328  -1.2319  -1.2208  -1.2187  -1.2031
    -1.2026  -1.1904  -1.1898  -1.1716  -1.1590  -1.1355  -1.1309  -1.1227
    -1.1087  -1.0838  -1.0812  -1.0708  -1.0692  -1.0687  -1.0645  -1.0619
    -1.0481  -1.0286  -1.0176  -1.0170  -1.0074  -1.0049  -1.0039  -0.9810
    -0.9750  -0.9624  -0.9453  -0.9409  -0.8834  -0.8425  -0.8346  -0.8291
    -0.8287  -0.8248  -0.8197  -0.8121  -0.7942  -0.7857  -0.7788  -0.7706
    -0.7639  -0.7571  -0.7546  -0.7343  -0.7329  -0.7245  -0.7228  -0.6518
    -0.6515  -0.6183  -0.6142  -0.6130  -0.6068  -0.6047  -0.6045  -0.6015
    -0.5918  -0.5868  -0.5681  -0.5501  -0.5331  -0.5162  -0.5151  -0.5047
    -0.5022  -0.4917  -0.4910  -0.4900  -0.4888  -0.4855  -0.4714  -0.4670
    -0.4646  -0.4363  -0.4346  -0.4326  -0.4221  -0.4218  -0.4029  -0.3709
    -0.3698  -0.3616  -0.3599  -0.2930  -0.2929  -0.2560  -0.2559  -0.1978
    -0.1969  -0.1966  -0.1811  -0.1688   0.0540   0.0648   0.4032   0.4033
     0.4922   0.5008   0.6891   0.7072   0.7207   0.8506   0.8527   1.2833
     1.2835   1.3014   1.5607   1.5934   1.5936   1.8667   1.8778   1.9490
     1.9499   1.9745   1.9811   2.2053   2.2061   2.2943   2.2949   2.3665
     2.4305   2.4408   2.5978   2.6963   3.1354   3.1369   3.1401   3.1416
     3.1937   3.1956   3.4871   3.4879   3.7653   3.7736   3.8715   4.1833
     4.2237   4.2288   4.4258   4.4615   4.5266   4.5277   4.6183   4.7356
     4.7382   4.8532   4.8551   5.1576   5.2229   5.2270   5.2517   5.4061
     5.4178   5.6126   5.6161   5.6408   5.6425   5.7005   5.7068   5.7420
     5.7984   6.0349   6.2541   6.3083   6.3388   6.4460   6.4472   6.4591
     6.4636   6.5223   6.6285   6.6974   6.7046   6.7965   6.9044   6.9123
     6.9458   7.0150   7.0549

          k =-0.2500-0.4330 0.1111 (136853 PWs)   bands (ev):

   -18.8331  -6.6579  -6.3394  -5.9404  -5.9401  -5.2625  -4.9289  -4.9288
    -4.8900  -4.8893  -4.5287  -4.5285  -4.4300  -4.4299  -4.4159  -4.3939
    -4.3691  -4.2625  -4.2620  -4.2381  -4.1948  -4.1945  -4.1258  -4.1257
    -4.1190  -4.1186  -4.0975  -4.0918  -4.0912  -4.0202  -4.0187  -3.9894
    -3.9890  -3.9770  -3.9769  -3.9537  -3.9537  -3.9312  -3.9227  -3.9227
    -3.8961  -3.8438  -3.8437  -3.7959  -3.7955  -3.7367  -3.7364  -3.6817
    -3.6817  -3.6815  -3.6813  -3.6458  -3.6071  -3.6069  -3.6004  -3.5989
    -3.5987  -3.5685  -3.5680  -3.5597  -3.4980  -3.4978  -3.4888  -3.4718
    -3.4646  -3.3922  -3.3919  -3.3591  -3.3583  -3.3309  -3.3304  -3.3171
    -3.3004  -3.2405  -3.2403  -3.2229  -3.2226  -3.1711  -3.1666  -3.1659
    -3.1274  -3.0966  -3.0958  -3.0874  -3.0872  -3.0746  -3.0738  -3.0668
    -3.0661  -3.0562  -3.0154  -2.9774  -2.9772  -2.9634  -2.9626  -2.9368
    -2.9275  -2.9269  -2.9056  -2.8768  -2.8604  -2.8586  -2.8512  -2.8117
    -2.8055  -2.7939  -2.7938  -2.7648  -2.7642  -2.7350  -2.6976  -2.6967
    -2.6755  -2.6678  -2.6539  -2.6533  -2.6035  -2.6032  -2.5704  -2.5477
    -2.5474  -2.5236  -2.5232  -2.5121  -2.5118  -2.5012  -2.4785  -2.4783
    -2.4337  -2.4335  -2.4322  -2.4155  -2.4152  -2.4097  -2.4008  -2.3988
    -2.3979  -2.3975  -2.3917  -2.3797  -2.3789  -2.3697  -2.3431  -2.3424
    -2.3412  -2.3397  -2.3393  -2.3367  -2.3365  -2.3088  -2.3058  -2.2916
    -2.2915  -2.2735  -2.2734  -2.2635  -2.2633  -2.2621  -2.2615  -2.2424
    -2.2413  -2.2402  -2.2396  -2.2231  -2.1961  -2.1959  -2.1557  -2.1556
    -2.1305  -2.1303  -2.1031  -2.1028  -2.0753  -2.0750  -2.0576  -2.0534
    -2.0261  -2.0051  -2.0041  -1.9991  -1.9982  -1.9941  -1.9870  -1.9863
    -1.9611  -1.9543  -1.9450  -1.8872  -1.8837  -1.8828  -1.8800  -1.8800
    -1.8434  -1.8239  -1.8238  -1.7963  -1.7958  -1.7357  -1.7356  -1.7067
    -1.6891  -1.6878  -1.6268  -1.6267  -1.6150  -1.6145  -1.6037  -1.6032
    -1.5998  -1.5905  -1.5900  -1.5370  -1.5352  -1.5229  -1.5219  -1.5214
    -1.5029  -1.5020  -1.4671  -1.4664  -1.4498  -1.4491  -1.4489  -1.4421
    -1.4388  -1.4277  -1.4270  -1.4083  -1.4079  -1.3712  -1.3671  -1.3545
    -1.3539  -1.3339  -1.3200  -1.2777  -1.2770  -1.2524  -1.2463  -1.2459
    -1.2165  -1.1740  -1.1651  -1.1640  -1.1631  -1.1588  -1.1573  -1.1476
    -1.1296  -1.1286  -1.0895  -1.0878  -1.0605  -1.0571  -1.0544  -1.0519
    -1.0444  -1.0375  -1.0276  -1.0271  -1.0253  -1.0235  -1.0106  -0.9858
    -0.9837  -0.9834  -0.9629  -0.9525  -0.9493  -0.9385  -0.9192  -0.9169
    -0.8890  -0.8701  -0.8625  -0.8519  -0.8252  -0.8158  -0.8085  -0.8075
    -0.8003  -0.7999  -0.7985  -0.7920  -0.7866  -0.7748  -0.7608  -0.7591
    -0.7572  -0.7550  -0.7491  -0.7177  -0.7174  -0.7079  -0.7009  -0.6882
    -0.6837  -0.6751  -0.6691  -0.6159  -0.6128  -0.6053  -0.6050  -0.6038
    -0.6013  -0.5950  -0.5787  -0.5753  -0.5699  -0.5690  -0.5676  -0.5628
    -0.5280  -0.5257  -0.5247  -0.5171  -0.5160  -0.5112  -0.5100  -0.4967
    -0.4921  -0.4906  -0.4829  -0.4481  -0.4477  -0.4395  -0.4358  -0.4351
    -0.3586  -0.3576  -0.3555  -0.3545  -0.3462  -0.3446  -0.3093  -0.2968
    -0.2964  -0.2684  -0.2645  -0.2562  -0.1430  -0.1422  -0.0406   0.3748
     0.3749   0.3780   0.3783   0.4380   0.4438   0.8272   0.8282   0.8703
     0.8709   0.9815   1.0604   1.1703   1.1732   1.3912   1.3986   2.0238
     2.0265   2.1861   2.1888   2.3178   2.3229   2.4236   2.4237   2.5778
     2.8149   2.8203   2.9390   3.1632   3.1656   3.2466   3.2475   3.3469
     3.3629   3.5574   3.5603   3.6186   3.8199   3.8205   3.8816   3.8842
     4.1398   4.1462   4.1499   4.3903   4.4306   4.4334   4.4778   4.8131
     4.8146   4.8434   4.9773   5.1471   5.1512   5.1836   5.2089   5.3734
     5.7703   5.9084   5.9369   5.9446   5.9467   6.0128   6.0138   6.0797
     6.1143   6.1289   6.1481   6.1745   6.1776   6.1957   6.2049   6.2346
     6.2391   6.4073   6.5487   6.6809   6.7400   6.7577   6.8836   6.8861
     6.8945   7.0157   7.0625

          k =-0.2500 0.4330-0.1111 (136853 PWs)   bands (ev):

   -18.8331  -6.6579  -6.3394  -5.9418  -5.9387  -5.2625  -4.9294  -4.9284
    -4.8917  -4.8876  -4.5291  -4.5279  -4.4302  -4.4296  -4.4157  -4.3939
    -4.3691  -4.2629  -4.2619  -4.2382  -4.1950  -4.1944  -4.1260  -4.1255
    -4.1189  -4.1187  -4.0975  -4.0930  -4.0900  -4.0219  -4.0170  -3.9899
    -3.9883  -3.9771  -3.9768  -3.9538  -3.9536  -3.9312  -3.9228  -3.9226
    -3.8962  -3.8441  -3.8436  -3.7966  -3.7948  -3.7368  -3.7364  -3.6819
    -3.6818  -3.6815  -3.6809  -3.6460  -3.6074  -3.6069  -3.6003  -3.5991
    -3.5987  -3.5688  -3.5676  -3.5596  -3.4981  -3.4978  -3.4886  -3.4716
    -3.4644  -3.3928  -3.3916  -3.3595  -3.3576  -3.3311  -3.3300  -3.3170
    -3.3005  -3.2411  -3.2402  -3.2230  -3.2222  -3.1713  -3.1666  -3.1657
    -3.1273  -3.0971  -3.0955  -3.0880  -3.0865  -3.0747  -3.0738  -3.0667
    -3.0657  -3.0563  -3.0153  -2.9783  -2.9764  -2.9632  -2.9625  -2.9367
    -2.9277  -2.9271  -2.9056  -2.8784  -2.8606  -2.8585  -2.8500  -2.8117
    -2.8055  -2.7942  -2.7933  -2.7651  -2.7636  -2.7351  -2.6976  -2.6964
    -2.6756  -2.6679  -2.6542  -2.6534  -2.6035  -2.6032  -2.5702  -2.5479
    -2.5475  -2.5241  -2.5230  -2.5123  -2.5113  -2.5013  -2.4789  -2.4780
    -2.4337  -2.4330  -2.4323  -2.4159  -2.4148  -2.4098  -2.4007  -2.3986
    -2.3980  -2.3977  -2.3916  -2.3796  -2.3785  -2.3704  -2.3430  -2.3423
    -2.3408  -2.3403  -2.3392  -2.3371  -2.3356  -2.3090  -2.3058  -2.2919
    -2.2911  -2.2737  -2.2732  -2.2636  -2.2631  -2.2626  -2.2610  -2.2428
    -2.2414  -2.2410  -2.2384  -2.2231  -2.1966  -2.1958  -2.1565  -2.1550
    -2.1309  -2.1300  -2.1031  -2.1024  -2.0757  -2.0746  -2.0576  -2.0533
    -2.0259  -2.0056  -2.0036  -1.9988  -1.9982  -1.9941  -1.9875  -1.9858
    -1.9609  -1.9541  -1.9449  -1.8873  -1.8845  -1.8827  -1.8804  -1.8799
    -1.8435  -1.8250  -1.8227  -1.7964  -1.7960  -1.7364  -1.7347  -1.7070
    -1.6888  -1.6878  -1.6270  -1.6262  -1.6155  -1.6140  -1.6037  -1.6031
    -1.6000  -1.5913  -1.5893  -1.5369  -1.5352  -1.5230  -1.5224  -1.5218
    -1.5036  -1.5013  -1.4674  -1.4663  -1.4497  -1.4494  -1.4483  -1.4418
    -1.4388  -1.4283  -1.4267  -1.4084  -1.4075  -1.3708  -1.3675  -1.3552
    -1.3534  -1.3339  -1.3201  -1.2779  -1.2765  -1.2526  -1.2464  -1.2457
    -1.2166  -1.1734  -1.1651  -1.1640  -1.1630  -1.1591  -1.1572  -1.1472
    -1.1297  -1.1281  -1.0903  -1.0872  -1.0612  -1.0577  -1.0540  -1.0522
    -1.0445  -1.0372  -1.0282  -1.0267  -1.0241  -1.0229  -1.0117  -0.9866
    -0.9837  -0.9833  -0.9624  -0.9529  -0.9502  -0.9385  -0.9193  -0.9169
    -0.8897  -0.8698  -0.8627  -0.8497  -0.8255  -0.8151  -0.8080  -0.8071
    -0.8005  -0.7997  -0.7984  -0.7913  -0.7865  -0.7758  -0.7608  -0.7592
    -0.7568  -0.7550  -0.7499  -0.7177  -0.7173  -0.7083  -0.6998  -0.6881
    -0.6838  -0.6763  -0.6695  -0.6159  -0.6129  -0.6053  -0.6049  -0.6037
    -0.6007  -0.5955  -0.5788  -0.5758  -0.5700  -0.5689  -0.5679  -0.5619
    -0.5277  -0.5261  -0.5246  -0.5175  -0.5156  -0.5109  -0.5098  -0.4964
    -0.4918  -0.4908  -0.4841  -0.4485  -0.4471  -0.4397  -0.4362  -0.4344
    -0.3592  -0.3573  -0.3554  -0.3544  -0.3463  -0.3447  -0.3093  -0.2969
    -0.2964  -0.2701  -0.2645  -0.2544  -0.1446  -0.1404  -0.0405   0.3748
     0.3751   0.3777   0.3783   0.4367   0.4453   0.8265   0.8288   0.8696
     0.8715   0.9819   1.0601   1.1674   1.1759   1.3871   1.4023   2.0234
     2.0271   2.1843   2.1909   2.3158   2.3250   2.4233   2.4241   2.5777
     2.8140   2.8219   2.9384   3.1592   3.1688   3.2465   3.2482   3.3464
     3.3630   3.5451   3.5715   3.6197   3.8193   3.8211   3.8823   3.8849
     4.1392   4.1441   4.1515   4.3910   4.4305   4.4330   4.4777   4.8113
     4.8167   4.8416   4.9782   5.1482   5.1516   5.1699   5.2198   5.3783
     5.7739   5.9040   5.9379   5.9416   5.9496   6.0114   6.0152   6.0828
     6.1103   6.1314   6.1475   6.1742   6.1791   6.1880   6.2109   6.2353
     6.2390   6.4092   6.5364   6.6889   6.7304   6.7648   6.8807   6.8877
     6.8943   7.0018   7.0295

          k = 0.2500-0.4330-0.1111 (136853 PWs)   bands (ev):

   -18.8331  -6.6579  -6.3394  -5.9418  -5.9387  -5.2625  -4.9294  -4.9284
    -4.8917  -4.8876  -4.5291  -4.5279  -4.4302  -4.4296  -4.4157  -4.3939
    -4.3691  -4.2629  -4.2619  -4.2382  -4.1950  -4.1944  -4.1260  -4.1255
    -4.1189  -4.1187  -4.0975  -4.0930  -4.0900  -4.0219  -4.0170  -3.9899
    -3.9883  -3.9771  -3.9768  -3.9538  -3.9536  -3.9312  -3.9228  -3.9226
    -3.8962  -3.8441  -3.8436  -3.7966  -3.7948  -3.7368  -3.7364  -3.6819
    -3.6818  -3.6815  -3.6809  -3.6460  -3.6074  -3.6069  -3.6003  -3.5991
    -3.5987  -3.5688  -3.5676  -3.5596  -3.4981  -3.4978  -3.4886  -3.4716
    -3.4644  -3.3928  -3.3916  -3.3595  -3.3576  -3.3311  -3.3300  -3.3170
    -3.3005  -3.2411  -3.2402  -3.2230  -3.2222  -3.1713  -3.1666  -3.1657
    -3.1273  -3.0971  -3.0955  -3.0880  -3.0865  -3.0747  -3.0738  -3.0667
    -3.0657  -3.0563  -3.0153  -2.9783  -2.9764  -2.9632  -2.9625  -2.9367
    -2.9277  -2.9271  -2.9056  -2.8784  -2.8606  -2.8585  -2.8500  -2.8117
    -2.8055  -2.7942  -2.7933  -2.7651  -2.7636  -2.7351  -2.6976  -2.6964
    -2.6756  -2.6679  -2.6542  -2.6534  -2.6035  -2.6032  -2.5702  -2.5479
    -2.5475  -2.5241  -2.5230  -2.5123  -2.5113  -2.5013  -2.4789  -2.4780
    -2.4337  -2.4330  -2.4323  -2.4159  -2.4148  -2.4098  -2.4007  -2.3986
    -2.3980  -2.3977  -2.3916  -2.3796  -2.3785  -2.3704  -2.3430  -2.3423
    -2.3408  -2.3403  -2.3392  -2.3371  -2.3356  -2.3090  -2.3058  -2.2919
    -2.2911  -2.2737  -2.2732  -2.2636  -2.2631  -2.2626  -2.2610  -2.2428
    -2.2414  -2.2410  -2.2384  -2.2231  -2.1966  -2.1958  -2.1565  -2.1550
    -2.1309  -2.1300  -2.1031  -2.1024  -2.0757  -2.0746  -2.0576  -2.0533
    -2.0259  -2.0056  -2.0036  -1.9988  -1.9982  -1.9941  -1.9875  -1.9858
    -1.9609  -1.9541  -1.9449  -1.8873  -1.8845  -1.8827  -1.8804  -1.8799
    -1.8435  -1.8250  -1.8227  -1.7963  -1.7960  -1.7364  -1.7347  -1.7070
    -1.6888  -1.6878  -1.6270  -1.6262  -1.6155  -1.6140  -1.6037  -1.6031
    -1.6000  -1.5913  -1.5893  -1.5369  -1.5352  -1.5230  -1.5224  -1.5218
    -1.5036  -1.5013  -1.4674  -1.4663  -1.4497  -1.4494  -1.4483  -1.4418
    -1.4388  -1.4283  -1.4267  -1.4085  -1.4075  -1.3708  -1.3675  -1.3552
    -1.3534  -1.3339  -1.3201  -1.2779  -1.2765  -1.2526  -1.2464  -1.2457
    -1.2166  -1.1734  -1.1651  -1.1640  -1.1630  -1.1591  -1.1572  -1.1472
    -1.1297  -1.1281  -1.0903  -1.0872  -1.0612  -1.0577  -1.0540  -1.0522
    -1.0445  -1.0372  -1.0282  -1.0267  -1.0241  -1.0229  -1.0117  -0.9866
    -0.9837  -0.9833  -0.9624  -0.9529  -0.9502  -0.9385  -0.9193  -0.9169
    -0.8897  -0.8698  -0.8627  -0.8497  -0.8255  -0.8151  -0.8080  -0.8071
    -0.8005  -0.7997  -0.7984  -0.7913  -0.7865  -0.7758  -0.7608  -0.7592
    -0.7568  -0.7550  -0.7499  -0.7177  -0.7173  -0.7083  -0.6998  -0.6881
    -0.6838  -0.6763  -0.6695  -0.6159  -0.6129  -0.6053  -0.6049  -0.6037
    -0.6007  -0.5955  -0.5788  -0.5758  -0.5700  -0.5689  -0.5679  -0.5619
    -0.5277  -0.5261  -0.5246  -0.5175  -0.5156  -0.5109  -0.5098  -0.4964
    -0.4918  -0.4908  -0.4841  -0.4485  -0.4471  -0.4397  -0.4362  -0.4344
    -0.3592  -0.3573  -0.3554  -0.3544  -0.3463  -0.3447  -0.3093  -0.2969
    -0.2964  -0.2701  -0.2645  -0.2544  -0.1446  -0.1404  -0.0405   0.3748
     0.3751   0.3777   0.3783   0.4367   0.4453   0.8265   0.8288   0.8696
     0.8715   0.9819   1.0601   1.1674   1.1759   1.3871   1.4023   2.0234
     2.0271   2.1843   2.1909   2.3158   2.3250   2.4233   2.4241   2.5777
     2.8140   2.8219   2.9384   3.1592   3.1688   3.2465   3.2482   3.3464
     3.3630   3.5451   3.5715   3.6197   3.8193   3.8211   3.8823   3.8849
     4.1392   4.1441   4.1515   4.3910   4.4305   4.4330   4.4777   4.8113
     4.8167   4.8416   4.9782   5.1482   5.1516   5.1699   5.2198   5.3783
     5.7738   5.9043   5.9379   5.9416   5.9497   6.0114   6.0153   6.0829
     6.1101   6.1298   6.1475   6.1741   6.1786   6.1881   6.2115   6.2353
     6.2391   6.4108   6.5348   6.6857   6.7428   6.7654   6.8812   6.8878
     6.8946   7.0025   7.0121

          k = 0.5000 0.0000 0.1111 (136853 PWs)   bands (ev):

   -18.8331  -6.6579  -6.3394  -5.9418  -5.9386  -5.2625  -4.9299  -4.9279
    -4.8919  -4.8874  -4.5294  -4.5276  -4.4301  -4.4298  -4.4156  -4.3938
    -4.3691  -4.2628  -4.2620  -4.2382  -4.1949  -4.1945  -4.1261  -4.1253
    -4.1195  -4.1183  -4.0974  -4.0934  -4.0897  -4.0224  -4.0165  -3.9902
    -3.9880  -3.9772  -3.9767  -3.9537  -3.9537  -3.9312  -3.9229  -3.9226
    -3.8963  -3.8440  -3.8436  -3.7969  -3.7945  -3.7367  -3.7364  -3.6820
    -3.6817  -3.6814  -3.6809  -3.6460  -3.6073  -3.6070  -3.6003  -3.5992
    -3.5985  -3.5690  -3.5673  -3.5597  -3.4981  -3.4978  -3.4886  -3.4716
    -3.4644  -3.3927  -3.3918  -3.3593  -3.3579  -3.3310  -3.3300  -3.3170
    -3.3005  -3.2411  -3.2400  -3.2230  -3.2222  -3.1715  -3.1664  -3.1658
    -3.1272  -3.0979  -3.0950  -3.0878  -3.0868  -3.0746  -3.0738  -3.0666
    -3.0656  -3.0563  -3.0152  -2.9783  -2.9766  -2.9630  -2.9625  -2.9366
    -2.9276  -2.9272  -2.9057  -2.8807  -2.8613  -2.8584  -2.8474  -2.8119
    -2.8055  -2.7944  -2.7931  -2.7649  -2.7625  -2.7351  -2.6975  -2.6969
    -2.6755  -2.6679  -2.6545  -2.6536  -2.6039  -2.6026  -2.5702  -2.5479
    -2.5477  -2.5240  -2.5228  -2.5120  -2.5116  -2.5013  -2.4789  -2.4779
    -2.4341  -2.4327  -2.4322  -2.4158  -2.4148  -2.4098  -2.4007  -2.3989
    -2.3981  -2.3972  -2.3917  -2.3796  -2.3784  -2.3710  -2.3430  -2.3422
    -2.3408  -2.3405  -2.3393  -2.3375  -2.3353  -2.3088  -2.3058  -2.2916
    -2.2912  -2.2737  -2.2732  -2.2634  -2.2633  -2.2629  -2.2604  -2.2429
    -2.2417  -2.2410  -2.2380  -2.2232  -2.1964  -2.1960  -2.1565  -2.1549
    -2.1310  -2.1300  -2.1030  -2.1028  -2.0755  -2.0743  -2.0575  -2.0532
    -2.0260  -2.0055  -2.0038  -1.9987  -1.9980  -1.9940  -1.9874  -1.9856
    -1.9611  -1.9541  -1.9449  -1.8873  -1.8850  -1.8826  -1.8810  -1.8792
    -1.8438  -1.8249  -1.8227  -1.7966  -1.7957  -1.7365  -1.7346  -1.7071
    -1.6886  -1.6878  -1.6271  -1.6261  -1.6157  -1.6138  -1.6040  -1.6028
    -1.6000  -1.5912  -1.5895  -1.5380  -1.5337  -1.5238  -1.5221  -1.5216
    -1.5039  -1.5007  -1.4673  -1.4665  -1.4497  -1.4491  -1.4484  -1.4418
    -1.4390  -1.4286  -1.4266  -1.4083  -1.4077  -1.3722  -1.3665  -1.3552
    -1.3527  -1.3338  -1.3201  -1.2782  -1.2763  -1.2527  -1.2465  -1.2459
    -1.2165  -1.1725  -1.1655  -1.1643  -1.1630  -1.1591  -1.1568  -1.1474
    -1.1300  -1.1279  -1.0894  -1.0881  -1.0625  -1.0572  -1.0546  -1.0514
    -1.0441  -1.0382  -1.0283  -1.0269  -1.0242  -1.0233  -1.0106  -0.9857
    -0.9839  -0.9830  -0.9639  -0.9524  -0.9485  -0.9382  -0.9204  -0.9155
    -0.8919  -0.8694  -0.8626  -0.8496  -0.8255  -0.8148  -0.8086  -0.8073
    -0.8003  -0.7999  -0.7982  -0.7916  -0.7869  -0.7748  -0.7612  -0.7582
    -0.7571  -0.7556  -0.7493  -0.7180  -0.7171  -0.7074  -0.7013  -0.6886
    -0.6837  -0.6756  -0.6692  -0.6158  -0.6131  -0.6053  -0.6047  -0.6036
    -0.6010  -0.5958  -0.5787  -0.5756  -0.5698  -0.5694  -0.5673  -0.5624
    -0.5280  -0.5255  -0.5250  -0.5171  -0.5158  -0.5111  -0.5099  -0.4969
    -0.4923  -0.4904  -0.4833  -0.4482  -0.4475  -0.4397  -0.4355  -0.4352
    -0.3586  -0.3578  -0.3554  -0.3544  -0.3460  -0.3448  -0.3093  -0.2969
    -0.2964  -0.2684  -0.2645  -0.2563  -0.1438  -0.1411  -0.0405   0.3747
     0.3752   0.3776   0.3785   0.4380   0.4438   0.8266   0.8289   0.8700
     0.8710   0.9817   1.0604   1.1680   1.1754   1.3878   1.4017   2.0237
     2.0267   2.1853   2.1897   2.3169   2.3239   2.4229   2.4244   2.5777
     2.8145   2.8214   2.9387   3.1596   3.1687   3.2461   3.2484   3.3466
     3.3629   3.5436   3.5734   3.6189   3.8195   3.8210   3.8819   3.8851
     4.1388   4.1452   4.1510   4.3908   4.4301   4.4337   4.4775   4.8122
     4.8154   4.8422   4.9781   5.1458   5.1512   5.1619   5.2241   5.3964
     5.7439   5.9337   5.9373   5.9438   5.9479   6.0123   6.0136   6.0786
     6.0970   6.1234   6.1485   6.1738   6.1783   6.1884   6.2107   6.2353
     6.2415   6.3955   6.5716   6.6858   6.7304   6.7862   6.8810   6.8881
     6.8938   6.9898   7.0075

          k =-0.5000 0.0000 0.1111 (136853 PWs)   bands (ev):

   -18.8331  -6.6579  -6.3394  -5.9418  -5.9386  -5.2625  -4.9299  -4.9279
    -4.8919  -4.8874  -4.5294  -4.5276  -4.4301  -4.4298  -4.4156  -4.3938
    -4.3691  -4.2628  -4.2620  -4.2382  -4.1949  -4.1945  -4.1261  -4.1253
    -4.1195  -4.1183  -4.0974  -4.0934  -4.0897  -4.0224  -4.0165  -3.9902
    -3.9880  -3.9772  -3.9767  -3.9537  -3.9537  -3.9312  -3.9229  -3.9226
    -3.8963  -3.8440  -3.8436  -3.7969  -3.7945  -3.7367  -3.7364  -3.6820
    -3.6817  -3.6814  -3.6809  -3.6460  -3.6073  -3.6070  -3.6003  -3.5992
    -3.5985  -3.5690  -3.5673  -3.5597  -3.4981  -3.4978  -3.4886  -3.4716
    -3.4644  -3.3927  -3.3918  -3.3593  -3.3579  -3.3310  -3.3300  -3.3170
    -3.3005  -3.2411  -3.2400  -3.2230  -3.2222  -3.1715  -3.1664  -3.1658
    -3.1272  -3.0979  -3.0950  -3.0878  -3.0868  -3.0746  -3.0738  -3.0666
    -3.0656  -3.0563  -3.0152  -2.9783  -2.9766  -2.9630  -2.9625  -2.9366
    -2.9276  -2.9272  -2.9057  -2.8807  -2.8613  -2.8584  -2.8474  -2.8119
    -2.8055  -2.7944  -2.7931  -2.7649  -2.7625  -2.7351  -2.6975  -2.6969
    -2.6755  -2.6679  -2.6545  -2.6536  -2.6039  -2.6026  -2.5702  -2.5479
    -2.5477  -2.5240  -2.5228  -2.5120  -2.5116  -2.5013  -2.4789  -2.4779
    -2.4341  -2.4327  -2.4322  -2.4158  -2.4148  -2.4098  -2.4007  -2.3989
    -2.3981  -2.3972  -2.3917  -2.3796  -2.3784  -2.3710  -2.3430  -2.3422
    -2.3408  -2.3405  -2.3393  -2.3375  -2.3353  -2.3088  -2.3058  -2.2916
    -2.2912  -2.2737  -2.2732  -2.2634  -2.2633  -2.2629  -2.2604  -2.2429
    -2.2417  -2.2410  -2.2380  -2.2232  -2.1964  -2.1960  -2.1565  -2.1549
    -2.1310  -2.1300  -2.1030  -2.1028  -2.0755  -2.0743  -2.0575  -2.0532
    -2.0260  -2.0055  -2.0038  -1.9986  -1.9980  -1.9940  -1.9874  -1.9856
    -1.9611  -1.9541  -1.9449  -1.8873  -1.8850  -1.8826  -1.8810  -1.8792
    -1.8438  -1.8249  -1.8227  -1.7966  -1.7957  -1.7365  -1.7346  -1.7071
    -1.6886  -1.6878  -1.6271  -1.6261  -1.6157  -1.6138  -1.6040  -1.6028
    -1.6000  -1.5912  -1.5895  -1.5380  -1.5337  -1.5238  -1.5221  -1.5216
    -1.5039  -1.5007  -1.4673  -1.4665  -1.4497  -1.4491  -1.4484  -1.4418
    -1.4390  -1.4286  -1.4266  -1.4083  -1.4077  -1.3722  -1.3665  -1.3552
    -1.3527  -1.3338  -1.3200  -1.2782  -1.2763  -1.2527  -1.2465  -1.2459
    -1.2165  -1.1725  -1.1655  -1.1643  -1.1630  -1.1591  -1.1568  -1.1474
    -1.1300  -1.1279  -1.0894  -1.0881  -1.0625  -1.0572  -1.0546  -1.0514
    -1.0441  -1.0382  -1.0283  -1.0269  -1.0242  -1.0233  -1.0106  -0.9857
    -0.9839  -0.9830  -0.9639  -0.9524  -0.9485  -0.9382  -0.9204  -0.9155
    -0.8919  -0.8694  -0.8626  -0.8496  -0.8255  -0.8148  -0.8086  -0.8073
    -0.8003  -0.7999  -0.7982  -0.7916  -0.7869  -0.7748  -0.7612  -0.7582
    -0.7571  -0.7556  -0.7493  -0.7180  -0.7171  -0.7074  -0.7013  -0.6886
    -0.6837  -0.6756  -0.6692  -0.6158  -0.6131  -0.6053  -0.6047  -0.6036
    -0.6010  -0.5958  -0.5787  -0.5756  -0.5698  -0.5694  -0.5673  -0.5624
    -0.5280  -0.5255  -0.5250  -0.5171  -0.5158  -0.5111  -0.5099  -0.4969
    -0.4923  -0.4904  -0.4833  -0.4482  -0.4475  -0.4397  -0.4355  -0.4352
    -0.3586  -0.3578  -0.3554  -0.3544  -0.3460  -0.3448  -0.3093  -0.2969
    -0.2964  -0.2684  -0.2645  -0.2563  -0.1438  -0.1411  -0.0405   0.3747
     0.3752   0.3776   0.3785   0.4380   0.4438   0.8266   0.8289   0.8700
     0.8710   0.9817   1.0604   1.1680   1.1754   1.3878   1.4017   2.0237
     2.0267   2.1853   2.1897   2.3169   2.3239   2.4229   2.4244   2.5777
     2.8145   2.8214   2.9387   3.1596   3.1687   3.2461   3.2484   3.3466
     3.3629   3.5436   3.5734   3.6189   3.8195   3.8210   3.8819   3.8851
     4.1388   4.1452   4.1510   4.3908   4.4301   4.4337   4.4775   4.8122
     4.8154   4.8422   4.9781   5.1458   5.1512   5.1619   5.2241   5.3965
     5.7431   5.9337   5.9374   5.9438   5.9478   6.0123   6.0136   6.0799
     6.0979   6.1235   6.1483   6.1736   6.1783   6.1879   6.2105   6.2353
     6.2414   6.3978   6.5716   6.6673   6.7382   6.7898   6.8818   6.8881
     6.8937   7.0018   7.0094

          k =-0.2500 0.1443 0.1111 (136898 PWs)   bands (ev):

   -18.8331  -6.6585  -6.5487  -5.7575  -5.4663  -5.4073  -5.4071  -4.8689
    -4.8687  -4.7370  -4.7367  -4.5817  -4.5514  -4.4892  -4.4559  -4.4551
    -4.4222  -4.4221  -4.2936  -4.2519  -4.2516  -4.1919  -4.1708  -4.1705
    -4.0683  -4.0683  -4.0321  -4.0319  -4.0318  -4.0050  -3.9834  -3.9833
    -3.8786  -3.8763  -3.8760  -3.8556  -3.8386  -3.8385  -3.8265  -3.8260
    -3.8130  -3.7829  -3.7827  -3.7823  -3.7822  -3.7498  -3.7496  -3.7320
    -3.7319  -3.7182  -3.6747  -3.6745  -3.6439  -3.6293  -3.6280  -3.6236
    -3.6235  -3.5490  -3.5489  -3.5140  -3.5116  -3.5110  -3.4435  -3.4434
    -3.4281  -3.4278  -3.3975  -3.3970  -3.3959  -3.3957  -3.2425  -3.2420
    -3.2179  -3.2169  -3.2119  -3.1956  -3.1953  -3.1697  -3.1695  -3.1197
    -3.1195  -3.1035  -3.1031  -3.0829  -3.0353  -3.0345  -3.0149  -3.0099
    -3.0095  -2.9693  -2.9687  -2.9625  -2.9618  -2.9459  -2.9452  -2.9059
    -2.9059  -2.8926  -2.8840  -2.8813  -2.8807  -2.8774  -2.8660  -2.8007
    -2.7999  -2.7988  -2.7700  -2.7696  -2.7080  -2.7066  -2.6796  -2.6785
    -2.6654  -2.6652  -2.6596  -2.6302  -2.6299  -2.6203  -2.6030  -2.5777
    -2.5773  -2.5766  -2.5562  -2.5559  -2.5448  -2.5444  -2.5420  -2.5407
    -2.5327  -2.4868  -2.4546  -2.4544  -2.4390  -2.4250  -2.4186  -2.4183
    -2.4111  -2.4106  -2.4089  -2.3795  -2.3791  -2.3788  -2.3693  -2.3690
    -2.3521  -2.3249  -2.3238  -2.3235  -2.3230  -2.3227  -2.2770  -2.2463
    -2.2455  -2.2451  -2.2385  -2.2295  -2.2170  -2.2167  -2.1998  -2.1996
    -2.1671  -2.1649  -2.1645  -2.1460  -2.1453  -2.1441  -2.1122  -2.1111
    -2.0712  -2.0692  -2.0627  -2.0605  -2.0603  -2.0541  -2.0538  -2.0514
    -2.0510  -2.0455  -2.0433  -2.0280  -2.0267  -1.9014  -1.8992  -1.8685
    -1.8624  -1.8607  -1.8556  -1.8553  -1.8387  -1.8377  -1.8355  -1.8344
    -1.8330  -1.8099  -1.8045  -1.8014  -1.7999  -1.7902  -1.7895  -1.7670
    -1.7666  -1.7380  -1.7378  -1.7068  -1.7055  -1.6954  -1.6875  -1.6698
    -1.6692  -1.6663  -1.6482  -1.6357  -1.6353  -1.6283  -1.6279  -1.6017
    -1.6011  -1.5845  -1.5842  -1.5541  -1.5518  -1.5423  -1.4917  -1.4911
    -1.4811  -1.4781  -1.4777  -1.4522  -1.4499  -1.4171  -1.4163  -1.4156
    -1.3856  -1.3731  -1.3715  -1.3559  -1.3555  -1.3303  -1.3291  -1.3276
    -1.2978  -1.2953  -1.2952  -1.2328  -1.2319  -1.2208  -1.2187  -1.2031
    -1.2026  -1.1904  -1.1898  -1.1716  -1.1590  -1.1355  -1.1309  -1.1227
    -1.1087  -1.0838  -1.0812  -1.0708  -1.0692  -1.0687  -1.0645  -1.0619
    -1.0481  -1.0286  -1.0176  -1.0170  -1.0074  -1.0049  -1.0039  -0.9810
    -0.9750  -0.9625  -0.9453  -0.9409  -0.8834  -0.8425  -0.8346  -0.8291
    -0.8287  -0.8248  -0.8197  -0.8121  -0.7942  -0.7857  -0.7788  -0.7706
    -0.7639  -0.7571  -0.7546  -0.7343  -0.7329  -0.7245  -0.7228  -0.6519
    -0.6515  -0.6182  -0.6142  -0.6130  -0.6068  -0.6047  -0.6045  -0.6015
    -0.5918  -0.5868  -0.5681  -0.5501  -0.5331  -0.5162  -0.5151  -0.5047
    -0.5022  -0.4917  -0.4910  -0.4900  -0.4888  -0.4855  -0.4714  -0.4670
    -0.4645  -0.4363  -0.4346  -0.4326  -0.4221  -0.4218  -0.4029  -0.3709
    -0.3698  -0.3616  -0.3599  -0.2930  -0.2929  -0.2560  -0.2559  -0.1978
    -0.1969  -0.1966  -0.1811  -0.1688   0.0540   0.0648   0.4032   0.4033
     0.4922   0.5009   0.6891   0.7072   0.7207   0.8506   0.8527   1.2833
     1.2835   1.3014   1.5607   1.5934   1.5936   1.8667   1.8778   1.9490
     1.9499   1.9745   1.9811   2.2053   2.2061   2.2943   2.2949   2.3665
     2.4305   2.4408   2.5978   2.6963   3.1354   3.1369   3.1401   3.1416
     3.1937   3.1956   3.4871   3.4879   3.7653   3.7736   3.8715   4.1833
     4.2237   4.2288   4.4258   4.4615   4.5266   4.5277   4.6183   4.7356
     4.7382   4.8532   4.8551   5.1576   5.2229   5.2270   5.2517   5.4063
     5.4177   5.6126   5.6161   5.6408   5.6425   5.7004   5.7069   5.7418
     5.7978   6.0361   6.2558   6.3080   6.3363   6.4457   6.4472   6.4590
     6.4636   6.5264   6.6271   6.6976   6.7045   6.8020   6.9017   6.9117
     6.9467   7.0109   7.0547

          k =-0.2500-0.1443-0.1111 (136898 PWs)   bands (ev):

   -18.8331  -6.6585  -6.5487  -5.7576  -5.4663  -5.4073  -5.4071  -4.8689
    -4.8687  -4.7374  -4.7364  -4.5817  -4.5514  -4.4893  -4.4558  -4.4553
    -4.4224  -4.4218  -4.2935  -4.2521  -4.2515  -4.1918  -4.1709  -4.1706
    -4.0683  -4.0682  -4.0322  -4.0319  -4.0318  -4.0050  -3.9837  -3.9830
    -3.8785  -3.8764  -3.8760  -3.8555  -3.8387  -3.8384  -3.8264  -3.8262
    -3.8129  -3.7829  -3.7827  -3.7823  -3.7821  -3.7500  -3.7496  -3.7319
    -3.7318  -3.7180  -3.6750  -3.6744  -3.6440  -3.6290  -3.6283  -3.6236
    -3.6234  -3.5491  -3.5489  -3.5138  -3.5115  -3.5110  -3.4437  -3.4435
    -3.4280  -3.4277  -3.3973  -3.3967  -3.3964  -3.3961  -3.2425  -3.2422
    -3.2176  -3.2170  -3.2120  -3.1956  -3.1954  -3.1696  -3.1693  -3.1198
    -3.1195  -3.1036  -3.1031  -3.0828  -3.0353  -3.0342  -3.0152  -3.0100
    -3.0096  -2.9694  -2.9687  -2.9623  -2.9619  -2.9464  -2.9454  -2.9059
    -2.9056  -2.8895  -2.8843  -2.8812  -2.8807  -2.8779  -2.8680  -2.8004
    -2.7998  -2.7988  -2.7700  -2.7696  -2.7081  -2.7068  -2.6795  -2.6783
    -2.6652  -2.6650  -2.6596  -2.6302  -2.6298  -2.6204  -2.6028  -2.5777
    -2.5773  -2.5768  -2.5561  -2.5559  -2.5453  -2.5446  -2.5414  -2.5409
    -2.5328  -2.4867  -2.4546  -2.4545  -2.4389  -2.4251  -2.4185  -2.4183
    -2.4110  -2.4107  -2.4091  -2.3796  -2.3790  -2.3789  -2.3693  -2.3688
    -2.3519  -2.3251  -2.3244  -2.3235  -2.3227  -2.3223  -2.2772  -2.2465
    -2.2455  -2.2452  -2.2384  -2.2295  -2.2171  -2.2164  -2.1996  -2.1995
    -2.1671  -2.1647  -2.1645  -2.1461  -2.1452  -2.1444  -2.1120  -2.1113
    -2.0712  -2.0691  -2.0625  -2.0604  -2.0601  -2.0542  -2.0539  -2.0520
    -2.0508  -2.0449  -2.0436  -2.0279  -2.0270  -1.9009  -1.8996  -1.8681
    -1.8621  -1.8609  -1.8555  -1.8552  -1.8388  -1.8384  -1.8351  -1.8345
    -1.8329  -1.8099  -1.8039  -1.8019  -1.8001  -1.7898  -1.7893  -1.7672
    -1.7668  -1.7383  -1.7379  -1.7064  -1.7059  -1.6953  -1.6875  -1.6697
    -1.6691  -1.6660  -1.6482  -1.6359  -1.6355  -1.6283  -1.6280  -1.6014
    -1.6011  -1.5849  -1.5839  -1.5545  -1.5519  -1.5423  -1.4918  -1.4910
    -1.4809  -1.4779  -1.4776  -1.4525  -1.4497  -1.4169  -1.4165  -1.4159
    -1.3853  -1.3729  -1.3714  -1.3558  -1.3554  -1.3307  -1.3294  -1.3277
    -1.2978  -1.2953  -1.2951  -1.2329  -1.2322  -1.2208  -1.2188  -1.2035
    -1.2026  -1.1905  -1.1896  -1.1711  -1.1588  -1.1342  -1.1312  -1.1234
    -1.1084  -1.0840  -1.0809  -1.0707  -1.0693  -1.0691  -1.0639  -1.0619
    -1.0480  -1.0299  -1.0180  -1.0170  -1.0066  -1.0051  -1.0042  -0.9811
    -0.9754  -0.9621  -0.9456  -0.9405  -0.8834  -0.8431  -0.8345  -0.8290
    -0.8288  -0.8231  -0.8198  -0.8125  -0.7942  -0.7854  -0.7782  -0.7728
    -0.7639  -0.7572  -0.7547  -0.7343  -0.7326  -0.7241  -0.7227  -0.6518
    -0.6513  -0.6177  -0.6142  -0.6132  -0.6064  -0.6049  -0.6046  -0.6012
    -0.5918  -0.5869  -0.5680  -0.5500  -0.5345  -0.5160  -0.5151  -0.5047
    -0.5024  -0.4920  -0.4908  -0.4897  -0.4889  -0.4857  -0.4713  -0.4671
    -0.4644  -0.4363  -0.4348  -0.4324  -0.4224  -0.4212  -0.4029  -0.3709
    -0.3699  -0.3614  -0.3603  -0.2939  -0.2918  -0.2562  -0.2556  -0.1978
    -0.1971  -0.1963  -0.1809  -0.1688   0.0555   0.0627   0.4032   0.4032
     0.4940   0.4994   0.6870   0.7080   0.7220   0.8512   0.8521   1.2833
     1.2836   1.3014   1.5613   1.5932   1.5937   1.8692   1.8746   1.9492
     1.9495   1.9763   1.9796   2.2055   2.2060   2.2944   2.2947   2.3671
     2.4323   2.4379   2.5979   2.6968   3.1354   3.1361   3.1403   3.1416
     3.1948   3.1951   3.4874   3.4876   3.7679   3.7716   3.8715   4.1833
     4.2251   4.2273   4.4329   4.4533   4.5255   4.5296   4.6185   4.7350
     4.7385   4.8537   4.8544   5.1575   5.2206   5.2289   5.2539   5.3991
     5.4209   5.6139   5.6157   5.6405   5.6420   5.7023   5.7054   5.7379
     5.8028   6.0299   6.2578   6.3083   6.3422   6.4468   6.4486   6.4600
     6.4617   6.5255   6.6231   6.6980   6.7023   6.7980   6.9020   6.9195
     6.9453   7.0082   7.0621

          k = 0.2500 0.1443-0.1111 (136898 PWs)   bands (ev):

   -18.8331  -6.6585  -6.5487  -5.7576  -5.4663  -5.4073  -5.4071  -4.8689
    -4.8687  -4.7374  -4.7364  -4.5817  -4.5514  -4.4893  -4.4558  -4.4553
    -4.4224  -4.4218  -4.2935  -4.2521  -4.2515  -4.1918  -4.1709  -4.1706
    -4.0683  -4.0682  -4.0322  -4.0319  -4.0318  -4.0050  -3.9837  -3.9830
    -3.8785  -3.8765  -3.8760  -3.8555  -3.8387  -3.8384  -3.8264  -3.8262
    -3.8129  -3.7829  -3.7827  -3.7823  -3.7821  -3.7500  -3.7496  -3.7319
    -3.7318  -3.7180  -3.6750  -3.6744  -3.6440  -3.6290  -3.6283  -3.6236
    -3.6235  -3.5491  -3.5489  -3.5138  -3.5115  -3.5110  -3.4437  -3.4435
    -3.4280  -3.4277  -3.3973  -3.3967  -3.3964  -3.3961  -3.2425  -3.2422
    -3.2176  -3.2170  -3.2120  -3.1956  -3.1954  -3.1696  -3.1693  -3.1198
    -3.1195  -3.1036  -3.1031  -3.0828  -3.0353  -3.0342  -3.0152  -3.0100
    -3.0096  -2.9694  -2.9687  -2.9623  -2.9619  -2.9464  -2.9454  -2.9059
    -2.9056  -2.8895  -2.8843  -2.8812  -2.8807  -2.8779  -2.8680  -2.8004
    -2.7998  -2.7987  -2.7700  -2.7696  -2.7081  -2.7068  -2.6795  -2.6783
    -2.6652  -2.6650  -2.6596  -2.6302  -2.6298  -2.6204  -2.6028  -2.5777
    -2.5773  -2.5768  -2.5561  -2.5559  -2.5453  -2.5446  -2.5414  -2.5409
    -2.5328  -2.4867  -2.4546  -2.4545  -2.4389  -2.4251  -2.4185  -2.4183
    -2.4110  -2.4107  -2.4091  -2.3796  -2.3790  -2.3789  -2.3693  -2.3688
    -2.3519  -2.3251  -2.3244  -2.3235  -2.3227  -2.3223  -2.2772  -2.2465
    -2.2455  -2.2452  -2.2384  -2.2295  -2.2171  -2.2164  -2.1996  -2.1995
    -2.1671  -2.1647  -2.1645  -2.1461  -2.1452  -2.1444  -2.1120  -2.1113
    -2.0712  -2.0691  -2.0625  -2.0604  -2.0601  -2.0542  -2.0539  -2.0520
    -2.0508  -2.0449  -2.0436  -2.0279  -2.0270  -1.9009  -1.8996  -1.8681
    -1.8621  -1.8609  -1.8555  -1.8552  -1.8388  -1.8384  -1.8351  -1.8345
    -1.8329  -1.8099  -1.8039  -1.8019  -1.8001  -1.7898  -1.7893  -1.7672
    -1.7668  -1.7383  -1.7379  -1.7064  -1.7059  -1.6953  -1.6875  -1.6697
    -1.6691  -1.6660  -1.6482  -1.6359  -1.6355  -1.6283  -1.6280  -1.6014
    -1.6011  -1.5849  -1.5839  -1.5545  -1.5519  -1.5423  -1.4918  -1.4910
    -1.4809  -1.4779  -1.4776  -1.4525  -1.4497  -1.4169  -1.4165  -1.4159
    -1.3854  -1.3729  -1.3714  -1.3558  -1.3554  -1.3307  -1.3294  -1.3277
    -1.2978  -1.2953  -1.2951  -1.2329  -1.2322  -1.2208  -1.2188  -1.2035
    -1.2026  -1.1905  -1.1896  -1.1711  -1.1588  -1.1342  -1.1312  -1.1234
    -1.1084  -1.0840  -1.0809  -1.0707  -1.0693  -1.0691  -1.0639  -1.0619
    -1.0480  -1.0299  -1.0180  -1.0170  -1.0066  -1.0051  -1.0042  -0.9811
    -0.9754  -0.9621  -0.9456  -0.9405  -0.8834  -0.8431  -0.8345  -0.8290
    -0.8288  -0.8231  -0.8198  -0.8125  -0.7942  -0.7854  -0.7782  -0.7728
    -0.7639  -0.7572  -0.7547  -0.7343  -0.7326  -0.7241  -0.7227  -0.6518
    -0.6513  -0.6177  -0.6142  -0.6132  -0.6064  -0.6049  -0.6046  -0.6012
    -0.5918  -0.5869  -0.5680  -0.5500  -0.5345  -0.5160  -0.5151  -0.5047
    -0.5024  -0.4920  -0.4908  -0.4897  -0.4889  -0.4857  -0.4713  -0.4671
    -0.4644  -0.4363  -0.4348  -0.4324  -0.4224  -0.4212  -0.4029  -0.3709
    -0.3699  -0.3614  -0.3603  -0.2939  -0.2918  -0.2562  -0.2556  -0.1978
    -0.1971  -0.1963  -0.1809  -0.1688   0.0555   0.0627   0.4032   0.4032
     0.4940   0.4994   0.6870   0.7080   0.7220   0.8512   0.8521   1.2833
     1.2836   1.3014   1.5613   1.5932   1.5937   1.8692   1.8746   1.9492
     1.9495   1.9763   1.9796   2.2055   2.2060   2.2944   2.2947   2.3671
     2.4323   2.4379   2.5979   2.6968   3.1354   3.1361   3.1403   3.1416
     3.1948   3.1951   3.4874   3.4876   3.7679   3.7716   3.8715   4.1833
     4.2251   4.2273   4.4329   4.4533   4.5255   4.5296   4.6185   4.7350
     4.7385   4.8537   4.8544   5.1575   5.2206   5.2289   5.2539   5.3991
     5.4211   5.6139   5.6157   5.6405   5.6420   5.7023   5.7054   5.7383
     5.8001   6.0343   6.2604   6.3079   6.3421   6.4468   6.4486   6.4597
     6.4616   6.5160   6.6165   6.6977   6.7020   6.8078   6.9024   6.9197
     6.9461   7.0087   7.0666

          k = 0.0000-0.2887 0.1111 (136898 PWs)   bands (ev):

   -18.8331  -6.6585  -6.5487  -5.7576  -5.4663  -5.4073  -5.4071  -4.8688
    -4.8687  -4.7372  -4.7366  -4.5818  -4.5514  -4.4893  -4.4557  -4.4553
    -4.4222  -4.4220  -4.2935  -4.2520  -4.2516  -4.1917  -4.1709  -4.1707
    -4.0683  -4.0682  -4.0322  -4.0319  -4.0318  -4.0050  -3.9834  -3.9832
    -3.8786  -3.8764  -3.8760  -3.8555  -3.8387  -3.8385  -3.8264  -3.8261
    -3.8130  -3.7829  -3.7827  -3.7823  -3.7820  -3.7499  -3.7496  -3.7319
    -3.7318  -3.7180  -3.6749  -3.6745  -3.6441  -3.6290  -3.6282  -3.6236
    -3.6235  -3.5491  -3.5489  -3.5139  -3.5114  -3.5110  -3.4437  -3.4435
    -3.4279  -3.4278  -3.3973  -3.3967  -3.3964  -3.3959  -3.2425  -3.2422
    -3.2174  -3.2170  -3.2123  -3.1956  -3.1954  -3.1697  -3.1692  -3.1197
    -3.1195  -3.1036  -3.1032  -3.0828  -3.0346  -3.0344  -3.0154  -3.0101
    -3.0097  -2.9694  -2.9687  -2.9620  -2.9618  -2.9466  -2.9453  -2.9062
    -2.9057  -2.8866  -2.8840  -2.8815  -2.8806  -2.8794  -2.8698  -2.8005
    -2.7993  -2.7983  -2.7699  -2.7696  -2.7084  -2.7075  -2.6795  -2.6779
    -2.6653  -2.6650  -2.6596  -2.6302  -2.6299  -2.6204  -2.6026  -2.5777
    -2.5772  -2.5766  -2.5562  -2.5559  -2.5451  -2.5447  -2.5417  -2.5406
    -2.5328  -2.4867  -2.4547  -2.4545  -2.4389  -2.4251  -2.4186  -2.4183
    -2.4111  -2.4107  -2.4091  -2.3795  -2.3792  -2.3789  -2.3694  -2.3687
    -2.3519  -2.3248  -2.3243  -2.3239  -2.3226  -2.3222  -2.2772  -2.2465
    -2.2454  -2.2452  -2.2384  -2.2296  -2.2175  -2.2162  -2.1996  -2.1995
    -2.1670  -2.1648  -2.1645  -2.1461  -2.1452  -2.1444  -2.1120  -2.1112
    -2.0712  -2.0691  -2.0625  -2.0604  -2.0602  -2.0542  -2.0541  -2.0518
    -2.0511  -2.0450  -2.0437  -2.0277  -2.0268  -1.9010  -1.8996  -1.8675
    -1.8620  -1.8612  -1.8554  -1.8553  -1.8390  -1.8384  -1.8351  -1.8344
    -1.8329  -1.8099  -1.8035  -1.8026  -1.7999  -1.7898  -1.7893  -1.7671
    -1.7670  -1.7384  -1.7380  -1.7064  -1.7056  -1.6953  -1.6873  -1.6696
    -1.6692  -1.6660  -1.6481  -1.6358  -1.6356  -1.6282  -1.6281  -1.6013
    -1.6010  -1.5849  -1.5839  -1.5545  -1.5525  -1.5420  -1.4917  -1.4912
    -1.4800  -1.4784  -1.4780  -1.4525  -1.4497  -1.4175  -1.4165  -1.4155
    -1.3849  -1.3726  -1.3721  -1.3557  -1.3554  -1.3314  -1.3282  -1.3279
    -1.2977  -1.2953  -1.2951  -1.2328  -1.2324  -1.2205  -1.2194  -1.2037
    -1.2025  -1.1907  -1.1896  -1.1713  -1.1588  -1.1333  -1.1312  -1.1235
    -1.1074  -1.0833  -1.0815  -1.0701  -1.0693  -1.0688  -1.0640  -1.0623
    -1.0480  -1.0322  -1.0177  -1.0171  -1.0071  -1.0052  -1.0042  -0.9811
    -0.9729  -0.9631  -0.9452  -0.9408  -0.8838  -0.8418  -0.8346  -0.8292
    -0.8289  -0.8233  -0.8202  -0.8114  -0.7942  -0.7864  -0.7790  -0.7718
    -0.7639  -0.7575  -0.7548  -0.7344  -0.7328  -0.7242  -0.7221  -0.6517
    -0.6514  -0.6181  -0.6139  -0.6131  -0.6066  -0.6050  -0.6046  -0.6015
    -0.5921  -0.5866  -0.5680  -0.5500  -0.5342  -0.5161  -0.5149  -0.5047
    -0.5025  -0.4919  -0.4908  -0.4898  -0.4887  -0.4855  -0.4713  -0.4671
    -0.4646  -0.4362  -0.4345  -0.4325  -0.4220  -0.4218  -0.4029  -0.3709
    -0.3699  -0.3615  -0.3601  -0.2931  -0.2928  -0.2562  -0.2557  -0.1979
    -0.1968  -0.1965  -0.1813  -0.1688   0.0540   0.0648   0.4032   0.4032
     0.4927   0.5007   0.6874   0.7085   0.7208   0.8507   0.8525   1.2833
     1.2836   1.3015   1.5610   1.5934   1.5936   1.8672   1.8767   1.9489
     1.9498   1.9752   1.9807   2.2054   2.2060   2.2944   2.2948   2.3672
     2.4307   2.4396   2.5978   2.6967   3.1341   3.1376   3.1401   3.1417
     3.1939   3.1960   3.4870   3.4881   3.7667   3.7728   3.8713   4.1834
     4.2244   4.2279   4.4349   4.4528   4.5264   4.5277   4.6188   4.7352
     4.7381   4.8535   4.8552   5.1573   5.2254   5.2278   5.2522   5.3886
     5.4206   5.6132   5.6156   5.6399   5.6426   5.6995   5.7081   5.7370
     5.8136   6.0616   6.2654   6.2877   6.3113   6.4466   6.4476   6.4592
     6.4632   6.5181   6.6307   6.6964   6.7031   6.8396   6.8551   6.9276
     6.9448   7.0118   7.0482

          k = 0.0000 0.2887 0.1111 (136898 PWs)   bands (ev):

   -18.8331  -6.6585  -6.5487  -5.7576  -5.4663  -5.4073  -5.4071  -4.8688
    -4.8687  -4.7373  -4.7366  -4.5818  -4.5514  -4.4893  -4.4557  -4.4553
    -4.4222  -4.4220  -4.2935  -4.2520  -4.2516  -4.1917  -4.1709  -4.1707
    -4.0683  -4.0682  -4.0322  -4.0319  -4.0318  -4.0050  -3.9834  -3.9832
    -3.8786  -3.8764  -3.8760  -3.8555  -3.8387  -3.8385  -3.8264  -3.8261
    -3.8130  -3.7829  -3.7827  -3.7823  -3.7820  -3.7499  -3.7496  -3.7319
    -3.7318  -3.7180  -3.6749  -3.6745  -3.6441  -3.6290  -3.6282  -3.6236
    -3.6235  -3.5491  -3.5489  -3.5139  -3.5114  -3.5110  -3.4437  -3.4435
    -3.4279  -3.4278  -3.3973  -3.3967  -3.3964  -3.3959  -3.2425  -3.2422
    -3.2174  -3.2170  -3.2123  -3.1956  -3.1954  -3.1697  -3.1692  -3.1197
    -3.1195  -3.1036  -3.1032  -3.0828  -3.0346  -3.0344  -3.0154  -3.0101
    -3.0097  -2.9694  -2.9687  -2.9620  -2.9618  -2.9466  -2.9453  -2.9062
    -2.9057  -2.8866  -2.8840  -2.8815  -2.8806  -2.8794  -2.8698  -2.8005
    -2.7993  -2.7983  -2.7699  -2.7696  -2.7084  -2.7075  -2.6795  -2.6779
    -2.6653  -2.6650  -2.6596  -2.6302  -2.6299  -2.6204  -2.6026  -2.5777
    -2.5772  -2.5766  -2.5562  -2.5559  -2.5451  -2.5447  -2.5417  -2.5406
    -2.5328  -2.4867  -2.4547  -2.4545  -2.4389  -2.4251  -2.4186  -2.4183
    -2.4111  -2.4107  -2.4091  -2.3795  -2.3792  -2.3789  -2.3694  -2.3687
    -2.3519  -2.3248  -2.3243  -2.3239  -2.3226  -2.3222  -2.2772  -2.2465
    -2.2454  -2.2452  -2.2384  -2.2296  -2.2175  -2.2162  -2.1996  -2.1995
    -2.1670  -2.1648  -2.1645  -2.1461  -2.1452  -2.1444  -2.1120  -2.1112
    -2.0712  -2.0691  -2.0625  -2.0604  -2.0602  -2.0542  -2.0541  -2.0518
    -2.0511  -2.0450  -2.0437  -2.0277  -2.0268  -1.9010  -1.8996  -1.8675
    -1.8620  -1.8612  -1.8554  -1.8553  -1.8390  -1.8384  -1.8351  -1.8344
    -1.8329  -1.8099  -1.8035  -1.8026  -1.7999  -1.7898  -1.7893  -1.7671
    -1.7670  -1.7384  -1.7380  -1.7064  -1.7056  -1.6953  -1.6873  -1.6696
    -1.6692  -1.6660  -1.6481  -1.6357  -1.6356  -1.6282  -1.6281  -1.6013
    -1.6010  -1.5849  -1.5839  -1.5545  -1.5525  -1.5420  -1.4917  -1.4912
    -1.4800  -1.4784  -1.4780  -1.4525  -1.4497  -1.4175  -1.4165  -1.4155
    -1.3849  -1.3726  -1.3721  -1.3557  -1.3554  -1.3314  -1.3282  -1.3279
    -1.2977  -1.2953  -1.2951  -1.2328  -1.2324  -1.2205  -1.2194  -1.2037
    -1.2025  -1.1907  -1.1896  -1.1713  -1.1588  -1.1333  -1.1312  -1.1235
    -1.1074  -1.0833  -1.0815  -1.0701  -1.0693  -1.0688  -1.0640  -1.0623
    -1.0480  -1.0323  -1.0177  -1.0171  -1.0071  -1.0052  -1.0042  -0.9811
    -0.9729  -0.9631  -0.9452  -0.9408  -0.8838  -0.8418  -0.8346  -0.8292
    -0.8289  -0.8233  -0.8202  -0.8115  -0.7942  -0.7864  -0.7790  -0.7718
    -0.7639  -0.7575  -0.7548  -0.7344  -0.7328  -0.7242  -0.7221  -0.6517
    -0.6514  -0.6181  -0.6139  -0.6131  -0.6066  -0.6050  -0.6046  -0.6015
    -0.5921  -0.5866  -0.5680  -0.5500  -0.5342  -0.5161  -0.5149  -0.5047
    -0.5025  -0.4919  -0.4908  -0.4898  -0.4887  -0.4855  -0.4713  -0.4671
    -0.4646  -0.4362  -0.4345  -0.4325  -0.4220  -0.4218  -0.4029  -0.3709
    -0.3699  -0.3615  -0.3601  -0.2931  -0.2928  -0.2562  -0.2557  -0.1979
    -0.1968  -0.1965  -0.1813  -0.1688   0.0540   0.0648   0.4032   0.4032
     0.4927   0.5007   0.6874   0.7085   0.7208   0.8507   0.8525   1.2833
     1.2836   1.3015   1.5610   1.5934   1.5936   1.8672   1.8767   1.9488
     1.9498   1.9752   1.9807   2.2054   2.2060   2.2944   2.2948   2.3672
     2.4307   2.4396   2.5978   2.6967   3.1341   3.1376   3.1401   3.1417
     3.1939   3.1960   3.4870   3.4881   3.7667   3.7728   3.8713   4.1834
     4.2244   4.2279   4.4349   4.4528   4.5264   4.5277   4.6188   4.7352
     4.7381   4.8535   4.8552   5.1573   5.2254   5.2278   5.2523   5.3886
     5.4204   5.6132   5.6156   5.6399   5.6426   5.6995   5.7082   5.7365
     5.8159   6.0586   6.2619   6.2881   6.3113   6.4466   6.4476   6.4592
     6.4632   6.5296   6.6270   6.6972   6.7032   6.8343   6.8529   6.9276
     6.9444   7.0180   7.0539

     the Fermi energy is     1.4266 ev

!    total energy              =   -6604.43534000 Ry
     Harris-Foulkes estimate   =   -6604.43534000 Ry
     estimated scf accuracy    <          2.5E-09 Ry

     The total energy is the sum of the following terms:

     one-electron contribution =  -48574.70328722 Ry
     hartree contribution      =   24788.30032976 Ry
     xc contribution           =   -3204.96243270 Ry
     ewald contribution        =   20386.92715621 Ry
     smearing contrib. (-TS)   =       0.00289394 Ry

     convergence has been achieved in  25 iterations

     Writing output data file 7405061.save

     init_run     :    124.99s CPU    135.09s WALL (       1 calls)
     electrons    :   8284.93s CPU   9439.72s WALL (       1 calls)

     Called by init_run:
     wfcinit      :    100.53s CPU    109.62s WALL (       1 calls)
     potinit      :      7.93s CPU      8.39s WALL (       1 calls)

     Called by electrons:
     c_bands      :   7148.23s CPU   8200.83s WALL (      26 calls)
     sum_band     :    874.48s CPU    961.97s WALL (      26 calls)
     v_of_rho     :     87.44s CPU     97.91s WALL (      26 calls)
     newd         :    178.77s CPU    182.04s WALL (      26 calls)
     mix_rho      :      2.44s CPU      2.75s WALL (      26 calls)
     vdW_energy   :      7.19s CPU      8.21s WALL (      26 calls)
     vdW_ffts     :     43.84s CPU     48.94s WALL (      52 calls)
     vdW_v        :     11.80s CPU     12.52s WALL (      26 calls)

     Called by c_bands:
     init_us_2    :     17.96s CPU     18.47s WALL (     636 calls)
     cegterg      :   7043.96s CPU   8093.93s WALL (     312 calls)

     Called by *egterg:
     h_psi        :   2978.16s CPU   3401.46s WALL (    1672 calls)
     s_psi        :    445.52s CPU    474.46s WALL (    1672 calls)
     g_psi        :      6.23s CPU      6.19s WALL (    1348 calls)
     cdiaghg      :   2085.09s CPU   2091.37s WALL (    1648 calls)

     Called by h_psi:
     add_vuspsi   :    448.72s CPU    483.87s WALL (    1672 calls)

     General routines
     calbec       :    636.62s CPU    639.43s WALL (    1984 calls)
     fft          :     94.28s CPU    103.35s WALL (    1716 calls)
     ffts         :      1.06s CPU      1.30s WALL (      52 calls)
     fftw         :   2280.25s CPU   2701.57s WALL (  755010 calls)
     interpolate  :      3.14s CPU      3.77s WALL (      52 calls)
     davcio       :      0.00s CPU      0.22s WALL (      12 calls)

     Parallel routines
     fft_scatter  :   1611.10s CPU   1900.84s WALL (  756778 calls)

     PWSCF        :     2h20m CPU        2h39m WALL


   This run was terminated on:   1:24:46  25Jun2015            

=------------------------------------------------------------------------------=
   JOB DONE.
=------------------------------------------------------------------------------=
