Setting SGE environment for SCC

     Program PWSCF v.5.3.0 (svn rev. 11974) starts on 31Aug2016 at 17:33:13 

     This program is part of the open-source Quantum ESPRESSO suite
     for quantum simulation of materials; please cite
         "P. Giannozzi et al., J. Phys.:Condens. Matter 21 395502 (2009);
          URL http://www.quantum-espresso.org", 
     in publications or presentations arising from this work. More details at
     http://www.quantum-espresso.org/quote

     Parallel version (MPI), running on    40 processors
     R & G space division:  proc/nbgrp/npool/nimage =      40
     Reading input from bridge.O1.Au6165.d.2.7.phi.0.psi.90.in
Warning: card &CELL ignored
Warning: card / ignored

     Current dimensions of program PWSCF are:
     Max number of different atomic species (ntypx) = 10
     Max number of k-points (npk) =  40000
     Max angular momentum in pseudopotentials (lmaxx) =  3

     IMPORTANT: XC functional enforced from input :
     Exchange-correlation      = VDW-DF ( 1  4  4  0 1 0)
     Any further DFT definition will be discarded
     Please, verify this is what you really want


     Subspace diagonalization in iterative solution of the eigenvalue problem:
     one sub-group per k-point group (pool) will be used
     scalapack distributed-memory algorithm (size of sub-group:  4*  4 procs)

 
     Parallelization info
     --------------------
     sticks:   dense  smooth     PW     G-vecs:    dense   smooth      PW
     Min         462     231     59                94810    33497    4387
     Max         463     232     60                94825    33552    4400
     Sum       18505    9265   2385              3792731  1341081  175711
 

     Title: 
     bridge.O1.Au6165.d.2.7.phi.0.psi.90                                        


     bravais-lattice index     =            8
     lattice parameter (alat)  =      24.1233  a.u.
     unit-cell volume          =   28076.2361 (a.u.)^3
     number of atoms/cell      =           75
     number of atomic types    =            3
     number of electrons       =       800.00
     number of Kohn-Sham states=          480
     kinetic-energy cutoff     =      50.0000  Ry
     charge density cutoff     =     400.0000  Ry
     convergence threshold     =      1.0E-08
     mixing beta               =       0.7000
     number of iterations used =            8  plain     mixing
     Exchange-correlation      = VDW-DF ( 1  4  4  0 1 0)
     nstep                     =           50


     celldm(1)=  24.123277  celldm(2)=   1.000000  celldm(3)=   2.000000
     celldm(4)=   0.000000  celldm(5)=   0.000000  celldm(6)=   0.000000

     crystal axes: (cart. coord. in units of alat)
               a(1) = (   1.000000   0.000000   0.000000 )  
               a(2) = (   0.000000   1.000000   0.000000 )  
               a(3) = (   0.000000   0.000000   2.000000 )  

     reciprocal axes: (cart. coord. in units 2 pi/alat)
               b(1) = (  1.000000  0.000000  0.000000 )  
               b(2) = (  0.000000  1.000000  0.000000 )  
               b(3) = (  0.000000  0.000000  0.500000 )  


     PseudoPot. # 1 for Au read from file:
     ../../../../pseudo/Au.pbe-nd-van.UPF
     MD5 check sum: 458681b50f36d87ef23c61b04bba420a
     Pseudo is Ultrasoft + core correction, Zval = 11.0
     Generated by new atomic code, or converted to UPF format
     Using radial grid of  985 points,  3 beta functions with: 
                l(1) =   1
                l(2) =   2
                l(3) =   2
     Q(r) pseudized with  8 coefficients,  rinner =    1.100   1.100   1.100
                                                       1.100   1.100

     PseudoPot. # 2 for H  read from file:
     ../../../../pseudo/H.pbe-van_ak.UPF
     MD5 check sum: 403db7282739603aa925980fa9b8608d
     Pseudo is Ultrasoft, Zval =  1.0
     Generated by new atomic code, or converted to UPF format
     Using radial grid of  615 points,  1 beta functions with: 
                l(1) =   0
     Q(r) pseudized with  8 coefficients,  rinner =    0.800

     PseudoPot. # 3 for O  read from file:
     ../../../../pseudo/O.pbe-van_ak.UPF
     MD5 check sum: 4b8c549914a63cae506c6ff22b5af4fe
     Pseudo is Ultrasoft, Zval =  6.0
     Generated by new atomic code, or converted to UPF format
     Using radial grid of  737 points,  4 beta functions with: 
                l(1) =   0
                l(2) =   0
                l(3) =   1
                l(4) =   1
     Q(r) pseudized with  8 coefficients,  rinner =    0.800   0.800   0.800


     vdW kernel table read from file vdW_kernel_table
     MD5 check sum: 48e77a2e26edf626eeb0eaa751ad5cac

     atomic species   valence    mass     pseudopotential
        Au            11.00   196.96657     Au( 1.00)
        H              1.00     1.01000     H ( 1.00)
        O              6.00    16.00000     O ( 1.00)

     No symmetry found



   Cartesian axes

     site n.     atom                  positions (alat units)
         1           O   tau(   1) = (   0.2499161   0.4165269   0.7108263  )
         2           H   tau(   2) = (   0.2028385   0.3710330   0.6716548  )
         3           H   tau(   3) = (   0.2955663   0.3686692   0.7488279  )
         4           Au  tau(   4) = (   0.0000000   0.0000000   0.0000000  )
         5           Au  tau(   5) = (   0.3332217   0.0000000   0.0000000  )
         6           Au  tau(   6) = (   0.6664434   0.0000000   0.0000000  )
         7           Au  tau(   7) = (   0.1666109   0.1666109   0.0000000  )
         8           Au  tau(   8) = (   0.4998326   0.1666109   0.0000000  )
         9           Au  tau(   9) = (   0.8330542   0.1666109   0.0000000  )
        10           Au  tau(  10) = (   0.0000000   0.3332217   0.0000000  )
        11           Au  tau(  11) = (   0.3332217   0.3332217   0.0000000  )
        12           Au  tau(  12) = (   0.6664434   0.3332217   0.0000000  )
        13           Au  tau(  13) = (   0.1666109   0.4998326   0.0000000  )
        14           Au  tau(  14) = (   0.4998326   0.4998326   0.0000000  )
        15           Au  tau(  15) = (   0.8330542   0.4998326   0.0000000  )
        16           Au  tau(  16) = (   0.0000000   0.6664434   0.0000000  )
        17           Au  tau(  17) = (   0.3332217   0.6664434   0.0000000  )
        18           Au  tau(  18) = (   0.6664434   0.6664434   0.0000000  )
        19           Au  tau(  19) = (   0.1666109   0.8330542   0.0000000  )
        20           Au  tau(  20) = (   0.4998326   0.8330542   0.0000000  )
        21           Au  tau(  21) = (   0.8330542   0.8330542   0.0000000  )
        22           Au  tau(  22) = (   0.1666109   0.0000000   0.1666109  )
        23           Au  tau(  23) = (   0.4998326   0.0000000   0.1666109  )
        24           Au  tau(  24) = (   0.8330542   0.0000000   0.1666109  )
        25           Au  tau(  25) = (   0.0000000   0.1666109   0.1666109  )
        26           Au  tau(  26) = (   0.3332217   0.1666109   0.1666109  )
        27           Au  tau(  27) = (   0.6664434   0.1666109   0.1666109  )
        28           Au  tau(  28) = (   0.1666109   0.3332217   0.1666109  )
        29           Au  tau(  29) = (   0.4998326   0.3332217   0.1666109  )
        30           Au  tau(  30) = (   0.8330542   0.3332217   0.1666109  )
        31           Au  tau(  31) = (   0.0000000   0.4998326   0.1666109  )
        32           Au  tau(  32) = (   0.3332217   0.4998326   0.1666109  )
        33           Au  tau(  33) = (   0.6664434   0.4998326   0.1666109  )
        34           Au  tau(  34) = (   0.1666109   0.6664434   0.1666109  )
        35           Au  tau(  35) = (   0.4998326   0.6664434   0.1666109  )
        36           Au  tau(  36) = (   0.8330542   0.6664434   0.1666109  )
        37           Au  tau(  37) = (   0.0000000   0.8330542   0.1666109  )
        38           Au  tau(  38) = (   0.3332217   0.8330542   0.1666109  )
        39           Au  tau(  39) = (   0.6664434   0.8330542   0.1666109  )
        40           Au  tau(  40) = (  -0.0000182  -0.0000182   0.3335478  )
        41           Au  tau(  41) = (   0.3332215  -0.0000181   0.3335473  )
        42           Au  tau(  42) = (   0.6664447  -0.0000183   0.3335481  )
        43           Au  tau(  43) = (  -0.0000181   0.3332215   0.3335473  )
        44           Au  tau(  44) = (   0.3332215   0.3332215   0.3335468  )
        45           Au  tau(  45) = (   0.6664445   0.3332215   0.3335477  )
        46           Au  tau(  46) = (  -0.0000183   0.6664447   0.3335481  )
        47           Au  tau(  47) = (   0.3332215   0.6664445   0.3335477  )
        48           Au  tau(  48) = (   0.6664446   0.6664446   0.3335486  )
        49           Au  tau(  49) = (   0.1666097   0.1666097   0.3335483  )
        50           Au  tau(  50) = (   0.4998320   0.1666098   0.3335477  )
        51           Au  tau(  51) = (   0.8330732   0.1666096   0.3335480  )
        52           Au  tau(  52) = (   0.1666098   0.4998320   0.3335477  )
        53           Au  tau(  53) = (   0.4998322   0.4998322   0.3335470  )
        54           Au  tau(  54) = (   0.8330731   0.4998322   0.3335474  )
        55           Au  tau(  55) = (   0.1666096   0.8330732   0.3335480  )
        56           Au  tau(  56) = (   0.4998322   0.8330731   0.3335474  )
        57           Au  tau(  57) = (   0.8330731   0.8330731   0.3335478  )
        58           Au  tau(  58) = (   0.1666104  -0.0000111   0.4993095  )
        59           Au  tau(  59) = (   0.4998323  -0.0000112   0.4993099  )
        60           Au  tau(  60) = (   0.8330660  -0.0000111   0.4993009  )
        61           Au  tau(  61) = (  -0.0000111   0.1666104   0.4993095  )
        62           Au  tau(  62) = (   0.3332213   0.1666106   0.4993185  )
        63           Au  tau(  63) = (   0.6664437   0.1666106   0.4993187  )
        64           Au  tau(  64) = (   0.1666106   0.3332213   0.4993185  )
        65           Au  tau(  65) = (   0.4998324   0.3332216   0.4993185  )
        66           Au  tau(  66) = (   0.8330658   0.3332215   0.4993102  )
        67           Au  tau(  67) = (  -0.0000112   0.4998323   0.4993099  )
        68           Au  tau(  68) = (   0.3332216   0.4998324   0.4993185  )
        69           Au  tau(  69) = (   0.6664437   0.4998325   0.4993187  )
        70           Au  tau(  70) = (   0.1666106   0.6664437   0.4993187  )
        71           Au  tau(  71) = (   0.4998325   0.6664437   0.4993187  )
        72           Au  tau(  72) = (   0.8330658   0.6664438   0.4993102  )
        73           Au  tau(  73) = (  -0.0000111   0.8330660   0.4993009  )
        74           Au  tau(  74) = (   0.3332215   0.8330658   0.4993102  )
        75           Au  tau(  75) = (   0.6664438   0.8330658   0.4993102  )

     number of k points=     6  Marzari-Vanderbilt smearing, width (Ry)=  0.0200
                       cart. coord. in units 2pi/alat
        k(    1) = (   0.2500000   0.2500000   0.0833333), wk =   0.3333333
        k(    2) = (   0.2500000   0.2500000  -0.2500000), wk =   0.3333333
        k(    3) = (  -0.2500000  -0.2500000   0.0833333), wk =   0.3333333
        k(    4) = (  -0.2500000   0.2500000  -0.0833333), wk =   0.3333333
        k(    5) = (   0.2500000  -0.2500000  -0.0833333), wk =   0.3333333
        k(    6) = (  -0.2500000   0.2500000   0.2500000), wk =   0.3333333

     Dense  grid:  3792731 G-vectors     FFT dimensions: ( 160, 160, 320)

     Smooth grid:  1341081 G-vectors     FFT dimensions: ( 120, 120, 225)

     Largest allocated arrays     est. size (Mb)     dimensions
        Kohn-Sham Wavefunctions        30.81 Mb     (    4207,  480)
        NL pseudopotentials            60.73 Mb     (    4207,  946)
        Each V/rho on FFT grid          3.12 Mb     (  204800)
        Each G-vector array             0.72 Mb     (   94823)
        G-vector shells                 0.08 Mb     (   10028)
     Largest temporary arrays     est. size (Mb)     dimensions
        Auxiliary wavefunctions       123.25 Mb     (    4207, 1920)
        Each subspace H/S matrix        3.52 Mb     (     480,  480)
        Each <psi_i|beta_j> matrix      6.93 Mb     (     946,  480)
        Arrays for rho mixing          25.00 Mb     (  204800,    8)

     Initial potential from superposition of free atoms
     Check: negative starting charge=   -1.945178

     starting charge  799.16392, renormalised to  800.00000

     negative rho (up, down):  1.947E+00 0.000E+00


     %%%%%%%%%%%%%%%%%%%%%%%%%%%%%%%%%%%%%%%%%%%%%%%%%%%%%%%%%%%%%%%%%%%%%%%%
     %                                                                      %
     % You are using vdW-DF, which was implemented by the Thonhauser group. %
     % Please cite the following two papers that made this development      %
     % possible and the two reviews that describe the various versions:     %
     %                                                                      %
     %   T. Thonhauser et al., PRL 115, 136402 (2015).                      %
     %   T. Thonhauser et al., PRB 76, 125112 (2007).                       %
     %   K. Berland et al., Rep. Prog. Phys. 78, 066501 (2015).             %
     %   D.C. Langreth et al., J. Phys.: Condens. Matter 21, 084203 (2009). %
     %                                                                      %
     %                                                                      %
     % If you are calculating the stress with vdW-DF, please also cite:     %
     %                                                                      %
     %   R. Sabatini et al., J. Phys.: Condens. Matter 24, 424209 (2012).   %
     %                                                                      %
     %%%%%%%%%%%%%%%%%%%%%%%%%%%%%%%%%%%%%%%%%%%%%%%%%%%%%%%%%%%%%%%%%%%%%%%%


     Starting wfc are  654 randomized atomic wfcs

     total cpu time spent up to now is       55.2 secs

     per-process dynamical memory:   408.8 Mb

     Self-consistent Calculation

     iteration #  1     ecut=    50.00 Ry     beta=0.70
     Davidson diagonalization with overlap
     ethr =  1.00E-02,  avg # of iterations =  3.0

     Threshold (ethr) on eigenvalues was too large:
     Diagonalizing with lowered threshold

     Davidson diagonalization with overlap
     ethr =  4.19E-04,  avg # of iterations =  2.0

     negative rho (up, down):  1.947E+00 0.000E+00

     total cpu time spent up to now is      296.5 secs

     total energy              =   -7423.04520984 Ry
     Harris-Foulkes estimate   =   -7426.06189084 Ry
     estimated scf accuracy    <       3.72746595 Ry

     iteration #  2     ecut=    50.00 Ry     beta=0.70
     Davidson diagonalization with overlap
     ethr =  4.66E-04,  avg # of iterations = 11.5

     negative rho (up, down):  1.942E+00 0.000E+00

     total cpu time spent up to now is      734.2 secs

     total energy              =   -7415.23071222 Ry
     Harris-Foulkes estimate   =   -7432.57309896 Ry
     estimated scf accuracy    <      90.22488413 Ry

     iteration #  3     ecut=    50.00 Ry     beta=0.70
     Davidson diagonalization with overlap
     ethr =  4.66E-04,  avg # of iterations =  6.0

     negative rho (up, down):  1.953E+00 0.000E+00

     total cpu time spent up to now is      997.0 secs

     total energy              =   -7424.32966403 Ry
     Harris-Foulkes estimate   =   -7425.85550961 Ry
     estimated scf accuracy    <       5.96957870 Ry

     iteration #  4     ecut=    50.00 Ry     beta=0.70
     Davidson diagonalization with overlap
     ethr =  4.66E-04,  avg # of iterations =  6.0

     negative rho (up, down):  1.956E+00 0.000E+00

     total cpu time spent up to now is     1141.0 secs

     total energy              =   -7424.85168785 Ry
     Harris-Foulkes estimate   =   -7425.65009578 Ry
     estimated scf accuracy    <       4.90063642 Ry

     iteration #  5     ecut=    50.00 Ry     beta=0.70
     Davidson diagonalization with overlap
     ethr =  4.66E-04,  avg # of iterations =  4.7

     negative rho (up, down):  1.964E+00 0.000E+00

     total cpu time spent up to now is     1275.9 secs

     total energy              =   -7425.15363687 Ry
     Harris-Foulkes estimate   =   -7425.48177545 Ry
     estimated scf accuracy    <       2.26047164 Ry

     iteration #  6     ecut=    50.00 Ry     beta=0.70
     Davidson diagonalization with overlap
     ethr =  2.83E-04,  avg # of iterations =  3.2

     negative rho (up, down):  1.967E+00 0.000E+00

     total cpu time spent up to now is     1389.4 secs

     total energy              =   -7425.26949692 Ry
     Harris-Foulkes estimate   =   -7425.32051555 Ry
     estimated scf accuracy    <       0.17531530 Ry

     iteration #  7     ecut=    50.00 Ry     beta=0.70
     Davidson diagonalization with overlap
     ethr =  2.19E-05,  avg # of iterations =  8.3

     negative rho (up, down):  1.970E+00 0.000E+00

     total cpu time spent up to now is     1553.1 secs

     total energy              =   -7425.27509698 Ry
     Harris-Foulkes estimate   =   -7425.31429092 Ry
     estimated scf accuracy    <       0.19312999 Ry

     iteration #  8     ecut=    50.00 Ry     beta=0.70
     Davidson diagonalization with overlap
     ethr =  2.19E-05,  avg # of iterations =  3.0

     negative rho (up, down):  1.971E+00 0.000E+00

     total cpu time spent up to now is     1673.3 secs

     total energy              =   -7425.28232985 Ry
     Harris-Foulkes estimate   =   -7425.30026531 Ry
     estimated scf accuracy    <       0.06994327 Ry

     iteration #  9     ecut=    50.00 Ry     beta=0.70
     Davidson diagonalization with overlap
     ethr =  8.74E-06,  avg # of iterations = 11.0

     negative rho (up, down):  1.972E+00 0.000E+00

     total cpu time spent up to now is     1841.8 secs

     total energy              =   -7425.28571799 Ry
     Harris-Foulkes estimate   =   -7425.29343328 Ry
     estimated scf accuracy    <       0.02433808 Ry

     iteration # 10     ecut=    50.00 Ry     beta=0.70
     Davidson diagonalization with overlap
     ethr =  3.04E-06,  avg # of iterations =  7.0

     negative rho (up, down):  1.973E+00 0.000E+00

     total cpu time spent up to now is     1986.4 secs

     total energy              =   -7425.28796827 Ry
     Harris-Foulkes estimate   =   -7425.29001268 Ry
     estimated scf accuracy    <       0.00537077 Ry

     iteration # 11     ecut=    50.00 Ry     beta=0.70
     Davidson diagonalization with overlap
     ethr =  6.71E-07,  avg # of iterations =  5.2

     negative rho (up, down):  1.973E+00 0.000E+00

     total cpu time spent up to now is     2118.0 secs

     total energy              =   -7425.28863924 Ry
     Harris-Foulkes estimate   =   -7425.28940771 Ry
     estimated scf accuracy    <       0.00226491 Ry

     iteration # 12     ecut=    50.00 Ry     beta=0.70
     Davidson diagonalization with overlap
     ethr =  2.83E-07,  avg # of iterations =  2.0

     negative rho (up, down):  1.974E+00 0.000E+00

     total cpu time spent up to now is     2235.3 secs

     total energy              =   -7425.28862657 Ry
     Harris-Foulkes estimate   =   -7425.28922216 Ry
     estimated scf accuracy    <       0.00192830 Ry

     iteration # 13     ecut=    50.00 Ry     beta=0.70
     Davidson diagonalization with overlap
     ethr =  2.41E-07,  avg # of iterations =  4.8

     negative rho (up, down):  1.974E+00 0.000E+00

     total cpu time spent up to now is     2391.8 secs

     total energy              =   -7425.28830363 Ry
     Harris-Foulkes estimate   =   -7425.28977000 Ry
     estimated scf accuracy    <       0.00776389 Ry

     iteration # 14     ecut=    50.00 Ry     beta=0.70
     Davidson diagonalization with overlap
     ethr =  2.41E-07,  avg # of iterations =  3.0

     negative rho (up, down):  1.974E+00 0.000E+00

     total cpu time spent up to now is     2513.0 secs

     total energy              =   -7425.28899312 Ry
     Harris-Foulkes estimate   =   -7425.28902311 Ry
     estimated scf accuracy    <       0.00008233 Ry

     iteration # 15     ecut=    50.00 Ry     beta=0.70
     Davidson diagonalization with overlap
     ethr =  1.03E-08,  avg # of iterations =  2.0

     negative rho (up, down):  1.974E+00 0.000E+00

     total cpu time spent up to now is     2647.1 secs

     total energy              =   -7425.28898739 Ry
     Harris-Foulkes estimate   =   -7425.28903919 Ry
     estimated scf accuracy    <       0.00035300 Ry

     iteration # 16     ecut=    50.00 Ry     beta=0.70
     Davidson diagonalization with overlap
     ethr =  1.03E-08,  avg # of iterations =  2.0

     negative rho (up, down):  1.974E+00 0.000E+00

     total cpu time spent up to now is     2758.6 secs

     total energy              =   -7425.28900647 Ry
     Harris-Foulkes estimate   =   -7425.28902711 Ry
     estimated scf accuracy    <       0.00011247 Ry

     iteration # 17     ecut=    50.00 Ry     beta=0.70
     Davidson diagonalization with overlap
     ethr =  1.03E-08,  avg # of iterations =  2.0

     negative rho (up, down):  1.974E+00 0.000E+00

     total cpu time spent up to now is     2864.3 secs

     total energy              =   -7425.28901582 Ry
     Harris-Foulkes estimate   =   -7425.28901883 Ry
     estimated scf accuracy    <       0.00001162 Ry

     iteration # 18     ecut=    50.00 Ry     beta=0.70
     Davidson diagonalization with overlap
     ethr =  1.45E-09,  avg # of iterations =  2.0

     negative rho (up, down):  1.974E+00 0.000E+00

     total cpu time spent up to now is     2973.3 secs

     total energy              =   -7425.28901714 Ry
     Harris-Foulkes estimate   =   -7425.28901768 Ry
     estimated scf accuracy    <       0.00000119 Ry

     iteration # 19     ecut=    50.00 Ry     beta=0.70
     Davidson diagonalization with overlap
     ethr =  1.48E-10,  avg # of iterations =  3.0

     negative rho (up, down):  1.974E+00 0.000E+00

     total cpu time spent up to now is     3120.1 secs

     total energy              =   -7425.28901714 Ry
     Harris-Foulkes estimate   =   -7425.28901768 Ry
     estimated scf accuracy    <       0.00000229 Ry

     iteration # 20     ecut=    50.00 Ry     beta=0.70
     Davidson diagonalization with overlap
     ethr =  1.48E-10,  avg # of iterations =  3.0

     negative rho (up, down):  1.974E+00 0.000E+00

     total cpu time spent up to now is     3237.7 secs

     total energy              =   -7425.28901731 Ry
     Harris-Foulkes estimate   =   -7425.28901756 Ry
     estimated scf accuracy    <       0.00000096 Ry

     iteration # 21     ecut=    50.00 Ry     beta=0.70
     Davidson diagonalization with overlap
     ethr =  1.20E-10,  avg # of iterations =  2.0

     negative rho (up, down):  1.974E+00 0.000E+00

     total cpu time spent up to now is     3350.1 secs

     total energy              =   -7425.28901738 Ry
     Harris-Foulkes estimate   =   -7425.28901747 Ry
     estimated scf accuracy    <       0.00000027 Ry

     iteration # 22     ecut=    50.00 Ry     beta=0.70
     Davidson diagonalization with overlap
     ethr =  3.43E-11,  avg # of iterations =  2.0

     negative rho (up, down):  1.974E+00 0.000E+00

     total cpu time spent up to now is     3457.9 secs

     total energy              =   -7425.28901740 Ry
     Harris-Foulkes estimate   =   -7425.28901744 Ry
     estimated scf accuracy    <       0.00000013 Ry

     iteration # 23     ecut=    50.00 Ry     beta=0.70
     Davidson diagonalization with overlap
     ethr =  1.66E-11,  avg # of iterations =  2.0

     negative rho (up, down):  1.974E+00 0.000E+00

     total cpu time spent up to now is     3567.2 secs

     total energy              =   -7425.28901741 Ry
     Harris-Foulkes estimate   =   -7425.28901742 Ry
     estimated scf accuracy    <       0.00000005 Ry

     iteration # 24     ecut=    50.00 Ry     beta=0.70
     Davidson diagonalization with overlap
     ethr =  6.20E-12,  avg # of iterations =  2.0

     negative rho (up, down):  1.974E+00 0.000E+00

     total cpu time spent up to now is     3689.3 secs

     total energy              =   -7425.28901740 Ry
     Harris-Foulkes estimate   =   -7425.28901742 Ry
     estimated scf accuracy    <       0.00000007 Ry

     iteration # 25     ecut=    50.00 Ry     beta=0.70
     Davidson diagonalization with overlap
     ethr =  6.20E-12,  avg # of iterations =  2.0

     negative rho (up, down):  1.974E+00 0.000E+00

     total cpu time spent up to now is     3805.4 secs

     total energy              =   -7425.28901740 Ry
     Harris-Foulkes estimate   =   -7425.28901741 Ry
     estimated scf accuracy    <       0.00000002 Ry

     iteration # 26     ecut=    50.00 Ry     beta=0.70
     Davidson diagonalization with overlap
     ethr =  2.08E-12,  avg # of iterations =  2.0

     negative rho (up, down):  1.974E+00 0.000E+00

     total cpu time spent up to now is     3914.9 secs

     total energy              =   -7425.28901740 Ry
     Harris-Foulkes estimate   =   -7425.28901741 Ry
     estimated scf accuracy    <       0.00000002 Ry

     iteration # 27     ecut=    50.00 Ry     beta=0.70
     Davidson diagonalization with overlap
     ethr =  2.08E-12,  avg # of iterations =  1.0

     negative rho (up, down):  1.974E+00 0.000E+00

     total cpu time spent up to now is     4014.7 secs

     End of self-consistent calculation

          k = 0.2500 0.2500 0.0833 (167653 PWs)   bands (ev):

   -19.6809  -7.5811  -6.8165  -6.2891  -6.2877  -5.8592  -5.4507  -5.3575
    -5.3567  -5.1612  -5.1606  -5.0447  -5.0426  -4.9645  -4.9423  -4.8689
    -4.7840  -4.7797  -4.7414  -4.7407  -4.5810  -4.5645  -4.5624  -4.5619
    -4.5549  -4.4999  -4.4996  -4.4883  -4.4874  -4.4504  -4.4404  -4.4378
    -4.3970  -4.3955  -4.3624  -4.3611  -4.3108  -4.3089  -4.2996  -4.2973
    -4.2914  -4.2793  -4.2782  -4.2387  -4.2195  -4.2193  -4.2120  -4.2117
    -4.1810  -4.1348  -4.1155  -4.1146  -4.1139  -4.1109  -4.1042  -4.0987
    -4.0975  -4.0964  -4.0348  -4.0324  -3.9933  -3.9818  -3.9702  -3.9447
    -3.9443  -3.9280  -3.9222  -3.9200  -3.9171  -3.9137  -3.8676  -3.8646
    -3.8520  -3.8512  -3.8155  -3.7464  -3.7449  -3.7394  -3.7352  -3.7014
    -3.6946  -3.6767  -3.6499  -3.6472  -3.6199  -3.6192  -3.5988  -3.5976
    -3.5863  -3.5843  -3.5296  -3.5288  -3.5139  -3.4947  -3.4857  -3.4846
    -3.4823  -3.4807  -3.4558  -3.4543  -3.4184  -3.4177  -3.3980  -3.3953
    -3.3642  -3.3617  -3.3455  -3.3176  -3.3159  -3.2799  -3.2787  -3.2441
    -3.2354  -3.2349  -3.2225  -3.2209  -3.2156  -3.2152  -3.1798  -3.1669
    -3.1279  -3.1273  -3.1181  -3.1110  -3.1082  -3.1067  -3.0833  -3.0828
    -3.0629  -3.0618  -3.0605  -3.0348  -3.0339  -3.0266  -3.0242  -3.0225
    -2.9870  -2.9847  -2.9492  -2.9477  -2.9470  -2.9445  -2.9432  -2.8638
    -2.8549  -2.8527  -2.8500  -2.8494  -2.8482  -2.8457  -2.8436  -2.8424
    -2.8421  -2.8329  -2.8250  -2.8109  -2.8077  -2.8059  -2.8042  -2.7910
    -2.7869  -2.7489  -2.7482  -2.7466  -2.7444  -2.7419  -2.7241  -2.7236
    -2.7163  -2.7154  -2.7120  -2.6564  -2.6539  -2.6498  -2.6476  -2.6446
    -2.6435  -2.6175  -2.5574  -2.5558  -2.5550  -2.5513  -2.5410  -2.5396
    -2.5364  -2.5251  -2.5229  -2.4958  -2.4857  -2.4815  -2.4781  -2.4773
    -2.4758  -2.4382  -2.4373  -2.4303  -2.4279  -2.4253  -2.4239  -2.3896
    -2.3714  -2.3655  -2.3094  -2.3075  -2.3023  -2.2902  -2.2854  -2.2821
    -2.2427  -2.2327  -2.2102  -2.2045  -2.1828  -2.1802  -2.1772  -2.1591
    -2.1560  -2.1470  -2.1385  -2.1134  -2.0902  -2.0864  -2.0741  -2.0730
    -2.0666  -2.0634  -2.0592  -2.0495  -2.0474  -2.0436  -2.0415  -2.0376
    -2.0364  -2.0296  -2.0273  -2.0190  -2.0072  -2.0065  -2.0001  -1.9967
    -1.9955  -1.9802  -1.9742  -1.9686  -1.9600  -1.9593  -1.9532  -1.9205
    -1.8921  -1.8824  -1.8740  -1.8464  -1.8299  -1.8279  -1.8193  -1.8123
    -1.7953  -1.7854  -1.7808  -1.7792  -1.7776  -1.7767  -1.7742  -1.7493
    -1.7418  -1.7409  -1.7350  -1.6962  -1.6885  -1.6579  -1.6520  -1.6088
    -1.6052  -1.5938  -1.5738  -1.5710  -1.5654  -1.5496  -1.5465  -1.5332
    -1.5294  -1.5259  -1.5254  -1.5237  -1.5227  -1.5200  -1.5112  -1.5011
    -1.4967  -1.4789  -1.4723  -1.4553  -1.4541  -1.4293  -1.4265  -1.4236
    -1.4228  -1.4190  -1.4087  -1.3973  -1.3911  -1.3803  -1.3721  -1.3584
    -1.3532  -1.3428  -1.3373  -1.3148  -1.3121  -1.3057  -1.2949  -1.2695
    -1.2662  -1.2595  -1.2586  -1.2527  -1.2432  -1.2296  -1.2288  -1.2191
    -1.2115  -1.2102  -1.1995  -1.1972  -1.1969  -1.1887  -1.1835  -1.1716
    -1.1701  -1.1631  -1.1624  -1.1514  -1.1467  -1.1411  -1.1344  -1.1016
    -1.1005  -1.0937  -1.0912  -1.0900  -1.0838  -1.0529  -1.0345  -1.0342
    -1.0337  -1.0322  -1.0300  -1.0239  -1.0201  -1.0086  -0.9976  -0.9729
    -0.9697  -0.9651  -0.9634  -0.9424  -0.9419  -0.9324  -0.9038  -0.8950
    -0.8695  -0.8668  -0.8400  -0.8392  -0.8363  -0.8358  -0.8335  -0.8290
    -0.8252  -0.8250  -0.8200  -0.8161  -0.7890  -0.7884  -0.7714  -0.7668
    -0.7659  -0.7639  -0.7623  -0.7444  -0.7381  -0.4710  -0.4571  -0.4024
    -0.3866  -0.3617  -0.1987  -0.1367  -0.1360  -0.0968   0.1814   0.1873
     0.5113   0.5197   0.6108   0.6131   0.6522   0.6564   0.7954   0.8048
     0.9195   0.9227   1.0140   1.6067   1.6255   1.6262   1.6634   1.6710
     1.7114   1.7242   1.7948   1.7999   2.0020   2.0046   2.2370   2.3161
     2.3208   2.3350   2.7108   2.7192   2.7872   2.7882   2.7962   2.7974
     2.9472   2.9474   2.9906   3.0899   3.0931   3.3212   3.3227   3.4568
     3.4831   3.4848   3.7539   3.7559   3.8599   3.8868   3.8881   3.9405
     3.9708   4.0744   4.0770   4.3095   4.3123   4.3985   4.4020   4.5153
     4.5230   4.5454   4.5581   4.6872   5.0834   5.3438   5.3582   5.4500
     5.4532   5.5297   5.6334   5.6364   5.6550   5.7037   5.7378   5.7506
     5.7554   5.8050   5.8080   5.8483   6.0244   6.0818   6.1124   6.1145
     6.1319   6.1388   6.1461   6.1542   6.1562   6.1592   6.1751   6.2199

          k = 0.2500 0.2500-0.2500 (167588 PWs)   bands (ev):

   -19.6809  -7.5811  -6.8165  -6.2891  -6.2877  -5.8592  -5.4507  -5.3575
    -5.3567  -5.1612  -5.1606  -5.0447  -5.0426  -4.9645  -4.9423  -4.8689
    -4.7840  -4.7797  -4.7414  -4.7407  -4.5810  -4.5645  -4.5624  -4.5619
    -4.5549  -4.4999  -4.4996  -4.4883  -4.4874  -4.4504  -4.4404  -4.4378
    -4.3970  -4.3955  -4.3624  -4.3611  -4.3107  -4.3089  -4.2996  -4.2973
    -4.2914  -4.2794  -4.2782  -4.2387  -4.2195  -4.2193  -4.2120  -4.2117
    -4.1810  -4.1348  -4.1155  -4.1146  -4.1139  -4.1109  -4.1042  -4.0987
    -4.0975  -4.0964  -4.0348  -4.0324  -3.9933  -3.9818  -3.9702  -3.9447
    -3.9443  -3.9280  -3.9222  -3.9200  -3.9171  -3.9137  -3.8676  -3.8646
    -3.8520  -3.8512  -3.8155  -3.7464  -3.7449  -3.7394  -3.7352  -3.7014
    -3.6946  -3.6767  -3.6499  -3.6472  -3.6199  -3.6192  -3.5988  -3.5976
    -3.5863  -3.5843  -3.5296  -3.5288  -3.5139  -3.4947  -3.4857  -3.4846
    -3.4823  -3.4807  -3.4558  -3.4543  -3.4184  -3.4177  -3.3980  -3.3953
    -3.3642  -3.3617  -3.3455  -3.3176  -3.3159  -3.2799  -3.2787  -3.2441
    -3.2354  -3.2349  -3.2225  -3.2209  -3.2156  -3.2152  -3.1798  -3.1669
    -3.1279  -3.1273  -3.1181  -3.1110  -3.1082  -3.1067  -3.0833  -3.0828
    -3.0629  -3.0618  -3.0605  -3.0348  -3.0339  -3.0266  -3.0242  -3.0225
    -2.9870  -2.9847  -2.9492  -2.9477  -2.9470  -2.9445  -2.9432  -2.8639
    -2.8549  -2.8527  -2.8500  -2.8494  -2.8482  -2.8457  -2.8436  -2.8424
    -2.8421  -2.8329  -2.8250  -2.8109  -2.8077  -2.8059  -2.8042  -2.7910
    -2.7869  -2.7489  -2.7482  -2.7466  -2.7444  -2.7419  -2.7241  -2.7236
    -2.7163  -2.7154  -2.7120  -2.6564  -2.6539  -2.6498  -2.6476  -2.6446
    -2.6434  -2.6175  -2.5574  -2.5558  -2.5550  -2.5513  -2.5410  -2.5396
    -2.5364  -2.5251  -2.5229  -2.4958  -2.4857  -2.4815  -2.4781  -2.4773
    -2.4758  -2.4382  -2.4373  -2.4303  -2.4279  -2.4253  -2.4239  -2.3896
    -2.3714  -2.3655  -2.3094  -2.3075  -2.3023  -2.2902  -2.2854  -2.2821
    -2.2427  -2.2327  -2.2102  -2.2045  -2.1828  -2.1802  -2.1772  -2.1591
    -2.1560  -2.1470  -2.1385  -2.1134  -2.0902  -2.0864  -2.0741  -2.0730
    -2.0666  -2.0634  -2.0592  -2.0495  -2.0474  -2.0436  -2.0415  -2.0376
    -2.0364  -2.0296  -2.0273  -2.0190  -2.0072  -2.0065  -2.0001  -1.9967
    -1.9955  -1.9802  -1.9742  -1.9686  -1.9600  -1.9593  -1.9532  -1.9206
    -1.8921  -1.8824  -1.8740  -1.8464  -1.8299  -1.8279  -1.8193  -1.8123
    -1.7953  -1.7854  -1.7808  -1.7792  -1.7776  -1.7767  -1.7742  -1.7493
    -1.7418  -1.7410  -1.7350  -1.6962  -1.6885  -1.6579  -1.6520  -1.6088
    -1.6052  -1.5938  -1.5738  -1.5710  -1.5654  -1.5496  -1.5465  -1.5332
    -1.5294  -1.5259  -1.5254  -1.5237  -1.5227  -1.5200  -1.5112  -1.5011
    -1.4967  -1.4789  -1.4723  -1.4553  -1.4541  -1.4293  -1.4265  -1.4236
    -1.4228  -1.4190  -1.4087  -1.3972  -1.3911  -1.3803  -1.3721  -1.3584
    -1.3532  -1.3428  -1.3373  -1.3148  -1.3121  -1.3057  -1.2949  -1.2694
    -1.2662  -1.2595  -1.2586  -1.2527  -1.2432  -1.2296  -1.2288  -1.2191
    -1.2115  -1.2102  -1.1995  -1.1972  -1.1969  -1.1887  -1.1835  -1.1716
    -1.1701  -1.1631  -1.1624  -1.1514  -1.1467  -1.1411  -1.1344  -1.1016
    -1.1005  -1.0937  -1.0912  -1.0900  -1.0838  -1.0529  -1.0345  -1.0342
    -1.0337  -1.0322  -1.0300  -1.0239  -1.0201  -1.0086  -0.9976  -0.9729
    -0.9697  -0.9651  -0.9634  -0.9424  -0.9419  -0.9324  -0.9038  -0.8950
    -0.8695  -0.8668  -0.8400  -0.8392  -0.8363  -0.8358  -0.8335  -0.8291
    -0.8252  -0.8250  -0.8200  -0.8161  -0.7890  -0.7884  -0.7714  -0.7668
    -0.7659  -0.7639  -0.7623  -0.7444  -0.7381  -0.4710  -0.4571  -0.4024
    -0.3866  -0.3617  -0.1987  -0.1367  -0.1360  -0.0968   0.1814   0.1873
     0.5113   0.5197   0.6108   0.6131   0.6522   0.6564   0.7954   0.8048
     0.9195   0.9227   1.0140   1.6067   1.6255   1.6262   1.6634   1.6710
     1.7114   1.7243   1.7948   1.7999   2.0020   2.0046   2.2370   2.3161
     2.3208   2.3350   2.7108   2.7192   2.7872   2.7882   2.7962   2.7974
     2.9472   2.9474   2.9906   3.0899   3.0931   3.3212   3.3227   3.4568
     3.4831   3.4848   3.7539   3.7559   3.8599   3.8868   3.8881   3.9406
     3.9709   4.0744   4.0770   4.3095   4.3123   4.3985   4.4020   4.5153
     4.5230   4.5454   4.5581   4.6873   5.0771   5.3409   5.3545   5.4486
     5.4528   5.5219   5.6337   5.6365   5.6828   5.7173   5.7470   5.7509
     5.7570   5.8049   5.8086   5.8493   6.0387   6.0828   6.1010   6.1158
     6.1309   6.1396   6.1480   6.1550   6.1576   6.1620   6.2085   6.2269

          k =-0.2500-0.2500 0.0833 (167653 PWs)   bands (ev):

   -19.6809  -7.5811  -6.8165  -6.2891  -6.2877  -5.8592  -5.4507  -5.3575
    -5.3567  -5.1612  -5.1606  -5.0447  -5.0426  -4.9645  -4.9423  -4.8689
    -4.7840  -4.7797  -4.7414  -4.7407  -4.5810  -4.5645  -4.5624  -4.5619
    -4.5549  -4.4999  -4.4996  -4.4883  -4.4874  -4.4504  -4.4404  -4.4378
    -4.3970  -4.3955  -4.3624  -4.3611  -4.3108  -4.3089  -4.2996  -4.2973
    -4.2914  -4.2793  -4.2782  -4.2387  -4.2195  -4.2193  -4.2120  -4.2117
    -4.1810  -4.1348  -4.1155  -4.1146  -4.1139  -4.1109  -4.1042  -4.0987
    -4.0975  -4.0964  -4.0348  -4.0324  -3.9933  -3.9818  -3.9702  -3.9447
    -3.9443  -3.9280  -3.9222  -3.9200  -3.9171  -3.9137  -3.8676  -3.8646
    -3.8520  -3.8512  -3.8155  -3.7464  -3.7449  -3.7394  -3.7352  -3.7014
    -3.6946  -3.6767  -3.6499  -3.6472  -3.6199  -3.6192  -3.5988  -3.5976
    -3.5863  -3.5843  -3.5296  -3.5288  -3.5139  -3.4947  -3.4857  -3.4846
    -3.4823  -3.4807  -3.4558  -3.4543  -3.4184  -3.4177  -3.3980  -3.3953
    -3.3642  -3.3617  -3.3455  -3.3176  -3.3159  -3.2799  -3.2787  -3.2441
    -3.2354  -3.2349  -3.2225  -3.2209  -3.2156  -3.2152  -3.1798  -3.1669
    -3.1279  -3.1273  -3.1181  -3.1110  -3.1082  -3.1067  -3.0833  -3.0828
    -3.0629  -3.0618  -3.0605  -3.0348  -3.0339  -3.0266  -3.0242  -3.0225
    -2.9870  -2.9847  -2.9492  -2.9477  -2.9470  -2.9445  -2.9432  -2.8638
    -2.8549  -2.8527  -2.8500  -2.8494  -2.8482  -2.8457  -2.8436  -2.8424
    -2.8421  -2.8329  -2.8250  -2.8109  -2.8077  -2.8059  -2.8042  -2.7910
    -2.7869  -2.7489  -2.7482  -2.7466  -2.7444  -2.7419  -2.7241  -2.7236
    -2.7163  -2.7154  -2.7120  -2.6564  -2.6539  -2.6498  -2.6476  -2.6446
    -2.6435  -2.6175  -2.5574  -2.5558  -2.5550  -2.5513  -2.5410  -2.5396
    -2.5364  -2.5251  -2.5229  -2.4958  -2.4857  -2.4815  -2.4781  -2.4773
    -2.4758  -2.4382  -2.4373  -2.4303  -2.4279  -2.4253  -2.4239  -2.3896
    -2.3714  -2.3655  -2.3094  -2.3075  -2.3023  -2.2902  -2.2854  -2.2821
    -2.2427  -2.2327  -2.2102  -2.2045  -2.1828  -2.1802  -2.1772  -2.1591
    -2.1560  -2.1470  -2.1385  -2.1134  -2.0902  -2.0864  -2.0741  -2.0730
    -2.0666  -2.0634  -2.0592  -2.0495  -2.0474  -2.0436  -2.0415  -2.0376
    -2.0364  -2.0296  -2.0273  -2.0190  -2.0072  -2.0065  -2.0001  -1.9967
    -1.9955  -1.9802  -1.9742  -1.9686  -1.9600  -1.9593  -1.9532  -1.9205
    -1.8921  -1.8824  -1.8740  -1.8464  -1.8299  -1.8279  -1.8193  -1.8123
    -1.7953  -1.7854  -1.7808  -1.7792  -1.7776  -1.7767  -1.7742  -1.7493
    -1.7418  -1.7409  -1.7350  -1.6962  -1.6885  -1.6579  -1.6520  -1.6088
    -1.6052  -1.5938  -1.5738  -1.5710  -1.5654  -1.5496  -1.5465  -1.5332
    -1.5294  -1.5259  -1.5254  -1.5237  -1.5227  -1.5200  -1.5112  -1.5011
    -1.4967  -1.4789  -1.4723  -1.4553  -1.4541  -1.4293  -1.4265  -1.4236
    -1.4228  -1.4190  -1.4087  -1.3973  -1.3911  -1.3803  -1.3721  -1.3584
    -1.3532  -1.3428  -1.3373  -1.3148  -1.3121  -1.3057  -1.2949  -1.2695
    -1.2662  -1.2595  -1.2586  -1.2527  -1.2432  -1.2296  -1.2288  -1.2191
    -1.2115  -1.2102  -1.1995  -1.1972  -1.1969  -1.1887  -1.1835  -1.1716
    -1.1701  -1.1631  -1.1624  -1.1514  -1.1467  -1.1411  -1.1344  -1.1016
    -1.1005  -1.0937  -1.0912  -1.0900  -1.0838  -1.0529  -1.0345  -1.0342
    -1.0337  -1.0322  -1.0300  -1.0239  -1.0201  -1.0086  -0.9976  -0.9729
    -0.9697  -0.9651  -0.9634  -0.9424  -0.9419  -0.9324  -0.9038  -0.8950
    -0.8695  -0.8668  -0.8400  -0.8392  -0.8363  -0.8358  -0.8335  -0.8290
    -0.8252  -0.8250  -0.8200  -0.8161  -0.7890  -0.7884  -0.7714  -0.7668
    -0.7659  -0.7639  -0.7623  -0.7444  -0.7381  -0.4710  -0.4571  -0.4024
    -0.3866  -0.3617  -0.1987  -0.1367  -0.1360  -0.0968   0.1814   0.1873
     0.5113   0.5197   0.6108   0.6131   0.6522   0.6564   0.7954   0.8048
     0.9195   0.9227   1.0140   1.6067   1.6255   1.6262   1.6634   1.6710
     1.7114   1.7242   1.7948   1.7999   2.0020   2.0046   2.2370   2.3161
     2.3208   2.3350   2.7108   2.7192   2.7872   2.7882   2.7962   2.7974
     2.9472   2.9474   2.9906   3.0899   3.0931   3.3212   3.3227   3.4568
     3.4831   3.4848   3.7539   3.7559   3.8599   3.8868   3.8881   3.9405
     3.9708   4.0744   4.0770   4.3095   4.3123   4.3985   4.4020   4.5153
     4.5230   4.5454   4.5581   4.6873   5.0832   5.3437   5.3592   5.4503
     5.4530   5.5270   5.6324   5.6363   5.6590   5.7042   5.7376   5.7506
     5.7556   5.8050   5.8080   5.8482   6.0253   6.0825   6.1104   6.1149
     6.1322   6.1383   6.1459   6.1536   6.1567   6.1596   6.1706   6.2175

          k =-0.2500 0.2500-0.0833 (167653 PWs)   bands (ev):

   -19.6809  -7.5811  -6.8165  -6.2900  -6.2870  -5.8590  -5.4506  -5.3587
    -5.3552  -5.1615  -5.1607  -5.0461  -5.0417  -4.9646  -4.9418  -4.8686
    -4.7839  -4.7801  -4.7422  -4.7409  -4.5810  -4.5648  -4.5637  -4.5605
    -4.5548  -4.5002  -4.4997  -4.4891  -4.4860  -4.4504  -4.4408  -4.4365
    -4.3967  -4.3954  -4.3624  -4.3610  -4.3120  -4.3073  -4.2997  -4.2973
    -4.2914  -4.2790  -4.2783  -4.2387  -4.2206  -4.2188  -4.2127  -4.2108
    -4.1807  -4.1315  -4.1209  -4.1156  -4.1132  -4.1108  -4.1044  -4.0981
    -4.0974  -4.0966  -4.0357  -4.0307  -3.9862  -3.9818  -3.9707  -3.9465
    -3.9437  -3.9360  -3.9207  -3.9202  -3.9166  -3.9136  -3.8662  -3.8646
    -3.8536  -3.8502  -3.8175  -3.7474  -3.7443  -3.7399  -3.7339  -3.7020
    -3.6950  -3.6767  -3.6500  -3.6424  -3.6210  -3.6179  -3.5996  -3.5975
    -3.5877  -3.5832  -3.5304  -3.5288  -3.5151  -3.4940  -3.4863  -3.4848
    -3.4821  -3.4813  -3.4554  -3.4543  -3.4190  -3.4167  -3.3979  -3.3948
    -3.3642  -3.3614  -3.3454  -3.3183  -3.3161  -3.2807  -3.2779  -3.2439
    -3.2350  -3.2349  -3.2223  -3.2203  -3.2163  -3.2152  -3.1799  -3.1667
    -3.1280  -3.1275  -3.1183  -3.1105  -3.1082  -3.1062  -3.0835  -3.0829
    -3.0643  -3.0619  -3.0588  -3.0346  -3.0337  -3.0266  -3.0246  -3.0224
    -2.9872  -2.9845  -2.9509  -2.9479  -2.9466  -2.9445  -2.9433  -2.8640
    -2.8547  -2.8539  -2.8505  -2.8481  -2.8480  -2.8465  -2.8435  -2.8426
    -2.8419  -2.8328  -2.8249  -2.8115  -2.8087  -2.8062  -2.8042  -2.7905
    -2.7881  -2.7491  -2.7480  -2.7465  -2.7449  -2.7406  -2.7253  -2.7225
    -2.7169  -2.7153  -2.7121  -2.6563  -2.6541  -2.6502  -2.6479  -2.6456
    -2.6429  -2.6161  -2.5563  -2.5558  -2.5539  -2.5514  -2.5420  -2.5400
    -2.5341  -2.5248  -2.5227  -2.4931  -2.4842  -2.4836  -2.4807  -2.4767
    -2.4744  -2.4398  -2.4362  -2.4299  -2.4266  -2.4265  -2.4232  -2.3876
    -2.3726  -2.3639  -2.3112  -2.3072  -2.2988  -2.2919  -2.2845  -2.2824
    -2.2379  -2.2319  -2.2100  -2.2004  -2.1834  -2.1807  -2.1774  -2.1620
    -2.1572  -2.1468  -2.1417  -2.1068  -2.0958  -2.0811  -2.0751  -2.0733
    -2.0713  -2.0633  -2.0582  -2.0529  -2.0473  -2.0434  -2.0408  -2.0372
    -2.0355  -2.0289  -2.0254  -2.0147  -2.0082  -2.0056  -2.0033  -1.9975
    -1.9958  -1.9783  -1.9738  -1.9690  -1.9612  -1.9593  -1.9539  -1.9262
    -1.9081  -1.8850  -1.8800  -1.8463  -1.8309  -1.8280  -1.8181  -1.8093
    -1.7957  -1.7910  -1.7807  -1.7793  -1.7781  -1.7771  -1.7739  -1.7443
    -1.7420  -1.7407  -1.7134  -1.6968  -1.6945  -1.6580  -1.6473  -1.6090
    -1.6059  -1.5940  -1.5736  -1.5701  -1.5650  -1.5531  -1.5445  -1.5342
    -1.5315  -1.5281  -1.5249  -1.5240  -1.5218  -1.5207  -1.5147  -1.5017
    -1.4959  -1.4786  -1.4728  -1.4547  -1.4499  -1.4310  -1.4267  -1.4244
    -1.4224  -1.4175  -1.4124  -1.3975  -1.3876  -1.3810  -1.3705  -1.3584
    -1.3508  -1.3464  -1.3333  -1.3148  -1.3113  -1.3052  -1.2974  -1.2726
    -1.2640  -1.2623  -1.2583  -1.2526  -1.2426  -1.2315  -1.2282  -1.2188
    -1.2137  -1.2083  -1.2008  -1.1975  -1.1954  -1.1881  -1.1834  -1.1724
    -1.1674  -1.1641  -1.1625  -1.1512  -1.1490  -1.1419  -1.1301  -1.1001
    -1.0969  -1.0945  -1.0921  -1.0904  -1.0850  -1.0527  -1.0377  -1.0338
    -1.0331  -1.0314  -1.0288  -1.0245  -1.0150  -1.0088  -0.9990  -0.9754
    -0.9665  -0.9646  -0.9611  -0.9431  -0.9413  -0.9321  -0.9034  -0.8950
    -0.8698  -0.8658  -0.8404  -0.8400  -0.8365  -0.8357  -0.8335  -0.8290
    -0.8256  -0.8224  -0.8209  -0.8194  -0.7897  -0.7871  -0.7726  -0.7675
    -0.7653  -0.7636  -0.7626  -0.7455  -0.7348  -0.4714  -0.4570  -0.4054
    -0.3824  -0.3622  -0.2020  -0.1388  -0.1350  -0.0974   0.1803   0.1895
     0.5065   0.5240   0.6098   0.6138   0.6494   0.6570   0.7905   0.8084
     0.9194   0.9232   1.0154   1.6065   1.6249   1.6278   1.6660   1.6706
     1.7022   1.7320   1.7899   1.8067   1.9987   2.0075   2.2385   2.3091
     2.3286   2.3345   2.7000   2.7271   2.7863   2.7901   2.7950   2.7993
     2.9457   2.9488   2.9869   3.0813   3.1037   3.3198   3.3240   3.4549
     3.4775   3.4921   3.7439   3.7623   3.8660   3.8872   3.8904   3.9306
     3.9768   4.0695   4.0788   4.3056   4.3138   4.3970   4.4051   4.5111
     4.5248   4.5393   4.5701   4.6876   5.0835   5.3333   5.3657   5.4493
     5.4606   5.5334   5.6238   5.6414   5.6633   5.7062   5.7211   5.7498
     5.7596   5.7990   5.8071   5.8507   6.0172   6.0885   6.1051   6.1238
     6.1329   6.1359   6.1406   6.1504   6.1576   6.1638   6.1843   6.2102

          k = 0.2500-0.2500-0.0833 (167653 PWs)   bands (ev):

   -19.6809  -7.5811  -6.8165  -6.2900  -6.2870  -5.8590  -5.4506  -5.3587
    -5.3552  -5.1615  -5.1607  -5.0461  -5.0417  -4.9646  -4.9418  -4.8686
    -4.7839  -4.7801  -4.7422  -4.7409  -4.5810  -4.5648  -4.5637  -4.5605
    -4.5548  -4.5002  -4.4997  -4.4891  -4.4860  -4.4504  -4.4408  -4.4365
    -4.3967  -4.3954  -4.3624  -4.3610  -4.3120  -4.3073  -4.2997  -4.2973
    -4.2914  -4.2790  -4.2783  -4.2387  -4.2206  -4.2188  -4.2127  -4.2108
    -4.1807  -4.1315  -4.1209  -4.1156  -4.1132  -4.1108  -4.1044  -4.0981
    -4.0974  -4.0966  -4.0357  -4.0307  -3.9862  -3.9818  -3.9707  -3.9465
    -3.9437  -3.9360  -3.9207  -3.9202  -3.9166  -3.9136  -3.8662  -3.8646
    -3.8536  -3.8502  -3.8175  -3.7474  -3.7443  -3.7399  -3.7339  -3.7020
    -3.6950  -3.6767  -3.6500  -3.6424  -3.6210  -3.6179  -3.5996  -3.5975
    -3.5877  -3.5832  -3.5304  -3.5288  -3.5151  -3.4940  -3.4863  -3.4848
    -3.4821  -3.4813  -3.4554  -3.4543  -3.4190  -3.4167  -3.3979  -3.3948
    -3.3642  -3.3614  -3.3454  -3.3183  -3.3161  -3.2807  -3.2779  -3.2439
    -3.2350  -3.2349  -3.2223  -3.2203  -3.2163  -3.2152  -3.1799  -3.1667
    -3.1280  -3.1275  -3.1183  -3.1105  -3.1082  -3.1062  -3.0835  -3.0829
    -3.0643  -3.0619  -3.0588  -3.0346  -3.0337  -3.0266  -3.0246  -3.0224
    -2.9872  -2.9845  -2.9509  -2.9479  -2.9466  -2.9445  -2.9433  -2.8640
    -2.8547  -2.8539  -2.8505  -2.8481  -2.8480  -2.8465  -2.8435  -2.8426
    -2.8419  -2.8328  -2.8249  -2.8115  -2.8087  -2.8062  -2.8042  -2.7905
    -2.7881  -2.7491  -2.7480  -2.7465  -2.7449  -2.7406  -2.7253  -2.7225
    -2.7169  -2.7153  -2.7121  -2.6563  -2.6541  -2.6502  -2.6479  -2.6456
    -2.6429  -2.6161  -2.5563  -2.5558  -2.5539  -2.5514  -2.5420  -2.5400
    -2.5341  -2.5248  -2.5227  -2.4931  -2.4842  -2.4836  -2.4807  -2.4767
    -2.4744  -2.4398  -2.4362  -2.4299  -2.4266  -2.4265  -2.4232  -2.3876
    -2.3726  -2.3639  -2.3112  -2.3072  -2.2988  -2.2919  -2.2845  -2.2824
    -2.2379  -2.2319  -2.2100  -2.2004  -2.1834  -2.1807  -2.1774  -2.1620
    -2.1572  -2.1468  -2.1417  -2.1068  -2.0958  -2.0811  -2.0751  -2.0733
    -2.0713  -2.0633  -2.0582  -2.0529  -2.0473  -2.0434  -2.0408  -2.0372
    -2.0355  -2.0289  -2.0254  -2.0147  -2.0082  -2.0056  -2.0033  -1.9975
    -1.9958  -1.9783  -1.9738  -1.9690  -1.9612  -1.9593  -1.9539  -1.9262
    -1.9081  -1.8850  -1.8800  -1.8463  -1.8309  -1.8280  -1.8181  -1.8093
    -1.7957  -1.7910  -1.7807  -1.7793  -1.7781  -1.7771  -1.7739  -1.7443
    -1.7420  -1.7407  -1.7134  -1.6968  -1.6945  -1.6580  -1.6473  -1.6090
    -1.6059  -1.5940  -1.5736  -1.5701  -1.5650  -1.5531  -1.5445  -1.5342
    -1.5315  -1.5281  -1.5249  -1.5240  -1.5218  -1.5207  -1.5147  -1.5017
    -1.4959  -1.4786  -1.4728  -1.4547  -1.4499  -1.4310  -1.4267  -1.4244
    -1.4224  -1.4175  -1.4124  -1.3975  -1.3876  -1.3810  -1.3705  -1.3584
    -1.3508  -1.3464  -1.3333  -1.3148  -1.3113  -1.3052  -1.2974  -1.2726
    -1.2640  -1.2623  -1.2583  -1.2526  -1.2426  -1.2315  -1.2282  -1.2188
    -1.2137  -1.2083  -1.2008  -1.1975  -1.1954  -1.1881  -1.1834  -1.1724
    -1.1674  -1.1641  -1.1625  -1.1512  -1.1490  -1.1419  -1.1301  -1.1001
    -1.0969  -1.0945  -1.0921  -1.0904  -1.0850  -1.0527  -1.0377  -1.0338
    -1.0331  -1.0314  -1.0288  -1.0245  -1.0150  -1.0088  -0.9990  -0.9754
    -0.9665  -0.9646  -0.9611  -0.9431  -0.9413  -0.9321  -0.9034  -0.8950
    -0.8698  -0.8658  -0.8404  -0.8400  -0.8365  -0.8357  -0.8335  -0.8290
    -0.8256  -0.8224  -0.8209  -0.8194  -0.7897  -0.7871  -0.7726  -0.7675
    -0.7653  -0.7636  -0.7626  -0.7455  -0.7348  -0.4714  -0.4570  -0.4054
    -0.3824  -0.3622  -0.2020  -0.1388  -0.1350  -0.0974   0.1803   0.1895
     0.5065   0.5240   0.6098   0.6138   0.6494   0.6570   0.7905   0.8084
     0.9194   0.9232   1.0154   1.6065   1.6249   1.6278   1.6660   1.6706
     1.7022   1.7320   1.7899   1.8067   1.9987   2.0075   2.2385   2.3091
     2.3286   2.3345   2.7000   2.7271   2.7863   2.7901   2.7950   2.7993
     2.9457   2.9488   2.9869   3.0813   3.1037   3.3198   3.3240   3.4549
     3.4775   3.4921   3.7439   3.7623   3.8660   3.8872   3.8904   3.9306
     3.9768   4.0695   4.0788   4.3056   4.3138   4.3970   4.4051   4.5111
     4.5248   4.5393   4.5701   4.6876   5.0836   5.3335   5.3651   5.4491
     5.4604   5.5347   5.6240   5.6414   5.6634   5.7050   5.7204   5.7496
     5.7596   5.7990   5.8071   5.8507   6.0155   6.0865   6.1042   6.1239
     6.1337   6.1367   6.1408   6.1503   6.1576   6.1629   6.1906   6.2169

          k =-0.2500 0.2500 0.2500 (167588 PWs)   bands (ev):

   -19.6809  -7.5811  -6.8165  -6.2900  -6.2870  -5.8590  -5.4506  -5.3587
    -5.3552  -5.1615  -5.1607  -5.0461  -5.0417  -4.9646  -4.9418  -4.8686
    -4.7839  -4.7801  -4.7422  -4.7409  -4.5810  -4.5648  -4.5637  -4.5605
    -4.5548  -4.5002  -4.4997  -4.4891  -4.4860  -4.4504  -4.4408  -4.4365
    -4.3967  -4.3954  -4.3624  -4.3610  -4.3120  -4.3073  -4.2997  -4.2973
    -4.2914  -4.2790  -4.2783  -4.2387  -4.2206  -4.2188  -4.2127  -4.2108
    -4.1807  -4.1315  -4.1209  -4.1156  -4.1132  -4.1108  -4.1044  -4.0981
    -4.0974  -4.0966  -4.0357  -4.0307  -3.9862  -3.9818  -3.9707  -3.9465
    -3.9437  -3.9360  -3.9207  -3.9201  -3.9166  -3.9136  -3.8662  -3.8646
    -3.8536  -3.8502  -3.8175  -3.7474  -3.7443  -3.7399  -3.7339  -3.7020
    -3.6950  -3.6767  -3.6500  -3.6424  -3.6210  -3.6179  -3.5996  -3.5975
    -3.5877  -3.5832  -3.5304  -3.5288  -3.5151  -3.4940  -3.4863  -3.4848
    -3.4821  -3.4813  -3.4554  -3.4543  -3.4189  -3.4167  -3.3979  -3.3948
    -3.3642  -3.3614  -3.3454  -3.3183  -3.3161  -3.2807  -3.2779  -3.2439
    -3.2350  -3.2349  -3.2223  -3.2203  -3.2163  -3.2152  -3.1799  -3.1667
    -3.1280  -3.1275  -3.1183  -3.1105  -3.1082  -3.1062  -3.0835  -3.0829
    -3.0643  -3.0619  -3.0588  -3.0346  -3.0337  -3.0266  -3.0246  -3.0224
    -2.9872  -2.9845  -2.9509  -2.9479  -2.9466  -2.9445  -2.9433  -2.8640
    -2.8547  -2.8539  -2.8505  -2.8481  -2.8480  -2.8465  -2.8435  -2.8426
    -2.8419  -2.8328  -2.8249  -2.8115  -2.8087  -2.8062  -2.8042  -2.7905
    -2.7881  -2.7491  -2.7480  -2.7465  -2.7449  -2.7406  -2.7253  -2.7225
    -2.7169  -2.7153  -2.7121  -2.6563  -2.6541  -2.6502  -2.6479  -2.6456
    -2.6428  -2.6161  -2.5563  -2.5558  -2.5539  -2.5514  -2.5420  -2.5400
    -2.5341  -2.5248  -2.5227  -2.4931  -2.4841  -2.4835  -2.4807  -2.4767
    -2.4744  -2.4398  -2.4362  -2.4299  -2.4266  -2.4265  -2.4232  -2.3876
    -2.3726  -2.3639  -2.3112  -2.3072  -2.2988  -2.2919  -2.2845  -2.2824
    -2.2379  -2.2319  -2.2100  -2.2004  -2.1834  -2.1807  -2.1774  -2.1620
    -2.1572  -2.1468  -2.1417  -2.1068  -2.0958  -2.0811  -2.0751  -2.0733
    -2.0713  -2.0633  -2.0582  -2.0529  -2.0473  -2.0434  -2.0408  -2.0372
    -2.0355  -2.0289  -2.0254  -2.0147  -2.0082  -2.0056  -2.0033  -1.9975
    -1.9958  -1.9783  -1.9739  -1.9690  -1.9612  -1.9593  -1.9539  -1.9262
    -1.9081  -1.8850  -1.8800  -1.8463  -1.8309  -1.8280  -1.8181  -1.8093
    -1.7957  -1.7910  -1.7807  -1.7793  -1.7781  -1.7770  -1.7739  -1.7443
    -1.7420  -1.7407  -1.7134  -1.6968  -1.6945  -1.6580  -1.6473  -1.6090
    -1.6059  -1.5940  -1.5736  -1.5701  -1.5650  -1.5531  -1.5445  -1.5342
    -1.5315  -1.5281  -1.5249  -1.5240  -1.5218  -1.5207  -1.5147  -1.5017
    -1.4959  -1.4786  -1.4728  -1.4547  -1.4499  -1.4310  -1.4267  -1.4244
    -1.4224  -1.4175  -1.4124  -1.3975  -1.3876  -1.3810  -1.3705  -1.3584
    -1.3508  -1.3464  -1.3333  -1.3148  -1.3113  -1.3052  -1.2974  -1.2725
    -1.2640  -1.2623  -1.2583  -1.2526  -1.2426  -1.2315  -1.2282  -1.2188
    -1.2137  -1.2083  -1.2008  -1.1975  -1.1954  -1.1881  -1.1834  -1.1724
    -1.1674  -1.1641  -1.1625  -1.1512  -1.1490  -1.1419  -1.1301  -1.1001
    -1.0969  -1.0945  -1.0921  -1.0904  -1.0850  -1.0527  -1.0376  -1.0338
    -1.0331  -1.0314  -1.0288  -1.0245  -1.0150  -1.0088  -0.9990  -0.9754
    -0.9665  -0.9646  -0.9611  -0.9431  -0.9413  -0.9321  -0.9034  -0.8950
    -0.8698  -0.8658  -0.8404  -0.8400  -0.8365  -0.8357  -0.8335  -0.8290
    -0.8255  -0.8224  -0.8209  -0.8194  -0.7897  -0.7871  -0.7726  -0.7675
    -0.7653  -0.7636  -0.7626  -0.7455  -0.7348  -0.4714  -0.4570  -0.4054
    -0.3824  -0.3622  -0.2020  -0.1388  -0.1350  -0.0974   0.1803   0.1895
     0.5065   0.5240   0.6098   0.6138   0.6494   0.6570   0.7905   0.8084
     0.9194   0.9232   1.0154   1.6065   1.6249   1.6278   1.6660   1.6706
     1.7022   1.7320   1.7899   1.8067   1.9987   2.0075   2.2385   2.3091
     2.3286   2.3345   2.7000   2.7271   2.7863   2.7901   2.7950   2.7993
     2.9457   2.9488   2.9869   3.0813   3.1037   3.3198   3.3240   3.4549
     3.4775   3.4921   3.7439   3.7623   3.8660   3.8872   3.8904   3.9307
     3.9769   4.0695   4.0788   4.3056   4.3138   4.3970   4.4051   4.5111
     4.5248   4.5393   4.5701   4.6877   5.0774   5.3309   5.3604   5.4486
     5.4603   5.5291   5.6241   5.6412   5.6824   5.7024   5.7476   5.7522
     5.7669   5.7991   5.8073   5.8508   6.0332   6.0842   6.1003   6.1146
     6.1318   6.1391   6.1506   6.1541   6.1577   6.1726   6.1985   6.2388

     the Fermi energy is     0.8725 ev

!    total energy              =   -7425.28901740 Ry
     Harris-Foulkes estimate   =   -7425.28901741 Ry
     estimated scf accuracy    <          4.4E-09 Ry

     The total energy is the sum of the following terms:

     one-electron contribution =  -48833.12140574 Ry
     hartree contribution      =   24967.47040642 Ry
     xc contribution           =   -3604.24020323 Ry
     ewald contribution        =   20044.60486976 Ry
     smearing contrib. (-TS)   =      -0.00268461 Ry

     convergence has been achieved in  27 iterations

     negative rho (up, down):  1.974E+00 0.000E+00

     Forces acting on atoms (Ry/au):

     atom    1 type  3   force =     0.01103885    0.01699622    0.01635734
     atom    2 type  2   force =    -0.01133155   -0.00852960   -0.00330269
     atom    3 type  2   force =     0.00451020   -0.00292193    0.00233921
     atom    4 type  1   force =    -0.00040112   -0.00028359    0.00213558
     atom    5 type  1   force =    -0.00000624   -0.00023871    0.00216501
     atom    6 type  1   force =     0.00000926   -0.00025596    0.00185661
     atom    7 type  1   force =     0.00009724   -0.00001686    0.00182453
     atom    8 type  1   force =    -0.00004944   -0.00001685    0.00180998
     atom    9 type  1   force =     0.00025892   -0.00015156    0.00192346
     atom   10 type  1   force =    -0.00026419    0.00009658    0.00196010
     atom   11 type  1   force =    -0.00003366   -0.00005406    0.00172820
     atom   12 type  1   force =    -0.00000451    0.00004663    0.00158468
     atom   13 type  1   force =    -0.00005657   -0.00004030    0.00168615
     atom   14 type  1   force =     0.00007897   -0.00002878    0.00161854
     atom   15 type  1   force =     0.00027623    0.00001675    0.00217931
     atom   16 type  1   force =    -0.00030871   -0.00002520    0.00199390
     atom   17 type  1   force =    -0.00001559    0.00007164    0.00155849
     atom   18 type  1   force =     0.00002876    0.00003655    0.00178858
     atom   19 type  1   force =     0.00002391    0.00028522    0.00180514
     atom   20 type  1   force =     0.00005475    0.00028512    0.00198996
     atom   21 type  1   force =     0.00029853    0.00025534    0.00209588
     atom   22 type  1   force =    -0.00022012   -0.00055270   -0.00128316
     atom   23 type  1   force =     0.00009100   -0.00039372   -0.00122112
     atom   24 type  1   force =     0.00041561   -0.00039809   -0.00095222
     atom   25 type  1   force =    -0.00050144   -0.00002112   -0.00105839
     atom   26 type  1   force =     0.00009881    0.00014205   -0.00109428
     atom   27 type  1   force =     0.00013291    0.00001945   -0.00105167
     atom   28 type  1   force =     0.00000808    0.00010830   -0.00099245
     atom   29 type  1   force =     0.00015824    0.00007557   -0.00126677
     atom   30 type  1   force =     0.00040685   -0.00019872   -0.00128331
     atom   31 type  1   force =    -0.00020844    0.00008055   -0.00111695
     atom   32 type  1   force =    -0.00000609    0.00005850   -0.00140940
     atom   33 type  1   force =    -0.00048622   -0.00003312   -0.00102100
     atom   34 type  1   force =     0.00005226    0.00013075   -0.00130819
     atom   35 type  1   force =    -0.00019885   -0.00007700   -0.00125416
     atom   36 type  1   force =     0.00050616    0.00012545   -0.00127821
     atom   37 type  1   force =    -0.00037355    0.00048991   -0.00110502
     atom   38 type  1   force =    -0.00001312   -0.00015942   -0.00104055
     atom   39 type  1   force =     0.00009639    0.00053198   -0.00118408
     atom   40 type  1   force =    -0.00036263   -0.00046369    0.00000052
     atom   41 type  1   force =     0.00005616   -0.00054943   -0.00005911
     atom   42 type  1   force =     0.00006980   -0.00048566   -0.00005390
     atom   43 type  1   force =    -0.00075608    0.00017863   -0.00057730
     atom   44 type  1   force =     0.00031232    0.00037327   -0.00034151
     atom   45 type  1   force =     0.00027432    0.00001797   -0.00017319
     atom   46 type  1   force =    -0.00046312   -0.00003622    0.00005296
     atom   47 type  1   force =    -0.00017340   -0.00084896    0.00099509
     atom   48 type  1   force =     0.00025136    0.00005958    0.00001382
     atom   49 type  1   force =     0.00011698   -0.00049566   -0.00070705
     atom   50 type  1   force =    -0.00004275   -0.00014342   -0.00016851
     atom   51 type  1   force =     0.00031763   -0.00002373    0.00000359
     atom   52 type  1   force =     0.00033741    0.00031839    0.00002948
     atom   53 type  1   force =    -0.00084207   -0.00012367    0.00085250
     atom   54 type  1   force =     0.00029561    0.00009501    0.00009049
     atom   55 type  1   force =    -0.00005192    0.00053734   -0.00001277
     atom   56 type  1   force =     0.00003172    0.00058649   -0.00003513
     atom   57 type  1   force =     0.00029222    0.00040425   -0.00007848
     atom   58 type  1   force =    -0.00001420   -0.00017874   -0.00055824
     atom   59 type  1   force =     0.00001269   -0.00017996   -0.00060099
     atom   60 type  1   force =     0.00034468   -0.00011473   -0.00098481
     atom   61 type  1   force =    -0.00015560    0.00005073   -0.00012008
     atom   62 type  1   force =    -0.00004881   -0.00025463   -0.00039612
     atom   63 type  1   force =     0.00002900   -0.00006186   -0.00046335
     atom   64 type  1   force =    -0.00681061   -0.00706259   -0.01552122
     atom   65 type  1   force =     0.00078963   -0.00045853   -0.00096840
     atom   66 type  1   force =     0.00020474   -0.00005384   -0.00059472
     atom   67 type  1   force =    -0.00020517   -0.00024958   -0.00065269
     atom   68 type  1   force =     0.00239186    0.00227417   -0.00174809
     atom   69 type  1   force =    -0.00003766   -0.00008796   -0.00053687
     atom   70 type  1   force =    -0.00034613    0.00061861   -0.00108724
     atom   71 type  1   force =     0.00011264    0.00008603   -0.00055852
     atom   72 type  1   force =     0.00027531    0.00000652   -0.00072114
     atom   73 type  1   force =    -0.00029523    0.00030392   -0.00093216
     atom   74 type  1   force =    -0.00003810    0.00027813   -0.00078371
     atom   75 type  1   force =    -0.00003512    0.00022858   -0.00078021

     Total force =     0.030409     Total SCF correction =     0.000009

     BFGS Geometry Optimization

     number of scf cycles    =   1
     number of bfgs steps    =   0

     energy   new            =   -7425.2890173983 Ry

     new trust radius        =       0.0260440055 bohr
     new conv_thr            =       0.0000000100 Ry


ATOMIC_POSITIONS (angstrom)
O        3.196142447   5.326163199   9.082700162
H        2.583335640   4.731903620   8.572253371
H        3.775435436   4.704696642   9.560392195
Au       0.000000000   0.000000000   0.000000000    0   0   0
Au       4.253737926   0.000000000   0.000000000    0   0   0
Au       8.507475853   0.000000000   0.000000000    0   0   0
Au       2.126868963   2.126868963   0.000000000    0   0   0
Au       6.380607128   2.126868963   0.000000000    0   0   0
Au      10.634344101   2.126868963   0.000000000    0   0   0
Au       0.000000000   4.253737926   0.000000000    0   0   0
Au       4.253737926   4.253737926   0.000000000    0   0   0
Au       8.507475853   4.253737926   0.000000000    0   0   0
Au       2.126868963   6.380607128   0.000000000    0   0   0
Au       6.380607128   6.380607128   0.000000000    0   0   0
Au      10.634344101   6.380607128   0.000000000    0   0   0
Au       0.000000000   8.507475853   0.000000000    0   0   0
Au       4.253737926   8.507475853   0.000000000    0   0   0
Au       8.507475853   8.507475853   0.000000000    0   0   0
Au       2.126868963  10.634344101   0.000000000    0   0   0
Au       6.380607128  10.634344101   0.000000000    0   0   0
Au      10.634344101  10.634344101   0.000000000    0   0   0
Au       2.126868963   0.000000000   2.126868963    0   0   0
Au       6.380607128   0.000000000   2.126868963    0   0   0
Au      10.634344101   0.000000000   2.126868963    0   0   0
Au       0.000000000   2.126868963   2.126868963    0   0   0
Au       4.253737926   2.126868963   2.126868963    0   0   0
Au       8.507475853   2.126868963   2.126868963    0   0   0
Au       2.126868963   4.253737926   2.126868963    0   0   0
Au       6.380607128   4.253737926   2.126868963    0   0   0
Au      10.634344101   4.253737926   2.126868963    0   0   0
Au       0.000000000   6.380607128   2.126868963    0   0   0
Au       4.253737926   6.380607128   2.126868963    0   0   0
Au       8.507475853   6.380607128   2.126868963    0   0   0
Au       2.126868963   8.507475853   2.126868963    0   0   0
Au       6.380607128   8.507475853   2.126868963    0   0   0
Au      10.634344101   8.507475853   2.126868963    0   0   0
Au       0.000000000  10.634344101   2.126868963    0   0   0
Au       4.253737926  10.634344101   2.126868963    0   0   0
Au       8.507475853  10.634344101   2.126868963    0   0   0
Au      -0.000231899  -0.000231899   4.257900238    0   0   0
Au       4.253734589  -0.000230451   4.257893562    0   0   0
Au       8.507492065  -0.000233495   4.257904530    0   0   0
Au      -0.000230451   4.253734589   4.257893562    0   0   0
Au       4.253735065   4.253735065   4.257887840    0   0   0
Au       8.507489204   4.253735542   4.257899761    0   0   0
Au      -0.000233495   8.507492065   4.257904530    0   0   0
Au       4.253735542   8.507489204   4.257899761    0   0   0
Au       8.507491112   8.507491112   4.257910252    0   0   0
Au       2.126854181   2.126854181   4.257906914    0   0   0
Au       6.380599976   2.126855135   4.257899284    0   0   0
Au      10.634586334   2.126852274   4.257903576    0   0   0
Au       2.126855135   6.380599976   4.257899284    0   0   0
Au       6.380601406   6.380601406   4.257890701    0   0   0
Au      10.634584427   6.380601883   4.257895470    0   0   0
Au       2.126852274  10.634586334   4.257903576    0   0   0
Au       6.380601883  10.634584427   4.257895470    0   0   0
Au      10.634585381  10.634585381   4.257900715    0   0   0
Au       2.126863003  -0.000141616   6.373929977    0   0   0
Au       6.380603790  -0.000142418   6.373934269    0   0   0
Au      10.634494781  -0.000142245   6.373820305    0   0   0
Au      -0.000141616   2.126863003   6.373929977    0   0   0
Au       4.253733158   2.126865625   6.374044418    0   0   0
Au       8.507479668   2.126865625   6.374047279    0   0   0
Au       2.126865625   4.253733158   6.374044418    0   0   0
Au       6.380604744   4.253736019   6.374044895    0   0   0
Au      10.634491920   4.253734589   6.373939037    0   0   0
Au      -0.000142418   6.380603790   6.373934269    0   0   0
Au       4.253736019   6.380604744   6.374044895    0   0   0
Au       8.507478714   6.380605698   6.374047279    0   0   0
Au       2.126865625   8.507479668   6.374047279    0   0   0
Au       6.380605698   8.507478714   6.374047279    0   0   0
Au      10.634491920   8.507480621   6.373938560    0   0   0
Au      -0.000142245  10.634494781   6.373820305    0   0   0
Au       4.253734589  10.634491920   6.373939037    0   0   0
Au       8.507480621  10.634491920   6.373938560    0   0   0



     Writing output data file 0917.save
     Check: negative starting charge=   -1.945178
     NEW-OLD atomic charge density approx. for the potential
     Check: negative starting charge=   -1.945173

     negative rho (up, down):  1.974E+00 0.000E+00

     total cpu time spent up to now is     4044.9 secs

     per-process dynamical memory:   443.6 Mb

     Self-consistent Calculation

     iteration #  1     ecut=    50.00 Ry     beta=0.70
     Davidson diagonalization with overlap
     ethr =  1.00E-06,  avg # of iterations =  3.0

     Threshold (ethr) on eigenvalues was too large:
     Diagonalizing with lowered threshold

     Davidson diagonalization with overlap
     ethr =  5.22E-08,  avg # of iterations =  1.0

     negative rho (up, down):  1.973E+00 0.000E+00

     total cpu time spent up to now is     4278.1 secs

     total energy              =   -7425.28907182 Ry
     Harris-Foulkes estimate   =   -7425.28934216 Ry
     estimated scf accuracy    <       0.00041743 Ry

     iteration #  2     ecut=    50.00 Ry     beta=0.70
     Davidson diagonalization with overlap
     ethr =  5.22E-08,  avg # of iterations =  4.0

     negative rho (up, down):  1.974E+00 0.000E+00

     total cpu time spent up to now is     4416.8 secs

     total energy              =   -7425.28902928 Ry
     Harris-Foulkes estimate   =   -7425.28936742 Ry
     estimated scf accuracy    <       0.00075156 Ry

     iteration #  3     ecut=    50.00 Ry     beta=0.70
     Davidson diagonalization with overlap
     ethr =  5.22E-08,  avg # of iterations =  4.0

     negative rho (up, down):  1.974E+00 0.000E+00

     total cpu time spent up to now is     4552.2 secs

     total energy              =   -7425.28895634 Ry
     Harris-Foulkes estimate   =   -7425.28946849 Ry
     estimated scf accuracy    <       0.00413919 Ry

     iteration #  4     ecut=    50.00 Ry     beta=0.70
     Davidson diagonalization with overlap
     ethr =  5.22E-08,  avg # of iterations =  2.0

     negative rho (up, down):  1.974E+00 0.000E+00

     total cpu time spent up to now is     4664.4 secs

     total energy              =   -7425.28920153 Ry
     Harris-Foulkes estimate   =   -7425.28924669 Ry
     estimated scf accuracy    <       0.00018482 Ry

     iteration #  5     ecut=    50.00 Ry     beta=0.70
     Davidson diagonalization with overlap
     ethr =  2.31E-08,  avg # of iterations =  2.0

     negative rho (up, down):  1.974E+00 0.000E+00

     total cpu time spent up to now is     4771.1 secs

     total energy              =   -7425.28920712 Ry
     Harris-Foulkes estimate   =   -7425.28925690 Ry
     estimated scf accuracy    <       0.00026678 Ry

     iteration #  6     ecut=    50.00 Ry     beta=0.70
     Davidson diagonalization with overlap
     ethr =  2.31E-08,  avg # of iterations =  2.0

     negative rho (up, down):  1.974E+00 0.000E+00

     total cpu time spent up to now is     4876.5 secs

     total energy              =   -7425.28922820 Ry
     Harris-Foulkes estimate   =   -7425.28923628 Ry
     estimated scf accuracy    <       0.00003180 Ry

     iteration #  7     ecut=    50.00 Ry     beta=0.70
     Davidson diagonalization with overlap
     ethr =  3.98E-09,  avg # of iterations =  2.0

     negative rho (up, down):  1.974E+00 0.000E+00

     total cpu time spent up to now is     4987.4 secs

     total energy              =   -7425.28923213 Ry
     Harris-Foulkes estimate   =   -7425.28923333 Ry
     estimated scf accuracy    <       0.00000368 Ry

     iteration #  8     ecut=    50.00 Ry     beta=0.70
     Davidson diagonalization with overlap
     ethr =  4.59E-10,  avg # of iterations =  3.0

     negative rho (up, down):  1.974E+00 0.000E+00

     total cpu time spent up to now is     5108.5 secs

     total energy              =   -7425.28923261 Ry
     Harris-Foulkes estimate   =   -7425.28923328 Ry
     estimated scf accuracy    <       0.00000235 Ry

     iteration #  9     ecut=    50.00 Ry     beta=0.70
     Davidson diagonalization with overlap
     ethr =  2.94E-10,  avg # of iterations =  2.0

     negative rho (up, down):  1.974E+00 0.000E+00

     total cpu time spent up to now is     5217.4 secs

     total energy              =   -7425.28923284 Ry
     Harris-Foulkes estimate   =   -7425.28923315 Ry
     estimated scf accuracy    <       0.00000126 Ry

     iteration # 10     ecut=    50.00 Ry     beta=0.70
     Davidson diagonalization with overlap
     ethr =  1.57E-10,  avg # of iterations =  2.0

     negative rho (up, down):  1.974E+00 0.000E+00

     total cpu time spent up to now is     5322.1 secs

     total energy              =   -7425.28923297 Ry
     Harris-Foulkes estimate   =   -7425.28923302 Ry
     estimated scf accuracy    <       0.00000011 Ry

     iteration # 11     ecut=    50.00 Ry     beta=0.70
     Davidson diagonalization with overlap
     ethr =  1.34E-11,  avg # of iterations =  3.0

     negative rho (up, down):  1.974E+00 0.000E+00

     total cpu time spent up to now is     5466.8 secs

     total energy              =   -7425.28923300 Ry
     Harris-Foulkes estimate   =   -7425.28923300 Ry
     estimated scf accuracy    <       0.00000003 Ry

     iteration # 12     ecut=    50.00 Ry     beta=0.70
     Davidson diagonalization with overlap
     ethr =  4.15E-12,  avg # of iterations =  3.0

     negative rho (up, down):  1.974E+00 0.000E+00

     total cpu time spent up to now is     5606.4 secs

     total energy              =   -7425.28923299 Ry
     Harris-Foulkes estimate   =   -7425.28923301 Ry
     estimated scf accuracy    <       0.00000008 Ry

     iteration # 13     ecut=    50.00 Ry     beta=0.70
     Davidson diagonalization with overlap
     ethr =  4.15E-12,  avg # of iterations =  3.0

     negative rho (up, down):  1.974E+00 0.000E+00

     total cpu time spent up to now is     5716.5 secs

     total energy              =   -7425.28923300 Ry
     Harris-Foulkes estimate   =   -7425.28923301 Ry
     estimated scf accuracy    <       0.00000002 Ry

     iteration # 14     ecut=    50.00 Ry     beta=0.70
     Davidson diagonalization with overlap
     ethr =  1.90E-12,  avg # of iterations =  2.0

     negative rho (up, down):  1.974E+00 0.000E+00

     total cpu time spent up to now is     5820.5 secs

     End of self-consistent calculation

          k = 0.2500 0.2500 0.0833 (167653 PWs)   bands (ev):

   -19.5605  -7.4293  -6.8181  -6.2910  -6.2895  -5.8611  -5.4525  -5.3595
    -5.3586  -5.1632  -5.1625  -5.0465  -5.0444  -4.9664  -4.9442  -4.8709
    -4.7860  -4.7817  -4.7433  -4.7427  -4.5829  -4.5665  -4.5644  -4.5639
    -4.5568  -4.5019  -4.5016  -4.4903  -4.4893  -4.4524  -4.4425  -4.4397
    -4.3990  -4.3974  -4.3643  -4.3631  -4.3127  -4.3108  -4.3015  -4.2992
    -4.2934  -4.2814  -4.2802  -4.2406  -4.2215  -4.2212  -4.2140  -4.2136
    -4.1829  -4.1370  -4.1176  -4.1166  -4.1158  -4.1128  -4.1062  -4.1007
    -4.0994  -4.0984  -4.0366  -4.0343  -3.9961  -3.9838  -3.9721  -3.9466
    -3.9463  -3.9302  -3.9241  -3.9220  -3.9190  -3.9157  -3.8701  -3.8665
    -3.8540  -3.8532  -3.8225  -3.7482  -3.7469  -3.7413  -3.7374  -3.7034
    -3.6967  -3.6787  -3.6519  -3.6491  -3.6219  -3.6211  -3.6007  -3.5995
    -3.5883  -3.5862  -3.5316  -3.5307  -3.5159  -3.4966  -3.4877  -3.4865
    -3.4843  -3.4827  -3.4577  -3.4563  -3.4204  -3.4196  -3.4000  -3.3972
    -3.3661  -3.3636  -3.3474  -3.3195  -3.3178  -3.2819  -3.2806  -3.2460
    -3.2373  -3.2369  -3.2244  -3.2228  -3.2175  -3.2171  -3.1817  -3.1689
    -3.1298  -3.1293  -3.1201  -3.1129  -3.1101  -3.1086  -3.0852  -3.0848
    -3.0649  -3.0638  -3.0624  -3.0367  -3.0359  -3.0285  -3.0262  -3.0245
    -2.9889  -2.9867  -2.9511  -2.9496  -2.9489  -2.9464  -2.9452  -2.8658
    -2.8568  -2.8546  -2.8520  -2.8513  -2.8501  -2.8476  -2.8456  -2.8444
    -2.8440  -2.8348  -2.8269  -2.8127  -2.8096  -2.8079  -2.8061  -2.7929
    -2.7889  -2.7508  -2.7501  -2.7486  -2.7462  -2.7438  -2.7260  -2.7255
    -2.7182  -2.7174  -2.7139  -2.6581  -2.6558  -2.6516  -2.6496  -2.6465
    -2.6454  -2.6192  -2.5593  -2.5577  -2.5570  -2.5533  -2.5429  -2.5414
    -2.5383  -2.5269  -2.5248  -2.4970  -2.4876  -2.4833  -2.4801  -2.4792
    -2.4777  -2.4401  -2.4393  -2.4319  -2.4299  -2.4272  -2.4258  -2.3907
    -2.3729  -2.3672  -2.3111  -2.3094  -2.3031  -2.2922  -2.2871  -2.2841
    -2.2439  -2.2346  -2.2122  -2.2057  -2.1847  -2.1821  -2.1791  -2.1607
    -2.1579  -2.1489  -2.1397  -2.1131  -2.0921  -2.0878  -2.0760  -2.0749
    -2.0685  -2.0653  -2.0609  -2.0511  -2.0493  -2.0455  -2.0433  -2.0395
    -2.0384  -2.0310  -2.0292  -2.0203  -2.0091  -2.0084  -2.0021  -1.9987
    -1.9974  -1.9812  -1.9762  -1.9703  -1.9619  -1.9612  -1.9551  -1.9220
    -1.8920  -1.8843  -1.8725  -1.8483  -1.8319  -1.8298  -1.8212  -1.8139
    -1.7973  -1.7872  -1.7827  -1.7811  -1.7796  -1.7786  -1.7762  -1.7499
    -1.7437  -1.7429  -1.7351  -1.6982  -1.6894  -1.6598  -1.6536  -1.6108
    -1.6069  -1.5955  -1.5758  -1.5729  -1.5673  -1.5516  -1.5484  -1.5351
    -1.5313  -1.5278  -1.5274  -1.5256  -1.5246  -1.5219  -1.5129  -1.5031
    -1.4985  -1.4801  -1.4742  -1.4572  -1.4560  -1.4313  -1.4285  -1.4255
    -1.4247  -1.4209  -1.4105  -1.3992  -1.3929  -1.3822  -1.3739  -1.3603
    -1.3547  -1.3447  -1.3386  -1.3168  -1.3140  -1.3076  -1.2964  -1.2713
    -1.2681  -1.2614  -1.2605  -1.2546  -1.2447  -1.2314  -1.2308  -1.2211
    -1.2135  -1.2122  -1.2015  -1.1991  -1.1988  -1.1904  -1.1854  -1.1736
    -1.1720  -1.1651  -1.1643  -1.1533  -1.1486  -1.1430  -1.1357  -1.1035
    -1.1024  -1.0956  -1.0931  -1.0919  -1.0854  -1.0548  -1.0364  -1.0361
    -1.0357  -1.0341  -1.0319  -1.0258  -1.0219  -1.0106  -0.9988  -0.9748
    -0.9714  -0.9671  -0.9652  -0.9443  -0.9438  -0.9343  -0.9058  -0.8969
    -0.8714  -0.8688  -0.8419  -0.8412  -0.8382  -0.8378  -0.8354  -0.8310
    -0.8271  -0.8270  -0.8219  -0.8179  -0.7909  -0.7903  -0.7733  -0.7687
    -0.7678  -0.7659  -0.7642  -0.7464  -0.7392  -0.4730  -0.4591  -0.4043
    -0.3883  -0.3636  -0.2006  -0.1387  -0.1379  -0.0986   0.1795   0.1854
     0.5095   0.5177   0.6088   0.6111   0.6503   0.6545   0.7935   0.8027
     0.9175   0.9207   1.0120   1.6046   1.6235   1.6242   1.6615   1.6691
     1.7097   1.7218   1.7930   1.7977   2.0001   2.0025   2.2348   2.3142
     2.3185   2.3330   2.7089   2.7167   2.7853   2.7862   2.7943   2.7954
     2.9452   2.9455   2.9883   3.0879   3.0903   3.3183   3.3206   3.4548
     3.4811   3.4827   3.7513   3.7537   3.8568   3.8848   3.8862   3.9385
     3.9687   4.0725   4.0750   4.3073   4.3104   4.3960   4.4000   4.5118
     4.5211   4.5436   4.5560   4.6851   5.0831   5.3421   5.3563   5.4474
     5.4512   5.5298   5.6306   5.6343   5.6548   5.7027   5.7371   5.7485
     5.7539   5.8031   5.8060   5.8464   6.0238   6.0774   6.1112   6.1129
     6.1303   6.1389   6.1443   6.1525   6.1542   6.1574   6.1739   6.2184

          k = 0.2500 0.2500-0.2500 (167588 PWs)   bands (ev):

   -19.5605  -7.4293  -6.8181  -6.2910  -6.2895  -5.8611  -5.4525  -5.3595
    -5.3586  -5.1632  -5.1625  -5.0465  -5.0444  -4.9664  -4.9442  -4.8709
    -4.7860  -4.7817  -4.7433  -4.7427  -4.5829  -4.5665  -4.5644  -4.5639
    -4.5568  -4.5019  -4.5016  -4.4903  -4.4893  -4.4524  -4.4425  -4.4397
    -4.3990  -4.3974  -4.3643  -4.3631  -4.3126  -4.3108  -4.3015  -4.2992
    -4.2934  -4.2814  -4.2802  -4.2406  -4.2215  -4.2212  -4.2140  -4.2136
    -4.1829  -4.1370  -4.1176  -4.1166  -4.1158  -4.1128  -4.1062  -4.1007
    -4.0994  -4.0984  -4.0366  -4.0343  -3.9961  -3.9838  -3.9721  -3.9466
    -3.9463  -3.9302  -3.9241  -3.9220  -3.9190  -3.9157  -3.8701  -3.8665
    -3.8540  -3.8532  -3.8225  -3.7482  -3.7469  -3.7413  -3.7374  -3.7034
    -3.6967  -3.6787  -3.6519  -3.6491  -3.6219  -3.6211  -3.6007  -3.5995
    -3.5883  -3.5862  -3.5316  -3.5307  -3.5159  -3.4967  -3.4877  -3.4865
    -3.4843  -3.4827  -3.4577  -3.4563  -3.4204  -3.4196  -3.4000  -3.3972
    -3.3661  -3.3636  -3.3474  -3.3195  -3.3178  -3.2819  -3.2806  -3.2460
    -3.2373  -3.2369  -3.2244  -3.2228  -3.2175  -3.2171  -3.1817  -3.1689
    -3.1298  -3.1293  -3.1201  -3.1129  -3.1101  -3.1086  -3.0852  -3.0848
    -3.0649  -3.0638  -3.0624  -3.0367  -3.0359  -3.0285  -3.0262  -3.0245
    -2.9889  -2.9867  -2.9511  -2.9496  -2.9489  -2.9464  -2.9452  -2.8658
    -2.8568  -2.8546  -2.8520  -2.8513  -2.8501  -2.8476  -2.8456  -2.8444
    -2.8440  -2.8348  -2.8269  -2.8127  -2.8096  -2.8079  -2.8061  -2.7929
    -2.7889  -2.7508  -2.7501  -2.7486  -2.7462  -2.7438  -2.7260  -2.7255
    -2.7182  -2.7174  -2.7139  -2.6581  -2.6558  -2.6516  -2.6496  -2.6465
    -2.6454  -2.6192  -2.5593  -2.5577  -2.5570  -2.5533  -2.5429  -2.5414
    -2.5383  -2.5269  -2.5248  -2.4970  -2.4876  -2.4833  -2.4801  -2.4792
    -2.4777  -2.4401  -2.4393  -2.4319  -2.4299  -2.4272  -2.4258  -2.3907
    -2.3729  -2.3672  -2.3111  -2.3094  -2.3031  -2.2922  -2.2871  -2.2841
    -2.2439  -2.2346  -2.2122  -2.2057  -2.1847  -2.1821  -2.1791  -2.1607
    -2.1579  -2.1489  -2.1397  -2.1131  -2.0921  -2.0878  -2.0760  -2.0749
    -2.0685  -2.0653  -2.0609  -2.0511  -2.0493  -2.0455  -2.0433  -2.0395
    -2.0384  -2.0310  -2.0292  -2.0203  -2.0091  -2.0084  -2.0021  -1.9987
    -1.9974  -1.9812  -1.9762  -1.9703  -1.9619  -1.9612  -1.9551  -1.9220
    -1.8920  -1.8843  -1.8725  -1.8483  -1.8319  -1.8298  -1.8212  -1.8139
    -1.7972  -1.7872  -1.7827  -1.7811  -1.7796  -1.7786  -1.7762  -1.7499
    -1.7437  -1.7429  -1.7351  -1.6982  -1.6894  -1.6598  -1.6536  -1.6108
    -1.6069  -1.5955  -1.5758  -1.5729  -1.5673  -1.5516  -1.5484  -1.5351
    -1.5313  -1.5278  -1.5274  -1.5256  -1.5246  -1.5219  -1.5129  -1.5031
    -1.4985  -1.4801  -1.4742  -1.4572  -1.4560  -1.4313  -1.4285  -1.4255
    -1.4247  -1.4209  -1.4105  -1.3992  -1.3929  -1.3822  -1.3739  -1.3603
    -1.3547  -1.3447  -1.3386  -1.3168  -1.3140  -1.3076  -1.2964  -1.2713
    -1.2681  -1.2614  -1.2604  -1.2546  -1.2447  -1.2314  -1.2308  -1.2211
    -1.2135  -1.2122  -1.2015  -1.1991  -1.1988  -1.1904  -1.1854  -1.1736
    -1.1720  -1.1651  -1.1642  -1.1533  -1.1486  -1.1430  -1.1357  -1.1035
    -1.1024  -1.0956  -1.0931  -1.0919  -1.0854  -1.0548  -1.0364  -1.0361
    -1.0357  -1.0341  -1.0319  -1.0258  -1.0219  -1.0106  -0.9988  -0.9748
    -0.9714  -0.9671  -0.9652  -0.9443  -0.9438  -0.9343  -0.9058  -0.8969
    -0.8714  -0.8687  -0.8419  -0.8412  -0.8382  -0.8378  -0.8354  -0.8310
    -0.8271  -0.8270  -0.8219  -0.8179  -0.7909  -0.7903  -0.7733  -0.7687
    -0.7678  -0.7659  -0.7642  -0.7463  -0.7392  -0.4730  -0.4591  -0.4043
    -0.3883  -0.3636  -0.2006  -0.1387  -0.1379  -0.0986   0.1795   0.1854
     0.5095   0.5177   0.6088   0.6111   0.6503   0.6545   0.7935   0.8027
     0.9176   0.9207   1.0120   1.6046   1.6235   1.6242   1.6615   1.6691
     1.7097   1.7218   1.7930   1.7977   2.0001   2.0025   2.2348   2.3142
     2.3185   2.3330   2.7089   2.7167   2.7853   2.7862   2.7943   2.7954
     2.9452   2.9455   2.9883   3.0879   3.0903   3.3183   3.3206   3.4548
     3.4811   3.4827   3.7513   3.7537   3.8568   3.8848   3.8862   3.9385
     3.9687   4.0725   4.0750   4.3073   4.3104   4.3960   4.4000   4.5118
     4.5211   4.5436   4.5560   4.6852   5.0769   5.3394   5.3524   5.4462
     5.4505   5.5220   5.6310   5.6344   5.6817   5.7168   5.7457   5.7491
     5.7560   5.8031   5.8067   5.8474   6.0378   6.0789   6.1006   6.1142
     6.1291   6.1380   6.1462   6.1532   6.1557   6.1606   6.2077   6.2252

          k =-0.2500-0.2500 0.0833 (167653 PWs)   bands (ev):

   -19.5605  -7.4293  -6.8181  -6.2910  -6.2895  -5.8611  -5.4525  -5.3595
    -5.3586  -5.1632  -5.1625  -5.0465  -5.0444  -4.9664  -4.9442  -4.8709
    -4.7860  -4.7817  -4.7433  -4.7427  -4.5829  -4.5665  -4.5644  -4.5639
    -4.5568  -4.5019  -4.5016  -4.4903  -4.4893  -4.4524  -4.4425  -4.4397
[...]
    -1.3206  -1.3091  -1.3033  -1.2778  -1.2767  -1.2694  -1.2642  -1.2346
    -1.2311  -1.2255  -1.2237  -1.2165  -1.2110  -1.1950  -1.1936  -1.1826
    -1.1762  -1.1745  -1.1635  -1.1623  -1.1612  -1.1549  -1.1472  -1.1369
    -1.1346  -1.1286  -1.1279  -1.1158  -1.1125  -1.1059  -1.1018  -1.0649
    -1.0634  -1.0579  -1.0563  -1.0555  -1.0539  -1.0165  -1.0010  -0.9989
    -0.9986  -0.9972  -0.9942  -0.9890  -0.9840  -0.9743  -0.9725  -0.9384
    -0.9336  -0.9299  -0.9289  -0.9072  -0.9063  -0.8971  -0.8674  -0.8597
    -0.8330  -0.8314  -0.8044  -0.8040  -0.8008  -0.8004  -0.7992  -0.7949
    -0.7901  -0.7882  -0.7859  -0.7849  -0.7537  -0.7525  -0.7366  -0.7318
    -0.7301  -0.7293  -0.7283  -0.7153  -0.7086  -0.4331  -0.4231  -0.3701
    -0.3542  -0.3271  -0.1674  -0.1026  -0.1008  -0.0655   0.2161   0.2209
     0.5435   0.5554   0.6457   0.6474   0.6856   0.6901   0.8275   0.8377
     0.9553   0.9574   1.0459   1.6418   1.6604   1.6617   1.7004   1.7055
     1.7390   1.7604   1.8274   1.8368   2.0362   2.0402   2.2718   2.3480
     2.3601   2.3693   2.7398   2.7582   2.8232   2.8246   2.8300   2.8329
     2.9817   2.9833   3.0121   3.1189   3.1336   3.3560   3.3608   3.4920
     3.5168   3.5240   3.7843   3.7951   3.9003   3.9212   3.9230   3.9384
     3.9981   4.1073   4.1122   4.3452   4.3478   4.4280   4.4358   4.5577
     4.5596   4.5737   4.5981   4.6678   4.8737   5.3408   5.3793   5.4638
     5.4889   5.5031   5.6278   5.6655   5.6742   5.6990   5.7252   5.7831
     5.7883   5.8360   5.8409   5.8814   6.0044   6.0563   6.1047   6.1330
     6.1486   6.1649   6.1700   6.1750   6.1840   6.1920   6.1959   6.2249

          k =-0.2500 0.2500 0.2500 (167588 PWs)   bands (ev):

   -19.6992  -7.5058  -6.7827  -6.2550  -6.2531  -5.8244  -5.4164  -5.3231
    -5.3212  -5.1262  -5.1259  -5.0102  -5.0079  -4.9296  -4.9072  -4.8337
    -4.7487  -4.7451  -4.7065  -4.7062  -4.5456  -4.5286  -4.5280  -4.5264
    -4.5203  -4.4647  -4.4646  -4.4534  -4.4518  -4.4155  -4.4043  -4.4026
    -4.3610  -4.3608  -4.3273  -4.3261  -4.2754  -4.2733  -4.2643  -4.2621
    -4.2566  -4.2437  -4.2435  -4.2029  -4.1847  -4.1837  -4.1775  -4.1765
    -4.1457  -4.0964  -4.0806  -4.0791  -4.0788  -4.0766  -4.0687  -4.0626
    -4.0624  -4.0620  -3.9989  -3.9971  -3.9488  -3.9478  -3.9352  -3.9097
    -3.9088  -3.8949  -3.8860  -3.8858  -3.8815  -3.8785  -3.8317  -3.8293
    -3.8169  -3.8155  -3.7992  -3.7121  -3.7086  -3.7059  -3.7020  -3.6670
    -3.6591  -3.6436  -3.6142  -3.6124  -3.5860  -3.5838  -3.5641  -3.5630
    -3.5509  -3.5490  -3.4952  -3.4942  -3.4771  -3.4604  -3.4498  -3.4482
    -3.4475  -3.4465  -3.4198  -3.4191  -3.3832  -3.3820  -3.3611  -3.3601
    -3.3279  -3.3271  -3.3092  -3.2818  -3.2812  -3.2445  -3.2434  -3.2084
    -3.2005  -3.2000  -3.1868  -3.1856  -3.1811  -3.1804  -3.1430  -3.1322
    -3.0917  -3.0915  -3.0832  -3.0740  -3.0735  -3.0713  -3.0478  -3.0474
    -3.0271  -3.0262  -3.0246  -2.9988  -2.9986  -2.9911  -2.9887  -2.9879
    -2.9522  -2.9482  -2.9135  -2.9120  -2.9118  -2.9088  -2.9085  -2.8291
    -2.8193  -2.8159  -2.8140  -2.8138  -2.8130  -2.8096  -2.8081  -2.8078
    -2.8075  -2.7980  -2.7902  -2.7740  -2.7723  -2.7705  -2.7697  -2.7553
    -2.7515  -2.7127  -2.7119  -2.7114  -2.7086  -2.7064  -2.6894  -2.6881
    -2.6807  -2.6800  -2.6774  -2.6189  -2.6183  -2.6130  -2.6126  -2.6098
    -2.6075  -2.5802  -2.5201  -2.5194  -2.5185  -2.5167  -2.5053  -2.5046
    -2.4984  -2.4882  -2.4874  -2.4523  -2.4497  -2.4431  -2.4430  -2.4411
    -2.4400  -2.4019  -2.4005  -2.3918  -2.3909  -2.3905  -2.3889  -2.3495
    -2.3342  -2.3270  -2.2729  -2.2718  -2.2562  -2.2544  -2.2501  -2.2470
    -2.2000  -2.1974  -2.1744  -2.1599  -2.1450  -2.1436  -2.1431  -2.1235
    -2.1209  -2.1111  -2.1007  -2.0600  -2.0547  -2.0420  -2.0397  -2.0391
    -2.0328  -2.0280  -2.0174  -2.0138  -2.0121  -2.0078  -2.0051  -2.0027
    -2.0017  -1.9913  -1.9901  -1.9779  -1.9724  -1.9703  -1.9676  -1.9619
    -1.9608  -1.9413  -1.9370  -1.9355  -1.9256  -1.9234  -1.9189  -1.8900
    -1.8661  -1.8476  -1.8435  -1.8108  -1.7942  -1.7931  -1.7829  -1.7763
    -1.7597  -1.7570  -1.7445  -1.7438  -1.7424  -1.7419  -1.7394  -1.7101
    -1.7070  -1.7062  -1.6958  -1.6611  -1.6594  -1.6209  -1.6159  -1.5733
    -1.5710  -1.5584  -1.5380  -1.5329  -1.5303  -1.5146  -1.5108  -1.4962
    -1.4940  -1.4913  -1.4897  -1.4887  -1.4874  -1.4861  -1.4815  -1.4651
    -1.4624  -1.4457  -1.4368  -1.4180  -1.4163  -1.3918  -1.3912  -1.3893
    -1.3877  -1.3837  -1.3782  -1.3608  -1.3557  -1.3458  -1.3370  -1.3223
    -1.3206  -1.3091  -1.3033  -1.2779  -1.2767  -1.2694  -1.2642  -1.2346
    -1.2311  -1.2255  -1.2237  -1.2165  -1.2110  -1.1950  -1.1936  -1.1826
    -1.1762  -1.1745  -1.1635  -1.1623  -1.1612  -1.1549  -1.1472  -1.1369
    -1.1346  -1.1286  -1.1279  -1.1158  -1.1125  -1.1059  -1.1018  -1.0649
    -1.0634  -1.0579  -1.0563  -1.0555  -1.0539  -1.0165  -1.0010  -0.9989
    -0.9986  -0.9972  -0.9942  -0.9890  -0.9840  -0.9743  -0.9725  -0.9384
    -0.9335  -0.9299  -0.9289  -0.9072  -0.9063  -0.8971  -0.8674  -0.8597
    -0.8330  -0.8314  -0.8044  -0.8040  -0.8008  -0.8004  -0.7992  -0.7949
    -0.7901  -0.7882  -0.7859  -0.7849  -0.7537  -0.7525  -0.7366  -0.7318
    -0.7301  -0.7293  -0.7283  -0.7153  -0.7086  -0.4331  -0.4231  -0.3701
    -0.3542  -0.3271  -0.1674  -0.1026  -0.1008  -0.0655   0.2161   0.2209
     0.5435   0.5554   0.6457   0.6474   0.6856   0.6901   0.8275   0.8377
     0.9553   0.9574   1.0459   1.6418   1.6604   1.6617   1.7004   1.7055
     1.7390   1.7604   1.8274   1.8368   2.0362   2.0402   2.2718   2.3480
     2.3601   2.3693   2.7398   2.7582   2.8232   2.8246   2.8300   2.8329
     2.9817   2.9833   3.0121   3.1190   3.1336   3.3560   3.3608   3.4920
     3.5168   3.5240   3.7843   3.7951   3.9003   3.9212   3.9230   3.9384
     3.9982   4.1073   4.1122   4.3452   4.3478   4.4279   4.4358   4.5577
     4.5596   4.5737   4.5981   4.6676   4.8711   5.3391   5.3774   5.4470
     5.4885   5.4997   5.6579   5.6663   5.6765   5.7098   5.7394   5.7832
     5.7883   5.8361   5.8409   5.8815   6.0094   6.0708   6.0989   6.1402
     6.1617   6.1684   6.1710   6.1807   6.1844   6.1920   6.1994   6.2189

     the Fermi energy is     0.9064 ev

!    total energy              =   -7425.29678902 Ry
     Harris-Foulkes estimate   =   -7425.29678902 Ry
     estimated scf accuracy    <          1.9E-11 Ry

     The total energy is the sum of the following terms:

     one-electron contribution =  -48722.55066809 Ry
     hartree contribution      =   24913.19690852 Ry
     xc contribution           =   -3604.20427729 Ry
     ewald contribution        =   19988.26405222 Ry
     smearing contrib. (-TS)   =      -0.00280437 Ry

     convergence has been achieved in  16 iterations

     negative rho (up, down):  1.973E+00 0.000E+00

     Forces acting on atoms (Ry/au):

     atom    1 type  3   force =    -0.00028981    0.00003224    0.00023509
     atom    2 type  2   force =     0.00078760    0.00060638   -0.00050200
     atom    3 type  2   force =     0.00000604    0.00035829   -0.00099079
     atom    4 type  1   force =    -0.00033794   -0.00027741    0.00208318
     atom    5 type  1   force =    -0.00001566   -0.00024411    0.00212540
     atom    6 type  1   force =     0.00002154   -0.00026177    0.00185780
     atom    7 type  1   force =     0.00007416   -0.00002020    0.00172991
     atom    8 type  1   force =    -0.00004199    0.00000723    0.00177015
     atom    9 type  1   force =     0.00026488   -0.00008817    0.00188701
     atom   10 type  1   force =    -0.00028135    0.00007417    0.00190959
     atom   11 type  1   force =    -0.00000168   -0.00004529    0.00163800
     atom   12 type  1   force =    -0.00001093    0.00004364    0.00169843
     atom   13 type  1   force =    -0.00004694   -0.00000446    0.00163739
     atom   14 type  1   force =     0.00005824   -0.00003744    0.00157702
     atom   15 type  1   force =     0.00027987    0.00000538    0.00214293
     atom   16 type  1   force =    -0.00027956   -0.00002622    0.00197879
     atom   17 type  1   force =    -0.00003269    0.00005750    0.00156003
     atom   18 type  1   force =     0.00001971    0.00001026    0.00173376
     atom   19 type  1   force =     0.00001978    0.00026558    0.00191638
     atom   20 type  1   force =     0.00001998    0.00027606    0.00193934
     atom   21 type  1   force =     0.00028753    0.00027048    0.00206436
     atom   22 type  1   force =    -0.00018764   -0.00040628   -0.00119470
     atom   23 type  1   force =     0.00010385   -0.00046204   -0.00120849
     atom   24 type  1   force =     0.00041386   -0.00042847   -0.00097074
     atom   25 type  1   force =    -0.00045808   -0.00004739   -0.00108250
     atom   26 type  1   force =     0.00002165    0.00019222   -0.00108078
     atom   27 type  1   force =     0.00011506   -0.00004134   -0.00110140
     atom   28 type  1   force =     0.00002235    0.00008032   -0.00115079
     atom   29 type  1   force =    -0.00001959    0.00009940   -0.00116555
     atom   30 type  1   force =     0.00049785   -0.00015837   -0.00118953
     atom   31 type  1   force =    -0.00016628    0.00001499   -0.00106358
     atom   32 type  1   force =     0.00001713    0.00003393   -0.00139258
     atom   33 type  1   force =    -0.00040344    0.00002789   -0.00105938
     atom   34 type  1   force =     0.00007016   -0.00000724   -0.00120674
     atom   35 type  1   force =    -0.00013026   -0.00005267   -0.00120363
     atom   36 type  1   force =     0.00041525    0.00015077   -0.00122396
     atom   37 type  1   force =    -0.00042872    0.00051209   -0.00113595
     atom   38 type  1   force =     0.00002742   -0.00002732   -0.00107472
     atom   39 type  1   force =     0.00007528    0.00048505   -0.00111584
     atom   40 type  1   force =    -0.00035625   -0.00046058   -0.00006531
     atom   41 type  1   force =     0.00002571   -0.00050954   -0.00006913
     atom   42 type  1   force =     0.00003420   -0.00042651   -0.00004114
     atom   43 type  1   force =    -0.00046098    0.00007874   -0.00023135
     atom   44 type  1   force =    -0.00000256    0.00037380    0.00018621
     atom   45 type  1   force =     0.00022601    0.00002959   -0.00016119
     atom   46 type  1   force =    -0.00047776    0.00004139   -0.00011436
     atom   47 type  1   force =    -0.00008365   -0.00058625    0.00075828
     atom   48 type  1   force =     0.00018728    0.00001649    0.00000061
     atom   49 type  1   force =     0.00008235   -0.00011729   -0.00018271
     atom   50 type  1   force =    -0.00002634   -0.00013788   -0.00020290
     atom   51 type  1   force =     0.00031709   -0.00001147   -0.00005680
     atom   52 type  1   force =     0.00040720    0.00002154    0.00032777
     atom   53 type  1   force =    -0.00060323   -0.00004992    0.00063774
     atom   54 type  1   force =     0.00027750    0.00006354   -0.00004510
     atom   55 type  1   force =    -0.00002500    0.00050532   -0.00004300
     atom   56 type  1   force =    -0.00002162    0.00051961   -0.00002590
     atom   57 type  1   force =     0.00035517    0.00036431   -0.00007392
     atom   58 type  1   force =    -0.00001124   -0.00017546   -0.00057774
     atom   59 type  1   force =     0.00001873   -0.00021343   -0.00058536
     atom   60 type  1   force =     0.00029699   -0.00016746   -0.00094235
     atom   61 type  1   force =    -0.00019019    0.00004657   -0.00034344
     atom   62 type  1   force =    -0.00004945    0.00004743   -0.00024820
     atom   63 type  1   force =     0.00001884   -0.00004337   -0.00040065
     atom   64 type  1   force =    -0.00149147   -0.00130094   -0.00194408
     atom   65 type  1   force =     0.00050382   -0.00037872   -0.00075925
     atom   66 type  1   force =     0.00027066   -0.00001778   -0.00053402
     atom   67 type  1   force =    -0.00002852   -0.00020134   -0.00031748
     atom   68 type  1   force =     0.00056418    0.00054533   -0.00040530
     atom   69 type  1   force =    -0.00003616   -0.00006817   -0.00048280
     atom   70 type  1   force =    -0.00030915    0.00032561   -0.00078205
     atom   71 type  1   force =     0.00015055    0.00012617   -0.00063690
     atom   72 type  1   force =     0.00026085    0.00000389   -0.00065937
     atom   73 type  1   force =    -0.00027964    0.00028120   -0.00086074
     atom   74 type  1   force =    -0.00002649    0.00025615   -0.00074279
     atom   75 type  1   force =    -0.00000403    0.00025174   -0.00074615

     Total force =     0.001578     Total SCF correction =     0.000002

     bfgs converged in  43 scf cycles and  41 bfgs steps
     (criteria: energy <  1.0E-04, force <  1.0E-03)

     End of BFGS Geometry Optimization

     Final energy   =   -7425.2967890194 Ry
Begin final coordinates

ATOMIC_POSITIONS (angstrom)
O        3.599451048   5.608983584   9.438584888
H        2.659646096   5.350393979   9.493122943
H        4.089133590   4.824971980   9.751591034
Au       0.000000000   0.000000000   0.000000000    0   0   0
Au       4.253737926   0.000000000   0.000000000    0   0   0
Au       8.507475853   0.000000000   0.000000000    0   0   0
Au       2.126868963   2.126868963   0.000000000    0   0   0
Au       6.380607128   2.126868963   0.000000000    0   0   0
Au      10.634344101   2.126868963   0.000000000    0   0   0
Au       0.000000000   4.253737926   0.000000000    0   0   0
Au       4.253737926   4.253737926   0.000000000    0   0   0
Au       8.507475853   4.253737926   0.000000000    0   0   0
Au       2.126868963   6.380607128   0.000000000    0   0   0
Au       6.380607128   6.380607128   0.000000000    0   0   0
Au      10.634344101   6.380607128   0.000000000    0   0   0
Au       0.000000000   8.507475853   0.000000000    0   0   0
Au       4.253737926   8.507475853   0.000000000    0   0   0
Au       8.507475853   8.507475853   0.000000000    0   0   0
Au       2.126868963  10.634344101   0.000000000    0   0   0
Au       6.380607128  10.634344101   0.000000000    0   0   0
Au      10.634344101  10.634344101   0.000000000    0   0   0
Au       2.126868963   0.000000000   2.126868963    0   0   0
Au       6.380607128   0.000000000   2.126868963    0   0   0
Au      10.634344101   0.000000000   2.126868963    0   0   0
Au       0.000000000   2.126868963   2.126868963    0   0   0
Au       4.253737926   2.126868963   2.126868963    0   0   0
Au       8.507475853   2.126868963   2.126868963    0   0   0
Au       2.126868963   4.253737926   2.126868963    0   0   0
Au       6.380607128   4.253737926   2.126868963    0   0   0
Au      10.634344101   4.253737926   2.126868963    0   0   0
Au       0.000000000   6.380607128   2.126868963    0   0   0
Au       4.253737926   6.380607128   2.126868963    0   0   0
Au       8.507475853   6.380607128   2.126868963    0   0   0
Au       2.126868963   8.507475853   2.126868963    0   0   0
Au       6.380607128   8.507475853   2.126868963    0   0   0
Au      10.634344101   8.507475853   2.126868963    0   0   0
Au       0.000000000  10.634344101   2.126868963    0   0   0
Au       4.253737926  10.634344101   2.126868963    0   0   0
Au       8.507475853  10.634344101   2.126868963    0   0   0
Au      -0.000231899  -0.000231899   4.257900238    0   0   0
Au       4.253734589  -0.000230451   4.257893562    0   0   0
Au       8.507492065  -0.000233495   4.257904530    0   0   0
Au      -0.000230451   4.253734589   4.257893562    0   0   0
Au       4.253735065   4.253735065   4.257887840    0   0   0
Au       8.507489204   4.253735542   4.257899761    0   0   0
Au      -0.000233495   8.507492065   4.257904530    0   0   0
Au       4.253735542   8.507489204   4.257899761    0   0   0
Au       8.507491112   8.507491112   4.257910252    0   0   0
Au       2.126854181   2.126854181   4.257906914    0   0   0
Au       6.380599976   2.126855135   4.257899284    0   0   0
Au      10.634586334   2.126852274   4.257903576    0   0   0
Au       2.126855135   6.380599976   4.257899284    0   0   0
Au       6.380601406   6.380601406   4.257890701    0   0   0
Au      10.634584427   6.380601883   4.257895470    0   0   0
Au       2.126852274  10.634586334   4.257903576    0   0   0
Au       6.380601883  10.634584427   4.257895470    0   0   0
Au      10.634585381  10.634585381   4.257900715    0   0   0
Au       2.126863003  -0.000141616   6.373929977    0   0   0
Au       6.380603790  -0.000142418   6.373934269    0   0   0
Au      10.634494781  -0.000142245   6.373820305    0   0   0
Au      -0.000141616   2.126863003   6.373929977    0   0   0
Au       4.253733158   2.126865625   6.374044418    0   0   0
Au       8.507479668   2.126865625   6.374047279    0   0   0
Au       2.126865625   4.253733158   6.374044418    0   0   0
Au       6.380604744   4.253736019   6.374044895    0   0   0
Au      10.634491920   4.253734589   6.373939037    0   0   0
Au      -0.000142418   6.380603790   6.373934269    0   0   0
Au       4.253736019   6.380604744   6.374044895    0   0   0
Au       8.507478714   6.380605698   6.374047279    0   0   0
Au       2.126865625   8.507479668   6.374047279    0   0   0
Au       6.380605698   8.507478714   6.374047279    0   0   0
Au      10.634491920   8.507480621   6.373938560    0   0   0
Au      -0.000142245  10.634494781   6.373820305    0   0   0
Au       4.253734589  10.634491920   6.373939037    0   0   0
Au       8.507480621  10.634491920   6.373938560    0   0   0
End final coordinates



     Writing output data file 0917.save
 
     init_run     :     52.50s CPU     53.16s WALL (       1 calls)
     electrons    :  93234.96s CPU  94326.78s WALL (      43 calls)
     update_pot   :    105.18s CPU    112.69s WALL (      42 calls)
     forces       :   1041.28s CPU   1052.26s WALL (      43 calls)

     Called by init_run:
     wfcinit      :     47.80s CPU     48.23s WALL (       1 calls)
     potinit      :      1.70s CPU      1.76s WALL (       1 calls)

     Called by electrons:
     c_bands      :  81336.95s CPU  82216.40s WALL (     800 calls)
     sum_band     :  10180.64s CPU  10290.73s WALL (     800 calls)
     v_of_rho     :   1179.00s CPU   1213.52s WALL (     811 calls)
     newd         :    561.35s CPU    627.07s WALL (     811 calls)
     mix_rho      :     31.02s CPU     31.22s WALL (     800 calls)

     Called by c_bands:
     init_us_2    :    122.58s CPU    123.02s WALL (    9864 calls)
     cegterg      :  79829.37s CPU  80698.00s WALL (    4800 calls)

     Called by sum_band:
     sum_band:bec :     28.66s CPU     28.78s WALL (    4800 calls)
     addusdens    :    661.65s CPU    727.15s WALL (     800 calls)

     Called by *egterg:
     h_psi        :  39186.76s CPU  39370.17s WALL (   16500 calls)
     s_psi        :   7298.60s CPU   7314.99s WALL (   16500 calls)
     g_psi        :     78.56s CPU     78.80s WALL (   11694 calls)
     cdiaghg      :   9830.14s CPU   9958.88s WALL (   16050 calls)

     Called by h_psi:
     add_vuspsi   :   7296.47s CPU   7312.04s WALL (   16500 calls)

     General routines
     calbec       :  12526.98s CPU  12560.86s WALL (   22332 calls)
     fft          :   1257.92s CPU   1267.11s WALL (   56147 calls)
     ffts         :     10.30s CPU     10.36s WALL (    1611 calls)
     fftw         :  27059.20s CPU  27228.87s WALL (12349414 calls)
     interpolate  :     31.19s CPU     31.30s WALL (    1611 calls)
     davcio       :      0.01s CPU      0.09s WALL (       6 calls)
 
     Parallel routines
     fft_scatter  :  17911.12s CPU  18033.10s WALL (12407172 calls)
 
     PWSCF        :     1d    2h14m CPU        1d    2h33m WALL

 
   This run was terminated on:  20: 7: 6   1Sep2016            

=------------------------------------------------------------------------------=
   JOB DONE.
=------------------------------------------------------------------------------=
