
     Program PWSCF v.5.4.0 starts on 30Jan2017 at 14:33:27 

     This program is part of the open-source Quantum ESPRESSO suite
     for quantum simulation of materials; please cite
         "P. Giannozzi et al., J. Phys.:Condens. Matter 21 395502 (2009);
          URL http://www.quantum-espresso.org", 
     in publications or presentations arising from this work. More details at
     http://www.quantum-espresso.org/quote

     Parallel version (MPI), running on    48 processors
     K-points division:     npool     =       6
     R & G space division:  proc/nbgrp/npool/nimage =       8
     Reading input from hollow.O1.Au5859.d.0.0.phi.0.psi.90.in
Warning: card &CELL ignored
Warning: card / ignored

     Current dimensions of program PWSCF are:
     Max number of different atomic species (ntypx) = 10
     Max number of k-points (npk) =  40000
     Max angular momentum in pseudopotentials (lmaxx) =  3

     Subspace diagonalization in iterative solution of the eigenvalue problem:
     a serial algorithm will be used

 
     Parallelization info
     --------------------
     sticks:   dense  smooth     PW     G-vecs:    dense   smooth      PW
     Min        2313    1158    298               474089   167622   21962
     Max        2314    1159    299               474104   167655   21969
     Sum       18505    9265   2385              3792731  1341081  175711
 

     Title: 
     hollow.O1.Au5859.d.0.0.phi.0.psi.90                                        


     bravais-lattice index     =            8
     lattice parameter (alat)  =      24.1233  a.u.
     unit-cell volume          =   28076.2361 (a.u.)^3
     number of atoms/cell      =           75
     number of atomic types    =            3
     number of electrons       =       800.00
     number of Kohn-Sham states=          480
     kinetic-energy cutoff     =      50.0000  Ry
     charge density cutoff     =     400.0000  Ry
     convergence threshold     =      1.0E-08
     mixing beta               =       0.7000
     number of iterations used =            8  plain     mixing
     Exchange-correlation      =  SLA  PW   PBE  PBE ( 1  4  3  4 0 0)
     nstep                     =           50


     celldm(1)=  24.123277  celldm(2)=   1.000000  celldm(3)=   2.000000
     celldm(4)=   0.000000  celldm(5)=   0.000000  celldm(6)=   0.000000

     crystal axes: (cart. coord. in units of alat)
               a(1) = (   1.000000   0.000000   0.000000 )  
               a(2) = (   0.000000   1.000000   0.000000 )  
               a(3) = (   0.000000   0.000000   2.000000 )  

     reciprocal axes: (cart. coord. in units 2 pi/alat)
               b(1) = (  1.000000  0.000000  0.000000 )  
               b(2) = (  0.000000  1.000000  0.000000 )  
               b(3) = (  0.000000  0.000000  0.500000 )  


     PseudoPot. # 1 for Au read from file:
     ../../../../pseudo/Au.pbe-nd-van.UPF
     MD5 check sum: 458681b50f36d87ef23c61b04bba420a
     Pseudo is Ultrasoft + core correction, Zval = 11.0
     Generated by new atomic code, or converted to UPF format
     Using radial grid of  985 points,  3 beta functions with: 
                l(1) =   1
                l(2) =   2
                l(3) =   2
     Q(r) pseudized with  8 coefficients,  rinner =    1.100   1.100   1.100
                                                       1.100   1.100

     PseudoPot. # 2 for H  read from file:
     ../../../../pseudo/H.pbe-van_ak.UPF
     MD5 check sum: 403db7282739603aa925980fa9b8608d
     Pseudo is Ultrasoft, Zval =  1.0
     Generated by new atomic code, or converted to UPF format
     Using radial grid of  615 points,  1 beta functions with: 
                l(1) =   0
     Q(r) pseudized with  8 coefficients,  rinner =    0.800

     PseudoPot. # 3 for O  read from file:
     ../../../../pseudo/O.pbe-van_ak.UPF
     MD5 check sum: 4b8c549914a63cae506c6ff22b5af4fe
     Pseudo is Ultrasoft, Zval =  6.0
     Generated by new atomic code, or converted to UPF format
     Using radial grid of  737 points,  4 beta functions with: 
                l(1) =   0
                l(2) =   0
                l(3) =   1
                l(4) =   1
     Q(r) pseudized with  8 coefficients,  rinner =    0.800   0.800   0.800


     atomic species   valence    mass     pseudopotential
        Au            11.00   196.96657     Au( 1.00)
        H              1.00     1.01000     H ( 1.00)
        O              6.00    16.00000     O ( 1.00)

     No symmetry found



   Cartesian axes

     site n.     atom                  positions (alat units)
         1           O   tau(   1) = (   0.1666051   0.1666105   0.7108218  )
         2           H   tau(   2) = (   0.1195275   0.1211166   0.6716503  )
         3           H   tau(   3) = (   0.2122554   0.1187528   0.7488235  )
         4           Au  tau(   4) = (   0.0000000   0.0000000   0.0000000  )
         5           Au  tau(   5) = (   0.3332217   0.0000000   0.0000000  )
         6           Au  tau(   6) = (   0.6664434   0.0000000   0.0000000  )
         7           Au  tau(   7) = (   0.1666109   0.1666109   0.0000000  )
         8           Au  tau(   8) = (   0.4998326   0.1666109   0.0000000  )
         9           Au  tau(   9) = (   0.8330542   0.1666109   0.0000000  )
        10           Au  tau(  10) = (   0.0000000   0.3332217   0.0000000  )
        11           Au  tau(  11) = (   0.3332217   0.3332217   0.0000000  )
        12           Au  tau(  12) = (   0.6664434   0.3332217   0.0000000  )
        13           Au  tau(  13) = (   0.1666109   0.4998326   0.0000000  )
        14           Au  tau(  14) = (   0.4998326   0.4998326   0.0000000  )
        15           Au  tau(  15) = (   0.8330542   0.4998326   0.0000000  )
        16           Au  tau(  16) = (   0.0000000   0.6664434   0.0000000  )
        17           Au  tau(  17) = (   0.3332217   0.6664434   0.0000000  )
        18           Au  tau(  18) = (   0.6664434   0.6664434   0.0000000  )
        19           Au  tau(  19) = (   0.1666109   0.8330542   0.0000000  )
        20           Au  tau(  20) = (   0.4998326   0.8330542   0.0000000  )
        21           Au  tau(  21) = (   0.8330542   0.8330542   0.0000000  )
        22           Au  tau(  22) = (   0.1666109   0.0000000   0.1666109  )
        23           Au  tau(  23) = (   0.4998326   0.0000000   0.1666109  )
        24           Au  tau(  24) = (   0.8330542   0.0000000   0.1666109  )
        25           Au  tau(  25) = (   0.0000000   0.1666109   0.1666109  )
        26           Au  tau(  26) = (   0.3332217   0.1666109   0.1666109  )
        27           Au  tau(  27) = (   0.6664434   0.1666109   0.1666109  )
        28           Au  tau(  28) = (   0.1666109   0.3332217   0.1666109  )
        29           Au  tau(  29) = (   0.4998326   0.3332217   0.1666109  )
        30           Au  tau(  30) = (   0.8330542   0.3332217   0.1666109  )
        31           Au  tau(  31) = (   0.0000000   0.4998326   0.1666109  )
        32           Au  tau(  32) = (   0.3332217   0.4998326   0.1666109  )
        33           Au  tau(  33) = (   0.6664434   0.4998326   0.1666109  )
        34           Au  tau(  34) = (   0.1666109   0.6664434   0.1666109  )
        35           Au  tau(  35) = (   0.4998326   0.6664434   0.1666109  )
        36           Au  tau(  36) = (   0.8330542   0.6664434   0.1666109  )
        37           Au  tau(  37) = (   0.0000000   0.8330542   0.1666109  )
        38           Au  tau(  38) = (   0.3332217   0.8330542   0.1666109  )
        39           Au  tau(  39) = (   0.6664434   0.8330542   0.1666109  )
        40           Au  tau(  40) = (  -0.0000182  -0.0000182   0.3335478  )
        41           Au  tau(  41) = (   0.3332215  -0.0000181   0.3335473  )
        42           Au  tau(  42) = (   0.6664447  -0.0000183   0.3335481  )
        43           Au  tau(  43) = (  -0.0000181   0.3332215   0.3335473  )
        44           Au  tau(  44) = (   0.3332215   0.3332215   0.3335468  )
        45           Au  tau(  45) = (   0.6664445   0.3332215   0.3335477  )
        46           Au  tau(  46) = (  -0.0000183   0.6664447   0.3335481  )
        47           Au  tau(  47) = (   0.3332215   0.6664445   0.3335477  )
        48           Au  tau(  48) = (   0.6664446   0.6664446   0.3335486  )
        49           Au  tau(  49) = (   0.1666097   0.1666097   0.3335483  )
        50           Au  tau(  50) = (   0.4998320   0.1666098   0.3335477  )
        51           Au  tau(  51) = (   0.8330732   0.1666096   0.3335480  )
        52           Au  tau(  52) = (   0.1666098   0.4998320   0.3335477  )
        53           Au  tau(  53) = (   0.4998322   0.4998322   0.3335470  )
        54           Au  tau(  54) = (   0.8330731   0.4998322   0.3335474  )
        55           Au  tau(  55) = (   0.1666096   0.8330732   0.3335480  )
        56           Au  tau(  56) = (   0.4998322   0.8330731   0.3335474  )
        57           Au  tau(  57) = (   0.8330731   0.8330731   0.3335478  )
        58           Au  tau(  58) = (   0.1666104  -0.0000111   0.4993095  )
        59           Au  tau(  59) = (   0.4998323  -0.0000112   0.4993099  )
        60           Au  tau(  60) = (   0.8330660  -0.0000111   0.4993009  )
        61           Au  tau(  61) = (  -0.0000111   0.1666104   0.4993095  )
        62           Au  tau(  62) = (   0.3332213   0.1666106   0.4993185  )
        63           Au  tau(  63) = (   0.6664437   0.1666106   0.4993187  )
        64           Au  tau(  64) = (   0.1666106   0.3332213   0.4993185  )
        65           Au  tau(  65) = (   0.4998324   0.3332216   0.4993185  )
        66           Au  tau(  66) = (   0.8330658   0.3332215   0.4993102  )
        67           Au  tau(  67) = (  -0.0000112   0.4998323   0.4993099  )
        68           Au  tau(  68) = (   0.3332216   0.4998324   0.4993185  )
        69           Au  tau(  69) = (   0.6664437   0.4998325   0.4993187  )
        70           Au  tau(  70) = (   0.1666106   0.6664437   0.4993187  )
        71           Au  tau(  71) = (   0.4998325   0.6664437   0.4993187  )
        72           Au  tau(  72) = (   0.8330658   0.6664438   0.4993102  )
        73           Au  tau(  73) = (  -0.0000111   0.8330660   0.4993009  )
        74           Au  tau(  74) = (   0.3332215   0.8330658   0.4993102  )
        75           Au  tau(  75) = (   0.6664438   0.8330658   0.4993102  )

     number of k points=     6  Marzari-Vanderbilt smearing, width (Ry)=  0.0200
                       cart. coord. in units 2pi/alat
        k(    1) = (   0.2500000   0.2500000   0.0833333), wk =   0.3333333
        k(    2) = (   0.2500000   0.2500000  -0.2500000), wk =   0.3333333
        k(    3) = (  -0.2500000  -0.2500000   0.0833333), wk =   0.3333333
        k(    4) = (  -0.2500000   0.2500000  -0.0833333), wk =   0.3333333
        k(    5) = (   0.2500000  -0.2500000  -0.0833333), wk =   0.3333333
        k(    6) = (  -0.2500000   0.2500000   0.2500000), wk =   0.3333333

     Dense  grid:  3792731 G-vectors     FFT dimensions: ( 160, 160, 320)

     Smooth grid:  1341081 G-vectors     FFT dimensions: ( 120, 120, 225)

     Largest allocated arrays     est. size (Mb)     dimensions
        Kohn-Sham Wavefunctions       154.19 Mb     (   21052,  480)
        NL pseudopotentials           303.88 Mb     (   21052,  946)
        Each V/rho on FFT grid         15.62 Mb     ( 1024000)
        Each G-vector array             3.62 Mb     (  474091)
        G-vector shells                 0.08 Mb     (   10780)
     Largest temporary arrays     est. size (Mb)     dimensions
        Auxiliary wavefunctions       616.76 Mb     (   21052, 1920)
        Each subspace H/S matrix       56.25 Mb     (    1920, 1920)
        Each <psi_i|beta_j> matrix      6.93 Mb     (     946,  480)
        Arrays for rho mixing         125.00 Mb     ( 1024000,    8)

     Initial potential from superposition of free atoms
     Check: negative starting charge=   -1.945170

     starting charge  799.16392, renormalised to  800.00000

     negative rho (up, down):  1.947E+00 0.000E+00
     Starting wfc are  654 randomized atomic wfcs

     total cpu time spent up to now is       49.2 secs

     per-process dynamical memory:   733.8 Mb

     Self-consistent Calculation

     iteration #  1     ecut=    50.00 Ry     beta=0.70
     Davidson diagonalization with overlap
     ethr =  1.00E-02,  avg # of iterations =  3.0

     Threshold (ethr) on eigenvalues was too large:
     Diagonalizing with lowered threshold

     Davidson diagonalization with overlap
     ethr =  4.91E-04,  avg # of iterations =  2.0

     negative rho (up, down):  1.932E+00 0.000E+00

     total cpu time spent up to now is      239.6 secs

     total energy              =   -7377.44459488 Ry
     Harris-Foulkes estimate   =   -7380.94306014 Ry
     estimated scf accuracy    <       4.44700322 Ry

     iteration #  2     ecut=    50.00 Ry     beta=0.70
     Davidson diagonalization with overlap
     ethr =  5.56E-04,  avg # of iterations = 11.3

     negative rho (up, down):  1.930E+00 0.000E+00

     total cpu time spent up to now is      513.6 secs

     total energy              =   -7368.97548271 Ry
     Harris-Foulkes estimate   =   -7387.85652914 Ry
     estimated scf accuracy    <      97.00888735 Ry

     iteration #  3     ecut=    50.00 Ry     beta=0.70
     Davidson diagonalization with overlap
     ethr =  5.56E-04,  avg # of iterations =  6.0

     negative rho (up, down):  1.947E+00 0.000E+00

     total cpu time spent up to now is      701.5 secs

     total energy              =   -7378.72413909 Ry
     Harris-Foulkes estimate   =   -7380.69206529 Ry
     estimated scf accuracy    <       7.55082524 Ry

     iteration #  4     ecut=    50.00 Ry     beta=0.70
     Davidson diagonalization with overlap
     ethr =  5.56E-04,  avg # of iterations =  5.2

     negative rho (up, down):  1.951E+00 0.000E+00

     total cpu time spent up to now is      808.4 secs

     total energy              =   -7379.34348211 Ry
     Harris-Foulkes estimate   =   -7380.48050681 Ry
     estimated scf accuracy    <       6.56485430 Ry

     iteration #  5     ecut=    50.00 Ry     beta=0.70
     Davidson diagonalization with overlap
     ethr =  5.56E-04,  avg # of iterations =  5.8

     negative rho (up, down):  1.960E+00 0.000E+00

     total cpu time spent up to now is      916.1 secs

     total energy              =   -7379.73201598 Ry
     Harris-Foulkes estimate   =   -7380.30668725 Ry
     estimated scf accuracy    <       4.26423072 Ry

     iteration #  6     ecut=    50.00 Ry     beta=0.70
     Davidson diagonalization with overlap
     ethr =  5.33E-04,  avg # of iterations =  2.7

     negative rho (up, down):  1.963E+00 0.000E+00

     total cpu time spent up to now is     1010.4 secs

     total energy              =   -7379.95230751 Ry
     Harris-Foulkes estimate   =   -7380.02906030 Ry
     estimated scf accuracy    <       0.28412298 Ry

     iteration #  7     ecut=    50.00 Ry     beta=0.70
     Davidson diagonalization with overlap
     ethr =  3.55E-05,  avg # of iterations =  9.5

     negative rho (up, down):  1.966E+00 0.000E+00

     total cpu time spent up to now is     1142.5 secs

     total energy              =   -7379.96878073 Ry
     Harris-Foulkes estimate   =   -7380.01681229 Ry
     estimated scf accuracy    <       0.25100304 Ry

     iteration #  8     ecut=    50.00 Ry     beta=0.70
     Davidson diagonalization with overlap
     ethr =  3.14E-05,  avg # of iterations =  3.0

     negative rho (up, down):  1.968E+00 0.000E+00

     total cpu time spent up to now is     1238.3 secs

     total energy              =   -7379.97678387 Ry
     Harris-Foulkes estimate   =   -7379.99954271 Ry
     estimated scf accuracy    <       0.09403496 Ry

     iteration #  9     ecut=    50.00 Ry     beta=0.70
     Davidson diagonalization with overlap
     ethr =  1.18E-05,  avg # of iterations =  9.0

     negative rho (up, down):  1.969E+00 0.000E+00

     total cpu time spent up to now is     1361.2 secs

     total energy              =   -7379.97921960 Ry
     Harris-Foulkes estimate   =   -7379.98951130 Ry
     estimated scf accuracy    <       0.03216222 Ry

     iteration # 10     ecut=    50.00 Ry     beta=0.70
     Davidson diagonalization with overlap
     ethr =  4.02E-06,  avg # of iterations = 11.2

     negative rho (up, down):  1.969E+00 0.000E+00

     total cpu time spent up to now is     1510.7 secs

     total energy              =   -7379.98106158 Ry
     Harris-Foulkes estimate   =   -7379.98442203 Ry
     estimated scf accuracy    <       0.00869109 Ry

     iteration # 11     ecut=    50.00 Ry     beta=0.70
     Davidson diagonalization with overlap
     ethr =  1.09E-06,  avg # of iterations =  3.3

     negative rho (up, down):  1.970E+00 0.000E+00

     total cpu time spent up to now is     1611.4 secs

     total energy              =   -7379.98172069 Ry
     Harris-Foulkes estimate   =   -7379.98326519 Ry
     estimated scf accuracy    <       0.00451160 Ry

     iteration # 12     ecut=    50.00 Ry     beta=0.70
     Davidson diagonalization with overlap
     ethr =  5.64E-07,  avg # of iterations =  2.2

     negative rho (up, down):  1.970E+00 0.000E+00

     total cpu time spent up to now is     1705.1 secs

     total energy              =   -7379.98161130 Ry
     Harris-Foulkes estimate   =   -7379.98312451 Ry
     estimated scf accuracy    <       0.00654850 Ry

     iteration # 13     ecut=    50.00 Ry     beta=0.70
     Davidson diagonalization with overlap
     ethr =  5.64E-07,  avg # of iterations =  5.8

     negative rho (up, down):  1.971E+00 0.000E+00

     total cpu time spent up to now is     1829.2 secs

     total energy              =   -7379.98146060 Ry
     Harris-Foulkes estimate   =   -7379.98361353 Ry
     estimated scf accuracy    <       0.01087568 Ry

     iteration # 14     ecut=    50.00 Ry     beta=0.70
     Davidson diagonalization with overlap
     ethr =  5.64E-07,  avg # of iterations =  3.7

     negative rho (up, down):  1.970E+00 0.000E+00

     total cpu time spent up to now is     1930.1 secs

     total energy              =   -7379.98246044 Ry
     Harris-Foulkes estimate   =   -7379.98251992 Ry
     estimated scf accuracy    <       0.00016251 Ry

     iteration # 15     ecut=    50.00 Ry     beta=0.70
     Davidson diagonalization with overlap
     ethr =  2.03E-08,  avg # of iterations =  3.0

     negative rho (up, down):  1.970E+00 0.000E+00

     total cpu time spent up to now is     2052.7 secs

     total energy              =   -7379.98242538 Ry
     Harris-Foulkes estimate   =   -7379.98258425 Ry
     estimated scf accuracy    <       0.00119030 Ry

     iteration # 16     ecut=    50.00 Ry     beta=0.70
     Davidson diagonalization with overlap
     ethr =  2.03E-08,  avg # of iterations =  3.0

     negative rho (up, down):  1.970E+00 0.000E+00

     total cpu time spent up to now is     2151.6 secs

     total energy              =   -7379.98249660 Ry
     Harris-Foulkes estimate   =   -7379.98253280 Ry
     estimated scf accuracy    <       0.00018279 Ry

     iteration # 17     ecut=    50.00 Ry     beta=0.70
     Davidson diagonalization with overlap
     ethr =  2.03E-08,  avg # of iterations =  1.0

     negative rho (up, down):  1.970E+00 0.000E+00

     total cpu time spent up to now is     2241.0 secs

     total energy              =   -7379.98251235 Ry
     Harris-Foulkes estimate   =   -7379.98251629 Ry
     estimated scf accuracy    <       0.00001137 Ry

     iteration # 18     ecut=    50.00 Ry     beta=0.70
     Davidson diagonalization with overlap
     ethr =  1.42E-09,  avg # of iterations =  3.0

     negative rho (up, down):  1.970E+00 0.000E+00

     total cpu time spent up to now is     2353.4 secs

     total energy              =   -7379.98251348 Ry
     Harris-Foulkes estimate   =   -7379.98251641 Ry
     estimated scf accuracy    <       0.00001133 Ry

     iteration # 19     ecut=    50.00 Ry     beta=0.70
     Davidson diagonalization with overlap
     ethr =  1.42E-09,  avg # of iterations =  2.0

     negative rho (up, down):  1.970E+00 0.000E+00

     total cpu time spent up to now is     2446.6 secs

     total energy              =   -7379.98251432 Ry
     Harris-Foulkes estimate   =   -7379.98251578 Ry
     estimated scf accuracy    <       0.00000658 Ry

     iteration # 20     ecut=    50.00 Ry     beta=0.70
     Davidson diagonalization with overlap
     ethr =  8.23E-10,  avg # of iterations =  2.0

     negative rho (up, down):  1.970E+00 0.000E+00

     total cpu time spent up to now is     2541.1 secs

     total energy              =   -7379.98251485 Ry
     Harris-Foulkes estimate   =   -7379.98251543 Ry
     estimated scf accuracy    <       0.00000236 Ry

     iteration # 21     ecut=    50.00 Ry     beta=0.70
     Davidson diagonalization with overlap
     ethr =  2.95E-10,  avg # of iterations =  2.0

     negative rho (up, down):  1.970E+00 0.000E+00

     total cpu time spent up to now is     2633.2 secs

     total energy              =   -7379.98251506 Ry
     Harris-Foulkes estimate   =   -7379.98251530 Ry
     estimated scf accuracy    <       0.00000085 Ry

     iteration # 22     ecut=    50.00 Ry     beta=0.70
     Davidson diagonalization with overlap
     ethr =  1.06E-10,  avg # of iterations =  2.0

     negative rho (up, down):  1.970E+00 0.000E+00

     total cpu time spent up to now is     2726.0 secs

     total energy              =   -7379.98251515 Ry
     Harris-Foulkes estimate   =   -7379.98251522 Ry
     estimated scf accuracy    <       0.00000032 Ry

     iteration # 23     ecut=    50.00 Ry     beta=0.70
     Davidson diagonalization with overlap
     ethr =  3.99E-11,  avg # of iterations =  2.0

     negative rho (up, down):  1.970E+00 0.000E+00

     total cpu time spent up to now is     2821.6 secs

     total energy              =   -7379.98251518 Ry
     Harris-Foulkes estimate   =   -7379.98251520 Ry
     estimated scf accuracy    <       0.00000004 Ry

     iteration # 24     ecut=    50.00 Ry     beta=0.70
     Davidson diagonalization with overlap
     ethr =  5.11E-12,  avg # of iterations =  3.0

     negative rho (up, down):  1.970E+00 0.000E+00

     total cpu time spent up to now is     2954.5 secs

     total energy              =   -7379.98251516 Ry
     Harris-Foulkes estimate   =   -7379.98251523 Ry
     estimated scf accuracy    <       0.00000029 Ry

     iteration # 25     ecut=    50.00 Ry     beta=0.70
     Davidson diagonalization with overlap
     ethr =  5.11E-12,  avg # of iterations =  3.0

     negative rho (up, down):  1.970E+00 0.000E+00

     total cpu time spent up to now is     3074.0 secs

     total energy              =   -7379.98251519 Ry
     Harris-Foulkes estimate   =   -7379.98251520 Ry
     estimated scf accuracy    <       0.00000002 Ry

     iteration # 26     ecut=    50.00 Ry     beta=0.70
     Davidson diagonalization with overlap
     ethr =  2.76E-12,  avg # of iterations =  2.0

     negative rho (up, down):  1.970E+00 0.000E+00

     total cpu time spent up to now is     3170.9 secs

     total energy              =   -7379.98251519 Ry
     Harris-Foulkes estimate   =   -7379.98251520 Ry
     estimated scf accuracy    <       0.00000007 Ry

     iteration # 27     ecut=    50.00 Ry     beta=0.70
     Davidson diagonalization with overlap
     ethr =  2.76E-12,  avg # of iterations =  2.0

     negative rho (up, down):  1.970E+00 0.000E+00

     total cpu time spent up to now is     3270.6 secs

     End of self-consistent calculation

          k = 0.2500 0.2500 0.0833 (167653 PWs)   bands (ev):

   -19.4036  -7.2600  -6.8356  -6.3070  -6.3058  -5.8685  -5.4651  -5.3666
    -5.3661  -5.1448  -5.1447  -5.0489  -5.0470  -4.9149  -4.9063  -4.7973
    -4.7088  -4.7043  -4.6841  -4.6832  -4.5028  -4.5010  -4.5007  -4.4744
    -4.4702  -4.4699  -4.4657  -4.4142  -4.4126  -4.4099  -4.4097  -4.3459
    -4.3177  -4.3174  -4.2621  -4.2576  -4.2564  -4.2208  -4.2201  -4.2061
    -4.2015  -4.1832  -4.1829  -4.1478  -4.1136  -4.1134  -4.1114  -4.1074
    -4.1071  -4.0804  -4.0496  -4.0467  -4.0172  -4.0170  -4.0137  -4.0130
    -4.0115  -4.0051  -3.9746  -3.9729  -3.9161  -3.9126  -3.8822  -3.8569
    -3.8469  -3.8443  -3.8434  -3.8213  -3.8207  -3.8095  -3.7598  -3.7587
    -3.7534  -3.7528  -3.6723  -3.6675  -3.6487  -3.6452  -3.6122  -3.6106
    -3.5941  -3.5727  -3.5696  -3.5351  -3.5246  -3.5238  -3.5225  -3.5058
    -3.4980  -3.4972  -3.4168  -3.4165  -3.4132  -3.3999  -3.3845  -3.3788
    -3.3700  -3.3695  -3.3632  -3.3608  -3.3204  -3.3191  -3.2985  -3.2967
    -3.2616  -3.2603  -3.2351  -3.2133  -3.2127  -3.1676  -3.1669  -3.1343
    -3.1072  -3.1060  -3.1053  -3.1050  -3.1009  -3.1004  -3.0765  -3.0637
    -3.0263  -3.0256  -3.0052  -2.9808  -2.9782  -2.9777  -2.9726  -2.9717
    -2.9676  -2.9674  -2.9326  -2.9312  -2.9308  -2.9261  -2.9250  -2.9204
    -2.8652  -2.8607  -2.8553  -2.8545  -2.8344  -2.8331  -2.8286  -2.7387
    -2.7294  -2.7286  -2.7199  -2.7186  -2.7140  -2.7120  -2.7113  -2.7029
    -2.7024  -2.6936  -2.6847  -2.6838  -2.6812  -2.6766  -2.6669  -2.6632
    -2.6595  -2.6384  -2.6275  -2.6262  -2.6112  -2.6109  -2.5956  -2.5942
    -2.5849  -2.5848  -2.5640  -2.5541  -2.5520  -2.5485  -2.5465  -2.5142
    -2.5106  -2.5098  -2.4522  -2.4479  -2.4345  -2.4338  -2.4250  -2.4199
    -2.3968  -2.3960  -2.3910  -2.3814  -2.3786  -2.3703  -2.3668  -2.3518
    -2.3501  -2.3237  -2.3226  -2.3144  -2.3133  -2.3032  -2.3028  -2.2882
    -2.2741  -2.2535  -2.1852  -2.1817  -2.1627  -2.1618  -2.1555  -2.1504
    -2.1065  -2.0995  -2.0893  -2.0658  -2.0562  -2.0541  -2.0346  -2.0185
    -2.0162  -2.0032  -1.9983  -1.9735  -1.9673  -1.9655  -1.9555  -1.9535
    -1.9515  -1.9477  -1.9319  -1.9194  -1.9169  -1.9115  -1.9109  -1.9096
    -1.9085  -1.9071  -1.8943  -1.8812  -1.8739  -1.8710  -1.8675  -1.8538
    -1.8527  -1.8498  -1.8489  -1.8428  -1.8409  -1.8136  -1.8052  -1.7627
    -1.7450  -1.7429  -1.7303  -1.6974  -1.6955  -1.6954  -1.6855  -1.6815
    -1.6718  -1.6678  -1.6636  -1.6564  -1.6533  -1.6341  -1.6324  -1.5981
    -1.5960  -1.5777  -1.5629  -1.5564  -1.5404  -1.5177  -1.5001  -1.4661
    -1.4576  -1.4423  -1.4236  -1.4185  -1.4179  -1.4131  -1.4085  -1.3945
    -1.3932  -1.3914  -1.3910  -1.3898  -1.3890  -1.3874  -1.3857  -1.3667
    -1.3596  -1.3460  -1.3264  -1.3256  -1.3216  -1.3029  -1.3027  -1.2982
    -1.2968  -1.2933  -1.2738  -1.2572  -1.2477  -1.2317  -1.2300  -1.2111
    -1.2033  -1.1997  -1.1923  -1.1708  -1.1696  -1.1629  -1.1492  -1.1241
    -1.1194  -1.1123  -1.1111  -1.1104  -1.1027  -1.0851  -1.0840  -1.0715
    -1.0640  -1.0628  -1.0513  -1.0501  -1.0496  -1.0430  -1.0389  -1.0280
    -1.0265  -1.0202  -1.0195  -1.0126  -1.0092  -0.9944  -0.9925  -0.9521
    -0.9507  -0.9486  -0.9464  -0.9432  -0.9417  -0.9140  -0.9042  -0.9012
    -0.8821  -0.8766  -0.8739  -0.8694  -0.8658  -0.8572  -0.8548  -0.8217
    -0.8201  -0.8097  -0.8084  -0.7894  -0.7888  -0.7739  -0.7506  -0.7417
    -0.7250  -0.7235  -0.6861  -0.6858  -0.6835  -0.6816  -0.6781  -0.6755
    -0.6748  -0.6742  -0.6694  -0.6682  -0.6360  -0.6355  -0.6334  -0.6328
    -0.6309  -0.6197  -0.6180  -0.6114  -0.5898  -0.3311  -0.3192  -0.2745
    -0.2644  -0.2432  -0.1814  -0.0329  -0.0319   0.0053   0.2823   0.2850
     0.6230   0.6281   0.6670   0.6677   0.7170   0.7202   0.8772   0.8819
     1.0044   1.0073   1.1240   1.6155   1.6569   1.6627   1.6983   1.6993
     1.8348   1.8400   1.8908   1.8946   2.0738   2.0750   2.3576   2.3849
     2.3904   2.4088   2.8391   2.8450   2.8643   2.8655   2.8831   2.8838
     2.9482   2.9485   3.1004   3.2256   3.2279   3.4146   3.4168   3.5221
     3.5922   3.5941   3.8919   3.8940   3.9437   3.9531   3.9541   4.0907
     4.1004   4.1095   4.1285   4.3936   4.3955   4.4323   4.4348   4.5443
     4.5495   4.6094   4.6163   4.8843   5.4590   5.4979   5.5005   5.5791
     5.6664   5.7001   5.7064   5.7744   5.7774   5.7934   5.7944   5.8715
     5.9020   5.9218   6.0863   6.1762   6.1927   6.1965   6.2008   6.2075
     6.2182   6.2255   6.3272   6.3735   6.3894   6.4072   6.4850   6.5223

          k = 0.2500 0.2500-0.2500 (167588 PWs)   bands (ev):

   -19.4036  -7.2600  -6.8356  -6.3070  -6.3058  -5.8685  -5.4651  -5.3666
    -5.3661  -5.1448  -5.1446  -5.0489  -5.0470  -4.9149  -4.9063  -4.7973
    -4.7088  -4.7043  -4.6841  -4.6832  -4.5028  -4.5010  -4.5007  -4.4744
    -4.4702  -4.4699  -4.4657  -4.4142  -4.4126  -4.4099  -4.4097  -4.3459
    -4.3177  -4.3174  -4.2622  -4.2576  -4.2564  -4.2208  -4.2201  -4.2062
    -4.2015  -4.1832  -4.1829  -4.1478  -4.1136  -4.1134  -4.1114  -4.1074
    -4.1071  -4.0804  -4.0495  -4.0467  -4.0172  -4.0170  -4.0137  -4.0130
    -4.0115  -4.0051  -3.9746  -3.9729  -3.9161  -3.9126  -3.8822  -3.8569
    -3.8469  -3.8443  -3.8434  -3.8213  -3.8207  -3.8095  -3.7598  -3.7587
    -3.7534  -3.7528  -3.6723  -3.6675  -3.6487  -3.6453  -3.6122  -3.6106
    -3.5941  -3.5727  -3.5696  -3.5351  -3.5246  -3.5238  -3.5225  -3.5058
    -3.4979  -3.4972  -3.4168  -3.4165  -3.4132  -3.3999  -3.3845  -3.3788
    -3.3700  -3.3695  -3.3632  -3.3608  -3.3204  -3.3191  -3.2985  -3.2967
    -3.2616  -3.2603  -3.2351  -3.2133  -3.2127  -3.1676  -3.1669  -3.1343
    -3.1072  -3.1060  -3.1053  -3.1050  -3.1009  -3.1004  -3.0765  -3.0637
    -3.0263  -3.0256  -3.0052  -2.9808  -2.9781  -2.9777  -2.9726  -2.9717
    -2.9676  -2.9674  -2.9326  -2.9312  -2.9308  -2.9261  -2.9250  -2.9204
    -2.8651  -2.8607  -2.8553  -2.8545  -2.8344  -2.8331  -2.8286  -2.7387
    -2.7294  -2.7286  -2.7199  -2.7186  -2.7139  -2.7120  -2.7113  -2.7029
    -2.7024  -2.6936  -2.6847  -2.6838  -2.6812  -2.6767  -2.6669  -2.6632
    -2.6594  -2.6384  -2.6275  -2.6262  -2.6112  -2.6109  -2.5956  -2.5942
    -2.5849  -2.5848  -2.5640  -2.5541  -2.5520  -2.5485  -2.5465  -2.5142
    -2.5106  -2.5098  -2.4522  -2.4479  -2.4345  -2.4338  -2.4250  -2.4199
    -2.3968  -2.3960  -2.3910  -2.3814  -2.3786  -2.3703  -2.3668  -2.3518
    -2.3501  -2.3237  -2.3226  -2.3144  -2.3133  -2.3032  -2.3028  -2.2882
    -2.2741  -2.2535  -2.1852  -2.1818  -2.1627  -2.1618  -2.1555  -2.1504
    -2.1065  -2.0995  -2.0893  -2.0658  -2.0562  -2.0541  -2.0346  -2.0185
    -2.0162  -2.0032  -1.9983  -1.9735  -1.9673  -1.9655  -1.9555  -1.9535
    -1.9515  -1.9477  -1.9319  -1.9194  -1.9169  -1.9115  -1.9109  -1.9096
    -1.9085  -1.9071  -1.8943  -1.8812  -1.8739  -1.8710  -1.8675  -1.8538
    -1.8527  -1.8498  -1.8489  -1.8428  -1.8409  -1.8136  -1.8052  -1.7627
    -1.7450  -1.7429  -1.7303  -1.6974  -1.6955  -1.6954  -1.6855  -1.6815
    -1.6717  -1.6678  -1.6636  -1.6563  -1.6533  -1.6341  -1.6324  -1.5981
    -1.5960  -1.5777  -1.5629  -1.5564  -1.5404  -1.5177  -1.5001  -1.4661
    -1.4576  -1.4423  -1.4236  -1.4185  -1.4179  -1.4131  -1.4085  -1.3945
    -1.3932  -1.3914  -1.3910  -1.3898  -1.3890  -1.3874  -1.3857  -1.3667
    -1.3596  -1.3460  -1.3264  -1.3256  -1.3216  -1.3029  -1.3026  -1.2982
    -1.2968  -1.2933  -1.2738  -1.2572  -1.2477  -1.2317  -1.2300  -1.2111
    -1.2033  -1.1997  -1.1923  -1.1708  -1.1696  -1.1629  -1.1492  -1.1241
    -1.1194  -1.1123  -1.1111  -1.1104  -1.1027  -1.0851  -1.0840  -1.0715
    -1.0641  -1.0628  -1.0513  -1.0501  -1.0496  -1.0430  -1.0389  -1.0280
    -1.0266  -1.0202  -1.0195  -1.0126  -1.0092  -0.9944  -0.9925  -0.9521
    -0.9507  -0.9486  -0.9464  -0.9432  -0.9417  -0.9140  -0.9042  -0.9012
    -0.8821  -0.8766  -0.8739  -0.8694  -0.8658  -0.8572  -0.8548  -0.8217
    -0.8201  -0.8097  -0.8084  -0.7894  -0.7888  -0.7739  -0.7506  -0.7417
    -0.7250  -0.7235  -0.6861  -0.6858  -0.6835  -0.6816  -0.6781  -0.6755
    -0.6748  -0.6742  -0.6694  -0.6682  -0.6360  -0.6355  -0.6334  -0.6328
    -0.6309  -0.6197  -0.6180  -0.6114  -0.5898  -0.3311  -0.3192  -0.2745
    -0.2644  -0.2432  -0.1814  -0.0329  -0.0319   0.0053   0.2823   0.2850
     0.6230   0.6281   0.6670   0.6677   0.7170   0.7202   0.8772   0.8819
     1.0044   1.0073   1.1240   1.6155   1.6569   1.6627   1.6983   1.6993
     1.8348   1.8400   1.8908   1.8946   2.0738   2.0750   2.3576   2.3849
     2.3904   2.4088   2.8391   2.8450   2.8643   2.8655   2.8831   2.8838
     2.9482   2.9485   3.1004   3.2256   3.2279   3.4146   3.4168   3.5221
     3.5922   3.5941   3.8919   3.8940   3.9437   3.9531   3.9541   4.0907
     4.1004   4.1095   4.1286   4.3936   4.3955   4.4323   4.4348   4.5443
     4.5495   4.6094   4.6163   4.8843   5.4556   5.4979   5.4999   5.5792
     5.6492   5.7001   5.7057   5.7740   5.7761   5.7934   5.7942   5.8637
     5.9038   5.9616   6.1422   6.1588   6.1827   6.1930   6.1979   6.2034
     6.2083   6.2253   6.3183   6.3746   6.3952   6.4768   6.5175   6.5492

          k =-0.2500-0.2500 0.0833 (167653 PWs)   bands (ev):

   -19.4036  -7.2600  -6.8356  -6.3070  -6.3058  -5.8685  -5.4651  -5.3666
    -5.3661  -5.1448  -5.1447  -5.0489  -5.0470  -4.9149  -4.9063  -4.7973
    -4.7088  -4.7043  -4.6841  -4.6832  -4.5028  -4.5010  -4.5007  -4.4744
    -4.4702  -4.4699  -4.4657  -4.4142  -4.4126  -4.4099  -4.4097  -4.3459
    -4.3177  -4.3174  -4.2621  -4.2576  -4.2564  -4.2208  -4.2201  -4.2061
    -4.2015  -4.1832  -4.1829  -4.1478  -4.1136  -4.1134  -4.1114  -4.1074
    -4.1071  -4.0804  -4.0496  -4.0467  -4.0172  -4.0170  -4.0137  -4.0130
    -4.0115  -4.0051  -3.9746  -3.9729  -3.9161  -3.9126  -3.8822  -3.8569
    -3.8469  -3.8443  -3.8434  -3.8213  -3.8207  -3.8095  -3.7598  -3.7587
    -3.7534  -3.7528  -3.6723  -3.6675  -3.6487  -3.6452  -3.6122  -3.6106
    -3.5941  -3.5727  -3.5696  -3.5351  -3.5246  -3.5238  -3.5225  -3.5058
    -3.4980  -3.4972  -3.4168  -3.4165  -3.4132  -3.3999  -3.3845  -3.3788
    -3.3700  -3.3695  -3.3632  -3.3608  -3.3204  -3.3191  -3.2985  -3.2967
    -3.2616  -3.2603  -3.2351  -3.2133  -3.2127  -3.1676  -3.1669  -3.1343
    -3.1072  -3.1060  -3.1053  -3.1050  -3.1009  -3.1004  -3.0765  -3.0637
    -3.0263  -3.0256  -3.0052  -2.9808  -2.9782  -2.9777  -2.9726  -2.9717
    -2.9676  -2.9674  -2.9326  -2.9312  -2.9308  -2.9261  -2.9250  -2.9204
    -2.8652  -2.8607  -2.8553  -2.8545  -2.8344  -2.8331  -2.8286  -2.7387
    -2.7294  -2.7286  -2.7199  -2.7186  -2.7140  -2.7120  -2.7113  -2.7029
    -2.7024  -2.6936  -2.6847  -2.6838  -2.6812  -2.6766  -2.6669  -2.6632
    -2.6595  -2.6384  -2.6275  -2.6262  -2.6112  -2.6109  -2.5956  -2.5942
    -2.5849  -2.5848  -2.5640  -2.5541  -2.5520  -2.5485  -2.5465  -2.5142
    -2.5106  -2.5098  -2.4522  -2.4479  -2.4345  -2.4338  -2.4250  -2.4199
    -2.3968  -2.3960  -2.3910  -2.3814  -2.3786  -2.3703  -2.3668  -2.3518
    -2.3501  -2.3237  -2.3226  -2.3144  -2.3133  -2.3032  -2.3028  -2.2882
    -2.2741  -2.2535  -2.1852  -2.1817  -2.1627  -2.1618  -2.1555  -2.1504
    -2.1065  -2.0995  -2.0893  -2.0658  -2.0562  -2.0541  -2.0346  -2.0185
    -2.0162  -2.0032  -1.9983  -1.9735  -1.9673  -1.9655  -1.9555  -1.9535
    -1.9515  -1.9477  -1.9319  -1.9194  -1.9169  -1.9115  -1.9109  -1.9096
    -1.9085  -1.9071  -1.8943  -1.8812  -1.8739  -1.8710  -1.8675  -1.8538
    -1.8527  -1.8498  -1.8489  -1.8428  -1.8409  -1.8136  -1.8052  -1.7627
    -1.7450  -1.7429  -1.7303  -1.6974  -1.6955  -1.6954  -1.6855  -1.6815
    -1.6718  -1.6678  -1.6636  -1.6564  -1.6533  -1.6341  -1.6324  -1.5981
    -1.5960  -1.5777  -1.5629  -1.5564  -1.5404  -1.5177  -1.5001  -1.4661
    -1.4576  -1.4423  -1.4236  -1.4185  -1.4179  -1.4131  -1.4085  -1.3945
    -1.3932  -1.3914  -1.3910  -1.3898  -1.3890  -1.3874  -1.3857  -1.3667
    -1.3596  -1.3460  -1.3264  -1.3256  -1.3216  -1.3029  -1.3027  -1.2982
    -1.2968  -1.2933  -1.2738  -1.2572  -1.2477  -1.2317  -1.2300  -1.2111
    -1.2033  -1.1997  -1.1923  -1.1708  -1.1696  -1.1629  -1.1492  -1.1241
    -1.1194  -1.1123  -1.1111  -1.1104  -1.1027  -1.0851  -1.0840  -1.0715
    -1.0640  -1.0628  -1.0513  -1.0501  -1.0496  -1.0430  -1.0389  -1.0280
    -1.0265  -1.0202  -1.0195  -1.0126  -1.0092  -0.9944  -0.9925  -0.9521
    -0.9507  -0.9486  -0.9464  -0.9432  -0.9417  -0.9140  -0.9042  -0.9012
    -0.8821  -0.8766  -0.8739  -0.8694  -0.8658  -0.8572  -0.8548  -0.8217
    -0.8201  -0.8097  -0.8084  -0.7894  -0.7888  -0.7739  -0.7506  -0.7417
    -0.7250  -0.7235  -0.6861  -0.6858  -0.6835  -0.6816  -0.6781  -0.6755
    -0.6748  -0.6742  -0.6694  -0.6682  -0.6360  -0.6355  -0.6334  -0.6328
    -0.6309  -0.6197  -0.6180  -0.6114  -0.5898  -0.3311  -0.3192  -0.2745
    -0.2644  -0.2432  -0.1814  -0.0329  -0.0319   0.0053   0.2823   0.2850
     0.6230   0.6281   0.6670   0.6677   0.7170   0.7202   0.8772   0.8819
     1.0044   1.0073   1.1240   1.6155   1.6569   1.6627   1.6983   1.6993
     1.8348   1.8400   1.8908   1.8946   2.0738   2.0750   2.3576   2.3849
     2.3904   2.4088   2.8391   2.8450   2.8643   2.8655   2.8831   2.8838
     2.9482   2.9485   3.1004   3.2256   3.2279   3.4146   3.4168   3.5221
     3.5922   3.5941   3.8919   3.8940   3.9437   3.9531   3.9541   4.0907
     4.1004   4.1095   4.1285   4.3936   4.3955   4.4323   4.4348   4.5443
     4.5495   4.6094   4.6163   4.8843   5.4588   5.4979   5.5004   5.5791
     5.6676   5.7001   5.7067   5.7742   5.7771   5.7934   5.7943   5.8665
     5.9035   5.9237   6.0889   6.1762   6.1927   6.1962   6.2007   6.2075
     6.2179   6.2253   6.3347   6.3724   6.3879   6.4032   6.4782   6.5214

          k =-0.2500 0.2500-0.0833 (167653 PWs)   bands (ev):

   -19.4036  -7.2600  -6.8356  -6.3077  -6.3050  -5.8686  -5.4651  -5.3680
    -5.3648  -5.1449  -5.1444  -5.0502  -5.0460  -4.9146  -4.9065  -4.7972
    -4.7087  -4.7045  -4.6845  -4.6832  -4.5027  -4.5025  -4.4995  -4.4744
    -4.4701  -4.4700  -4.4656  -4.4154  -4.4112  -4.4109  -4.4083  -4.3459
    -4.3179  -4.3172  -4.2619  -4.2578  -4.2562  -4.2228  -4.2186  -4.2063
    -4.2015  -4.1832  -4.1828  -4.1469  -4.1145  -4.1125  -4.1107  -4.1082
    -4.1063  -4.0789  -4.0525  -4.0465  -4.0183  -4.0159  -4.0140  -4.0129
    -4.0118  -4.0049  -3.9770  -3.9716  -3.9154  -3.9113  -3.8813  -3.8603
    -3.8468  -3.8446  -3.8435  -3.8217  -3.8205  -3.8095  -3.7593  -3.7586
    -3.7542  -3.7517  -3.6711  -3.6668  -3.6501  -3.6442  -3.6117  -3.6106
    -3.5941  -3.5748  -3.5697  -3.5370  -3.5257  -3.5232  -3.5224  -3.5016
    -3.4985  -3.4944  -3.4177  -3.4160  -3.4154  -3.3994  -3.3861  -3.3790
    -3.3709  -3.3692  -3.3634  -3.3579  -3.3205  -3.3182  -3.2991  -3.2958
    -3.2624  -3.2596  -3.2352  -3.2139  -3.2127  -3.1684  -3.1659  -3.1345
    -3.1074  -3.1057  -3.1053  -3.1051  -3.1014  -3.1003  -3.0765  -3.0636
    -3.0264  -3.0259  -3.0051  -2.9808  -2.9790  -2.9772  -2.9738  -2.9698
    -2.9677  -2.9672  -2.9329  -2.9312  -2.9300  -2.9265  -2.9249  -2.9205
    -2.8651  -2.8613  -2.8566  -2.8539  -2.8344  -2.8331  -2.8284  -2.7387
    -2.7304  -2.7276  -2.7218  -2.7170  -2.7141  -2.7124  -2.7107  -2.7031
    -2.7020  -2.6936  -2.6845  -2.6834  -2.6813  -2.6766  -2.6667  -2.6630
    -2.6592  -2.6385  -2.6289  -2.6251  -2.6119  -2.6106  -2.5955  -2.5941
    -2.5859  -2.5838  -2.5640  -2.5541  -2.5522  -2.5483  -2.5462  -2.5147
    -2.5107  -2.5097  -2.4525  -2.4479  -2.4344  -2.4333  -2.4249  -2.4193
    -2.3977  -2.3952  -2.3909  -2.3821  -2.3787  -2.3707  -2.3652  -2.3537
    -2.3481  -2.3237  -2.3224  -2.3143  -2.3122  -2.3042  -2.3021  -2.2892
    -2.2748  -2.2537  -2.1845  -2.1824  -2.1637  -2.1610  -2.1556  -2.1505
    -2.1069  -2.0995  -2.0903  -2.0654  -2.0563  -2.0535  -2.0343  -2.0183
    -2.0166  -2.0031  -1.9988  -1.9761  -1.9697  -1.9623  -1.9558  -1.9532
    -1.9513  -1.9475  -1.9339  -1.9195  -1.9165  -1.9114  -1.9110  -1.9097
    -1.9089  -1.9056  -1.8940  -1.8804  -1.8742  -1.8710  -1.8675  -1.8543
    -1.8520  -1.8504  -1.8479  -1.8425  -1.8410  -1.8132  -1.8058  -1.7629
    -1.7461  -1.7405  -1.7360  -1.6974  -1.6962  -1.6950  -1.6851  -1.6800
    -1.6715  -1.6677  -1.6638  -1.6562  -1.6530  -1.6337  -1.6326  -1.5982
    -1.5955  -1.5776  -1.5587  -1.5568  -1.5419  -1.5178  -1.4985  -1.4664
    -1.4576  -1.4421  -1.4230  -1.4186  -1.4176  -1.4140  -1.4085  -1.3962
    -1.3950  -1.3910  -1.3901  -1.3897  -1.3892  -1.3876  -1.3853  -1.3670
    -1.3590  -1.3457  -1.3272  -1.3256  -1.3190  -1.3041  -1.3015  -1.2999
    -1.2968  -1.2930  -1.2740  -1.2574  -1.2455  -1.2322  -1.2301  -1.2111
    -1.2036  -1.1996  -1.1917  -1.1708  -1.1689  -1.1633  -1.1498  -1.1268
    -1.1167  -1.1128  -1.1112  -1.1093  -1.1034  -1.0863  -1.0834  -1.0710
    -1.0653  -1.0616  -1.0524  -1.0514  -1.0474  -1.0425  -1.0388  -1.0279
    -1.0246  -1.0210  -1.0192  -1.0122  -1.0109  -0.9957  -0.9916  -0.9505
    -0.9494  -0.9491  -0.9465  -0.9451  -0.9417  -0.9146  -0.9040  -0.9005
    -0.8841  -0.8753  -0.8738  -0.8696  -0.8658  -0.8571  -0.8544  -0.8229
    -0.8184  -0.8094  -0.8084  -0.7899  -0.7886  -0.7737  -0.7500  -0.7417
    -0.7257  -0.7226  -0.6868  -0.6861  -0.6833  -0.6816  -0.6781  -0.6762
    -0.6755  -0.6736  -0.6694  -0.6681  -0.6371  -0.6349  -0.6339  -0.6328
    -0.6315  -0.6199  -0.6187  -0.6082  -0.5896  -0.3314  -0.3192  -0.2784
    -0.2597  -0.2436  -0.1830  -0.0348  -0.0306   0.0048   0.2805   0.2879
     0.6180   0.6321   0.6652   0.6696   0.7133   0.7219   0.8714   0.8878
     1.0046   1.0076   1.1251   1.6160   1.6599   1.6628   1.6980   1.7000
     1.8214   1.8502   1.8874   1.9009   2.0701   2.0779   2.3588   2.3796
     2.3954   2.4085   2.8278   2.8509   2.8652   2.8695   2.8807   2.8859
     2.9469   2.9496   3.0964   3.2156   3.2381   3.4127   3.4167   3.5221
     3.5881   3.5993   3.8835   3.9011   3.9488   3.9531   3.9564   4.0870
     4.0965   4.1043   4.1359   4.3907   4.3977   4.4316   4.4384   4.5462
     4.5507   4.6035   4.6254   4.8875   5.4381   5.4987   5.5144   5.5793
     5.6644   5.6944   5.7111   5.7738   5.7805   5.7838   5.7973   5.8703
     5.9016   5.9211   6.0885   6.1725   6.1935   6.1958   6.2057   6.2080
     6.2113   6.2238   6.3292   6.3757   6.3888   6.3985   6.4871   6.5181

          k = 0.2500-0.2500-0.0833 (167653 PWs)   bands (ev):

   -19.4036  -7.2600  -6.8356  -6.3077  -6.3050  -5.8686  -5.4651  -5.3680
    -5.3648  -5.1449  -5.1444  -5.0502  -5.0460  -4.9146  -4.9065  -4.7972
    -4.7087  -4.7045  -4.6845  -4.6832  -4.5027  -4.5025  -4.4995  -4.4744
    -4.4701  -4.4700  -4.4656  -4.4154  -4.4112  -4.4109  -4.4083  -4.3459
    -4.3179  -4.3172  -4.2619  -4.2578  -4.2562  -4.2228  -4.2186  -4.2063
    -4.2015  -4.1832  -4.1828  -4.1469  -4.1145  -4.1125  -4.1107  -4.1082
    -4.1063  -4.0789  -4.0525  -4.0465  -4.0183  -4.0159  -4.0140  -4.0129
    -4.0118  -4.0049  -3.9770  -3.9716  -3.9154  -3.9113  -3.8813  -3.8603
    -3.8468  -3.8446  -3.8435  -3.8217  -3.8205  -3.8095  -3.7593  -3.7586
    -3.7542  -3.7517  -3.6711  -3.6668  -3.6501  -3.6442  -3.6117  -3.6106
    -3.5941  -3.5748  -3.5697  -3.5370  -3.5257  -3.5232  -3.5224  -3.5016
    -3.4985  -3.4944  -3.4177  -3.4160  -3.4154  -3.3994  -3.3861  -3.3790
    -3.3709  -3.3692  -3.3634  -3.3579  -3.3205  -3.3182  -3.2991  -3.2958
    -3.2624  -3.2596  -3.2352  -3.2139  -3.2127  -3.1684  -3.1659  -3.1345
    -3.1074  -3.1057  -3.1053  -3.1051  -3.1014  -3.1003  -3.0765  -3.0636
    -3.0264  -3.0259  -3.0051  -2.9808  -2.9790  -2.9772  -2.9738  -2.9698
    -2.9677  -2.9672  -2.9329  -2.9312  -2.9300  -2.9265  -2.9249  -2.9205
    -2.8651  -2.8613  -2.8566  -2.8539  -2.8344  -2.8331  -2.8284  -2.7387
    -2.7304  -2.7276  -2.7218  -2.7170  -2.7141  -2.7124  -2.7107  -2.7031
    -2.7020  -2.6936  -2.6845  -2.6834  -2.6813  -2.6766  -2.6667  -2.6630
    -2.6592  -2.6385  -2.6289  -2.6251  -2.6119  -2.6106  -2.5955  -2.5941
    -2.5859  -2.5838  -2.5640  -2.5541  -2.5522  -2.5483  -2.5462  -2.5147
    -2.5107  -2.5097  -2.4525  -2.4479  -2.4344  -2.4333  -2.4249  -2.4193
    -2.3977  -2.3952  -2.3909  -2.3821  -2.3787  -2.3707  -2.3652  -2.3537
    -2.3481  -2.3237  -2.3224  -2.3143  -2.3122  -2.3042  -2.3021  -2.2892
    -2.2748  -2.2537  -2.1845  -2.1824  -2.1637  -2.1610  -2.1556  -2.1505
    -2.1069  -2.0995  -2.0903  -2.0654  -2.0563  -2.0535  -2.0343  -2.0183
    -2.0166  -2.0031  -1.9988  -1.9761  -1.9697  -1.9623  -1.9558  -1.9532
    -1.9513  -1.9475  -1.9339  -1.9195  -1.9165  -1.9114  -1.9110  -1.9097
    -1.9089  -1.9056  -1.8940  -1.8804  -1.8742  -1.8710  -1.8675  -1.8543
    -1.8520  -1.8504  -1.8479  -1.8425  -1.8410  -1.8132  -1.8058  -1.7629
    -1.7461  -1.7405  -1.7360  -1.6974  -1.6962  -1.6950  -1.6851  -1.6800
    -1.6715  -1.6677  -1.6638  -1.6562  -1.6530  -1.6337  -1.6326  -1.5982
    -1.5955  -1.5776  -1.5587  -1.5568  -1.5419  -1.5178  -1.4985  -1.4664
    -1.4576  -1.4421  -1.4230  -1.4186  -1.4176  -1.4140  -1.4085  -1.3962
    -1.3950  -1.3910  -1.3901  -1.3897  -1.3892  -1.3876  -1.3853  -1.3670
    -1.3590  -1.3457  -1.3272  -1.3256  -1.3190  -1.3041  -1.3015  -1.2999
    -1.2968  -1.2930  -1.2740  -1.2574  -1.2455  -1.2322  -1.2301  -1.2111
    -1.2036  -1.1996  -1.1917  -1.1708  -1.1689  -1.1633  -1.1498  -1.1268
    -1.1167  -1.1128  -1.1112  -1.1093  -1.1034  -1.0863  -1.0834  -1.0710
    -1.0653  -1.0616  -1.0524  -1.0514  -1.0474  -1.0425  -1.0388  -1.0279
    -1.0246  -1.0210  -1.0192  -1.0122  -1.0109  -0.9957  -0.9916  -0.9505
    -0.9494  -0.9491  -0.9465  -0.9451  -0.9417  -0.9146  -0.9040  -0.9005
    -0.8841  -0.8753  -0.8738  -0.8696  -0.8658  -0.8571  -0.8544  -0.8229
    -0.8184  -0.8094  -0.8084  -0.7899  -0.7886  -0.7737  -0.7500  -0.7417
    -0.7257  -0.7226  -0.6868  -0.6861  -0.6833  -0.6816  -0.6781  -0.6762
    -0.6755  -0.6736  -0.6694  -0.6681  -0.6371  -0.6349  -0.6339  -0.6328
    -0.6315  -0.6199  -0.6187  -0.6082  -0.5896  -0.3314  -0.3192  -0.2784
    -0.2597  -0.2436  -0.1830  -0.0348  -0.0306   0.0048   0.2805   0.2879
     0.6180   0.6321   0.6652   0.6696   0.7133   0.7219   0.8714   0.8878
     1.0046   1.0076   1.1251   1.6160   1.6599   1.6628   1.6980   1.7000
     1.8214   1.8502   1.8874   1.9009   2.0701   2.0779   2.3588   2.3796
     2.3954   2.4085   2.8278   2.8509   2.8652   2.8695   2.8807   2.8859
     2.9469   2.9496   3.0964   3.2156   3.2381   3.4127   3.4167   3.5221
     3.5881   3.5993   3.8835   3.9011   3.9488   3.9531   3.9564   4.0870
     4.0965   4.1043   4.1359   4.3907   4.3977   4.4316   4.4384   4.5462
     4.5507   4.6035   4.6254   4.8875   5.4381   5.4987   5.5145   5.5795
     5.6646   5.6942   5.7109   5.7735   5.7807   5.7839   5.7972   5.8699
     5.9010   5.9205   6.0923   6.1717   6.1934   6.1958   6.2058   6.2080
     6.2114   6.2238   6.3268   6.3682   6.3881   6.4054   6.4896   6.5220

          k =-0.2500 0.2500 0.2500 (167588 PWs)   bands (ev):

   -19.4036  -7.2600  -6.8356  -6.3077  -6.3050  -5.8686  -5.4651  -5.3680
    -5.3648  -5.1449  -5.1444  -5.0502  -5.0460  -4.9146  -4.9065  -4.7972
    -4.7087  -4.7045  -4.6845  -4.6832  -4.5027  -4.5025  -4.4995  -4.4744
    -4.4701  -4.4700  -4.4657  -4.4154  -4.4112  -4.4109  -4.4083  -4.3459
    -4.3179  -4.3172  -4.2619  -4.2578  -4.2562  -4.2227  -4.2186  -4.2063
    -4.2015  -4.1832  -4.1828  -4.1469  -4.1145  -4.1125  -4.1107  -4.1082
    -4.1063  -4.0789  -4.0525  -4.0465  -4.0183  -4.0159  -4.0140  -4.0129
    -4.0118  -4.0049  -3.9770  -3.9716  -3.9155  -3.9113  -3.8813  -3.8603
    -3.8468  -3.8446  -3.8435  -3.8217  -3.8205  -3.8095  -3.7593  -3.7586
    -3.7542  -3.7517  -3.6711  -3.6668  -3.6501  -3.6442  -3.6117  -3.6106
    -3.5941  -3.5748  -3.5697  -3.5370  -3.5257  -3.5232  -3.5224  -3.5016
    -3.4985  -3.4944  -3.4177  -3.4161  -3.4154  -3.3994  -3.3861  -3.3790
    -3.3709  -3.3692  -3.3634  -3.3579  -3.3205  -3.3182  -3.2991  -3.2958
    -3.2624  -3.2595  -3.2352  -3.2139  -3.2127  -3.1684  -3.1659  -3.1345
    -3.1074  -3.1057  -3.1053  -3.1051  -3.1014  -3.1003  -3.0765  -3.0636
    -3.0264  -3.0259  -3.0051  -2.9808  -2.9790  -2.9772  -2.9738  -2.9698
    -2.9677  -2.9672  -2.9329  -2.9312  -2.9300  -2.9265  -2.9249  -2.9205
    -2.8651  -2.8613  -2.8566  -2.8539  -2.8344  -2.8331  -2.8284  -2.7387
    -2.7304  -2.7276  -2.7218  -2.7170  -2.7141  -2.7124  -2.7107  -2.7031
    -2.7020  -2.6936  -2.6845  -2.6834  -2.6813  -2.6766  -2.6667  -2.6630
    -2.6592  -2.6385  -2.6289  -2.6251  -2.6119  -2.6106  -2.5955  -2.5941
    -2.5859  -2.5838  -2.5640  -2.5541  -2.5522  -2.5483  -2.5461  -2.5147
    -2.5107  -2.5097  -2.4525  -2.4479  -2.4344  -2.4333  -2.4249  -2.4193
    -2.3977  -2.3952  -2.3909  -2.3821  -2.3787  -2.3707  -2.3652  -2.3537
    -2.3481  -2.3237  -2.3224  -2.3143  -2.3123  -2.3042  -2.3021  -2.2892
    -2.2748  -2.2537  -2.1845  -2.1824  -2.1637  -2.1610  -2.1556  -2.1505
    -2.1069  -2.0995  -2.0903  -2.0654  -2.0563  -2.0535  -2.0343  -2.0183
    -2.0166  -2.0031  -1.9988  -1.9761  -1.9697  -1.9623  -1.9558  -1.9532
    -1.9513  -1.9475  -1.9339  -1.9195  -1.9165  -1.9114  -1.9110  -1.9097
    -1.9089  -1.9056  -1.8940  -1.8804  -1.8742  -1.8710  -1.8675  -1.8543
    -1.8520  -1.8504  -1.8479  -1.8425  -1.8410  -1.8132  -1.8058  -1.7629
    -1.7461  -1.7405  -1.7360  -1.6974  -1.6962  -1.6950  -1.6851  -1.6799
    -1.6715  -1.6677  -1.6637  -1.6562  -1.6530  -1.6337  -1.6326  -1.5982
    -1.5955  -1.5776  -1.5587  -1.5568  -1.5419  -1.5178  -1.4985  -1.4664
    -1.4576  -1.4422  -1.4230  -1.4186  -1.4176  -1.4140  -1.4085  -1.3962
    -1.3950  -1.3910  -1.3901  -1.3897  -1.3892  -1.3876  -1.3853  -1.3670
    -1.3590  -1.3457  -1.3272  -1.3256  -1.3190  -1.3041  -1.3015  -1.2999
    -1.2968  -1.2930  -1.2740  -1.2574  -1.2455  -1.2322  -1.2301  -1.2111
    -1.2036  -1.1996  -1.1917  -1.1708  -1.1689  -1.1633  -1.1498  -1.1268
    -1.1167  -1.1128  -1.1112  -1.1093  -1.1034  -1.0863  -1.0834  -1.0710
    -1.0653  -1.0616  -1.0524  -1.0514  -1.0474  -1.0425  -1.0388  -1.0279
    -1.0246  -1.0210  -1.0192  -1.0122  -1.0109  -0.9957  -0.9916  -0.9505
    -0.9494  -0.9491  -0.9465  -0.9451  -0.9417  -0.9146  -0.9040  -0.9005
    -0.8841  -0.8753  -0.8738  -0.8696  -0.8658  -0.8571  -0.8544  -0.8229
    -0.8184  -0.8094  -0.8084  -0.7899  -0.7886  -0.7737  -0.7500  -0.7417
    -0.7257  -0.7225  -0.6868  -0.6861  -0.6833  -0.6816  -0.6781  -0.6762
    -0.6755  -0.6736  -0.6694  -0.6681  -0.6371  -0.6349  -0.6339  -0.6328
    -0.6315  -0.6199  -0.6187  -0.6082  -0.5896  -0.3314  -0.3192  -0.2784
    -0.2597  -0.2436  -0.1830  -0.0348  -0.0306   0.0048   0.2805   0.2879
     0.6180   0.6321   0.6652   0.6696   0.7133   0.7219   0.8714   0.8878
     1.0046   1.0076   1.1251   1.6160   1.6599   1.6628   1.6980   1.7000
     1.8214   1.8502   1.8874   1.9009   2.0701   2.0779   2.3588   2.3796
     2.3954   2.4085   2.8278   2.8509   2.8652   2.8695   2.8807   2.8859
     2.9468   2.9496   3.0964   3.2156   3.2381   3.4127   3.4167   3.5221
     3.5881   3.5993   3.8835   3.9011   3.9488   3.9531   3.9564   4.0870
     4.0965   4.1043   4.1359   4.3907   4.3977   4.4316   4.4384   4.5462
     4.5507   4.6035   4.6254   4.8876   5.4358   5.4987   5.5129   5.5789
     5.6478   5.6940   5.7104   5.7730   5.7798   5.7837   5.7972   5.8659
     5.9019   5.9584   6.1401   6.1562   6.1733   6.1952   6.2037   6.2074
     6.2101   6.2240   6.3163   6.3798   6.3857   6.4822   6.5105   6.5637

     the Fermi energy is     0.9501 ev

!    total energy              =   -7379.98251519 Ry
     Harris-Foulkes estimate   =   -7379.98251519 Ry
     estimated scf accuracy    <          3.1E-09 Ry

     The total energy is the sum of the following terms:

     one-electron contribution =  -48834.56928432 Ry
     hartree contribution      =   24966.72040521 Ry
     xc contribution           =   -3556.26202949 Ry
     ewald contribution        =   20044.12723369 Ry
     smearing contrib. (-TS)   =       0.00115973 Ry

     convergence has been achieved in  27 iterations

     negative rho (up, down):  1.970E+00 0.000E+00

     Forces acting on atoms (Ry/au):

     atom    1 type  3   force =     0.00805358    0.01064524    0.00910898
     atom    2 type  2   force =    -0.00759215   -0.00675937   -0.00797667
     atom    3 type  2   force =     0.00287333   -0.00230115    0.00281332
     atom    4 type  1   force =    -0.00019767   -0.00016699    0.01853658
     atom    5 type  1   force =    -0.00005194   -0.00030195    0.01826172
     atom    6 type  1   force =    -0.00000689   -0.00029210    0.01824741
     atom    7 type  1   force =    -0.00004035   -0.00004099    0.01808825
     atom    8 type  1   force =     0.00005353    0.00000590    0.01790353
     atom    9 type  1   force =     0.00025992    0.00003482    0.01836501
     atom   10 type  1   force =    -0.00027820   -0.00007003    0.01825720
     atom   11 type  1   force =     0.00001023    0.00004358    0.01795499
     atom   12 type  1   force =     0.00001103    0.00002398    0.01819889
     atom   13 type  1   force =     0.00004121    0.00003618    0.01791705
     atom   14 type  1   force =     0.00003207    0.00003234    0.01809184
     atom   15 type  1   force =     0.00021667    0.00002644    0.01822936
     atom   16 type  1   force =    -0.00030190    0.00000682    0.01824618
     atom   17 type  1   force =     0.00000205    0.00002429    0.01817968
     atom   18 type  1   force =    -0.00003846   -0.00000900    0.01804724
     atom   19 type  1   force =     0.00007049    0.00023266    0.01835998
     atom   20 type  1   force =     0.00001783    0.00022151    0.01824397
     atom   21 type  1   force =     0.00018917    0.00018597    0.01836933
     atom   22 type  1   force =     0.00000805   -0.00028789   -0.00243636
     atom   23 type  1   force =     0.00009359   -0.00025652   -0.00245429
     atom   24 type  1   force =     0.00032328   -0.00041414   -0.00244915
     atom   25 type  1   force =    -0.00034698    0.00005105   -0.00246685
     atom   26 type  1   force =     0.00005586    0.00004358   -0.00263012
     atom   27 type  1   force =    -0.00040294   -0.00011836   -0.00252057
     atom   28 type  1   force =     0.00000251    0.00011061   -0.00267420
     atom   29 type  1   force =    -0.00019780   -0.00009572   -0.00244988
     atom   30 type  1   force =     0.00056162    0.00008815   -0.00246928
     atom   31 type  1   force =    -0.00025115    0.00008256   -0.00249562
     atom   32 type  1   force =    -0.00008512   -0.00023038   -0.00245928
     atom   33 type  1   force =     0.00010884    0.00003567   -0.00255098
     atom   34 type  1   force =    -0.00016208   -0.00031573   -0.00249978
     atom   35 type  1   force =     0.00004517    0.00005102   -0.00255990
     atom   36 type  1   force =     0.00038366    0.00005800   -0.00236287
     atom   37 type  1   force =    -0.00039895    0.00027838   -0.00245937
     atom   38 type  1   force =     0.00008988    0.00053006   -0.00245186
     atom   39 type  1   force =     0.00011559    0.00037022   -0.00237021
     atom   40 type  1   force =    -0.00044485   -0.00041973    0.00095217
     atom   41 type  1   force =     0.00002962   -0.00016133    0.00138098
     atom   42 type  1   force =     0.00020400   -0.00035992    0.00142615
     atom   43 type  1   force =    -0.00011313    0.00004273    0.00160485
     atom   44 type  1   force =    -0.00034744   -0.00026763    0.00199171
     atom   45 type  1   force =     0.00018977    0.00005867    0.00150718
     atom   46 type  1   force =    -0.00033597    0.00011245    0.00145532
     atom   47 type  1   force =     0.00007892    0.00009608    0.00146654
     atom   48 type  1   force =     0.00005875    0.00005635    0.00139123
     atom   49 type  1   force =     0.00017676    0.00037677    0.00117708
     atom   50 type  1   force =    -0.00042809    0.00001371    0.00185824
     atom   51 type  1   force =    -0.00007269    0.00007764    0.00109818
     atom   52 type  1   force =     0.00000381   -0.00036653    0.00188945
     atom   53 type  1   force =     0.00003431    0.00007781    0.00146789
     atom   54 type  1   force =     0.00022425   -0.00003892    0.00149719
     atom   55 type  1   force =     0.00006626    0.00008434    0.00117981
     atom   56 type  1   force =     0.00000194    0.00018004    0.00136482
     atom   57 type  1   force =     0.00025961    0.00029757    0.00145311
     atom   58 type  1   force =    -0.00081933   -0.00260423   -0.01841446
     atom   59 type  1   force =    -0.00001900   -0.00023398   -0.01713279
     atom   60 type  1   force =     0.00026091   -0.00027861   -0.01710870
     atom   61 type  1   force =    -0.00325215   -0.00084581   -0.01972980
     atom   62 type  1   force =     0.00124381   -0.00021449   -0.01700815
     atom   63 type  1   force =     0.00005004   -0.00005363   -0.01703103
     atom   64 type  1   force =    -0.00018318    0.00150195   -0.01755069
     atom   65 type  1   force =     0.00007813   -0.00001126   -0.01718342
     atom   66 type  1   force =     0.00021162   -0.00001579   -0.01730730
     atom   67 type  1   force =    -0.00034101    0.00014035   -0.01733856
     atom   68 type  1   force =     0.00004568    0.00012204   -0.01726568
     atom   69 type  1   force =    -0.00004078    0.00002144   -0.01702479
     atom   70 type  1   force =    -0.00002975    0.00009491   -0.01703811
     atom   71 type  1   force =     0.00001685    0.00000196   -0.01700081
     atom   72 type  1   force =     0.00030042    0.00002483   -0.01728711
     atom   73 type  1   force =    -0.00023661    0.00026866   -0.01704849
     atom   74 type  1   force =    -0.00012234    0.00036248   -0.01711325
     atom   75 type  1   force =    -0.00001574    0.00030035   -0.01726202

     Total force =     0.021203     Total SCF correction =     0.000006

     BFGS Geometry Optimization

     number of scf cycles    =   1
     number of bfgs steps    =   0

     energy   new            =   -7379.9825151903 Ry

     new trust radius        =       0.0161602856 bohr
     new conv_thr            =       0.0000000100 Ry


ATOMIC_POSITIONS (angstrom)
O        2.131057542   2.132497651   9.078807271
H        1.521809270   1.542535627   8.569722788
H        2.711064066   1.514720389   9.560585867
Au       0.000000000   0.000000000   0.000000000    0   0   0
Au       4.253737926   0.000000000   0.000000000    0   0   0
Au       8.507475853   0.000000000   0.000000000    0   0   0
Au       2.126868963   2.126868963   0.000000000    0   0   0
Au       6.380607128   2.126868963   0.000000000    0   0   0
Au      10.634344101   2.126868963   0.000000000    0   0   0
Au       0.000000000   4.253737926   0.000000000    0   0   0
Au       4.253737926   4.253737926   0.000000000    0   0   0
Au       8.507475853   4.253737926   0.000000000    0   0   0
Au       2.126868963   6.380607128   0.000000000    0   0   0
Au       6.380607128   6.380607128   0.000000000    0   0   0
Au      10.634344101   6.380607128   0.000000000    0   0   0
Au       0.000000000   8.507475853   0.000000000    0   0   0
Au       4.253737926   8.507475853   0.000000000    0   0   0
Au       8.507475853   8.507475853   0.000000000    0   0   0
Au       2.126868963  10.634344101   0.000000000    0   0   0
Au       6.380607128  10.634344101   0.000000000    0   0   0
Au      10.634344101  10.634344101   0.000000000    0   0   0
Au       2.126868963   0.000000000   2.126868963    0   0   0
Au       6.380607128   0.000000000   2.126868963    0   0   0
Au      10.634344101   0.000000000   2.126868963    0   0   0
Au       0.000000000   2.126868963   2.126868963    0   0   0
Au       4.253737926   2.126868963   2.126868963    0   0   0
Au       8.507475853   2.126868963   2.126868963    0   0   0
Au       2.126868963   4.253737926   2.126868963    0   0   0
Au       6.380607128   4.253737926   2.126868963    0   0   0
Au      10.634344101   4.253737926   2.126868963    0   0   0
Au       0.000000000   6.380607128   2.126868963    0   0   0
Au       4.253737926   6.380607128   2.126868963    0   0   0
Au       8.507475853   6.380607128   2.126868963    0   0   0
Au       2.126868963   8.507475853   2.126868963    0   0   0
Au       6.380607128   8.507475853   2.126868963    0   0   0
Au      10.634344101   8.507475853   2.126868963    0   0   0
Au       0.000000000  10.634344101   2.126868963    0   0   0
Au       4.253737926  10.634344101   2.126868963    0   0   0
Au       8.507475853  10.634344101   2.126868963    0   0   0
Au      -0.000231899  -0.000231899   4.257900238    0   0   0
Au       4.253734589  -0.000230451   4.257893562    0   0   0
Au       8.507492065  -0.000233495   4.257904530    0   0   0
Au      -0.000230451   4.253734589   4.257893562    0   0   0
Au       4.253735065   4.253735065   4.257887840    0   0   0
Au       8.507489204   4.253735542   4.257899761    0   0   0
Au      -0.000233495   8.507492065   4.257904530    0   0   0
Au       4.253735542   8.507489204   4.257899761    0   0   0
Au       8.507491112   8.507491112   4.257910252    0   0   0
Au       2.126854181   2.126854181   4.257906914    0   0   0
Au       6.380599976   2.126855135   4.257899284    0   0   0
Au      10.634586334   2.126852274   4.257903576    0   0   0
Au       2.126855135   6.380599976   4.257899284    0   0   0
Au       6.380601406   6.380601406   4.257890701    0   0   0
Au      10.634584427   6.380601883   4.257895470    0   0   0
Au       2.126852274  10.634586334   4.257903576    0   0   0
Au       6.380601883  10.634584427   4.257895470    0   0   0
Au      10.634585381  10.634585381   4.257900715    0   0   0
Au       2.126863003  -0.000141616   6.373929977    0   0   0
Au       6.380603790  -0.000142418   6.373934269    0   0   0
Au      10.634494781  -0.000142245   6.373820305    0   0   0
Au      -0.000141616   2.126863003   6.373929977    0   0   0
Au       4.253733158   2.126865625   6.374044418    0   0   0
Au       8.507479668   2.126865625   6.374047279    0   0   0
Au       2.126865625   4.253733158   6.374044418    0   0   0
Au       6.380604744   4.253736019   6.374044895    0   0   0
Au      10.634491920   4.253734589   6.373939037    0   0   0
Au      -0.000142418   6.380603790   6.373934269    0   0   0
Au       4.253736019   6.380604744   6.374044895    0   0   0
Au       8.507478714   6.380605698   6.374047279    0   0   0
Au       2.126865625   8.507479668   6.374047279    0   0   0
Au       6.380605698   8.507478714   6.374047279    0   0   0
Au      10.634491920   8.507480621   6.373938560    0   0   0
Au      -0.000142245  10.634494781   6.373820305    0   0   0
Au       4.253734589  10.634491920   6.373939037    0   0   0
Au       8.507480621  10.634491920   6.373938560    0   0   0



     Writing output data file 987643.save
     Check: negative starting charge=   -1.945170
     NEW-OLD atomic charge density approx. for the potential
     Check: negative starting charge=   -1.945166

     negative rho (up, down):  1.970E+00 0.000E+00

     total cpu time spent up to now is     3310.4 secs

     per-process dynamical memory:   749.8 Mb

     Self-consistent Calculation

     iteration #  1     ecut=    50.00 Ry     beta=0.70
     Davidson diagonalization with overlap
     ethr =  1.00E-06,  avg # of iterations =  3.0

     Threshold (ethr) on eigenvalues was too large:
     Diagonalizing with lowered threshold

     Davidson diagonalization with overlap
     ethr =  2.64E-08,  avg # of iterations =  1.0

     negative rho (up, down):  1.970E+00 0.000E+00

     total cpu time spent up to now is     3498.4 secs

     total energy              =   -7379.98248396 Ry
     Harris-Foulkes estimate   =   -7379.98262351 Ry
     estimated scf accuracy    <       0.00021098 Ry

     iteration #  2     ecut=    50.00 Ry     beta=0.70
     Davidson diagonalization with overlap
     ethr =  2.64E-08,  avg # of iterations =  4.0

     negative rho (up, down):  1.970E+00 0.000E+00

     total cpu time spent up to now is     3611.8 secs

     total energy              =   -7379.98245886 Ry
     Harris-Foulkes estimate   =   -7379.98263862 Ry
     estimated scf accuracy    <       0.00040691 Ry

     iteration #  3     ecut=    50.00 Ry     beta=0.70
     Davidson diagonalization with overlap
     ethr =  2.64E-08,  avg # of iterations =  4.0

     negative rho (up, down):  1.970E+00 0.000E+00

     total cpu time spent up to now is     3724.4 secs

     total energy              =   -7379.98241386 Ry
     Harris-Foulkes estimate   =   -7379.98270629 Ry
     estimated scf accuracy    <       0.00247152 Ry

     iteration #  4     ecut=    50.00 Ry     beta=0.70
     Davidson diagonalization with overlap
     ethr =  2.64E-08,  avg # of iterations =  3.0

     negative rho (up, down):  1.970E+00 0.000E+00

     total cpu time spent up to now is     3825.4 secs

     total energy              =   -7379.98255577 Ry
     Harris-Foulkes estimate   =   -7379.98257254 Ry
     estimated scf accuracy    <       0.00005958 Ry

     iteration #  5     ecut=    50.00 Ry     beta=0.70
     Davidson diagonalization with overlap
     ethr =  7.45E-09,  avg # of iterations =  2.0

     negative rho (up, down):  1.970E+00 0.000E+00

     total cpu time spent up to now is     3921.3 secs

     total energy              =   -7379.98255616 Ry
     Harris-Foulkes estimate   =   -7379.98257862 Ry
     estimated scf accuracy    <       0.00012125 Ry

     iteration #  6     ecut=    50.00 Ry     beta=0.70
     Davidson diagonalization with overlap
     ethr =  7.45E-09,  avg # of iterations =  2.0

     negative rho (up, down):  1.970E+00 0.000E+00

     total cpu time spent up to now is     4013.8 secs

     total energy              =   -7379.98256559 Ry
     Harris-Foulkes estimate   =   -7379.98256939 Ry
     estimated scf accuracy    <       0.00001573 Ry

     iteration #  7     ecut=    50.00 Ry     beta=0.70
     Davidson diagonalization with overlap
     ethr =  1.97E-09,  avg # of iterations =  2.0

     negative rho (up, down):  1.970E+00 0.000E+00

     total cpu time spent up to now is     4105.7 secs

     total energy              =   -7379.98256746 Ry
     Harris-Foulkes estimate   =   -7379.98256794 Ry
     estimated scf accuracy    <       0.00000146 Ry

     iteration #  8     ecut=    50.00 Ry     beta=0.70
     Davidson diagonalization with overlap
     ethr =  1.82E-10,  avg # of iterations =  3.0

     negative rho (up, down):  1.970E+00 0.000E+00

     total cpu time spent up to now is     4212.5 secs

     total energy              =   -7379.98256766 Ry
     Harris-Foulkes estimate   =   -7379.98256793 Ry
     estimated scf accuracy    <       0.00000092 Ry

     iteration #  9     ecut=    50.00 Ry     beta=0.70
     Davidson diagonalization with overlap
     ethr =  1.15E-10,  avg # of iterations =  2.0

     negative rho (up, down):  1.970E+00 0.000E+00

     total cpu time spent up to now is     4317.9 secs

     total energy              =   -7379.98256775 Ry
     Harris-Foulkes estimate   =   -7379.98256787 Ry
     estimated scf accuracy    <       0.00000045 Ry

     iteration # 10     ecut=    50.00 Ry     beta=0.70
     Davidson diagonalization with overlap
     ethr =  5.57E-11,  avg # of iterations =  2.0

     negative rho (up, down):  1.970E+00 0.000E+00

     total cpu time spent up to now is     4412.9 secs

     total energy              =   -7379.98256780 Ry
     Harris-Foulkes estimate   =   -7379.98256782 Ry
     estimated scf accuracy    <       0.00000006 Ry

     iteration # 11     ecut=    50.00 Ry     beta=0.70
     Davidson diagonalization with overlap
     ethr =  7.22E-12,  avg # of iterations =  3.0

     negative rho (up, down):  1.970E+00 0.000E+00

     total cpu time spent up to now is     4515.0 secs

     total energy              =   -7379.98256781 Ry
     Harris-Foulkes estimate   =   -7379.98256782 Ry
     estimated scf accuracy    <       0.00000002 Ry

     iteration # 12     ecut=    50.00 Ry     beta=0.70
     Davidson diagonalization with overlap
     ethr =  1.92E-12,  avg # of iterations =  3.0

     negative rho (up, down):  1.970E+00 0.000E+00

     total cpu time spent up to now is     4627.1 secs

     total energy              =   -7379.98256781 Ry
     Harris-Foulkes estimate   =   -7379.98256782 Ry
     estimated scf accuracy    <       0.00000002 Ry

     iteration # 13     ecut=    50.00 Ry     beta=0.70
     Davidson diagonalization with overlap
     ethr =  1.92E-12,  avg # of iterations =  2.0

     negative rho (up, down):  1.970E+00 0.000E+00

     total cpu time spent up to now is     4719.2 secs

     total energy              =   -7379.98256781 Ry
     Harris-Foulkes estimate   =   -7379.98256782 Ry
     estimated scf accuracy    <       0.00000001 Ry

     iteration # 14     ecut=    50.00 Ry     beta=0.70
     Davidson diagonalization with overlap
     ethr =  1.38E-12,  avg # of iterations =  2.0

     negative rho (up, down):  1.970E+00 0.000E+00

     total cpu time spent up to now is     4812.3 secs

     End of self-consistent calculation

          k = 0.2500 0.2500 0.0833 (167653 PWs)   bands (ev):

   -19.3142  -7.1567  -6.8362  -6.3082  -6.3068  -5.8697  -5.4662  -5.3678
    -5.3673  -5.1460  -5.1459  -5.0501  -5.0481  -4.9161  -4.9075  -4.7986
    -4.7100  -4.7055  -4.6853  -4.6844  -4.5040  -4.5022  -4.5020  -4.4756
    -4.4714  -4.4712  -4.4669  -4.4155  -4.4138  -4.4111  -4.4109  -4.3471
    -4.3189  -4.3187  -4.2633  -4.2588  -4.2577  -4.2220  -4.2213  -4.2074
    -4.2028  -4.1844  -4.1841  -4.1491  -4.1148  -4.1146  -4.1127  -4.1086
    -4.1083  -4.0817  -4.0508  -4.0478  -4.0184  -4.0183  -4.0149  -4.0142
    -4.0127  -4.0063  -3.9758  -3.9740  -3.9174  -3.9138  -3.8834  -3.8581
    -3.8481  -3.8455  -3.8446  -3.8225  -3.8219  -3.8107  -3.7610  -3.7599
    -3.7546  -3.7540  -3.6737  -3.6687  -3.6500  -3.6464  -3.6134  -3.6118
    -3.5953  -3.5739  -3.5708  -3.5368  -3.5259  -3.5250  -3.5238  -3.5078
    -3.4991  -3.4984  -3.4180  -3.4177  -3.4142  -3.4012  -3.3857  -3.3799
    -3.3712  -3.3707  -3.3644  -3.3621  -3.3216  -3.3203  -3.2997  -3.2979
    -3.2628  -3.2615  -3.2363  -3.2145  -3.2138  -3.1689  -3.1681  -3.1355
    -3.1083  -3.1072  -3.1066  -3.1062  -3.1021  -3.1016  -3.0777  -3.0649
    -3.0275  -3.0268  -3.0064  -2.9820  -2.9794  -2.9789  -2.9738  -2.9729
    -2.9688  -2.9686  -2.9338  -2.9324  -2.9320  -2.9273  -2.9263  -2.9217
    -2.8664  -2.8619  -2.8565  -2.8556  -2.8356  -2.8344  -2.8299  -2.7399
    -2.7306  -2.7298  -2.7212  -2.7198  -2.7152  -2.7132  -2.7125  -2.7041
    -2.7036  -2.6948  -2.6859  -2.6849  -2.6824  -2.6779  -2.6681  -2.6644
    -2.6607  -2.6396  -2.6287  -2.6275  -2.6124  -2.6121  -2.5967  -2.5954
    -2.5862  -2.5860  -2.5652  -2.5552  -2.5532  -2.5497  -2.5477  -2.5153
    -2.5118  -2.5111  -2.4535  -2.4491  -2.4357  -2.4351  -2.4261  -2.4211
    -2.3981  -2.3972  -2.3922  -2.3824  -2.3798  -2.3715  -2.3680  -2.3530
    -2.3513  -2.3249  -2.3238  -2.3157  -2.3145  -2.3044  -2.3040  -2.2892
    -2.2753  -2.2546  -2.1863  -2.1829  -2.1639  -2.1630  -2.1564  -2.1517
    -2.1073  -2.1007  -2.0903  -2.0670  -2.0573  -2.0553  -2.0358  -2.0196
    -2.0175  -2.0044  -1.9995  -1.9742  -1.9684  -1.9667  -1.9566  -1.9547
    -1.9526  -1.9489  -1.9331  -1.9204  -1.9178  -1.9128  -1.9121  -1.9109
    -1.9097  -1.9083  -1.8955  -1.8819  -1.8751  -1.8722  -1.8687  -1.8550
    -1.8539  -1.8509  -1.8502  -1.8440  -1.8421  -1.8143  -1.8064  -1.7638
    -1.7457  -1.7441  -1.7289  -1.6986  -1.6967  -1.6966  -1.6867  -1.6826
    -1.6729  -1.6690  -1.6648  -1.6575  -1.6545  -1.6352  -1.6336  -1.5991
    -1.5972  -1.5789  -1.5631  -1.5576  -1.5390  -1.5190  -1.4994  -1.4673
    -1.4582  -1.4433  -1.4249  -1.4198  -1.4191  -1.4144  -1.4096  -1.3957
    -1.3944  -1.3926  -1.3922  -1.3910  -1.3902  -1.3886  -1.3869  -1.3675
    -1.3609  -1.3463  -1.3276  -1.3268  -1.3225  -1.3041  -1.3039  -1.2994
    -1.2980  -1.2945  -1.2747  -1.2584  -1.2486  -1.2329  -1.2312  -1.2123
    -1.2040  -1.2009  -1.1926  -1.1721  -1.1708  -1.1641  -1.1497  -1.1253
    -1.1204  -1.1135  -1.1123  -1.1116  -1.1032  -1.0863  -1.0852  -1.0728
    -1.0653  -1.0640  -1.0525  -1.0513  -1.0509  -1.0440  -1.0401  -1.0292
    -1.0277  -1.0215  -1.0207  -1.0138  -1.0104  -0.9954  -0.9931  -0.9533
    -0.9519  -0.9498  -0.9476  -0.9443  -0.9429  -0.9152  -0.9051  -0.9024
    -0.8833  -0.8777  -0.8751  -0.8703  -0.8670  -0.8584  -0.8557  -0.8229
    -0.8212  -0.8109  -0.8096  -0.7906  -0.7900  -0.7751  -0.7518  -0.7429
    -0.7262  -0.7247  -0.6873  -0.6870  -0.6848  -0.6828  -0.6792  -0.6767
    -0.6760  -0.6753  -0.6706  -0.6694  -0.6373  -0.6367  -0.6346  -0.6341
    -0.6321  -0.6208  -0.6192  -0.6120  -0.5910  -0.3324  -0.3204  -0.2757
    -0.2654  -0.2444  -0.1825  -0.0341  -0.0331   0.0043   0.2811   0.2838
     0.6218   0.6269   0.6658   0.6665   0.7158   0.7190   0.8760   0.8807
     1.0032   1.0061   1.1227   1.6142   1.6556   1.6615   1.6971   1.6981
     1.8335   1.8385   1.8896   1.8933   2.0726   2.0737   2.3561   2.3838
     2.3891   2.4076   2.8378   2.8435   2.8630   2.8643   2.8819   2.8826
     2.9469   2.9473   3.0988   3.2243   3.2266   3.4133   3.4156   3.5208
     3.5910   3.5927   3.8905   3.8926   3.9419   3.9519   3.9529   4.0888
     4.0992   4.1082   4.1272   4.3924   4.3941   4.4307   4.4336   4.5428
     4.5483   4.6081   4.6149   4.8824   5.4559   5.4967   5.4989   5.5777
     5.6665   5.6989   5.7051   5.7728   5.7762   5.7922   5.7932   5.8709
     5.9010   5.9214   6.0861   6.1733   6.1915   6.1952   6.1996   6.2063
     6.2181   6.2244   6.3265   6.3718   6.3890   6.4072   6.4843   6.5212

          k = 0.2500 0.2500-0.2500 (167588 PWs)   bands (ev):

   -19.3142  -7.1567  -6.8362  -6.3082  -6.3068  -5.8697  -5.4662  -5.3678
    -5.3673  -5.1460  -5.1459  -5.0501  -5.0481  -4.9161  -4.9075  -4.7986
    -4.7100  -4.7055  -4.6853  -4.6844  -4.5040  -4.5022  -4.5020  -4.4756
    -4.4714  -4.4712  -4.4669  -4.4155  -4.4138  -4.4111  -4.4109  -4.3471
    -4.3189  -4.3187  -4.2633  -4.2588  -4.2577  -4.2220  -4.2213  -4.2074
    -4.2028  -4.1844  -4.1841  -4.1491  -4.1148  -4.1146  -4.1127  -4.1086
    -4.1083  -4.0817  -4.0508  -4.0478  -4.0184  -4.0182  -4.0149  -4.0142
    -4.0127  -4.0063  -3.9757  -3.9740  -3.9174  -3.9138  -3.8834  -3.8581
    -3.8481  -3.8455  -3.8446  -3.8225  -3.8219  -3.8108  -3.7610  -3.7599
    -3.7546  -3.7540  -3.6737  -3.6687  -3.6500  -3.6464  -3.6134  -3.6118
    -3.5953  -3.5739  -3.5708  -3.5368  -3.5259  -3.5250  -3.5238  -3.5078
    -3.4991  -3.4984  -3.4180  -3.4177  -3.4142  -3.4012  -3.3857  -3.3799
    -3.3712  -3.3707  -3.3644  -3.3621  -3.3216  -3.3203  -3.2997  -3.2979
    -3.2628  -3.2615  -3.2363  -3.2145  -3.2138  -3.1689  -3.1681  -3.1355
    -3.1083  -3.1072  -3.1066  -3.1062  -3.1021  -3.1016  -3.0777  -3.0649
    -3.0275  -3.0268  -3.0064  -2.9820  -2.9794  -2.9789  -2.9738  -2.9729
    -2.9689  -2.9686  -2.9338  -2.9324  -2.9320  -2.9273  -2.9262  -2.9216
    -2.8663  -2.8619  -2.8565  -2.8556  -2.8355  -2.8344  -2.8298  -2.7399
    -2.7306  -2.7298  -2.7212  -2.7198  -2.7152  -2.7132  -2.7125  -2.7041
    -2.7036  -2.6948  -2.6859  -2.6849  -2.6824  -2.6779  -2.6681  -2.6644
    -2.6607  -2.6396  -2.6287  -2.6275  -2.6124  -2.6121  -2.5967  -2.5954
    -2.5862  -2.5860  -2.5652  -2.5552  -2.5532  -2.5497  -2.5477  -2.5154
    -2.5118  -2.5111  -2.4535  -2.4491  -2.4357  -2.4351  -2.4261  -2.4211
    -2.3981  -2.3972  -2.3922  -2.3824  -2.3798  -2.3715  -2.3680  -2.3530
    -2.3513  -2.3249  -2.3238  -2.3157  -2.3145  -2.3044  -2.3040  -2.2892
    -2.2752  -2.2546  -2.1863  -2.1829  -2.1639  -2.1630  -2.1564  -2.1517
    -2.1073  -2.1007  -2.0903  -2.0670  -2.0573  -2.0553  -2.0358  -2.0196
    -2.0175  -2.0044  -1.9995  -1.9742  -1.9684  -1.9667  -1.9566  -1.9547
    -1.9526  -1.9489  -1.9331  -1.9204  -1.9178  -1.9128  -1.9121  -1.9109
    -1.9097  -1.9083  -1.8956  -1.8819  -1.8751  -1.8722  -1.8687  -1.8550
    -1.8539  -1.8509  -1.8502  -1.8440  -1.8421  -1.8143  -1.8064  -1.7638
    -1.7457  -1.7441  -1.7289  -1.6986  -1.6967  -1.6966  -1.6867  -1.6826
    -1.6729  -1.6689  -1.6648  -1.6575  -1.6545  -1.6352  -1.6336  -1.5991
    -1.5972  -1.5789  -1.5631  -1.5576  -1.5390  -1.5190  -1.4994  -1.4673
    -1.4582  -1.4433  -1.4249  -1.4198  -1.4191  -1.4144  -1.4096  -1.3957
    -1.3944  -1.3926  -1.3922  -1.3910  -1.3902  -1.3886  -1.3869  -1.3675
    -1.3609  -1.3463  -1.3276  -1.3268  -1.3225  -1.3041  -1.3039  -1.2994
    -1.2980  -1.2945  -1.2747  -1.2584  -1.2486  -1.2329  -1.2312  -1.2123
    -1.2040  -1.2009  -1.1926  -1.1721  -1.1708  -1.1641  -1.1497  -1.1253
    -1.1204  -1.1135  -1.1123  -1.1116  -1.1032  -1.0863  -1.0852  -1.0728
    -1.0653  -1.0640  -1.0525  -1.0513  -1.0509  -1.0439  -1.0401  -1.0292
    -1.0277  -1.0214  -1.0207  -1.0138  -1.0104  -0.9954  -0.9931  -0.9533
    -0.9519  -0.9498  -0.9476  -0.9443  -0.9429  -0.9152  -0.9051  -0.9024
    -0.8833  -0.8777  -0.8751  -0.8703  -0.8670  -0.8584  -0.8557  -0.8229
    -0.8212  -0.8109  -0.8096  -0.7906  -0.7900  -0.7751  -0.7518  -0.7429
    -0.7262  -0.7247  -0.6873  -0.6870  -0.6848  -0.6828  -0.6792  -0.6767
    -0.6760  -0.6753  -0.6706  -0.6694  -0.6373  -0.6367  -0.6346  -0.6340
    -0.6321  -0.6208  -0.6192  -0.6120  -0.5910  -0.3324  -0.3204  -0.2757
    -0.2654  -0.2444  -0.1825  -0.0341  -0.0331   0.0043   0.2811   0.2838
     0.6218   0.6269   0.6658   0.6665   0.7158   0.7190   0.8760   0.8807
     1.0032   1.0061   1.1227   1.6142   1.6556   1.6615   1.6971   1.6981
     1.8336   1.8385   1.8896   1.8933   2.0726   2.0737   2.3561   2.3838
     2.3891   2.4076   2.8378   2.8435   2.8630   2.8643   2.8819   2.8826
     2.9469   2.9473   3.0988   3.2243   3.2266   3.4134   3.4156   3.5208
     3.5910   3.5927   3.8905   3.8926   3.9419   3.9519   3.9529   4.0888
     4.0992   4.1082   4.1273   4.3924   4.3941   4.4307   4.4336   4.5428
     4.5483   4.6081   4.6149   4.8825   5.4525   5.4967   5.4984   5.5778
     5.6493   5.6989   5.7044   5.7724   5.7750   5.7922   5.7930   5.8630
     5.9026   5.9612   6.1416   6.1586   6.1809   6.1918   6.1965   6.2021
     6.2071   6.2240   6.3178   6.3725   6.3946   6.4762   6.5165   6.5491

          k =-0.2500-0.2500 0.0833 (167653 PWs)   bands (ev):

   -19.3142  -7.1567  -6.8362  -6.3082  -6.3068  -5.8697  -5.4662  -5.3678
    -5.3673  -5.1460  -5.1459  -5.0501  -5.0481  -4.9161  -4.9075  -4.7986
    -4.7100  -4.7055  -4.6853  -4.6844  -4.5040  -4.5022  -4.5020  -4.4756
    -4.4714  -4.4712  -4.4669  -4.4155  -4.4138  -4.4111  -4.4109  -4.3471
    -4.3189  -4.3187  -4.2633  -4.2588  -4.2577  -4.2220  -4.2213  -4.2074
    -4.2028  -4.1844  -4.1841  -4.1491  -4.1148  -4.1146  -4.1127  -4.1086
    -4.1083  -4.0817  -4.0508  -4.0478  -4.0184  -4.0183  -4.0149  -4.0142
    -4.0127  -4.0063  -3.9758  -3.9740  -3.9174  -3.9138  -3.8834  -3.8581
    -3.8481  -3.8455  -3.8446  -3.8225  -3.8219  -3.8107  -3.7610  -3.7599
    -3.7546  -3.7540  -3.6737  -3.6687  -3.6500  -3.6464  -3.6134  -3.6118
    -3.5953  -3.5739  -3.5708  -3.5368  -3.5259  -3.5250  -3.5238  -3.5078
    -3.4991  -3.4984  -3.4180  -3.4177  -3.4142  -3.4012  -3.3857  -3.3799
    -3.3712  -3.3707  -3.3644  -3.3621  -3.3216  -3.3203  -3.2997  -3.2979
    -3.2628  -3.2615  -3.2363  -3.2145  -3.2138  -3.1689  -3.1681  -3.1355
    -3.1083  -3.1072  -3.1066  -3.1062  -3.1021  -3.1016  -3.0777  -3.0649
    -3.0275  -3.0268  -3.0064  -2.9820  -2.9794  -2.9789  -2.9738  -2.9729
    -2.9688  -2.9686  -2.9338  -2.9324  -2.9320  -2.9273  -2.9263  -2.9217
    -2.8664  -2.8619  -2.8565  -2.8556  -2.8356  -2.8344  -2.8299  -2.7399
    -2.7306  -2.7298  -2.7212  -2.7198  -2.7152  -2.7132  -2.7125  -2.7041
    -2.7036  -2.6948  -2.6859  -2.6849  -2.6824  -2.6779  -2.6681  -2.6644
    -2.6607  -2.6396  -2.6287  -2.6275  -2.6124  -2.6121  -2.5967  -2.5954
    -2.5862  -2.5860  -2.5652  -2.5552  -2.5532  -2.5497  -2.5477  -2.5153
    -2.5118  -2.5111  -2.4535  -2.4491  -2.4357  -2.4351  -2.4261  -2.4211
    -2.3981  -2.3972  -2.3922  -2.3824  -2.3798  -2.3715  -2.3680  -2.3530
    -2.3513  -2.3249  -2.3238  -2.3157  -2.3145  -2.3044  -2.3040  -2.2892
    -2.2753  -2.2546  -2.1863  -2.1829  -2.1639  -2.1630  -2.1564  -2.1517
    -2.1073  -2.1007  -2.0903  -2.0670  -2.0573  -2.0553  -2.0358  -2.0196
[...]
    -1.3494  -1.3417  -1.3168  -1.3098  -1.2921  -1.2850  -1.2837  -1.2649
    -1.2543  -1.2518  -1.2294  -1.2233  -1.2218  -1.2162  -1.1912  -1.1787
    -1.1683  -1.1659  -1.1650  -1.1638  -1.1398  -1.1378  -1.1321  -1.1239
    -1.1183  -1.1150  -1.1055  -1.1044  -1.1016  -1.0940  -1.0922  -1.0810
    -1.0776  -1.0738  -1.0735  -1.0659  -1.0640  -1.0482  -1.0397  -1.0048
    -1.0028  -1.0024  -0.9993  -0.9958  -0.9936  -0.9681  -0.9573  -0.9539
    -0.9376  -0.9297  -0.9279  -0.9250  -0.9198  -0.9106  -0.9003  -0.8762
    -0.8723  -0.8634  -0.8625  -0.8436  -0.8424  -0.8276  -0.8038  -0.7954
    -0.7791  -0.7766  -0.7401  -0.7399  -0.7369  -0.7353  -0.7330  -0.7299
    -0.7295  -0.7276  -0.7234  -0.7221  -0.6902  -0.6889  -0.6877  -0.6858
    -0.6850  -0.6754  -0.6723  -0.6677  -0.6435  -0.3848  -0.3729  -0.3307
    -0.3178  -0.2980  -0.2392  -0.0884  -0.0852  -0.0524   0.2272   0.2321
     0.5658   0.5762   0.6119   0.6144   0.6600   0.6661   0.8193   0.8311
     0.9506   0.9531   1.0705   1.5613   1.6010   1.6092   1.6442   1.6454
     1.7726   1.7955   1.8356   1.8435   2.0178   2.0227   2.3060   2.3281
     2.3386   2.3541   2.7784   2.7981   2.8116   2.8137   2.8272   2.8309
     2.8937   2.8953   3.0511   3.1670   3.1828   3.3607   3.3648   3.4683
     3.5372   3.5442   3.8342   3.8471   3.8955   3.9004   3.9020   4.0392
     4.0493   4.0524   4.0883   4.3395   4.3438   4.3775   4.3844   4.4922
     4.4981   4.5540   4.5704   4.8478   5.4253   5.4457   5.4865   5.5436
     5.6438   5.6549   5.6889   5.7260   5.7289   5.7348   5.7425   5.8434
     5.8503   5.9151   6.1060   6.1264   6.1439   6.1507   6.1541   6.1569
     6.1681   6.2220   6.3120   6.3482   6.3785   6.4179   6.4625   6.4863

          k =-0.2500 0.2500 0.2500 (167588 PWs)   bands (ev):

   -19.0631  -6.9162  -6.8709  -6.3613  -6.3592  -5.9226  -5.5190  -5.4216
    -5.4192  -5.1989  -5.1986  -5.1038  -5.1000  -4.9685  -4.9605  -4.8512
    -4.7627  -4.7584  -4.7382  -4.7371  -4.5569  -4.5561  -4.5539  -4.5285
    -4.5242  -4.5239  -4.5197  -4.4687  -4.4652  -4.4648  -4.4627  -4.4000
    -4.3718  -4.3714  -4.3162  -4.3117  -4.3103  -4.2763  -4.2729  -4.2603
    -4.2556  -4.2370  -4.2369  -4.2010  -4.1683  -4.1666  -4.1646  -4.1620
    -4.1606  -4.1322  -4.1039  -4.1001  -4.0721  -4.0702  -4.0678  -4.0669
    -4.0654  -4.0588  -4.0305  -4.0254  -3.9682  -3.9655  -3.9349  -3.9100
    -3.9009  -3.8981  -3.8973  -3.8753  -3.8746  -3.8634  -3.8130  -3.8126
    -3.8082  -3.8060  -3.7239  -3.7203  -3.7016  -3.6978  -3.6656  -3.6645
    -3.6478  -3.6238  -3.6232  -3.5800  -3.5778  -3.5775  -3.5760  -3.5536
    -3.5505  -3.4739  -3.4710  -3.4698  -3.4544  -3.4417  -3.4378  -3.4250
    -3.4234  -3.4184  -3.4170  -3.3756  -3.3740  -3.3555  -3.3514  -3.3193
    -3.3141  -3.2889  -3.2708  -3.2669  -3.2228  -3.2203  -3.2097  -3.1847
    -3.1602  -3.1596  -3.1590  -3.1564  -3.1546  -3.1489  -3.1261  -3.1171
    -3.0802  -3.0792  -3.0587  -3.0348  -3.0325  -3.0313  -3.0272  -3.0239
    -3.0213  -3.0212  -2.9867  -2.9847  -2.9844  -2.9795  -2.9775  -2.9743
    -2.9184  -2.9148  -2.9099  -2.9081  -2.8877  -2.8866  -2.8821  -2.7927
    -2.7838  -2.7818  -2.7750  -2.7714  -2.7672  -2.7664  -2.7644  -2.7570
    -2.7562  -2.7465  -2.7386  -2.7349  -2.7343  -2.7308  -2.7208  -2.7156
    -2.7134  -2.6918  -2.6816  -2.6793  -2.6654  -2.6646  -2.6481  -2.6476
    -2.6397  -2.6380  -2.6181  -2.6058  -2.6057  -2.6008  -2.5991  -2.5665
    -2.5639  -2.5636  -2.5062  -2.5019  -2.4881  -2.4872  -2.4771  -2.4729
    -2.4506  -2.4487  -2.4450  -2.4339  -2.4314  -2.4231  -2.4194  -2.4064
    -2.4022  -2.3771  -2.3765  -2.3676  -2.3660  -2.3577  -2.3560  -2.3389
    -2.3264  -2.3052  -2.2381  -2.2353  -2.2168  -2.2149  -2.2044  -2.2035
    -2.1559  -2.1524  -2.1399  -2.1193  -2.1077  -2.1067  -2.0883  -2.0705
    -2.0696  -2.0570  -2.0501  -2.0266  -2.0178  -2.0158  -2.0077  -2.0068
    -2.0029  -2.0009  -1.9859  -1.9721  -1.9658  -1.9643  -1.9639  -1.9632
    -1.9627  -1.9599  -1.9480  -1.9287  -1.9281  -1.9250  -1.9196  -1.9074
    -1.9053  -1.9035  -1.9011  -1.8962  -1.8947  -1.8605  -1.8590  -1.8150
    -1.7977  -1.7946  -1.7512  -1.7502  -1.7499  -1.7431  -1.7377  -1.7291
    -1.7237  -1.7189  -1.7170  -1.7091  -1.7062  -1.6871  -1.6862  -1.6504
    -1.6488  -1.6317  -1.6118  -1.6096  -1.5726  -1.5697  -1.5216  -1.5196
    -1.4990  -1.4782  -1.4742  -1.4724  -1.4714  -1.4658  -1.4522  -1.4483
    -1.4464  -1.4447  -1.4431  -1.4423  -1.4420  -1.4415  -1.4393  -1.4143
    -1.4122  -1.3816  -1.3795  -1.3787  -1.3599  -1.3566  -1.3542  -1.3516
    -1.3494  -1.3417  -1.3168  -1.3098  -1.2921  -1.2850  -1.2837  -1.2649
    -1.2543  -1.2518  -1.2294  -1.2233  -1.2219  -1.2162  -1.1912  -1.1787
    -1.1683  -1.1659  -1.1650  -1.1638  -1.1398  -1.1378  -1.1321  -1.1239
    -1.1183  -1.1150  -1.1055  -1.1044  -1.1016  -1.0940  -1.0922  -1.0810
    -1.0776  -1.0738  -1.0735  -1.0659  -1.0640  -1.0482  -1.0397  -1.0048
    -1.0028  -1.0024  -0.9993  -0.9959  -0.9936  -0.9681  -0.9573  -0.9539
    -0.9376  -0.9296  -0.9279  -0.9250  -0.9198  -0.9106  -0.9003  -0.8762
    -0.8723  -0.8634  -0.8625  -0.8436  -0.8424  -0.8276  -0.8038  -0.7954
    -0.7791  -0.7765  -0.7401  -0.7399  -0.7369  -0.7353  -0.7330  -0.7299
    -0.7295  -0.7276  -0.7234  -0.7221  -0.6902  -0.6889  -0.6877  -0.6858
    -0.6850  -0.6754  -0.6723  -0.6677  -0.6435  -0.3848  -0.3729  -0.3307
    -0.3178  -0.2980  -0.2392  -0.0884  -0.0852  -0.0524   0.2272   0.2321
     0.5658   0.5762   0.6119   0.6144   0.6600   0.6661   0.8193   0.8311
     0.9506   0.9531   1.0705   1.5613   1.6010   1.6092   1.6442   1.6454
     1.7727   1.7956   1.8356   1.8435   2.0178   2.0227   2.3060   2.3281
     2.3386   2.3541   2.7784   2.7981   2.8116   2.8137   2.8272   2.8309
     2.8937   2.8952   3.0511   3.1670   3.1828   3.3607   3.3648   3.4683
     3.5372   3.5442   3.8342   3.8471   3.8955   3.9004   3.9020   4.0392
     4.0493   4.0524   4.0883   4.3395   4.3438   4.3775   4.3844   4.4922
     4.4981   4.5540   4.5704   4.8479   5.4250   5.4457   5.4857   5.5436
     5.6434   5.6544   5.6680   5.7228   5.7262   5.7338   5.7422   5.8383
     5.8486   5.9686   6.1182   6.1437   6.1489   6.1536   6.1541   6.1649
     6.1679   6.1774   6.3067   6.3507   6.3784   6.4558   6.4791   6.5447

     the Fermi energy is     0.8956 ev

!    total energy              =   -7379.98458669 Ry
     Harris-Foulkes estimate   =   -7379.98458669 Ry
     estimated scf accuracy    <          4.3E-11 Ry

     The total energy is the sum of the following terms:

     one-electron contribution =  -48754.69107918 Ry
     hartree contribution      =   24925.30384355 Ry
     xc contribution           =   -3556.24746134 Ry
     ewald contribution        =   20005.64892365 Ry
     smearing contrib. (-TS)   =       0.00118662 Ry

     convergence has been achieved in  19 iterations

     negative rho (up, down):  1.971E+00 0.000E+00

     Forces acting on atoms (Ry/au):

     atom    1 type  3   force =     0.00051468    0.00086269   -0.00060139
     atom    2 type  2   force =    -0.00006836    0.00000909   -0.00031484
     atom    3 type  2   force =     0.00052090   -0.00062915    0.00044940
     atom    4 type  1   force =    -0.00019744   -0.00018809    0.01854184
     atom    5 type  1   force =    -0.00004540   -0.00026652    0.01828416
     atom    6 type  1   force =     0.00000328   -0.00022659    0.01820164
     atom    7 type  1   force =    -0.00002900   -0.00003332    0.01810700
     atom    8 type  1   force =     0.00002491    0.00001979    0.01798300
     atom    9 type  1   force =     0.00024976    0.00001273    0.01835803
     atom   10 type  1   force =    -0.00025372   -0.00005753    0.01826331
     atom   11 type  1   force =     0.00001338    0.00002386    0.01799961
     atom   12 type  1   force =     0.00000070   -0.00002480    0.01812441
     atom   13 type  1   force =     0.00004003    0.00001876    0.01796065
     atom   14 type  1   force =    -0.00000038    0.00000446    0.01809111
     atom   15 type  1   force =     0.00021313    0.00001096    0.01827113
     atom   16 type  1   force =    -0.00023349    0.00001403    0.01821970
     atom   17 type  1   force =    -0.00002783    0.00001136    0.01811707
     atom   18 type  1   force =    -0.00003192   -0.00001157    0.01808250
     atom   19 type  1   force =     0.00003352    0.00024298    0.01836522
     atom   20 type  1   force =     0.00000579    0.00021494    0.01827367
     atom   21 type  1   force =     0.00022303    0.00022461    0.01840143
     atom   22 type  1   force =    -0.00001987   -0.00031692   -0.00239408
     atom   23 type  1   force =     0.00010879   -0.00030481   -0.00247164
     atom   24 type  1   force =     0.00024323   -0.00041805   -0.00249765
     atom   25 type  1   force =    -0.00036017    0.00002264   -0.00243669
     atom   26 type  1   force =     0.00004985    0.00003293   -0.00254505
     atom   27 type  1   force =    -0.00024212   -0.00009996   -0.00249865
     atom   28 type  1   force =    -0.00000842    0.00010102   -0.00257953
     atom   29 type  1   force =    -0.00009421   -0.00003713   -0.00247683
     atom   30 type  1   force =     0.00047203    0.00007375   -0.00250094
     atom   31 type  1   force =    -0.00029009    0.00006954   -0.00249686
     atom   32 type  1   force =    -0.00004986   -0.00011039   -0.00246831
     atom   33 type  1   force =     0.00007829    0.00001385   -0.00256714
     atom   34 type  1   force =    -0.00011477   -0.00024204   -0.00250421
     atom   35 type  1   force =     0.00001779    0.00004548   -0.00255888
     atom   36 type  1   force =     0.00040378    0.00007224   -0.00243327
     atom   37 type  1   force =    -0.00042699    0.00023559   -0.00248920
     atom   38 type  1   force =     0.00008509    0.00043913   -0.00245989
     atom   39 type  1   force =     0.00010453    0.00039899   -0.00242536
     atom   40 type  1   force =    -0.00058980   -0.00053048    0.00098581
     atom   41 type  1   force =     0.00012258   -0.00030163    0.00131307
     atom   42 type  1   force =     0.00015863   -0.00032279    0.00146179
     atom   43 type  1   force =    -0.00029796    0.00009408    0.00153154
     atom   44 type  1   force =    -0.00010611   -0.00006785    0.00176184
     atom   45 type  1   force =     0.00012732    0.00001741    0.00154186
     atom   46 type  1   force =    -0.00030986    0.00010678    0.00150808
     atom   47 type  1   force =     0.00003010    0.00007331    0.00150645
     atom   48 type  1   force =     0.00004489    0.00004769    0.00154658
     atom   49 type  1   force =     0.00011349    0.00026720    0.00115513
     atom   50 type  1   force =    -0.00023016    0.00004393    0.00172561
     atom   51 type  1   force =     0.00008096   -0.00000268    0.00131073
     atom   52 type  1   force =     0.00002270   -0.00018625    0.00175018
     atom   53 type  1   force =    -0.00002444   -0.00000251    0.00149564
     atom   54 type  1   force =     0.00029703   -0.00006598    0.00154036
     atom   55 type  1   force =    -0.00002380    0.00008779    0.00123381
     atom   56 type  1   force =    -0.00003240    0.00025668    0.00142088
     atom   57 type  1   force =     0.00035239    0.00036856    0.00149692
     atom   58 type  1   force =    -0.00044319   -0.00045625   -0.01672645
     atom   59 type  1   force =    -0.00000680   -0.00023690   -0.01719521
     atom   60 type  1   force =     0.00013882   -0.00027376   -0.01739177
     atom   61 type  1   force =    -0.00044440   -0.00051666   -0.01712938
     atom   62 type  1   force =     0.00037056   -0.00024165   -0.01631718
     atom   63 type  1   force =     0.00003018   -0.00004731   -0.01714218
     atom   64 type  1   force =    -0.00017980    0.00057537   -0.01703774
     atom   65 type  1   force =     0.00012756   -0.00002183   -0.01730347
     atom   66 type  1   force =     0.00017967   -0.00002743   -0.01737435
     atom   67 type  1   force =    -0.00029235    0.00012167   -0.01738151
     atom   68 type  1   force =     0.00001609    0.00014477   -0.01734579
     atom   69 type  1   force =    -0.00001303    0.00007132   -0.01706638
     atom   70 type  1   force =    -0.00001832    0.00009453   -0.01713450
     atom   71 type  1   force =     0.00005474    0.00002929   -0.01704352
     atom   72 type  1   force =     0.00019971   -0.00000675   -0.01730379
     atom   73 type  1   force =    -0.00022209    0.00016677   -0.01732558
     atom   74 type  1   force =    -0.00010150    0.00032677   -0.01715880
     atom   75 type  1   force =    -0.00004384    0.00020626   -0.01728317

     Total force =     0.001531     Total SCF correction =     0.000002

     bfgs converged in  20 scf cycles and  19 bfgs steps
     (criteria: energy <  1.0E-04, force <  1.0E-03)

     End of BFGS Geometry Optimization

     Final energy   =   -7379.9845866914 Ry
Begin final coordinates

ATOMIC_POSITIONS (angstrom)
O        2.231579010   2.160683230   9.425168521
H        1.828120858   1.836255729   8.592713611
H        2.810902906   1.430182173   9.710154662
Au       0.000000000   0.000000000   0.000000000    0   0   0
Au       4.253737926   0.000000000   0.000000000    0   0   0
Au       8.507475853   0.000000000   0.000000000    0   0   0
Au       2.126868963   2.126868963   0.000000000    0   0   0
Au       6.380607128   2.126868963   0.000000000    0   0   0
Au      10.634344101   2.126868963   0.000000000    0   0   0
Au       0.000000000   4.253737926   0.000000000    0   0   0
Au       4.253737926   4.253737926   0.000000000    0   0   0
Au       8.507475853   4.253737926   0.000000000    0   0   0
Au       2.126868963   6.380607128   0.000000000    0   0   0
Au       6.380607128   6.380607128   0.000000000    0   0   0
Au      10.634344101   6.380607128   0.000000000    0   0   0
Au       0.000000000   8.507475853   0.000000000    0   0   0
Au       4.253737926   8.507475853   0.000000000    0   0   0
Au       8.507475853   8.507475853   0.000000000    0   0   0
Au       2.126868963  10.634344101   0.000000000    0   0   0
Au       6.380607128  10.634344101   0.000000000    0   0   0
Au      10.634344101  10.634344101   0.000000000    0   0   0
Au       2.126868963   0.000000000   2.126868963    0   0   0
Au       6.380607128   0.000000000   2.126868963    0   0   0
Au      10.634344101   0.000000000   2.126868963    0   0   0
Au       0.000000000   2.126868963   2.126868963    0   0   0
Au       4.253737926   2.126868963   2.126868963    0   0   0
Au       8.507475853   2.126868963   2.126868963    0   0   0
Au       2.126868963   4.253737926   2.126868963    0   0   0
Au       6.380607128   4.253737926   2.126868963    0   0   0
Au      10.634344101   4.253737926   2.126868963    0   0   0
Au       0.000000000   6.380607128   2.126868963    0   0   0
Au       4.253737926   6.380607128   2.126868963    0   0   0
Au       8.507475853   6.380607128   2.126868963    0   0   0
Au       2.126868963   8.507475853   2.126868963    0   0   0
Au       6.380607128   8.507475853   2.126868963    0   0   0
Au      10.634344101   8.507475853   2.126868963    0   0   0
Au       0.000000000  10.634344101   2.126868963    0   0   0
Au       4.253737926  10.634344101   2.126868963    0   0   0
Au       8.507475853  10.634344101   2.126868963    0   0   0
Au      -0.000231899  -0.000231899   4.257900238    0   0   0
Au       4.253734589  -0.000230451   4.257893562    0   0   0
Au       8.507492065  -0.000233495   4.257904530    0   0   0
Au      -0.000230451   4.253734589   4.257893562    0   0   0
Au       4.253735065   4.253735065   4.257887840    0   0   0
Au       8.507489204   4.253735542   4.257899761    0   0   0
Au      -0.000233495   8.507492065   4.257904530    0   0   0
Au       4.253735542   8.507489204   4.257899761    0   0   0
Au       8.507491112   8.507491112   4.257910252    0   0   0
Au       2.126854181   2.126854181   4.257906914    0   0   0
Au       6.380599976   2.126855135   4.257899284    0   0   0
Au      10.634586334   2.126852274   4.257903576    0   0   0
Au       2.126855135   6.380599976   4.257899284    0   0   0
Au       6.380601406   6.380601406   4.257890701    0   0   0
Au      10.634584427   6.380601883   4.257895470    0   0   0
Au       2.126852274  10.634586334   4.257903576    0   0   0
Au       6.380601883  10.634584427   4.257895470    0   0   0
Au      10.634585381  10.634585381   4.257900715    0   0   0
Au       2.126863003  -0.000141616   6.373929977    0   0   0
Au       6.380603790  -0.000142418   6.373934269    0   0   0
Au      10.634494781  -0.000142245   6.373820305    0   0   0
Au      -0.000141616   2.126863003   6.373929977    0   0   0
Au       4.253733158   2.126865625   6.374044418    0   0   0
Au       8.507479668   2.126865625   6.374047279    0   0   0
Au       2.126865625   4.253733158   6.374044418    0   0   0
Au       6.380604744   4.253736019   6.374044895    0   0   0
Au      10.634491920   4.253734589   6.373939037    0   0   0
Au      -0.000142418   6.380603790   6.373934269    0   0   0
Au       4.253736019   6.380604744   6.374044895    0   0   0
Au       8.507478714   6.380605698   6.374047279    0   0   0
Au       2.126865625   8.507479668   6.374047279    0   0   0
Au       6.380605698   8.507478714   6.374047279    0   0   0
Au      10.634491920   8.507480621   6.373938560    0   0   0
Au      -0.000142245  10.634494781   6.373820305    0   0   0
Au       4.253734589  10.634491920   6.373939037    0   0   0
Au       8.507480621  10.634491920   6.373938560    0   0   0
End final coordinates



     Writing output data file 987643.save
 
     init_run     :     30.64s CPU     31.36s WALL (       1 calls)
     electrons    :  37995.28s CPU  38489.33s WALL (      20 calls)
     update_pot   :     49.60s CPU     53.23s WALL (      19 calls)
     forces       :    528.25s CPU    542.44s WALL (      20 calls)

     Called by init_run:
     wfcinit      :     24.52s CPU     24.77s WALL (       1 calls)
     potinit      :      1.26s CPU      1.30s WALL (       1 calls)

     Called by electrons:
     c_bands      :  30633.32s CPU  30837.65s WALL (     373 calls)
     sum_band     :   5909.24s CPU   6052.28s WALL (     373 calls)
     v_of_rho     :    331.23s CPU    333.74s WALL (     377 calls)
     newd         :    736.11s CPU    879.01s WALL (     377 calls)
     mix_rho      :     68.69s CPU     73.30s WALL (     373 calls)

     Called by c_bands:
     init_us_2    :     79.21s CPU     80.41s WALL (     747 calls)
     cegterg      :  18429.11s CPU  18630.72s WALL (     373 calls)

     Called by sum_band:
     sum_band:bec :      2.03s CPU      2.07s WALL (     373 calls)
     addusdens    :    966.86s CPU   1103.72s WALL (     373 calls)

     Called by *egterg:
     h_psi        :  10860.69s CPU  10881.70s WALL (    1288 calls)
     s_psi        :   1578.04s CPU   1579.02s WALL (    1288 calls)
     g_psi        :     33.40s CPU     33.41s WALL (     914 calls)
     cdiaghg      :   1287.48s CPU   1290.78s WALL (    1252 calls)

     Called by h_psi:
     add_vuspsi   :   1577.17s CPU   1577.44s WALL (    1288 calls)

     General routines
     calbec       :   2440.80s CPU   2442.90s WALL (    1741 calls)
     fft          :    483.62s CPU    484.93s WALL (    6255 calls)
     ffts         :     12.66s CPU     12.84s WALL (     750 calls)
     fftw         :   7883.56s CPU   7904.13s WALL (  957938 calls)
     interpolate  :     56.15s CPU     56.82s WALL (     750 calls)
     davcio       :      0.01s CPU      2.08s WALL (      20 calls)
 
     Parallel routines
     fft_scatter  :   3690.02s CPU   3707.24s WALL (  964943 calls)
 
     PWSCF        :    10h44m CPU       10h55m WALL

 
   This run was terminated on:   1:28:29  31Jan2017            

=------------------------------------------------------------------------------=
   JOB DONE.
=------------------------------------------------------------------------------=
