
     Program PWSCF v.5.4.0 starts on 25Jan2017 at 18:45:33 

     This program is part of the open-source Quantum ESPRESSO suite
     for quantum simulation of materials; please cite
         "P. Giannozzi et al., J. Phys.:Condens. Matter 21 395502 (2009);
          URL http://www.quantum-espresso.org", 
     in publications or presentations arising from this work. More details at
     http://www.quantum-espresso.org/quote

     Parallel version (MPI), running on    48 processors
     K-points division:     npool     =       6
     R & G space division:  proc/nbgrp/npool/nimage =       8
     Reading input from hollow.O1.Au5859.d.0.0.phi.0.psi.90.in
Warning: card &CELL ignored
Warning: card / ignored

     Current dimensions of program PWSCF are:
     Max number of different atomic species (ntypx) = 10
     Max number of k-points (npk) =  40000
     Max angular momentum in pseudopotentials (lmaxx) =  3

     Subspace diagonalization in iterative solution of the eigenvalue problem:
     a serial algorithm will be used

 
     Parallelization info
     --------------------
     sticks:   dense  smooth     PW     G-vecs:    dense   smooth      PW
     Min        2313    1158    298               474089   167622   21962
     Max        2314    1159    299               474104   167655   21969
     Sum       18505    9265   2385              3792731  1341081  175711
 

     Title: 
     hollow.O1.Au5859.d.0.0.phi.0.psi.90                                        


     bravais-lattice index     =            8
     lattice parameter (alat)  =      24.1233  a.u.
     unit-cell volume          =   28076.2361 (a.u.)^3
     number of atoms/cell      =           75
     number of atomic types    =            3
     number of electrons       =       800.00
     number of Kohn-Sham states=          480
     kinetic-energy cutoff     =      50.0000  Ry
     charge density cutoff     =     400.0000  Ry
     convergence threshold     =      1.0E-08
     mixing beta               =       0.7000
     number of iterations used =            8  plain     mixing
     Exchange-correlation      =  SLA  PW   PBE  PBE ( 1  4  3  4 0 0)
     nstep                     =           50


     celldm(1)=  24.123277  celldm(2)=   1.000000  celldm(3)=   2.000000
     celldm(4)=   0.000000  celldm(5)=   0.000000  celldm(6)=   0.000000

     crystal axes: (cart. coord. in units of alat)
               a(1) = (   1.000000   0.000000   0.000000 )  
               a(2) = (   0.000000   1.000000   0.000000 )  
               a(3) = (   0.000000   0.000000   2.000000 )  

     reciprocal axes: (cart. coord. in units 2 pi/alat)
               b(1) = (  1.000000  0.000000  0.000000 )  
               b(2) = (  0.000000  1.000000  0.000000 )  
               b(3) = (  0.000000  0.000000  0.500000 )  


     PseudoPot. # 1 for Au read from file:
     ../../../../pseudo/Au.pbe-nd-van.UPF
     MD5 check sum: 458681b50f36d87ef23c61b04bba420a
     Pseudo is Ultrasoft + core correction, Zval = 11.0
     Generated by new atomic code, or converted to UPF format
     Using radial grid of  985 points,  3 beta functions with: 
                l(1) =   1
                l(2) =   2
                l(3) =   2
     Q(r) pseudized with  8 coefficients,  rinner =    1.100   1.100   1.100
                                                       1.100   1.100

     PseudoPot. # 2 for H  read from file:
     ../../../../pseudo/H.pbe-van_ak.UPF
     MD5 check sum: 403db7282739603aa925980fa9b8608d
     Pseudo is Ultrasoft, Zval =  1.0
     Generated by new atomic code, or converted to UPF format
     Using radial grid of  615 points,  1 beta functions with: 
                l(1) =   0
     Q(r) pseudized with  8 coefficients,  rinner =    0.800

     PseudoPot. # 3 for O  read from file:
     ../../../../pseudo/O.pbe-van_ak.UPF
     MD5 check sum: 4b8c549914a63cae506c6ff22b5af4fe
     Pseudo is Ultrasoft, Zval =  6.0
     Generated by new atomic code, or converted to UPF format
     Using radial grid of  737 points,  4 beta functions with: 
                l(1) =   0
                l(2) =   0
                l(3) =   1
                l(4) =   1
     Q(r) pseudized with  8 coefficients,  rinner =    0.800   0.800   0.800


     atomic species   valence    mass     pseudopotential
        Au            11.00   196.96657     Au( 1.00)
        H              1.00     1.01000     H ( 1.00)
        O              6.00    16.00000     O ( 1.00)

     No symmetry found



   Cartesian axes

     site n.     atom                  positions (alat units)
         1           O   tau(   1) = (   0.1666051   0.1666105   0.7108218  )
         2           H   tau(   2) = (   0.1195275   0.1211166   0.6716503  )
         3           H   tau(   3) = (   0.2122554   0.1187528   0.7488235  )
         4           Au  tau(   4) = (   0.0000000   0.0000000   0.0000000  )
         5           Au  tau(   5) = (   0.3332217   0.0000000   0.0000000  )
         6           Au  tau(   6) = (   0.6664434   0.0000000   0.0000000  )
         7           Au  tau(   7) = (   0.1666109   0.1666109   0.0000000  )
         8           Au  tau(   8) = (   0.4998326   0.1666109   0.0000000  )
         9           Au  tau(   9) = (   0.8330542   0.1666109   0.0000000  )
        10           Au  tau(  10) = (   0.0000000   0.3332217   0.0000000  )
        11           Au  tau(  11) = (   0.3332217   0.3332217   0.0000000  )
        12           Au  tau(  12) = (   0.6664434   0.3332217   0.0000000  )
        13           Au  tau(  13) = (   0.1666109   0.4998326   0.0000000  )
        14           Au  tau(  14) = (   0.4998326   0.4998326   0.0000000  )
        15           Au  tau(  15) = (   0.8330542   0.4998326   0.0000000  )
        16           Au  tau(  16) = (   0.0000000   0.6664434   0.0000000  )
        17           Au  tau(  17) = (   0.3332217   0.6664434   0.0000000  )
        18           Au  tau(  18) = (   0.6664434   0.6664434   0.0000000  )
        19           Au  tau(  19) = (   0.1666109   0.8330542   0.0000000  )
        20           Au  tau(  20) = (   0.4998326   0.8330542   0.0000000  )
        21           Au  tau(  21) = (   0.8330542   0.8330542   0.0000000  )
        22           Au  tau(  22) = (   0.1666109   0.0000000   0.1666109  )
        23           Au  tau(  23) = (   0.4998326   0.0000000   0.1666109  )
        24           Au  tau(  24) = (   0.8330542   0.0000000   0.1666109  )
        25           Au  tau(  25) = (   0.0000000   0.1666109   0.1666109  )
        26           Au  tau(  26) = (   0.3332217   0.1666109   0.1666109  )
        27           Au  tau(  27) = (   0.6664434   0.1666109   0.1666109  )
        28           Au  tau(  28) = (   0.1666109   0.3332217   0.1666109  )
        29           Au  tau(  29) = (   0.4998326   0.3332217   0.1666109  )
        30           Au  tau(  30) = (   0.8330542   0.3332217   0.1666109  )
        31           Au  tau(  31) = (   0.0000000   0.4998326   0.1666109  )
        32           Au  tau(  32) = (   0.3332217   0.4998326   0.1666109  )
        33           Au  tau(  33) = (   0.6664434   0.4998326   0.1666109  )
        34           Au  tau(  34) = (   0.1666109   0.6664434   0.1666109  )
        35           Au  tau(  35) = (   0.4998326   0.6664434   0.1666109  )
        36           Au  tau(  36) = (   0.8330542   0.6664434   0.1666109  )
        37           Au  tau(  37) = (   0.0000000   0.8330542   0.1666109  )
        38           Au  tau(  38) = (   0.3332217   0.8330542   0.1666109  )
        39           Au  tau(  39) = (   0.6664434   0.8330542   0.1666109  )
        40           Au  tau(  40) = (  -0.0000182  -0.0000182   0.3335478  )
        41           Au  tau(  41) = (   0.3332215  -0.0000181   0.3335473  )
        42           Au  tau(  42) = (   0.6664447  -0.0000183   0.3335481  )
        43           Au  tau(  43) = (  -0.0000181   0.3332215   0.3335473  )
        44           Au  tau(  44) = (   0.3332215   0.3332215   0.3335468  )
        45           Au  tau(  45) = (   0.6664445   0.3332215   0.3335477  )
        46           Au  tau(  46) = (  -0.0000183   0.6664447   0.3335481  )
        47           Au  tau(  47) = (   0.3332215   0.6664445   0.3335477  )
        48           Au  tau(  48) = (   0.6664446   0.6664446   0.3335486  )
        49           Au  tau(  49) = (   0.1666097   0.1666097   0.3335483  )
        50           Au  tau(  50) = (   0.4998320   0.1666098   0.3335477  )
        51           Au  tau(  51) = (   0.8330732   0.1666096   0.3335480  )
        52           Au  tau(  52) = (   0.1666098   0.4998320   0.3335477  )
        53           Au  tau(  53) = (   0.4998322   0.4998322   0.3335470  )
        54           Au  tau(  54) = (   0.8330731   0.4998322   0.3335474  )
        55           Au  tau(  55) = (   0.1666096   0.8330732   0.3335480  )
        56           Au  tau(  56) = (   0.4998322   0.8330731   0.3335474  )
        57           Au  tau(  57) = (   0.8330731   0.8330731   0.3335478  )
        58           Au  tau(  58) = (   0.1666104  -0.0000111   0.4993095  )
        59           Au  tau(  59) = (   0.4998323  -0.0000112   0.4993099  )
        60           Au  tau(  60) = (   0.8330660  -0.0000111   0.4993009  )
        61           Au  tau(  61) = (  -0.0000111   0.1666104   0.4993095  )
        62           Au  tau(  62) = (   0.3332213   0.1666106   0.4993185  )
        63           Au  tau(  63) = (   0.6664437   0.1666106   0.4993187  )
        64           Au  tau(  64) = (   0.1666106   0.3332213   0.4993185  )
        65           Au  tau(  65) = (   0.4998324   0.3332216   0.4993185  )
        66           Au  tau(  66) = (   0.8330658   0.3332215   0.4993102  )
        67           Au  tau(  67) = (  -0.0000112   0.4998323   0.4993099  )
        68           Au  tau(  68) = (   0.3332216   0.4998324   0.4993185  )
        69           Au  tau(  69) = (   0.6664437   0.4998325   0.4993187  )
        70           Au  tau(  70) = (   0.1666106   0.6664437   0.4993187  )
        71           Au  tau(  71) = (   0.4998325   0.6664437   0.4993187  )
        72           Au  tau(  72) = (   0.8330658   0.6664438   0.4993102  )
        73           Au  tau(  73) = (  -0.0000111   0.8330660   0.4993009  )
        74           Au  tau(  74) = (   0.3332215   0.8330658   0.4993102  )
        75           Au  tau(  75) = (   0.6664438   0.8330658   0.4993102  )

     number of k points=     6  Marzari-Vanderbilt smearing, width (Ry)=  0.0200
                       cart. coord. in units 2pi/alat
        k(    1) = (   0.2500000   0.2500000   0.0833333), wk =   0.3333333
        k(    2) = (   0.2500000   0.2500000  -0.2500000), wk =   0.3333333
        k(    3) = (  -0.2500000  -0.2500000   0.0833333), wk =   0.3333333
        k(    4) = (  -0.2500000   0.2500000  -0.0833333), wk =   0.3333333
        k(    5) = (   0.2500000  -0.2500000  -0.0833333), wk =   0.3333333
        k(    6) = (  -0.2500000   0.2500000   0.2500000), wk =   0.3333333

     Dense  grid:  3792731 G-vectors     FFT dimensions: ( 160, 160, 320)

     Smooth grid:  1341081 G-vectors     FFT dimensions: ( 120, 120, 225)

     Largest allocated arrays     est. size (Mb)     dimensions
        Kohn-Sham Wavefunctions       154.19 Mb     (   21052,  480)
        NL pseudopotentials           303.88 Mb     (   21052,  946)
        Each V/rho on FFT grid         15.62 Mb     ( 1024000)
        Each G-vector array             3.62 Mb     (  474091)
        G-vector shells                 0.08 Mb     (   10780)
     Largest temporary arrays     est. size (Mb)     dimensions
        Auxiliary wavefunctions       616.76 Mb     (   21052, 1920)
        Each subspace H/S matrix       56.25 Mb     (    1920, 1920)
        Each <psi_i|beta_j> matrix      6.93 Mb     (     946,  480)
        Arrays for rho mixing         125.00 Mb     ( 1024000,    8)

     Initial potential from superposition of free atoms
     Check: negative starting charge=   -1.945170

     starting charge  799.16392, renormalised to  800.00000

     negative rho (up, down):  1.947E+00 0.000E+00
     Starting wfc are  654 randomized atomic wfcs

     total cpu time spent up to now is       49.1 secs

     per-process dynamical memory:   713.4 Mb

     Self-consistent Calculation

     iteration #  1     ecut=    50.00 Ry     beta=0.70
     Davidson diagonalization with overlap
     ethr =  1.00E-02,  avg # of iterations =  3.0

     Threshold (ethr) on eigenvalues was too large:
     Diagonalizing with lowered threshold

     Davidson diagonalization with overlap
     ethr =  4.91E-04,  avg # of iterations =  2.0

     negative rho (up, down):  1.932E+00 0.000E+00

     total cpu time spent up to now is      237.8 secs

     total energy              =   -7377.44459488 Ry
     Harris-Foulkes estimate   =   -7380.94306014 Ry
     estimated scf accuracy    <       4.44700322 Ry

     iteration #  2     ecut=    50.00 Ry     beta=0.70
     Davidson diagonalization with overlap
     ethr =  5.56E-04,  avg # of iterations = 11.3

     negative rho (up, down):  1.930E+00 0.000E+00

     total cpu time spent up to now is      512.7 secs

     total energy              =   -7368.97548271 Ry
     Harris-Foulkes estimate   =   -7387.85652914 Ry
     estimated scf accuracy    <      97.00888735 Ry

     iteration #  3     ecut=    50.00 Ry     beta=0.70
     Davidson diagonalization with overlap
     ethr =  5.56E-04,  avg # of iterations =  6.0

     negative rho (up, down):  1.947E+00 0.000E+00

     total cpu time spent up to now is      692.1 secs

     total energy              =   -7378.72413909 Ry
     Harris-Foulkes estimate   =   -7380.69206529 Ry
     estimated scf accuracy    <       7.55082524 Ry

     iteration #  4     ecut=    50.00 Ry     beta=0.70
     Davidson diagonalization with overlap
     ethr =  5.56E-04,  avg # of iterations =  5.2

     negative rho (up, down):  1.951E+00 0.000E+00

     total cpu time spent up to now is      796.8 secs

     total energy              =   -7379.34348211 Ry
     Harris-Foulkes estimate   =   -7380.48050681 Ry
     estimated scf accuracy    <       6.56485430 Ry

     iteration #  5     ecut=    50.00 Ry     beta=0.70
     Davidson diagonalization with overlap
     ethr =  5.56E-04,  avg # of iterations =  5.8

     negative rho (up, down):  1.960E+00 0.000E+00

     total cpu time spent up to now is      910.2 secs

     total energy              =   -7379.73201598 Ry
     Harris-Foulkes estimate   =   -7380.30668725 Ry
     estimated scf accuracy    <       4.26423072 Ry

     iteration #  6     ecut=    50.00 Ry     beta=0.70
     Davidson diagonalization with overlap
     ethr =  5.33E-04,  avg # of iterations =  2.7

     negative rho (up, down):  1.963E+00 0.000E+00

     total cpu time spent up to now is     1010.7 secs

     total energy              =   -7379.95230751 Ry
     Harris-Foulkes estimate   =   -7380.02906030 Ry
     estimated scf accuracy    <       0.28412298 Ry

     iteration #  7     ecut=    50.00 Ry     beta=0.70
     Davidson diagonalization with overlap
     ethr =  3.55E-05,  avg # of iterations =  9.5

     negative rho (up, down):  1.966E+00 0.000E+00

     total cpu time spent up to now is     1144.1 secs

     total energy              =   -7379.96878073 Ry
     Harris-Foulkes estimate   =   -7380.01681229 Ry
     estimated scf accuracy    <       0.25100304 Ry

     iteration #  8     ecut=    50.00 Ry     beta=0.70
     Davidson diagonalization with overlap
     ethr =  3.14E-05,  avg # of iterations =  3.0

     negative rho (up, down):  1.968E+00 0.000E+00

     total cpu time spent up to now is     1246.5 secs

     total energy              =   -7379.97678387 Ry
     Harris-Foulkes estimate   =   -7379.99954271 Ry
     estimated scf accuracy    <       0.09403496 Ry

     iteration #  9     ecut=    50.00 Ry     beta=0.70
     Davidson diagonalization with overlap
     ethr =  1.18E-05,  avg # of iterations =  9.0

     negative rho (up, down):  1.969E+00 0.000E+00

     total cpu time spent up to now is     1386.6 secs

     total energy              =   -7379.97921960 Ry
     Harris-Foulkes estimate   =   -7379.98951130 Ry
     estimated scf accuracy    <       0.03216222 Ry

     iteration # 10     ecut=    50.00 Ry     beta=0.70
     Davidson diagonalization with overlap
     ethr =  4.02E-06,  avg # of iterations = 11.2

     negative rho (up, down):  1.969E+00 0.000E+00

     total cpu time spent up to now is     1529.5 secs

     total energy              =   -7379.98106158 Ry
     Harris-Foulkes estimate   =   -7379.98442203 Ry
     estimated scf accuracy    <       0.00869109 Ry

     iteration # 11     ecut=    50.00 Ry     beta=0.70
     Davidson diagonalization with overlap
     ethr =  1.09E-06,  avg # of iterations =  3.3

     negative rho (up, down):  1.970E+00 0.000E+00

     total cpu time spent up to now is     1636.8 secs

     total energy              =   -7379.98172069 Ry
     Harris-Foulkes estimate   =   -7379.98326519 Ry
     estimated scf accuracy    <       0.00451160 Ry

     iteration # 12     ecut=    50.00 Ry     beta=0.70
     Davidson diagonalization with overlap
     ethr =  5.64E-07,  avg # of iterations =  2.2

     negative rho (up, down):  1.970E+00 0.000E+00

     total cpu time spent up to now is     1737.8 secs

     total energy              =   -7379.98161130 Ry
     Harris-Foulkes estimate   =   -7379.98312451 Ry
     estimated scf accuracy    <       0.00654850 Ry

     iteration # 13     ecut=    50.00 Ry     beta=0.70
     Davidson diagonalization with overlap
     ethr =  5.64E-07,  avg # of iterations =  5.8

     negative rho (up, down):  1.971E+00 0.000E+00

     total cpu time spent up to now is     1858.8 secs

     total energy              =   -7379.98146060 Ry
     Harris-Foulkes estimate   =   -7379.98361353 Ry
     estimated scf accuracy    <       0.01087568 Ry

     iteration # 14     ecut=    50.00 Ry     beta=0.70
     Davidson diagonalization with overlap
     ethr =  5.64E-07,  avg # of iterations =  3.7

     negative rho (up, down):  1.970E+00 0.000E+00

     total cpu time spent up to now is     1965.8 secs

     total energy              =   -7379.98246044 Ry
     Harris-Foulkes estimate   =   -7379.98251992 Ry
     estimated scf accuracy    <       0.00016251 Ry

     iteration # 15     ecut=    50.00 Ry     beta=0.70
     Davidson diagonalization with overlap
     ethr =  2.03E-08,  avg # of iterations =  3.0

     negative rho (up, down):  1.970E+00 0.000E+00

     total cpu time spent up to now is     2093.3 secs

     total energy              =   -7379.98242538 Ry
     Harris-Foulkes estimate   =   -7379.98258425 Ry
     estimated scf accuracy    <       0.00119030 Ry

     iteration # 16     ecut=    50.00 Ry     beta=0.70
     Davidson diagonalization with overlap
     ethr =  2.03E-08,  avg # of iterations =  3.0

     negative rho (up, down):  1.970E+00 0.000E+00

     total cpu time spent up to now is     2198.6 secs

     total energy              =   -7379.98249660 Ry
     Harris-Foulkes estimate   =   -7379.98253280 Ry
     estimated scf accuracy    <       0.00018279 Ry

     iteration # 17     ecut=    50.00 Ry     beta=0.70
     Davidson diagonalization with overlap
     ethr =  2.03E-08,  avg # of iterations =  1.0

     negative rho (up, down):  1.970E+00 0.000E+00

     total cpu time spent up to now is     2295.1 secs

     total energy              =   -7379.98251235 Ry
     Harris-Foulkes estimate   =   -7379.98251629 Ry
     estimated scf accuracy    <       0.00001137 Ry

     iteration # 18     ecut=    50.00 Ry     beta=0.70
     Davidson diagonalization with overlap
     ethr =  1.42E-09,  avg # of iterations =  3.0

     negative rho (up, down):  1.970E+00 0.000E+00

     total cpu time spent up to now is     2412.6 secs

     total energy              =   -7379.98251348 Ry
     Harris-Foulkes estimate   =   -7379.98251641 Ry
     estimated scf accuracy    <       0.00001133 Ry

     iteration # 19     ecut=    50.00 Ry     beta=0.70
     Davidson diagonalization with overlap
     ethr =  1.42E-09,  avg # of iterations =  2.0

     negative rho (up, down):  1.970E+00 0.000E+00

     total cpu time spent up to now is     2511.3 secs

     total energy              =   -7379.98251432 Ry
     Harris-Foulkes estimate   =   -7379.98251578 Ry
     estimated scf accuracy    <       0.00000658 Ry

     iteration # 20     ecut=    50.00 Ry     beta=0.70
     Davidson diagonalization with overlap
     ethr =  8.23E-10,  avg # of iterations =  2.0

     negative rho (up, down):  1.970E+00 0.000E+00

     total cpu time spent up to now is     2610.1 secs

     total energy              =   -7379.98251485 Ry
     Harris-Foulkes estimate   =   -7379.98251543 Ry
     estimated scf accuracy    <       0.00000236 Ry

     iteration # 21     ecut=    50.00 Ry     beta=0.70
     Davidson diagonalization with overlap
     ethr =  2.95E-10,  avg # of iterations =  2.0

     negative rho (up, down):  1.970E+00 0.000E+00

     total cpu time spent up to now is     2709.2 secs

     total energy              =   -7379.98251506 Ry
     Harris-Foulkes estimate   =   -7379.98251530 Ry
     estimated scf accuracy    <       0.00000085 Ry

     iteration # 22     ecut=    50.00 Ry     beta=0.70
     Davidson diagonalization with overlap
     ethr =  1.06E-10,  avg # of iterations =  2.0

     negative rho (up, down):  1.970E+00 0.000E+00

     total cpu time spent up to now is     2805.2 secs

     total energy              =   -7379.98251515 Ry
     Harris-Foulkes estimate   =   -7379.98251522 Ry
     estimated scf accuracy    <       0.00000032 Ry

     iteration # 23     ecut=    50.00 Ry     beta=0.70
     Davidson diagonalization with overlap
     ethr =  3.99E-11,  avg # of iterations =  2.0

     negative rho (up, down):  1.970E+00 0.000E+00

     total cpu time spent up to now is     2907.3 secs

     total energy              =   -7379.98251518 Ry
     Harris-Foulkes estimate   =   -7379.98251520 Ry
     estimated scf accuracy    <       0.00000004 Ry

     iteration # 24     ecut=    50.00 Ry     beta=0.70
     Davidson diagonalization with overlap
     ethr =  5.11E-12,  avg # of iterations =  3.0

     negative rho (up, down):  1.970E+00 0.000E+00

     total cpu time spent up to now is     3048.0 secs

     total energy              =   -7379.98251516 Ry
     Harris-Foulkes estimate   =   -7379.98251523 Ry
     estimated scf accuracy    <       0.00000029 Ry

     iteration # 25     ecut=    50.00 Ry     beta=0.70
     Davidson diagonalization with overlap
     ethr =  5.11E-12,  avg # of iterations =  3.0

     negative rho (up, down):  1.970E+00 0.000E+00

     total cpu time spent up to now is     3175.5 secs

     total energy              =   -7379.98251519 Ry
     Harris-Foulkes estimate   =   -7379.98251520 Ry
     estimated scf accuracy    <       0.00000002 Ry

     iteration # 26     ecut=    50.00 Ry     beta=0.70
     Davidson diagonalization with overlap
     ethr =  2.76E-12,  avg # of iterations =  2.0

     negative rho (up, down):  1.970E+00 0.000E+00

     total cpu time spent up to now is     3280.3 secs

     total energy              =   -7379.98251519 Ry
     Harris-Foulkes estimate   =   -7379.98251520 Ry
     estimated scf accuracy    <       0.00000007 Ry

     iteration # 27     ecut=    50.00 Ry     beta=0.70
     Davidson diagonalization with overlap
     ethr =  2.76E-12,  avg # of iterations =  2.0

     negative rho (up, down):  1.970E+00 0.000E+00

     total cpu time spent up to now is     3379.3 secs

     End of self-consistent calculation

          k = 0.2500 0.2500 0.0833 (167653 PWs)   bands (ev):

   -19.4036  -7.2600  -6.8356  -6.3070  -6.3058  -5.8685  -5.4651  -5.3666
    -5.3661  -5.1448  -5.1447  -5.0489  -5.0470  -4.9149  -4.9063  -4.7973
    -4.7088  -4.7043  -4.6841  -4.6832  -4.5028  -4.5010  -4.5007  -4.4744
    -4.4702  -4.4699  -4.4657  -4.4142  -4.4126  -4.4099  -4.4097  -4.3459
    -4.3177  -4.3174  -4.2621  -4.2576  -4.2564  -4.2208  -4.2201  -4.2061
    -4.2015  -4.1832  -4.1829  -4.1478  -4.1136  -4.1134  -4.1114  -4.1074
    -4.1071  -4.0804  -4.0496  -4.0467  -4.0172  -4.0170  -4.0137  -4.0130
    -4.0115  -4.0051  -3.9746  -3.9729  -3.9161  -3.9126  -3.8822  -3.8569
    -3.8469  -3.8443  -3.8434  -3.8213  -3.8207  -3.8095  -3.7598  -3.7587
    -3.7534  -3.7528  -3.6723  -3.6675  -3.6487  -3.6452  -3.6122  -3.6106
    -3.5941  -3.5727  -3.5696  -3.5351  -3.5246  -3.5238  -3.5225  -3.5058
    -3.4980  -3.4972  -3.4168  -3.4165  -3.4132  -3.3999  -3.3845  -3.3788
    -3.3700  -3.3695  -3.3632  -3.3608  -3.3204  -3.3191  -3.2985  -3.2967
    -3.2616  -3.2603  -3.2351  -3.2133  -3.2127  -3.1676  -3.1669  -3.1343
    -3.1072  -3.1060  -3.1053  -3.1050  -3.1009  -3.1004  -3.0765  -3.0637
    -3.0263  -3.0256  -3.0052  -2.9808  -2.9782  -2.9777  -2.9726  -2.9717
    -2.9676  -2.9674  -2.9326  -2.9312  -2.9308  -2.9261  -2.9250  -2.9204
    -2.8652  -2.8607  -2.8553  -2.8545  -2.8344  -2.8331  -2.8286  -2.7387
    -2.7294  -2.7286  -2.7199  -2.7186  -2.7140  -2.7120  -2.7113  -2.7029
    -2.7024  -2.6936  -2.6847  -2.6838  -2.6812  -2.6766  -2.6669  -2.6632
    -2.6595  -2.6384  -2.6275  -2.6262  -2.6112  -2.6109  -2.5956  -2.5942
    -2.5849  -2.5848  -2.5640  -2.5541  -2.5520  -2.5485  -2.5465  -2.5142
    -2.5106  -2.5098  -2.4522  -2.4479  -2.4345  -2.4338  -2.4250  -2.4199
    -2.3968  -2.3960  -2.3910  -2.3814  -2.3786  -2.3703  -2.3668  -2.3518
    -2.3501  -2.3237  -2.3226  -2.3144  -2.3133  -2.3032  -2.3028  -2.2882
    -2.2741  -2.2535  -2.1852  -2.1817  -2.1627  -2.1618  -2.1555  -2.1504
    -2.1065  -2.0995  -2.0893  -2.0658  -2.0562  -2.0541  -2.0346  -2.0185
    -2.0162  -2.0032  -1.9983  -1.9735  -1.9673  -1.9655  -1.9555  -1.9535
    -1.9515  -1.9477  -1.9319  -1.9194  -1.9169  -1.9115  -1.9109  -1.9096
    -1.9085  -1.9071  -1.8943  -1.8812  -1.8739  -1.8710  -1.8675  -1.8538
    -1.8527  -1.8498  -1.8489  -1.8428  -1.8409  -1.8136  -1.8052  -1.7627
    -1.7450  -1.7429  -1.7303  -1.6974  -1.6955  -1.6954  -1.6855  -1.6815
    -1.6718  -1.6678  -1.6636  -1.6564  -1.6533  -1.6341  -1.6324  -1.5981
    -1.5960  -1.5777  -1.5629  -1.5564  -1.5404  -1.5177  -1.5001  -1.4661
    -1.4576  -1.4423  -1.4236  -1.4185  -1.4179  -1.4131  -1.4085  -1.3945
    -1.3932  -1.3914  -1.3910  -1.3898  -1.3890  -1.3874  -1.3857  -1.3667
    -1.3596  -1.3460  -1.3264  -1.3256  -1.3216  -1.3029  -1.3027  -1.2982
    -1.2968  -1.2933  -1.2738  -1.2572  -1.2477  -1.2317  -1.2300  -1.2111
    -1.2033  -1.1997  -1.1923  -1.1708  -1.1696  -1.1629  -1.1492  -1.1241
    -1.1194  -1.1123  -1.1111  -1.1104  -1.1027  -1.0851  -1.0840  -1.0715
    -1.0640  -1.0628  -1.0513  -1.0501  -1.0496  -1.0430  -1.0389  -1.0280
    -1.0265  -1.0202  -1.0195  -1.0126  -1.0092  -0.9944  -0.9925  -0.9521
    -0.9507  -0.9486  -0.9464  -0.9432  -0.9417  -0.9140  -0.9042  -0.9012
    -0.8821  -0.8766  -0.8739  -0.8694  -0.8658  -0.8572  -0.8548  -0.8217
    -0.8201  -0.8097  -0.8084  -0.7894  -0.7888  -0.7739  -0.7506  -0.7417
    -0.7250  -0.7235  -0.6861  -0.6858  -0.6835  -0.6816  -0.6781  -0.6755
    -0.6748  -0.6742  -0.6694  -0.6682  -0.6360  -0.6355  -0.6334  -0.6328
    -0.6309  -0.6197  -0.6180  -0.6114  -0.5898  -0.3311  -0.3192  -0.2745
    -0.2644  -0.2432  -0.1814  -0.0329  -0.0319   0.0053   0.2823   0.2850
     0.6230   0.6281   0.6670   0.6677   0.7170   0.7202   0.8772   0.8819
     1.0044   1.0073   1.1240   1.6155   1.6569   1.6627   1.6983   1.6993
     1.8348   1.8400   1.8908   1.8946   2.0738   2.0750   2.3576   2.3849
     2.3904   2.4088   2.8391   2.8450   2.8643   2.8655   2.8831   2.8838
     2.9482   2.9485   3.1004   3.2256   3.2279   3.4146   3.4168   3.5221
     3.5922   3.5941   3.8919   3.8940   3.9437   3.9531   3.9541   4.0907
     4.1004   4.1095   4.1285   4.3936   4.3955   4.4323   4.4348   4.5443
     4.5495   4.6094   4.6163   4.8843   5.4590   5.4979   5.5005   5.5791
     5.6664   5.7001   5.7064   5.7744   5.7774   5.7934   5.7944   5.8715
     5.9020   5.9218   6.0863   6.1762   6.1927   6.1965   6.2008   6.2075
     6.2182   6.2255   6.3272   6.3735   6.3894   6.4072   6.4850   6.5223

          k = 0.2500 0.2500-0.2500 (167588 PWs)   bands (ev):

   -19.4036  -7.2600  -6.8356  -6.3070  -6.3058  -5.8685  -5.4651  -5.3666
    -5.3661  -5.1448  -5.1446  -5.0489  -5.0470  -4.9149  -4.9063  -4.7973
    -4.7088  -4.7043  -4.6841  -4.6832  -4.5028  -4.5010  -4.5007  -4.4744
    -4.4702  -4.4699  -4.4657  -4.4142  -4.4126  -4.4099  -4.4097  -4.3459
    -4.3177  -4.3174  -4.2622  -4.2576  -4.2564  -4.2208  -4.2201  -4.2062
    -4.2015  -4.1832  -4.1829  -4.1478  -4.1136  -4.1134  -4.1114  -4.1074
    -4.1071  -4.0804  -4.0495  -4.0467  -4.0172  -4.0170  -4.0137  -4.0130
    -4.0115  -4.0051  -3.9746  -3.9729  -3.9161  -3.9126  -3.8822  -3.8569
    -3.8469  -3.8443  -3.8434  -3.8213  -3.8207  -3.8095  -3.7598  -3.7587
    -3.7534  -3.7528  -3.6723  -3.6675  -3.6487  -3.6453  -3.6122  -3.6106
    -3.5941  -3.5727  -3.5696  -3.5351  -3.5246  -3.5238  -3.5225  -3.5058
    -3.4979  -3.4972  -3.4168  -3.4165  -3.4132  -3.3999  -3.3845  -3.3788
    -3.3700  -3.3695  -3.3632  -3.3608  -3.3204  -3.3191  -3.2985  -3.2967
    -3.2616  -3.2603  -3.2351  -3.2133  -3.2127  -3.1676  -3.1669  -3.1343
    -3.1072  -3.1060  -3.1053  -3.1050  -3.1009  -3.1004  -3.0765  -3.0637
    -3.0263  -3.0256  -3.0052  -2.9808  -2.9781  -2.9777  -2.9726  -2.9717
    -2.9676  -2.9674  -2.9326  -2.9312  -2.9308  -2.9261  -2.9250  -2.9204
    -2.8651  -2.8607  -2.8553  -2.8545  -2.8344  -2.8331  -2.8286  -2.7387
    -2.7294  -2.7286  -2.7199  -2.7186  -2.7139  -2.7120  -2.7113  -2.7029
    -2.7024  -2.6936  -2.6847  -2.6838  -2.6812  -2.6767  -2.6669  -2.6632
    -2.6594  -2.6384  -2.6275  -2.6262  -2.6112  -2.6109  -2.5956  -2.5942
    -2.5849  -2.5848  -2.5640  -2.5541  -2.5520  -2.5485  -2.5465  -2.5142
    -2.5106  -2.5098  -2.4522  -2.4479  -2.4345  -2.4338  -2.4250  -2.4199
    -2.3968  -2.3960  -2.3910  -2.3814  -2.3786  -2.3703  -2.3668  -2.3518
    -2.3501  -2.3237  -2.3226  -2.3144  -2.3133  -2.3032  -2.3028  -2.2882
    -2.2741  -2.2535  -2.1852  -2.1818  -2.1627  -2.1618  -2.1555  -2.1504
    -2.1065  -2.0995  -2.0893  -2.0658  -2.0562  -2.0541  -2.0346  -2.0185
    -2.0162  -2.0032  -1.9983  -1.9735  -1.9673  -1.9655  -1.9555  -1.9535
    -1.9515  -1.9477  -1.9319  -1.9194  -1.9169  -1.9115  -1.9109  -1.9096
    -1.9085  -1.9071  -1.8943  -1.8812  -1.8739  -1.8710  -1.8675  -1.8538
    -1.8527  -1.8498  -1.8489  -1.8428  -1.8409  -1.8136  -1.8052  -1.7627
    -1.7450  -1.7429  -1.7303  -1.6974  -1.6955  -1.6954  -1.6855  -1.6815
    -1.6717  -1.6678  -1.6636  -1.6563  -1.6533  -1.6341  -1.6324  -1.5981
    -1.5960  -1.5777  -1.5629  -1.5564  -1.5404  -1.5177  -1.5001  -1.4661
    -1.4576  -1.4423  -1.4236  -1.4185  -1.4179  -1.4131  -1.4085  -1.3945
    -1.3932  -1.3914  -1.3910  -1.3898  -1.3890  -1.3874  -1.3857  -1.3667
    -1.3596  -1.3460  -1.3264  -1.3256  -1.3216  -1.3029  -1.3026  -1.2982
    -1.2968  -1.2933  -1.2738  -1.2572  -1.2477  -1.2317  -1.2300  -1.2111
    -1.2033  -1.1997  -1.1923  -1.1708  -1.1696  -1.1629  -1.1492  -1.1241
    -1.1194  -1.1123  -1.1111  -1.1104  -1.1027  -1.0851  -1.0840  -1.0715
    -1.0641  -1.0628  -1.0513  -1.0501  -1.0496  -1.0430  -1.0389  -1.0280
    -1.0266  -1.0202  -1.0195  -1.0126  -1.0092  -0.9944  -0.9925  -0.9521
    -0.9507  -0.9486  -0.9464  -0.9432  -0.9417  -0.9140  -0.9042  -0.9012
    -0.8821  -0.8766  -0.8739  -0.8694  -0.8658  -0.8572  -0.8548  -0.8217
    -0.8201  -0.8097  -0.8084  -0.7894  -0.7888  -0.7739  -0.7506  -0.7417
    -0.7250  -0.7235  -0.6861  -0.6858  -0.6835  -0.6816  -0.6781  -0.6755
    -0.6748  -0.6742  -0.6694  -0.6682  -0.6360  -0.6355  -0.6334  -0.6328
    -0.6309  -0.6197  -0.6180  -0.6114  -0.5898  -0.3311  -0.3192  -0.2745
    -0.2644  -0.2432  -0.1814  -0.0329  -0.0319   0.0053   0.2823   0.2850
     0.6230   0.6281   0.6670   0.6677   0.7170   0.7202   0.8772   0.8819
     1.0044   1.0073   1.1240   1.6155   1.6569   1.6627   1.6983   1.6993
     1.8348   1.8400   1.8908   1.8946   2.0738   2.0750   2.3576   2.3849
     2.3904   2.4088   2.8391   2.8450   2.8643   2.8655   2.8831   2.8838
     2.9482   2.9485   3.1004   3.2256   3.2279   3.4146   3.4168   3.5221
     3.5922   3.5941   3.8919   3.8940   3.9437   3.9531   3.9541   4.0907
     4.1004   4.1095   4.1286   4.3936   4.3955   4.4323   4.4348   4.5443
     4.5495   4.6094   4.6163   4.8843   5.4556   5.4979   5.4999   5.5792
     5.6492   5.7001   5.7057   5.7740   5.7761   5.7934   5.7942   5.8637
     5.9038   5.9616   6.1422   6.1588   6.1827   6.1930   6.1979   6.2034
     6.2083   6.2253   6.3183   6.3746   6.3952   6.4768   6.5175   6.5492

          k =-0.2500-0.2500 0.0833 (167653 PWs)   bands (ev):

   -19.4036  -7.2600  -6.8356  -6.3070  -6.3058  -5.8685  -5.4651  -5.3666
    -5.3661  -5.1448  -5.1447  -5.0489  -5.0470  -4.9149  -4.9063  -4.7973
    -4.7088  -4.7043  -4.6841  -4.6832  -4.5028  -4.5010  -4.5007  -4.4744
    -4.4702  -4.4699  -4.4657  -4.4142  -4.4126  -4.4099  -4.4097  -4.3459
    -4.3177  -4.3174  -4.2621  -4.2576  -4.2564  -4.2208  -4.2201  -4.2061
    -4.2015  -4.1832  -4.1829  -4.1478  -4.1136  -4.1134  -4.1114  -4.1074
    -4.1071  -4.0804  -4.0496  -4.0467  -4.0172  -4.0170  -4.0137  -4.0130
    -4.0115  -4.0051  -3.9746  -3.9729  -3.9161  -3.9126  -3.8822  -3.8569
    -3.8469  -3.8443  -3.8434  -3.8213  -3.8207  -3.8095  -3.7598  -3.7587
    -3.7534  -3.7528  -3.6723  -3.6675  -3.6487  -3.6452  -3.6122  -3.6106
    -3.5941  -3.5727  -3.5696  -3.5351  -3.5246  -3.5238  -3.5225  -3.5058
    -3.4980  -3.4972  -3.4168  -3.4165  -3.4132  -3.3999  -3.3845  -3.3788
    -3.3700  -3.3695  -3.3632  -3.3608  -3.3204  -3.3191  -3.2985  -3.2967
    -3.2616  -3.2603  -3.2351  -3.2133  -3.2127  -3.1676  -3.1669  -3.1343
    -3.1072  -3.1060  -3.1053  -3.1050  -3.1009  -3.1004  -3.0765  -3.0637
    -3.0263  -3.0256  -3.0052  -2.9808  -2.9782  -2.9777  -2.9726  -2.9717
    -2.9676  -2.9674  -2.9326  -2.9312  -2.9308  -2.9261  -2.9250  -2.9204
    -2.8652  -2.8607  -2.8553  -2.8545  -2.8344  -2.8331  -2.8286  -2.7387
    -2.7294  -2.7286  -2.7199  -2.7186  -2.7140  -2.7120  -2.7113  -2.7029
    -2.7024  -2.6936  -2.6847  -2.6838  -2.6812  -2.6766  -2.6669  -2.6632
    -2.6595  -2.6384  -2.6275  -2.6262  -2.6112  -2.6109  -2.5956  -2.5942
    -2.5849  -2.5848  -2.5640  -2.5541  -2.5520  -2.5485  -2.5465  -2.5142
    -2.5106  -2.5098  -2.4522  -2.4479  -2.4345  -2.4338  -2.4250  -2.4199
    -2.3968  -2.3960  -2.3910  -2.3814  -2.3786  -2.3703  -2.3668  -2.3518
    -2.3501  -2.3237  -2.3226  -2.3144  -2.3133  -2.3032  -2.3028  -2.2882
    -2.2741  -2.2535  -2.1852  -2.1817  -2.1627  -2.1618  -2.1555  -2.1504
    -2.1065  -2.0995  -2.0893  -2.0658  -2.0562  -2.0541  -2.0346  -2.0185
    -2.0162  -2.0032  -1.9983  -1.9735  -1.9673  -1.9655  -1.9555  -1.9535
    -1.9515  -1.9477  -1.9319  -1.9194  -1.9169  -1.9115  -1.9109  -1.9096
    -1.9085  -1.9071  -1.8943  -1.8812  -1.8739  -1.8710  -1.8675  -1.8538
    -1.8527  -1.8498  -1.8489  -1.8428  -1.8409  -1.8136  -1.8052  -1.7627
    -1.7450  -1.7429  -1.7303  -1.6974  -1.6955  -1.6954  -1.6855  -1.6815
    -1.6718  -1.6678  -1.6636  -1.6564  -1.6533  -1.6341  -1.6324  -1.5981
    -1.5960  -1.5777  -1.5629  -1.5564  -1.5404  -1.5177  -1.5001  -1.4661
    -1.4576  -1.4423  -1.4236  -1.4185  -1.4179  -1.4131  -1.4085  -1.3945
    -1.3932  -1.3914  -1.3910  -1.3898  -1.3890  -1.3874  -1.3857  -1.3667
    -1.3596  -1.3460  -1.3264  -1.3256  -1.3216  -1.3029  -1.3027  -1.2982
    -1.2968  -1.2933  -1.2738  -1.2572  -1.2477  -1.2317  -1.2300  -1.2111
    -1.2033  -1.1997  -1.1923  -1.1708  -1.1696  -1.1629  -1.1492  -1.1241
    -1.1194  -1.1123  -1.1111  -1.1104  -1.1027  -1.0851  -1.0840  -1.0715
    -1.0640  -1.0628  -1.0513  -1.0501  -1.0496  -1.0430  -1.0389  -1.0280
    -1.0265  -1.0202  -1.0195  -1.0126  -1.0092  -0.9944  -0.9925  -0.9521
    -0.9507  -0.9486  -0.9464  -0.9432  -0.9417  -0.9140  -0.9042  -0.9012
    -0.8821  -0.8766  -0.8739  -0.8694  -0.8658  -0.8572  -0.8548  -0.8217
    -0.8201  -0.8097  -0.8084  -0.7894  -0.7888  -0.7739  -0.7506  -0.7417
    -0.7250  -0.7235  -0.6861  -0.6858  -0.6835  -0.6816  -0.6781  -0.6755
    -0.6748  -0.6742  -0.6694  -0.6682  -0.6360  -0.6355  -0.6334  -0.6328
    -0.6309  -0.6197  -0.6180  -0.6114  -0.5898  -0.3311  -0.3192  -0.2745
    -0.2644  -0.2432  -0.1814  -0.0329  -0.0319   0.0053   0.2823   0.2850
     0.6230   0.6281   0.6670   0.6677   0.7170   0.7202   0.8772   0.8819
     1.0044   1.0073   1.1240   1.6155   1.6569   1.6627   1.6983   1.6993
     1.8348   1.8400   1.8908   1.8946   2.0738   2.0750   2.3576   2.3849
     2.3904   2.4088   2.8391   2.8450   2.8643   2.8655   2.8831   2.8838
     2.9482   2.9485   3.1004   3.2256   3.2279   3.4146   3.4168   3.5221
     3.5922   3.5941   3.8919   3.8940   3.9437   3.9531   3.9541   4.0907
     4.1004   4.1095   4.1285   4.3936   4.3955   4.4323   4.4348   4.5443
     4.5495   4.6094   4.6163   4.8843   5.4588   5.4979   5.5004   5.5791
     5.6676   5.7001   5.7067   5.7742   5.7771   5.7934   5.7943   5.8665
     5.9035   5.9237   6.0889   6.1762   6.1927   6.1962   6.2007   6.2075
     6.2179   6.2253   6.3347   6.3724   6.3879   6.4032   6.4782   6.5214

          k =-0.2500 0.2500-0.0833 (167653 PWs)   bands (ev):

   -19.4036  -7.2600  -6.8356  -6.3077  -6.3050  -5.8686  -5.4651  -5.3680
    -5.3648  -5.1449  -5.1444  -5.0502  -5.0460  -4.9146  -4.9065  -4.7972
    -4.7087  -4.7045  -4.6845  -4.6832  -4.5027  -4.5025  -4.4995  -4.4744
    -4.4701  -4.4700  -4.4656  -4.4154  -4.4112  -4.4109  -4.4083  -4.3459
    -4.3179  -4.3172  -4.2619  -4.2578  -4.2562  -4.2228  -4.2186  -4.2063
    -4.2015  -4.1832  -4.1828  -4.1469  -4.1145  -4.1125  -4.1107  -4.1082
    -4.1063  -4.0789  -4.0525  -4.0465  -4.0183  -4.0159  -4.0140  -4.0129
    -4.0118  -4.0049  -3.9770  -3.9716  -3.9154  -3.9113  -3.8813  -3.8603
    -3.8468  -3.8446  -3.8435  -3.8217  -3.8205  -3.8095  -3.7593  -3.7586
    -3.7542  -3.7517  -3.6711  -3.6668  -3.6501  -3.6442  -3.6117  -3.6106
    -3.5941  -3.5748  -3.5697  -3.5370  -3.5257  -3.5232  -3.5224  -3.5016
    -3.4985  -3.4944  -3.4177  -3.4160  -3.4154  -3.3994  -3.3861  -3.3790
    -3.3709  -3.3692  -3.3634  -3.3579  -3.3205  -3.3182  -3.2991  -3.2958
    -3.2624  -3.2596  -3.2352  -3.2139  -3.2127  -3.1684  -3.1659  -3.1345
    -3.1074  -3.1057  -3.1053  -3.1051  -3.1014  -3.1003  -3.0765  -3.0636
    -3.0264  -3.0259  -3.0051  -2.9808  -2.9790  -2.9772  -2.9738  -2.9698
    -2.9677  -2.9672  -2.9329  -2.9312  -2.9300  -2.9265  -2.9249  -2.9205
    -2.8651  -2.8613  -2.8566  -2.8539  -2.8344  -2.8331  -2.8284  -2.7387
    -2.7304  -2.7276  -2.7218  -2.7170  -2.7141  -2.7124  -2.7107  -2.7031
    -2.7020  -2.6936  -2.6845  -2.6834  -2.6813  -2.6766  -2.6667  -2.6630
    -2.6592  -2.6385  -2.6289  -2.6251  -2.6119  -2.6106  -2.5955  -2.5941
    -2.5859  -2.5838  -2.5640  -2.5541  -2.5522  -2.5483  -2.5462  -2.5147
    -2.5107  -2.5097  -2.4525  -2.4479  -2.4344  -2.4333  -2.4249  -2.4193
    -2.3977  -2.3952  -2.3909  -2.3821  -2.3787  -2.3707  -2.3652  -2.3537
    -2.3481  -2.3237  -2.3224  -2.3143  -2.3122  -2.3042  -2.3021  -2.2892
    -2.2748  -2.2537  -2.1845  -2.1824  -2.1637  -2.1610  -2.1556  -2.1505
    -2.1069  -2.0995  -2.0903  -2.0654  -2.0563  -2.0535  -2.0343  -2.0183
    -2.0166  -2.0031  -1.9988  -1.9761  -1.9697  -1.9623  -1.9558  -1.9532
    -1.9513  -1.9475  -1.9339  -1.9195  -1.9165  -1.9114  -1.9110  -1.9097
    -1.9089  -1.9056  -1.8940  -1.8804  -1.8742  -1.8710  -1.8675  -1.8543
    -1.8520  -1.8504  -1.8479  -1.8425  -1.8410  -1.8132  -1.8058  -1.7629
    -1.7461  -1.7405  -1.7360  -1.6974  -1.6962  -1.6950  -1.6851  -1.6800
    -1.6715  -1.6677  -1.6638  -1.6562  -1.6530  -1.6337  -1.6326  -1.5982
    -1.5955  -1.5776  -1.5587  -1.5568  -1.5419  -1.5178  -1.4985  -1.4664
    -1.4576  -1.4421  -1.4230  -1.4186  -1.4176  -1.4140  -1.4085  -1.3962
    -1.3950  -1.3910  -1.3901  -1.3897  -1.3892  -1.3876  -1.3853  -1.3670
    -1.3590  -1.3457  -1.3272  -1.3256  -1.3190  -1.3041  -1.3015  -1.2999
    -1.2968  -1.2930  -1.2740  -1.2574  -1.2455  -1.2322  -1.2301  -1.2111
    -1.2036  -1.1996  -1.1917  -1.1708  -1.1689  -1.1633  -1.1498  -1.1268
    -1.1167  -1.1128  -1.1112  -1.1093  -1.1034  -1.0863  -1.0834  -1.0710
    -1.0653  -1.0616  -1.0524  -1.0514  -1.0474  -1.0425  -1.0388  -1.0279
    -1.0246  -1.0210  -1.0192  -1.0122  -1.0109  -0.9957  -0.9916  -0.9505
    -0.9494  -0.9491  -0.9465  -0.9451  -0.9417  -0.9146  -0.9040  -0.9005
    -0.8841  -0.8753  -0.8738  -0.8696  -0.8658  -0.8571  -0.8544  -0.8229
    -0.8184  -0.8094  -0.8084  -0.7899  -0.7886  -0.7737  -0.7500  -0.7417
    -0.7257  -0.7226  -0.6868  -0.6861  -0.6833  -0.6816  -0.6781  -0.6762
    -0.6755  -0.6736  -0.6694  -0.6681  -0.6371  -0.6349  -0.6339  -0.6328
    -0.6315  -0.6199  -0.6187  -0.6082  -0.5896  -0.3314  -0.3192  -0.2784
    -0.2597  -0.2436  -0.1830  -0.0348  -0.0306   0.0048   0.2805   0.2879
     0.6180   0.6321   0.6652   0.6696   0.7133   0.7219   0.8714   0.8878
     1.0046   1.0076   1.1251   1.6160   1.6599   1.6628   1.6980   1.7000
     1.8214   1.8502   1.8874   1.9009   2.0701   2.0779   2.3588   2.3796
     2.3954   2.4085   2.8278   2.8509   2.8652   2.8695   2.8807   2.8859
     2.9469   2.9496   3.0964   3.2156   3.2381   3.4127   3.4167   3.5221
     3.5881   3.5993   3.8835   3.9011   3.9488   3.9531   3.9564   4.0870
     4.0965   4.1043   4.1359   4.3907   4.3977   4.4316   4.4384   4.5462
     4.5507   4.6035   4.6254   4.8875   5.4381   5.4987   5.5144   5.5793
     5.6644   5.6944   5.7111   5.7738   5.7805   5.7838   5.7973   5.8703
     5.9016   5.9211   6.0885   6.1725   6.1935   6.1958   6.2057   6.2080
     6.2113   6.2238   6.3292   6.3757   6.3888   6.3985   6.4871   6.5181

          k = 0.2500-0.2500-0.0833 (167653 PWs)   bands (ev):

   -19.4036  -7.2600  -6.8356  -6.3077  -6.3050  -5.8686  -5.4651  -5.3680
    -5.3648  -5.1449  -5.1444  -5.0502  -5.0460  -4.9146  -4.9065  -4.7972
    -4.7087  -4.7045  -4.6845  -4.6832  -4.5027  -4.5025  -4.4995  -4.4744
    -4.4701  -4.4700  -4.4656  -4.4154  -4.4112  -4.4109  -4.4083  -4.3459
    -4.3179  -4.3172  -4.2619  -4.2578  -4.2562  -4.2228  -4.2186  -4.2063
    -4.2015  -4.1832  -4.1828  -4.1469  -4.1145  -4.1125  -4.1107  -4.1082
    -4.1063  -4.0789  -4.0525  -4.0465  -4.0183  -4.0159  -4.0140  -4.0129
    -4.0118  -4.0049  -3.9770  -3.9716  -3.9154  -3.9113  -3.8813  -3.8603
    -3.8468  -3.8446  -3.8435  -3.8217  -3.8205  -3.8095  -3.7593  -3.7586
    -3.7542  -3.7517  -3.6711  -3.6668  -3.6501  -3.6442  -3.6117  -3.6106
    -3.5941  -3.5748  -3.5697  -3.5370  -3.5257  -3.5232  -3.5224  -3.5016
    -3.4985  -3.4944  -3.4177  -3.4160  -3.4154  -3.3994  -3.3861  -3.3790
    -3.3709  -3.3692  -3.3634  -3.3579  -3.3205  -3.3182  -3.2991  -3.2958
    -3.2624  -3.2596  -3.2352  -3.2139  -3.2127  -3.1684  -3.1659  -3.1345
    -3.1074  -3.1057  -3.1053  -3.1051  -3.1014  -3.1003  -3.0765  -3.0636
    -3.0264  -3.0259  -3.0051  -2.9808  -2.9790  -2.9772  -2.9738  -2.9698
    -2.9677  -2.9672  -2.9329  -2.9312  -2.9300  -2.9265  -2.9249  -2.9205
    -2.8651  -2.8613  -2.8566  -2.8539  -2.8344  -2.8331  -2.8284  -2.7387
    -2.7304  -2.7276  -2.7218  -2.7170  -2.7141  -2.7124  -2.7107  -2.7031
    -2.7020  -2.6936  -2.6845  -2.6834  -2.6813  -2.6766  -2.6667  -2.6630
    -2.6592  -2.6385  -2.6289  -2.6251  -2.6119  -2.6106  -2.5955  -2.5941
    -2.5859  -2.5838  -2.5640  -2.5541  -2.5522  -2.5483  -2.5462  -2.5147
    -2.5107  -2.5097  -2.4525  -2.4479  -2.4344  -2.4333  -2.4249  -2.4193
    -2.3977  -2.3952  -2.3909  -2.3821  -2.3787  -2.3707  -2.3652  -2.3537
    -2.3481  -2.3237  -2.3224  -2.3143  -2.3122  -2.3042  -2.3021  -2.2892
    -2.2748  -2.2537  -2.1845  -2.1824  -2.1637  -2.1610  -2.1556  -2.1505
    -2.1069  -2.0995  -2.0903  -2.0654  -2.0563  -2.0535  -2.0343  -2.0183
    -2.0166  -2.0031  -1.9988  -1.9761  -1.9697  -1.9623  -1.9558  -1.9532
    -1.9513  -1.9475  -1.9339  -1.9195  -1.9165  -1.9114  -1.9110  -1.9097
    -1.9089  -1.9056  -1.8940  -1.8804  -1.8742  -1.8710  -1.8675  -1.8543
    -1.8520  -1.8504  -1.8479  -1.8425  -1.8410  -1.8132  -1.8058  -1.7629
    -1.7461  -1.7405  -1.7360  -1.6974  -1.6962  -1.6950  -1.6851  -1.6800
    -1.6715  -1.6677  -1.6638  -1.6562  -1.6530  -1.6337  -1.6326  -1.5982
    -1.5955  -1.5776  -1.5587  -1.5568  -1.5419  -1.5178  -1.4985  -1.4664
    -1.4576  -1.4421  -1.4230  -1.4186  -1.4176  -1.4140  -1.4085  -1.3962
    -1.3950  -1.3910  -1.3901  -1.3897  -1.3892  -1.3876  -1.3853  -1.3670
    -1.3590  -1.3457  -1.3272  -1.3256  -1.3190  -1.3041  -1.3015  -1.2999
    -1.2968  -1.2930  -1.2740  -1.2574  -1.2455  -1.2322  -1.2301  -1.2111
    -1.2036  -1.1996  -1.1917  -1.1708  -1.1689  -1.1633  -1.1498  -1.1268
    -1.1167  -1.1128  -1.1112  -1.1093  -1.1034  -1.0863  -1.0834  -1.0710
    -1.0653  -1.0616  -1.0524  -1.0514  -1.0474  -1.0425  -1.0388  -1.0279
    -1.0246  -1.0210  -1.0192  -1.0122  -1.0109  -0.9957  -0.9916  -0.9505
    -0.9494  -0.9491  -0.9465  -0.9451  -0.9417  -0.9146  -0.9040  -0.9005
    -0.8841  -0.8753  -0.8738  -0.8696  -0.8658  -0.8571  -0.8544  -0.8229
    -0.8184  -0.8094  -0.8084  -0.7899  -0.7886  -0.7737  -0.7500  -0.7417
    -0.7257  -0.7226  -0.6868  -0.6861  -0.6833  -0.6816  -0.6781  -0.6762
    -0.6755  -0.6736  -0.6694  -0.6681  -0.6371  -0.6349  -0.6339  -0.6328
    -0.6315  -0.6199  -0.6187  -0.6082  -0.5896  -0.3314  -0.3192  -0.2784
    -0.2597  -0.2436  -0.1830  -0.0348  -0.0306   0.0048   0.2805   0.2879
     0.6180   0.6321   0.6652   0.6696   0.7133   0.7219   0.8714   0.8878
     1.0046   1.0076   1.1251   1.6160   1.6599   1.6628   1.6980   1.7000
     1.8214   1.8502   1.8874   1.9009   2.0701   2.0779   2.3588   2.3796
     2.3954   2.4085   2.8278   2.8509   2.8652   2.8695   2.8807   2.8859
     2.9469   2.9496   3.0964   3.2156   3.2381   3.4127   3.4167   3.5221
     3.5881   3.5993   3.8835   3.9011   3.9488   3.9531   3.9564   4.0870
     4.0965   4.1043   4.1359   4.3907   4.3977   4.4316   4.4384   4.5462
     4.5507   4.6035   4.6254   4.8875   5.4381   5.4987   5.5145   5.5795
     5.6646   5.6942   5.7109   5.7735   5.7807   5.7839   5.7972   5.8699
     5.9010   5.9205   6.0923   6.1717   6.1934   6.1958   6.2058   6.2080
     6.2114   6.2238   6.3268   6.3682   6.3881   6.4054   6.4896   6.5220

          k =-0.2500 0.2500 0.2500 (167588 PWs)   bands (ev):

   -19.4036  -7.2600  -6.8356  -6.3077  -6.3050  -5.8686  -5.4651  -5.3680
    -5.3648  -5.1449  -5.1444  -5.0502  -5.0460  -4.9146  -4.9065  -4.7972
    -4.7087  -4.7045  -4.6845  -4.6832  -4.5027  -4.5025  -4.4995  -4.4744
    -4.4701  -4.4700  -4.4657  -4.4154  -4.4112  -4.4109  -4.4083  -4.3459
    -4.3179  -4.3172  -4.2619  -4.2578  -4.2562  -4.2227  -4.2186  -4.2063
    -4.2015  -4.1832  -4.1828  -4.1469  -4.1145  -4.1125  -4.1107  -4.1082
    -4.1063  -4.0789  -4.0525  -4.0465  -4.0183  -4.0159  -4.0140  -4.0129
    -4.0118  -4.0049  -3.9770  -3.9716  -3.9155  -3.9113  -3.8813  -3.8603
    -3.8468  -3.8446  -3.8435  -3.8217  -3.8205  -3.8095  -3.7593  -3.7586
    -3.7542  -3.7517  -3.6711  -3.6668  -3.6501  -3.6442  -3.6117  -3.6106
    -3.5941  -3.5748  -3.5697  -3.5370  -3.5257  -3.5232  -3.5224  -3.5016
    -3.4985  -3.4944  -3.4177  -3.4161  -3.4154  -3.3994  -3.3861  -3.3790
    -3.3709  -3.3692  -3.3634  -3.3579  -3.3205  -3.3182  -3.2991  -3.2958
    -3.2624  -3.2595  -3.2352  -3.2139  -3.2127  -3.1684  -3.1659  -3.1345
    -3.1074  -3.1057  -3.1053  -3.1051  -3.1014  -3.1003  -3.0765  -3.0636
    -3.0264  -3.0259  -3.0051  -2.9808  -2.9790  -2.9772  -2.9738  -2.9698
    -2.9677  -2.9672  -2.9329  -2.9312  -2.9300  -2.9265  -2.9249  -2.9205
    -2.8651  -2.8613  -2.8566  -2.8539  -2.8344  -2.8331  -2.8284  -2.7387
    -2.7304  -2.7276  -2.7218  -2.7170  -2.7141  -2.7124  -2.7107  -2.7031
    -2.7020  -2.6936  -2.6845  -2.6834  -2.6813  -2.6766  -2.6667  -2.6630
    -2.6592  -2.6385  -2.6289  -2.6251  -2.6119  -2.6106  -2.5955  -2.5941
    -2.5859  -2.5838  -2.5640  -2.5541  -2.5522  -2.5483  -2.5461  -2.5147
    -2.5107  -2.5097  -2.4525  -2.4479  -2.4344  -2.4333  -2.4249  -2.4193
    -2.3977  -2.3952  -2.3909  -2.3821  -2.3787  -2.3707  -2.3652  -2.3537
    -2.3481  -2.3237  -2.3224  -2.3143  -2.3123  -2.3042  -2.3021  -2.2892
    -2.2748  -2.2537  -2.1845  -2.1824  -2.1637  -2.1610  -2.1556  -2.1505
    -2.1069  -2.0995  -2.0903  -2.0654  -2.0563  -2.0535  -2.0343  -2.0183
    -2.0166  -2.0031  -1.9988  -1.9761  -1.9697  -1.9623  -1.9558  -1.9532
    -1.9513  -1.9475  -1.9339  -1.9195  -1.9165  -1.9114  -1.9110  -1.9097
    -1.9089  -1.9056  -1.8940  -1.8804  -1.8742  -1.8710  -1.8675  -1.8543
    -1.8520  -1.8504  -1.8479  -1.8425  -1.8410  -1.8132  -1.8058  -1.7629
    -1.7461  -1.7405  -1.7360  -1.6974  -1.6962  -1.6950  -1.6851  -1.6799
    -1.6715  -1.6677  -1.6637  -1.6562  -1.6530  -1.6337  -1.6326  -1.5982
    -1.5955  -1.5776  -1.5587  -1.5568  -1.5419  -1.5178  -1.4985  -1.4664
    -1.4576  -1.4422  -1.4230  -1.4186  -1.4176  -1.4140  -1.4085  -1.3962
    -1.3950  -1.3910  -1.3901  -1.3897  -1.3892  -1.3876  -1.3853  -1.3670
    -1.3590  -1.3457  -1.3272  -1.3256  -1.3190  -1.3041  -1.3015  -1.2999
    -1.2968  -1.2930  -1.2740  -1.2574  -1.2455  -1.2322  -1.2301  -1.2111
    -1.2036  -1.1996  -1.1917  -1.1708  -1.1689  -1.1633  -1.1498  -1.1268
    -1.1167  -1.1128  -1.1112  -1.1093  -1.1034  -1.0863  -1.0834  -1.0710
    -1.0653  -1.0616  -1.0524  -1.0514  -1.0474  -1.0425  -1.0388  -1.0279
    -1.0246  -1.0210  -1.0192  -1.0122  -1.0109  -0.9957  -0.9916  -0.9505
    -0.9494  -0.9491  -0.9465  -0.9451  -0.9417  -0.9146  -0.9040  -0.9005
    -0.8841  -0.8753  -0.8738  -0.8696  -0.8658  -0.8571  -0.8544  -0.8229
    -0.8184  -0.8094  -0.8084  -0.7899  -0.7886  -0.7737  -0.7500  -0.7417
    -0.7257  -0.7225  -0.6868  -0.6861  -0.6833  -0.6816  -0.6781  -0.6762
    -0.6755  -0.6736  -0.6694  -0.6681  -0.6371  -0.6349  -0.6339  -0.6328
    -0.6315  -0.6199  -0.6187  -0.6082  -0.5896  -0.3314  -0.3192  -0.2784
    -0.2597  -0.2436  -0.1830  -0.0348  -0.0306   0.0048   0.2805   0.2879
     0.6180   0.6321   0.6652   0.6696   0.7133   0.7219   0.8714   0.8878
     1.0046   1.0076   1.1251   1.6160   1.6599   1.6628   1.6980   1.7000
     1.8214   1.8502   1.8874   1.9009   2.0701   2.0779   2.3588   2.3796
     2.3954   2.4085   2.8278   2.8509   2.8652   2.8695   2.8807   2.8859
     2.9468   2.9496   3.0964   3.2156   3.2381   3.4127   3.4167   3.5221
     3.5881   3.5993   3.8835   3.9011   3.9488   3.9531   3.9564   4.0870
     4.0965   4.1043   4.1359   4.3907   4.3977   4.4316   4.4384   4.5462
     4.5507   4.6035   4.6254   4.8876   5.4358   5.4987   5.5129   5.5789
     5.6478   5.6940   5.7104   5.7730   5.7798   5.7837   5.7972   5.8659
     5.9019   5.9584   6.1401   6.1562   6.1733   6.1952   6.2037   6.2074
     6.2101   6.2240   6.3163   6.3798   6.3857   6.4822   6.5105   6.5637

     the Fermi energy is     0.9501 ev

!    total energy              =   -7379.98251519 Ry
     Harris-Foulkes estimate   =   -7379.98251519 Ry
     estimated scf accuracy    <          3.1E-09 Ry

     The total energy is the sum of the following terms:

     one-electron contribution =  -48834.56928408 Ry
     hartree contribution      =   24966.72040496 Ry
     xc contribution           =   -3556.26202949 Ry
     ewald contribution        =   20044.12723369 Ry
     smearing contrib. (-TS)   =       0.00115973 Ry

     convergence has been achieved in  27 iterations

     negative rho (up, down):  1.970E+00 0.000E+00

     Forces acting on atoms (Ry/au):

     atom    1 type  3   force =     0.00805358    0.01064524    0.00910898
     atom    2 type  2   force =    -0.00759215   -0.00675937   -0.00797667
     atom    3 type  2   force =     0.00287333   -0.00230115    0.00281332
     atom    4 type  1   force =    -0.00019767   -0.00016699    0.01853658
     atom    5 type  1   force =    -0.00005194   -0.00030195    0.01826171
     atom    6 type  1   force =    -0.00000689   -0.00029210    0.01824741
     atom    7 type  1   force =    -0.00004035   -0.00004099    0.01808825
     atom    8 type  1   force =     0.00005353    0.00000590    0.01790353
     atom    9 type  1   force =     0.00025991    0.00003482    0.01836501
     atom   10 type  1   force =    -0.00027819   -0.00007003    0.01825720
     atom   11 type  1   force =     0.00001023    0.00004359    0.01795499
     atom   12 type  1   force =     0.00001103    0.00002398    0.01819889
     atom   13 type  1   force =     0.00004121    0.00003618    0.01791705
     atom   14 type  1   force =     0.00003207    0.00003234    0.01809184
     atom   15 type  1   force =     0.00021667    0.00002644    0.01822936
     atom   16 type  1   force =    -0.00030190    0.00000682    0.01824618
     atom   17 type  1   force =     0.00000205    0.00002429    0.01817968
     atom   18 type  1   force =    -0.00003846   -0.00000900    0.01804724
     atom   19 type  1   force =     0.00007049    0.00023266    0.01835998
     atom   20 type  1   force =     0.00001783    0.00022151    0.01824397
     atom   21 type  1   force =     0.00018917    0.00018597    0.01836933
     atom   22 type  1   force =     0.00000806   -0.00028788   -0.00243636
     atom   23 type  1   force =     0.00009359   -0.00025652   -0.00245429
     atom   24 type  1   force =     0.00032328   -0.00041414   -0.00244915
     atom   25 type  1   force =    -0.00034697    0.00005106   -0.00246685
     atom   26 type  1   force =     0.00005586    0.00004358   -0.00263012
     atom   27 type  1   force =    -0.00040294   -0.00011836   -0.00252057
     atom   28 type  1   force =     0.00000251    0.00011061   -0.00267420
     atom   29 type  1   force =    -0.00019780   -0.00009572   -0.00244988
     atom   30 type  1   force =     0.00056162    0.00008815   -0.00246929
     atom   31 type  1   force =    -0.00025115    0.00008255   -0.00249562
     atom   32 type  1   force =    -0.00008512   -0.00023038   -0.00245927
     atom   33 type  1   force =     0.00010884    0.00003567   -0.00255098
     atom   34 type  1   force =    -0.00016208   -0.00031573   -0.00249978
     atom   35 type  1   force =     0.00004517    0.00005102   -0.00255990
     atom   36 type  1   force =     0.00038367    0.00005800   -0.00236287
     atom   37 type  1   force =    -0.00039895    0.00027838   -0.00245937
     atom   38 type  1   force =     0.00008988    0.00053006   -0.00245186
     atom   39 type  1   force =     0.00011558    0.00037022   -0.00237021
     atom   40 type  1   force =    -0.00044485   -0.00041973    0.00095217
     atom   41 type  1   force =     0.00002962   -0.00016133    0.00138098
     atom   42 type  1   force =     0.00020400   -0.00035991    0.00142615
     atom   43 type  1   force =    -0.00011313    0.00004273    0.00160485
     atom   44 type  1   force =    -0.00034744   -0.00026763    0.00199171
     atom   45 type  1   force =     0.00018977    0.00005867    0.00150718
     atom   46 type  1   force =    -0.00033597    0.00011245    0.00145532
     atom   47 type  1   force =     0.00007892    0.00009608    0.00146654
     atom   48 type  1   force =     0.00005875    0.00005635    0.00139122
     atom   49 type  1   force =     0.00017676    0.00037677    0.00117708
     atom   50 type  1   force =    -0.00042809    0.00001371    0.00185824
     atom   51 type  1   force =    -0.00007269    0.00007764    0.00109818
     atom   52 type  1   force =     0.00000381   -0.00036653    0.00188945
     atom   53 type  1   force =     0.00003431    0.00007781    0.00146789
     atom   54 type  1   force =     0.00022425   -0.00003892    0.00149719
     atom   55 type  1   force =     0.00006626    0.00008434    0.00117981
     atom   56 type  1   force =     0.00000194    0.00018004    0.00136482
     atom   57 type  1   force =     0.00025961    0.00029757    0.00145311
     atom   58 type  1   force =    -0.00081933   -0.00260423   -0.01841446
     atom   59 type  1   force =    -0.00001900   -0.00023398   -0.01713279
     atom   60 type  1   force =     0.00026091   -0.00027861   -0.01710870
     atom   61 type  1   force =    -0.00325215   -0.00084582   -0.01972980
     atom   62 type  1   force =     0.00124381   -0.00021449   -0.01700815
     atom   63 type  1   force =     0.00005004   -0.00005363   -0.01703103
     atom   64 type  1   force =    -0.00018318    0.00150195   -0.01755069
     atom   65 type  1   force =     0.00007813   -0.00001126   -0.01718342
     atom   66 type  1   force =     0.00021162   -0.00001579   -0.01730730
     atom   67 type  1   force =    -0.00034101    0.00014035   -0.01733856
     atom   68 type  1   force =     0.00004569    0.00012204   -0.01726568
     atom   69 type  1   force =    -0.00004078    0.00002144   -0.01702479
     atom   70 type  1   force =    -0.00002975    0.00009491   -0.01703811
     atom   71 type  1   force =     0.00001685    0.00000196   -0.01700081
     atom   72 type  1   force =     0.00030042    0.00002483   -0.01728711
     atom   73 type  1   force =    -0.00023660    0.00026866   -0.01704849
     atom   74 type  1   force =    -0.00012234    0.00036248   -0.01711325
     atom   75 type  1   force =    -0.00001574    0.00030035   -0.01726202

     Total force =     0.109693     Total SCF correction =     0.000317

     BFGS Geometry Optimization

     number of scf cycles    =   1
     number of bfgs steps    =   0

     energy   new            =   -7379.9825151901 Ry

     new trust radius        =       0.0200139211 bohr
     new conv_thr            =       0.0000000100 Ry


ATOMIC_POSITIONS (angstrom)
O        2.131057541   2.132497651   9.078807270
H        1.521809270   1.542535627   8.569722788
H        2.711064066   1.514720388   9.560585867
Au      -0.000104603  -0.000088366   0.009809137
Au       4.253710439  -0.000159785   0.009663683
Au       8.507472207  -0.000154575   0.009656114
Au       2.126847609   2.126847274   0.009571887
Au       6.380635455   2.126872086   0.009474142
Au      10.634481642   2.126887389   0.009718343
Au      -0.000147214   4.253700869   0.009661295
Au       4.253743339   4.253760990   0.009501372
Au       8.507481689   4.253750615   0.009630437
Au       2.126890769   6.380626274   0.009481293
Au       6.380624096   6.380624243   0.009573790
Au      10.634458756   6.380621121   0.009646560
Au      -0.000159757   8.507479461   0.009655461
Au       4.253739009   8.507488704   0.009620273
Au       8.507455500   8.507471091   0.009550189
Au       2.126906265  10.634467218   0.009715683
Au       6.380616564  10.634461321   0.009654291
Au      10.634444207  10.634442515   0.009720631
Au       2.126873228  -0.000152342   2.125579696
Au       6.380656651  -0.000135742   2.125570211
Au      10.634515174  -0.000219151   2.125572930
Au      -0.000183608   2.126895981   2.125563563
Au       4.253767486   2.126892024   2.125477165
Au       8.507262626   2.126806328   2.125535135
Au       2.126870291   4.253796457   2.125453838
Au       6.380502459   4.253687274   2.125572541
Au      10.634641299   4.253784575   2.125562273
Au      -0.000132902   6.380650814   2.125548340
Au       4.253692881   6.380485214   2.125567572
Au       8.507533448   6.380626005   2.125519042
Au       2.126783196   8.507308776   2.125546139
Au       6.380631031   8.507502850   2.125514323
Au      10.634547128   8.507506543   2.125618586
Au      -0.000211117  10.634491416   2.125567519
Au       4.253785486  10.634624595   2.125571494
Au       8.507537018  10.634540012   2.125614703
Au      -0.000467302  -0.000454010   4.258404104
Au       4.253750264  -0.000315823   4.258624343
Au       8.507600018  -0.000423954   4.258659217
Au      -0.000290316   4.253757201   4.258742814
Au       4.253551209   4.253593442   4.258941808
Au       8.507589625   4.253766588   4.258697329
Au      -0.000411284   8.507551573   4.258674650
Au       4.253777304   8.507540049   4.258675819
Au       8.507522200   8.507520929   4.258646456
Au       2.126947718   2.127053559   4.258529798
Au       6.380373440   2.126862389   4.258882622
Au      10.634547870   2.126893358   4.258484707
Au       2.126857151   6.380406017   4.258899137
Au       6.380619565   6.380642583   4.258667476
Au      10.634703094   6.380581286   4.258687748
Au       2.126887339  10.634630966   4.258527906
Au       6.380602909  10.634679702   4.258617699
Au      10.634722762  10.634742848   4.258669670
Au       2.126429431  -0.001519717   6.364185463
Au       6.380593735  -0.000266236   6.364867987
Au      10.634632850  -0.000289680   6.364766772
Au      -0.001862580   2.126415417   6.363489415
Au       4.254391355   2.126752120   6.365044094
Au       8.507506146   2.126837243   6.365034848
Au       2.126768688   4.254527955   6.364756994
Au       6.380646089   4.253730063   6.364951821
Au      10.634603904   4.253726233   6.364780406
Au      -0.000322872   6.380678060   6.364759097
Au       4.253760195   6.380669327   6.364908291
Au       8.507457136   6.380617041   6.365038146
Au       2.126849884   8.507529891   6.365031098
Au       6.380614616   8.507479752   6.365050836
Au      10.634650894   8.507493761   6.364790616
Au      -0.000267451  10.634636950   6.364798632
Au       4.253669849  10.634683738   6.364883097
Au       8.507472290  10.634650858   6.364803891



     Writing output data file 987643.save
     Check: negative starting charge=   -1.945170
     NEW-OLD atomic charge density approx. for the potential
     Check: negative starting charge=   -1.943845

     negative rho (up, down):  1.970E+00 0.000E+00

     total cpu time spent up to now is     3419.5 secs

     per-process dynamical memory:   749.4 Mb

     Self-consistent Calculation

     iteration #  1     ecut=    50.00 Ry     beta=0.70
     Davidson diagonalization with overlap
     ethr =  1.00E-06,  avg # of iterations =  4.0

     negative rho (up, down):  1.969E+00 0.000E+00

     total cpu time spent up to now is     3694.6 secs

     total energy              =   -7379.99330075 Ry
     Harris-Foulkes estimate   =   -7379.99394302 Ry
     estimated scf accuracy    <       0.00089232 Ry

     iteration #  2     ecut=    50.00 Ry     beta=0.70
     Davidson diagonalization with overlap
     ethr =  1.12E-07,  avg # of iterations =  7.8

     negative rho (up, down):  1.969E+00 0.000E+00

     total cpu time spent up to now is     3867.5 secs

     total energy              =   -7379.99204363 Ry
     Harris-Foulkes estimate   =   -7379.99538265 Ry
     estimated scf accuracy    <       0.01506035 Ry

     iteration #  3     ecut=    50.00 Ry     beta=0.70
     Davidson diagonalization with overlap
     ethr =  1.12E-07,  avg # of iterations =  7.8

     negative rho (up, down):  1.969E+00 0.000E+00

     total cpu time spent up to now is     4033.2 secs

     total energy              =   -7379.99370987 Ry
     Harris-Foulkes estimate   =   -7379.99389930 Ry
     estimated scf accuracy    <       0.00068265 Ry

     iteration #  4     ecut=    50.00 Ry     beta=0.70
     Davidson diagonalization with overlap
     ethr =  8.53E-08,  avg # of iterations =  3.0

     negative rho (up, down):  1.969E+00 0.000E+00

     total cpu time spent up to now is     4125.8 secs

     total energy              =   -7379.99377099 Ry
     Harris-Foulkes estimate   =   -7379.99382008 Ry
     estimated scf accuracy    <       0.00015486 Ry

     iteration #  5     ecut=    50.00 Ry     beta=0.70
     Davidson diagonalization with overlap
     ethr =  1.94E-08,  avg # of iterations =  2.0

     negative rho (up, down):  1.969E+00 0.000E+00

     total cpu time spent up to now is     4219.3 secs

     total energy              =   -7379.99376551 Ry
     Harris-Foulkes estimate   =   -7379.99385300 Ry
     estimated scf accuracy    <       0.00074790 Ry

     iteration #  6     ecut=    50.00 Ry     beta=0.70
     Davidson diagonalization with overlap
     ethr =  1.94E-08,  avg # of iterations =  2.0

     negative rho (up, down):  1.969E+00 0.000E+00

     total cpu time spent up to now is     4310.5 secs

     total energy              =   -7379.99380283 Ry
     Harris-Foulkes estimate   =   -7379.99381377 Ry
     estimated scf accuracy    <       0.00005092 Ry

     iteration #  7     ecut=    50.00 Ry     beta=0.70
     Davidson diagonalization with overlap
     ethr =  6.36E-09,  avg # of iterations =  2.0

     negative rho (up, down):  1.969E+00 0.000E+00

     total cpu time spent up to now is     4401.8 secs

     total energy              =   -7379.99380820 Ry
     Harris-Foulkes estimate   =   -7379.99381065 Ry
     estimated scf accuracy    <       0.00001130 Ry

     iteration #  8     ecut=    50.00 Ry     beta=0.70
     Davidson diagonalization with overlap
     ethr =  1.41E-09,  avg # of iterations =  2.0

     negative rho (up, down):  1.969E+00 0.000E+00

     total cpu time spent up to now is     4492.9 secs

     total energy              =   -7379.99380928 Ry
     Harris-Foulkes estimate   =   -7379.99381004 Ry
     estimated scf accuracy    <       0.00000242 Ry

     iteration #  9     ecut=    50.00 Ry     beta=0.70
     Davidson diagonalization with overlap
     ethr =  3.03E-10,  avg # of iterations =  2.0

     negative rho (up, down):  1.969E+00 0.000E+00

     total cpu time spent up to now is     4584.8 secs

     total energy              =   -7379.99380963 Ry
     Harris-Foulkes estimate   =   -7379.99380982 Ry
     estimated scf accuracy    <       0.00000060 Ry

     iteration # 10     ecut=    50.00 Ry     beta=0.70
     Davidson diagonalization with overlap
     ethr =  7.44E-11,  avg # of iterations =  2.0

     negative rho (up, down):  1.969E+00 0.000E+00

     total cpu time spent up to now is     4675.7 secs

     total energy              =   -7379.99380971 Ry
     Harris-Foulkes estimate   =   -7379.99380978 Ry
     estimated scf accuracy    <       0.00000023 Ry

     iteration # 11     ecut=    50.00 Ry     beta=0.70
     Davidson diagonalization with overlap
     ethr =  2.90E-11,  avg # of iterations =  2.0

     negative rho (up, down):  1.969E+00 0.000E+00

     total cpu time spent up to now is     4764.1 secs

     total energy              =   -7379.99380974 Ry
     Harris-Foulkes estimate   =   -7379.99380976 Ry
     estimated scf accuracy    <       0.00000003 Ry

     iteration # 12     ecut=    50.00 Ry     beta=0.70
     Davidson diagonalization with overlap
     ethr =  3.93E-12,  avg # of iterations =  3.0

     negative rho (up, down):  1.969E+00 0.000E+00

     total cpu time spent up to now is     4875.9 secs

     total energy              =   -7379.99380974 Ry
     Harris-Foulkes estimate   =   -7379.99380975 Ry
     estimated scf accuracy    <       0.00000004 Ry

     iteration # 13     ecut=    50.00 Ry     beta=0.70
     Davidson diagonalization with overlap
     ethr =  3.93E-12,  avg # of iterations =  2.0

     negative rho (up, down):  1.969E+00 0.000E+00

     total cpu time spent up to now is     4972.1 secs

     total energy              =   -7379.99380975 Ry
     Harris-Foulkes estimate   =   -7379.99380975 Ry
     estimated scf accuracy    <       0.00000004 Ry

     iteration # 14     ecut=    50.00 Ry     beta=0.70
     Davidson diagonalization with overlap
     ethr =  3.93E-12,  avg # of iterations =  2.0

     negative rho (up, down):  1.969E+00 0.000E+00

     total cpu time spent up to now is     5061.8 secs

     End of self-consistent calculation

          k = 0.2500 0.2500 0.0833 (167653 PWs)   bands (ev):

   -19.3103  -7.1515  -6.8466  -6.3186  -6.3172  -5.8796  -5.4832  -5.3778
    -5.3774  -5.1548  -5.1546  -5.0667  -5.0648  -4.9297  -4.9151  -4.8075
    -4.7178  -4.7137  -4.6960  -4.6951  -4.5103  -4.5096  -4.5094  -4.4833
    -4.4801  -4.4800  -4.4752  -4.4300  -4.4285  -4.4198  -4.4196  -4.3523
    -4.3271  -4.3269  -4.2683  -4.2665  -4.2655  -4.2285  -4.2278  -4.2142
    -4.2100  -4.1923  -4.1920  -4.1573  -4.1246  -4.1219  -4.1216  -4.1154
    -4.1151  -4.0979  -4.0649  -4.0622  -4.0246  -4.0242  -4.0234  -4.0231
    -4.0210  -4.0151  -3.9840  -3.9824  -3.9300  -3.9268  -3.8978  -3.8739
    -3.8647  -3.8568  -3.8560  -3.8288  -3.8282  -3.8229  -3.7679  -3.7669
    -3.7614  -3.7608  -3.6841  -3.6800  -3.6626  -3.6595  -3.6247  -3.6185
    -3.6084  -3.5868  -3.5844  -3.5444  -3.5384  -3.5353  -3.5324  -3.5135
    -3.5101  -3.5069  -3.4293  -3.4264  -3.4255  -3.4174  -3.4036  -3.3964
    -3.3795  -3.3788  -3.3781  -3.3754  -3.3288  -3.3276  -3.3151  -3.3135
    -3.2770  -3.2759  -3.2334  -3.2318  -3.2309  -3.1727  -3.1720  -3.1366
    -3.1205  -3.1193  -3.1109  -3.1106  -3.1080  -3.1074  -3.0902  -3.0786
    -3.0395  -3.0387  -3.0167  -2.9854  -2.9847  -2.9837  -2.9828  -2.9823
    -2.9788  -2.9788  -2.9355  -2.9354  -2.9339  -2.9329  -2.9271  -2.9265
    -2.8689  -2.8646  -2.8616  -2.8607  -2.8461  -2.8452  -2.8262  -2.7416
    -2.7412  -2.7402  -2.7183  -2.7175  -2.7172  -2.7136  -2.7123  -2.7071
    -2.7067  -2.6936  -2.6907  -2.6884  -2.6882  -2.6846  -2.6705  -2.6672
    -2.6667  -2.6335  -2.6285  -2.6273  -2.6147  -2.6144  -2.6007  -2.5998
    -2.5889  -2.5888  -2.5708  -2.5640  -2.5623  -2.5568  -2.5552  -2.5208
    -2.5198  -2.5133  -2.4576  -2.4538  -2.4355  -2.4348  -2.4323  -2.4281
    -2.4017  -2.3963  -2.3956  -2.3852  -2.3829  -2.3720  -2.3688  -2.3506
    -2.3491  -2.3282  -2.3272  -2.3182  -2.3175  -2.3052  -2.3048  -2.2937
    -2.2780  -2.2646  -2.1859  -2.1827  -2.1732  -2.1723  -2.1675  -2.1638
    -2.1096  -2.1036  -2.0889  -2.0817  -2.0572  -2.0555  -2.0478  -2.0328
    -2.0312  -2.0182  -1.9891  -1.9752  -1.9702  -1.9670  -1.9597  -1.9587
    -1.9582  -1.9569  -1.9348  -1.9221  -1.9191  -1.9144  -1.9132  -1.9127
    -1.9081  -1.9079  -1.9063  -1.8792  -1.8719  -1.8687  -1.8661  -1.8627
    -1.8620  -1.8526  -1.8517  -1.8504  -1.8486  -1.8194  -1.8122  -1.7567
    -1.7370  -1.7338  -1.7251  -1.7099  -1.6966  -1.6948  -1.6785  -1.6767
    -1.6718  -1.6672  -1.6644  -1.6629  -1.6624  -1.6343  -1.6327  -1.5979
    -1.5961  -1.5841  -1.5636  -1.5587  -1.5373  -1.5174  -1.4972  -1.4626
    -1.4537  -1.4393  -1.4278  -1.4212  -1.4160  -1.4086  -1.4046  -1.3942
    -1.3930  -1.3914  -1.3908  -1.3888  -1.3882  -1.3863  -1.3849  -1.3671
    -1.3622  -1.3461  -1.3242  -1.3230  -1.3194  -1.3061  -1.3058  -1.3004
    -1.2974  -1.2954  -1.2707  -1.2548  -1.2450  -1.2297  -1.2267  -1.2100
    -1.2001  -1.1967  -1.1893  -1.1646  -1.1632  -1.1615  -1.1463  -1.1202
    -1.1162  -1.1105  -1.1094  -1.1086  -1.0996  -1.0774  -1.0763  -1.0680
    -1.0634  -1.0621  -1.0495  -1.0485  -1.0478  -1.0403  -1.0354  -1.0212
    -1.0200  -1.0175  -1.0168  -1.0104  -1.0052  -0.9944  -0.9893  -0.9502
    -0.9486  -0.9450  -0.9436  -0.9411  -0.9400  -0.9130  -0.9024  -0.9006
    -0.8778  -0.8734  -0.8715  -0.8660  -0.8596  -0.8555  -0.8528  -0.8175
    -0.8159  -0.8075  -0.8063  -0.7838  -0.7832  -0.7707  -0.7437  -0.7354
    -0.7222  -0.7207  -0.6808  -0.6793  -0.6790  -0.6788  -0.6753  -0.6727
    -0.6692  -0.6670  -0.6665  -0.6624  -0.6306  -0.6300  -0.6280  -0.6275
    -0.6256  -0.6145  -0.6130  -0.6060  -0.5851  -0.3329  -0.3219  -0.2683
    -0.2584  -0.2423  -0.1872  -0.0327  -0.0316   0.0133   0.2867   0.2895
     0.6367   0.6416   0.6655   0.6665   0.7165   0.7198   0.8905   0.8952
     1.0028   1.0055   1.1366   1.6244   1.6529   1.6574   1.6968   1.6977
     1.8494   1.8545   1.9109   1.9145   2.0748   2.0761   2.3729   2.4011
     2.4050   2.4073   2.8560   2.8613   2.8644   2.8654   2.8820   2.8830
     2.9446   2.9449   3.1144   3.2407   3.2431   3.4260   3.4280   3.5202
     3.6102   3.6120   3.9086   3.9108   3.9504   3.9538   3.9581   4.0920
     4.0977   4.1189   4.1420   4.3940   4.3956   4.4302   4.4327   4.5577
     4.5628   4.6219   4.6287   4.8966   5.4630   5.4978   5.5017   5.5916
     5.6739   5.7123   5.7180   5.7742   5.7773   5.7926   5.7938   5.8738
     5.9141   5.9307   6.0905   6.1845   6.2068   6.2089   6.2116   6.2163
     6.2276   6.2396   6.3311   6.3798   6.3965   6.4124   6.4897   6.5265

          k = 0.2500 0.2500-0.2500 (167588 PWs)   bands (ev):

   -19.3103  -7.1515  -6.8466  -6.3186  -6.3172  -5.8796  -5.4832  -5.3778
    -5.3774  -5.1548  -5.1546  -5.0667  -5.0648  -4.9297  -4.9151  -4.8075
    -4.7178  -4.7137  -4.6960  -4.6951  -4.5103  -4.5096  -4.5094  -4.4833
    -4.4801  -4.4800  -4.4752  -4.4300  -4.4285  -4.4198  -4.4196  -4.3523
    -4.3271  -4.3269  -4.2683  -4.2665  -4.2655  -4.2285  -4.2278  -4.2142
    -4.2100  -4.1923  -4.1920  -4.1573  -4.1246  -4.1219  -4.1216  -4.1154
    -4.1151  -4.0979  -4.0649  -4.0622  -4.0246  -4.0242  -4.0234  -4.0231
    -4.0210  -4.0151  -3.9840  -3.9824  -3.9300  -3.9268  -3.8978  -3.8739
    -3.8647  -3.8568  -3.8559  -3.8288  -3.8281  -3.8229  -3.7679  -3.7669
    -3.7614  -3.7608  -3.6841  -3.6800  -3.6626  -3.6595  -3.6247  -3.6185
    -3.6084  -3.5868  -3.5844  -3.5443  -3.5384  -3.5353  -3.5324  -3.5135
    -3.5101  -3.5069  -3.4293  -3.4264  -3.4255  -3.4174  -3.4036  -3.3964
    -3.3794  -3.3788  -3.3781  -3.3754  -3.3288  -3.3276  -3.3151  -3.3135
    -3.2770  -3.2759  -3.2335  -3.2318  -3.2309  -3.1726  -3.1720  -3.1366
    -3.1205  -3.1193  -3.1109  -3.1106  -3.1080  -3.1074  -3.0902  -3.0786
    -3.0394  -3.0387  -3.0167  -2.9854  -2.9847  -2.9837  -2.9828  -2.9823
    -2.9788  -2.9788  -2.9355  -2.9353  -2.9339  -2.9329  -2.9271  -2.9265
    -2.8689  -2.8646  -2.8616  -2.8607  -2.8461  -2.8452  -2.8262  -2.7416
    -2.7412  -2.7402  -2.7182  -2.7175  -2.7172  -2.7136  -2.7123  -2.7071
    -2.7067  -2.6936  -2.6907  -2.6884  -2.6882  -2.6846  -2.6705  -2.6672
    -2.6667  -2.6335  -2.6285  -2.6273  -2.6147  -2.6144  -2.6007  -2.5998
    -2.5889  -2.5888  -2.5708  -2.5640  -2.5623  -2.5568  -2.5552  -2.5208
    -2.5198  -2.5133  -2.4576  -2.4538  -2.4355  -2.4348  -2.4323  -2.4281
    -2.4017  -2.3963  -2.3956  -2.3852  -2.3829  -2.3720  -2.3688  -2.3506
    -2.3491  -2.3282  -2.3272  -2.3182  -2.3175  -2.3053  -2.3048  -2.2937
    -2.2780  -2.2646  -2.1859  -2.1827  -2.1732  -2.1723  -2.1675  -2.1638
    -2.1096  -2.1035  -2.0889  -2.0817  -2.0572  -2.0555  -2.0478  -2.0328
    -2.0312  -2.0182  -1.9892  -1.9752  -1.9702  -1.9670  -1.9597  -1.9587
    -1.9582  -1.9569  -1.9348  -1.9221  -1.9191  -1.9144  -1.9132  -1.9127
    -1.9081  -1.9079  -1.9063  -1.8792  -1.8719  -1.8687  -1.8661  -1.8627
    -1.8620  -1.8526  -1.8517  -1.8504  -1.8486  -1.8194  -1.8122  -1.7567
    -1.7370  -1.7338  -1.7251  -1.7099  -1.6966  -1.6948  -1.6785  -1.6767
    -1.6718  -1.6672  -1.6644  -1.6629  -1.6624  -1.6343  -1.6327  -1.5979
    -1.5961  -1.5841  -1.5636  -1.5587  -1.5373  -1.5174  -1.4972  -1.4626
    -1.4537  -1.4393  -1.4278  -1.4212  -1.4160  -1.4086  -1.4046  -1.3942
    -1.3930  -1.3914  -1.3908  -1.3888  -1.3882  -1.3863  -1.3849  -1.3671
    -1.3622  -1.3460  -1.3242  -1.3230  -1.3194  -1.3061  -1.3058  -1.3004
    -1.2974  -1.2954  -1.2707  -1.2548  -1.2450  -1.2297  -1.2267  -1.2100
    -1.2001  -1.1967  -1.1893  -1.1646  -1.1632  -1.1615  -1.1463  -1.1202
    -1.1162  -1.1105  -1.1094  -1.1086  -1.0996  -1.0774  -1.0763  -1.0679
    -1.0634  -1.0621  -1.0495  -1.0485  -1.0478  -1.0403  -1.0354  -1.0212
    -1.0200  -1.0175  -1.0168  -1.0104  -1.0052  -0.9944  -0.9893  -0.9502
    -0.9486  -0.9450  -0.9436  -0.9412  -0.9400  -0.9130  -0.9024  -0.9006
    -0.8778  -0.8734  -0.8715  -0.8660  -0.8596  -0.8555  -0.8528  -0.8175
    -0.8159  -0.8075  -0.8063  -0.7838  -0.7832  -0.7707  -0.7437  -0.7354
    -0.7222  -0.7207  -0.6809  -0.6793  -0.6790  -0.6788  -0.6753  -0.6727
    -0.6692  -0.6670  -0.6665  -0.6624  -0.6306  -0.6300  -0.6280  -0.6275
    -0.6256  -0.6145  -0.6130  -0.6060  -0.5850  -0.3329  -0.3219  -0.2683
    -0.2584  -0.2423  -0.1872  -0.0327  -0.0316   0.0133   0.2867   0.2895
     0.6367   0.6416   0.6655   0.6665   0.7165   0.7198   0.8905   0.8952
     1.0028   1.0055   1.1366   1.6244   1.6529   1.6574   1.6968   1.6977
     1.8494   1.8545   1.9109   1.9145   2.0748   2.0761   2.3729   2.4011
     2.4050   2.4073   2.8560   2.8613   2.8644   2.8654   2.8820   2.8830
     2.9446   2.9449   3.1145   3.2407   3.2431   3.4260   3.4280   3.5202
     3.6102   3.6120   3.9086   3.9108   3.9504   3.9538   3.9581   4.0921
     4.0977   4.1189   4.1421   4.3940   4.3956   4.4302   4.4327   4.5577
     4.5628   4.6219   4.6287   4.8967   5.4595   5.4978   5.5009   5.5917
     5.6569   5.7123   5.7175   5.7738   5.7761   5.7926   5.7936   5.8663
     5.9213   5.9651   6.1456   6.1630   6.1921   6.2072   6.2107   6.2117
     6.2224   6.2393   6.3226   6.3819   6.4032   6.4816   6.5217   6.5521

          k =-0.2500-0.2500 0.0833 (167653 PWs)   bands (ev):

   -19.3103  -7.1515  -6.8466  -6.3186  -6.3172  -5.8796  -5.4832  -5.3778
    -5.3774  -5.1548  -5.1546  -5.0667  -5.0648  -4.9297  -4.9151  -4.8075
    -4.7178  -4.7137  -4.6960  -4.6951  -4.5103  -4.5096  -4.5094  -4.4833
    -4.4801  -4.4800  -4.4752  -4.4300  -4.4285  -4.4198  -4.4196  -4.3523
    -4.3271  -4.3269  -4.2683  -4.2665  -4.2655  -4.2285  -4.2278  -4.2142
    -4.2100  -4.1923  -4.1920  -4.1573  -4.1246  -4.1219  -4.1216  -4.1154
    -4.1151  -4.0979  -4.0649  -4.0622  -4.0246  -4.0242  -4.0234  -4.0231
    -4.0210  -4.0151  -3.9840  -3.9824  -3.9300  -3.9268  -3.8978  -3.8739
    -3.8647  -3.8568  -3.8560  -3.8288  -3.8282  -3.8229  -3.7679  -3.7669
    -3.7614  -3.7608  -3.6841  -3.6800  -3.6626  -3.6595  -3.6247  -3.6185
    -3.6084  -3.5868  -3.5844  -3.5443  -3.5384  -3.5353  -3.5324  -3.5135
    -3.5101  -3.5069  -3.4293  -3.4264  -3.4255  -3.4174  -3.4036  -3.3964
    -3.3795  -3.3788  -3.3781  -3.3754  -3.3288  -3.3276  -3.3151  -3.3135
    -3.2770  -3.2759  -3.2334  -3.2318  -3.2309  -3.1727  -3.1720  -3.1366
    -3.1205  -3.1193  -3.1109  -3.1106  -3.1080  -3.1074  -3.0902  -3.0786
    -3.0395  -3.0387  -3.0167  -2.9854  -2.9847  -2.9837  -2.9828  -2.9823
    -2.9788  -2.9788  -2.9355  -2.9354  -2.9339  -2.9329  -2.9271  -2.9265
    -2.8689  -2.8646  -2.8616  -2.8607  -2.8461  -2.8452  -2.8262  -2.7416
    -2.7412  -2.7402  -2.7183  -2.7175  -2.7172  -2.7136  -2.7123  -2.7071
    -2.7067  -2.6936  -2.6907  -2.6884  -2.6882  -2.6846  -2.6705  -2.6672
    -2.6667  -2.6335  -2.6285  -2.6273  -2.6147  -2.6144  -2.6007  -2.5998
    -2.5889  -2.5888  -2.5708  -2.5640  -2.5623  -2.5568  -2.5552  -2.5208
    -2.5198  -2.5133  -2.4576  -2.4538  -2.4355  -2.4348  -2.4323  -2.4281
    -2.4017  -2.3963  -2.3956  -2.3852  -2.3829  -2.3720  -2.3688  -2.3506
    -2.3491  -2.3282  -2.3272  -2.3182  -2.3175  -2.3052  -2.3048  -2.2937
    -2.2780  -2.2646  -2.1859  -2.1827  -2.1732  -2.1723  -2.1675  -2.1638
    -2.1096  -2.1036  -2.0889  -2.0817  -2.0572  -2.0555  -2.0478  -2.0328
    -2.0312  -2.0182  -1.9891  -1.9752  -1.9702  -1.9670  -1.9597  -1.9587
    -1.9582  -1.9569  -1.9348  -1.9221  -1.9191  -1.9144  -1.9132  -1.9127
    -1.9081  -1.9079  -1.9063  -1.8792  -1.8719  -1.8687  -1.8661  -1.8627
    -1.8620  -1.8526  -1.8517  -1.8504  -1.8486  -1.8194  -1.8122  -1.7567
    -1.7370  -1.7338  -1.7251  -1.7099  -1.6966  -1.6948  -1.6785  -1.6767
    -1.6718  -1.6672  -1.6644  -1.6629  -1.6624  -1.6343  -1.6327  -1.5979
    -1.5961  -1.5841  -1.5636  -1.5587  -1.5373  -1.5174  -1.4972  -1.4626
    -1.4537  -1.4393  -1.4278  -1.4212  -1.4160  -1.4086  -1.4046  -1.3942
    -1.3930  -1.3914  -1.3908  -1.3888  -1.3882  -1.3863  -1.3849  -1.3671
    -1.3622  -1.3461  -1.3242  -1.3230  -1.3194  -1.3061  -1.3058  -1.3004
    -1.2974  -1.2954  -1.2707  -1.2548  -1.2450  -1.2297  -1.2267  -1.2100
    -1.2001  -1.1967  -1.1893  -1.1646  -1.1632  -1.1615  -1.1463  -1.1202
    -1.1162  -1.1105  -1.1094  -1.1086  -1.0996  -1.0774  -1.0763  -1.0680
    -1.0634  -1.0621  -1.0495  -1.0485  -1.0478  -1.0403  -1.0354  -1.0212
    -1.0200  -1.0175  -1.0168  -1.0104  -1.0052  -0.9944  -0.9893  -0.9502
[...]
    -2.3686  -2.3652  -2.3614  -2.3573  -2.3409  -2.3374  -2.3221  -2.3207
    -2.3130  -2.3112  -2.2548  -2.2526  -2.2428  -2.1505  -2.1489  -2.1353
    -2.1228  -2.1151  -2.1050  -2.1006  -2.0985  -2.0948  -2.0915  -2.0336
    -2.0320  -2.0280  -2.0262  -2.0251  -2.0218  -2.0085  -2.0034  -1.9944
    -1.9871  -1.9801  -1.9723  -1.9688  -1.9661  -1.9396  -1.9255  -1.9078
    -1.9024  -1.8977  -1.8945  -1.8900  -1.8693  -1.8661  -1.8522  -1.8494
    -1.8225  -1.8061  -1.7997  -1.7309  -1.7233  -1.7218  -1.7196  -1.6964
    -1.6920  -1.6686  -1.6671  -1.6650  -1.6583  -1.6364  -1.6252  -1.6238
    -1.6227  -1.6205  -1.6158  -1.6135  -1.6110  -1.5072  -1.5031  -1.4691
    -1.4621  -1.4591  -1.4556  -1.4476  -1.4391  -1.4369  -1.4280  -1.4249
    -1.4223  -1.4198  -1.4176  -1.4169  -1.4110  -1.4048  -1.4019  -1.3988
    -1.3942  -1.3779  -1.3709  -1.3505  -1.3331  -1.3322  -1.3243  -1.3189
    -1.3039  -1.3012  -1.2951  -1.2910  -1.2866  -1.2375  -1.2346  -1.2237
    -1.2179  -1.2139  -1.1944  -1.1812  -1.1495  -1.1362  -1.1330  -1.1132
    -1.1108  -1.1004  -1.0976  -1.0950  -1.0928  -1.0918  -1.0821  -1.0726
    -1.0687  -1.0628  -1.0536  -1.0498  -1.0401  -1.0391  -1.0355  -1.0231
    -1.0165  -1.0092  -0.9945  -0.9914  -0.9870  -0.9470  -0.9456  -0.9439
    -0.9425  -0.9395  -0.9367  -0.9342  -0.9332  -0.9302  -0.9037  -0.8887
    -0.8621  -0.8599  -0.8269  -0.8217  -0.8208  -0.8170  -0.8095  -0.8034
    -0.7609  -0.7592  -0.7464  -0.7450  -0.7296  -0.7272  -0.7194  -0.7160
    -0.7024  -0.6998  -0.6541  -0.6528  -0.6466  -0.6204  -0.6158  -0.5726
    -0.5717  -0.5663  -0.5546  -0.5503  -0.5478  -0.5463  -0.5449  -0.5431
    -0.5317  -0.5264  -0.5151  -0.5148  -0.5121  -0.3668  -0.3632  -0.2905
    -0.2880  -0.1607  -0.1491  -0.0845  -0.0819   0.1298   0.4173   0.4222
     0.5848   0.5888   0.7590   0.7642   0.8438   0.8542   0.8981   0.8991
     1.0664   1.0805   1.3814   1.5884   1.5923   1.6056   1.6067   1.7174
     2.1318   2.1596   2.1870   2.1917   2.1994   2.2061   2.2625   2.6103
     2.6235   2.7018   2.7887   2.7930   2.7977   2.7982   2.9217   2.9226
     3.2317   3.2509   3.4239   3.5245   3.5524   3.5618   3.5737   3.5824
     3.8616   3.8697   3.8955   3.8986   4.0908   4.0986   4.1333   4.2825
     4.2997   4.3036   4.3103   4.4145   4.4548   4.4661   4.4701   4.7436
     4.7474   4.8438   4.8604   5.1892   5.5074   5.5249   5.6495   5.7083
     5.7156   5.8297   5.8510   5.8545   5.8575   5.8741   5.9561   5.9781
     5.9898   6.1864   6.2890   6.3004   6.3044   6.3628   6.3851   6.4591
     6.5115   6.5434   6.5519   6.5716   6.5960   6.6369   6.6466   6.7134

          k =-0.2500 0.2500 0.2500 (167588 PWs)   bands (ev):

   -19.1086  -7.2668  -6.9594  -6.7314  -6.7290  -6.2858  -5.7854  -5.7847
    -5.7491  -5.5486  -5.5455  -5.3526  -5.3524  -5.2869  -5.2410  -5.1552
    -5.0728  -5.0700  -5.0304  -5.0276  -4.8785  -4.8761  -4.8660  -4.8634
    -4.8405  -4.8388  -4.7785  -4.7586  -4.7577  -4.7399  -4.7389  -4.6916
    -4.6899  -4.6591  -4.6024  -4.6021  -4.5524  -4.5495  -4.5466  -4.5455
    -4.5037  -4.5005  -4.4569  -4.4554  -4.4298  -4.4285  -4.4188  -4.4144
    -4.3815  -4.3751  -4.3575  -4.3549  -4.3521  -4.3487  -4.3459  -4.3424
    -4.3286  -4.3265  -4.2371  -4.2329  -4.1907  -4.1862  -4.1540  -4.1499
    -4.1470  -4.1168  -4.1152  -4.1149  -4.1122  -4.0972  -4.0958  -4.0415
    -4.0403  -4.0265  -3.9819  -3.9798  -3.9595  -3.9531  -3.9358  -3.8899
    -3.8865  -3.8431  -3.8408  -3.8183  -3.8131  -3.7830  -3.7797  -3.7155
    -3.7137  -3.7121  -3.7074  -3.7038  -3.7001  -3.6966  -3.6953  -3.6888
    -3.6845  -3.6552  -3.6518  -3.6202  -3.6175  -3.5520  -3.5448  -3.5423
    -3.5409  -3.5328  -3.5266  -3.4095  -3.4068  -3.3757  -3.3716  -3.3679
    -3.3597  -3.3290  -3.3266  -3.3255  -3.3227  -3.3125  -3.2961  -3.2756
    -3.2717  -3.2699  -3.2629  -3.2370  -3.1783  -3.1762  -3.1757  -3.1694
    -3.1643  -3.1593  -3.1572  -3.1315  -3.1288  -3.1264  -3.1253  -3.1239
    -3.1221  -3.1199  -3.0788  -3.0747  -3.0569  -3.0464  -3.0065  -2.9727
    -2.9467  -2.9296  -2.9285  -2.9121  -2.9093  -2.9031  -2.8659  -2.8609
    -2.8448  -2.8425  -2.8407  -2.8387  -2.8373  -2.8362  -2.8342  -2.8305
    -2.8004  -2.7975  -2.7804  -2.7765  -2.7734  -2.7715  -2.7585  -2.7527
    -2.7509  -2.7496  -2.7462  -2.7429  -2.7025  -2.7002  -2.6730  -2.6609
    -2.6591  -2.6472  -2.6449  -2.6087  -2.5722  -2.5655  -2.5466  -2.5433
    -2.5414  -2.5295  -2.5271  -2.4397  -2.4387  -2.4357  -2.4135  -2.4080
    -2.4036  -2.4002  -2.3997  -2.3895  -2.3840  -2.3826  -2.3820  -2.3794
    -2.3686  -2.3652  -2.3614  -2.3573  -2.3409  -2.3374  -2.3221  -2.3207
    -2.3129  -2.3112  -2.2548  -2.2526  -2.2428  -2.1505  -2.1489  -2.1353
    -2.1228  -2.1151  -2.1050  -2.1006  -2.0985  -2.0947  -2.0915  -2.0336
    -2.0320  -2.0280  -2.0262  -2.0251  -2.0218  -2.0085  -2.0034  -1.9944
    -1.9871  -1.9801  -1.9723  -1.9688  -1.9661  -1.9396  -1.9255  -1.9078
    -1.9024  -1.8977  -1.8945  -1.8900  -1.8693  -1.8661  -1.8522  -1.8494
    -1.8225  -1.8061  -1.7997  -1.7309  -1.7233  -1.7218  -1.7196  -1.6964
    -1.6920  -1.6686  -1.6671  -1.6650  -1.6583  -1.6364  -1.6252  -1.6238
    -1.6227  -1.6205  -1.6158  -1.6135  -1.6110  -1.5072  -1.5031  -1.4691
    -1.4621  -1.4591  -1.4556  -1.4476  -1.4391  -1.4369  -1.4280  -1.4249
    -1.4223  -1.4198  -1.4176  -1.4169  -1.4110  -1.4048  -1.4019  -1.3988
    -1.3942  -1.3779  -1.3709  -1.3505  -1.3331  -1.3322  -1.3243  -1.3189
    -1.3039  -1.3012  -1.2951  -1.2910  -1.2866  -1.2375  -1.2346  -1.2237
    -1.2179  -1.2139  -1.1944  -1.1812  -1.1495  -1.1362  -1.1330  -1.1132
    -1.1108  -1.1004  -1.0976  -1.0950  -1.0928  -1.0918  -1.0821  -1.0726
    -1.0687  -1.0628  -1.0536  -1.0498  -1.0401  -1.0391  -1.0355  -1.0230
    -1.0165  -1.0092  -0.9945  -0.9914  -0.9870  -0.9470  -0.9456  -0.9439
    -0.9425  -0.9395  -0.9367  -0.9342  -0.9332  -0.9302  -0.9037  -0.8887
    -0.8621  -0.8599  -0.8269  -0.8217  -0.8208  -0.8170  -0.8095  -0.8034
    -0.7609  -0.7592  -0.7464  -0.7450  -0.7296  -0.7272  -0.7194  -0.7160
    -0.7024  -0.6997  -0.6541  -0.6528  -0.6466  -0.6204  -0.6158  -0.5726
    -0.5717  -0.5663  -0.5546  -0.5503  -0.5478  -0.5463  -0.5449  -0.5431
    -0.5317  -0.5264  -0.5151  -0.5148  -0.5122  -0.3668  -0.3632  -0.2905
    -0.2880  -0.1607  -0.1491  -0.0845  -0.0818   0.1298   0.4173   0.4222
     0.5848   0.5888   0.7590   0.7642   0.8438   0.8542   0.8981   0.8991
     1.0664   1.0805   1.3814   1.5884   1.5924   1.6056   1.6067   1.7174
     2.1318   2.1596   2.1870   2.1917   2.1994   2.2061   2.2625   2.6103
     2.6235   2.7018   2.7887   2.7930   2.7977   2.7982   2.9217   2.9226
     3.2317   3.2509   3.4239   3.5245   3.5525   3.5618   3.5737   3.5824
     3.8616   3.8697   3.8955   3.8986   4.0908   4.0986   4.1333   4.2825
     4.2997   4.3036   4.3103   4.4146   4.4549   4.4661   4.4701   4.7436
     4.7474   4.8438   4.8604   5.1893   5.5072   5.5248   5.6360   5.7077
     5.7130   5.8237   5.8438   5.8544   5.8545   5.8738   5.9780   5.9895
     6.0149   6.2102   6.2309   6.3003   6.3044   6.3618   6.3952   6.5098
     6.5343   6.5485   6.5705   6.5770   6.6293   6.6436   6.6720   6.7133

     the Fermi energy is     1.0232 ev

!    total energy              =   -7380.11208931 Ry
     Harris-Foulkes estimate   =   -7380.11208931 Ry
     estimated scf accuracy    <          7.1E-11 Ry

     The total energy is the sum of the following terms:

     one-electron contribution =  -51609.99726601 Ry
     hartree contribution      =   26352.17611628 Ry
     xc contribution           =   -3558.41028830 Ry
     ewald contribution        =   21436.11705785 Ry
     smearing contrib. (-TS)   =       0.00229087 Ry

     convergence has been achieved in  15 iterations

     negative rho (up, down):  1.964E+00 0.000E+00

     Forces acting on atoms (Ry/au):

     atom    1 type  3   force =     0.00066882   -0.00017314   -0.00091297
     atom    2 type  2   force =     0.00093123    0.00039074    0.00058154
     atom    3 type  2   force =    -0.00034829    0.00008982   -0.00033145
     atom    4 type  1   force =    -0.00009594   -0.00003824    0.00004862
     atom    5 type  1   force =     0.00013113   -0.00013585    0.00015336
     atom    6 type  1   force =     0.00006815   -0.00004749    0.00010534
     atom    7 type  1   force =    -0.00012600   -0.00002919   -0.00025273
     atom    8 type  1   force =     0.00013469   -0.00003063    0.00022748
     atom    9 type  1   force =    -0.00005998   -0.00012651    0.00018157
     atom   10 type  1   force =    -0.00011225    0.00006827    0.00005233
     atom   11 type  1   force =     0.00017718    0.00018075    0.00023914
     atom   12 type  1   force =     0.00000481   -0.00006967   -0.00001141
     atom   13 type  1   force =    -0.00010289    0.00015256    0.00022172
     atom   14 type  1   force =    -0.00002549   -0.00003362    0.00027861
     atom   15 type  1   force =    -0.00013408    0.00003892    0.00019887
     atom   16 type  1   force =    -0.00010149    0.00005392    0.00010519
     atom   17 type  1   force =    -0.00010271   -0.00001674    0.00005008
     atom   18 type  1   force =     0.00000212   -0.00002408    0.00050805
     atom   19 type  1   force =    -0.00020108   -0.00006680    0.00016369
     atom   20 type  1   force =    -0.00000392   -0.00004596    0.00031927
     atom   21 type  1   force =    -0.00012429   -0.00007820    0.00018760
     atom   22 type  1   force =    -0.00009113   -0.00004978   -0.00015786
     atom   23 type  1   force =    -0.00021388   -0.00006740   -0.00019275
     atom   24 type  1   force =     0.00020779    0.00027170    0.00000070
     atom   25 type  1   force =    -0.00009935   -0.00003673   -0.00015701
     atom   26 type  1   force =    -0.00001491    0.00006840   -0.00024765
     atom   27 type  1   force =    -0.00001993    0.00009937    0.00009993
     atom   28 type  1   force =     0.00000123   -0.00006381   -0.00031216
     atom   29 type  1   force =    -0.00015747    0.00005095   -0.00020655
     atom   30 type  1   force =     0.00011708   -0.00030042   -0.00016523
     atom   31 type  1   force =     0.00003597   -0.00018336   -0.00022155
     atom   32 type  1   force =    -0.00008976   -0.00010682   -0.00029678
     atom   33 type  1   force =    -0.00011329   -0.00009198   -0.00012480
     atom   34 type  1   force =     0.00018076   -0.00005950    0.00003784
     atom   35 type  1   force =    -0.00012174   -0.00005806   -0.00016312
     atom   36 type  1   force =    -0.00012953   -0.00009858    0.00001859
     atom   37 type  1   force =     0.00014972    0.00022120    0.00004405
     atom   38 type  1   force =    -0.00022446    0.00011669   -0.00017643
     atom   39 type  1   force =    -0.00014831   -0.00000878   -0.00002777
     atom   40 type  1   force =    -0.00032624   -0.00038994   -0.00027434
     atom   41 type  1   force =     0.00018508   -0.00020972   -0.00027484
     atom   42 type  1   force =     0.00004094   -0.00011835   -0.00025408
     atom   43 type  1   force =    -0.00026958    0.00026512   -0.00023089
     atom   44 type  1   force =     0.00014719    0.00011636   -0.00018424
     atom   45 type  1   force =     0.00005035    0.00007412   -0.00012264
     atom   46 type  1   force =    -0.00020010   -0.00003042   -0.00020309
     atom   47 type  1   force =     0.00004353   -0.00002147   -0.00014306
     atom   48 type  1   force =    -0.00010815   -0.00009537    0.00006977
     atom   49 type  1   force =     0.00002920    0.00006980    0.00006952
     atom   50 type  1   force =     0.00029844    0.00011360   -0.00012139
     atom   51 type  1   force =    -0.00032338    0.00011446   -0.00017309
     atom   52 type  1   force =     0.00003805    0.00023796   -0.00015980
     atom   53 type  1   force =    -0.00005393   -0.00001454   -0.00011051
     atom   54 type  1   force =    -0.00002742   -0.00010442   -0.00018462
     atom   55 type  1   force =     0.00005859   -0.00025910   -0.00019738
     atom   56 type  1   force =    -0.00009708   -0.00003330   -0.00017414
     atom   57 type  1   force =     0.00004768    0.00008404   -0.00030202
     atom   58 type  1   force =     0.00024984    0.00005853    0.00012480
     atom   59 type  1   force =    -0.00003091    0.00007784    0.00003499
     atom   60 type  1   force =     0.00007007    0.00013228   -0.00001979
     atom   61 type  1   force =     0.00013617    0.00029047    0.00046945
     atom   62 type  1   force =     0.00031866    0.00014271   -0.00022444
     atom   63 type  1   force =    -0.00005115    0.00001358    0.00076627
     atom   64 type  1   force =     0.00011142    0.00027592   -0.00024309
     atom   65 type  1   force =    -0.00016380    0.00000722    0.00003270
     atom   66 type  1   force =     0.00008898    0.00016432   -0.00003215
     atom   67 type  1   force =     0.00007943   -0.00007481    0.00012466
     atom   68 type  1   force =     0.00002817   -0.00014753   -0.00001411
     atom   69 type  1   force =    -0.00011051    0.00017282    0.00039278
     atom   70 type  1   force =    -0.00009261   -0.00012547    0.00070475
     atom   71 type  1   force =     0.00010593   -0.00011393    0.00026072
     atom   72 type  1   force =    -0.00034840   -0.00010023    0.00035457
     atom   73 type  1   force =     0.00013920    0.00003119    0.00008560
     atom   74 type  1   force =     0.00018434   -0.00000897   -0.00006633
     atom   75 type  1   force =    -0.00009653   -0.00035672    0.00035408

     Total force =     0.003131     Total SCF correction =     0.000047

     bfgs converged in  33 scf cycles and  32 bfgs steps
     (criteria: energy <  1.0E-04, force <  1.0E-03)

     End of BFGS Geometry Optimization

     Final energy   =   -7380.1120893054 Ry
Begin final coordinates

ATOMIC_POSITIONS (angstrom)
O        2.236430721   2.170213987   9.190697707
H        1.790487600   1.753179147   8.422909422
H        2.746958854   1.445792253   9.598457557
Au      -0.002637276  -0.000815274   0.206604382
Au       4.247255597  -0.000219773   0.203953804
Au       8.496023710   0.000063183   0.200002967
Au       2.122960452   2.125712107   0.209669311
Au       6.366656178   2.127164512   0.202556400
Au      10.628934438   2.129400092   0.209157107
Au      -0.002152324   4.250494344   0.208369477
Au       4.246200937   4.249249645   0.206276968
Au       8.500042453   4.253439742   0.210840726
Au       2.128335552   6.371829092   0.204837218
Au       6.375485698   6.377272556   0.208105702
Au      10.637386553   6.377897485   0.203966080
Au       0.001423804   8.500220731   0.200641233
Au       4.253960573   8.504396556   0.209210609
Au       8.505336679   8.506909328   0.198428789
Au       2.130575254  10.633767459   0.206272099
Au       6.375935852  10.638133145   0.201020066
Au      10.632879569  10.633485341   0.196800438
Au       2.123266039  -0.002711083   2.181286843
Au       6.373013645  -0.000217384   2.181780970
Au      10.624952827  -0.007091192   2.169621530
Au      -0.006047183   2.124765241   2.181264027
Au       4.246164557   2.124517717   2.186954415
Au       8.492367956   2.123182849   2.178089649
Au       2.123173088   4.251190891   2.188502228
Au       6.370555885   4.249860697   2.186626706
Au      10.632536280   4.255327815   2.181391849
Au      -0.001242468   6.377938822   2.182679492
Au       4.250743683   6.374932730   2.187736851
Au       8.506400462   6.382679505   2.178339660
Au       2.124406919   8.500433573   2.177830874
Au       6.381253797   8.509034431   2.178683131
Au      10.635201277   8.506999051   2.172704367
Au      -0.006147490  10.629165959   2.169261211
Au       4.254180660  10.637324773   2.181309058
Au       8.504213462  10.635420496   2.172893118
Au      -0.012044528  -0.009344607   4.187813679
Au       4.240507060  -0.000377316   4.209483515
Au       8.499436200  -0.002994593   4.196011615
Au      -0.005450485   4.244775810   4.206524601
Au       4.243289693   4.245084393   4.218640708
Au       8.501492923   4.249446879   4.195449763
Au      -0.002087112   8.508152180   4.195450055
Au       4.250471085   8.510219317   4.197624968
Au       8.508318768   8.511087866   4.195869689
Au       2.118722688   2.122035113   4.208887454
Au       6.361619379   2.121869721   4.211416196
Au      10.626657564   2.118127514   4.190045397
Au       2.122752459   6.374059135   4.208067370
Au       6.377640137   6.380227864   4.200653153
Au      10.634293866   6.379572185   4.197738086
Au       2.118773201  10.634963533   4.192581910
Au       6.375374836  10.637908380   4.199614926
Au      10.631234985  10.633598489   4.192216289
Au       2.099248945  -0.014476626   6.180748667
Au       6.372784457  -0.008199451   6.178914266
Au      10.626563581  -0.010882274   6.172153552
Au      -0.021360663   2.103144229   6.170979379
Au       4.237441260   2.113940966   6.197606019
Au       8.502724799   2.120306577   6.165236176
Au       2.110317612   4.251013402   6.185156494
Au       6.380624093   4.252704352   6.174206206
Au      10.627590676   4.243611660   6.167445509
Au      -0.010588072   6.381758981   6.171475607
Au       4.251961021   6.387106118   6.173446689
Au       8.508697357   6.380257515   6.165084311
Au       2.122198492   8.513046881   6.167186609
Au       6.379418744   8.512859509   6.168394900
Au      10.637739464   8.510169815   6.167879233
Au      -0.011864853  10.633634031   6.173363960
Au       4.240837470  10.637062184   6.175456049
Au       8.505764981  10.639514935   6.169793342
End final coordinates



     Writing output data file 987643.save
 
     init_run     :     46.07s CPU     47.57s WALL (       1 calls)
     electrons    :  65910.97s CPU  73409.82s WALL (      33 calls)
     update_pot   :     86.16s CPU     93.00s WALL (      32 calls)
     forces       :    814.19s CPU   2736.29s WALL (      33 calls)

     Called by init_run:
     wfcinit      :     38.38s CPU     38.84s WALL (       1 calls)
     potinit      :      1.40s CPU      1.45s WALL (       1 calls)

     Called by electrons:
     c_bands      :  54145.05s CPU  60757.15s WALL (     591 calls)
     sum_band     :   9554.17s CPU   9968.29s WALL (     591 calls)
     v_of_rho     :    542.01s CPU    564.80s WALL (     600 calls)
     newd         :   1270.85s CPU   1682.53s WALL (     600 calls)
     mix_rho      :    118.90s CPU    122.84s WALL (     591 calls)

     Called by c_bands:
     init_us_2    :    154.96s CPU    157.87s WALL (    1183 calls)
     cegterg      :  48709.38s CPU  55268.40s WALL (     591 calls)

     Called by sum_band:
     sum_band:bec :      3.70s CPU      3.72s WALL (     591 calls)
     addusdens    :   1658.83s CPU   2059.83s WALL (     591 calls)

     Called by *egterg:
     h_psi        :  24165.89s CPU  28600.98s WALL (    2141 calls)
     s_psi        :   4782.56s CPU   4785.61s WALL (    2141 calls)
     g_psi        :     55.25s CPU     55.31s WALL (    1549 calls)
     cdiaghg      :   5062.81s CPU   5069.12s WALL (    2084 calls)

     Called by h_psi:
     add_vuspsi   :   4762.11s CPU   4765.48s WALL (    2141 calls)

     General routines
     calbec       :   7182.36s CPU   7313.66s WALL (    2864 calls)
     fft          :    545.66s CPU    555.08s WALL (    9959 calls)
     ffts         :     19.35s CPU     19.56s WALL (    1191 calls)
     fftw         :  12799.46s CPU  17095.01s WALL ( 1585232 calls)
     interpolate  :     92.53s CPU     93.75s WALL (    1191 calls)
     davcio       :      0.02s CPU      3.21s WALL (      33 calls)
 
     Parallel routines
     fft_scatter  :   4022.22s CPU   8307.88s WALL ( 1596382 calls)
 
     PWSCF        :    18h36m CPU       21h16m WALL

 
   This run was terminated on:  16: 2:13  26Jan2017            

=------------------------------------------------------------------------------=
   JOB DONE.
=------------------------------------------------------------------------------=
