
     Program PWSCF v.5.1.2 starts on 11Aug2015 at 15:18:15 

     This program is part of the open-source Quantum ESPRESSO suite
     for quantum simulation of materials; please cite
         "P. Giannozzi et al., J. Phys.:Condens. Matter 21 395502 (2009);
          URL http://www.quantum-espresso.org", 
     in publications or presentations arising from this work. More details at
     http://www.quantum-espresso.org/quote

     Parallel version (MPI), running on    32 processors
     R & G space division:  proc/nbgrp/npool/nimage =      32
     Waiting for input...
     Reading input from standard input
Warning: card &IONS ignored
Warning: card / ignored
Warning: card &CELL ignored
Warning: card / ignored

     Current dimensions of program PWSCF are:
     Max number of different atomic species (ntypx) = 10
     Max number of k-points (npk) =  40000
     Max angular momentum in pseudopotentials (lmaxx) =  3

     Subspace diagonalization in iterative solution of the eigenvalue problem:
     a serial algorithm will be used


     Parallelization info
     --------------------
     sticks:   dense  smooth     PW     G-vecs:    dense   smooth      PW
     Min         445     223     58                96775    34191    4534
     Max         446     224     59                96790    34246    4540
     Sum       14269    7147   1867              3097177  1095093  145167


     Title: 
     GOLD                                                                       


     bravais-lattice index     =            4
     lattice parameter (alat)  =      22.7436  a.u.
     unit-cell volume          =   22924.1508 (a.u.)^3
     number of atoms/cell      =           64
     number of atomic types    =            1
     number of electrons       =       704.00
     number of Kohn-Sham states=          422
     kinetic-energy cutoff     =      50.0000  Ry
     charge density cutoff     =     400.0000  Ry
     convergence threshold     =      1.0E-08
     mixing beta               =       0.7000
     number of iterations used =            8  plain     mixing
     Exchange-correlation      =  SLA  PW   PBE  PBE ( 1  4  3  4 0 0)

     celldm(1)=  22.743643  celldm(2)=   0.000000  celldm(3)=   2.250000
     celldm(4)=   0.000000  celldm(5)=   0.000000  celldm(6)=   0.000000

     crystal axes: (cart. coord. in units of alat)
               a(1) = (   1.000000   0.000000   0.000000 )  
               a(2) = (  -0.500000   0.866025   0.000000 )  
               a(3) = (   0.000000   0.000000   2.250000 )  

     reciprocal axes: (cart. coord. in units 2 pi/alat)
               b(1) = (  1.000000  0.577350 -0.000000 )  
               b(2) = (  0.000000  1.154701  0.000000 )  
               b(3) = (  0.000000 -0.000000  0.444444 )  


     PseudoPot. # 1 for Au read from file:
     /home/scc/andrejb/qe/pseudo/Au.pbe-nd-van.UPF
     MD5 check sum: 458681b50f36d87ef23c61b04bba420a
     Pseudo is Ultrasoft + core correction, Zval = 11.0
     Generated by new atomic code, or converted to UPF format
     Using radial grid of  985 points,  3 beta functions with: 
                l(1) =   1
                l(2) =   2
                l(3) =   2
     Q(r) pseudized with  8 coefficients,  rinner =    1.100   1.100   1.100
                                                       1.100   1.100

     atomic species   valence    mass     pseudopotential
        Au            11.00   196.96657     Au( 1.00)

     No symmetry found
          (note:  1 additional sym.ops. were found but ignored
           their fractional translations are incommensurate with FFT grid)


   Cartesian axes

     site n.     atom                  positions (alat units)
         1           Au  tau(   1) = (   0.3540481   0.6132292   0.0000000  )
         2           Au  tau(   2) = (   0.4790062   0.3967954   0.0000000  )
         3           Au  tau(   3) = (   0.6039644   0.1803616   0.0000000  )
         4           Au  tau(   4) = (   0.7289225  -0.0360723   0.0000000  )
         5           Au  tau(   5) = (   0.1041318   0.6132292   0.0000000  )
         6           Au  tau(   6) = (   0.2290899   0.3967954   0.0000000  )
         7           Au  tau(   7) = (   0.3540481   0.1803616   0.0000000  )
         8           Au  tau(   8) = (   0.4790062  -0.0360723   0.0000000  )
         9           Au  tau(   9) = (  -0.1457845   0.6132292   0.0000000  )
        10           Au  tau(  10) = (  -0.0208264   0.3967954   0.0000000  )
        11           Au  tau(  11) = (   0.1041318   0.1803616   0.0000000  )
        12           Au  tau(  12) = (   0.2290899  -0.0360723   0.0000000  )
        13           Au  tau(  13) = (  -0.3957008   0.6132292   0.0000000  )
        14           Au  tau(  14) = (  -0.2707426   0.3967954   0.0000000  )
        15           Au  tau(  15) = (  -0.1457845   0.1803616   0.0000000  )
        16           Au  tau(  16) = (  -0.0208264  -0.0360723   0.0000000  )
        17           Au  tau(  17) = (   0.4790062   0.6853738   0.2040557  )
        18           Au  tau(  18) = (   0.6039644   0.4689400   0.2040557  )
        19           Au  tau(  19) = (   0.7289225   0.2525062   0.2040557  )
        20           Au  tau(  20) = (   0.8538806   0.0360723   0.2040557  )
        21           Au  tau(  21) = (   0.2290899   0.6853738   0.2040557  )
        22           Au  tau(  22) = (   0.3540481   0.4689400   0.2040557  )
        23           Au  tau(  23) = (   0.4790062   0.2525062   0.2040557  )
        24           Au  tau(  24) = (   0.6039644   0.0360723   0.2040557  )
        25           Au  tau(  25) = (  -0.0208264   0.6853738   0.2040557  )
        26           Au  tau(  26) = (   0.1041318   0.4689400   0.2040557  )
        27           Au  tau(  27) = (   0.2290899   0.2525062   0.2040557  )
        28           Au  tau(  28) = (   0.3540481   0.0360723   0.2040557  )
        29           Au  tau(  29) = (  -0.2707426   0.6853738   0.2040557  )
        30           Au  tau(  30) = (  -0.1457845   0.4689400   0.2040557  )
        31           Au  tau(  31) = (  -0.0208264   0.2525062   0.2040557  )
        32           Au  tau(  32) = (   0.1041318   0.0360723   0.2040557  )
        33           Au  tau(  33) = (   0.3540481   0.7575185   0.4081116  )
        34           Au  tau(  34) = (   0.4790062   0.5410847   0.4081116  )
        35           Au  tau(  35) = (   0.6039644   0.3246507   0.4081116  )
        36           Au  tau(  36) = (   0.7289225   0.1082169   0.4081116  )
        37           Au  tau(  37) = (   0.1041318   0.7575185   0.4081116  )
        38           Au  tau(  38) = (   0.2290899   0.5410847   0.4081116  )
        39           Au  tau(  39) = (   0.3540481   0.3246507   0.4081116  )
        40           Au  tau(  40) = (   0.4790062   0.1082169   0.4081116  )
        41           Au  tau(  41) = (  -0.1457845   0.7575185   0.4081116  )
        42           Au  tau(  42) = (  -0.0208264   0.5410847   0.4081116  )
        43           Au  tau(  43) = (   0.1041318   0.3246507   0.4081116  )
        44           Au  tau(  44) = (   0.2290899   0.1082169   0.4081116  )
        45           Au  tau(  45) = (  -0.3957008   0.7575185   0.4081116  )
        46           Au  tau(  46) = (  -0.2707426   0.5410847   0.4081116  )
        47           Au  tau(  47) = (  -0.1457845   0.3246507   0.4081116  )
        48           Au  tau(  48) = (  -0.0208264   0.1082169   0.4081116  )
        49           Au  tau(  49) = (   0.3540481   0.6132292   0.6121674  )
        50           Au  tau(  50) = (   0.4790062   0.3967954   0.6121674  )
        51           Au  tau(  51) = (   0.6039644   0.1803616   0.6121674  )
        52           Au  tau(  52) = (   0.7289225  -0.0360723   0.6121674  )
        53           Au  tau(  53) = (   0.1041318   0.6132292   0.6121674  )
        54           Au  tau(  54) = (   0.2290899   0.3967954   0.6121674  )
        55           Au  tau(  55) = (   0.3540481   0.1803616   0.6121674  )
        56           Au  tau(  56) = (   0.4790062  -0.0360723   0.6121674  )
        57           Au  tau(  57) = (  -0.1457845   0.6132292   0.6121674  )
        58           Au  tau(  58) = (  -0.0208264   0.3967954   0.6121674  )
        59           Au  tau(  59) = (   0.1041318   0.1803616   0.6121674  )
        60           Au  tau(  60) = (   0.2290899  -0.0360723   0.6121674  )
        61           Au  tau(  61) = (  -0.3957008   0.6132292   0.6121674  )
        62           Au  tau(  62) = (  -0.2707426   0.3967954   0.6121674  )
        63           Au  tau(  63) = (  -0.1457845   0.1803616   0.6121674  )
        64           Au  tau(  64) = (  -0.0208264  -0.0360723   0.6121674  )

     number of k points=    12  Marzari-Vanderbilt smearing, width (Ry)=  0.0200
                       cart. coord. in units 2pi/alat
        k(    1) = (   0.2500000   0.4330127   0.1111111), wk =   0.1666667
        k(    2) = (   0.2500000  -0.1443376   0.1111111), wk =   0.1666667
        k(    3) = (  -0.2500000  -0.4330127   0.1111111), wk =   0.1666667
        k(    4) = (  -0.2500000   0.4330127  -0.1111111), wk =   0.1666667
        k(    5) = (   0.2500000  -0.4330127  -0.1111111), wk =   0.1666667
        k(    6) = (   0.5000000   0.0000000   0.1111111), wk =   0.1666667
        k(    7) = (  -0.5000000   0.0000000   0.1111111), wk =   0.1666667
        k(    8) = (  -0.2500000   0.1443376   0.1111111), wk =   0.1666667
        k(    9) = (  -0.2500000  -0.1443376  -0.1111111), wk =   0.1666667
        k(   10) = (   0.2500000   0.1443376  -0.1111111), wk =   0.1666667
        k(   11) = (   0.0000000  -0.2886751   0.1111111), wk =   0.1666667
        k(   12) = (   0.0000000   0.2886751   0.1111111), wk =   0.1666667

     Dense  grid:  3097177 G-vectors     FFT dimensions: ( 150, 150, 360)

     Smooth grid:  1095093 G-vectors     FFT dimensions: ( 108, 108, 240)

     Largest allocated arrays     est. size (Mb)     dimensions
        Kohn-Sham Wavefunctions        27.68 Mb     (    4299,  422)
        NL pseudopotentials            54.58 Mb     (    4299,  832)
        Each V/rho on FFT grid          4.12 Mb     (  270000)
        Each G-vector array             0.74 Mb     (   96788)
        G-vector shells                 0.16 Mb     (   21404)
     Largest temporary arrays     est. size (Mb)     dimensions
        Auxiliary wavefunctions       110.73 Mb     (    4299, 1688)
        Each subspace H/S matrix       43.48 Mb     (    1688, 1688)
        Each <psi_i|beta_j> matrix      5.36 Mb     (     832,  422)
        Arrays for rho mixing          32.96 Mb     (  270000,    8)

     Initial potential from superposition of free atoms
     Check: negative starting charge=   -1.727440

     starting charge  703.25684, renormalised to  704.00000

     negative rho (up, down):  1.729E+00 0.000E+00
     Starting wfc are  576 randomized atomic wfcs

     total cpu time spent up to now is      132.3 secs

     Self-consistent Calculation

     iteration #  1     ecut=    50.00 Ry     beta=0.70
     Davidson diagonalization with overlap
     ethr =  1.00E-02,  avg # of iterations =  3.0

     Threshold (ethr) on eigenvalues was too large:
     Diagonalizing with lowered threshold

     Davidson diagonalization with overlap
     ethr =  3.70E-04,  avg # of iterations =  3.7

     negative rho (up, down):  1.708E+00 0.000E+00

     total cpu time spent up to now is      662.1 secs

     total energy              =   -6527.94569638 Ry
     Harris-Foulkes estimate   =   -6530.41505577 Ry
     estimated scf accuracy    <       3.15770002 Ry

     iteration #  2     ecut=    50.00 Ry     beta=0.70
     Davidson diagonalization with overlap
     ethr =  4.49E-04,  avg # of iterations = 12.0

     negative rho (up, down):  1.709E+00 0.000E+00

     total cpu time spent up to now is     1454.1 secs

     total energy              =   -6521.33877887 Ry
     Harris-Foulkes estimate   =   -6536.14866967 Ry
     estimated scf accuracy    <      84.45493865 Ry

     iteration #  3     ecut=    50.00 Ry     beta=0.70
     Davidson diagonalization with overlap
     ethr =  4.49E-04,  avg # of iterations =  6.6

     negative rho (up, down):  1.732E+00 0.000E+00

     total cpu time spent up to now is     1962.1 secs

     total energy              =   -6529.37322430 Ry
     Harris-Foulkes estimate   =   -6530.21979805 Ry
     estimated scf accuracy    <       2.95097762 Ry

     iteration #  4     ecut=    50.00 Ry     beta=0.70
     Davidson diagonalization with overlap
     ethr =  4.19E-04,  avg # of iterations =  2.2

     negative rho (up, down):  1.742E+00 0.000E+00

     total cpu time spent up to now is     2189.6 secs

     total energy              =   -6529.71588930 Ry
     Harris-Foulkes estimate   =   -6529.78320712 Ry
     estimated scf accuracy    <       0.15925066 Ry

     iteration #  5     ecut=    50.00 Ry     beta=0.70
     Davidson diagonalization with overlap
     ethr =  2.26E-05,  avg # of iterations =  4.5

     negative rho (up, down):  1.749E+00 0.000E+00

     total cpu time spent up to now is     2566.9 secs

     total energy              =   -6529.74963839 Ry
     Harris-Foulkes estimate   =   -6529.75466417 Ry
     estimated scf accuracy    <       0.02049090 Ry

     iteration #  6     ecut=    50.00 Ry     beta=0.70
     Davidson diagonalization with overlap
     ethr =  2.91E-06,  avg # of iterations = 16.0

     negative rho (up, down):  1.749E+00 0.000E+00

     total cpu time spent up to now is     3144.5 secs

     total energy              =   -6529.73935240 Ry
     Harris-Foulkes estimate   =   -6529.76553586 Ry
     estimated scf accuracy    <       0.25911008 Ry

     iteration #  7     ecut=    50.00 Ry     beta=0.70
     Davidson diagonalization with overlap
     ethr =  2.91E-06,  avg # of iterations =  5.8

     negative rho (up, down):  1.749E+00 0.000E+00

     total cpu time spent up to now is     3455.7 secs

     total energy              =   -6529.75112518 Ry
     Harris-Foulkes estimate   =   -6529.75446172 Ry
     estimated scf accuracy    <       0.02209792 Ry

     iteration #  8     ecut=    50.00 Ry     beta=0.70
     Davidson diagonalization with overlap
     ethr =  2.91E-06,  avg # of iterations =  3.2

     negative rho (up, down):  1.749E+00 0.000E+00

     total cpu time spent up to now is     3698.3 secs

     total energy              =   -6529.75271110 Ry
     Harris-Foulkes estimate   =   -6529.75310175 Ry
     estimated scf accuracy    <       0.00175618 Ry

     iteration #  9     ecut=    50.00 Ry     beta=0.70
     Davidson diagonalization with overlap
     ethr =  2.49E-07,  avg # of iterations =  2.0

     negative rho (up, down):  1.749E+00 0.000E+00

     total cpu time spent up to now is     3923.6 secs

     total energy              =   -6529.75284348 Ry
     Harris-Foulkes estimate   =   -6529.75289137 Ry
     estimated scf accuracy    <       0.00018576 Ry

     iteration # 10     ecut=    50.00 Ry     beta=0.70
     Davidson diagonalization with overlap
     ethr =  2.64E-08,  avg # of iterations =  2.5

     negative rho (up, down):  1.749E+00 0.000E+00

     total cpu time spent up to now is     4190.6 secs

     total energy              =   -6529.75286315 Ry
     Harris-Foulkes estimate   =   -6529.75288145 Ry
     estimated scf accuracy    <       0.00004724 Ry

     iteration # 11     ecut=    50.00 Ry     beta=0.70
     Davidson diagonalization with overlap
     ethr =  6.71E-09,  avg # of iterations =  2.0

     negative rho (up, down):  1.749E+00 0.000E+00

     total cpu time spent up to now is     4451.4 secs

     total energy              =   -6529.75287192 Ry
     Harris-Foulkes estimate   =   -6529.75287685 Ry
     estimated scf accuracy    <       0.00001473 Ry

     iteration # 12     ecut=    50.00 Ry     beta=0.70
     Davidson diagonalization with overlap
     ethr =  2.09E-09,  avg # of iterations =  2.3

     negative rho (up, down):  1.749E+00 0.000E+00

     total cpu time spent up to now is     4713.6 secs

     total energy              =   -6529.75287251 Ry
     Harris-Foulkes estimate   =   -6529.75287743 Ry
     estimated scf accuracy    <       0.00001934 Ry

     iteration # 13     ecut=    50.00 Ry     beta=0.70
     Davidson diagonalization with overlap
     ethr =  2.09E-09,  avg # of iterations =  2.0

     negative rho (up, down):  1.749E+00 0.000E+00

     total cpu time spent up to now is     4971.4 secs

     total energy              =   -6529.75287454 Ry
     Harris-Foulkes estimate   =   -6529.75287516 Ry
     estimated scf accuracy    <       0.00000160 Ry

     iteration # 14     ecut=    50.00 Ry     beta=0.70
     Davidson diagonalization with overlap
     ethr =  2.27E-10,  avg # of iterations =  2.7

     negative rho (up, down):  1.749E+00 0.000E+00

     total cpu time spent up to now is     5294.1 secs

     total energy              =   -6529.75287477 Ry
     Harris-Foulkes estimate   =   -6529.75287524 Ry
     estimated scf accuracy    <       0.00000171 Ry

     iteration # 15     ecut=    50.00 Ry     beta=0.70
     Davidson diagonalization with overlap
     ethr =  2.27E-10,  avg # of iterations =  2.0

     negative rho (up, down):  1.749E+00 0.000E+00

     total cpu time spent up to now is     5535.9 secs

     total energy              =   -6529.75287497 Ry
     Harris-Foulkes estimate   =   -6529.75287500 Ry
     estimated scf accuracy    <       0.00000008 Ry

     iteration # 16     ecut=    50.00 Ry     beta=0.70
     Davidson diagonalization with overlap
     ethr =  1.11E-11,  avg # of iterations =  2.0

     negative rho (up, down):  1.749E+00 0.000E+00

     total cpu time spent up to now is     5832.5 secs

     total energy              =   -6529.75287498 Ry
     Harris-Foulkes estimate   =   -6529.75287500 Ry
     estimated scf accuracy    <       0.00000011 Ry

     iteration # 17     ecut=    50.00 Ry     beta=0.70
     Davidson diagonalization with overlap
     ethr =  1.11E-11,  avg # of iterations =  1.5

     negative rho (up, down):  1.749E+00 0.000E+00

     total cpu time spent up to now is     6061.4 secs

     total energy              =   -6529.75287498 Ry
     Harris-Foulkes estimate   =   -6529.75287500 Ry
     estimated scf accuracy    <       0.00000025 Ry

     iteration # 18     ecut=    50.00 Ry     beta=0.70
     Davidson diagonalization with overlap
     ethr =  1.11E-11,  avg # of iterations =  1.0

     negative rho (up, down):  1.749E+00 0.000E+00

     total cpu time spent up to now is     6279.4 secs

     total energy              =   -6529.75287499 Ry
     Harris-Foulkes estimate   =   -6529.75287499 Ry
     estimated scf accuracy    <       0.00000001 Ry

     iteration # 19     ecut=    50.00 Ry     beta=0.70
     Davidson diagonalization with overlap
     ethr =  1.85E-12,  avg # of iterations =  2.0

     negative rho (up, down):  1.749E+00 0.000E+00

     total cpu time spent up to now is     6512.0 secs

     End of self-consistent calculation

          k = 0.2500 0.4330 0.1111 (136853 PWs)   bands (ev):

    -6.4025  -6.0020  -6.0019  -5.3585  -4.9839  -4.9839  -4.9765  -4.9765
    -4.5277  -4.5276  -4.4449  -4.4167  -4.4027  -4.4027  -4.3703  -4.2433
    -4.2432  -4.2001  -4.1815  -4.1815  -4.1563  -4.1563  -4.1132  -4.1132
    -4.0772  -4.0771  -4.0525  -4.0472  -4.0472  -3.9599  -3.9598  -3.9362
    -3.9362  -3.9149  -3.8931  -3.8931  -3.8705  -3.8705  -3.8690  -3.7997
    -3.7997  -3.7427  -3.7427  -3.7318  -3.7318  -3.6716  -3.6716  -3.6240
    -3.6240  -3.5963  -3.5963  -3.5817  -3.5781  -3.5779  -3.5522  -3.5522
    -3.5461  -3.5445  -3.4929  -3.4780  -3.4780  -3.4420  -3.3937  -3.3764
    -3.3763  -3.3418  -3.3418  -3.3206  -3.3206  -3.2608  -3.2504  -3.2276
    -3.2276  -3.1859  -3.1859  -3.1607  -3.1542  -3.1542  -3.0987  -3.0770
    -3.0770  -3.0547  -3.0546  -3.0526  -3.0526  -3.0451  -3.0297  -3.0297
    -2.9854  -2.9012  -2.9012  -2.8979  -2.8975  -2.8975  -2.8965  -2.8886
    -2.8885  -2.7898  -2.7857  -2.7856  -2.7782  -2.7283  -2.7282  -2.7171
    -2.7022  -2.7021  -2.6482  -2.6391  -2.6329  -2.6329  -2.5920  -2.5880
    -2.5879  -2.5541  -2.5540  -2.4929  -2.4688  -2.4687  -2.4645  -2.4645
    -2.4387  -2.4386  -2.4341  -2.4341  -2.4297  -2.4013  -2.3665  -2.3609
    -2.3607  -2.3604  -2.3500  -2.3494  -2.3481  -2.3477  -2.3476  -2.3162
    -2.3161  -2.3071  -2.3070  -2.3037  -2.2897  -2.2870  -2.2870  -2.2650
    -2.2562  -2.2562  -2.2508  -2.2362  -2.2230  -2.2230  -2.1952  -2.1952
    -2.1879  -2.1878  -2.1832  -2.1832  -2.1808  -2.1808  -2.1667  -2.1666
    -2.1622  -2.1494  -2.1494  -2.0634  -2.0634  -2.0473  -2.0473  -2.0420
    -2.0420  -2.0162  -2.0000  -1.9999  -1.9869  -1.9600  -1.9598  -1.9598
    -1.9487  -1.9408  -1.9332  -1.9309  -1.9309  -1.9131  -1.9045  -1.8927
    -1.8495  -1.8319  -1.8319  -1.8165  -1.8057  -1.8057  -1.7513  -1.7513
    -1.7424  -1.7424  -1.6745  -1.6745  -1.6257  -1.6036  -1.6036  -1.5795
    -1.5795  -1.5555  -1.5555  -1.5253  -1.5253  -1.5174  -1.5173  -1.5109
    -1.4637  -1.4637  -1.4590  -1.4590  -1.4578  -1.4578  -1.4289  -1.4289
    -1.4166  -1.3876  -1.3780  -1.3780  -1.3678  -1.3677  -1.3590  -1.3392
    -1.3149  -1.3149  -1.3145  -1.3145  -1.2981  -1.2981  -1.2380  -1.2380
    -1.2335  -1.2182  -1.2105  -1.2105  -1.1746  -1.1212  -1.0751  -1.0751
    -1.0739  -1.0739  -1.0661  -1.0644  -1.0644  -1.0502  -1.0502  -0.9995
    -0.9995  -0.9944  -0.9944  -0.9768  -0.9645  -0.9645  -0.9398  -0.9398
    -0.9395  -0.9391  -0.9391  -0.8959  -0.8959  -0.8886  -0.8811  -0.8811
    -0.8654  -0.8654  -0.8358  -0.8207  -0.8206  -0.8050  -0.7746  -0.7746
    -0.7360  -0.7324  -0.7228  -0.7228  -0.7124  -0.7124  -0.7030  -0.7030
    -0.6992  -0.6992  -0.6732  -0.6732  -0.6555  -0.6555  -0.6511  -0.6375
    -0.6375  -0.6215  -0.6215  -0.5888  -0.5810  -0.5810  -0.5778  -0.5212
    -0.5188  -0.5188  -0.5110  -0.5027  -0.5027  -0.5014  -0.4842  -0.4842
    -0.4700  -0.4700  -0.4695  -0.4695  -0.4265  -0.4250  -0.4250  -0.4173
    -0.4173  -0.4103  -0.4097  -0.4073  -0.3956  -0.3923  -0.3923  -0.3618
    -0.3618  -0.3516  -0.3352  -0.3352  -0.2838  -0.2838  -0.2522  -0.2522
    -0.2447  -0.2447  -0.2110  -0.2037  -0.2037  -0.1823  -0.1821  -0.1818
    -0.1113  -0.1113  -0.0002   0.4116   0.4116   0.4376   0.4376   0.5080
     0.5080   0.8388   0.8388   0.8518   0.8518   1.0356   1.1114   1.2046
     1.2046   1.4545   1.4545   2.0475   2.0475   2.1786   2.1786   2.3785
     2.3785   2.4491   2.4491   2.5381   2.8160   2.8250   2.9929   3.2087
     3.2087   3.2301   3.2301   3.2974   3.4056   3.5770   3.5770   3.6020
     3.8568   3.8568   3.9297   3.9297   4.1744   4.1744   4.1977   4.3980
     4.3980   4.4554   4.5411   4.8389   4.8650   4.8651   5.0681   5.1524
     5.1524   5.2778   5.2778   5.8758   5.9543   5.9543   6.0145   6.0145
     6.0818   6.0999   6.1518   6.1785   6.1786   6.1891   6.2376   6.2376
     6.2592   6.2592   6.3475   6.3477   6.5855   6.8261   6.8931   6.8931
     6.9298   6.9333   6.9490   7.0428   7.1192   7.1192

          k = 0.2500-0.1443 0.1111 (136898 PWs)   bands (ev):

    -6.6126  -5.8175  -5.5623  -5.4632  -5.4631  -4.9053  -4.9053  -4.8270
    -4.7554  -4.6162  -4.5444  -4.5365  -4.5365  -4.4565  -4.3862  -4.3862
    -4.2503  -4.2107  -4.2104  -4.2069  -4.2068  -4.2023  -4.0580  -4.0580
    -3.9899  -3.9734  -3.9719  -3.9719  -3.9482  -3.9482  -3.8978  -3.8296
    -3.8295  -3.8263  -3.8156  -3.8156  -3.8119  -3.7995  -3.7994  -3.7452
    -3.7452  -3.7407  -3.7407  -3.7239  -3.7239  -3.7128  -3.6853  -3.6853
    -3.6757  -3.6757  -3.6400  -3.6400  -3.6190  -3.5652  -3.5652  -3.5136
    -3.5136  -3.4919  -3.4919  -3.4862  -3.3990  -3.3990  -3.3968  -3.3967
    -3.3916  -3.3916  -3.3624  -3.3624  -3.2101  -3.2101  -3.2078  -3.2078
    -3.2025  -3.1504  -3.1504  -3.1383  -3.1383  -3.0874  -3.0874  -3.0744
    -3.0744  -3.0175  -3.0174  -3.0145  -2.9917  -2.9836  -2.9836  -2.9322
    -2.9322  -2.9231  -2.9231  -2.8915  -2.8914  -2.8834  -2.8834  -2.8307
    -2.8306  -2.8266  -2.8266  -2.8001  -2.7651  -2.7651  -2.7439  -2.7237
    -2.7237  -2.6448  -2.6448  -2.6128  -2.6128  -2.6082  -2.5918  -2.5742
    -2.5483  -2.5483  -2.5307  -2.5281  -2.5280  -2.5260  -2.5143  -2.5106
    -2.5106  -2.4960  -2.4960  -2.4900  -2.4900  -2.4258  -2.4085  -2.3900
    -2.3899  -2.3834  -2.3750  -2.3750  -2.3692  -2.3691  -2.3613  -2.3214
    -2.3214  -2.3051  -2.3038  -2.3021  -2.2896  -2.2896  -2.2703  -2.2702
    -2.2614  -2.2517  -2.2516  -2.1924  -2.1766  -2.1696  -2.1640  -2.1640
    -2.1527  -2.1527  -2.1224  -2.1130  -2.1130  -2.1110  -2.1073  -2.1073
    -2.0939  -2.0939  -2.0807  -2.0652  -2.0652  -2.0156  -2.0156  -2.0140
    -2.0088  -2.0088  -1.9975  -1.9908  -1.9908  -1.9879  -1.9876  -1.9678
    -1.9678  -1.9602  -1.8537  -1.8537  -1.8286  -1.8286  -1.8203  -1.7936
    -1.7930  -1.7929  -1.7925  -1.7924  -1.7629  -1.7614  -1.7614  -1.7599
    -1.7599  -1.7369  -1.7369  -1.7323  -1.6947  -1.6947  -1.6860  -1.6860
    -1.6770  -1.6770  -1.6348  -1.6155  -1.5964  -1.5904  -1.5904  -1.5848
    -1.5589  -1.5589  -1.5499  -1.5499  -1.5469  -1.5468  -1.5320  -1.5320
    -1.5170  -1.4755  -1.4755  -1.4423  -1.4422  -1.4239  -1.3891  -1.3891
    -1.3574  -1.3574  -1.3391  -1.3387  -1.3323  -1.3200  -1.3177  -1.3031
    -1.3030  -1.2646  -1.2646  -1.2443  -1.2443  -1.2003  -1.2003  -1.1989
    -1.1485  -1.1485  -1.1337  -1.1337  -1.1123  -1.1123  -1.0957  -1.0957
    -1.0853  -1.0699  -1.0380  -1.0372  -1.0370  -0.9991  -0.9954  -0.9850
    -0.9850  -0.9786  -0.9786  -0.9678  -0.9678  -0.9452  -0.9290  -0.9290
    -0.9168  -0.9168  -0.9043  -0.9043  -0.8909  -0.8721  -0.8721  -0.8426
    -0.8426  -0.7662  -0.7510  -0.7510  -0.7506  -0.7457  -0.7446  -0.7446
    -0.7261  -0.7179  -0.6861  -0.6861  -0.6832  -0.6832  -0.6610  -0.6456
    -0.6436  -0.6436  -0.6278  -0.5509  -0.5509  -0.5193  -0.5193  -0.5125
    -0.5125  -0.5005  -0.4997  -0.4997  -0.4966  -0.4966  -0.4796  -0.4470
    -0.4295  -0.4142  -0.4142  -0.4027  -0.4026  -0.3966  -0.3966  -0.3899
    -0.3869  -0.3868  -0.3690  -0.3690  -0.3680  -0.3340  -0.3339  -0.3326
    -0.3177  -0.3177  -0.2943  -0.2665  -0.2665  -0.2564  -0.2564  -0.1884
    -0.1884  -0.1755  -0.1755  -0.1131  -0.1109  -0.1109  -0.1064  -0.0890
     0.1335   0.1335   0.4739   0.4739   0.5578   0.5579   0.6995   0.7397
     0.7502   0.8745   0.8745   1.2520   1.3320   1.3320   1.5663   1.5663
     1.6221   1.9331   1.9332   1.9528   1.9528   2.0139   2.0139   2.1477
     2.1477   2.3341   2.3341   2.3461   2.4898   2.4898   2.5447   2.7460
     3.1129   3.1129   3.1502   3.1502   3.1639   3.1639   3.4907   3.4907
     3.8243   3.8243   3.8990   4.1608   4.2956   4.2956   4.4902   4.4902
     4.5722   4.5722   4.6520   4.8168   4.8168   4.9129   4.9129   5.1973
     5.2725   5.2725   5.4631   5.4631   5.5992   5.5992   5.6111   5.6111
     5.7459   5.7459   5.8206   5.9523   6.3373   6.4132   6.4244   6.4244
     6.4441   6.4442   6.4839   6.6460   6.6460   6.7618   6.7618   6.7809
     7.0099   7.0099   7.1002   7.3284   7.3291   7.3353

          k =-0.2500-0.4330 0.1111 (136853 PWs)   bands (ev):

    -6.4025  -6.0020  -6.0019  -5.3585  -4.9839  -4.9839  -4.9765  -4.9765
    -4.5277  -4.5276  -4.4449  -4.4167  -4.4027  -4.4027  -4.3703  -4.2433
    -4.2432  -4.2001  -4.1815  -4.1815  -4.1563  -4.1563  -4.1132  -4.1132
    -4.0772  -4.0771  -4.0525  -4.0472  -4.0472  -3.9599  -3.9598  -3.9362
    -3.9362  -3.9149  -3.8931  -3.8931  -3.8705  -3.8705  -3.8690  -3.7997
    -3.7997  -3.7427  -3.7427  -3.7318  -3.7318  -3.6716  -3.6716  -3.6240
    -3.6240  -3.5963  -3.5963  -3.5817  -3.5781  -3.5779  -3.5522  -3.5522
    -3.5461  -3.5445  -3.4929  -3.4780  -3.4780  -3.4420  -3.3937  -3.3764
    -3.3763  -3.3418  -3.3418  -3.3206  -3.3206  -3.2608  -3.2504  -3.2276
    -3.2276  -3.1859  -3.1859  -3.1607  -3.1542  -3.1542  -3.0987  -3.0770
    -3.0770  -3.0547  -3.0546  -3.0526  -3.0526  -3.0451  -3.0297  -3.0297
    -2.9854  -2.9012  -2.9012  -2.8979  -2.8975  -2.8975  -2.8965  -2.8886
    -2.8885  -2.7898  -2.7857  -2.7856  -2.7782  -2.7283  -2.7282  -2.7171
    -2.7022  -2.7021  -2.6482  -2.6391  -2.6329  -2.6329  -2.5920  -2.5880
    -2.5879  -2.5541  -2.5540  -2.4929  -2.4688  -2.4687  -2.4645  -2.4645
    -2.4387  -2.4386  -2.4341  -2.4341  -2.4297  -2.4013  -2.3665  -2.3609
    -2.3607  -2.3604  -2.3500  -2.3494  -2.3481  -2.3477  -2.3476  -2.3162
    -2.3161  -2.3071  -2.3070  -2.3037  -2.2897  -2.2870  -2.2870  -2.2650
    -2.2562  -2.2562  -2.2508  -2.2362  -2.2230  -2.2230  -2.1952  -2.1952
    -2.1879  -2.1878  -2.1832  -2.1832  -2.1808  -2.1808  -2.1667  -2.1666
    -2.1622  -2.1494  -2.1494  -2.0634  -2.0634  -2.0473  -2.0473  -2.0420
    -2.0420  -2.0162  -2.0000  -1.9999  -1.9869  -1.9600  -1.9598  -1.9598
    -1.9487  -1.9408  -1.9332  -1.9309  -1.9309  -1.9131  -1.9045  -1.8927
    -1.8495  -1.8319  -1.8319  -1.8165  -1.8057  -1.8057  -1.7513  -1.7513
    -1.7424  -1.7424  -1.6745  -1.6745  -1.6257  -1.6036  -1.6036  -1.5795
    -1.5795  -1.5555  -1.5555  -1.5253  -1.5253  -1.5174  -1.5173  -1.5109
    -1.4637  -1.4637  -1.4590  -1.4590  -1.4578  -1.4578  -1.4289  -1.4289
    -1.4166  -1.3876  -1.3780  -1.3780  -1.3678  -1.3677  -1.3590  -1.3392
    -1.3149  -1.3149  -1.3145  -1.3145  -1.2981  -1.2981  -1.2380  -1.2380
    -1.2335  -1.2182  -1.2105  -1.2105  -1.1746  -1.1212  -1.0751  -1.0751
    -1.0739  -1.0739  -1.0661  -1.0644  -1.0644  -1.0502  -1.0502  -0.9995
    -0.9995  -0.9944  -0.9944  -0.9768  -0.9645  -0.9645  -0.9398  -0.9398
    -0.9395  -0.9391  -0.9391  -0.8959  -0.8959  -0.8886  -0.8811  -0.8811
    -0.8654  -0.8654  -0.8358  -0.8207  -0.8206  -0.8050  -0.7746  -0.7746
    -0.7360  -0.7324  -0.7228  -0.7228  -0.7124  -0.7124  -0.7030  -0.7030
    -0.6992  -0.6992  -0.6732  -0.6732  -0.6555  -0.6555  -0.6511  -0.6375
    -0.6375  -0.6215  -0.6215  -0.5888  -0.5810  -0.5810  -0.5778  -0.5212
    -0.5188  -0.5188  -0.5110  -0.5027  -0.5027  -0.5014  -0.4842  -0.4842
    -0.4700  -0.4700  -0.4695  -0.4695  -0.4265  -0.4250  -0.4250  -0.4173
    -0.4173  -0.4103  -0.4097  -0.4073  -0.3956  -0.3923  -0.3923  -0.3618
    -0.3618  -0.3516  -0.3352  -0.3352  -0.2838  -0.2838  -0.2522  -0.2522
    -0.2447  -0.2447  -0.2110  -0.2037  -0.2037  -0.1823  -0.1821  -0.1818
    -0.1113  -0.1113  -0.0002   0.4116   0.4116   0.4376   0.4376   0.5080
     0.5080   0.8388   0.8388   0.8518   0.8518   1.0356   1.1114   1.2046
     1.2046   1.4545   1.4545   2.0475   2.0475   2.1786   2.1786   2.3785
     2.3785   2.4491   2.4491   2.5381   2.8160   2.8250   2.9929   3.2087
     3.2087   3.2301   3.2301   3.2974   3.4056   3.5770   3.5770   3.6020
     3.8568   3.8568   3.9297   3.9297   4.1744   4.1744   4.1977   4.3980
     4.3980   4.4554   4.5411   4.8389   4.8650   4.8651   5.0681   5.1524
     5.1524   5.2778   5.2778   5.8758   5.9543   5.9543   6.0145   6.0145
     6.0818   6.0999   6.1518   6.1785   6.1786   6.1891   6.2376   6.2376
     6.2592   6.2592   6.3475   6.3477   6.5855   6.8261   6.8931   6.8931
     6.9298   6.9333   6.9490   7.0428   7.1192   7.1192

          k =-0.2500 0.4330-0.1111 (136853 PWs)   bands (ev):

    -6.4025  -6.0044  -5.9995  -5.3585  -4.9862  -4.9816  -4.9779  -4.9753
    -4.5288  -4.5264  -4.4450  -4.4167  -4.4029  -4.4022  -4.3703  -4.2442
    -4.2426  -4.2002  -4.1823  -4.1804  -4.1566  -4.1561  -4.1138  -4.1130
    -4.0775  -4.0771  -4.0524  -4.0474  -4.0466  -3.9611  -3.9582  -3.9365
    -3.9358  -3.9150  -3.8931  -3.8929  -3.8708  -3.8703  -3.8690  -3.8000
    -3.7995  -3.7429  -3.7424  -3.7334  -3.7302  -3.6721  -3.6710  -3.6240
    -3.6239  -3.5965  -3.5963  -3.5818  -3.5782  -3.5779  -3.5524  -3.5521
    -3.5461  -3.5445  -3.4928  -3.4783  -3.4778  -3.4418  -3.3934  -3.3772
    -3.3760  -3.3422  -3.3412  -3.3212  -3.3198  -3.2607  -3.2505  -3.2280
    -3.2275  -3.1861  -3.1853  -3.1606  -3.1543  -3.1542  -3.0986  -3.0775
    -3.0765  -3.0554  -3.0552  -3.0522  -3.0517  -3.0453  -3.0302  -3.0292
    -2.9853  -2.9014  -2.9007  -2.8986  -2.8980  -2.8966  -2.8964  -2.8890
    -2.8882  -2.7896  -2.7868  -2.7845  -2.7785  -2.7293  -2.7271  -2.7170
    -2.7028  -2.7020  -2.6483  -2.6392  -2.6331  -2.6322  -2.5921  -2.5882
    -2.5878  -2.5543  -2.5538  -2.4928  -2.4687  -2.4684  -2.4653  -2.4647
    -2.4389  -2.4382  -2.4346  -2.4338  -2.4299  -2.4013  -2.3663  -2.3619
    -2.3606  -2.3595  -2.3501  -2.3493  -2.3481  -2.3481  -2.3470  -2.3168
    -2.3152  -2.3072  -2.3071  -2.3039  -2.2897  -2.2870  -2.2867  -2.2646
    -2.2563  -2.2559  -2.2509  -2.2365  -2.2231  -2.2228  -2.1959  -2.1948
    -2.1888  -2.1871  -2.1835  -2.1829  -2.1806  -2.1805  -2.1670  -2.1664
    -2.1623  -2.1499  -2.1492  -2.0644  -2.0627  -2.0488  -2.0458  -2.0419
    -2.0415  -2.0163  -2.0001  -1.9998  -1.9867  -1.9604  -1.9599  -1.9594
    -1.9486  -1.9409  -1.9330  -1.9313  -1.9307  -1.9127  -1.9044  -1.8927
    -1.8495  -1.8324  -1.8318  -1.8166  -1.8060  -1.8056  -1.7525  -1.7500
    -1.7426  -1.7422  -1.6753  -1.6734  -1.6261  -1.6037  -1.6032  -1.5800
    -1.5790  -1.5558  -1.5552  -1.5255  -1.5252  -1.5177  -1.5170  -1.5111
    -1.4641  -1.4635  -1.4592  -1.4587  -1.4580  -1.4573  -1.4291  -1.4288
    -1.4170  -1.3877  -1.3785  -1.3776  -1.3680  -1.3675  -1.3591  -1.3389
    -1.3156  -1.3145  -1.3143  -1.3140  -1.2981  -1.2978  -1.2389  -1.2373
    -1.2334  -1.2182  -1.2108  -1.2104  -1.1748  -1.1213  -1.0752  -1.0748
    -1.0742  -1.0741  -1.0663  -1.0648  -1.0642  -1.0506  -1.0495  -0.9998
    -0.9991  -0.9945  -0.9944  -0.9767  -0.9650  -0.9640  -0.9401  -0.9395
    -0.9393  -0.9392  -0.9387  -0.8963  -0.8959  -0.8883  -0.8812  -0.8808
    -0.8657  -0.8651  -0.8362  -0.8209  -0.8201  -0.8051  -0.7747  -0.7743
    -0.7358  -0.7325  -0.7234  -0.7222  -0.7124  -0.7122  -0.7031  -0.7029
    -0.6994  -0.6992  -0.6737  -0.6727  -0.6559  -0.6553  -0.6512  -0.6376
    -0.6373  -0.6214  -0.6212  -0.5889  -0.5812  -0.5810  -0.5776  -0.5212
    -0.5191  -0.5185  -0.5110  -0.5029  -0.5026  -0.5014  -0.4844  -0.4841
    -0.4701  -0.4697  -0.4696  -0.4694  -0.4265  -0.4252  -0.4247  -0.4175
    -0.4170  -0.4103  -0.4097  -0.4071  -0.3956  -0.3926  -0.3920  -0.3621
    -0.3615  -0.3518  -0.3353  -0.3351  -0.2839  -0.2837  -0.2522  -0.2520
    -0.2448  -0.2445  -0.2109  -0.2038  -0.2036  -0.1826  -0.1820  -0.1816
    -0.1113  -0.1112  -0.0002   0.4112   0.4120   0.4375   0.4377   0.5074
     0.5085   0.8387   0.8391   0.8511   0.8524   1.0356   1.1115   1.2041
     1.2053   1.4539   1.4551   2.0469   2.0479   2.1779   2.1794   2.3780
     2.3791   2.4484   2.4498   2.5379   2.8160   2.8253   2.9929   3.2080
     3.2093   3.2291   3.2311   3.2972   3.4056   3.5758   3.5782   3.6023
     3.8559   3.8577   3.9290   3.9304   4.1738   4.1749   4.1974   4.3969
     4.3988   4.4560   4.5408   4.8384   4.8641   4.8658   5.0683   5.1518
     5.1530   5.2768   5.2789   5.8759   5.9535   5.9551   6.0140   6.0149
     6.0818   6.0999   6.1516   6.1781   6.1789   6.1891   6.2374   6.2382
     6.2587   6.2597   6.3474   6.3478   6.5855   6.8257   6.8925   6.8939
     6.9298   6.9333   6.9491   7.0433   7.1191   7.1199

          k = 0.2500-0.4330-0.1111 (136853 PWs)   bands (ev):

    -6.4025  -6.0044  -5.9995  -5.3585  -4.9862  -4.9816  -4.9779  -4.9753
    -4.5288  -4.5264  -4.4450  -4.4167  -4.4029  -4.4022  -4.3703  -4.2442
    -4.2426  -4.2002  -4.1823  -4.1804  -4.1566  -4.1561  -4.1138  -4.1130
    -4.0775  -4.0771  -4.0524  -4.0474  -4.0466  -3.9611  -3.9582  -3.9365
    -3.9358  -3.9150  -3.8931  -3.8929  -3.8708  -3.8703  -3.8690  -3.8001
    -3.7995  -3.7429  -3.7424  -3.7334  -3.7302  -3.6721  -3.6710  -3.6240
    -3.6239  -3.5965  -3.5963  -3.5818  -3.5782  -3.5779  -3.5524  -3.5521
    -3.5461  -3.5445  -3.4928  -3.4783  -3.4778  -3.4418  -3.3934  -3.3772
    -3.3760  -3.3422  -3.3412  -3.3212  -3.3198  -3.2607  -3.2505  -3.2280
    -3.2275  -3.1861  -3.1853  -3.1606  -3.1543  -3.1542  -3.0986  -3.0775
    -3.0765  -3.0554  -3.0552  -3.0522  -3.0517  -3.0453  -3.0302  -3.0292
    -2.9853  -2.9014  -2.9007  -2.8986  -2.8980  -2.8966  -2.8964  -2.8890
    -2.8882  -2.7896  -2.7868  -2.7845  -2.7785  -2.7293  -2.7271  -2.7170
    -2.7028  -2.7020  -2.6483  -2.6392  -2.6331  -2.6322  -2.5921  -2.5882
    -2.5878  -2.5543  -2.5538  -2.4928  -2.4687  -2.4684  -2.4653  -2.4647
    -2.4389  -2.4382  -2.4346  -2.4338  -2.4299  -2.4013  -2.3663  -2.3619
    -2.3606  -2.3595  -2.3501  -2.3493  -2.3481  -2.3481  -2.3470  -2.3168
    -2.3152  -2.3072  -2.3071  -2.3039  -2.2897  -2.2870  -2.2867  -2.2646
    -2.2563  -2.2559  -2.2509  -2.2365  -2.2231  -2.2228  -2.1959  -2.1948
    -2.1888  -2.1871  -2.1835  -2.1829  -2.1806  -2.1805  -2.1670  -2.1664
    -2.1623  -2.1499  -2.1492  -2.0644  -2.0627  -2.0488  -2.0458  -2.0419
    -2.0415  -2.0163  -2.0001  -1.9998  -1.9867  -1.9604  -1.9599  -1.9594
    -1.9486  -1.9409  -1.9330  -1.9313  -1.9307  -1.9127  -1.9044  -1.8927
    -1.8495  -1.8324  -1.8318  -1.8166  -1.8060  -1.8056  -1.7525  -1.7500
    -1.7426  -1.7422  -1.6753  -1.6734  -1.6261  -1.6037  -1.6032  -1.5800
    -1.5790  -1.5558  -1.5552  -1.5255  -1.5252  -1.5177  -1.5170  -1.5111
    -1.4641  -1.4635  -1.4592  -1.4587  -1.4580  -1.4573  -1.4291  -1.4288
    -1.4170  -1.3877  -1.3785  -1.3776  -1.3680  -1.3675  -1.3591  -1.3389
    -1.3156  -1.3145  -1.3143  -1.3140  -1.2981  -1.2978  -1.2389  -1.2373
    -1.2334  -1.2182  -1.2108  -1.2104  -1.1748  -1.1213  -1.0752  -1.0748
    -1.0742  -1.0741  -1.0663  -1.0648  -1.0642  -1.0506  -1.0495  -0.9998
    -0.9991  -0.9945  -0.9944  -0.9767  -0.9650  -0.9640  -0.9401  -0.9395
    -0.9393  -0.9392  -0.9387  -0.8963  -0.8959  -0.8883  -0.8812  -0.8808
    -0.8657  -0.8651  -0.8362  -0.8209  -0.8201  -0.8051  -0.7747  -0.7743
    -0.7358  -0.7325  -0.7234  -0.7222  -0.7124  -0.7122  -0.7031  -0.7029
    -0.6994  -0.6992  -0.6737  -0.6727  -0.6559  -0.6553  -0.6512  -0.6376
    -0.6373  -0.6214  -0.6212  -0.5889  -0.5812  -0.5810  -0.5776  -0.5212
    -0.5191  -0.5185  -0.5110  -0.5029  -0.5026  -0.5014  -0.4844  -0.4841
    -0.4701  -0.4697  -0.4696  -0.4694  -0.4265  -0.4252  -0.4247  -0.4175
    -0.4170  -0.4103  -0.4097  -0.4071  -0.3956  -0.3926  -0.3920  -0.3621
    -0.3615  -0.3518  -0.3353  -0.3351  -0.2839  -0.2837  -0.2522  -0.2520
    -0.2448  -0.2445  -0.2109  -0.2038  -0.2036  -0.1826  -0.1820  -0.1816
    -0.1113  -0.1112  -0.0002   0.4112   0.4120   0.4375   0.4377   0.5074
     0.5085   0.8387   0.8391   0.8511   0.8524   1.0356   1.1115   1.2041
     1.2053   1.4539   1.4551   2.0469   2.0479   2.1779   2.1794   2.3780
     2.3791   2.4484   2.4498   2.5379   2.8160   2.8253   2.9929   3.2080
     3.2093   3.2291   3.2311   3.2972   3.4056   3.5758   3.5782   3.6023
     3.8559   3.8577   3.9290   3.9304   4.1738   4.1749   4.1974   4.3969
     4.3988   4.4560   4.5408   4.8384   4.8641   4.8658   5.0683   5.1518
     5.1530   5.2768   5.2789   5.8759   5.9535   5.9551   6.0140   6.0149
     6.0818   6.0999   6.1516   6.1781   6.1789   6.1891   6.2374   6.2382
     6.2587   6.2597   6.3474   6.3479   6.5855   6.8257   6.8925   6.8939
     6.9298   6.9333   6.9491   7.0433   7.1191   7.1199

          k = 0.5000 0.0000 0.1111 (136853 PWs)   bands (ev):

    -6.4025  -6.0044  -5.9995  -5.3585  -4.9862  -4.9816  -4.9779  -4.9753
    -4.5288  -4.5264  -4.4450  -4.4167  -4.4029  -4.4022  -4.3703  -4.2442
    -4.2426  -4.2002  -4.1823  -4.1804  -4.1566  -4.1561  -4.1138  -4.1130
    -4.0775  -4.0771  -4.0524  -4.0474  -4.0466  -3.9611  -3.9582  -3.9365
    -3.9358  -3.9150  -3.8931  -3.8929  -3.8708  -3.8703  -3.8690  -3.8000
    -3.7995  -3.7429  -3.7424  -3.7334  -3.7302  -3.6721  -3.6710  -3.6240
    -3.6239  -3.5965  -3.5963  -3.5818  -3.5782  -3.5779  -3.5524  -3.5521
    -3.5461  -3.5445  -3.4928  -3.4783  -3.4778  -3.4418  -3.3934  -3.3772
    -3.3760  -3.3422  -3.3412  -3.3212  -3.3198  -3.2607  -3.2505  -3.2280
    -3.2275  -3.1861  -3.1853  -3.1606  -3.1543  -3.1542  -3.0986  -3.0775
    -3.0765  -3.0554  -3.0552  -3.0522  -3.0517  -3.0453  -3.0302  -3.0292
    -2.9853  -2.9014  -2.9007  -2.8986  -2.8980  -2.8966  -2.8964  -2.8890
    -2.8882  -2.7896  -2.7868  -2.7845  -2.7785  -2.7293  -2.7271  -2.7170
    -2.7028  -2.7020  -2.6483  -2.6392  -2.6331  -2.6322  -2.5921  -2.5882
    -2.5878  -2.5543  -2.5538  -2.4928  -2.4687  -2.4684  -2.4653  -2.4647
    -2.4389  -2.4382  -2.4346  -2.4338  -2.4299  -2.4013  -2.3663  -2.3619
    -2.3606  -2.3595  -2.3501  -2.3493  -2.3481  -2.3481  -2.3470  -2.3168
    -2.3152  -2.3072  -2.3071  -2.3039  -2.2897  -2.2870  -2.2867  -2.2646
    -2.2563  -2.2559  -2.2509  -2.2365  -2.2231  -2.2228  -2.1959  -2.1948
    -2.1888  -2.1871  -2.1835  -2.1829  -2.1806  -2.1805  -2.1670  -2.1664
    -2.1623  -2.1499  -2.1492  -2.0644  -2.0627  -2.0488  -2.0458  -2.0419
    -2.0415  -2.0163  -2.0001  -1.9998  -1.9867  -1.9604  -1.9599  -1.9594
    -1.9486  -1.9409  -1.9330  -1.9313  -1.9307  -1.9127  -1.9044  -1.8927
    -1.8495  -1.8324  -1.8318  -1.8166  -1.8060  -1.8056  -1.7525  -1.7500
    -1.7426  -1.7422  -1.6753  -1.6734  -1.6261  -1.6037  -1.6032  -1.5800
    -1.5790  -1.5558  -1.5552  -1.5255  -1.5252  -1.5177  -1.5170  -1.5111
    -1.4641  -1.4635  -1.4592  -1.4587  -1.4580  -1.4573  -1.4291  -1.4288
    -1.4170  -1.3877  -1.3785  -1.3776  -1.3680  -1.3675  -1.3591  -1.3389
    -1.3156  -1.3145  -1.3143  -1.3140  -1.2981  -1.2978  -1.2389  -1.2373
    -1.2334  -1.2182  -1.2108  -1.2104  -1.1748  -1.1213  -1.0752  -1.0748
    -1.0742  -1.0741  -1.0663  -1.0648  -1.0642  -1.0506  -1.0495  -0.9998
    -0.9991  -0.9945  -0.9944  -0.9767  -0.9650  -0.9640  -0.9401  -0.9395
    -0.9393  -0.9392  -0.9387  -0.8963  -0.8959  -0.8883  -0.8812  -0.8808
    -0.8657  -0.8651  -0.8362  -0.8209  -0.8201  -0.8051  -0.7747  -0.7743
    -0.7358  -0.7325  -0.7234  -0.7222  -0.7124  -0.7122  -0.7031  -0.7029
    -0.6994  -0.6992  -0.6737  -0.6727  -0.6559  -0.6553  -0.6512  -0.6376
    -0.6373  -0.6214  -0.6212  -0.5889  -0.5812  -0.5810  -0.5776  -0.5212
    -0.5191  -0.5185  -0.5110  -0.5029  -0.5026  -0.5014  -0.4844  -0.4841
    -0.4701  -0.4697  -0.4696  -0.4694  -0.4265  -0.4252  -0.4247  -0.4175
    -0.4170  -0.4103  -0.4097  -0.4071  -0.3956  -0.3926  -0.3920  -0.3621
    -0.3615  -0.3518  -0.3353  -0.3351  -0.2839  -0.2837  -0.2522  -0.2520
    -0.2448  -0.2445  -0.2109  -0.2038  -0.2036  -0.1826  -0.1820  -0.1816
    -0.1113  -0.1112  -0.0002   0.4112   0.4120   0.4375   0.4377   0.5074
     0.5085   0.8387   0.8391   0.8511   0.8524   1.0356   1.1115   1.2041
     1.2053   1.4539   1.4551   2.0469   2.0479   2.1779   2.1794   2.3780
     2.3791   2.4484   2.4498   2.5379   2.8160   2.8253   2.9929   3.2080
     3.2093   3.2291   3.2311   3.2972   3.4056   3.5758   3.5782   3.6023
     3.8559   3.8577   3.9290   3.9304   4.1738   4.1749   4.1974   4.3969
     4.3988   4.4560   4.5408   4.8384   4.8641   4.8658   5.0683   5.1518
     5.1530   5.2768   5.2789   5.8759   5.9535   5.9551   6.0140   6.0149
     6.0818   6.0999   6.1516   6.1781   6.1789   6.1891   6.2374   6.2382
     6.2587   6.2597   6.3474   6.3478   6.5855   6.8257   6.8925   6.8939
     6.9298   6.9333   6.9491   7.0432   7.1191   7.1199

          k =-0.5000 0.0000 0.1111 (136853 PWs)   bands (ev):

    -6.4025  -6.0044  -5.9995  -5.3585  -4.9862  -4.9816  -4.9779  -4.9753
    -4.5288  -4.5264  -4.4450  -4.4167  -4.4029  -4.4022  -4.3703  -4.2442
    -4.2426  -4.2002  -4.1823  -4.1804  -4.1566  -4.1561  -4.1138  -4.1130
    -4.0775  -4.0771  -4.0524  -4.0474  -4.0466  -3.9611  -3.9582  -3.9365
    -3.9358  -3.9150  -3.8931  -3.8929  -3.8708  -3.8703  -3.8690  -3.8000
    -3.7995  -3.7429  -3.7424  -3.7334  -3.7302  -3.6721  -3.6710  -3.6240
    -3.6239  -3.5965  -3.5963  -3.5818  -3.5782  -3.5779  -3.5524  -3.5521
    -3.5461  -3.5445  -3.4928  -3.4783  -3.4778  -3.4418  -3.3934  -3.3772
    -3.3760  -3.3422  -3.3412  -3.3212  -3.3198  -3.2607  -3.2505  -3.2280
    -3.2275  -3.1861  -3.1853  -3.1606  -3.1543  -3.1542  -3.0986  -3.0775
    -3.0765  -3.0554  -3.0552  -3.0522  -3.0517  -3.0453  -3.0302  -3.0292
    -2.9853  -2.9014  -2.9007  -2.8986  -2.8980  -2.8966  -2.8964  -2.8890
    -2.8882  -2.7896  -2.7868  -2.7845  -2.7785  -2.7293  -2.7271  -2.7170
    -2.7028  -2.7020  -2.6483  -2.6392  -2.6331  -2.6322  -2.5921  -2.5882
    -2.5878  -2.5543  -2.5538  -2.4928  -2.4687  -2.4684  -2.4653  -2.4647
    -2.4389  -2.4382  -2.4346  -2.4338  -2.4299  -2.4013  -2.3663  -2.3619
    -2.3606  -2.3595  -2.3501  -2.3493  -2.3481  -2.3481  -2.3470  -2.3168
    -2.3152  -2.3072  -2.3071  -2.3039  -2.2897  -2.2870  -2.2867  -2.2646
    -2.2563  -2.2559  -2.2509  -2.2365  -2.2231  -2.2228  -2.1959  -2.1948
    -2.1888  -2.1871  -2.1835  -2.1829  -2.1806  -2.1805  -2.1670  -2.1664
    -2.1623  -2.1499  -2.1492  -2.0644  -2.0627  -2.0488  -2.0458  -2.0419
    -2.0415  -2.0163  -2.0001  -1.9998  -1.9867  -1.9604  -1.9599  -1.9594
    -1.9486  -1.9409  -1.9330  -1.9313  -1.9307  -1.9127  -1.9044  -1.8927
    -1.8495  -1.8324  -1.8318  -1.8166  -1.8060  -1.8056  -1.7525  -1.7500
    -1.7426  -1.7422  -1.6753  -1.6734  -1.6261  -1.6037  -1.6032  -1.5800
    -1.5790  -1.5558  -1.5552  -1.5255  -1.5252  -1.5177  -1.5170  -1.5111
    -1.4641  -1.4635  -1.4592  -1.4587  -1.4580  -1.4573  -1.4291  -1.4288
    -1.4170  -1.3877  -1.3785  -1.3776  -1.3680  -1.3675  -1.3591  -1.3389
    -1.3156  -1.3145  -1.3143  -1.3140  -1.2981  -1.2978  -1.2389  -1.2373
    -1.2334  -1.2182  -1.2108  -1.2104  -1.1748  -1.1213  -1.0752  -1.0748
    -1.0742  -1.0741  -1.0663  -1.0648  -1.0642  -1.0506  -1.0495  -0.9998
    -0.9991  -0.9945  -0.9944  -0.9767  -0.9650  -0.9640  -0.9401  -0.9395
    -0.9393  -0.9392  -0.9387  -0.8963  -0.8959  -0.8883  -0.8812  -0.8808
    -0.8657  -0.8651  -0.8362  -0.8209  -0.8201  -0.8051  -0.7747  -0.7743
    -0.7358  -0.7325  -0.7234  -0.7222  -0.7124  -0.7122  -0.7031  -0.7029
    -0.6994  -0.6992  -0.6737  -0.6727  -0.6559  -0.6553  -0.6512  -0.6376
    -0.6373  -0.6214  -0.6212  -0.5889  -0.5812  -0.5810  -0.5776  -0.5212
    -0.5191  -0.5185  -0.5110  -0.5029  -0.5026  -0.5014  -0.4844  -0.4841
    -0.4701  -0.4697  -0.4696  -0.4694  -0.4265  -0.4252  -0.4247  -0.4175
    -0.4170  -0.4103  -0.4097  -0.4071  -0.3956  -0.3926  -0.3920  -0.3621
    -0.3615  -0.3518  -0.3353  -0.3351  -0.2839  -0.2837  -0.2522  -0.2520
    -0.2448  -0.2445  -0.2109  -0.2038  -0.2036  -0.1826  -0.1820  -0.1816
    -0.1113  -0.1112  -0.0002   0.4112   0.4120   0.4375   0.4377   0.5074
     0.5085   0.8387   0.8391   0.8511   0.8524   1.0356   1.1115   1.2041
     1.2053   1.4539   1.4551   2.0469   2.0479   2.1779   2.1794   2.3780
     2.3791   2.4484   2.4498   2.5379   2.8160   2.8253   2.9929   3.2080
     3.2093   3.2291   3.2311   3.2972   3.4056   3.5758   3.5782   3.6023
     3.8559   3.8577   3.9290   3.9304   4.1738   4.1749   4.1974   4.3969
     4.3988   4.4560   4.5408   4.8384   4.8641   4.8658   5.0683   5.1518
     5.1530   5.2768   5.2789   5.8759   5.9535   5.9551   6.0140   6.0149
     6.0818   6.0999   6.1516   6.1781   6.1789   6.1891   6.2374   6.2382
     6.2587   6.2597   6.3474   6.3479   6.5855   6.8257   6.8925   6.8939
     6.9298   6.9333   6.9491   7.0432   7.1191   7.1199

          k =-0.2500 0.1443 0.1111 (136898 PWs)   bands (ev):

    -6.6126  -5.8175  -5.5623  -5.4632  -5.4631  -4.9053  -4.9053  -4.8270
    -4.7554  -4.6162  -4.5444  -4.5365  -4.5365  -4.4565  -4.3862  -4.3862
    -4.2503  -4.2107  -4.2104  -4.2069  -4.2068  -4.2023  -4.0580  -4.0580
    -3.9899  -3.9734  -3.9719  -3.9719  -3.9482  -3.9482  -3.8978  -3.8296
    -3.8295  -3.8264  -3.8156  -3.8156  -3.8119  -3.7995  -3.7994  -3.7452
    -3.7452  -3.7407  -3.7407  -3.7239  -3.7239  -3.7128  -3.6853  -3.6853
    -3.6757  -3.6757  -3.6400  -3.6400  -3.6190  -3.5652  -3.5652  -3.5136
    -3.5136  -3.4919  -3.4919  -3.4862  -3.3990  -3.3990  -3.3968  -3.3967
    -3.3916  -3.3916  -3.3624  -3.3624  -3.2101  -3.2101  -3.2078  -3.2078
    -3.2025  -3.1504  -3.1504  -3.1383  -3.1383  -3.0874  -3.0874  -3.0744
    -3.0744  -3.0175  -3.0174  -3.0145  -2.9917  -2.9836  -2.9836  -2.9322
    -2.9322  -2.9231  -2.9231  -2.8915  -2.8914  -2.8834  -2.8833  -2.8307
    -2.8306  -2.8266  -2.8266  -2.8001  -2.7651  -2.7651  -2.7439  -2.7237
    -2.7237  -2.6448  -2.6448  -2.6128  -2.6128  -2.6082  -2.5918  -2.5742
    -2.5483  -2.5483  -2.5307  -2.5281  -2.5280  -2.5260  -2.5143  -2.5106
    -2.5106  -2.4960  -2.4960  -2.4900  -2.4900  -2.4258  -2.4085  -2.3900
    -2.3899  -2.3834  -2.3750  -2.3750  -2.3691  -2.3691  -2.3613  -2.3214
    -2.3214  -2.3051  -2.3038  -2.3021  -2.2896  -2.2896  -2.2703  -2.2702
    -2.2614  -2.2517  -2.2516  -2.1925  -2.1766  -2.1696  -2.1640  -2.1640
    -2.1527  -2.1527  -2.1224  -2.1130  -2.1130  -2.1110  -2.1073  -2.1073
    -2.0939  -2.0939  -2.0807  -2.0652  -2.0652  -2.0156  -2.0156  -2.0140
    -2.0088  -2.0088  -1.9975  -1.9909  -1.9908  -1.9879  -1.9876  -1.9678
    -1.9678  -1.9602  -1.8537  -1.8537  -1.8286  -1.8286  -1.8203  -1.7936
    -1.7930  -1.7929  -1.7925  -1.7924  -1.7629  -1.7614  -1.7614  -1.7599
    -1.7599  -1.7369  -1.7369  -1.7323  -1.6947  -1.6947  -1.6860  -1.6860
    -1.6770  -1.6770  -1.6348  -1.6155  -1.5964  -1.5904  -1.5904  -1.5848
    -1.5589  -1.5589  -1.5500  -1.5500  -1.5469  -1.5468  -1.5320  -1.5320
    -1.5169  -1.4755  -1.4755  -1.4423  -1.4422  -1.4239  -1.3891  -1.3891
    -1.3574  -1.3574  -1.3391  -1.3387  -1.3323  -1.3200  -1.3177  -1.3031
    -1.3030  -1.2646  -1.2646  -1.2443  -1.2443  -1.2003  -1.2003  -1.1988
    -1.1486  -1.1485  -1.1337  -1.1337  -1.1123  -1.1123  -1.0957  -1.0957
    -1.0853  -1.0699  -1.0380  -1.0372  -1.0370  -0.9991  -0.9954  -0.9850
    -0.9850  -0.9786  -0.9786  -0.9678  -0.9678  -0.9452  -0.9290  -0.9290
    -0.9168  -0.9168  -0.9043  -0.9043  -0.8909  -0.8721  -0.8721  -0.8426
    -0.8426  -0.7662  -0.7510  -0.7510  -0.7506  -0.7457  -0.7446  -0.7446
    -0.7261  -0.7179  -0.6861  -0.6861  -0.6832  -0.6832  -0.6610  -0.6456
    -0.6436  -0.6436  -0.6278  -0.5509  -0.5509  -0.5193  -0.5193  -0.5125
    -0.5125  -0.5005  -0.4997  -0.4997  -0.4966  -0.4966  -0.4796  -0.4470
    -0.4295  -0.4142  -0.4142  -0.4027  -0.4026  -0.3966  -0.3966  -0.3899
    -0.3869  -0.3869  -0.3690  -0.3690  -0.3680  -0.3339  -0.3339  -0.3326
    -0.3177  -0.3177  -0.2943  -0.2665  -0.2665  -0.2564  -0.2564  -0.1884
    -0.1884  -0.1755  -0.1755  -0.1131  -0.1109  -0.1109  -0.1064  -0.0890
     0.1335   0.1335   0.4739   0.4739   0.5578   0.5579   0.6995   0.7397
     0.7502   0.8745   0.8745   1.2520   1.3320   1.3320   1.5663   1.5663
     1.6221   1.9332   1.9332   1.9528   1.9528   2.0139   2.0139   2.1477
     2.1477   2.3341   2.3341   2.3461   2.4898   2.4898   2.5447   2.7460
     3.1129   3.1129   3.1502   3.1502   3.1639   3.1639   3.4907   3.4907
     3.8243   3.8243   3.8990   4.1608   4.2956   4.2956   4.4902   4.4902
     4.5722   4.5722   4.6520   4.8168   4.8168   4.9129   4.9129   5.1973
     5.2725   5.2725   5.4631   5.4631   5.5992   5.5992   5.6111   5.6111
     5.7459   5.7459   5.8206   5.9523   6.3373   6.4128   6.4244   6.4244
     6.4441   6.4442   6.4833   6.6460   6.6460   6.7624   6.7624   6.7817
     7.0099   7.0099   7.1093   7.3276   7.3281   7.3353

          k =-0.2500-0.1443-0.1111 (136898 PWs)   bands (ev):

    -6.6126  -5.8175  -5.5623  -5.4632  -5.4631  -4.9053  -4.9052  -4.8270
    -4.7555  -4.6162  -4.5443  -4.5366  -4.5365  -4.4566  -4.3863  -4.3860
    -4.2503  -4.2105  -4.2104  -4.2073  -4.2067  -4.2022  -4.0580  -4.0579
    -3.9898  -3.9735  -3.9720  -3.9719  -3.9485  -3.9478  -3.8977  -3.8298
    -3.8293  -3.8263  -3.8159  -3.8155  -3.8118  -3.7995  -3.7995  -3.7452
    -3.7452  -3.7409  -3.7405  -3.7239  -3.7237  -3.7126  -3.6852  -3.6852
    -3.6759  -3.6756  -3.6400  -3.6399  -3.6192  -3.5653  -3.5651  -3.5137
    -3.5136  -3.4919  -3.4917  -3.4860  -3.3988  -3.3988  -3.3970  -3.3968
    -3.3918  -3.3917  -3.3625  -3.3624  -3.2102  -3.2101  -3.2079  -3.2076
    -3.2025  -3.1505  -3.1501  -3.1384  -3.1383  -3.0874  -3.0874  -3.0745
    -3.0743  -3.0176  -3.0171  -3.0145  -2.9917  -2.9837  -2.9837  -2.9323
    -2.9322  -2.9233  -2.9231  -2.8915  -2.8915  -2.8831  -2.8831  -2.8306
    -2.8305  -2.8267  -2.8264  -2.8000  -2.7652  -2.7651  -2.7441  -2.7238
    -2.7237  -2.6450  -2.6443  -2.6127  -2.6126  -2.6084  -2.5916  -2.5744
    -2.5484  -2.5481  -2.5307  -2.5283  -2.5279  -2.5260  -2.5145  -2.5106
    -2.5105  -2.4960  -2.4960  -2.4903  -2.4902  -2.4258  -2.4084  -2.3901
    -2.3898  -2.3833  -2.3751  -2.3750  -2.3693  -2.3691  -2.3616  -2.3216
    -2.3211  -2.3052  -2.3040  -2.3019  -2.2897  -2.2893  -2.2702  -2.2701
    -2.2617  -2.2518  -2.2514  -2.1927  -2.1766  -2.1697  -2.1641  -2.1640
    -2.1528  -2.1524  -2.1224  -2.1130  -2.1129  -2.1109  -2.1072  -2.1071
    -2.0939  -2.0939  -2.0807  -2.0652  -2.0652  -2.0156  -2.0154  -2.0140
    -2.0088  -2.0087  -1.9972  -1.9912  -1.9907  -1.9879  -1.9879  -1.9679
    -1.9679  -1.9601  -1.8538  -1.8537  -1.8285  -1.8285  -1.8202  -1.7940
    -1.7931  -1.7929  -1.7924  -1.7924  -1.7630  -1.7612  -1.7612  -1.7598
    -1.7597  -1.7368  -1.7364  -1.7322  -1.6953  -1.6943  -1.6863  -1.6862
    -1.6770  -1.6769  -1.6347  -1.6155  -1.5961  -1.5905  -1.5903  -1.5848
    -1.5590  -1.5590  -1.5502  -1.5499  -1.5473  -1.5465  -1.5318  -1.5317
    -1.5170  -1.4757  -1.4756  -1.4427  -1.4419  -1.4243  -1.3890  -1.3889
    -1.3574  -1.3571  -1.3392  -1.3387  -1.3321  -1.3199  -1.3178  -1.3030
    -1.3029  -1.2646  -1.2644  -1.2445  -1.2443  -1.2003  -1.2002  -1.1989
    -1.1486  -1.1486  -1.1339  -1.1339  -1.1127  -1.1120  -1.0955  -1.0955
    -1.0848  -1.0697  -1.0380  -1.0374  -1.0369  -0.9995  -0.9951  -0.9851
    -0.9849  -0.9787  -0.9787  -0.9680  -0.9680  -0.9452  -0.9292  -0.9288
    -0.9169  -0.9166  -0.9045  -0.9041  -0.8910  -0.8723  -0.8723  -0.8425
    -0.8425  -0.7660  -0.7510  -0.7509  -0.7503  -0.7457  -0.7450  -0.7446
    -0.7259  -0.7179  -0.6862  -0.6862  -0.6833  -0.6831  -0.6612  -0.6458
    -0.6435  -0.6434  -0.6279  -0.5510  -0.5508  -0.5193  -0.5192  -0.5126
    -0.5125  -0.5006  -0.4997  -0.4997  -0.4967  -0.4964  -0.4797  -0.4472
    -0.4294  -0.4143  -0.4142  -0.4027  -0.4027  -0.3967  -0.3964  -0.3900
    -0.3869  -0.3868  -0.3692  -0.3690  -0.3680  -0.3340  -0.3337  -0.3326
    -0.3178  -0.3176  -0.2943  -0.2665  -0.2664  -0.2564  -0.2563  -0.1885
    -0.1884  -0.1758  -0.1752  -0.1131  -0.1110  -0.1107  -0.1067  -0.0890
     0.1336   0.1337   0.4739   0.4739   0.5578   0.5580   0.6995   0.7395
     0.7502   0.8744   0.8744   1.2523   1.3319   1.3321   1.5663   1.5664
     1.6222   1.9331   1.9331   1.9526   1.9529   2.0138   2.0139   2.1473
     2.1479   2.3341   2.3341   2.3461   2.4898   2.4898   2.5445   2.7461
     3.1128   3.1132   3.1502   3.1502   3.1639   3.1641   3.4904   3.4910
     3.8243   3.8244   3.8990   4.1608   4.2953   4.2955   4.4902   4.4902
     4.5720   4.5726   4.6520   4.8164   4.8169   4.9132   4.9134   5.1973
     5.2723   5.2725   5.4631   5.4631   5.5987   5.5990   5.6110   5.6112
     5.7457   5.7464   5.8206   5.9523   6.3368   6.4128   6.4241   6.4247
     6.4444   6.4444   6.4833   6.6459   6.6462   6.7623   6.7623   6.7817
     7.0099   7.0100   7.1093   7.3279   7.3346   7.3354

          k = 0.2500 0.1443-0.1111 (136898 PWs)   bands (ev):

    -6.6126  -5.8175  -5.5623  -5.4632  -5.4631  -4.9053  -4.9052  -4.8270
    -4.7555  -4.6162  -4.5443  -4.5366  -4.5365  -4.4566  -4.3863  -4.3860
    -4.2503  -4.2105  -4.2104  -4.2073  -4.2067  -4.2022  -4.0580  -4.0579
    -3.9898  -3.9735  -3.9720  -3.9719  -3.9485  -3.9478  -3.8977  -3.8298
    -3.8293  -3.8263  -3.8159  -3.8155  -3.8118  -3.7995  -3.7995  -3.7452
    -3.7452  -3.7409  -3.7405  -3.7239  -3.7237  -3.7126  -3.6852  -3.6852
    -3.6759  -3.6756  -3.6400  -3.6399  -3.6192  -3.5653  -3.5651  -3.5137
    -3.5136  -3.4919  -3.4917  -3.4860  -3.3988  -3.3988  -3.3970  -3.3968
    -3.3918  -3.3917  -3.3625  -3.3624  -3.2102  -3.2101  -3.2079  -3.2076
    -3.2025  -3.1505  -3.1501  -3.1384  -3.1383  -3.0874  -3.0874  -3.0745
    -3.0743  -3.0176  -3.0171  -3.0145  -2.9917  -2.9837  -2.9837  -2.9323
    -2.9322  -2.9233  -2.9231  -2.8915  -2.8915  -2.8831  -2.8831  -2.8306
    -2.8305  -2.8267  -2.8264  -2.8000  -2.7652  -2.7651  -2.7441  -2.7238
    -2.7237  -2.6450  -2.6443  -2.6127  -2.6126  -2.6084  -2.5916  -2.5744
    -2.5484  -2.5481  -2.5307  -2.5283  -2.5279  -2.5260  -2.5145  -2.5106
    -2.5105  -2.4960  -2.4960  -2.4903  -2.4902  -2.4258  -2.4084  -2.3901
    -2.3898  -2.3833  -2.3751  -2.3750  -2.3693  -2.3691  -2.3616  -2.3216
    -2.3211  -2.3052  -2.3040  -2.3019  -2.2897  -2.2893  -2.2702  -2.2701
    -2.2617  -2.2518  -2.2514  -2.1927  -2.1766  -2.1697  -2.1641  -2.1640
    -2.1528  -2.1524  -2.1224  -2.1130  -2.1129  -2.1109  -2.1072  -2.1071
    -2.0939  -2.0939  -2.0807  -2.0652  -2.0652  -2.0156  -2.0154  -2.0140
    -2.0088  -2.0087  -1.9972  -1.9912  -1.9907  -1.9879  -1.9879  -1.9679
    -1.9679  -1.9601  -1.8538  -1.8537  -1.8285  -1.8285  -1.8202  -1.7940
    -1.7931  -1.7929  -1.7924  -1.7924  -1.7630  -1.7612  -1.7612  -1.7598
    -1.7597  -1.7368  -1.7364  -1.7322  -1.6953  -1.6943  -1.6863  -1.6862
    -1.6770  -1.6769  -1.6347  -1.6155  -1.5961  -1.5905  -1.5903  -1.5848
    -1.5590  -1.5590  -1.5502  -1.5499  -1.5473  -1.5465  -1.5318  -1.5317
    -1.5170  -1.4757  -1.4756  -1.4427  -1.4419  -1.4243  -1.3890  -1.3889
    -1.3574  -1.3571  -1.3392  -1.3387  -1.3321  -1.3199  -1.3178  -1.3030
    -1.3029  -1.2646  -1.2644  -1.2445  -1.2443  -1.2003  -1.2002  -1.1989
    -1.1486  -1.1485  -1.1339  -1.1339  -1.1128  -1.1120  -1.0955  -1.0955
    -1.0848  -1.0697  -1.0380  -1.0374  -1.0369  -0.9995  -0.9951  -0.9851
    -0.9849  -0.9787  -0.9787  -0.9680  -0.9680  -0.9452  -0.9292  -0.9288
    -0.9169  -0.9166  -0.9045  -0.9041  -0.8910  -0.8723  -0.8723  -0.8425
    -0.8425  -0.7660  -0.7510  -0.7509  -0.7503  -0.7457  -0.7450  -0.7446
    -0.7259  -0.7179  -0.6862  -0.6862  -0.6833  -0.6831  -0.6612  -0.6458
    -0.6435  -0.6434  -0.6279  -0.5510  -0.5508  -0.5193  -0.5192  -0.5126
    -0.5125  -0.5006  -0.4997  -0.4997  -0.4967  -0.4964  -0.4797  -0.4472
    -0.4294  -0.4142  -0.4142  -0.4027  -0.4027  -0.3967  -0.3965  -0.3899
    -0.3869  -0.3868  -0.3692  -0.3690  -0.3680  -0.3340  -0.3337  -0.3326
    -0.3178  -0.3176  -0.2943  -0.2665  -0.2664  -0.2564  -0.2563  -0.1885
    -0.1884  -0.1758  -0.1752  -0.1131  -0.1110  -0.1107  -0.1067  -0.0890
     0.1336   0.1337   0.4739   0.4739   0.5578   0.5580   0.6995   0.7395
     0.7502   0.8744   0.8744   1.2523   1.3319   1.3321   1.5663   1.5664
     1.6221   1.9331   1.9331   1.9526   1.9529   2.0138   2.0139   2.1473
     2.1479   2.3341   2.3341   2.3461   2.4898   2.4898   2.5445   2.7461
     3.1128   3.1132   3.1502   3.1502   3.1639   3.1641   3.4904   3.4910
     3.8243   3.8244   3.8990   4.1608   4.2953   4.2955   4.4902   4.4902
     4.5720   4.5726   4.6520   4.8164   4.8169   4.9132   4.9134   5.1973
     5.2723   5.2725   5.4631   5.4631   5.5987   5.5990   5.6110   5.6112
     5.7457   5.7464   5.8206   5.9523   6.3368   6.4132   6.4241   6.4247
     6.4444   6.4444   6.4839   6.6459   6.6462   6.7617   6.7618   6.7809
     7.0100   7.0100   7.1002   7.3283   7.3289   7.3347

          k = 0.0000-0.2887 0.1111 (136898 PWs)   bands (ev):

    -6.6126  -5.8175  -5.5623  -5.4632  -5.4631  -4.9053  -4.9052  -4.8270
    -4.7555  -4.6162  -4.5443  -4.5366  -4.5365  -4.4566  -4.3863  -4.3860
    -4.2503  -4.2105  -4.2104  -4.2073  -4.2067  -4.2022  -4.0580  -4.0579
    -3.9898  -3.9735  -3.9720  -3.9719  -3.9485  -3.9478  -3.8977  -3.8298
    -3.8293  -3.8263  -3.8159  -3.8155  -3.8118  -3.7995  -3.7995  -3.7452
    -3.7452  -3.7409  -3.7405  -3.7239  -3.7237  -3.7126  -3.6852  -3.6852
    -3.6759  -3.6756  -3.6400  -3.6399  -3.6192  -3.5653  -3.5651  -3.5137
    -3.5136  -3.4919  -3.4917  -3.4860  -3.3988  -3.3988  -3.3970  -3.3968
    -3.3918  -3.3917  -3.3625  -3.3624  -3.2102  -3.2101  -3.2079  -3.2076
    -3.2025  -3.1505  -3.1501  -3.1384  -3.1383  -3.0874  -3.0874  -3.0745
    -3.0743  -3.0176  -3.0171  -3.0145  -2.9917  -2.9837  -2.9837  -2.9323
    -2.9322  -2.9233  -2.9231  -2.8915  -2.8915  -2.8831  -2.8831  -2.8306
    -2.8305  -2.8267  -2.8264  -2.8000  -2.7652  -2.7651  -2.7441  -2.7238
    -2.7237  -2.6450  -2.6443  -2.6127  -2.6126  -2.6084  -2.5916  -2.5744
    -2.5484  -2.5481  -2.5307  -2.5283  -2.5279  -2.5260  -2.5145  -2.5106
    -2.5105  -2.4960  -2.4960  -2.4903  -2.4902  -2.4258  -2.4084  -2.3901
    -2.3898  -2.3833  -2.3751  -2.3750  -2.3693  -2.3691  -2.3616  -2.3216
    -2.3211  -2.3052  -2.3040  -2.3019  -2.2897  -2.2893  -2.2702  -2.2701
    -2.2617  -2.2518  -2.2514  -2.1927  -2.1766  -2.1697  -2.1641  -2.1640
    -2.1528  -2.1524  -2.1224  -2.1130  -2.1129  -2.1109  -2.1072  -2.1071
    -2.0939  -2.0939  -2.0807  -2.0652  -2.0652  -2.0156  -2.0154  -2.0140
    -2.0088  -2.0087  -1.9972  -1.9912  -1.9907  -1.9879  -1.9879  -1.9679
    -1.9679  -1.9601  -1.8538  -1.8537  -1.8285  -1.8285  -1.8202  -1.7940
    -1.7931  -1.7929  -1.7924  -1.7924  -1.7630  -1.7612  -1.7612  -1.7598
    -1.7597  -1.7368  -1.7364  -1.7322  -1.6953  -1.6943  -1.6863  -1.6862
    -1.6770  -1.6769  -1.6347  -1.6155  -1.5961  -1.5905  -1.5903  -1.5848
    -1.5590  -1.5590  -1.5502  -1.5499  -1.5473  -1.5465  -1.5318  -1.5317
    -1.5170  -1.4757  -1.4756  -1.4427  -1.4419  -1.4243  -1.3890  -1.3889
    -1.3574  -1.3571  -1.3392  -1.3387  -1.3321  -1.3199  -1.3178  -1.3030
    -1.3029  -1.2646  -1.2644  -1.2445  -1.2443  -1.2003  -1.2002  -1.1989
    -1.1486  -1.1486  -1.1339  -1.1339  -1.1127  -1.1120  -1.0955  -1.0955
    -1.0848  -1.0697  -1.0380  -1.0374  -1.0369  -0.9995  -0.9951  -0.9851
    -0.9849  -0.9787  -0.9787  -0.9680  -0.9680  -0.9452  -0.9292  -0.9288
    -0.9169  -0.9166  -0.9045  -0.9041  -0.8910  -0.8723  -0.8723  -0.8425
    -0.8425  -0.7660  -0.7510  -0.7509  -0.7503  -0.7457  -0.7450  -0.7446
    -0.7259  -0.7179  -0.6862  -0.6862  -0.6833  -0.6831  -0.6612  -0.6458
    -0.6435  -0.6434  -0.6279  -0.5510  -0.5508  -0.5193  -0.5192  -0.5126
    -0.5125  -0.5006  -0.4997  -0.4997  -0.4967  -0.4964  -0.4797  -0.4472
    -0.4294  -0.4143  -0.4142  -0.4027  -0.4027  -0.3967  -0.3964  -0.3900
    -0.3869  -0.3868  -0.3692  -0.3690  -0.3680  -0.3340  -0.3337  -0.3326
    -0.3178  -0.3176  -0.2943  -0.2665  -0.2664  -0.2564  -0.2563  -0.1885
    -0.1884  -0.1758  -0.1752  -0.1131  -0.1110  -0.1107  -0.1067  -0.0890
     0.1336   0.1337   0.4739   0.4739   0.5578   0.5580   0.6995   0.7395
     0.7502   0.8744   0.8744   1.2523   1.3319   1.3321   1.5663   1.5664
     1.6222   1.9331   1.9331   1.9526   1.9529   2.0138   2.0139   2.1473
     2.1479   2.3341   2.3341   2.3461   2.4898   2.4898   2.5445   2.7461
     3.1128   3.1132   3.1502   3.1502   3.1639   3.1641   3.4904   3.4910
     3.8243   3.8244   3.8990   4.1608   4.2953   4.2955   4.4902   4.4902
     4.5720   4.5726   4.6520   4.8164   4.8169   4.9132   4.9134   5.1973
     5.2723   5.2725   5.4631   5.4631   5.5987   5.5990   5.6110   5.6112
     5.7457   5.7464   5.8206   5.9523   6.3368   6.4128   6.4241   6.4247
     6.4444   6.4444   6.4833   6.6459   6.6462   6.7623   6.7623   6.7817
     7.0099   7.0100   7.1093   7.3279   7.3346   7.3354

          k = 0.0000 0.2887 0.1111 (136898 PWs)   bands (ev):

    -6.6126  -5.8175  -5.5623  -5.4632  -5.4631  -4.9053  -4.9052  -4.8270
    -4.7555  -4.6162  -4.5443  -4.5366  -4.5365  -4.4566  -4.3863  -4.3860
    -4.2503  -4.2105  -4.2104  -4.2073  -4.2067  -4.2022  -4.0580  -4.0579
    -3.9898  -3.9735  -3.9720  -3.9719  -3.9485  -3.9478  -3.8977  -3.8298
    -3.8293  -3.8263  -3.8159  -3.8155  -3.8118  -3.7995  -3.7995  -3.7452
    -3.7452  -3.7409  -3.7405  -3.7239  -3.7237  -3.7126  -3.6852  -3.6852
    -3.6759  -3.6756  -3.6400  -3.6399  -3.6192  -3.5653  -3.5651  -3.5137
    -3.5136  -3.4919  -3.4917  -3.4860  -3.3988  -3.3988  -3.3970  -3.3968
    -3.3918  -3.3917  -3.3625  -3.3624  -3.2102  -3.2101  -3.2079  -3.2076
    -3.2025  -3.1505  -3.1501  -3.1384  -3.1383  -3.0874  -3.0874  -3.0745
    -3.0743  -3.0176  -3.0171  -3.0145  -2.9917  -2.9837  -2.9837  -2.9323
    -2.9322  -2.9233  -2.9231  -2.8915  -2.8915  -2.8831  -2.8831  -2.8306
    -2.8305  -2.8267  -2.8264  -2.8000  -2.7652  -2.7651  -2.7441  -2.7238
    -2.7237  -2.6450  -2.6443  -2.6127  -2.6126  -2.6084  -2.5916  -2.5744
    -2.5484  -2.5481  -2.5307  -2.5283  -2.5279  -2.5260  -2.5145  -2.5106
    -2.5105  -2.4960  -2.4960  -2.4903  -2.4902  -2.4258  -2.4084  -2.3901
    -2.3898  -2.3833  -2.3751  -2.3750  -2.3693  -2.3691  -2.3616  -2.3216
    -2.3211  -2.3052  -2.3040  -2.3019  -2.2897  -2.2893  -2.2702  -2.2701
    -2.2617  -2.2518  -2.2514  -2.1927  -2.1766  -2.1697  -2.1641  -2.1640
    -2.1528  -2.1524  -2.1224  -2.1130  -2.1129  -2.1109  -2.1072  -2.1071
    -2.0939  -2.0939  -2.0807  -2.0652  -2.0652  -2.0156  -2.0154  -2.0140
    -2.0088  -2.0087  -1.9972  -1.9912  -1.9907  -1.9879  -1.9879  -1.9679
    -1.9679  -1.9601  -1.8538  -1.8537  -1.8285  -1.8285  -1.8202  -1.7940
    -1.7931  -1.7929  -1.7924  -1.7924  -1.7630  -1.7612  -1.7612  -1.7598
    -1.7597  -1.7368  -1.7364  -1.7322  -1.6953  -1.6943  -1.6863  -1.6862
    -1.6770  -1.6769  -1.6347  -1.6155  -1.5961  -1.5905  -1.5903  -1.5848
    -1.5590  -1.5590  -1.5502  -1.5499  -1.5473  -1.5465  -1.5318  -1.5317
    -1.5170  -1.4757  -1.4756  -1.4427  -1.4419  -1.4243  -1.3890  -1.3889
    -1.3574  -1.3571  -1.3392  -1.3387  -1.3321  -1.3199  -1.3178  -1.3030
    -1.3029  -1.2646  -1.2644  -1.2445  -1.2443  -1.2003  -1.2002  -1.1989
    -1.1486  -1.1485  -1.1339  -1.1339  -1.1128  -1.1120  -1.0955  -1.0955
    -1.0848  -1.0697  -1.0380  -1.0374  -1.0369  -0.9995  -0.9951  -0.9851
    -0.9849  -0.9787  -0.9787  -0.9680  -0.9680  -0.9452  -0.9292  -0.9288
    -0.9169  -0.9166  -0.9045  -0.9041  -0.8910  -0.8723  -0.8723  -0.8425
    -0.8425  -0.7660  -0.7510  -0.7509  -0.7503  -0.7457  -0.7450  -0.7446
    -0.7259  -0.7179  -0.6862  -0.6862  -0.6833  -0.6831  -0.6612  -0.6458
    -0.6435  -0.6434  -0.6279  -0.5510  -0.5508  -0.5193  -0.5192  -0.5126
    -0.5125  -0.5006  -0.4997  -0.4997  -0.4967  -0.4964  -0.4797  -0.4472
    -0.4294  -0.4142  -0.4142  -0.4027  -0.4027  -0.3967  -0.3965  -0.3899
    -0.3869  -0.3868  -0.3692  -0.3690  -0.3680  -0.3340  -0.3337  -0.3326
    -0.3178  -0.3176  -0.2943  -0.2665  -0.2664  -0.2564  -0.2563  -0.1885
    -0.1884  -0.1758  -0.1752  -0.1131  -0.1110  -0.1107  -0.1067  -0.0890
     0.1336   0.1337   0.4739   0.4739   0.5578   0.5580   0.6995   0.7395
     0.7502   0.8744   0.8744   1.2523   1.3319   1.3321   1.5663   1.5664
     1.6221   1.9331   1.9331   1.9526   1.9529   2.0138   2.0139   2.1473
     2.1479   2.3341   2.3341   2.3461   2.4898   2.4898   2.5445   2.7461
     3.1128   3.1132   3.1502   3.1502   3.1639   3.1641   3.4904   3.4910
     3.8243   3.8244   3.8990   4.1608   4.2953   4.2955   4.4902   4.4902
     4.5720   4.5726   4.6520   4.8164   4.8169   4.9132   4.9134   5.1973
     5.2723   5.2725   5.4631   5.4631   5.5987   5.5990   5.6110   5.6112
     5.7457   5.7464   5.8206   5.9523   6.3368   6.4132   6.4241   6.4247
     6.4444   6.4444   6.4839   6.6459   6.6462   6.7617   6.7618   6.7809
     7.0100   7.0100   7.1002   7.3283   7.3289   7.3347

     the Fermi energy is     1.4569 ev

!    total energy              =   -6529.75287499 Ry
     Harris-Foulkes estimate   =   -6529.75287499 Ry
     estimated scf accuracy    <          3.2E-09 Ry

     The total energy is the sum of the following terms:

     one-electron contribution =  -48783.12217233 Ry
     hartree contribution      =   24886.33139583 Ry
     xc contribution           =   -3153.88888384 Ry
     ewald contribution        =   20520.92568272 Ry
     smearing contrib. (-TS)   =       0.00110263 Ry

     convergence has been achieved in  19 iterations

     Writing output data file 111strucdevscfpbe.save

     init_run     :    122.72s CPU    131.61s WALL (       1 calls)
     electrons    :   5943.38s CPU   6381.67s WALL (       1 calls)

     Called by init_run:
     wfcinit      :    103.88s CPU    112.09s WALL (       1 calls)
     potinit      :      2.82s CPU      2.88s WALL (       1 calls)

     Called by electrons:
     c_bands      :   5084.20s CPU   5451.48s WALL (      20 calls)
     sum_band     :    674.51s CPU    729.09s WALL (      20 calls)
     v_of_rho     :      9.48s CPU     10.46s WALL (      20 calls)
     newd         :    180.17s CPU    181.73s WALL (      20 calls)
     mix_rho      :      1.61s CPU      1.83s WALL (      20 calls)

     Called by c_bands:
     init_us_2    :     13.95s CPU     14.21s WALL (     492 calls)
     cegterg      :   4967.90s CPU   5234.25s WALL (     240 calls)

     Called by *egterg:
     h_psi        :   2178.89s CPU   2416.04s WALL (    1199 calls)
     s_psi        :    219.30s CPU    220.66s WALL (    1199 calls)
     g_psi        :      5.48s CPU      5.47s WALL (     947 calls)
     cdiaghg      :   1310.44s CPU   1313.51s WALL (    1175 calls)

     Called by h_psi:
     add_vuspsi   :    220.89s CPU    222.55s WALL (    1199 calls)

     General routines
     calbec       :    484.72s CPU    486.09s WALL (    1439 calls)
     fft          :     42.54s CPU     44.08s WALL (     320 calls)
     ffts         :      0.83s CPU      0.96s WALL (      40 calls)
     fftw         :   1716.50s CPU   1968.05s WALL (  598526 calls)
     interpolate  :      2.16s CPU      2.56s WALL (      40 calls)
     davcio       :      0.00s CPU      0.21s WALL (      12 calls)

     Parallel routines
     fft_scatter  :   1207.65s CPU   1392.58s WALL (  598886 calls)

     PWSCF        :     1h41m CPU        1h48m WALL


   This run was terminated on:  17: 7:12  11Aug2015            

=------------------------------------------------------------------------------=
   JOB DONE.
=------------------------------------------------------------------------------=
