Setting SGE environment for SCC

     Program PWSCF v.5.1.2 starts on 12Aug2015 at 11: 5: 5 

     This program is part of the open-source Quantum ESPRESSO suite
     for quantum simulation of materials; please cite
         "P. Giannozzi et al., J. Phys.:Condens. Matter 21 395502 (2009);
          URL http://www.quantum-espresso.org", 
     in publications or presentations arising from this work. More details at
     http://www.quantum-espresso.org/quote

     Parallel version (MPI), running on    32 processors
     R & G space division:  proc/nbgrp/npool/nimage =      32
     Waiting for input...
     Reading input from standard input
Warning: card &IONS ignored
Warning: card / ignored
Warning: card &CELL ignored
Warning: card / ignored

     Current dimensions of program PWSCF are:
     Max number of different atomic species (ntypx) = 10
     Max number of k-points (npk) =  40000
     Max angular momentum in pseudopotentials (lmaxx) =  3

     Subspace diagonalization in iterative solution of the eigenvalue problem:
     a serial algorithm will be used


     Parallelization info
     --------------------
     sticks:   dense  smooth     PW     G-vecs:    dense   smooth      PW
     Min         445     223     58                96775    34191    4534
     Max         446     224     59                96790    34246    4540
     Sum       14269    7147   1867              3097177  1095093  145167


     Title: 
     GOLD                                                                       


     bravais-lattice index     =            4
     lattice parameter (alat)  =      22.7436  a.u.
     unit-cell volume          =   22924.1508 (a.u.)^3
     number of atoms/cell      =           64
     number of atomic types    =            1
     number of electrons       =       704.00
     number of Kohn-Sham states=          422
     kinetic-energy cutoff     =      50.0000  Ry
     charge density cutoff     =     400.0000  Ry
     convergence threshold     =      1.0E-08
     mixing beta               =       0.7000
     number of iterations used =            8  plain     mixing
     Exchange-correlation      =  SLA  PW   PBE  PBE ( 1  4  3  4 0 0)

     celldm(1)=  22.743643  celldm(2)=   0.000000  celldm(3)=   2.250000
     celldm(4)=   0.000000  celldm(5)=   0.000000  celldm(6)=   0.000000

     crystal axes: (cart. coord. in units of alat)
               a(1) = (   1.000000   0.000000   0.000000 )  
               a(2) = (  -0.500000   0.866025   0.000000 )  
               a(3) = (   0.000000   0.000000   2.250000 )  

     reciprocal axes: (cart. coord. in units 2 pi/alat)
               b(1) = (  1.000000  0.577350 -0.000000 )  
               b(2) = (  0.000000  1.154701  0.000000 )  
               b(3) = (  0.000000 -0.000000  0.444444 )  


     PseudoPot. # 1 for Au read from file:
     /home/scc/andrejb/qe/pseudo/Au.pbe-nd-van.UPF
     MD5 check sum: 458681b50f36d87ef23c61b04bba420a
     Pseudo is Ultrasoft + core correction, Zval = 11.0
     Generated by new atomic code, or converted to UPF format
     Using radial grid of  985 points,  3 beta functions with: 
                l(1) =   1
                l(2) =   2
                l(3) =   2
     Q(r) pseudized with  8 coefficients,  rinner =    1.100   1.100   1.100
                                                       1.100   1.100

     atomic species   valence    mass     pseudopotential
        Au            11.00   196.96657     Au( 1.00)

     No symmetry found



   Cartesian axes

     site n.     atom                  positions (alat units)
         1           Au  tau(   1) = (   0.3540481   0.6132292   0.0000000  )
         2           Au  tau(   2) = (   0.4790062   0.3967954   0.0000000  )
         3           Au  tau(   3) = (   0.6039644   0.1803616   0.0000000  )
         4           Au  tau(   4) = (   0.7289225  -0.0360723   0.0000000  )
         5           Au  tau(   5) = (   0.1041318   0.6132292   0.0000000  )
         6           Au  tau(   6) = (   0.2290899   0.3967954   0.0000000  )
         7           Au  tau(   7) = (   0.3540481   0.1803616   0.0000000  )
         8           Au  tau(   8) = (   0.4790062  -0.0360723   0.0000000  )
         9           Au  tau(   9) = (  -0.1457845   0.6132292   0.0000000  )
        10           Au  tau(  10) = (  -0.0208264   0.3967954   0.0000000  )
        11           Au  tau(  11) = (   0.1041318   0.1803616   0.0000000  )
        12           Au  tau(  12) = (   0.2290899  -0.0360723   0.0000000  )
        13           Au  tau(  13) = (  -0.3957008   0.6132292   0.0000000  )
        14           Au  tau(  14) = (  -0.2707426   0.3967954   0.0000000  )
        15           Au  tau(  15) = (  -0.1457845   0.1803616   0.0000000  )
        16           Au  tau(  16) = (  -0.0208264  -0.0360723   0.0000000  )
        17           Au  tau(  17) = (   0.4790062   0.6853738   0.2040557  )
        18           Au  tau(  18) = (   0.6039644   0.4689400   0.2040557  )
        19           Au  tau(  19) = (   0.7289225   0.2525061   0.2040557  )
        20           Au  tau(  20) = (   0.8538806   0.0360723   0.2040557  )
        21           Au  tau(  21) = (   0.2290899   0.6853738   0.2040557  )
        22           Au  tau(  22) = (   0.3540481   0.4689400   0.2040557  )
        23           Au  tau(  23) = (   0.4790062   0.2525061   0.2040557  )
        24           Au  tau(  24) = (   0.6039644   0.0360723   0.2040557  )
        25           Au  tau(  25) = (  -0.0208264   0.6853738   0.2040557  )
        26           Au  tau(  26) = (   0.1041318   0.4689400   0.2040557  )
        27           Au  tau(  27) = (   0.2290899   0.2525061   0.2040557  )
        28           Au  tau(  28) = (   0.3540481   0.0360723   0.2040557  )
        29           Au  tau(  29) = (  -0.2707426   0.6853738   0.2040557  )
        30           Au  tau(  30) = (  -0.1457845   0.4689400   0.2040557  )
        31           Au  tau(  31) = (  -0.0208264   0.2525061   0.2040557  )
        32           Au  tau(  32) = (   0.1041318   0.0360723   0.2040557  )
        33           Au  tau(  33) = (   0.3541162   0.7576593   0.4066483  )
        34           Au  tau(  34) = (   0.4791000   0.5411421   0.4066695  )
        35           Au  tau(  35) = (   0.6040570   0.3246862   0.4066617  )
        36           Au  tau(  36) = (   0.7290270   0.1081684   0.4066529  )
        37           Au  tau(  37) = (   0.1041162   0.7576236   0.4066247  )
        38           Au  tau(  38) = (   0.2291001   0.5411063   0.4066455  )
        39           Au  tau(  39) = (   0.3540567   0.3246505   0.4066380  )
        40           Au  tau(  40) = (   0.4790276   0.1081324   0.4066292  )
        41           Au  tau(  41) = (  -0.1458201   0.7576104   0.4066224  )
        42           Au  tau(  42) = (  -0.0208365   0.5410930   0.4066438  )
        43           Au  tau(  43) = (   0.1041202   0.3246372   0.4066359  )
        44           Au  tau(  44) = (   0.2290908   0.1081193   0.4066273  )
        45           Au  tau(  45) = (  -0.3958167   0.7575791   0.4065812  )
        46           Au  tau(  46) = (  -0.2708328   0.5410617   0.4066025  )
        47           Au  tau(  47) = (  -0.1458763   0.3246061   0.4065947  )
        48           Au  tau(  48) = (  -0.0209056   0.1080882   0.4065858  )
        49           Au  tau(  49) = (   0.3541085   0.6133344   0.6129762  )
        50           Au  tau(  50) = (   0.4790780   0.3968269   0.6129968  )
        51           Au  tau(  51) = (   0.6040356   0.1803811   0.6129859  )
        52           Au  tau(  52) = (   0.7290165  -0.0361221   0.6129385  )
        53           Au  tau(  53) = (   0.1041243   0.6133091   0.6130022  )
        54           Au  tau(  54) = (   0.2290941   0.3968013   0.6130241  )
        55           Au  tau(  55) = (   0.3540515   0.1803552   0.6130121  )
        56           Au  tau(  56) = (   0.4790323  -0.0361475   0.6129659  )
        57           Au  tau(  57) = (  -0.1458030   0.6133014   0.6129980  )
        58           Au  tau(  58) = (  -0.0208339   0.3967936   0.6130188  )
        59           Au  tau(  59) = (   0.1041239   0.1803477   0.6130083  )
        60           Au  tau(  60) = (   0.2291046  -0.0361554   0.6129607  )
        61           Au  tau(  61) = (  -0.3957908   0.6132739   0.6129471  )
        62           Au  tau(  62) = (  -0.2708208   0.3967658   0.6129688  )
        63           Au  tau(  63) = (  -0.1458636   0.1803200   0.6129569  )
        64           Au  tau(  64) = (  -0.0208823  -0.0361826   0.6129110  )

     number of k points=    12  Marzari-Vanderbilt smearing, width (Ry)=  0.0200
                       cart. coord. in units 2pi/alat
        k(    1) = (   0.2500000   0.4330127   0.1111111), wk =   0.1666667
        k(    2) = (   0.2500000  -0.1443376   0.1111111), wk =   0.1666667
        k(    3) = (  -0.2500000  -0.4330127   0.1111111), wk =   0.1666667
        k(    4) = (  -0.2500000   0.4330127  -0.1111111), wk =   0.1666667
        k(    5) = (   0.2500000  -0.4330127  -0.1111111), wk =   0.1666667
        k(    6) = (   0.5000000   0.0000000   0.1111111), wk =   0.1666667
        k(    7) = (  -0.5000000   0.0000000   0.1111111), wk =   0.1666667
        k(    8) = (  -0.2500000   0.1443376   0.1111111), wk =   0.1666667
        k(    9) = (  -0.2500000  -0.1443376  -0.1111111), wk =   0.1666667
        k(   10) = (   0.2500000   0.1443376  -0.1111111), wk =   0.1666667
        k(   11) = (   0.0000000  -0.2886751   0.1111111), wk =   0.1666667
        k(   12) = (   0.0000000   0.2886751   0.1111111), wk =   0.1666667

     Dense  grid:  3097177 G-vectors     FFT dimensions: ( 150, 150, 360)

     Smooth grid:  1095093 G-vectors     FFT dimensions: ( 108, 108, 240)

     Largest allocated arrays     est. size (Mb)     dimensions
        Kohn-Sham Wavefunctions        27.68 Mb     (    4299,  422)
        NL pseudopotentials            54.58 Mb     (    4299,  832)
        Each V/rho on FFT grid          4.12 Mb     (  270000)
        Each G-vector array             0.74 Mb     (   96788)
        G-vector shells                 0.16 Mb     (   21404)
     Largest temporary arrays     est. size (Mb)     dimensions
        Auxiliary wavefunctions       110.73 Mb     (    4299, 1688)
        Each subspace H/S matrix       43.48 Mb     (    1688, 1688)
        Each <psi_i|beta_j> matrix      5.36 Mb     (     832,  422)
        Arrays for rho mixing          32.96 Mb     (  270000,    8)

     Initial potential from superposition of free atoms
     Check: negative starting charge=   -1.730256

     starting charge  703.25684, renormalised to  704.00000

     negative rho (up, down):  1.732E+00 0.000E+00
     Starting wfc are  576 randomized atomic wfcs

     total cpu time spent up to now is      153.7 secs

     Self-consistent Calculation

     iteration #  1     ecut=    50.00 Ry     beta=0.70
     Davidson diagonalization with overlap
     ethr =  1.00E-02,  avg # of iterations =  3.0

     Threshold (ethr) on eigenvalues was too large:
     Diagonalizing with lowered threshold

     Davidson diagonalization with overlap
     ethr =  3.66E-04,  avg # of iterations =  3.2

     negative rho (up, down):  1.711E+00 0.000E+00

     total cpu time spent up to now is      780.1 secs

     total energy              =   -6527.95865397 Ry
     Harris-Foulkes estimate   =   -6530.40725878 Ry
     estimated scf accuracy    <       3.13329457 Ry

     iteration #  2     ecut=    50.00 Ry     beta=0.70
     Davidson diagonalization with overlap
     ethr =  4.45E-04,  avg # of iterations = 12.2

     negative rho (up, down):  1.712E+00 0.000E+00

     total cpu time spent up to now is     1830.7 secs

     total energy              =   -6521.37263123 Ry
     Harris-Foulkes estimate   =   -6536.11557650 Ry
     estimated scf accuracy    <      84.30846423 Ry

     iteration #  3     ecut=    50.00 Ry     beta=0.70
     Davidson diagonalization with overlap
     ethr =  4.45E-04,  avg # of iterations =  6.8

     negative rho (up, down):  1.735E+00 0.000E+00

     total cpu time spent up to now is     2504.4 secs

     total energy              =   -6529.37317913 Ry
     Harris-Foulkes estimate   =   -6530.20834753 Ry
     estimated scf accuracy    <       2.90271222 Ry

     iteration #  4     ecut=    50.00 Ry     beta=0.70
     Davidson diagonalization with overlap
     ethr =  4.12E-04,  avg # of iterations =  2.5

     negative rho (up, down):  1.740E+00 0.000E+00

     total cpu time spent up to now is     2777.5 secs

     total energy              =   -6529.58994223 Ry
     Harris-Foulkes estimate   =   -6529.81118712 Ry
     estimated scf accuracy    <       0.88087764 Ry

     iteration #  5     ecut=    50.00 Ry     beta=0.70
     Davidson diagonalization with overlap
     ethr =  1.25E-04,  avg # of iterations =  5.0

     negative rho (up, down):  1.746E+00 0.000E+00

     total cpu time spent up to now is     3146.1 secs

     total energy              =   -6529.57570982 Ry
     Harris-Foulkes estimate   =   -6529.93232981 Ry
     estimated scf accuracy    <       3.93012785 Ry

     iteration #  6     ecut=    50.00 Ry     beta=0.70
     Davidson diagonalization with overlap
     ethr =  1.25E-04,  avg # of iterations =  4.3

     negative rho (up, down):  1.751E+00 0.000E+00

     total cpu time spent up to now is     3485.9 secs

     total energy              =   -6529.74727246 Ry
     Harris-Foulkes estimate   =   -6529.75082010 Ry
     estimated scf accuracy    <       0.01549250 Ry

     iteration #  7     ecut=    50.00 Ry     beta=0.70
     Davidson diagonalization with overlap
     ethr =  2.20E-06,  avg # of iterations = 15.2

     negative rho (up, down):  1.751E+00 0.000E+00

     total cpu time spent up to now is     4432.2 secs

     total energy              =   -6529.74901242 Ry
     Harris-Foulkes estimate   =   -6529.75210920 Ry
     estimated scf accuracy    <       0.01040275 Ry

     iteration #  8     ecut=    50.00 Ry     beta=0.70
     Davidson diagonalization with overlap
     ethr =  1.48E-06,  avg # of iterations =  2.7

     negative rho (up, down):  1.751E+00 0.000E+00

     total cpu time spent up to now is     4736.4 secs

     total energy              =   -6529.75013264 Ry
     Harris-Foulkes estimate   =   -6529.75090813 Ry
     estimated scf accuracy    <       0.00304988 Ry

     iteration #  9     ecut=    50.00 Ry     beta=0.70
     Davidson diagonalization with overlap
     ethr =  4.33E-07,  avg # of iterations =  2.0

     negative rho (up, down):  1.751E+00 0.000E+00

     total cpu time spent up to now is     4994.2 secs

     total energy              =   -6529.75036066 Ry
     Harris-Foulkes estimate   =   -6529.75066999 Ry
     estimated scf accuracy    <       0.00124966 Ry

     iteration # 10     ecut=    50.00 Ry     beta=0.70
     Davidson diagonalization with overlap
     ethr =  1.78E-07,  avg # of iterations =  2.0

     negative rho (up, down):  1.752E+00 0.000E+00

     total cpu time spent up to now is     5258.9 secs

     total energy              =   -6529.75047664 Ry
     Harris-Foulkes estimate   =   -6529.75051946 Ry
     estimated scf accuracy    <       0.00014097 Ry

     iteration # 11     ecut=    50.00 Ry     beta=0.70
     Davidson diagonalization with overlap
     ethr =  2.00E-08,  avg # of iterations =  2.0

     negative rho (up, down):  1.752E+00 0.000E+00

     total cpu time spent up to now is     5553.4 secs

     total energy              =   -6529.75049592 Ry
     Harris-Foulkes estimate   =   -6529.75050491 Ry
     estimated scf accuracy    <       0.00001886 Ry

     iteration # 12     ecut=    50.00 Ry     beta=0.70
     Davidson diagonalization with overlap
     ethr =  2.68E-09,  avg # of iterations =  3.0

     negative rho (up, down):  1.752E+00 0.000E+00

     total cpu time spent up to now is     5929.3 secs

     total energy              =   -6529.75049650 Ry
     Harris-Foulkes estimate   =   -6529.75050608 Ry
     estimated scf accuracy    <       0.00003057 Ry

     iteration # 13     ecut=    50.00 Ry     beta=0.70
     Davidson diagonalization with overlap
     ethr =  2.68E-09,  avg # of iterations =  2.5

     negative rho (up, down):  1.752E+00 0.000E+00

     total cpu time spent up to now is     6247.9 secs

     total energy              =   -6529.75050020 Ry
     Harris-Foulkes estimate   =   -6529.75050339 Ry
     estimated scf accuracy    <       0.00001024 Ry

     iteration # 14     ecut=    50.00 Ry     beta=0.70
     Davidson diagonalization with overlap
     ethr =  1.45E-09,  avg # of iterations =  2.0

     negative rho (up, down):  1.752E+00 0.000E+00

     total cpu time spent up to now is     6524.3 secs

     total energy              =   -6529.75050141 Ry
     Harris-Foulkes estimate   =   -6529.75050213 Ry
     estimated scf accuracy    <       0.00000193 Ry

     iteration # 15     ecut=    50.00 Ry     beta=0.70
     Davidson diagonalization with overlap
     ethr =  2.73E-10,  avg # of iterations =  2.0

     negative rho (up, down):  1.752E+00 0.000E+00

     total cpu time spent up to now is     6841.1 secs

     total energy              =   -6529.75050109 Ry
     Harris-Foulkes estimate   =   -6529.75050254 Ry
     estimated scf accuracy    <       0.00001361 Ry

     iteration # 16     ecut=    50.00 Ry     beta=0.70
     Davidson diagonalization with overlap
     ethr =  2.73E-10,  avg # of iterations =  2.0

     negative rho (up, down):  1.752E+00 0.000E+00

     total cpu time spent up to now is     7133.2 secs

     total energy              =   -6529.75050162 Ry
     Harris-Foulkes estimate   =   -6529.75050216 Ry
     estimated scf accuracy    <       0.00000366 Ry

     iteration # 17     ecut=    50.00 Ry     beta=0.70
     Davidson diagonalization with overlap
     ethr =  2.73E-10,  avg # of iterations =  2.0

     negative rho (up, down):  1.752E+00 0.000E+00

     total cpu time spent up to now is     7435.4 secs

     total energy              =   -6529.75050185 Ry
     Harris-Foulkes estimate   =   -6529.75050194 Ry
     estimated scf accuracy    <       0.00000028 Ry

     iteration # 18     ecut=    50.00 Ry     beta=0.70
     Davidson diagonalization with overlap
     ethr =  3.92E-11,  avg # of iterations =  2.0

     negative rho (up, down):  1.752E+00 0.000E+00

     total cpu time spent up to now is     7721.8 secs

     total energy              =   -6529.75050189 Ry
     Harris-Foulkes estimate   =   -6529.75050191 Ry
     estimated scf accuracy    <       0.00000007 Ry

     iteration # 19     ecut=    50.00 Ry     beta=0.70
     Davidson diagonalization with overlap
     ethr =  1.05E-11,  avg # of iterations =  2.0

     negative rho (up, down):  1.752E+00 0.000E+00

     total cpu time spent up to now is     8004.9 secs

     End of self-consistent calculation

          k = 0.2500 0.4330 0.1111 (136853 PWs)   bands (ev):

    -6.4123  -6.0120  -6.0120  -5.3351  -4.9879  -4.9879  -4.9603  -4.9603
    -4.5401  -4.5401  -4.4583  -4.4183  -4.4143  -4.4142  -4.3716  -4.2559
    -4.2559  -4.2110  -4.1647  -4.1647  -4.1614  -4.1614  -4.1132  -4.1132
    -4.0841  -4.0840  -4.0636  -4.0434  -4.0433  -3.9665  -3.9665  -3.9477
    -3.9476  -3.9039  -3.9039  -3.9032  -3.8823  -3.8822  -3.8792  -3.8044
    -3.8044  -3.7429  -3.7428  -3.7254  -3.7254  -3.6635  -3.6635  -3.6351
    -3.6351  -3.5970  -3.5817  -3.5817  -3.5624  -3.5623  -3.5591  -3.5590
    -3.5534  -3.5331  -3.4724  -3.4659  -3.4659  -3.4450  -3.4120  -3.3830
    -3.3830  -3.3278  -3.3278  -3.3022  -3.3022  -3.2751  -3.2482  -3.2111
    -3.2110  -3.1746  -3.1746  -3.1370  -3.1326  -3.1326  -3.0922  -3.0599
    -3.0598  -3.0375  -3.0375  -3.0335  -3.0334  -3.0304  -3.0304  -3.0232
    -2.9687  -2.9099  -2.9099  -2.9083  -2.9083  -2.9040  -2.8818  -2.8818
    -2.8656  -2.7883  -2.7883  -2.7864  -2.7793  -2.7316  -2.7260  -2.7260
    -2.7043  -2.7042  -2.6532  -2.6352  -2.6351  -2.6309  -2.5910  -2.5902
    -2.5901  -2.5481  -2.5481  -2.4959  -2.4696  -2.4695  -2.4659  -2.4659
    -2.4436  -2.4436  -2.4385  -2.4304  -2.4303  -2.3961  -2.3635  -2.3596
    -2.3532  -2.3531  -2.3496  -2.3495  -2.3488  -2.3488  -2.3303  -2.3153
    -2.3141  -2.3141  -2.3106  -2.3105  -2.2987  -2.2936  -2.2936  -2.2671
    -2.2631  -2.2631  -2.2403  -2.2377  -2.2210  -2.2210  -2.1943  -2.1943
    -2.1934  -2.1933  -2.1855  -2.1854  -2.1854  -2.1854  -2.1705  -2.1705
    -2.1552  -2.1495  -2.1495  -2.0680  -2.0680  -2.0532  -2.0532  -2.0343
    -2.0343  -2.0126  -2.0003  -2.0003  -1.9810  -1.9627  -1.9626  -1.9537
    -1.9524  -1.9266  -1.9261  -1.9224  -1.9222  -1.9166  -1.9052  -1.8763
    -1.8468  -1.8277  -1.8277  -1.8069  -1.8019  -1.8018  -1.7422  -1.7422
    -1.7293  -1.7293  -1.6596  -1.6596  -1.6193  -1.6005  -1.6005  -1.5668
    -1.5668  -1.5395  -1.5395  -1.5195  -1.5195  -1.5174  -1.5174  -1.5021
    -1.4598  -1.4598  -1.4590  -1.4590  -1.4514  -1.4514  -1.4228  -1.4201
    -1.4200  -1.3854  -1.3740  -1.3740  -1.3686  -1.3686  -1.3616  -1.3455
    -1.3178  -1.3178  -1.3118  -1.3117  -1.2931  -1.2931  -1.2466  -1.2331
    -1.2331  -1.2320  -1.2083  -1.2083  -1.1639  -1.1284  -1.0779  -1.0779
    -1.0773  -1.0772  -1.0709  -1.0695  -1.0694  -1.0561  -1.0561  -1.0057
    -1.0056  -0.9887  -0.9887  -0.9720  -0.9600  -0.9600  -0.9470  -0.9443
    -0.9443  -0.9431  -0.9430  -0.8995  -0.8995  -0.8867  -0.8858  -0.8858
    -0.8708  -0.8708  -0.8401  -0.8304  -0.8303  -0.8025  -0.7823  -0.7823
    -0.7408  -0.7375  -0.7249  -0.7249  -0.7161  -0.7161  -0.7085  -0.7085
    -0.7042  -0.7042  -0.6751  -0.6750  -0.6647  -0.6647  -0.6533  -0.6395
    -0.6394  -0.6223  -0.6223  -0.5973  -0.5880  -0.5880  -0.5749  -0.5232
    -0.5213  -0.5213  -0.5171  -0.5099  -0.5088  -0.5087  -0.4876  -0.4876
    -0.4749  -0.4749  -0.4724  -0.4724  -0.4305  -0.4284  -0.4284  -0.4210
    -0.4210  -0.4131  -0.4131  -0.4095  -0.3993  -0.3928  -0.3927  -0.3604
    -0.3604  -0.3522  -0.3384  -0.3384  -0.2848  -0.2848  -0.2566  -0.2566
    -0.2476  -0.2476  -0.2145  -0.2041  -0.2041  -0.1854  -0.1853  -0.1851
    -0.1053  -0.1053   0.0061   0.4076   0.4076   0.4333   0.4333   0.4962
     0.4962   0.8464   0.8464   0.8598   0.8598   1.0308   1.0970   1.1884
     1.1884   1.4492   1.4492   2.0329   2.0329   2.1636   2.1637   2.3740
     2.3740   2.4442   2.4442   2.5325   2.8112   2.8221   2.9890   3.2050
     3.2051   3.2383   3.2383   3.3031   3.4012   3.5719   3.5719   3.6095
     3.8520   3.8520   3.9264   3.9264   4.1712   4.1712   4.2015   4.3922
     4.3922   4.4530   4.5375   4.8292   4.8660   4.8661   5.0570   5.1469
     5.1469   5.2722   5.2723   5.8764   5.9419   5.9419   6.0184   6.0184
     6.0781   6.0940   6.1603   6.1726   6.1726   6.1834   6.2429   6.2429
     6.2536   6.2536   6.3434   6.3436   6.5855   6.8276   6.8939   6.8939
     6.9298   6.9332   6.9487   7.0276   7.1236   7.1236

          k = 0.2500-0.1443 0.1111 (136898 PWs)   bands (ev):

    -6.6223  -5.8277  -5.5391  -5.4737  -5.4737  -4.9169  -4.9168  -4.8038
    -4.7674  -4.6169  -4.5466  -4.5142  -4.5142  -4.4675  -4.3970  -4.3970
    -4.2599  -4.2175  -4.2175  -4.1963  -4.1956  -4.1948  -4.0741  -4.0741
    -3.9947  -3.9836  -3.9820  -3.9819  -3.9614  -3.9614  -3.8958  -3.8397
    -3.8397  -3.8272  -3.8168  -3.8168  -3.8054  -3.8053  -3.7970  -3.7499
    -3.7498  -3.7404  -3.7404  -3.7279  -3.7279  -3.6969  -3.6931  -3.6930
    -3.6572  -3.6572  -3.6387  -3.6387  -3.6188  -3.5768  -3.5768  -3.5154
    -3.5154  -3.4931  -3.4931  -3.4766  -3.4032  -3.4032  -3.3943  -3.3943
    -3.3773  -3.3773  -3.3538  -3.3538  -3.2022  -3.2022  -3.1840  -3.1840
    -3.1793  -3.1407  -3.1407  -3.1357  -3.1357  -3.0797  -3.0797  -3.0607
    -3.0607  -3.0224  -2.9985  -2.9985  -2.9762  -2.9682  -2.9682  -2.9234
    -2.9234  -2.9041  -2.9041  -2.8991  -2.8991  -2.8737  -2.8737  -2.8290
    -2.8290  -2.8229  -2.8229  -2.8081  -2.7591  -2.7590  -2.7356  -2.7273
    -2.7273  -2.6477  -2.6476  -2.6174  -2.6174  -2.6104  -2.6016  -2.5798
    -2.5523  -2.5523  -2.5349  -2.5318  -2.5275  -2.5275  -2.5146  -2.5057
    -2.5057  -2.4970  -2.4970  -2.4889  -2.4889  -2.4373  -2.4114  -2.3923
    -2.3880  -2.3880  -2.3718  -2.3718  -2.3687  -2.3687  -2.3578  -2.3276
    -2.3276  -2.3160  -2.3101  -2.2972  -2.2972  -2.2949  -2.2691  -2.2690
    -2.2587  -2.2506  -2.2505  -2.1938  -2.1825  -2.1704  -2.1704  -2.1684
    -2.1488  -2.1488  -2.1356  -2.1149  -2.1149  -2.1096  -2.1096  -2.0985
    -2.0862  -2.0862  -2.0728  -2.0569  -2.0568  -2.0094  -2.0094  -1.9999
    -1.9997  -1.9996  -1.9965  -1.9868  -1.9866  -1.9837  -1.9836  -1.9708
    -1.9657  -1.9657  -1.8510  -1.8510  -1.8215  -1.8214  -1.8211  -1.7985
    -1.7939  -1.7939  -1.7838  -1.7838  -1.7636  -1.7635  -1.7629  -1.7568
    -1.7568  -1.7203  -1.7203  -1.7192  -1.6894  -1.6894  -1.6835  -1.6835
    -1.6696  -1.6696  -1.6122  -1.6095  -1.5857  -1.5857  -1.5770  -1.5710
    -1.5486  -1.5486  -1.5431  -1.5431  -1.5396  -1.5396  -1.5273  -1.5273
    -1.5077  -1.4702  -1.4702  -1.4390  -1.4390  -1.4287  -1.3915  -1.3915
    -1.3578  -1.3577  -1.3473  -1.3470  -1.3331  -1.3160  -1.3153  -1.2957
    -1.2957  -1.2651  -1.2650  -1.2458  -1.2458  -1.2121  -1.2121  -1.2003
    -1.1460  -1.1460  -1.1415  -1.1415  -1.1217  -1.1217  -1.1049  -1.1049
    -1.0742  -1.0628  -1.0426  -1.0405  -1.0405  -1.0093  -0.9893  -0.9890
    -0.9889  -0.9789  -0.9789  -0.9736  -0.9736  -0.9433  -0.9358  -0.9358
    -0.9226  -0.9226  -0.9163  -0.9163  -0.8972  -0.8804  -0.8804  -0.8515
    -0.8515  -0.7688  -0.7506  -0.7503  -0.7501  -0.7483  -0.7432  -0.7431
    -0.7343  -0.7126  -0.6910  -0.6909  -0.6857  -0.6857  -0.6673  -0.6521
    -0.6521  -0.6479  -0.6327  -0.5526  -0.5526  -0.5241  -0.5241  -0.5143
    -0.5143  -0.5070  -0.5058  -0.5058  -0.4994  -0.4994  -0.4823  -0.4496
    -0.4371  -0.4177  -0.4177  -0.4088  -0.4088  -0.4012  -0.4012  -0.3931
    -0.3903  -0.3903  -0.3722  -0.3695  -0.3694  -0.3377  -0.3377  -0.3368
    -0.3197  -0.3197  -0.2969  -0.2708  -0.2708  -0.2608  -0.2608  -0.1927
    -0.1927  -0.1742  -0.1742  -0.1121  -0.1098  -0.1090  -0.1090  -0.0815
     0.1263   0.1263   0.4697   0.4697   0.5452   0.5452   0.6958   0.7249
     0.7461   0.8817   0.8817   1.2598   1.3273   1.3273   1.5617   1.5617
     1.6168   1.9281   1.9281   1.9609   1.9609   1.9997   1.9997   2.1546
     2.1546   2.3294   2.3294   2.3416   2.4855   2.4855   2.5321   2.7420
     3.1091   3.1091   3.1507   3.1507   3.1582   3.1583   3.4853   3.4854
     3.8209   3.8209   3.8938   4.1542   4.2841   4.2841   4.4848   4.4848
     4.5735   4.5735   4.6523   4.8138   4.8138   4.9072   4.9072   5.1989
     5.2616   5.2616   5.4575   5.4575   5.6014   5.6014   5.6050   5.6050
     5.7512   5.7512   5.8150   5.9488   6.3379   6.4131   6.4310   6.4310
     6.4366   6.4366   6.4796   6.6509   6.6509   6.7571   6.7571   6.7806
     7.0042   7.0042   7.1001   7.3209   7.3209   7.3233

          k =-0.2500-0.4330 0.1111 (136853 PWs)   bands (ev):

    -6.4123  -6.0120  -6.0120  -5.3351  -4.9879  -4.9879  -4.9603  -4.9603
    -4.5401  -4.5401  -4.4583  -4.4183  -4.4143  -4.4142  -4.3716  -4.2559
    -4.2559  -4.2110  -4.1647  -4.1647  -4.1614  -4.1613  -4.1132  -4.1132
    -4.0841  -4.0840  -4.0636  -4.0434  -4.0433  -3.9665  -3.9665  -3.9477
    -3.9476  -3.9039  -3.9039  -3.9032  -3.8823  -3.8822  -3.8792  -3.8044
    -3.8044  -3.7429  -3.7428  -3.7254  -3.7254  -3.6635  -3.6635  -3.6351
    -3.6351  -3.5970  -3.5817  -3.5817  -3.5624  -3.5623  -3.5591  -3.5590
    -3.5534  -3.5331  -3.4724  -3.4659  -3.4659  -3.4450  -3.4120  -3.3830
    -3.3830  -3.3278  -3.3278  -3.3022  -3.3022  -3.2751  -3.2482  -3.2111
    -3.2110  -3.1746  -3.1746  -3.1370  -3.1326  -3.1326  -3.0922  -3.0599
    -3.0598  -3.0375  -3.0375  -3.0335  -3.0334  -3.0304  -3.0304  -3.0232
    -2.9687  -2.9099  -2.9099  -2.9083  -2.9083  -2.9040  -2.8818  -2.8818
    -2.8656  -2.7883  -2.7883  -2.7864  -2.7793  -2.7316  -2.7260  -2.7260
    -2.7043  -2.7042  -2.6532  -2.6352  -2.6351  -2.6309  -2.5910  -2.5902
    -2.5901  -2.5481  -2.5481  -2.4959  -2.4696  -2.4695  -2.4659  -2.4659
    -2.4436  -2.4436  -2.4385  -2.4304  -2.4303  -2.3961  -2.3635  -2.3596
    -2.3532  -2.3531  -2.3496  -2.3495  -2.3488  -2.3488  -2.3303  -2.3153
    -2.3141  -2.3141  -2.3106  -2.3105  -2.2987  -2.2936  -2.2936  -2.2671
    -2.2631  -2.2631  -2.2403  -2.2377  -2.2210  -2.2210  -2.1943  -2.1943
    -2.1934  -2.1933  -2.1855  -2.1854  -2.1854  -2.1854  -2.1705  -2.1705
    -2.1552  -2.1495  -2.1495  -2.0680  -2.0680  -2.0532  -2.0532  -2.0343
    -2.0343  -2.0126  -2.0003  -2.0003  -1.9810  -1.9627  -1.9626  -1.9537
    -1.9524  -1.9266  -1.9261  -1.9224  -1.9223  -1.9166  -1.9052  -1.8763
    -1.8468  -1.8277  -1.8277  -1.8069  -1.8019  -1.8018  -1.7422  -1.7422
    -1.7293  -1.7293  -1.6596  -1.6596  -1.6193  -1.6005  -1.6005  -1.5668
    -1.5668  -1.5395  -1.5395  -1.5195  -1.5195  -1.5174  -1.5174  -1.5021
    -1.4598  -1.4598  -1.4590  -1.4590  -1.4514  -1.4514  -1.4228  -1.4201
    -1.4200  -1.3854  -1.3741  -1.3740  -1.3686  -1.3686  -1.3616  -1.3455
    -1.3179  -1.3178  -1.3118  -1.3117  -1.2931  -1.2931  -1.2466  -1.2331
    -1.2331  -1.2320  -1.2083  -1.2083  -1.1639  -1.1284  -1.0779  -1.0779
    -1.0773  -1.0772  -1.0709  -1.0695  -1.0695  -1.0561  -1.0561  -1.0057
    -1.0056  -0.9887  -0.9887  -0.9720  -0.9600  -0.9600  -0.9470  -0.9443
    -0.9443  -0.9431  -0.9430  -0.8995  -0.8995  -0.8867  -0.8858  -0.8858
    -0.8708  -0.8708  -0.8401  -0.8304  -0.8303  -0.8025  -0.7823  -0.7823
    -0.7408  -0.7375  -0.7249  -0.7249  -0.7161  -0.7161  -0.7085  -0.7085
    -0.7042  -0.7042  -0.6751  -0.6750  -0.6647  -0.6647  -0.6533  -0.6395
    -0.6394  -0.6223  -0.6223  -0.5973  -0.5880  -0.5880  -0.5749  -0.5232
    -0.5213  -0.5213  -0.5171  -0.5099  -0.5088  -0.5087  -0.4876  -0.4876
    -0.4749  -0.4748  -0.4724  -0.4724  -0.4305  -0.4284  -0.4284  -0.4210
    -0.4210  -0.4131  -0.4131  -0.4095  -0.3993  -0.3927  -0.3927  -0.3604
    -0.3604  -0.3522  -0.3384  -0.3384  -0.2848  -0.2848  -0.2566  -0.2566
    -0.2477  -0.2476  -0.2145  -0.2041  -0.2041  -0.1854  -0.1853  -0.1851
    -0.1053  -0.1053   0.0061   0.4076   0.4076   0.4333   0.4333   0.4962
     0.4962   0.8464   0.8464   0.8598   0.8598   1.0308   1.0970   1.1884
     1.1884   1.4492   1.4492   2.0329   2.0329   2.1636   2.1637   2.3740
     2.3740   2.4442   2.4442   2.5325   2.8112   2.8221   2.9890   3.2050
     3.2051   3.2383   3.2383   3.3031   3.4012   3.5719   3.5719   3.6095
     3.8520   3.8520   3.9264   3.9264   4.1712   4.1712   4.2015   4.3922
     4.3922   4.4530   4.5375   4.8292   4.8660   4.8661   5.0570   5.1469
     5.1469   5.2722   5.2723   5.8764   5.9419   5.9419   6.0184   6.0184
     6.0781   6.0940   6.1603   6.1726   6.1726   6.1834   6.2429   6.2429
     6.2536   6.2536   6.3434   6.3436   6.5855   6.8276   6.8939   6.8939
     6.9298   6.9333   6.9487   7.0276   7.1235   7.1236

          k =-0.2500 0.4330-0.1111 (136853 PWs)   bands (ev):

    -6.4123  -6.0134  -6.0106  -5.3351  -4.9885  -4.9874  -4.9616  -4.9590
    -4.5408  -4.5393  -4.4583  -4.4183  -4.4144  -4.4140  -4.3716  -4.2564
    -4.2556  -4.2111  -4.1649  -4.1646  -4.1615  -4.1610  -4.1135  -4.1132
    -4.0857  -4.0825  -4.0635  -4.0438  -4.0428  -3.9672  -3.9655  -3.9479
    -3.9473  -3.9042  -3.9039  -3.9029  -3.8825  -3.8821  -3.8792  -3.8048
    -3.8042  -3.7438  -3.7419  -3.7254  -3.7253  -3.6637  -3.6632  -3.6352
    -3.6350  -3.5972  -3.5818  -3.5817  -3.5625  -3.5623  -3.5594  -3.5586
    -3.5535  -3.5331  -3.4723  -3.4661  -3.4658  -3.4449  -3.4117  -3.3836
    -3.3827  -3.3279  -3.3276  -3.3024  -3.3018  -3.2751  -3.2484  -3.2113
    -3.2111  -3.1750  -3.1740  -3.1370  -3.1328  -3.1326  -3.0921  -3.0604
    -3.0594  -3.0376  -3.0374  -3.0341  -3.0327  -3.0305  -3.0303  -3.0233
    -2.9686  -2.9107  -2.9093  -2.9084  -2.9080  -2.9041  -2.8823  -2.8813
    -2.8656  -2.7891  -2.7875  -2.7867  -2.7792  -2.7315  -2.7266  -2.7252
    -2.7045  -2.7044  -2.6533  -2.6351  -2.6348  -2.6310  -2.5911  -2.5903
    -2.5901  -2.5484  -2.5477  -2.4958  -2.4695  -2.4694  -2.4663  -2.4662
    -2.4438  -2.4432  -2.4386  -2.4309  -2.4300  -2.3962  -2.3635  -2.3595
    -2.3532  -2.3526  -2.3503  -2.3492  -2.3488  -2.3485  -2.3302  -2.3154
    -2.3146  -2.3134  -2.3107  -2.3106  -2.2987  -2.2936  -2.2932  -2.2669
    -2.2633  -2.2628  -2.2403  -2.2379  -2.2211  -2.2209  -2.1949  -2.1940
    -2.1937  -2.1931  -2.1859  -2.1853  -2.1852  -2.1848  -2.1709  -2.1703
    -2.1552  -2.1498  -2.1495  -2.0686  -2.0677  -2.0538  -2.0525  -2.0341
    -2.0340  -2.0125  -2.0006  -2.0000  -1.9809  -1.9630  -1.9624  -1.9538
    -1.9521  -1.9265  -1.9263  -1.9226  -1.9222  -1.9162  -1.9051  -1.8763
    -1.8468  -1.8280  -1.8277  -1.8069  -1.8023  -1.8017  -1.7431  -1.7412
    -1.7294  -1.7292  -1.6601  -1.6589  -1.6196  -1.6007  -1.6002  -1.5672
    -1.5664  -1.5397  -1.5393  -1.5199  -1.5192  -1.5177  -1.5171  -1.5022
    -1.4599  -1.4596  -1.4593  -1.4588  -1.4514  -1.4512  -1.4231  -1.4202
    -1.4200  -1.3855  -1.3745  -1.3737  -1.3690  -1.3682  -1.3617  -1.3452
    -1.3182  -1.3173  -1.3118  -1.3115  -1.2930  -1.2929  -1.2464  -1.2336
    -1.2326  -1.2320  -1.2086  -1.2082  -1.1640  -1.1285  -1.0780  -1.0777
    -1.0776  -1.0773  -1.0710  -1.0698  -1.0694  -1.0564  -1.0556  -1.0058
    -1.0053  -0.9889  -0.9886  -0.9719  -0.9603  -0.9597  -0.9468  -0.9446
    -0.9443  -0.9429  -0.9427  -0.8998  -0.8995  -0.8863  -0.8860  -0.8855
    -0.8710  -0.8706  -0.8404  -0.8305  -0.8298  -0.8027  -0.7824  -0.7820
    -0.7409  -0.7373  -0.7252  -0.7245  -0.7161  -0.7158  -0.7087  -0.7084
    -0.7044  -0.7041  -0.6754  -0.6748  -0.6649  -0.6647  -0.6534  -0.6396
    -0.6393  -0.6222  -0.6221  -0.5974  -0.5881  -0.5880  -0.5747  -0.5231
    -0.5216  -0.5212  -0.5170  -0.5098  -0.5089  -0.5086  -0.4878  -0.4875
    -0.4748  -0.4747  -0.4725  -0.4723  -0.4306  -0.4285  -0.4283  -0.4213
    -0.4207  -0.4131  -0.4131  -0.4093  -0.3993  -0.3932  -0.3924  -0.3607
    -0.3602  -0.3523  -0.3385  -0.3383  -0.2849  -0.2847  -0.2567  -0.2564
    -0.2477  -0.2476  -0.2144  -0.2043  -0.2039  -0.1858  -0.1852  -0.1849
    -0.1054  -0.1052   0.0061   0.4074   0.4079   0.4332   0.4334   0.4959
     0.4963   0.8464   0.8465   0.8596   0.8599   1.0307   1.0971   1.1880
     1.1889   1.4488   1.4496   2.0327   2.0329   2.1634   2.1641   2.3738
     2.3743   2.4438   2.4445   2.5323   2.8112   2.8224   2.9890   3.2045
     3.2055   3.2377   3.2389   3.3030   3.4012   3.5711   3.5727   3.6097
     3.8515   3.8525   3.9259   3.9270   4.1709   4.1713   4.2012   4.3916
     4.3926   4.4536   4.5372   4.8286   4.8654   4.8665   5.0571   5.1468
     5.1471   5.2719   5.2726   5.8765   5.9414   5.9425   6.0182   6.0185
     6.0781   6.0940   6.1602   6.1715   6.1736   6.1835   6.2429   6.2433
     6.2533   6.2540   6.3432   6.3438   6.5855   6.8273   6.8933   6.8948
     6.9298   6.9332   6.9487   7.0279   7.1236   7.1242

          k = 0.2500-0.4330-0.1111 (136853 PWs)   bands (ev):

    -6.4123  -6.0134  -6.0106  -5.3351  -4.9885  -4.9874  -4.9616  -4.9590
    -4.5408  -4.5393  -4.4583  -4.4183  -4.4144  -4.4140  -4.3716  -4.2564
    -4.2556  -4.2111  -4.1649  -4.1646  -4.1615  -4.1610  -4.1135  -4.1132
    -4.0857  -4.0825  -4.0635  -4.0438  -4.0428  -3.9672  -3.9655  -3.9479
    -3.9473  -3.9042  -3.9039  -3.9029  -3.8825  -3.8821  -3.8792  -3.8048
    -3.8042  -3.7438  -3.7419  -3.7254  -3.7253  -3.6637  -3.6632  -3.6352
    -3.6350  -3.5972  -3.5818  -3.5817  -3.5625  -3.5623  -3.5594  -3.5586
    -3.5535  -3.5331  -3.4723  -3.4661  -3.4658  -3.4449  -3.4117  -3.3836
    -3.3827  -3.3279  -3.3276  -3.3024  -3.3018  -3.2751  -3.2484  -3.2113
    -3.2111  -3.1750  -3.1740  -3.1370  -3.1328  -3.1326  -3.0921  -3.0604
    -3.0594  -3.0376  -3.0374  -3.0341  -3.0327  -3.0305  -3.0303  -3.0233
    -2.9686  -2.9107  -2.9093  -2.9084  -2.9080  -2.9041  -2.8823  -2.8813
    -2.8656  -2.7891  -2.7875  -2.7867  -2.7792  -2.7315  -2.7266  -2.7252
    -2.7046  -2.7044  -2.6533  -2.6351  -2.6348  -2.6310  -2.5911  -2.5903
    -2.5901  -2.5484  -2.5477  -2.4958  -2.4695  -2.4694  -2.4663  -2.4662
    -2.4438  -2.4432  -2.4386  -2.4309  -2.4300  -2.3962  -2.3635  -2.3595
    -2.3532  -2.3526  -2.3503  -2.3492  -2.3488  -2.3485  -2.3302  -2.3154
    -2.3146  -2.3134  -2.3107  -2.3106  -2.2987  -2.2936  -2.2932  -2.2669
    -2.2633  -2.2628  -2.2403  -2.2379  -2.2211  -2.2209  -2.1949  -2.1940
    -2.1937  -2.1931  -2.1859  -2.1853  -2.1852  -2.1848  -2.1709  -2.1703
    -2.1552  -2.1498  -2.1495  -2.0686  -2.0677  -2.0538  -2.0525  -2.0341
    -2.0340  -2.0125  -2.0006  -2.0000  -1.9809  -1.9630  -1.9624  -1.9538
    -1.9521  -1.9265  -1.9263  -1.9226  -1.9222  -1.9162  -1.9051  -1.8763
    -1.8468  -1.8280  -1.8277  -1.8069  -1.8023  -1.8017  -1.7431  -1.7412
    -1.7294  -1.7292  -1.6601  -1.6589  -1.6196  -1.6007  -1.6002  -1.5672
    -1.5664  -1.5397  -1.5393  -1.5199  -1.5192  -1.5177  -1.5171  -1.5022
    -1.4599  -1.4596  -1.4593  -1.4588  -1.4514  -1.4512  -1.4231  -1.4202
    -1.4200  -1.3855  -1.3745  -1.3737  -1.3690  -1.3682  -1.3617  -1.3452
    -1.3182  -1.3173  -1.3118  -1.3115  -1.2930  -1.2929  -1.2464  -1.2336
    -1.2326  -1.2320  -1.2086  -1.2082  -1.1640  -1.1285  -1.0780  -1.0777
    -1.0776  -1.0774  -1.0710  -1.0698  -1.0694  -1.0564  -1.0556  -1.0058
    -1.0053  -0.9889  -0.9886  -0.9719  -0.9603  -0.9597  -0.9468  -0.9446
    -0.9443  -0.9429  -0.9427  -0.8998  -0.8995  -0.8863  -0.8860  -0.8855
    -0.8710  -0.8706  -0.8404  -0.8305  -0.8298  -0.8027  -0.7824  -0.7820
    -0.7409  -0.7373  -0.7252  -0.7245  -0.7161  -0.7158  -0.7087  -0.7084
    -0.7044  -0.7041  -0.6754  -0.6748  -0.6649  -0.6647  -0.6534  -0.6396
    -0.6393  -0.6222  -0.6221  -0.5974  -0.5881  -0.5880  -0.5747  -0.5231
    -0.5216  -0.5212  -0.5170  -0.5098  -0.5089  -0.5086  -0.4878  -0.4875
    -0.4748  -0.4747  -0.4725  -0.4723  -0.4306  -0.4285  -0.4283  -0.4213
    -0.4207  -0.4131  -0.4131  -0.4093  -0.3993  -0.3932  -0.3924  -0.3607
    -0.3602  -0.3523  -0.3385  -0.3383  -0.2849  -0.2847  -0.2567  -0.2564
    -0.2477  -0.2476  -0.2144  -0.2043  -0.2039  -0.1858  -0.1852  -0.1849
    -0.1054  -0.1052   0.0061   0.4074   0.4079   0.4332   0.4334   0.4959
     0.4963   0.8464   0.8465   0.8596   0.8599   1.0307   1.0971   1.1880
     1.1889   1.4488   1.4496   2.0327   2.0329   2.1634   2.1641   2.3738
     2.3743   2.4438   2.4445   2.5323   2.8112   2.8224   2.9890   3.2045
     3.2055   3.2377   3.2389   3.3030   3.4012   3.5711   3.5727   3.6097
     3.8515   3.8525   3.9259   3.9270   4.1709   4.1713   4.2012   4.3916
     4.3926   4.4536   4.5372   4.8286   4.8654   4.8665   5.0571   5.1468
     5.1471   5.2719   5.2726   5.8765   5.9414   5.9425   6.0182   6.0185
     6.0781   6.0940   6.1602   6.1715   6.1736   6.1835   6.2429   6.2433
     6.2533   6.2540   6.3432   6.3438   6.5855   6.8273   6.8933   6.8948
     6.9298   6.9332   6.9487   7.0279   7.1236   7.1242

          k = 0.5000 0.0000 0.1111 (136853 PWs)   bands (ev):

    -6.4123  -6.0135  -6.0105  -5.3351  -4.9888  -4.9871  -4.9618  -4.9589
    -4.5408  -4.5393  -4.4583  -4.4182  -4.4143  -4.4140  -4.3716  -4.2565
    -4.2555  -4.2111  -4.1649  -4.1647  -4.1619  -4.1607  -4.1136  -4.1131
    -4.0857  -4.0826  -4.0635  -4.0437  -4.0429  -3.9672  -3.9654  -3.9478
    -3.9474  -3.9040  -3.9039  -3.9031  -3.8825  -3.8822  -3.8792  -3.8047
    -3.8043  -3.7439  -3.7418  -3.7255  -3.7253  -3.6638  -3.6631  -3.6352
    -3.6350  -3.5972  -3.5818  -3.5816  -3.5626  -3.5621  -3.5594  -3.5586
    -3.5535  -3.5331  -3.4723  -3.4661  -3.4658  -3.4449  -3.4117  -3.3835
    -3.3828  -3.3282  -3.3273  -3.3026  -3.3016  -3.2751  -3.2484  -3.2114
    -3.2109  -3.1748  -3.1741  -3.1370  -3.1327  -3.1326  -3.0920  -3.0602
    -3.0595  -3.0376  -3.0374  -3.0340  -3.0328  -3.0305  -3.0302  -3.0234
    -2.9686  -2.9107  -2.9093  -2.9084  -2.9080  -2.9041  -2.8819  -2.8817
    -2.8656  -2.7890  -2.7876  -2.7867  -2.7792  -2.7315  -2.7266  -2.7252
    -2.7047  -2.7042  -2.6533  -2.6352  -2.6347  -2.6309  -2.5911  -2.5903
    -2.5901  -2.5484  -2.5477  -2.4958  -2.4697  -2.4693  -2.4662  -2.4662
    -2.4438  -2.4432  -2.4386  -2.4308  -2.4300  -2.3962  -2.3635  -2.3595
    -2.3533  -2.3525  -2.3504  -2.3491  -2.3487  -2.3486  -2.3302  -2.3154
    -2.3146  -2.3133  -2.3108  -2.3106  -2.2988  -2.2937  -2.2932  -2.2668
    -2.2632  -2.2629  -2.2403  -2.2380  -2.2211  -2.2209  -2.1947  -2.1940
    -2.1939  -2.1930  -2.1858  -2.1854  -2.1852  -2.1848  -2.1708  -2.1704
    -2.1552  -2.1498  -2.1495  -2.0689  -2.0672  -2.0541  -2.0524  -2.0342
    -2.0339  -2.0125  -2.0005  -2.0001  -1.9809  -1.9630  -1.9625  -1.9537
    -1.9522  -1.9265  -1.9260  -1.9227  -1.9222  -1.9163  -1.9051  -1.8763
    -1.8468  -1.8281  -1.8276  -1.8070  -1.8023  -1.8016  -1.7430  -1.7413
    -1.7295  -1.7291  -1.6601  -1.6589  -1.6196  -1.6007  -1.6002  -1.5671
    -1.5665  -1.5397  -1.5393  -1.5197  -1.5195  -1.5176  -1.5172  -1.5022
    -1.4601  -1.4594  -1.4592  -1.4588  -1.4515  -1.4511  -1.4231  -1.4203
    -1.4199  -1.3855  -1.3745  -1.3737  -1.3689  -1.3683  -1.3617  -1.3452
    -1.3182  -1.3174  -1.3117  -1.3116  -1.2931  -1.2928  -1.2464  -1.2336
    -1.2326  -1.2320  -1.2085  -1.2082  -1.1641  -1.1285  -1.0780  -1.0777
    -1.0776  -1.0773  -1.0711  -1.0697  -1.0694  -1.0564  -1.0557  -1.0058
    -1.0054  -0.9889  -0.9887  -0.9719  -0.9604  -0.9596  -0.9469  -0.9447
    -0.9441  -0.9431  -0.9426  -0.8999  -0.8994  -0.8864  -0.8859  -0.8856
    -0.8710  -0.8707  -0.8404  -0.8305  -0.8300  -0.8026  -0.7823  -0.7821
    -0.7409  -0.7373  -0.7253  -0.7245  -0.7162  -0.7158  -0.7087  -0.7085
    -0.7043  -0.7042  -0.6754  -0.6747  -0.6649  -0.6647  -0.6534  -0.6396
    -0.6393  -0.6223  -0.6220  -0.5974  -0.5882  -0.5879  -0.5747  -0.5231
    -0.5214  -0.5213  -0.5170  -0.5098  -0.5089  -0.5087  -0.4878  -0.4875
    -0.4749  -0.4746  -0.4725  -0.4723  -0.4306  -0.4286  -0.4282  -0.4211
    -0.4208  -0.4132  -0.4131  -0.4093  -0.3993  -0.3929  -0.3926  -0.3606
    -0.3603  -0.3523  -0.3385  -0.3383  -0.2849  -0.2848  -0.2567  -0.2565
    -0.2478  -0.2475  -0.2144  -0.2042  -0.2040  -0.1857  -0.1852  -0.1850
    -0.1054  -0.1052   0.0061   0.4073   0.4079   0.4333   0.4334   0.4957
     0.4964   0.8462   0.8467   0.8593   0.8603   1.0307   1.0971   1.1880
     1.1890   1.4487   1.4497   2.0322   2.0334   2.1632   2.1642   2.3737
     2.3743   2.4434   2.4449   2.5323   2.8112   2.8224   2.9890   3.2044
     3.2057   3.2373   3.2393   3.3030   3.4012   3.5710   3.5728   3.6097
     3.8515   3.8526   3.9259   3.9269   4.1707   4.1715   4.2012   4.3914
     4.3929   4.4535   4.5372   4.8287   4.8654   4.8666   5.0571   5.1466
     5.1472   5.2715   5.2729   5.8765   5.9414   5.9425   6.0180   6.0186
     6.0781   6.0940   6.1602   6.1720   6.1731   6.1835   6.2428   6.2434
     6.2532   6.2541   6.3432   6.3438   6.5855   6.8273   6.8937   6.8943
     6.9298   6.9332   6.9487   7.0278   7.1235   7.1242

          k =-0.5000 0.0000 0.1111 (136853 PWs)   bands (ev):

    -6.4123  -6.0135  -6.0105  -5.3351  -4.9888  -4.9871  -4.9618  -4.9589
    -4.5408  -4.5393  -4.4583  -4.4182  -4.4143  -4.4140  -4.3716  -4.2565
    -4.2555  -4.2111  -4.1649  -4.1647  -4.1619  -4.1607  -4.1136  -4.1131
    -4.0857  -4.0826  -4.0635  -4.0437  -4.0429  -3.9672  -3.9654  -3.9478
    -3.9474  -3.9040  -3.9039  -3.9031  -3.8825  -3.8822  -3.8792  -3.8047
    -3.8043  -3.7439  -3.7418  -3.7255  -3.7253  -3.6638  -3.6631  -3.6352
    -3.6350  -3.5972  -3.5818  -3.5816  -3.5626  -3.5621  -3.5594  -3.5586
    -3.5535  -3.5331  -3.4723  -3.4661  -3.4658  -3.4449  -3.4117  -3.3835
    -3.3828  -3.3282  -3.3273  -3.3026  -3.3016  -3.2751  -3.2484  -3.2114
    -3.2109  -3.1748  -3.1741  -3.1370  -3.1327  -3.1326  -3.0920  -3.0602
    -3.0595  -3.0376  -3.0374  -3.0340  -3.0328  -3.0305  -3.0302  -3.0234
    -2.9686  -2.9107  -2.9093  -2.9084  -2.9080  -2.9041  -2.8819  -2.8817
    -2.8656  -2.7890  -2.7876  -2.7867  -2.7792  -2.7315  -2.7266  -2.7252
    -2.7047  -2.7042  -2.6533  -2.6352  -2.6347  -2.6309  -2.5911  -2.5903
    -2.5901  -2.5484  -2.5477  -2.4958  -2.4697  -2.4693  -2.4662  -2.4662
    -2.4438  -2.4432  -2.4386  -2.4308  -2.4300  -2.3962  -2.3635  -2.3595
    -2.3533  -2.3525  -2.3504  -2.3491  -2.3487  -2.3486  -2.3302  -2.3154
    -2.3146  -2.3133  -2.3108  -2.3106  -2.2988  -2.2937  -2.2932  -2.2668
    -2.2632  -2.2629  -2.2403  -2.2380  -2.2211  -2.2209  -2.1947  -2.1940
    -2.1939  -2.1930  -2.1858  -2.1854  -2.1852  -2.1848  -2.1708  -2.1704
    -2.1552  -2.1498  -2.1495  -2.0689  -2.0672  -2.0541  -2.0524  -2.0342
    -2.0339  -2.0125  -2.0005  -2.0001  -1.9809  -1.9630  -1.9625  -1.9537
    -1.9522  -1.9265  -1.9260  -1.9227  -1.9222  -1.9163  -1.9051  -1.8763
    -1.8468  -1.8281  -1.8276  -1.8070  -1.8023  -1.8016  -1.7430  -1.7413
    -1.7295  -1.7291  -1.6601  -1.6589  -1.6196  -1.6007  -1.6002  -1.5671
    -1.5665  -1.5397  -1.5393  -1.5197  -1.5195  -1.5176  -1.5172  -1.5022
    -1.4601  -1.4594  -1.4592  -1.4588  -1.4515  -1.4511  -1.4231  -1.4203
    -1.4199  -1.3855  -1.3745  -1.3737  -1.3689  -1.3683  -1.3617  -1.3452
    -1.3182  -1.3174  -1.3117  -1.3116  -1.2931  -1.2928  -1.2464  -1.2336
    -1.2326  -1.2320  -1.2085  -1.2082  -1.1641  -1.1285  -1.0780  -1.0777
    -1.0776  -1.0773  -1.0711  -1.0697  -1.0694  -1.0564  -1.0557  -1.0058
    -1.0054  -0.9889  -0.9887  -0.9719  -0.9604  -0.9596  -0.9469  -0.9447
    -0.9441  -0.9431  -0.9426  -0.8999  -0.8994  -0.8864  -0.8859  -0.8856
    -0.8710  -0.8707  -0.8404  -0.8305  -0.8300  -0.8026  -0.7823  -0.7821
    -0.7409  -0.7373  -0.7253  -0.7245  -0.7162  -0.7158  -0.7087  -0.7084
    -0.7043  -0.7042  -0.6754  -0.6747  -0.6649  -0.6647  -0.6534  -0.6396
    -0.6393  -0.6223  -0.6220  -0.5974  -0.5882  -0.5879  -0.5747  -0.5231
    -0.5215  -0.5213  -0.5170  -0.5098  -0.5089  -0.5087  -0.4878  -0.4875
    -0.4749  -0.4746  -0.4725  -0.4723  -0.4306  -0.4286  -0.4282  -0.4211
    -0.4208  -0.4132  -0.4131  -0.4093  -0.3993  -0.3929  -0.3926  -0.3606
    -0.3603  -0.3523  -0.3385  -0.3383  -0.2849  -0.2848  -0.2567  -0.2565
    -0.2478  -0.2475  -0.2144  -0.2042  -0.2040  -0.1857  -0.1852  -0.1850
    -0.1054  -0.1052   0.0061   0.4073   0.4079   0.4333   0.4334   0.4957
     0.4964   0.8462   0.8467   0.8593   0.8603   1.0307   1.0971   1.1880
     1.1890   1.4487   1.4497   2.0322   2.0334   2.1632   2.1642   2.3737
     2.3743   2.4434   2.4449   2.5323   2.8112   2.8224   2.9890   3.2044
     3.2057   3.2373   3.2393   3.3030   3.4012   3.5710   3.5728   3.6097
     3.8515   3.8526   3.9259   3.9269   4.1707   4.1715   4.2012   4.3914
     4.3929   4.4535   4.5372   4.8287   4.8654   4.8666   5.0571   5.1466
     5.1472   5.2715   5.2729   5.8765   5.9414   5.9425   6.0180   6.0186
     6.0781   6.0940   6.1602   6.1720   6.1731   6.1835   6.2428   6.2434
     6.2532   6.2541   6.3432   6.3438   6.5855   6.8273   6.8937   6.8943
     6.9298   6.9332   6.9487   7.0278   7.1235   7.1242

          k =-0.2500 0.1443 0.1111 (136898 PWs)   bands (ev):

    -6.6223  -5.8277  -5.5391  -5.4737  -5.4737  -4.9169  -4.9168  -4.8038
    -4.7674  -4.6169  -4.5466  -4.5142  -4.5142  -4.4675  -4.3970  -4.3970
    -4.2599  -4.2175  -4.2175  -4.1963  -4.1957  -4.1948  -4.0741  -4.0741
    -3.9947  -3.9836  -3.9820  -3.9819  -3.9614  -3.9614  -3.8958  -3.8397
    -3.8397  -3.8272  -3.8168  -3.8168  -3.8054  -3.8053  -3.7970  -3.7499
    -3.7498  -3.7404  -3.7404  -3.7279  -3.7279  -3.6969  -3.6931  -3.6930
    -3.6572  -3.6572  -3.6387  -3.6387  -3.6188  -3.5768  -3.5768  -3.5154
    -3.5154  -3.4931  -3.4931  -3.4766  -3.4032  -3.4032  -3.3943  -3.3943
    -3.3773  -3.3773  -3.3538  -3.3538  -3.2022  -3.2022  -3.1840  -3.1840
    -3.1793  -3.1407  -3.1407  -3.1357  -3.1357  -3.0797  -3.0797  -3.0607
    -3.0607  -3.0224  -2.9985  -2.9985  -2.9762  -2.9682  -2.9682  -2.9234
    -2.9234  -2.9041  -2.9041  -2.8991  -2.8991  -2.8737  -2.8737  -2.8290
    -2.8290  -2.8229  -2.8229  -2.8081  -2.7591  -2.7590  -2.7356  -2.7273
    -2.7273  -2.6477  -2.6476  -2.6174  -2.6174  -2.6104  -2.6016  -2.5798
    -2.5523  -2.5523  -2.5349  -2.5318  -2.5275  -2.5275  -2.5146  -2.5057
    -2.5057  -2.4970  -2.4970  -2.4889  -2.4889  -2.4373  -2.4114  -2.3923
    -2.3880  -2.3880  -2.3718  -2.3718  -2.3687  -2.3687  -2.3578  -2.3276
    -2.3276  -2.3160  -2.3102  -2.2972  -2.2972  -2.2949  -2.2691  -2.2691
    -2.2587  -2.2506  -2.2505  -2.1938  -2.1825  -2.1704  -2.1704  -2.1684
    -2.1488  -2.1488  -2.1357  -2.1149  -2.1149  -2.1096  -2.1096  -2.0985
    -2.0862  -2.0862  -2.0728  -2.0569  -2.0568  -2.0094  -2.0094  -1.9999
    -1.9997  -1.9996  -1.9965  -1.9868  -1.9866  -1.9837  -1.9836  -1.9708
    -1.9657  -1.9657  -1.8510  -1.8510  -1.8215  -1.8214  -1.8211  -1.7985
    -1.7939  -1.7939  -1.7838  -1.7838  -1.7636  -1.7635  -1.7629  -1.7568
    -1.7568  -1.7203  -1.7203  -1.7192  -1.6894  -1.6894  -1.6835  -1.6835
    -1.6696  -1.6696  -1.6122  -1.6095  -1.5857  -1.5857  -1.5770  -1.5710
    -1.5486  -1.5486  -1.5431  -1.5431  -1.5396  -1.5396  -1.5273  -1.5273
    -1.5077  -1.4702  -1.4702  -1.4390  -1.4390  -1.4287  -1.3915  -1.3915
    -1.3578  -1.3577  -1.3473  -1.3470  -1.3331  -1.3160  -1.3153  -1.2957
    -1.2957  -1.2651  -1.2650  -1.2458  -1.2458  -1.2121  -1.2121  -1.2003
    -1.1460  -1.1460  -1.1416  -1.1415  -1.1217  -1.1217  -1.1049  -1.1049
    -1.0742  -1.0628  -1.0426  -1.0405  -1.0405  -1.0093  -0.9893  -0.9890
    -0.9889  -0.9789  -0.9789  -0.9736  -0.9736  -0.9433  -0.9358  -0.9358
    -0.9226  -0.9226  -0.9163  -0.9163  -0.8972  -0.8804  -0.8804  -0.8515
    -0.8515  -0.7688  -0.7506  -0.7503  -0.7501  -0.7483  -0.7432  -0.7431
    -0.7343  -0.7126  -0.6910  -0.6909  -0.6857  -0.6857  -0.6673  -0.6521
    -0.6521  -0.6479  -0.6327  -0.5526  -0.5526  -0.5241  -0.5241  -0.5143
    -0.5143  -0.5070  -0.5058  -0.5058  -0.4994  -0.4994  -0.4823  -0.4496
    -0.4371  -0.4177  -0.4177  -0.4088  -0.4088  -0.4012  -0.4012  -0.3931
    -0.3903  -0.3903  -0.3722  -0.3695  -0.3694  -0.3377  -0.3377  -0.3368
    -0.3197  -0.3197  -0.2969  -0.2708  -0.2708  -0.2608  -0.2608  -0.1927
    -0.1927  -0.1742  -0.1742  -0.1121  -0.1098  -0.1090  -0.1090  -0.0815
     0.1263   0.1263   0.4697   0.4697   0.5452   0.5452   0.6958   0.7249
     0.7461   0.8817   0.8817   1.2598   1.3273   1.3273   1.5617   1.5617
     1.6168   1.9281   1.9281   1.9609   1.9609   1.9997   1.9997   2.1546
     2.1546   2.3294   2.3294   2.3416   2.4855   2.4855   2.5321   2.7420
     3.1091   3.1091   3.1507   3.1507   3.1582   3.1583   3.4853   3.4854
     3.8209   3.8209   3.8938   4.1542   4.2841   4.2841   4.4848   4.4848
     4.5735   4.5735   4.6523   4.8138   4.8138   4.9072   4.9072   5.1989
     5.2616   5.2616   5.4575   5.4575   5.6014   5.6014   5.6050   5.6050
     5.7512   5.7512   5.8150   5.9488   6.3379   6.4127   6.4310   6.4310
     6.4366   6.4366   6.4790   6.6509   6.6509   6.7577   6.7577   6.7815
     7.0042   7.0042   7.1093   7.3209   7.3209   7.3224

          k =-0.2500-0.1443-0.1111 (136898 PWs)   bands (ev):

    -6.6223  -5.8277  -5.5391  -5.4737  -5.4737  -4.9168  -4.9168  -4.8038
    -4.7675  -4.6169  -4.5466  -4.5143  -4.5143  -4.4676  -4.3971  -4.3968
    -4.2599  -4.2177  -4.2174  -4.1963  -4.1956  -4.1947  -4.0740  -4.0740
    -3.9946  -3.9837  -3.9820  -3.9819  -3.9616  -3.9611  -3.8958  -3.8399
    -3.8396  -3.8271  -3.8170  -3.8167  -3.8054  -3.8054  -3.7970  -3.7499
    -3.7499  -3.7404  -3.7403  -3.7281  -3.7278  -3.6968  -3.6930  -3.6930
    -3.6574  -3.6571  -3.6387  -3.6386  -3.6190  -3.5768  -3.5766  -3.5155
    -3.5154  -3.4930  -3.4929  -3.4765  -3.4034  -3.4033  -3.3942  -3.3942
    -3.3775  -3.3772  -3.3539  -3.3538  -3.2023  -3.2022  -3.1841  -3.1840
    -3.1792  -3.1408  -3.1406  -3.1358  -3.1355  -3.0798  -3.0798  -3.0608
    -3.0606  -3.0223  -2.9986  -2.9983  -2.9762  -2.9683  -2.9683  -2.9235
    -2.9234  -2.9042  -2.9041  -2.8992  -2.8991  -2.8736  -2.8735  -2.8290
    -2.8288  -2.8229  -2.8228  -2.8080  -2.7591  -2.7590  -2.7358  -2.7274
    -2.7272  -2.6477  -2.6473  -2.6173  -2.6172  -2.6105  -2.6015  -2.5799
    -2.5525  -2.5521  -2.5348  -2.5318  -2.5276  -2.5275  -2.5149  -2.5057
    -2.5056  -2.4970  -2.4969  -2.4892  -2.4890  -2.4373  -2.4114  -2.3922
    -2.3881  -2.3880  -2.3720  -2.3718  -2.3687  -2.3686  -2.3580  -2.3277
    -2.3274  -2.3161  -2.3103  -2.2973  -2.2969  -2.2947  -2.2690  -2.2689
    -2.2590  -2.2507  -2.2503  -2.1940  -2.1826  -2.1705  -2.1704  -2.1683
    -2.1490  -2.1483  -2.1357  -2.1148  -2.1148  -2.1095  -2.1094  -2.0984
    -2.0862  -2.0862  -2.0729  -2.0568  -2.0568  -2.0094  -2.0093  -2.0000
    -1.9996  -1.9996  -1.9962  -1.9868  -1.9867  -1.9842  -1.9834  -1.9708
    -1.9659  -1.9658  -1.8510  -1.8510  -1.8214  -1.8213  -1.8211  -1.7980
    -1.7947  -1.7941  -1.7838  -1.7837  -1.7634  -1.7634  -1.7630  -1.7567
    -1.7566  -1.7203  -1.7200  -1.7191  -1.6897  -1.6896  -1.6840  -1.6832
    -1.6696  -1.6696  -1.6122  -1.6094  -1.5857  -1.5856  -1.5767  -1.5710
    -1.5488  -1.5487  -1.5433  -1.5431  -1.5400  -1.5392  -1.5271  -1.5270
    -1.5078  -1.4704  -1.4703  -1.4393  -1.4387  -1.4291  -1.3914  -1.3913
    -1.3577  -1.3575  -1.3474  -1.3468  -1.3331  -1.3159  -1.3154  -1.2956
    -1.2956  -1.2650  -1.2649  -1.2459  -1.2458  -1.2121  -1.2121  -1.2004
    -1.1460  -1.1460  -1.1417  -1.1417  -1.1219  -1.1217  -1.1047  -1.1046
    -1.0738  -1.0626  -1.0427  -1.0407  -1.0403  -1.0090  -0.9896  -0.9890
    -0.9889  -0.9791  -0.9791  -0.9737  -0.9737  -0.9432  -0.9359  -0.9357
    -0.9227  -0.9225  -0.9167  -0.9160  -0.8973  -0.8806  -0.8806  -0.8515
    -0.8514  -0.7686  -0.7507  -0.7503  -0.7500  -0.7480  -0.7435  -0.7432
    -0.7340  -0.7126  -0.6911  -0.6909  -0.6858  -0.6858  -0.6675  -0.6519
    -0.6519  -0.6481  -0.6328  -0.5526  -0.5524  -0.5240  -0.5240  -0.5144
    -0.5143  -0.5070  -0.5059  -0.5057  -0.4995  -0.4992  -0.4824  -0.4498
    -0.4370  -0.4177  -0.4177  -0.4088  -0.4088  -0.4012  -0.4010  -0.3931
    -0.3903  -0.3902  -0.3721  -0.3696  -0.3695  -0.3376  -0.3375  -0.3368
    -0.3197  -0.3196  -0.2970  -0.2708  -0.2707  -0.2608  -0.2607  -0.1929
    -0.1928  -0.1745  -0.1739  -0.1121  -0.1100  -0.1091  -0.1089  -0.0815
     0.1264   0.1265   0.4697   0.4697   0.5452   0.5454   0.6958   0.7247
     0.7461   0.8816   0.8817   1.2600   1.3272   1.3274   1.5616   1.5618
     1.6169   1.9280   1.9281   1.9607   1.9609   1.9997   1.9998   2.1543
     2.1546   2.3294   2.3294   2.3416   2.4854   2.4855   2.5319   2.7420
     3.1089   3.1094   3.1507   3.1510   3.1582   3.1583   3.4851   3.4856
     3.8209   3.8210   3.8937   4.1542   4.2839   4.2840   4.4848   4.4848
     4.5732   4.5739   4.6523   4.8135   4.8139   4.9074   4.9076   5.1990
     5.2614   5.2618   5.4575   5.4575   5.6011   5.6013   5.6049   5.6050
     5.7511   5.7516   5.8150   5.9488   6.3375   6.4127   6.4309   6.4313
     6.4368   6.4368   6.4790   6.6508   6.6510   6.7577   6.7577   6.7815
     7.0042   7.0043   7.1093   7.3205   7.3210   7.3223

          k = 0.2500 0.1443-0.1111 (136898 PWs)   bands (ev):

    -6.6223  -5.8277  -5.5391  -5.4737  -5.4737  -4.9168  -4.9168  -4.8038
    -4.7675  -4.6169  -4.5466  -4.5143  -4.5143  -4.4676  -4.3971  -4.3968
    -4.2598  -4.2177  -4.2174  -4.1963  -4.1956  -4.1947  -4.0740  -4.0740
    -3.9946  -3.9837  -3.9820  -3.9819  -3.9616  -3.9611  -3.8958  -3.8399
    -3.8396  -3.8271  -3.8170  -3.8167  -3.8054  -3.8053  -3.7970  -3.7499
    -3.7499  -3.7404  -3.7403  -3.7281  -3.7278  -3.6968  -3.6930  -3.6930
    -3.6574  -3.6571  -3.6387  -3.6386  -3.6190  -3.5768  -3.5766  -3.5155
    -3.5154  -3.4930  -3.4929  -3.4765  -3.4034  -3.4033  -3.3942  -3.3942
    -3.3775  -3.3772  -3.3539  -3.3538  -3.2023  -3.2022  -3.1841  -3.1840
    -3.1792  -3.1408  -3.1407  -3.1358  -3.1355  -3.0798  -3.0798  -3.0608
    -3.0606  -3.0223  -2.9986  -2.9983  -2.9762  -2.9683  -2.9683  -2.9235
    -2.9234  -2.9042  -2.9041  -2.8992  -2.8991  -2.8736  -2.8735  -2.8290
    -2.8288  -2.8229  -2.8228  -2.8080  -2.7591  -2.7590  -2.7357  -2.7274
    -2.7272  -2.6477  -2.6473  -2.6173  -2.6172  -2.6105  -2.6015  -2.5799
    -2.5525  -2.5520  -2.5348  -2.5318  -2.5276  -2.5275  -2.5148  -2.5057
    -2.5056  -2.4970  -2.4969  -2.4892  -2.4890  -2.4373  -2.4114  -2.3922
    -2.3881  -2.3880  -2.3720  -2.3718  -2.3687  -2.3686  -2.3580  -2.3277
    -2.3274  -2.3161  -2.3103  -2.2973  -2.2969  -2.2947  -2.2690  -2.2689
    -2.2590  -2.2507  -2.2503  -2.1940  -2.1826  -2.1705  -2.1704  -2.1683
    -2.1490  -2.1483  -2.1357  -2.1148  -2.1148  -2.1095  -2.1094  -2.0984
    -2.0862  -2.0862  -2.0729  -2.0568  -2.0568  -2.0094  -2.0093  -2.0000
    -1.9996  -1.9996  -1.9962  -1.9868  -1.9867  -1.9842  -1.9834  -1.9708
    -1.9659  -1.9658  -1.8510  -1.8510  -1.8214  -1.8213  -1.8211  -1.7980
    -1.7947  -1.7941  -1.7838  -1.7837  -1.7634  -1.7634  -1.7630  -1.7567
    -1.7566  -1.7203  -1.7200  -1.7191  -1.6897  -1.6896  -1.6840  -1.6832
    -1.6696  -1.6696  -1.6122  -1.6094  -1.5857  -1.5856  -1.5767  -1.5710
    -1.5488  -1.5487  -1.5433  -1.5431  -1.5400  -1.5392  -1.5271  -1.5270
    -1.5078  -1.4704  -1.4703  -1.4393  -1.4387  -1.4291  -1.3914  -1.3913
    -1.3577  -1.3575  -1.3474  -1.3468  -1.3331  -1.3159  -1.3154  -1.2956
    -1.2956  -1.2650  -1.2649  -1.2459  -1.2458  -1.2121  -1.2121  -1.2004
    -1.1460  -1.1460  -1.1417  -1.1417  -1.1219  -1.1217  -1.1047  -1.1046
    -1.0738  -1.0626  -1.0427  -1.0407  -1.0403  -1.0090  -0.9896  -0.9890
    -0.9889  -0.9791  -0.9791  -0.9737  -0.9737  -0.9433  -0.9359  -0.9357
    -0.9227  -0.9225  -0.9167  -0.9160  -0.8973  -0.8806  -0.8806  -0.8515
    -0.8514  -0.7687  -0.7507  -0.7503  -0.7500  -0.7480  -0.7435  -0.7432
    -0.7340  -0.7126  -0.6911  -0.6909  -0.6858  -0.6858  -0.6675  -0.6519
    -0.6519  -0.6481  -0.6328  -0.5526  -0.5524  -0.5240  -0.5240  -0.5144
    -0.5143  -0.5070  -0.5059  -0.5057  -0.4995  -0.4992  -0.4824  -0.4497
    -0.4370  -0.4177  -0.4177  -0.4088  -0.4088  -0.4012  -0.4010  -0.3931
    -0.3903  -0.3902  -0.3721  -0.3697  -0.3695  -0.3376  -0.3375  -0.3368
    -0.3197  -0.3196  -0.2970  -0.2708  -0.2707  -0.2608  -0.2607  -0.1929
    -0.1928  -0.1745  -0.1739  -0.1121  -0.1100  -0.1091  -0.1089  -0.0815
     0.1264   0.1265   0.4697   0.4697   0.5452   0.5454   0.6958   0.7247
     0.7461   0.8816   0.8817   1.2600   1.3272   1.3274   1.5616   1.5618
     1.6169   1.9280   1.9281   1.9607   1.9609   1.9997   1.9998   2.1543
     2.1546   2.3294   2.3294   2.3416   2.4854   2.4855   2.5319   2.7420
     3.1089   3.1094   3.1507   3.1510   3.1582   3.1583   3.4851   3.4856
     3.8209   3.8210   3.8937   4.1542   4.2839   4.2840   4.4848   4.4848
     4.5732   4.5739   4.6523   4.8135   4.8139   4.9074   4.9076   5.1990
     5.2614   5.2618   5.4575   5.4575   5.6011   5.6013   5.6049   5.6050
     5.7511   5.7516   5.8150   5.9488   6.3375   6.4131   6.4309   6.4313
     6.4368   6.4368   6.4796   6.6508   6.6510   6.7571   6.7571   6.7806
     7.0042   7.0043   7.1001   7.3205   7.3230   7.3232

          k = 0.0000-0.2887 0.1111 (136898 PWs)   bands (ev):

    -6.6223  -5.8277  -5.5391  -5.4737  -5.4737  -4.9168  -4.9168  -4.8038
    -4.7675  -4.6169  -4.5466  -4.5143  -4.5143  -4.4677  -4.3970  -4.3969
    -4.2599  -4.2176  -4.2175  -4.1962  -4.1956  -4.1949  -4.0740  -4.0740
    -3.9947  -3.9836  -3.9820  -3.9819  -3.9615  -3.9613  -3.8958  -3.8398
    -3.8397  -3.8271  -3.8170  -3.8167  -3.8054  -3.8053  -3.7970  -3.7499
    -3.7498  -3.7404  -3.7403  -3.7281  -3.7278  -3.6967  -3.6930  -3.6930
    -3.6574  -3.6571  -3.6387  -3.6386  -3.6190  -3.5768  -3.5767  -3.5155
    -3.5154  -3.4931  -3.4929  -3.4765  -3.4034  -3.4033  -3.3942  -3.3942
    -3.3775  -3.3772  -3.3539  -3.3538  -3.2023  -3.2022  -3.1841  -3.1839
    -3.1792  -3.1408  -3.1407  -3.1359  -3.1354  -3.0798  -3.0798  -3.0608
    -3.0606  -3.0223  -2.9987  -2.9982  -2.9762  -2.9683  -2.9682  -2.9234
    -2.9234  -2.9042  -2.9041  -2.8991  -2.8991  -2.8736  -2.8735  -2.8291
    -2.8288  -2.8229  -2.8228  -2.8080  -2.7591  -2.7590  -2.7358  -2.7273
    -2.7272  -2.6479  -2.6472  -2.6173  -2.6172  -2.6104  -2.6015  -2.5799
    -2.5523  -2.5522  -2.5348  -2.5318  -2.5276  -2.5274  -2.5149  -2.5057
    -2.5057  -2.4969  -2.4969  -2.4892  -2.4890  -2.4373  -2.4114  -2.3922
    -2.3881  -2.3880  -2.3720  -2.3718  -2.3687  -2.3687  -2.3580  -2.3278
    -2.3273  -2.3161  -2.3103  -2.2972  -2.2969  -2.2947  -2.2690  -2.2689
    -2.2589  -2.2508  -2.2504  -2.1940  -2.1826  -2.1705  -2.1704  -2.1683
    -2.1489  -2.1485  -2.1357  -2.1148  -2.1147  -2.1096  -2.1095  -2.0984
    -2.0862  -2.0862  -2.0729  -2.0568  -2.0567  -2.0094  -2.0092  -2.0000
    -1.9997  -1.9995  -1.9962  -1.9868  -1.9866  -1.9840  -1.9836  -1.9708
    -1.9658  -1.9658  -1.8510  -1.8510  -1.8214  -1.8214  -1.8211  -1.7980
    -1.7946  -1.7942  -1.7838  -1.7837  -1.7635  -1.7635  -1.7630  -1.7567
    -1.7566  -1.7203  -1.7200  -1.7191  -1.6897  -1.6896  -1.6839  -1.6833
    -1.6696  -1.6696  -1.6122  -1.6094  -1.5857  -1.5856  -1.5767  -1.5710
    -1.5487  -1.5487  -1.5433  -1.5431  -1.5400  -1.5393  -1.5271  -1.5270
    -1.5078  -1.4704  -1.4702  -1.4392  -1.4388  -1.4291  -1.3914  -1.3913
    -1.3578  -1.3575  -1.3474  -1.3468  -1.3331  -1.3160  -1.3154  -1.2956
    -1.2956  -1.2650  -1.2649  -1.2459  -1.2458  -1.2121  -1.2121  -1.2004
    -1.1460  -1.1460  -1.1417  -1.1417  -1.1221  -1.1214  -1.1047  -1.1047
    -1.0738  -1.0627  -1.0427  -1.0407  -1.0403  -1.0090  -0.9895  -0.9890
    -0.9889  -0.9790  -0.9790  -0.9737  -0.9737  -0.9433  -0.9360  -0.9356
    -0.9228  -0.9225  -0.9165  -0.9162  -0.8973  -0.8806  -0.8806  -0.8515
    -0.8514  -0.7687  -0.7507  -0.7503  -0.7500  -0.7480  -0.7435  -0.7432
    -0.7341  -0.7126  -0.6911  -0.6909  -0.6858  -0.6857  -0.6675  -0.6519
    -0.6519  -0.6480  -0.6328  -0.5526  -0.5525  -0.5241  -0.5240  -0.5144
    -0.5143  -0.5070  -0.5058  -0.5058  -0.4995  -0.4992  -0.4824  -0.4497
    -0.4370  -0.4177  -0.4177  -0.4088  -0.4088  -0.4012  -0.4011  -0.3931
    -0.3903  -0.3903  -0.3721  -0.3696  -0.3695  -0.3377  -0.3375  -0.3368
    -0.3197  -0.3195  -0.2970  -0.2708  -0.2707  -0.2608  -0.2607  -0.1928
    -0.1928  -0.1744  -0.1739  -0.1122  -0.1100  -0.1091  -0.1089  -0.0814
     0.1264   0.1265   0.4697   0.4697   0.5452   0.5454   0.6958   0.7247
     0.7461   0.8816   0.8817   1.2600   1.3273   1.3273   1.5617   1.5617
     1.6168   1.9280   1.9281   1.9607   1.9610   1.9997   1.9997   2.1543
     2.1546   2.3294   2.3294   2.3416   2.4854   2.4855   2.5319   2.7420
     3.1089   3.1094   3.1508   3.1509   3.1582   3.1583   3.4853   3.4854
     3.8209   3.8210   3.8937   4.1542   4.2839   4.2840   4.4848   4.4848
     4.5734   4.5738   4.6523   4.8135   4.8139   4.9074   4.9076   5.1990
     5.2614   5.2618   5.4575   5.4575   5.6011   5.6013   5.6048   5.6050
     5.7510   5.7517   5.8149   5.9488   6.3375   6.4127   6.4308   6.4313
     6.4368   6.4368   6.4790   6.6508   6.6510   6.7577   6.7577   6.7815
     7.0042   7.0043   7.1093   7.3205   7.3211   7.3223

          k = 0.0000 0.2887 0.1111 (136898 PWs)   bands (ev):

    -6.6223  -5.8277  -5.5391  -5.4737  -5.4737  -4.9168  -4.9168  -4.8038
    -4.7675  -4.6169  -4.5466  -4.5143  -4.5143  -4.4677  -4.3970  -4.3969
    -4.2599  -4.2176  -4.2175  -4.1962  -4.1956  -4.1949  -4.0740  -4.0740
    -3.9947  -3.9836  -3.9820  -3.9819  -3.9615  -3.9613  -3.8958  -3.8398
    -3.8397  -3.8271  -3.8170  -3.8167  -3.8054  -3.8053  -3.7970  -3.7499
    -3.7498  -3.7404  -3.7403  -3.7281  -3.7278  -3.6967  -3.6930  -3.6930
    -3.6574  -3.6571  -3.6387  -3.6386  -3.6190  -3.5768  -3.5767  -3.5155
    -3.5154  -3.4931  -3.4929  -3.4765  -3.4034  -3.4033  -3.3942  -3.3942
    -3.3775  -3.3772  -3.3539  -3.3538  -3.2023  -3.2022  -3.1841  -3.1839
    -3.1792  -3.1408  -3.1407  -3.1359  -3.1354  -3.0798  -3.0798  -3.0608
    -3.0606  -3.0223  -2.9987  -2.9982  -2.9762  -2.9683  -2.9682  -2.9234
    -2.9234  -2.9042  -2.9041  -2.8991  -2.8991  -2.8736  -2.8735  -2.8291
    -2.8288  -2.8229  -2.8228  -2.8080  -2.7591  -2.7590  -2.7358  -2.7273
    -2.7272  -2.6479  -2.6472  -2.6173  -2.6172  -2.6104  -2.6014  -2.5799
    -2.5523  -2.5522  -2.5348  -2.5318  -2.5276  -2.5274  -2.5149  -2.5057
    -2.5057  -2.4969  -2.4969  -2.4892  -2.4890  -2.4373  -2.4114  -2.3922
    -2.3881  -2.3880  -2.3720  -2.3718  -2.3687  -2.3687  -2.3580  -2.3278
    -2.3273  -2.3161  -2.3102  -2.2972  -2.2969  -2.2947  -2.2690  -2.2689
    -2.2589  -2.2508  -2.2504  -2.1940  -2.1826  -2.1705  -2.1704  -2.1683
    -2.1489  -2.1485  -2.1357  -2.1148  -2.1147  -2.1096  -2.1095  -2.0984
    -2.0862  -2.0862  -2.0729  -2.0568  -2.0567  -2.0094  -2.0092  -2.0000
    -1.9997  -1.9995  -1.9962  -1.9868  -1.9866  -1.9840  -1.9836  -1.9708
    -1.9658  -1.9658  -1.8510  -1.8510  -1.8214  -1.8214  -1.8211  -1.7980
    -1.7946  -1.7942  -1.7838  -1.7837  -1.7635  -1.7635  -1.7630  -1.7567
    -1.7566  -1.7203  -1.7200  -1.7192  -1.6897  -1.6896  -1.6839  -1.6833
    -1.6696  -1.6696  -1.6122  -1.6094  -1.5857  -1.5856  -1.5767  -1.5710
    -1.5487  -1.5487  -1.5433  -1.5431  -1.5400  -1.5393  -1.5271  -1.5270
    -1.5078  -1.4704  -1.4703  -1.4392  -1.4388  -1.4291  -1.3914  -1.3913
    -1.3578  -1.3575  -1.3474  -1.3468  -1.3331  -1.3160  -1.3154  -1.2956
    -1.2956  -1.2650  -1.2649  -1.2459  -1.2458  -1.2121  -1.2121  -1.2004
    -1.1460  -1.1460  -1.1417  -1.1417  -1.1221  -1.1214  -1.1047  -1.1047
    -1.0738  -1.0627  -1.0427  -1.0407  -1.0403  -1.0090  -0.9895  -0.9890
    -0.9889  -0.9790  -0.9790  -0.9737  -0.9737  -0.9433  -0.9360  -0.9356
    -0.9228  -0.9225  -0.9165  -0.9162  -0.8973  -0.8806  -0.8806  -0.8515
    -0.8514  -0.7687  -0.7507  -0.7503  -0.7500  -0.7480  -0.7435  -0.7432
    -0.7341  -0.7126  -0.6911  -0.6909  -0.6858  -0.6857  -0.6675  -0.6519
    -0.6519  -0.6480  -0.6328  -0.5526  -0.5525  -0.5241  -0.5240  -0.5144
    -0.5143  -0.5070  -0.5058  -0.5058  -0.4995  -0.4992  -0.4824  -0.4497
    -0.4370  -0.4177  -0.4177  -0.4088  -0.4088  -0.4012  -0.4011  -0.3931
    -0.3903  -0.3903  -0.3721  -0.3697  -0.3695  -0.3377  -0.3375  -0.3368
    -0.3197  -0.3195  -0.2970  -0.2708  -0.2707  -0.2608  -0.2607  -0.1928
    -0.1928  -0.1744  -0.1739  -0.1122  -0.1100  -0.1091  -0.1089  -0.0814
     0.1264   0.1265   0.4697   0.4697   0.5452   0.5454   0.6958   0.7247
     0.7461   0.8816   0.8817   1.2600   1.3273   1.3273   1.5617   1.5617
     1.6168   1.9280   1.9281   1.9607   1.9610   1.9997   1.9997   2.1543
     2.1546   2.3294   2.3294   2.3416   2.4854   2.4855   2.5319   2.7420
     3.1089   3.1094   3.1508   3.1509   3.1582   3.1583   3.4853   3.4854
     3.8209   3.8210   3.8937   4.1542   4.2839   4.2840   4.4848   4.4848
     4.5734   4.5738   4.6523   4.8135   4.8139   4.9074   4.9076   5.1990
     5.2614   5.2618   5.4575   5.4575   5.6011   5.6013   5.6048   5.6050
     5.7510   5.7517   5.8150   5.9488   6.3375   6.4131   6.4308   6.4313
     6.4368   6.4369   6.4796   6.6508   6.6510   6.7571   6.7571   6.7806
     7.0042   7.0043   7.1001   7.3205   7.3211   7.3232

     the Fermi energy is     1.4506 ev

!    total energy              =   -6529.75050189 Ry
     Harris-Foulkes estimate   =   -6529.75050190 Ry
     estimated scf accuracy    <          8.7E-09 Ry

     The total energy is the sum of the following terms:

     one-electron contribution =  -48759.52237973 Ry
     hartree contribution      =   24874.51086145 Ry
     xc contribution           =   -3153.86010147 Ry
     ewald contribution        =   20509.11898679 Ry
     smearing contrib. (-TS)   =       0.00213107 Ry

     convergence has been achieved in  19 iterations

     Writing output data file 111strucdevscfpbe.save

     init_run     :    141.18s CPU    152.89s WALL (       1 calls)
     electrons    :   7456.40s CPU   7852.63s WALL (       1 calls)

     Called by init_run:
     wfcinit      :    123.99s CPU    134.70s WALL (       1 calls)
     potinit      :      3.10s CPU      3.28s WALL (       1 calls)

     Called by electrons:
     c_bands      :   6607.81s CPU   6931.88s WALL (      20 calls)
     sum_band     :    703.24s CPU    769.46s WALL (      20 calls)
     v_of_rho     :     13.84s CPU     15.82s WALL (      20 calls)
     newd         :    132.70s CPU    134.89s WALL (      20 calls)
     mix_rho      :      2.44s CPU      2.89s WALL (      20 calls)

     Called by c_bands:
     init_us_2    :     11.09s CPU     11.45s WALL (     492 calls)
     cegterg      :   6514.46s CPU   6837.12s WALL (     240 calls)

     Called by *egterg:
     h_psi        :   2581.31s CPU   2862.73s WALL (    1190 calls)
     s_psi        :    422.94s CPU    425.87s WALL (    1190 calls)
     g_psi        :      5.64s CPU      5.69s WALL (     938 calls)
     cdiaghg      :   2075.86s CPU   2083.60s WALL (    1166 calls)

     Called by h_psi:
     add_vuspsi   :    424.27s CPU    427.52s WALL (    1190 calls)

     General routines
     calbec       :    654.18s CPU    657.06s WALL (    1430 calls)
     fft          :     26.02s CPU     29.76s WALL (     320 calls)
     ffts         :      1.59s CPU      1.95s WALL (      40 calls)
     fftw         :   1803.04s CPU   2100.73s WALL (  593274 calls)
     interpolate  :      3.88s CPU      4.89s WALL (      40 calls)
     davcio       :      0.00s CPU      1.79s WALL (      12 calls)

     Parallel routines
     fft_scatter  :   1093.48s CPU   1290.13s WALL (  593634 calls)

     PWSCF        :     2h 7m CPU        2h14m WALL


   This run was terminated on:  13:19:22  12Aug2015            

=------------------------------------------------------------------------------=
   JOB DONE.
=------------------------------------------------------------------------------=
