
     Program PWSCF v.5.1.1 starts on 11Aug2015 at 15:22:41 

     This program is part of the open-source Quantum ESPRESSO suite
     for quantum simulation of materials; please cite
         "P. Giannozzi et al., J. Phys.:Condens. Matter 21 395502 (2009);
          URL http://www.quantum-espresso.org", 
     in publications or presentations arising from this work. More details at
     http://www.quantum-espresso.org/quote

     Parallel version (MPI), running on     8 processors
     R & G space division:  proc/nbgrp/npool/nimage =       8
     Waiting for input...
     Reading input from standard input
Warning: card &IONS ignored
Warning: card / ignored
Warning: card &CELL ignored
Warning: card / ignored

     Current dimensions of program PWSCF are:
     Max number of different atomic species (ntypx) = 10
     Max number of k-points (npk) =  40000
     Max angular momentum in pseudopotentials (lmaxx) =  3

     Subspace diagonalization in iterative solution of the eigenvalue problem:
     a serial algorithm will be used


     Parallelization info
     --------------------
     sticks:   dense  smooth     PW     G-vecs:    dense   smooth      PW
     Min        1783     893    233               387139   136875   18145
     Max        1784     894    234               387152   136900   18148
     Sum       14269    7147   1867              3097177  1095093  145167


     Title: 
     GOLD                                                                       


     bravais-lattice index     =            4
     lattice parameter (alat)  =      22.7436  a.u.
     unit-cell volume          =   22924.1508 (a.u.)^3
     number of atoms/cell      =            3
     number of atomic types    =            2
     number of electrons       =         8.00
     number of Kohn-Sham states=            8
     kinetic-energy cutoff     =      50.0000  Ry
     charge density cutoff     =     400.0000  Ry
     convergence threshold     =      1.0E-08
     mixing beta               =       0.7000
     number of iterations used =            8  plain     mixing
     Exchange-correlation      =  SLA  PW   PBE  PBE ( 1  4  3  4 0 0)

     celldm(1)=  22.743643  celldm(2)=   0.000000  celldm(3)=   2.250000
     celldm(4)=   0.000000  celldm(5)=   0.000000  celldm(6)=   0.000000

     crystal axes: (cart. coord. in units of alat)
               a(1) = (   1.000000   0.000000   0.000000 )  
               a(2) = (  -0.500000   0.866025   0.000000 )  
               a(3) = (   0.000000   0.000000   2.250000 )  

     reciprocal axes: (cart. coord. in units 2 pi/alat)
               b(1) = (  1.000000  0.577350 -0.000000 )  
               b(2) = (  0.000000  1.154701  0.000000 )  
               b(3) = (  0.000000 -0.000000  0.444444 )  


     PseudoPot. # 1 for H  read from file:
     /home/andrejb/Research/Projects/gold/qe/pseudo/H.pbe-van_ak.UPF
     MD5 check sum: 403db7282739603aa925980fa9b8608d
     Pseudo is Ultrasoft, Zval =  1.0
     Generated by new atomic code, or converted to UPF format
     Using radial grid of  615 points,  1 beta functions with: 
                l(1) =   0
     Q(r) pseudized with  8 coefficients,  rinner =    0.800

     PseudoPot. # 2 for O  read from file:
     /home/andrejb/Research/Projects/gold/qe/pseudo/O.pbe-van_ak.UPF
     MD5 check sum: 4b8c549914a63cae506c6ff22b5af4fe
     Pseudo is Ultrasoft, Zval =  6.0
     Generated by new atomic code, or converted to UPF format
     Using radial grid of  737 points,  4 beta functions with: 
                l(1) =   0
                l(2) =   0
                l(3) =   1
                l(4) =   1
     Q(r) pseudized with  8 coefficients,  rinner =    0.800   0.800   0.800


     atomic species   valence    mass     pseudopotential
        H              1.00     1.01000     H ( 1.00)
        O              6.00    16.00000     O ( 1.00)

     No symmetry found



   Cartesian axes

     site n.     atom                  positions (alat units)
         1           O   tau(   1) = (   0.3540481   0.6132292   0.8448141  )
         2           H   tau(   2) = (   0.3041147   0.5716816   0.8930676  )
         3           H   tau(   3) = (   0.4024675   0.6535362   0.8955747  )

     number of k points=    12  Marzari-Vanderbilt smearing, width (Ry)=  0.0200
                       cart. coord. in units 2pi/alat
        k(    1) = (   0.2500000   0.4330127   0.1111111), wk =   0.1666667
        k(    2) = (   0.2500000  -0.1443376   0.1111111), wk =   0.1666667
        k(    3) = (  -0.2500000  -0.4330127   0.1111111), wk =   0.1666667
        k(    4) = (  -0.2500000   0.4330127  -0.1111111), wk =   0.1666667
        k(    5) = (   0.2500000  -0.4330127  -0.1111111), wk =   0.1666667
        k(    6) = (   0.5000000   0.0000000   0.1111111), wk =   0.1666667
        k(    7) = (  -0.5000000   0.0000000   0.1111111), wk =   0.1666667
        k(    8) = (  -0.2500000   0.1443376   0.1111111), wk =   0.1666667
        k(    9) = (  -0.2500000  -0.1443376  -0.1111111), wk =   0.1666667
        k(   10) = (   0.2500000   0.1443376  -0.1111111), wk =   0.1666667
        k(   11) = (   0.0000000  -0.2886751   0.1111111), wk =   0.1666667
        k(   12) = (   0.0000000   0.2886751   0.1111111), wk =   0.1666667

     Dense  grid:  3097177 G-vectors     FFT dimensions: ( 150, 150, 360)

     Smooth grid:  1095093 G-vectors     FFT dimensions: ( 108, 108, 240)

     Largest allocated arrays     est. size (Mb)     dimensions
        Kohn-Sham Wavefunctions         2.09 Mb     (   17118,    8)
        NL pseudopotentials             2.61 Mb     (   17118,   10)
        Each V/rho on FFT grid         15.45 Mb     ( 1012500)
        Each G-vector array             2.95 Mb     (  387141)
        G-vector shells                 0.22 Mb     (   29038)
     Largest temporary arrays     est. size (Mb)     dimensions
        Auxiliary wavefunctions         8.36 Mb     (   17118,   32)
        Each subspace H/S matrix        0.02 Mb     (      32,   32)
        Each <psi_i|beta_j> matrix      0.00 Mb     (      10,    8)
        Arrays for rho mixing         123.60 Mb     ( 1012500,    8)

     Initial potential from superposition of free atoms
     Check: negative starting charge=   -0.004319

     starting charge    7.99998, renormalised to    8.00000

     negative rho (up, down):  4.319E-03 0.000E+00
     Starting wfc are    6 randomized atomic wfcs +    2 random wfc

     total cpu time spent up to now is       18.5 secs

     per-process dynamical memory:   183.7 Mb

     Self-consistent Calculation

     iteration #  1     ecut=    50.00 Ry     beta=0.70
     Davidson diagonalization with overlap
     ethr =  1.00E-02,  avg # of iterations =  6.1

     negative rho (up, down):  5.852E-03 0.000E+00

     total cpu time spent up to now is       61.1 secs

     total energy              =     -34.26060063 Ry
     Harris-Foulkes estimate   =     -34.59394927 Ry
     estimated scf accuracy    <       0.45596204 Ry

     iteration #  2     ecut=    50.00 Ry     beta=0.70
     Davidson diagonalization with overlap
     ethr =  5.70E-03,  avg # of iterations =  3.0

     negative rho (up, down):  6.802E-03 0.000E+00

     total cpu time spent up to now is       92.1 secs

     total energy              =     -34.33915047 Ry
     Harris-Foulkes estimate   =     -34.58308314 Ry
     estimated scf accuracy    <       0.51994376 Ry

     iteration #  3     ecut=    50.00 Ry     beta=0.70
     Davidson diagonalization with overlap
     ethr =  5.70E-03,  avg # of iterations =  2.0

     negative rho (up, down):  8.276E-03 0.000E+00

     total cpu time spent up to now is      119.2 secs

     total energy              =     -34.44707621 Ry
     Harris-Foulkes estimate   =     -34.45023354 Ry
     estimated scf accuracy    <       0.00681911 Ry

     iteration #  4     ecut=    50.00 Ry     beta=0.70
     Davidson diagonalization with overlap
     c_bands:  1 eigenvalues not converged
     ethr =  8.52E-05,  avg # of iterations = 13.6

     negative rho (up, down):  8.434E-03 0.000E+00

     total cpu time spent up to now is      175.3 secs

     total energy              =     -34.44629527 Ry
     Harris-Foulkes estimate   =     -34.44672881 Ry
     estimated scf accuracy    <       0.00110197 Ry

     iteration #  5     ecut=    50.00 Ry     beta=0.70
     Davidson diagonalization with overlap
     ethr =  1.38E-05,  avg # of iterations =  6.8

     negative rho (up, down):  8.568E-03 0.000E+00

     total cpu time spent up to now is      211.6 secs

     total energy              =     -34.44627783 Ry
     Harris-Foulkes estimate   =     -34.44634920 Ry
     estimated scf accuracy    <       0.00018247 Ry

     iteration #  6     ecut=    50.00 Ry     beta=0.70
     Davidson diagonalization with overlap
     c_bands:  1 eigenvalues not converged
     c_bands:  1 eigenvalues not converged
     ethr =  2.28E-06,  avg # of iterations =  8.4

     negative rho (up, down):  8.668E-03 0.000E+00

     total cpu time spent up to now is      248.4 secs

     total energy              =     -34.44628179 Ry
     Harris-Foulkes estimate   =     -34.44628798 Ry
     estimated scf accuracy    <       0.00001586 Ry

     iteration #  7     ecut=    50.00 Ry     beta=0.70
     Davidson diagonalization with overlap
     ethr =  1.98E-07,  avg # of iterations =  3.3

     negative rho (up, down):  8.673E-03 0.000E+00

     total cpu time spent up to now is      276.6 secs

     total energy              =     -34.44628390 Ry
     Harris-Foulkes estimate   =     -34.44628413 Ry
     estimated scf accuracy    <       0.00000061 Ry

     iteration #  8     ecut=    50.00 Ry     beta=0.70
     Davidson diagonalization with overlap
     ethr =  7.62E-09,  avg # of iterations =  2.1

     negative rho (up, down):  8.682E-03 0.000E+00

     total cpu time spent up to now is      303.3 secs

     total energy              =     -34.44628398 Ry
     Harris-Foulkes estimate   =     -34.44628400 Ry
     estimated scf accuracy    <       0.00000004 Ry

     iteration #  9     ecut=    50.00 Ry     beta=0.70
     Davidson diagonalization with overlap
     ethr =  4.76E-10,  avg # of iterations =  2.2

     negative rho (up, down):  8.683E-03 0.000E+00

     total cpu time spent up to now is      331.4 secs

     total energy              =     -34.44628399 Ry
     Harris-Foulkes estimate   =     -34.44628399 Ry
     estimated scf accuracy    <       0.00000002 Ry

     iteration # 10     ecut=    50.00 Ry     beta=0.70
     Davidson diagonalization with overlap
     ethr =  2.19E-10,  avg # of iterations =  2.0

     negative rho (up, down):  8.683E-03 0.000E+00

     total cpu time spent up to now is      357.6 secs

     End of self-consistent calculation

          k = 0.2500 0.4330 0.1111 (136853 PWs)   bands (ev):

   -25.2282 -13.0414  -9.2331  -7.1938  -1.0057  -0.1471   0.0163   0.1588

          k = 0.2500-0.1443 0.1111 (136898 PWs)   bands (ev):

   -25.2282 -13.0414  -9.2331  -7.1938  -1.0426  -0.2119  -0.0334   0.1060

          k =-0.2500-0.4330 0.1111 (136853 PWs)   bands (ev):

   -25.2282 -13.0414  -9.2331  -7.1938  -1.0057  -0.1471   0.0158   0.1602

          k =-0.2500 0.4330-0.1111 (136853 PWs)   bands (ev):

   -25.2282 -13.0414  -9.2331  -7.1938  -1.0115  -0.0830   0.0401   0.0712

          k = 0.2500-0.4330-0.1111 (136853 PWs)   bands (ev):

   -25.2282 -13.0414  -9.2331  -7.1938  -1.0115  -0.0832   0.0409   0.0702

          k = 0.5000 0.0000 0.1111 (136853 PWs)   bands (ev):

   -25.2282 -13.0414  -9.2331  -7.1938  -1.0081  -0.1261   0.0198   0.1345

          k =-0.5000 0.0000 0.1111 (136853 PWs)   bands (ev):

   -25.2282 -13.0414  -9.2331  -7.1938  -1.0081  -0.1260   0.0190   0.1355

          k =-0.2500 0.1443 0.1111 (136898 PWs)   bands (ev):

   -25.2282 -13.0414  -9.2331  -7.1938  -1.0425  -0.2118  -0.0340   0.1077

          k =-0.2500-0.1443-0.1111 (136898 PWs)   bands (ev):

   -25.2282 -13.0414  -9.2331  -7.1938  -1.0376  -0.2170  -0.0564   0.0628

          k = 0.2500 0.1443-0.1111 (136898 PWs)   bands (ev):

   -25.2282 -13.0414  -9.2331  -7.1938  -1.0376  -0.2169  -0.0577   0.0656

          k = 0.0000-0.2887 0.1111 (136898 PWs)   bands (ev):

   -25.2282 -13.0414  -9.2331  -7.1938  -1.0406  -0.2134  -0.0422   0.0869

          k = 0.0000 0.2887 0.1111 (136898 PWs)   bands (ev):

   -25.2282 -13.0414  -9.2331  -7.1938  -1.0406  -0.2135  -0.0411   0.0846

     the Fermi energy is    -6.9431 ev

!    total energy              =     -34.44628399 Ry
     Harris-Foulkes estimate   =     -34.44628399 Ry
     estimated scf accuracy    <          6.5E-10 Ry

     The total energy is the sum of the following terms:

     one-electron contribution =     -74.02666783 Ry
     hartree contribution      =      38.44893189 Ry
     xc contribution           =      -8.41008546 Ry
     ewald contribution        =       9.53827544 Ry
     smearing contrib. (-TS)   =       0.00326198 Ry

     convergence has been achieved in  10 iterations

     Writing output data file 111warerref.save

     init_run     :     13.02s CPU     18.30s WALL (       1 calls)
     electrons    :    306.83s CPU    339.38s WALL (       1 calls)

     Called by init_run:
     wfcinit      :      5.66s CPU      8.73s WALL (       1 calls)
     potinit      :      2.52s CPU      3.61s WALL (       1 calls)

     Called by electrons:
     c_bands      :    218.13s CPU    239.23s WALL (      10 calls)
     sum_band     :     54.57s CPU     60.03s WALL (      10 calls)
     v_of_rho     :     15.90s CPU     20.71s WALL (      11 calls)
     newd         :     13.62s CPU     15.37s WALL (      11 calls)
     mix_rho      :      4.13s CPU      4.41s WALL (      10 calls)

     Called by c_bands:
     init_us_2    :      2.34s CPU      2.38s WALL (     252 calls)
     cegterg      :    215.49s CPU    236.38s WALL (     120 calls)

     Called by *egterg:
     h_psi        :    200.52s CPU    223.14s WALL (     727 calls)
     s_psi        :      1.94s CPU      1.94s WALL (     727 calls)
     g_psi        :      0.46s CPU      0.48s WALL (     595 calls)
     cdiaghg      :      0.16s CPU      0.22s WALL (     715 calls)

     Called by h_psi:
     add_vuspsi   :      1.90s CPU      1.95s WALL (     727 calls)

     General routines
     calbec       :      3.03s CPU      3.83s WALL (     847 calls)
     fft          :     19.61s CPU     24.58s WALL (     171 calls)
     ffts         :      0.83s CPU      0.86s WALL (      21 calls)
     fftw         :    162.69s CPU    187.42s WALL (    7406 calls)
     interpolate  :      3.74s CPU      4.28s WALL (      21 calls)
     davcio       :      0.00s CPU      0.24s WALL (      12 calls)

     Parallel routines
     fft_scatter  :     88.67s CPU    116.62s WALL (    7598 calls)

     PWSCF        :  5m20.37s CPU     5m58.78s WALL


   This run was terminated on:  15:28:40  11Aug2015            

=------------------------------------------------------------------------------=
   JOB DONE.
=------------------------------------------------------------------------------=
