--------------------------------------------------------------------------
[[43263,1],47]: A high-performance Open MPI point-to-point messaging module
was unable to find any relevant network interfaces:

Module: OpenFabrics (openib)
  Host: scc116

Another transport will be used instead, although this may result in
lower performance.
--------------------------------------------------------------------------

     Program PWSCF v.5.4.0 starts on 25Jan2017 at 12:39:19 

     This program is part of the open-source Quantum ESPRESSO suite
     for quantum simulation of materials; please cite
         "P. Giannozzi et al., J. Phys.:Condens. Matter 21 395502 (2009);
          URL http://www.quantum-espresso.org", 
     in publications or presentations arising from this work. More details at
     http://www.quantum-espresso.org/quote

     Parallel version (MPI), running on    48 processors
     K-points division:     npool     =       6
     R & G space division:  proc/nbgrp/npool/nimage =       8
     Reading input from hollow.O1.Au5859.d.0.0.phi.0.psi.90.in
Warning: card &CELL ignored
Warning: card / ignored

     Current dimensions of program PWSCF are:
     Max number of different atomic species (ntypx) = 10
     Max number of k-points (npk) =  40000
     Max angular momentum in pseudopotentials (lmaxx) =  3

     IMPORTANT: XC functional enforced from input :
     Exchange-correlation      = VDW-DF ( 1  4  4  0 1 0)
     Any further DFT definition will be discarded
     Please, verify this is what you really want


     Subspace diagonalization in iterative solution of the eigenvalue problem:
     a serial algorithm will be used

 
     Parallelization info
     --------------------
     sticks:   dense  smooth     PW     G-vecs:    dense   smooth      PW
     Min        2313    1158    298               474089   167622   21962
     Max        2314    1159    299               474104   167655   21969
     Sum       18505    9265   2385              3792731  1341081  175711
 

     Title: 
     hollow.O1.Au5859.d.0.0.phi.0.psi.90                                        


     bravais-lattice index     =            8
     lattice parameter (alat)  =      24.1233  a.u.
     unit-cell volume          =   28076.2361 (a.u.)^3
     number of atoms/cell      =           75
     number of atomic types    =            3
     number of electrons       =       800.00
     number of Kohn-Sham states=          480
     kinetic-energy cutoff     =      50.0000  Ry
     charge density cutoff     =     400.0000  Ry
     convergence threshold     =      1.0E-08
     mixing beta               =       0.7000
     number of iterations used =            8  plain     mixing
     Exchange-correlation      = VDW-DF ( 1  4  4  0 1 0)
     nstep                     =           50


     celldm(1)=  24.123277  celldm(2)=   1.000000  celldm(3)=   2.000000
     celldm(4)=   0.000000  celldm(5)=   0.000000  celldm(6)=   0.000000

     crystal axes: (cart. coord. in units of alat)
               a(1) = (   1.000000   0.000000   0.000000 )  
               a(2) = (   0.000000   1.000000   0.000000 )  
               a(3) = (   0.000000   0.000000   2.000000 )  

     reciprocal axes: (cart. coord. in units 2 pi/alat)
               b(1) = (  1.000000  0.000000  0.000000 )  
               b(2) = (  0.000000  1.000000  0.000000 )  
               b(3) = (  0.000000  0.000000  0.500000 )  


     PseudoPot. # 1 for Au read from file:
     ../../../../pseudo/Au.pbe-nd-van.UPF
     MD5 check sum: 458681b50f36d87ef23c61b04bba420a
     Pseudo is Ultrasoft + core correction, Zval = 11.0
     Generated by new atomic code, or converted to UPF format
     Using radial grid of  985 points,  3 beta functions with: 
                l(1) =   1
                l(2) =   2
                l(3) =   2
     Q(r) pseudized with  8 coefficients,  rinner =    1.100   1.100   1.100
                                                       1.100   1.100

     PseudoPot. # 2 for H  read from file:
     ../../../../pseudo/H.pbe-van_ak.UPF
     MD5 check sum: 403db7282739603aa925980fa9b8608d
     Pseudo is Ultrasoft, Zval =  1.0
     Generated by new atomic code, or converted to UPF format
     Using radial grid of  615 points,  1 beta functions with: 
                l(1) =   0
     Q(r) pseudized with  8 coefficients,  rinner =    0.800

     PseudoPot. # 3 for O  read from file:
     ../../../../pseudo/O.pbe-van_ak.UPF
     MD5 check sum: 4b8c549914a63cae506c6ff22b5af4fe
     Pseudo is Ultrasoft, Zval =  6.0
     Generated by new atomic code, or converted to UPF format
     Using radial grid of  737 points,  4 beta functions with: 
                l(1) =   0
                l(2) =   0
                l(3) =   1
                l(4) =   1
     Q(r) pseudized with  8 coefficients,  rinner =    0.800   0.800   0.800


     vdW kernel table read from file vdW_kernel_table
     MD5 check sum: 48e77a2e26edf626eeb0eaa751ad5cac

     atomic species   valence    mass     pseudopotential
        Au            11.00   196.96657     Au( 1.00)
        H              1.00     1.01000     H ( 1.00)
        O              6.00    16.00000     O ( 1.00)

     No symmetry found



   Cartesian axes

     site n.     atom                  positions (alat units)
         1           O   tau(   1) = (   0.1666051   0.1666105   0.7108218  )
         2           H   tau(   2) = (   0.1195275   0.1211166   0.6716503  )
         3           H   tau(   3) = (   0.2122554   0.1187528   0.7488235  )
         4           Au  tau(   4) = (   0.0000000   0.0000000   0.0000000  )
         5           Au  tau(   5) = (   0.3332217   0.0000000   0.0000000  )
         6           Au  tau(   6) = (   0.6664434   0.0000000   0.0000000  )
         7           Au  tau(   7) = (   0.1666109   0.1666109   0.0000000  )
         8           Au  tau(   8) = (   0.4998326   0.1666109   0.0000000  )
         9           Au  tau(   9) = (   0.8330542   0.1666109   0.0000000  )
        10           Au  tau(  10) = (   0.0000000   0.3332217   0.0000000  )
        11           Au  tau(  11) = (   0.3332217   0.3332217   0.0000000  )
        12           Au  tau(  12) = (   0.6664434   0.3332217   0.0000000  )
        13           Au  tau(  13) = (   0.1666109   0.4998326   0.0000000  )
        14           Au  tau(  14) = (   0.4998326   0.4998326   0.0000000  )
        15           Au  tau(  15) = (   0.8330542   0.4998326   0.0000000  )
        16           Au  tau(  16) = (   0.0000000   0.6664434   0.0000000  )
        17           Au  tau(  17) = (   0.3332217   0.6664434   0.0000000  )
        18           Au  tau(  18) = (   0.6664434   0.6664434   0.0000000  )
        19           Au  tau(  19) = (   0.1666109   0.8330542   0.0000000  )
        20           Au  tau(  20) = (   0.4998326   0.8330542   0.0000000  )
        21           Au  tau(  21) = (   0.8330542   0.8330542   0.0000000  )
        22           Au  tau(  22) = (   0.1666109   0.0000000   0.1666109  )
        23           Au  tau(  23) = (   0.4998326   0.0000000   0.1666109  )
        24           Au  tau(  24) = (   0.8330542   0.0000000   0.1666109  )
        25           Au  tau(  25) = (   0.0000000   0.1666109   0.1666109  )
        26           Au  tau(  26) = (   0.3332217   0.1666109   0.1666109  )
        27           Au  tau(  27) = (   0.6664434   0.1666109   0.1666109  )
        28           Au  tau(  28) = (   0.1666109   0.3332217   0.1666109  )
        29           Au  tau(  29) = (   0.4998326   0.3332217   0.1666109  )
        30           Au  tau(  30) = (   0.8330542   0.3332217   0.1666109  )
        31           Au  tau(  31) = (   0.0000000   0.4998326   0.1666109  )
        32           Au  tau(  32) = (   0.3332217   0.4998326   0.1666109  )
        33           Au  tau(  33) = (   0.6664434   0.4998326   0.1666109  )
        34           Au  tau(  34) = (   0.1666109   0.6664434   0.1666109  )
        35           Au  tau(  35) = (   0.4998326   0.6664434   0.1666109  )
        36           Au  tau(  36) = (   0.8330542   0.6664434   0.1666109  )
        37           Au  tau(  37) = (   0.0000000   0.8330542   0.1666109  )
        38           Au  tau(  38) = (   0.3332217   0.8330542   0.1666109  )
        39           Au  tau(  39) = (   0.6664434   0.8330542   0.1666109  )
        40           Au  tau(  40) = (  -0.0000182  -0.0000182   0.3335478  )
        41           Au  tau(  41) = (   0.3332215  -0.0000181   0.3335473  )
        42           Au  tau(  42) = (   0.6664447  -0.0000183   0.3335481  )
        43           Au  tau(  43) = (  -0.0000181   0.3332215   0.3335473  )
        44           Au  tau(  44) = (   0.3332215   0.3332215   0.3335468  )
        45           Au  tau(  45) = (   0.6664445   0.3332215   0.3335477  )
        46           Au  tau(  46) = (  -0.0000183   0.6664447   0.3335481  )
        47           Au  tau(  47) = (   0.3332215   0.6664445   0.3335477  )
        48           Au  tau(  48) = (   0.6664446   0.6664446   0.3335486  )
        49           Au  tau(  49) = (   0.1666097   0.1666097   0.3335483  )
        50           Au  tau(  50) = (   0.4998320   0.1666098   0.3335477  )
        51           Au  tau(  51) = (   0.8330732   0.1666096   0.3335480  )
        52           Au  tau(  52) = (   0.1666098   0.4998320   0.3335477  )
        53           Au  tau(  53) = (   0.4998322   0.4998322   0.3335470  )
        54           Au  tau(  54) = (   0.8330731   0.4998322   0.3335474  )
        55           Au  tau(  55) = (   0.1666096   0.8330732   0.3335480  )
        56           Au  tau(  56) = (   0.4998322   0.8330731   0.3335474  )
        57           Au  tau(  57) = (   0.8330731   0.8330731   0.3335478  )
        58           Au  tau(  58) = (   0.1666104  -0.0000111   0.4993095  )
        59           Au  tau(  59) = (   0.4998323  -0.0000112   0.4993099  )
        60           Au  tau(  60) = (   0.8330660  -0.0000111   0.4993009  )
        61           Au  tau(  61) = (  -0.0000111   0.1666104   0.4993095  )
        62           Au  tau(  62) = (   0.3332213   0.1666106   0.4993185  )
        63           Au  tau(  63) = (   0.6664437   0.1666106   0.4993187  )
        64           Au  tau(  64) = (   0.1666106   0.3332213   0.4993185  )
        65           Au  tau(  65) = (   0.4998324   0.3332216   0.4993185  )
        66           Au  tau(  66) = (   0.8330658   0.3332215   0.4993102  )
        67           Au  tau(  67) = (  -0.0000112   0.4998323   0.4993099  )
        68           Au  tau(  68) = (   0.3332216   0.4998324   0.4993185  )
        69           Au  tau(  69) = (   0.6664437   0.4998325   0.4993187  )
        70           Au  tau(  70) = (   0.1666106   0.6664437   0.4993187  )
        71           Au  tau(  71) = (   0.4998325   0.6664437   0.4993187  )
        72           Au  tau(  72) = (   0.8330658   0.6664438   0.4993102  )
        73           Au  tau(  73) = (  -0.0000111   0.8330660   0.4993009  )
        74           Au  tau(  74) = (   0.3332215   0.8330658   0.4993102  )
        75           Au  tau(  75) = (   0.6664438   0.8330658   0.4993102  )

     number of k points=     6  Marzari-Vanderbilt smearing, width (Ry)=  0.0200
                       cart. coord. in units 2pi/alat
        k(    1) = (   0.2500000   0.2500000   0.0833333), wk =   0.3333333
        k(    2) = (   0.2500000   0.2500000  -0.2500000), wk =   0.3333333
        k(    3) = (  -0.2500000  -0.2500000   0.0833333), wk =   0.3333333
        k(    4) = (  -0.2500000   0.2500000  -0.0833333), wk =   0.3333333
        k(    5) = (   0.2500000  -0.2500000  -0.0833333), wk =   0.3333333
        k(    6) = (  -0.2500000   0.2500000   0.2500000), wk =   0.3333333

     Dense  grid:  3792731 G-vectors     FFT dimensions: ( 160, 160, 320)

     Smooth grid:  1341081 G-vectors     FFT dimensions: ( 120, 120, 225)

     Largest allocated arrays     est. size (Mb)     dimensions
        Kohn-Sham Wavefunctions       154.19 Mb     (   21052,  480)
        NL pseudopotentials           303.88 Mb     (   21052,  946)
        Each V/rho on FFT grid         15.62 Mb     ( 1024000)
        Each G-vector array             3.62 Mb     (  474091)
        G-vector shells                 0.08 Mb     (   10780)
     Largest temporary arrays     est. size (Mb)     dimensions
        Auxiliary wavefunctions       616.76 Mb     (   21052, 1920)
        Each subspace H/S matrix       56.25 Mb     (    1920, 1920)
        Each <psi_i|beta_j> matrix      6.93 Mb     (     946,  480)
        Arrays for rho mixing         125.00 Mb     ( 1024000,    8)

     Initial potential from superposition of free atoms
     Check: negative starting charge=   -1.945170

     starting charge  799.16392, renormalised to  800.00000

     negative rho (up, down):  1.947E+00 0.000E+00


     %%%%%%%%%%%%%%%%%%%%%%%%%%%%%%%%%%%%%%%%%%%%%%%%%%%%%%%%%%%%%%%%%%%%%%%%
     %                                                                      %
     % You are using vdW-DF, which was implemented by the Thonhauser group. %
     % Please cite the following two papers that made this development      %
     % possible and the two reviews that describe the various versions:     %
     %                                                                      %
     %   T. Thonhauser et al., PRL 115, 136402 (2015).                      %
     %   T. Thonhauser et al., PRB 76, 125112 (2007).                       %
     %   K. Berland et al., Rep. Prog. Phys. 78, 066501 (2015).             %
     %   D.C. Langreth et al., J. Phys.: Condens. Matter 21, 084203 (2009). %
     %                                                                      %
     %                                                                      %
     % If you are calculating the stress with vdW-DF, please also cite:     %
     %                                                                      %
     %   R. Sabatini et al., J. Phys.: Condens. Matter 24, 424209 (2012).   %
     %                                                                      %
     %%%%%%%%%%%%%%%%%%%%%%%%%%%%%%%%%%%%%%%%%%%%%%%%%%%%%%%%%%%%%%%%%%%%%%%%


     Starting wfc are  654 randomized atomic wfcs

     total cpu time spent up to now is       90.6 secs

     per-process dynamical memory:   742.3 Mb

     Self-consistent Calculation

     iteration #  1     ecut=    50.00 Ry     beta=0.70
     Davidson diagonalization with overlap
     ethr =  1.00E-02,  avg # of iterations =  3.0

     Threshold (ethr) on eigenvalues was too large:
     Diagonalizing with lowered threshold

     Davidson diagonalization with overlap
     ethr =  4.21E-04,  avg # of iterations =  2.0

     negative rho (up, down):  1.947E+00 0.000E+00

     total cpu time spent up to now is      352.6 secs

     total energy              =   -7423.03853619 Ry
     Harris-Foulkes estimate   =   -7426.06799725 Ry
     estimated scf accuracy    <       3.74370323 Ry

     iteration #  2     ecut=    50.00 Ry     beta=0.70
     Davidson diagonalization with overlap
     ethr =  4.68E-04,  avg # of iterations = 11.5

     negative rho (up, down):  1.942E+00 0.000E+00

     total cpu time spent up to now is      777.4 secs

     total energy              =   -7415.16984765 Ry
     Harris-Foulkes estimate   =   -7432.61382868 Ry
     estimated scf accuracy    <      90.86716499 Ry

     iteration #  3     ecut=    50.00 Ry     beta=0.70
     Davidson diagonalization with overlap
     ethr =  4.68E-04,  avg # of iterations =  6.0

     negative rho (up, down):  1.953E+00 0.000E+00

     total cpu time spent up to now is     1077.4 secs

     total energy              =   -7424.23513095 Ry
     Harris-Foulkes estimate   =   -7425.86773159 Ry
     estimated scf accuracy    <       6.55170312 Ry

     iteration #  4     ecut=    50.00 Ry     beta=0.70
     Davidson diagonalization with overlap
     ethr =  4.68E-04,  avg # of iterations =  5.8

     negative rho (up, down):  1.956E+00 0.000E+00

     total cpu time spent up to now is     1261.2 secs

     total energy              =   -7424.80580038 Ry
     Harris-Foulkes estimate   =   -7425.69700218 Ry
     estimated scf accuracy    <       5.53291085 Ry

     iteration #  5     ecut=    50.00 Ry     beta=0.70
     Davidson diagonalization with overlap
     ethr =  4.68E-04,  avg # of iterations =  6.0

     negative rho (up, down):  1.963E+00 0.000E+00

     total cpu time spent up to now is     1422.0 secs

     total energy              =   -7425.14738553 Ry
     Harris-Foulkes estimate   =   -7425.50411113 Ry
     estimated scf accuracy    <       2.45799148 Ry

     iteration #  6     ecut=    50.00 Ry     beta=0.70
     Davidson diagonalization with overlap
     ethr =  3.07E-04,  avg # of iterations =  2.8

     negative rho (up, down):  1.967E+00 0.000E+00

     total cpu time spent up to now is     1552.0 secs

     total energy              =   -7425.27190299 Ry
     Harris-Foulkes estimate   =   -7425.32905178 Ry
     estimated scf accuracy    <       0.20217342 Ry

     iteration #  7     ecut=    50.00 Ry     beta=0.70
     Davidson diagonalization with overlap
     ethr =  2.53E-05,  avg # of iterations =  7.2

     negative rho (up, down):  1.970E+00 0.000E+00

     total cpu time spent up to now is     1699.6 secs

     total energy              =   -7425.27940485 Ry
     Harris-Foulkes estimate   =   -7425.32124502 Ry
     estimated scf accuracy    <       0.21009428 Ry

     iteration #  8     ecut=    50.00 Ry     beta=0.70
     Davidson diagonalization with overlap
     ethr =  2.53E-05,  avg # of iterations =  4.8

     negative rho (up, down):  1.971E+00 0.000E+00

     total cpu time spent up to now is     1877.6 secs

     total energy              =   -7425.28660809 Ry
     Harris-Foulkes estimate   =   -7425.30558832 Ry
     estimated scf accuracy    <       0.07515546 Ry

     iteration #  9     ecut=    50.00 Ry     beta=0.70
     Davidson diagonalization with overlap
     ethr =  9.39E-06,  avg # of iterations = 11.2

     negative rho (up, down):  1.972E+00 0.000E+00

     total cpu time spent up to now is     2069.0 secs

     total energy              =   -7425.28927218 Ry
     Harris-Foulkes estimate   =   -7425.29780860 Ry
     estimated scf accuracy    <       0.02706845 Ry

     iteration # 10     ecut=    50.00 Ry     beta=0.70
     Davidson diagonalization with overlap
     ethr =  3.38E-06,  avg # of iterations =  7.0

     negative rho (up, down):  1.973E+00 0.000E+00

     total cpu time spent up to now is     2235.8 secs

     total energy              =   -7425.29108881 Ry
     Harris-Foulkes estimate   =   -7425.29360440 Ry
     estimated scf accuracy    <       0.00690140 Ry

     iteration # 11     ecut=    50.00 Ry     beta=0.70
     Davidson diagonalization with overlap
     ethr =  8.63E-07,  avg # of iterations =  6.8

     negative rho (up, down):  1.973E+00 0.000E+00

     total cpu time spent up to now is     2391.6 secs

     total energy              =   -7425.29169082 Ry
     Harris-Foulkes estimate   =   -7425.29266654 Ry
     estimated scf accuracy    <       0.00303279 Ry

     iteration # 12     ecut=    50.00 Ry     beta=0.70
     Davidson diagonalization with overlap
     ethr =  3.79E-07,  avg # of iterations =  2.2

     negative rho (up, down):  1.974E+00 0.000E+00

     total cpu time spent up to now is     2543.7 secs

     total energy              =   -7425.29139133 Ry
     Harris-Foulkes estimate   =   -7425.29248270 Ry
     estimated scf accuracy    <       0.00344869 Ry

     iteration # 13     ecut=    50.00 Ry     beta=0.70
     Davidson diagonalization with overlap
     ethr =  3.79E-07,  avg # of iterations =  5.7

     negative rho (up, down):  1.974E+00 0.000E+00

     total cpu time spent up to now is     2708.7 secs

     total energy              =   -7425.29075925 Ry
     Harris-Foulkes estimate   =   -7425.29352451 Ry
     estimated scf accuracy    <       0.01445612 Ry

     iteration # 14     ecut=    50.00 Ry     beta=0.70
     Davidson diagonalization with overlap
     ethr =  3.79E-07,  avg # of iterations =  3.0

     negative rho (up, down):  1.974E+00 0.000E+00

     total cpu time spent up to now is     2871.8 secs

     total energy              =   -7425.29206399 Ry
     Harris-Foulkes estimate   =   -7425.29210902 Ry
     estimated scf accuracy    <       0.00012168 Ry

     iteration # 15     ecut=    50.00 Ry     beta=0.70
     Davidson diagonalization with overlap
     ethr =  1.52E-08,  avg # of iterations =  2.0

     negative rho (up, down):  1.974E+00 0.000E+00

     total cpu time spent up to now is     3058.7 secs

     total energy              =   -7425.29204873 Ry
     Harris-Foulkes estimate   =   -7425.29214163 Ry
     estimated scf accuracy    <       0.00067084 Ry

     iteration # 16     ecut=    50.00 Ry     beta=0.70
     Davidson diagonalization with overlap
     ethr =  1.52E-08,  avg # of iterations =  2.0

     negative rho (up, down):  1.974E+00 0.000E+00

     total cpu time spent up to now is     3203.5 secs

     total energy              =   -7425.29208752 Ry
     Harris-Foulkes estimate   =   -7425.29211377 Ry
     estimated scf accuracy    <       0.00013378 Ry

     iteration # 17     ecut=    50.00 Ry     beta=0.70
     Davidson diagonalization with overlap
     ethr =  1.52E-08,  avg # of iterations =  2.0

     negative rho (up, down):  1.974E+00 0.000E+00

     total cpu time spent up to now is     3329.7 secs

     total energy              =   -7425.29209932 Ry
     Harris-Foulkes estimate   =   -7425.29210349 Ry
     estimated scf accuracy    <       0.00001529 Ry

     iteration # 18     ecut=    50.00 Ry     beta=0.70
     Davidson diagonalization with overlap
     ethr =  1.91E-09,  avg # of iterations =  2.0

     negative rho (up, down):  1.974E+00 0.000E+00

     total cpu time spent up to now is     3465.0 secs

     total energy              =   -7425.29210105 Ry
     Harris-Foulkes estimate   =   -7425.29210208 Ry
     estimated scf accuracy    <       0.00000262 Ry

     iteration # 19     ecut=    50.00 Ry     beta=0.70
     Davidson diagonalization with overlap
     ethr =  3.28E-10,  avg # of iterations =  3.0

     negative rho (up, down):  1.974E+00 0.000E+00

     total cpu time spent up to now is     3607.6 secs

     total energy              =   -7425.29210110 Ry
     Harris-Foulkes estimate   =   -7425.29210224 Ry
     estimated scf accuracy    <       0.00000571 Ry

     iteration # 20     ecut=    50.00 Ry     beta=0.70
     Davidson diagonalization with overlap
     ethr =  3.28E-10,  avg # of iterations =  3.0

     negative rho (up, down):  1.974E+00 0.000E+00

     total cpu time spent up to now is     3750.3 secs

     total energy              =   -7425.29210159 Ry
     Harris-Foulkes estimate   =   -7425.29210184 Ry
     estimated scf accuracy    <       0.00000086 Ry

     iteration # 21     ecut=    50.00 Ry     beta=0.70
     Davidson diagonalization with overlap
     ethr =  1.07E-10,  avg # of iterations =  2.0

     negative rho (up, down):  1.974E+00 0.000E+00

     total cpu time spent up to now is     3898.2 secs

     total energy              =   -7425.29210164 Ry
     Harris-Foulkes estimate   =   -7425.29210181 Ry
     estimated scf accuracy    <       0.00000055 Ry

     iteration # 22     ecut=    50.00 Ry     beta=0.70
     Davidson diagonalization with overlap
     ethr =  6.91E-11,  avg # of iterations =  2.0

     negative rho (up, down):  1.974E+00 0.000E+00

     total cpu time spent up to now is     4026.5 secs

     total energy              =   -7425.29210170 Ry
     Harris-Foulkes estimate   =   -7425.29210176 Ry
     estimated scf accuracy    <       0.00000024 Ry

     iteration # 23     ecut=    50.00 Ry     beta=0.70
     Davidson diagonalization with overlap
     ethr =  2.95E-11,  avg # of iterations =  2.0

     negative rho (up, down):  1.974E+00 0.000E+00

     total cpu time spent up to now is     4162.8 secs

     total energy              =   -7425.29210171 Ry
     Harris-Foulkes estimate   =   -7425.29210174 Ry
     estimated scf accuracy    <       0.00000009 Ry

     iteration # 24     ecut=    50.00 Ry     beta=0.70
     Davidson diagonalization with overlap
     ethr =  1.11E-11,  avg # of iterations =  2.7

     negative rho (up, down):  1.974E+00 0.000E+00

     total cpu time spent up to now is     4329.7 secs

     total energy              =   -7425.29210172 Ry
     Harris-Foulkes estimate   =   -7425.29210174 Ry
     estimated scf accuracy    <       0.00000011 Ry

     iteration # 25     ecut=    50.00 Ry     beta=0.70
     Davidson diagonalization with overlap
     ethr =  1.11E-11,  avg # of iterations =  2.0

     negative rho (up, down):  1.974E+00 0.000E+00

     total cpu time spent up to now is     4456.3 secs

     End of self-consistent calculation

          k = 0.2500 0.2500 0.0833 (167653 PWs)   bands (ev):

   -19.5683  -7.4282  -6.8209  -6.2934  -6.2924  -5.8635  -5.4550  -5.3616
    -5.3610  -5.1654  -5.1652  -5.0489  -5.0470  -4.9688  -4.9466  -4.8732
    -4.7881  -4.7841  -4.7461  -4.7452  -4.5851  -4.5678  -4.5666  -4.5662
    -4.5593  -4.5040  -4.5038  -4.4923  -4.4918  -4.4547  -4.4439  -4.4422
    -4.4002  -4.3999  -4.3666  -4.3655  -4.3143  -4.3132  -4.3038  -4.3012
    -4.2958  -4.2830  -4.2827  -4.2433  -4.2236  -4.2234  -4.2163  -4.2159
    -4.1857  -4.1387  -4.1192  -4.1190  -4.1186  -4.1150  -4.1076  -4.1020
    -4.1015  -4.1011  -4.0382  -4.0364  -3.9911  -3.9863  -3.9755  -3.9488
    -3.9476  -3.9311  -3.9252  -3.9249  -3.9210  -3.9180  -3.8698  -3.8684
    -3.8562  -3.8554  -3.7620  -3.7504  -3.7468  -3.7441  -3.7087  -3.7023
    -3.6840  -3.6802  -3.6537  -3.6492  -3.6243  -3.6219  -3.6032  -3.6022
    -3.5905  -3.5891  -3.5340  -3.5336  -3.5149  -3.4994  -3.4883  -3.4872
    -3.4863  -3.4827  -3.4590  -3.4580  -3.4225  -3.4214  -3.4013  -3.3995
    -3.3677  -3.3663  -3.3493  -3.3209  -3.3205  -3.2841  -3.2832  -3.2478
    -3.2396  -3.2392  -3.2261  -3.2251  -3.2200  -3.2196  -3.1841  -3.1711
    -3.1313  -3.1308  -3.1225  -3.1138  -3.1126  -3.1111  -3.0878  -3.0872
    -3.0664  -3.0658  -3.0651  -3.0383  -3.0380  -3.0305  -3.0284  -3.0272
    -2.9915  -2.9883  -2.9527  -2.9517  -2.9510  -2.9487  -2.9478  -2.8682
    -2.8586  -2.8553  -2.8540  -2.8535  -2.8526  -2.8492  -2.8480  -2.8470
    -2.8465  -2.8373  -2.8293  -2.8144  -2.8116  -2.8100  -2.8088  -2.7946
    -2.7913  -2.7527  -2.7514  -2.7511  -2.7475  -2.7460  -2.7283  -2.7281
    -2.7208  -2.7198  -2.7164  -2.6599  -2.6578  -2.6527  -2.6519  -2.6492
    -2.6473  -2.6204  -2.5598  -2.5594  -2.5587  -2.5557  -2.5450  -2.5446
    -2.5392  -2.5281  -2.5274  -2.4947  -2.4902  -2.4835  -2.4820  -2.4810
    -2.4803  -2.4424  -2.4413  -2.4314  -2.4304  -2.4291  -2.4287  -2.3892
    -2.3716  -2.3689  -2.3120  -2.3115  -2.2967  -2.2928  -2.2895  -2.2865
    -2.2426  -2.2369  -2.2143  -2.2039  -2.1865  -2.1847  -2.1816  -2.1621
    -2.1605  -2.1509  -2.1365  -2.0987  -2.0955  -2.0881  -2.0786  -2.0779
    -2.0719  -2.0675  -2.0574  -2.0537  -2.0506  -2.0476  -2.0449  -2.0420
    -2.0417  -2.0332  -2.0309  -2.0169  -2.0116  -2.0096  -2.0053  -2.0008
    -2.0001  -1.9793  -1.9776  -1.9678  -1.9641  -1.9623  -1.9574  -1.9208
    -1.8887  -1.8869  -1.8681  -1.8505  -1.8335  -1.8323  -1.8223  -1.8123
    -1.7987  -1.7941  -1.7844  -1.7839  -1.7818  -1.7812  -1.7788  -1.7477
    -1.7463  -1.7454  -1.7070  -1.7002  -1.6847  -1.6615  -1.6462  -1.6128
    -1.6059  -1.5954  -1.5778  -1.5743  -1.5693  -1.5538  -1.5488  -1.5353
    -1.5337  -1.5299  -1.5295  -1.5280  -1.5275  -1.5252  -1.5160  -1.5051
    -1.5002  -1.4813  -1.4764  -1.4586  -1.4561  -1.4320  -1.4313  -1.4280
    -1.4269  -1.4232  -1.4144  -1.4010  -1.3941  -1.3841  -1.3756  -1.3624
    -1.3519  -1.3487  -1.3406  -1.3181  -1.3167  -1.3091  -1.2978  -1.2732
    -1.2686  -1.2642  -1.2627  -1.2560  -1.2499  -1.2345  -1.2332  -1.2230
    -1.2160  -1.2146  -1.2030  -1.2018  -1.2007  -1.1933  -1.1875  -1.1762
    -1.1746  -1.1677  -1.1669  -1.1551  -1.1514  -1.1452  -1.1386  -1.1055
    -1.1037  -1.0982  -1.0956  -1.0947  -1.0922  -1.0568  -1.0390  -1.0383
    -1.0376  -1.0372  -1.0330  -1.0284  -1.0204  -1.0134  -1.0100  -0.9774
    -0.9756  -0.9694  -0.9681  -0.9467  -0.9461  -0.9367  -0.9079  -0.8992
    -0.8732  -0.8714  -0.8438  -0.8434  -0.8407  -0.8401  -0.8380  -0.8336
    -0.8295  -0.8272  -0.8247  -0.8237  -0.7929  -0.7925  -0.7746  -0.7710
    -0.7703  -0.7687  -0.7659  -0.7525  -0.7485  -0.4746  -0.4618  -0.4057
    -0.3948  -0.3663  -0.2037  -0.1411  -0.1402  -0.1025   0.1777   0.1804
     0.5075   0.5139   0.6068   0.6075   0.6480   0.6509   0.7925   0.7970
     0.9154   0.9184   1.0090   1.6027   1.6207   1.6216   1.6601   1.6665
     1.7096   1.7186   1.7899   1.7942   1.9974   1.9989   2.2335   2.3116
     2.3171   2.3306   2.7073   2.7156   2.7826   2.7838   2.7918   2.7925
     2.9421   2.9428   2.9875   3.0870   3.0897   3.3175   3.3216   3.4522
     3.4774   3.4801   3.7502   3.7529   3.8554   3.8824   3.8835   3.9382
     3.9669   4.0701   4.0718   4.3042   4.3073   4.3939   4.3974   4.5133
     4.5216   4.5409   4.5498   4.6842   5.0944   5.3415   5.3559   5.4489
     5.4560   5.5278   5.6281   5.6335   5.6547   5.7010   5.7346   5.7462
     5.7524   5.8007   5.8017   5.8441   6.0227   6.0746   6.1058   6.1197
     6.1253   6.1380   6.1413   6.1448   6.1532   6.1597   6.1789   6.2196

          k = 0.2500 0.2500-0.2500 (167588 PWs)   bands (ev):

   -19.5683  -7.4282  -6.8209  -6.2934  -6.2924  -5.8635  -5.4550  -5.3616
    -5.3610  -5.1654  -5.1652  -5.0489  -5.0470  -4.9688  -4.9466  -4.8732
    -4.7881  -4.7841  -4.7461  -4.7452  -4.5851  -4.5678  -4.5666  -4.5662
    -4.5593  -4.5040  -4.5038  -4.4923  -4.4918  -4.4547  -4.4439  -4.4422
    -4.4002  -4.3999  -4.3666  -4.3655  -4.3143  -4.3132  -4.3038  -4.3013
    -4.2958  -4.2830  -4.2827  -4.2433  -4.2236  -4.2234  -4.2163  -4.2159
    -4.1857  -4.1387  -4.1192  -4.1190  -4.1186  -4.1150  -4.1076  -4.1020
    -4.1015  -4.1011  -4.0382  -4.0364  -3.9911  -3.9863  -3.9755  -3.9488
    -3.9476  -3.9311  -3.9252  -3.9249  -3.9209  -3.9180  -3.8698  -3.8684
    -3.8562  -3.8554  -3.7620  -3.7504  -3.7468  -3.7441  -3.7087  -3.7023
    -3.6840  -3.6802  -3.6537  -3.6493  -3.6243  -3.6219  -3.6032  -3.6022
    -3.5904  -3.5891  -3.5340  -3.5336  -3.5149  -3.4994  -3.4883  -3.4871
    -3.4863  -3.4827  -3.4590  -3.4580  -3.4225  -3.4214  -3.4013  -3.3995
    -3.3677  -3.3663  -3.3493  -3.3209  -3.3205  -3.2841  -3.2832  -3.2478
    -3.2396  -3.2392  -3.2261  -3.2251  -3.2200  -3.2196  -3.1841  -3.1711
    -3.1313  -3.1308  -3.1225  -3.1138  -3.1126  -3.1111  -3.0878  -3.0872
    -3.0664  -3.0658  -3.0651  -3.0383  -3.0380  -3.0305  -3.0284  -3.0272
    -2.9915  -2.9883  -2.9527  -2.9517  -2.9510  -2.9487  -2.9478  -2.8682
    -2.8586  -2.8553  -2.8540  -2.8535  -2.8526  -2.8492  -2.8480  -2.8470
    -2.8465  -2.8373  -2.8293  -2.8144  -2.8116  -2.8100  -2.8088  -2.7946
    -2.7912  -2.7527  -2.7513  -2.7511  -2.7474  -2.7460  -2.7283  -2.7281
    -2.7208  -2.7198  -2.7164  -2.6599  -2.6578  -2.6527  -2.6519  -2.6492
    -2.6473  -2.6204  -2.5598  -2.5594  -2.5587  -2.5557  -2.5450  -2.5446
    -2.5392  -2.5281  -2.5273  -2.4946  -2.4902  -2.4835  -2.4820  -2.4810
    -2.4803  -2.4424  -2.4413  -2.4314  -2.4304  -2.4291  -2.4287  -2.3892
    -2.3716  -2.3689  -2.3120  -2.3115  -2.2967  -2.2928  -2.2895  -2.2865
    -2.2426  -2.2369  -2.2143  -2.2039  -2.1865  -2.1847  -2.1816  -2.1621
    -2.1605  -2.1509  -2.1365  -2.0987  -2.0955  -2.0881  -2.0786  -2.0779
    -2.0719  -2.0675  -2.0574  -2.0537  -2.0506  -2.0476  -2.0449  -2.0420
    -2.0417  -2.0332  -2.0309  -2.0169  -2.0116  -2.0096  -2.0053  -2.0008
    -2.0001  -1.9793  -1.9776  -1.9678  -1.9641  -1.9623  -1.9574  -1.9209
    -1.8887  -1.8869  -1.8681  -1.8505  -1.8335  -1.8323  -1.8223  -1.8123
    -1.7986  -1.7941  -1.7844  -1.7839  -1.7818  -1.7812  -1.7788  -1.7477
    -1.7462  -1.7454  -1.7070  -1.7002  -1.6847  -1.6615  -1.6462  -1.6128
    -1.6059  -1.5954  -1.5778  -1.5743  -1.5693  -1.5538  -1.5488  -1.5353
    -1.5337  -1.5299  -1.5295  -1.5280  -1.5275  -1.5252  -1.5160  -1.5051
    -1.5002  -1.4813  -1.4764  -1.4586  -1.4561  -1.4320  -1.4313  -1.4280
    -1.4269  -1.4232  -1.4144  -1.4009  -1.3941  -1.3842  -1.3756  -1.3624
    -1.3519  -1.3487  -1.3406  -1.3181  -1.3167  -1.3091  -1.2978  -1.2732
    -1.2686  -1.2642  -1.2627  -1.2560  -1.2499  -1.2345  -1.2332  -1.2230
    -1.2160  -1.2146  -1.2030  -1.2018  -1.2007  -1.1933  -1.1875  -1.1762
    -1.1746  -1.1677  -1.1669  -1.1550  -1.1514  -1.1452  -1.1386  -1.1055
    -1.1037  -1.0982  -1.0956  -1.0947  -1.0922  -1.0568  -1.0390  -1.0383
    -1.0376  -1.0372  -1.0330  -1.0284  -1.0204  -1.0134  -1.0100  -0.9774
    -0.9756  -0.9694  -0.9681  -0.9467  -0.9461  -0.9367  -0.9079  -0.8992
    -0.8732  -0.8714  -0.8438  -0.8434  -0.8407  -0.8401  -0.8380  -0.8336
    -0.8295  -0.8272  -0.8247  -0.8237  -0.7929  -0.7925  -0.7746  -0.7710
    -0.7703  -0.7687  -0.7659  -0.7525  -0.7484  -0.4746  -0.4618  -0.4057
    -0.3948  -0.3663  -0.2037  -0.1411  -0.1402  -0.1025   0.1777   0.1804
     0.5075   0.5139   0.6068   0.6075   0.6480   0.6509   0.7925   0.7970
     0.9154   0.9184   1.0090   1.6027   1.6207   1.6216   1.6601   1.6665
     1.7096   1.7186   1.7899   1.7942   1.9974   1.9990   2.2335   2.3116
     2.3171   2.3306   2.7073   2.7156   2.7826   2.7838   2.7918   2.7925
     2.9421   2.9428   2.9875   3.0870   3.0897   3.3175   3.3216   3.4522
     3.4774   3.4801   3.7502   3.7529   3.8554   3.8824   3.8835   3.9382
     3.9669   4.0701   4.0718   4.3042   4.3073   4.3939   4.3974   4.5133
     4.5216   4.5409   4.5498   4.6844   5.0878   5.3392   5.3517   5.4483
     5.4560   5.5193   5.6283   5.6335   5.6797   5.7156   5.7430   5.7469
     5.7567   5.8009   5.8019   5.8449   6.0380   6.0761   6.1006   6.1133
     6.1254   6.1363   6.1438   6.1509   6.1533   6.1635   6.2078   6.2275

          k =-0.2500-0.2500 0.0833 (167653 PWs)   bands (ev):

   -19.5683  -7.4282  -6.8209  -6.2934  -6.2924  -5.8635  -5.4550  -5.3616
    -5.3610  -5.1654  -5.1652  -5.0489  -5.0470  -4.9688  -4.9466  -4.8732
    -4.7881  -4.7841  -4.7461  -4.7452  -4.5851  -4.5678  -4.5666  -4.5662
    -4.5593  -4.5040  -4.5038  -4.4923  -4.4918  -4.4547  -4.4439  -4.4422
    -4.4002  -4.3999  -4.3666  -4.3655  -4.3143  -4.3132  -4.3038  -4.3012
    -4.2958  -4.2830  -4.2827  -4.2433  -4.2236  -4.2234  -4.2163  -4.2159
    -4.1857  -4.1387  -4.1192  -4.1190  -4.1186  -4.1150  -4.1076  -4.1020
    -4.1015  -4.1011  -4.0382  -4.0364  -3.9911  -3.9863  -3.9755  -3.9488
    -3.9476  -3.9311  -3.9252  -3.9249  -3.9210  -3.9180  -3.8698  -3.8684
    -3.8562  -3.8554  -3.7620  -3.7504  -3.7468  -3.7441  -3.7087  -3.7023
    -3.6840  -3.6802  -3.6537  -3.6492  -3.6243  -3.6219  -3.6032  -3.6022
    -3.5905  -3.5891  -3.5340  -3.5336  -3.5149  -3.4994  -3.4883  -3.4872
    -3.4863  -3.4827  -3.4590  -3.4580  -3.4225  -3.4214  -3.4013  -3.3995
    -3.3677  -3.3663  -3.3493  -3.3209  -3.3205  -3.2841  -3.2832  -3.2478
    -3.2396  -3.2392  -3.2261  -3.2251  -3.2200  -3.2196  -3.1841  -3.1711
    -3.1313  -3.1308  -3.1225  -3.1138  -3.1126  -3.1111  -3.0878  -3.0872
    -3.0664  -3.0658  -3.0651  -3.0383  -3.0380  -3.0305  -3.0284  -3.0272
    -2.9915  -2.9883  -2.9527  -2.9517  -2.9510  -2.9487  -2.9478  -2.8682
    -2.8586  -2.8553  -2.8540  -2.8535  -2.8526  -2.8492  -2.8480  -2.8470
    -2.8465  -2.8373  -2.8293  -2.8144  -2.8116  -2.8100  -2.8088  -2.7946
    -2.7913  -2.7527  -2.7514  -2.7511  -2.7475  -2.7460  -2.7283  -2.7281
    -2.7208  -2.7198  -2.7164  -2.6599  -2.6578  -2.6527  -2.6519  -2.6492
    -2.6473  -2.6204  -2.5598  -2.5594  -2.5587  -2.5557  -2.5450  -2.5446
    -2.5392  -2.5281  -2.5274  -2.4947  -2.4902  -2.4835  -2.4820  -2.4810
    -2.4803  -2.4424  -2.4413  -2.4314  -2.4304  -2.4291  -2.4287  -2.3892
    -2.3716  -2.3689  -2.3120  -2.3115  -2.2967  -2.2928  -2.2895  -2.2865
    -2.2426  -2.2369  -2.2143  -2.2039  -2.1865  -2.1847  -2.1816  -2.1621
    -2.1605  -2.1509  -2.1365  -2.0987  -2.0955  -2.0881  -2.0786  -2.0779
    -2.0719  -2.0675  -2.0574  -2.0537  -2.0506  -2.0476  -2.0449  -2.0420
    -2.0417  -2.0332  -2.0309  -2.0169  -2.0116  -2.0096  -2.0053  -2.0008
    -2.0001  -1.9793  -1.9776  -1.9678  -1.9641  -1.9623  -1.9574  -1.9208
    -1.8887  -1.8869  -1.8681  -1.8505  -1.8335  -1.8323  -1.8223  -1.8123
    -1.7987  -1.7941  -1.7844  -1.7839  -1.7818  -1.7812  -1.7788  -1.7477
    -1.7463  -1.7454  -1.7070  -1.7002  -1.6847  -1.6615  -1.6462  -1.6128
    -1.6059  -1.5954  -1.5778  -1.5743  -1.5693  -1.5538  -1.5488  -1.5353
    -1.5337  -1.5299  -1.5295  -1.5280  -1.5275  -1.5252  -1.5160  -1.5051
    -1.5002  -1.4813  -1.4764  -1.4586  -1.4561  -1.4320  -1.4313  -1.4280
    -1.4269  -1.4232  -1.4144  -1.4010  -1.3941  -1.3841  -1.3756  -1.3624
    -1.3519  -1.3487  -1.3406  -1.3181  -1.3167  -1.3091  -1.2978  -1.2732
    -1.2686  -1.2642  -1.2627  -1.2560  -1.2499  -1.2345  -1.2332  -1.2230
    -1.2160  -1.2146  -1.2030  -1.2018  -1.2007  -1.1933  -1.1875  -1.1762
    -1.1746  -1.1677  -1.1669  -1.1551  -1.1514  -1.1452  -1.1386  -1.1055
    -1.1037  -1.0982  -1.0956  -1.0947  -1.0922  -1.0568  -1.0390  -1.0383
    -1.0376  -1.0372  -1.0330  -1.0284  -1.0204  -1.0134  -1.0100  -0.9774
    -0.9756  -0.9694  -0.9681  -0.9467  -0.9461  -0.9367  -0.9079  -0.8992
    -0.8732  -0.8714  -0.8438  -0.8434  -0.8407  -0.8401  -0.8380  -0.8336
    -0.8295  -0.8272  -0.8247  -0.8237  -0.7929  -0.7925  -0.7746  -0.7710
    -0.7703  -0.7687  -0.7659  -0.7525  -0.7485  -0.4746  -0.4618  -0.4057
    -0.3948  -0.3663  -0.2037  -0.1411  -0.1402  -0.1025   0.1777   0.1804
     0.5075   0.5139   0.6068   0.6075   0.6480   0.6509   0.7925   0.7970
     0.9154   0.9184   1.0090   1.6027   1.6207   1.6216   1.6601   1.6665
     1.7096   1.7186   1.7899   1.7942   1.9974   1.9989   2.2335   2.3116
     2.3171   2.3306   2.7073   2.7156   2.7826   2.7838   2.7918   2.7925
     2.9421   2.9428   2.9875   3.0870   3.0897   3.3175   3.3216   3.4522
     3.4774   3.4801   3.7502   3.7529   3.8554   3.8824   3.8835   3.9382
     3.9669   4.0701   4.0718   4.3042   4.3073   4.3939   4.3974   4.5133
     4.5216   4.5409   4.5498   4.6843   5.0941   5.3415   5.3569   5.4488
     5.4560   5.5250   5.6282   5.6332   5.6578   5.7018   5.7342   5.7461
     5.7527   5.8007   5.8017   5.8440   6.0239   6.0748   6.1050   6.1190
     6.1261   6.1374   6.1413   6.1453   6.1532   6.1608   6.1729   6.2169

          k =-0.2500 0.2500-0.0833 (167653 PWs)   bands (ev):

   -19.5683  -7.4282  -6.8209  -6.2942  -6.2915  -5.8636  -5.4549  -5.3629
    -5.3597  -5.1656  -5.1650  -5.0502  -5.0460  -4.9688  -4.9464  -4.8730
    -4.7880  -4.7843  -4.7465  -4.7452  -4.5849  -4.5681  -4.5676  -4.5650
    -4.5592  -4.5040  -4.5038  -4.4933  -4.4904  -4.4547  -4.4449  -4.4408
    -4.4004  -4.3997  -4.3668  -4.3652  -4.3163  -4.3118  -4.3035  -4.3014
    -4.2958  -4.2830  -4.2826  -4.2425  -4.2244  -4.2228  -4.2167  -4.2154
    -4.1849  -4.1369  -4.1225  -4.1200  -4.1177  -4.1149  -4.1077  -4.1021
    -4.1017  -4.1009  -4.0407  -4.0352  -3.9896  -3.9853  -3.9748  -3.9506
    -3.9478  -3.9343  -3.9255  -3.9246  -3.9208  -3.9179  -3.8692  -3.8684
    -3.8568  -3.8544  -3.7594  -3.7505  -3.7477  -3.7433  -3.7077  -3.7020
    -3.6879  -3.6817  -3.6538  -3.6460  -3.6250  -3.6221  -3.6031  -3.5998
    -3.5913  -3.5875  -3.5346  -3.5331  -3.5164  -3.4990  -3.4893  -3.4877
    -3.4862  -3.4829  -3.4592  -3.4560  -3.4226  -3.4207  -3.4022  -3.3986
    -3.3685  -3.3656  -3.3493  -3.3215  -3.3204  -3.2848  -3.2823  -3.2480
    -3.2395  -3.2392  -3.2265  -3.2248  -3.2204  -3.2194  -3.1841  -3.1710
    -3.1315  -3.1310  -3.1224  -3.1141  -3.1120  -3.1112  -3.0876  -3.0870
    -3.0681  -3.0660  -3.0633  -3.0383  -3.0375  -3.0306  -3.0288  -3.0269
    -2.9915  -2.9887  -2.9533  -2.9518  -2.9507  -2.9489  -2.9476  -2.8682
    -2.8587  -2.8571  -2.8543  -2.8525  -2.8519  -2.8501  -2.8471  -2.8469
    -2.8463  -2.8372  -2.8293  -2.8144  -2.8112  -2.8101  -2.8087  -2.7945
    -2.7910  -2.7530  -2.7517  -2.7507  -2.7489  -2.7449  -2.7293  -2.7270
    -2.7208  -2.7195  -2.7165  -2.6597  -2.6580  -2.6530  -2.6520  -2.6488
    -2.6470  -2.6208  -2.5603  -2.5590  -2.5581  -2.5558  -2.5451  -2.5443
    -2.5387  -2.5289  -2.5268  -2.4949  -2.4889  -2.4846  -2.4839  -2.4799
    -2.4790  -2.4424  -2.4403  -2.4318  -2.4302  -2.4298  -2.4277  -2.3895
    -2.3731  -2.3689  -2.3132  -2.3108  -2.2951  -2.2942  -2.2893  -2.2864
    -2.2431  -2.2368  -2.2140  -2.2050  -2.1859  -2.1843  -2.1818  -2.1620
    -2.1607  -2.1509  -2.1369  -2.1013  -2.0956  -2.0865  -2.0791  -2.0778
    -2.0718  -2.0674  -2.0590  -2.0538  -2.0519  -2.0470  -2.0452  -2.0424
    -2.0396  -2.0333  -2.0298  -2.0160  -2.0121  -2.0099  -2.0053  -2.0013
    -1.9995  -1.9798  -1.9766  -1.9661  -1.9647  -1.9629  -1.9580  -1.9209
    -1.8894  -1.8845  -1.8742  -1.8505  -1.8344  -1.8316  -1.8219  -1.8117
    -1.7994  -1.7925  -1.7849  -1.7830  -1.7818  -1.7812  -1.7782  -1.7481
    -1.7457  -1.7453  -1.7027  -1.7010  -1.6861  -1.6615  -1.6448  -1.6131
    -1.6059  -1.5952  -1.5774  -1.5742  -1.5691  -1.5546  -1.5486  -1.5373
    -1.5331  -1.5319  -1.5286  -1.5282  -1.5267  -1.5250  -1.5175  -1.5051
    -1.4996  -1.4807  -1.4766  -1.4584  -1.4542  -1.4330  -1.4304  -1.4296
    -1.4268  -1.4224  -1.4151  -1.4010  -1.3918  -1.3851  -1.3753  -1.3624
    -1.3525  -1.3485  -1.3404  -1.3180  -1.3160  -1.3094  -1.2984  -1.2759
    -1.2670  -1.2642  -1.2608  -1.2562  -1.2507  -1.2356  -1.2326  -1.2225
    -1.2172  -1.2135  -1.2045  -1.2016  -1.1998  -1.1928  -1.1873  -1.1759
    -1.1729  -1.1682  -1.1667  -1.1548  -1.1532  -1.1457  -1.1386  -1.1043
    -1.1021  -1.0999  -1.0961  -1.0947  -1.0928  -1.0566  -1.0414  -1.0380
    -1.0370  -1.0359  -1.0330  -1.0284  -1.0213  -1.0132  -1.0088  -0.9787
    -0.9739  -0.9691  -0.9680  -0.9472  -0.9459  -0.9365  -0.9072  -0.8992
    -0.8738  -0.8705  -0.8442  -0.8438  -0.8405  -0.8400  -0.8380  -0.8338
    -0.8296  -0.8270  -0.8262  -0.8229  -0.7939  -0.7914  -0.7761  -0.7714
    -0.7698  -0.7681  -0.7675  -0.7509  -0.7469  -0.4749  -0.4617  -0.4094
    -0.3905  -0.3666  -0.2049  -0.1430  -0.1388  -0.1032   0.1760   0.1832
     0.5031   0.5175   0.6050   0.6091   0.6444   0.6529   0.7870   0.8026
     0.9155   0.9186   1.0100   1.6033   1.6207   1.6231   1.6615   1.6663
     1.6994   1.7271   1.7862   1.7996   1.9940   2.0017   2.2348   2.3061
     2.3221   2.3304   2.6991   2.7214   2.7821   2.7850   2.7901   2.7947
     2.9406   2.9442   2.9838   3.0780   3.0991   3.3168   3.3203   3.4518
     3.4738   3.4848   3.7424   3.7582   3.8658   3.8822   3.8855   3.9271
     3.9709   4.0640   4.0751   4.3014   4.3088   4.3935   4.4013   4.5189
     4.5228   4.5343   4.5567   4.6870   5.0932   5.3309   5.3634   5.4441
     5.4559   5.5329   5.6203   5.6377   5.6603   5.7060   5.7221   5.7460
     5.7534   5.7880   5.8047   5.8431   6.0172   6.0853   6.0998   6.1158
     6.1268   6.1323   6.1397   6.1495   6.1532   6.1622   6.1818   6.2103

          k = 0.2500-0.2500-0.0833 (167653 PWs)   bands (ev):

   -19.5683  -7.4282  -6.8209  -6.2942  -6.2915  -5.8636  -5.4549  -5.3629
    -5.3597  -5.1656  -5.1650  -5.0502  -5.0460  -4.9688  -4.9464  -4.8730
    -4.7880  -4.7843  -4.7465  -4.7452  -4.5849  -4.5681  -4.5676  -4.5650
    -4.5592  -4.5040  -4.5038  -4.4933  -4.4904  -4.4547  -4.4449  -4.4408
    -4.4004  -4.3997  -4.3668  -4.3652  -4.3163  -4.3118  -4.3035  -4.3014
    -4.2958  -4.2830  -4.2826  -4.2425  -4.2244  -4.2228  -4.2167  -4.2154
    -4.1849  -4.1369  -4.1225  -4.1200  -4.1177  -4.1149  -4.1077  -4.1021
    -4.1017  -4.1009  -4.0407  -4.0352  -3.9896  -3.9853  -3.9748  -3.9506
    -3.9478  -3.9343  -3.9255  -3.9246  -3.9208  -3.9179  -3.8692  -3.8684
    -3.8568  -3.8544  -3.7594  -3.7505  -3.7477  -3.7433  -3.7077  -3.7020
    -3.6879  -3.6817  -3.6538  -3.6460  -3.6250  -3.6221  -3.6031  -3.5998
    -3.5913  -3.5875  -3.5346  -3.5331  -3.5164  -3.4990  -3.4893  -3.4877
    -3.4862  -3.4829  -3.4592  -3.4560  -3.4226  -3.4207  -3.4022  -3.3986
    -3.3685  -3.3656  -3.3493  -3.3215  -3.3204  -3.2848  -3.2823  -3.2480
    -3.2395  -3.2392  -3.2265  -3.2248  -3.2204  -3.2194  -3.1841  -3.1710
    -3.1315  -3.1310  -3.1224  -3.1141  -3.1120  -3.1112  -3.0876  -3.0870
    -3.0681  -3.0660  -3.0633  -3.0383  -3.0375  -3.0306  -3.0288  -3.0269
    -2.9915  -2.9887  -2.9533  -2.9518  -2.9507  -2.9489  -2.9476  -2.8682
    -2.8587  -2.8571  -2.8543  -2.8525  -2.8519  -2.8501  -2.8471  -2.8469
    -2.8463  -2.8372  -2.8293  -2.8144  -2.8112  -2.8101  -2.8087  -2.7945
    -2.7910  -2.7530  -2.7517  -2.7507  -2.7489  -2.7449  -2.7293  -2.7270
    -2.7208  -2.7195  -2.7165  -2.6597  -2.6580  -2.6530  -2.6520  -2.6488
    -2.6470  -2.6208  -2.5603  -2.5590  -2.5581  -2.5558  -2.5451  -2.5443
    -2.5387  -2.5289  -2.5268  -2.4949  -2.4889  -2.4846  -2.4839  -2.4799
    -2.4790  -2.4424  -2.4403  -2.4318  -2.4302  -2.4298  -2.4277  -2.3895
    -2.3731  -2.3689  -2.3132  -2.3108  -2.2951  -2.2942  -2.2893  -2.2864
    -2.2431  -2.2368  -2.2140  -2.2050  -2.1859  -2.1843  -2.1818  -2.1620
    -2.1607  -2.1509  -2.1369  -2.1013  -2.0956  -2.0865  -2.0791  -2.0778
    -2.0718  -2.0674  -2.0590  -2.0538  -2.0519  -2.0470  -2.0452  -2.0424
    -2.0396  -2.0333  -2.0298  -2.0160  -2.0121  -2.0099  -2.0053  -2.0013
    -1.9995  -1.9798  -1.9766  -1.9661  -1.9647  -1.9629  -1.9580  -1.9209
    -1.8894  -1.8845  -1.8742  -1.8505  -1.8344  -1.8316  -1.8219  -1.8117
    -1.7994  -1.7925  -1.7849  -1.7830  -1.7818  -1.7812  -1.7782  -1.7481
    -1.7457  -1.7453  -1.7027  -1.7010  -1.6861  -1.6615  -1.6448  -1.6131
    -1.6059  -1.5952  -1.5774  -1.5742  -1.5691  -1.5546  -1.5486  -1.5373
    -1.5331  -1.5319  -1.5286  -1.5282  -1.5267  -1.5250  -1.5175  -1.5051
    -1.4996  -1.4807  -1.4766  -1.4584  -1.4542  -1.4330  -1.4304  -1.4296
    -1.4268  -1.4224  -1.4151  -1.4010  -1.3918  -1.3851  -1.3753  -1.3624
    -1.3525  -1.3485  -1.3404  -1.3180  -1.3160  -1.3094  -1.2984  -1.2759
    -1.2670  -1.2642  -1.2608  -1.2562  -1.2507  -1.2356  -1.2326  -1.2225
    -1.2172  -1.2135  -1.2045  -1.2016  -1.1998  -1.1928  -1.1873  -1.1759
    -1.1729  -1.1682  -1.1667  -1.1548  -1.1532  -1.1457  -1.1386  -1.1043
    -1.1021  -1.0999  -1.0961  -1.0947  -1.0928  -1.0566  -1.0414  -1.0380
    -1.0370  -1.0359  -1.0330  -1.0284  -1.0213  -1.0132  -1.0088  -0.9787
    -0.9739  -0.9691  -0.9680  -0.9472  -0.9459  -0.9365  -0.9072  -0.8992
    -0.8738  -0.8705  -0.8442  -0.8438  -0.8405  -0.8400  -0.8380  -0.8338
    -0.8296  -0.8270  -0.8262  -0.8229  -0.7939  -0.7914  -0.7761  -0.7714
    -0.7698  -0.7681  -0.7675  -0.7509  -0.7469  -0.4749  -0.4617  -0.4094
    -0.3905  -0.3666  -0.2049  -0.1430  -0.1388  -0.1032   0.1760   0.1832
     0.5031   0.5175   0.6050   0.6091   0.6444   0.6529   0.7870   0.8026
     0.9155   0.9186   1.0100   1.6033   1.6207   1.6231   1.6615   1.6663
     1.6994   1.7271   1.7862   1.7996   1.9940   2.0017   2.2348   2.3061
     2.3221   2.3304   2.6991   2.7214   2.7821   2.7850   2.7901   2.7947
     2.9406   2.9442   2.9838   3.0780   3.0991   3.3168   3.3203   3.4518
     3.4738   3.4848   3.7424   3.7582   3.8658   3.8822   3.8855   3.9271
     3.9709   4.0640   4.0751   4.3014   4.3088   4.3935   4.4013   4.5189
     4.5228   4.5343   4.5566   4.6870   5.0933   5.3311   5.3629   5.4440
     5.4557   5.5340   5.6206   5.6378   5.6601   5.7051   5.7215   5.7459
     5.7533   5.7879   5.8047   5.8431   6.0157   6.0830   6.0992   6.1178
     6.1263   6.1324   6.1403   6.1491   6.1533   6.1606   6.1875   6.2177

          k =-0.2500 0.2500 0.2500 (167588 PWs)   bands (ev):

   -19.5683  -7.4282  -6.8209  -6.2942  -6.2915  -5.8636  -5.4549  -5.3629
    -5.3597  -5.1656  -5.1650  -5.0502  -5.0460  -4.9688  -4.9464  -4.8730
    -4.7880  -4.7843  -4.7465  -4.7452  -4.5849  -4.5681  -4.5676  -4.5650
    -4.5592  -4.5040  -4.5038  -4.4933  -4.4904  -4.4547  -4.4449  -4.4408
    -4.4004  -4.3997  -4.3668  -4.3652  -4.3163  -4.3118  -4.3036  -4.3014
    -4.2958  -4.2830  -4.2826  -4.2425  -4.2244  -4.2228  -4.2167  -4.2154
    -4.1849  -4.1369  -4.1225  -4.1200  -4.1177  -4.1149  -4.1077  -4.1021
    -4.1017  -4.1009  -4.0407  -4.0352  -3.9896  -3.9853  -3.9748  -3.9505
    -3.9477  -3.9343  -3.9255  -3.9246  -3.9208  -3.9179  -3.8692  -3.8684
    -3.8568  -3.8544  -3.7594  -3.7505  -3.7477  -3.7433  -3.7077  -3.7020
    -3.6879  -3.6817  -3.6538  -3.6460  -3.6250  -3.6221  -3.6031  -3.5998
    -3.5913  -3.5875  -3.5346  -3.5331  -3.5165  -3.4990  -3.4893  -3.4877
    -3.4862  -3.4829  -3.4592  -3.4560  -3.4226  -3.4207  -3.4022  -3.3986
    -3.3685  -3.3656  -3.3493  -3.3215  -3.3204  -3.2848  -3.2823  -3.2480
    -3.2395  -3.2392  -3.2265  -3.2248  -3.2204  -3.2194  -3.1841  -3.1710
    -3.1315  -3.1310  -3.1224  -3.1141  -3.1120  -3.1112  -3.0876  -3.0870
    -3.0681  -3.0660  -3.0633  -3.0383  -3.0375  -3.0306  -3.0288  -3.0269
    -2.9915  -2.9887  -2.9533  -2.9518  -2.9507  -2.9489  -2.9476  -2.8682
    -2.8587  -2.8571  -2.8543  -2.8525  -2.8519  -2.8501  -2.8471  -2.8469
    -2.8463  -2.8372  -2.8293  -2.8144  -2.8112  -2.8101  -2.8087  -2.7945
    -2.7910  -2.7530  -2.7517  -2.7507  -2.7489  -2.7449  -2.7292  -2.7270
    -2.7208  -2.7195  -2.7165  -2.6597  -2.6580  -2.6530  -2.6520  -2.6488
    -2.6470  -2.6208  -2.5603  -2.5590  -2.5581  -2.5558  -2.5451  -2.5443
    -2.5387  -2.5289  -2.5268  -2.4949  -2.4889  -2.4846  -2.4839  -2.4799
    -2.4790  -2.4424  -2.4403  -2.4318  -2.4302  -2.4298  -2.4277  -2.3895
    -2.3731  -2.3689  -2.3132  -2.3108  -2.2951  -2.2943  -2.2893  -2.2864
    -2.2431  -2.2368  -2.2140  -2.2050  -2.1859  -2.1843  -2.1818  -2.1620
    -2.1607  -2.1509  -2.1369  -2.1013  -2.0956  -2.0865  -2.0791  -2.0778
    -2.0718  -2.0674  -2.0590  -2.0538  -2.0519  -2.0470  -2.0452  -2.0424
    -2.0396  -2.0333  -2.0298  -2.0160  -2.0121  -2.0099  -2.0053  -2.0013
    -1.9995  -1.9798  -1.9766  -1.9661  -1.9647  -1.9629  -1.9580  -1.9209
    -1.8894  -1.8845  -1.8742  -1.8505  -1.8344  -1.8316  -1.8219  -1.8116
    -1.7994  -1.7925  -1.7849  -1.7830  -1.7818  -1.7812  -1.7782  -1.7481
    -1.7457  -1.7453  -1.7027  -1.7010  -1.6861  -1.6615  -1.6448  -1.6131
    -1.6059  -1.5952  -1.5774  -1.5742  -1.5691  -1.5546  -1.5487  -1.5373
    -1.5331  -1.5319  -1.5285  -1.5282  -1.5267  -1.5250  -1.5175  -1.5051
    -1.4996  -1.4807  -1.4766  -1.4584  -1.4542  -1.4330  -1.4304  -1.4296
    -1.4267  -1.4224  -1.4151  -1.4010  -1.3918  -1.3851  -1.3753  -1.3624
    -1.3525  -1.3485  -1.3404  -1.3180  -1.3160  -1.3094  -1.2984  -1.2759
    -1.2670  -1.2642  -1.2608  -1.2562  -1.2507  -1.2356  -1.2326  -1.2225
    -1.2172  -1.2135  -1.2045  -1.2016  -1.1998  -1.1928  -1.1873  -1.1759
    -1.1729  -1.1681  -1.1667  -1.1548  -1.1532  -1.1457  -1.1386  -1.1043
    -1.1021  -1.0999  -1.0961  -1.0947  -1.0928  -1.0566  -1.0414  -1.0380
    -1.0370  -1.0359  -1.0330  -1.0284  -1.0213  -1.0132  -1.0088  -0.9787
    -0.9739  -0.9691  -0.9680  -0.9472  -0.9459  -0.9365  -0.9072  -0.8992
    -0.8738  -0.8705  -0.8442  -0.8438  -0.8405  -0.8400  -0.8380  -0.8338
    -0.8296  -0.8271  -0.8262  -0.8229  -0.7939  -0.7914  -0.7761  -0.7714
    -0.7698  -0.7681  -0.7675  -0.7509  -0.7468  -0.4749  -0.4617  -0.4094
    -0.3905  -0.3666  -0.2049  -0.1430  -0.1388  -0.1032   0.1760   0.1832
     0.5031   0.5175   0.6050   0.6091   0.6444   0.6529   0.7870   0.8026
     0.9155   0.9186   1.0100   1.6033   1.6207   1.6231   1.6615   1.6663
     1.6994   1.7271   1.7862   1.7997   1.9940   2.0017   2.2348   2.3061
     2.3221   2.3304   2.6991   2.7214   2.7821   2.7850   2.7901   2.7947
     2.9406   2.9442   2.9838   3.0780   3.0991   3.3168   3.3203   3.4518
     3.4739   3.4848   3.7424   3.7582   3.8658   3.8822   3.8855   3.9272
     3.9710   4.0640   4.0751   4.3014   4.3088   4.3935   4.4013   4.5189
     4.5228   4.5343   4.5566   4.6871   5.0868   5.3290   5.3580   5.4434
     5.4556   5.5288   5.6208   5.6377   5.6787   5.7031   5.7443   5.7486
     5.7630   5.7882   5.8049   5.8433   6.0336   6.0817   6.0989   6.1043
     6.1270   6.1335   6.1469   6.1529   6.1541   6.1705   6.1973   6.2384

     the Fermi energy is     0.8678 ev

!    total energy              =   -7425.29210172 Ry
     Harris-Foulkes estimate   =   -7425.29210173 Ry
     estimated scf accuracy    <          7.4E-09 Ry

     The total energy is the sum of the following terms:

     one-electron contribution =  -48832.01732400 Ry
     hartree contribution      =   24966.83362556 Ry
     xc contribution           =   -3604.23295780 Ry
     ewald contribution        =   20044.12723369 Ry
     smearing contrib. (-TS)   =      -0.00267917 Ry

     convergence has been achieved in  25 iterations

     negative rho (up, down):  1.974E+00 0.000E+00

     Forces acting on atoms (Ry/au):

     atom    1 type  3   force =     0.00638797    0.00897424    0.00893592
     atom    2 type  2   force =    -0.00584724   -0.00505193   -0.00375511
     atom    3 type  2   force =     0.00271705   -0.00210719    0.00359502
     atom    4 type  1   force =    -0.00024436   -0.00021425    0.00224137
     atom    5 type  1   force =    -0.00006292   -0.00033984    0.00193290
     atom    6 type  1   force =    -0.00000460   -0.00034753    0.00192391
     atom    7 type  1   force =    -0.00002767   -0.00003114    0.00171705
     atom    8 type  1   force =     0.00004621    0.00001398    0.00157383
     atom    9 type  1   force =     0.00030937    0.00004218    0.00205582
     atom   10 type  1   force =    -0.00032574   -0.00007584    0.00192274
     atom   11 type  1   force =    -0.00000039    0.00002814    0.00159748
     atom   12 type  1   force =     0.00001111    0.00003424    0.00187464
     atom   13 type  1   force =     0.00004237    0.00002884    0.00157897
     atom   14 type  1   force =     0.00004283    0.00003551    0.00175408
     atom   15 type  1   force =     0.00025712    0.00001843    0.00189366
     atom   16 type  1   force =    -0.00036006    0.00000834    0.00192082
     atom   17 type  1   force =     0.00001331    0.00002394    0.00185397
     atom   18 type  1   force =    -0.00005131   -0.00002445    0.00167629
     atom   19 type  1   force =     0.00007189    0.00028677    0.00205713
     atom   20 type  1   force =     0.00001629    0.00026046    0.00191051
     atom   21 type  1   force =     0.00024077    0.00023698    0.00203471
     atom   22 type  1   force =     0.00001105   -0.00031989   -0.00110565
     atom   23 type  1   force =     0.00006284   -0.00030452   -0.00111077
     atom   24 type  1   force =     0.00039216   -0.00045412   -0.00111801
     atom   25 type  1   force =    -0.00037866    0.00005552   -0.00113092
     atom   26 type  1   force =     0.00003429    0.00004794   -0.00128018
     atom   27 type  1   force =    -0.00037794   -0.00011318   -0.00117950
     atom   28 type  1   force =     0.00000616    0.00008162   -0.00131990
     atom   29 type  1   force =    -0.00021905   -0.00009882   -0.00110111
     atom   30 type  1   force =     0.00062492    0.00007626   -0.00112683
     atom   31 type  1   force =    -0.00029937    0.00005144   -0.00115384
     atom   32 type  1   force =    -0.00008770   -0.00024695   -0.00111067
     atom   33 type  1   force =     0.00010614    0.00003049   -0.00122022
     atom   34 type  1   force =    -0.00015537   -0.00030884   -0.00116005
     atom   35 type  1   force =     0.00004003    0.00004895   -0.00122428
     atom   36 type  1   force =     0.00043604    0.00005583   -0.00102781
     atom   37 type  1   force =    -0.00044229    0.00035879   -0.00112707
     atom   38 type  1   force =     0.00008289    0.00059938   -0.00110865
     atom   39 type  1   force =     0.00011186    0.00042526   -0.00102806
     atom   40 type  1   force =    -0.00050833   -0.00047299   -0.00049732
     atom   41 type  1   force =     0.00002352   -0.00021706   -0.00006268
     atom   42 type  1   force =     0.00018797   -0.00039591   -0.00003012
     atom   43 type  1   force =    -0.00018071    0.00004132    0.00014641
     atom   44 type  1   force =    -0.00034288   -0.00026062    0.00053481
     atom   45 type  1   force =     0.00018292    0.00005194    0.00006158
     atom   46 type  1   force =    -0.00037263    0.00010984    0.00000179
     atom   47 type  1   force =     0.00007533    0.00009891    0.00001909
     atom   48 type  1   force =     0.00004500    0.00004667   -0.00005146
     atom   49 type  1   force =     0.00019144    0.00036067    0.00000080
     atom   50 type  1   force =    -0.00031970    0.00001670    0.00032608
     atom   51 type  1   force =    -0.00006247    0.00007459   -0.00037147
     atom   52 type  1   force =     0.00000773   -0.00028254    0.00037918
     atom   53 type  1   force =     0.00003966    0.00007814    0.00001582
     atom   54 type  1   force =     0.00026863   -0.00005182    0.00003577
     atom   55 type  1   force =     0.00006469    0.00007203   -0.00031259
     atom   56 type  1   force =    -0.00001076    0.00023088   -0.00009046
     atom   57 type  1   force =     0.00032064    0.00036057   -0.00000724
     atom   58 type  1   force =    -0.00047960   -0.00397236   -0.00423245
     atom   59 type  1   force =    -0.00011198   -0.00021616   -0.00053383
     atom   60 type  1   force =     0.00033877   -0.00027621   -0.00057880
     atom   61 type  1   force =    -0.00436038   -0.00040652   -0.00499119
     atom   62 type  1   force =     0.00211429   -0.00010565   -0.00198724
     atom   63 type  1   force =     0.00005826   -0.00004186   -0.00050840
     atom   64 type  1   force =    -0.00018037    0.00216541   -0.00211766
     atom   65 type  1   force =    -0.00002846   -0.00006784   -0.00054404
     atom   66 type  1   force =     0.00032269   -0.00005883   -0.00070330
     atom   67 type  1   force =    -0.00031886    0.00003459   -0.00074589
     atom   68 type  1   force =    -0.00001218    0.00001240   -0.00063303
     atom   69 type  1   force =    -0.00003300    0.00000436   -0.00054521
     atom   70 type  1   force =    -0.00002414    0.00008774   -0.00051137
     atom   71 type  1   force =     0.00000141    0.00000572   -0.00052341
     atom   72 type  1   force =     0.00033539    0.00002089   -0.00080896
     atom   73 type  1   force =    -0.00023589    0.00035638   -0.00050924
     atom   74 type  1   force =    -0.00016062    0.00046899   -0.00049804
     atom   75 type  1   force =    -0.00001538    0.00034260   -0.00078813

     Total force =     0.022253     Total SCF correction =     0.000430

     BFGS Geometry Optimization

     number of scf cycles    =   1
     number of bfgs steps    =   0

     energy   new            =   -7425.2921017216 Ry

     new trust radius        =       0.0141842816 bohr
     new conv_thr            =       0.0000000100 Ry


ATOMIC_POSITIONS (angstrom)
O        2.130176138   2.131613396   9.078715692
H        1.522732635   1.543439165   8.571956740
H        2.710981370   1.514823024   9.560999522
Au      -0.000129309  -0.000113377   0.001186083
Au       4.253704631  -0.000179834   0.001022845
Au       8.507473421  -0.000183905   0.001018091
Au       2.126854320   2.126852484   0.000908622
Au       6.380631581   2.126876363   0.000832834
Au      10.634507813   2.126891284   0.001087894
Au      -0.000172373   4.253697794   0.001017469
Au       4.253737720   4.253752819   0.000845351
Au       8.507481733   4.253756047   0.000992016
Au       2.126891386   6.380622388   0.000835557
Au       6.380629795   6.380625920   0.000928219
Au      10.634480165   6.380616880   0.001002079
Au      -0.000190538   8.507480265   0.001016456
Au       4.253744968   8.507488523   0.000981078
Au       8.507448701   8.507462913   0.000887053
Au       2.126907006  10.634495851   0.001088585
Au       6.380615749  10.634481929   0.001010999
Au      10.634471514  10.634469504   0.001076723
Au       2.126874811  -0.000169280   2.126283880
Au       6.380640380  -0.000161148   2.126281169
Au      10.634551624  -0.000240307   2.126277337
Au      -0.000200379   2.126898345   2.126270504
Au       4.253756070   2.126894331   2.126191522
Au       8.507275856   2.126809071   2.126244801
Au       2.126872222   4.253781120   2.126170502
Au       6.380491211   4.253685633   2.126286279
Au      10.634674795   4.253778281   2.126272671
Au      -0.000158421   6.380634350   2.126258379
Au       4.253691516   6.380476449   2.126281220
Au       8.507532022   6.380623265   2.126223250
Au       2.126786745   8.507312423   2.126255089
Au       6.380628313   8.507501758   2.126221100
Au      10.634574843   8.507505397   2.126325071
Au      -0.000234051  10.634533962   2.126272541
Au       4.253781792  10.634661278   2.126282293
Au       8.507535048  10.634569136   2.126324937
Au      -0.000500896  -0.000482193   4.257637065
Au       4.253747033  -0.000345317   4.257860392
Au       8.507591533  -0.000443004   4.257888589
Au      -0.000326079   4.253756452   4.257971038
Au       4.253553621   4.253597150   4.258170850
Au       8.507586000   4.253763028   4.257932348
Au      -0.000430685   8.507550190   4.257905478
Au       4.253775405   8.507541543   4.257909864
Au       8.507514924   8.507515810   4.257883020
Au       2.126955484   2.127045040   4.257907340
Au       6.380430797   2.126863974   4.258071839
Au      10.634553275   2.126891744   4.257707004
Au       2.126859227   6.380450463   4.258099939
Au       6.380622393   6.380642757   4.257899071
Au      10.634726582   6.380574462   4.257914398
Au       2.126886506  10.634624453   4.257738161
Au       6.380596188  10.634706602   4.257847600
Au      10.634755054  10.634776186   4.257896886
Au       2.126609212  -0.002243698   6.371690260
Au       6.380544535  -0.000256804   6.373651781
Au      10.634674051  -0.000288409   6.373514016
Au      -0.002449028   2.126647884   6.371288755
Au       4.254851992   2.126809718   6.372992816
Au       8.507510497   2.126843475   6.373778247
Au       2.126770178   4.254879041   6.372923801
Au       6.380589682   4.253700117   6.373756999
Au      10.634662681   4.253703455   6.373566864
Au      -0.000311150   6.380622095   6.373539559
Au       4.253729571   6.380611306   6.373709912
Au       8.507461251   6.380608004   6.373758768
Au       2.126852849   8.507526099   6.373776674
Au       6.380606443   8.507481740   6.373770300
Au      10.634669400   8.507491673   6.373510475
Au      -0.000267071  10.634683367   6.373550827
Au       4.253649593  10.634740099   6.373675488
Au       8.507472480  10.634673218   6.373521501



     Writing output data file 9886283.save
     Check: negative starting charge=   -1.945170
     NEW-OLD atomic charge density approx. for the potential
     Check: negative starting charge=   -1.944971

     negative rho (up, down):  1.973E+00 0.000E+00

     total cpu time spent up to now is     4528.9 secs

     per-process dynamical memory:   774.3 Mb

     Self-consistent Calculation

     iteration #  1     ecut=    50.00 Ry     beta=0.70
     Davidson diagonalization with overlap
     ethr =  1.00E-06,  avg # of iterations =  3.3

     Threshold (ethr) on eigenvalues was too large:
     Diagonalizing with lowered threshold

     Davidson diagonalization with overlap
     ethr =  1.87E-08,  avg # of iterations =  3.0

     negative rho (up, down):  1.973E+00 0.000E+00

     total cpu time spent up to now is     4863.9 secs

     total energy              =   -7425.29228152 Ry
     Harris-Foulkes estimate   =   -7425.29238558 Ry
     estimated scf accuracy    <       0.00015712 Ry

     iteration #  2     ecut=    50.00 Ry     beta=0.70
     Davidson diagonalization with overlap
     ethr =  1.96E-08,  avg # of iterations =  4.0

     negative rho (up, down):  1.973E+00 0.000E+00

     total cpu time spent up to now is     5024.6 secs

     total energy              =   -7425.29222946 Ry
     Harris-Foulkes estimate   =   -7425.29241517 Ry
     estimated scf accuracy    <       0.00047628 Ry

     iteration #  3     ecut=    50.00 Ry     beta=0.70
     Davidson diagonalization with overlap
     ethr =  1.96E-08,  avg # of iterations =  4.0

     negative rho (up, down):  1.973E+00 0.000E+00

     total cpu time spent up to now is     5224.2 secs

     total energy              =   -7425.29223177 Ry
     Harris-Foulkes estimate   =   -7425.29244312 Ry
     estimated scf accuracy    <       0.00151624 Ry

     iteration #  4     ecut=    50.00 Ry     beta=0.70
     Davidson diagonalization with overlap
     ethr =  1.96E-08,  avg # of iterations =  3.0

     negative rho (up, down):  1.973E+00 0.000E+00

     total cpu time spent up to now is     5386.2 secs

     total energy              =   -7425.29231799 Ry
     Harris-Foulkes estimate   =   -7425.29236601 Ry
     estimated scf accuracy    <       0.00028548 Ry

     iteration #  5     ecut=    50.00 Ry     beta=0.70
     Davidson diagonalization with overlap
     ethr =  1.96E-08,  avg # of iterations =  2.0

     negative rho (up, down):  1.973E+00 0.000E+00

     total cpu time spent up to now is     5520.8 secs

     total energy              =   -7425.29234091 Ry
     Harris-Foulkes estimate   =   -7425.29234963 Ry
     estimated scf accuracy    <       0.00003718 Ry

     iteration #  6     ecut=    50.00 Ry     beta=0.70
     Davidson diagonalization with overlap
     ethr =  4.65E-09,  avg # of iterations =  2.0

     negative rho (up, down):  1.973E+00 0.000E+00

     total cpu time spent up to now is     5668.9 secs

     total energy              =   -7425.29234307 Ry
     Harris-Foulkes estimate   =   -7425.29234879 Ry
     estimated scf accuracy    <       0.00002528 Ry

     iteration #  7     ecut=    50.00 Ry     beta=0.70
     Davidson diagonalization with overlap
     ethr =  3.16E-09,  avg # of iterations =  2.0

     negative rho (up, down):  1.973E+00 0.000E+00

     total cpu time spent up to now is     5804.1 secs

     total energy              =   -7425.29234548 Ry
     Harris-Foulkes estimate   =   -7425.29234667 Ry
     estimated scf accuracy    <       0.00000482 Ry

     iteration #  8     ecut=    50.00 Ry     beta=0.70
     Davidson diagonalization with overlap
     ethr =  6.02E-10,  avg # of iterations =  2.0

     negative rho (up, down):  1.973E+00 0.000E+00

     total cpu time spent up to now is     5931.4 secs

     total energy              =   -7425.29234607 Ry
     Harris-Foulkes estimate   =   -7425.29234628 Ry
     estimated scf accuracy    <       0.00000066 Ry

     iteration #  9     ecut=    50.00 Ry     beta=0.70
     Davidson diagonalization with overlap
     ethr =  8.28E-11,  avg # of iterations =  2.8

     negative rho (up, down):  1.973E+00 0.000E+00

     total cpu time spent up to now is     6091.0 secs

     total energy              =   -7425.29234617 Ry
     Harris-Foulkes estimate   =   -7425.29234629 Ry
     estimated scf accuracy    <       0.00000053 Ry

     iteration # 10     ecut=    50.00 Ry     beta=0.70
     Davidson diagonalization with overlap
     ethr =  6.58E-11,  avg # of iterations =  2.0

     negative rho (up, down):  1.973E+00 0.000E+00

     total cpu time spent up to now is     6218.3 secs

     total energy              =   -7425.29234624 Ry
     Harris-Foulkes estimate   =   -7425.29234626 Ry
     estimated scf accuracy    <       0.00000006 Ry

     iteration # 11     ecut=    50.00 Ry     beta=0.70
     Davidson diagonalization with overlap
     ethr =  6.95E-12,  avg # of iterations =  3.0

     negative rho (up, down):  1.973E+00 0.000E+00

     total cpu time spent up to now is     6366.1 secs

     total energy              =   -7425.29234625 Ry
     Harris-Foulkes estimate   =   -7425.29234625 Ry
     estimated scf accuracy    <       0.00000002 Ry

     iteration # 12     ecut=    50.00 Ry     beta=0.70
     Davidson diagonalization with overlap
     ethr =  2.76E-12,  avg # of iterations =  3.0

     negative rho (up, down):  1.973E+00 0.000E+00

     total cpu time spent up to now is     6532.2 secs

     total energy              =   -7425.29234625 Ry
     Harris-Foulkes estimate   =   -7425.29234626 Ry
     estimated scf accuracy    <       0.00000002 Ry

     iteration # 13     ecut=    50.00 Ry     beta=0.70
     Davidson diagonalization with overlap
     ethr =  2.76E-12,  avg # of iterations =  2.0

     negative rho (up, down):  1.973E+00 0.000E+00

     total cpu time spent up to now is     6667.0 secs

     total energy              =   -7425.29234625 Ry
     Harris-Foulkes estimate   =   -7425.29234626 Ry
     estimated scf accuracy    <       0.00000001 Ry

     iteration # 14     ecut=    50.00 Ry     beta=0.70
     Davidson diagonalization with overlap
     ethr =  1.71E-12,  avg # of iterations =  2.0

     negative rho (up, down):  1.973E+00 0.000E+00

     total cpu time spent up to now is     6793.5 secs

     total energy              =   -7425.29234626 Ry
     Harris-Foulkes estimate   =   -7425.29234626 Ry
     estimated scf accuracy    <       0.00000001 Ry

     iteration # 15     ecut=    50.00 Ry     beta=0.70
     Davidson diagonalization with overlap
     ethr =  1.71E-12,  avg # of iterations =  1.0

     negative rho (up, down):  1.973E+00 0.000E+00

     total cpu time spent up to now is     6933.5 secs

     End of self-consistent calculation

          k = 0.2500 0.2500 0.0833 (167653 PWs)   bands (ev):

   -19.4963  -7.3422  -6.8221  -6.2948  -6.2937  -5.8648  -5.4576  -5.3629
    -5.3624  -5.1665  -5.1665  -5.0514  -5.0496  -4.9698  -4.9486  -4.8745
    -4.7891  -4.7855  -4.7478  -4.7467  -4.5862  -4.5686  -4.5676  -4.5673
    -4.5608  -4.5053  -4.5050  -4.4935  -4.4931  -4.4556  -4.4460  -4.4444
    -4.4013  -4.4011  -4.3677  -4.3667  -4.3155  -4.3145  -4.3052  -4.3021
    -4.2971  -4.2842  -4.2839  -4.2446  -4.2247  -4.2244  -4.2175  -4.2172
    -4.1881  -4.1412  -4.1211  -4.1201  -4.1198  -4.1171  -4.1087  -4.1035
    -4.1030  -4.1024  -4.0399  -4.0382  -3.9932  -3.9883  -3.9779  -3.9509
    -3.9495  -3.9333  -3.9265  -3.9261  -3.9237  -3.9202  -3.8709  -3.8696
    -3.8573  -3.8567  -3.7640  -3.7524  -3.7488  -3.7459  -3.7099  -3.7038
    -3.6866  -3.6826  -3.6558  -3.6516  -3.6255  -3.6231  -3.6055  -3.6048
    -3.5923  -3.5912  -3.5354  -3.5351  -3.5166  -3.5025  -3.4906  -3.4888
    -3.4879  -3.4852  -3.4614  -3.4607  -3.4237  -3.4228  -3.4035  -3.4021
    -3.3702  -3.3688  -3.3498  -3.3236  -3.3230  -3.2851  -3.2844  -3.2486
    -3.2402  -3.2399  -3.2282  -3.2271  -3.2216  -3.2212  -3.1859  -3.1738
    -3.1336  -3.1328  -3.1235  -3.1154  -3.1142  -3.1129  -3.0894  -3.0891
    -3.0682  -3.0671  -3.0661  -3.0392  -3.0389  -3.0318  -3.0298  -3.0286
    -2.9923  -2.9894  -2.9535  -2.9530  -2.9521  -2.9502  -2.9496  -2.8693
    -2.8595  -2.8559  -2.8556  -2.8547  -2.8542  -2.8498  -2.8489  -2.8478
    -2.8473  -2.8384  -2.8304  -2.8146  -2.8128  -2.8113  -2.8101  -2.7954
    -2.7924  -2.7530  -2.7522  -2.7519  -2.7482  -2.7469  -2.7291  -2.7289
    -2.7215  -2.7211  -2.7172  -2.6613  -2.6596  -2.6543  -2.6537  -2.6505
    -2.6491  -2.6211  -2.5608  -2.5602  -2.5595  -2.5571  -2.5464  -2.5460
    -2.5410  -2.5287  -2.5279  -2.4952  -2.4914  -2.4842  -2.4826  -2.4820
    -2.4812  -2.4434  -2.4428  -2.4324  -2.4313  -2.4300  -2.4296  -2.3911
    -2.3726  -2.3700  -2.3137  -2.3131  -2.2973  -2.2936  -2.2910  -2.2887
    -2.2437  -2.2383  -2.2168  -2.2043  -2.1880  -2.1855  -2.1831  -2.1643
    -2.1630  -2.1534  -2.1361  -2.0992  -2.0963  -2.0885  -2.0802  -2.0792
    -2.0733  -2.0694  -2.0584  -2.0546  -2.0517  -2.0498  -2.0455  -2.0430
    -2.0426  -2.0337  -2.0318  -2.0173  -2.0124  -2.0099  -2.0062  -2.0025
    -2.0018  -1.9799  -1.9786  -1.9690  -1.9656  -1.9638  -1.9589  -1.9210
    -1.8883  -1.8866  -1.8656  -1.8528  -1.8344  -1.8327  -1.8222  -1.8123
    -1.7994  -1.7949  -1.7859  -1.7851  -1.7827  -1.7821  -1.7796  -1.7484
    -1.7471  -1.7465  -1.7071  -1.7012  -1.6833  -1.6623  -1.6457  -1.6133
    -1.6061  -1.5953  -1.5794  -1.5748  -1.5699  -1.5540  -1.5490  -1.5359
    -1.5338  -1.5305  -1.5302  -1.5288  -1.5283  -1.5257  -1.5164  -1.5062
    -1.5010  -1.4814  -1.4767  -1.4595  -1.4563  -1.4331  -1.4325  -1.4287
    -1.4277  -1.4244  -1.4148  -1.4014  -1.3945  -1.3846  -1.3761  -1.3630
    -1.3520  -1.3491  -1.3404  -1.3181  -1.3167  -1.3098  -1.2978  -1.2736
    -1.2689  -1.2647  -1.2632  -1.2566  -1.2501  -1.2345  -1.2330  -1.2234
    -1.2168  -1.2151  -1.2037  -1.2024  -1.2013  -1.1935  -1.1878  -1.1762
    -1.1747  -1.1683  -1.1674  -1.1555  -1.1518  -1.1459  -1.1386  -1.1061
    -1.1042  -1.0987  -1.0961  -1.0953  -1.0925  -1.0575  -1.0395  -1.0387
    -1.0381  -1.0377  -1.0338  -1.0287  -1.0207  -1.0141  -1.0103  -0.9777
    -0.9759  -0.9701  -0.9687  -0.9470  -0.9463  -0.9372  -0.9080  -0.8994
    -0.8738  -0.8718  -0.8440  -0.8436  -0.8412  -0.8405  -0.8386  -0.8344
    -0.8297  -0.8274  -0.8248  -0.8237  -0.7932  -0.7928  -0.7749  -0.7714
    -0.7707  -0.7689  -0.7663  -0.7524  -0.7488  -0.4752  -0.4632  -0.4060
    -0.3949  -0.3669  -0.2052  -0.1418  -0.1409  -0.1024   0.1770   0.1800
     0.5080   0.5146   0.6059   0.6068   0.6469   0.6500   0.7930   0.7977
     0.9146   0.9175   1.0092   1.6030   1.6200   1.6207   1.6589   1.6648
     1.7099   1.7189   1.7911   1.7955   1.9962   1.9982   2.2338   2.3124
     2.3181   2.3297   2.7077   2.7160   2.7816   2.7827   2.7910   2.7917
     2.9411   2.9419   2.9875   3.0873   3.0900   3.3181   3.3218   3.4509
     3.4784   3.4811   3.7507   3.7533   3.8548   3.8818   3.8829   3.9381
     3.9669   4.0689   4.0705   4.3033   4.3064   4.3928   4.3966   4.5136
     4.5219   4.5412   4.5499   4.6839   5.0931   5.3415   5.3559   5.4481
     5.4549   5.5281   5.6283   5.6335   5.6548   5.7008   5.7342   5.7454
     5.7522   5.7996   5.8008   5.8447   6.0224   6.0727   6.1061   6.1197
     6.1253   6.1382   6.1415   6.1451   6.1529   6.1598   6.1789   6.2195

          k = 0.2500 0.2500-0.2500 (167588 PWs)   bands (ev):

   -19.4963  -7.3421  -6.8221  -6.2948  -6.2937  -5.8648  -5.4576  -5.3629
    -5.3624  -5.1665  -5.1665  -5.0514  -5.0496  -4.9698  -4.9486  -4.8745
    -4.7891  -4.7855  -4.7478  -4.7467  -4.5862  -4.5686  -4.5676  -4.5673
    -4.5608  -4.5053  -4.5050  -4.4935  -4.4931  -4.4556  -4.4460  -4.4444
    -4.4013  -4.4011  -4.3677  -4.3667  -4.3155  -4.3145  -4.3052  -4.3021
    -4.2971  -4.2842  -4.2839  -4.2447  -4.2247  -4.2244  -4.2175  -4.2172
    -4.1881  -4.1412  -4.1211  -4.1201  -4.1198  -4.1171  -4.1087  -4.1035
    -4.1030  -4.1024  -4.0399  -4.0382  -3.9932  -3.9883  -3.9779  -3.9509
    -3.9495  -3.9333  -3.9265  -3.9261  -3.9237  -3.9202  -3.8709  -3.8696
    -3.8573  -3.8567  -3.7640  -3.7524  -3.7488  -3.7459  -3.7099  -3.7038
    -3.6866  -3.6826  -3.6558  -3.6516  -3.6255  -3.6231  -3.6055  -3.6048
    -3.5923  -3.5912  -3.5355  -3.5351  -3.5166  -3.5025  -3.4906  -3.4888
    -3.4879  -3.4852  -3.4614  -3.4607  -3.4237  -3.4228  -3.4035  -3.4021
    -3.3702  -3.3688  -3.3498  -3.3236  -3.3230  -3.2851  -3.2844  -3.2486
    -3.2402  -3.2399  -3.2282  -3.2271  -3.2216  -3.2212  -3.1859  -3.1738
    -3.1336  -3.1328  -3.1235  -3.1154  -3.1142  -3.1129  -3.0894  -3.0891
    -3.0682  -3.0671  -3.0661  -3.0392  -3.0389  -3.0318  -3.0298  -3.0286
    -2.9923  -2.9894  -2.9535  -2.9530  -2.9521  -2.9502  -2.9496  -2.8693
    -2.8595  -2.8559  -2.8556  -2.8547  -2.8542  -2.8498  -2.8489  -2.8478
    -2.8473  -2.8384  -2.8304  -2.8146  -2.8128  -2.8113  -2.8101  -2.7954
    -2.7924  -2.7530  -2.7522  -2.7519  -2.7482  -2.7469  -2.7291  -2.7289
    -2.7215  -2.7211  -2.7172  -2.6613  -2.6596  -2.6543  -2.6537  -2.6505
    -2.6490  -2.6211  -2.5608  -2.5602  -2.5595  -2.5571  -2.5464  -2.5460
    -2.5410  -2.5287  -2.5279  -2.4952  -2.4914  -2.4842  -2.4826  -2.4820
    -2.4812  -2.4434  -2.4428  -2.4324  -2.4313  -2.4300  -2.4296  -2.3911
    -2.3726  -2.3699  -2.3137  -2.3131  -2.2973  -2.2937  -2.2910  -2.2887
    -2.2437  -2.2383  -2.2168  -2.2043  -2.1880  -2.1855  -2.1831  -2.1643
    -2.1630  -2.1534  -2.1361  -2.0992  -2.0963  -2.0885  -2.0802  -2.0792
    -2.0733  -2.0694  -2.0584  -2.0546  -2.0517  -2.0498  -2.0455  -2.0430
    -2.0426  -2.0337  -2.0318  -2.0173  -2.0124  -2.0099  -2.0062  -2.0025
    -2.0018  -1.9799  -1.9786  -1.9690  -1.9656  -1.9638  -1.9589  -1.9210
    -1.8883  -1.8866  -1.8656  -1.8528  -1.8344  -1.8327  -1.8222  -1.8123
    -1.7994  -1.7948  -1.7859  -1.7851  -1.7827  -1.7821  -1.7796  -1.7484
    -1.7471  -1.7465  -1.7071  -1.7012  -1.6833  -1.6623  -1.6457  -1.6133
    -1.6061  -1.5954  -1.5794  -1.5748  -1.5699  -1.5540  -1.5490  -1.5359
    -1.5338  -1.5305  -1.5302  -1.5288  -1.5283  -1.5257  -1.5164  -1.5062
    -1.5010  -1.4815  -1.4767  -1.4595  -1.4563  -1.4331  -1.4325  -1.4286
    -1.4277  -1.4244  -1.4148  -1.4014  -1.3945  -1.3846  -1.3761  -1.3630
    -1.3519  -1.3491  -1.3404  -1.3181  -1.3167  -1.3098  -1.2978  -1.2736
    -1.2689  -1.2647  -1.2632  -1.2566  -1.2501  -1.2345  -1.2330  -1.2234
    -1.2168  -1.2151  -1.2037  -1.2024  -1.2013  -1.1935  -1.1878  -1.1762
    -1.1747  -1.1683  -1.1674  -1.1555  -1.1518  -1.1459  -1.1386  -1.1061
    -1.1042  -1.0987  -1.0961  -1.0954  -1.0925  -1.0575  -1.0395  -1.0387
    -1.0381  -1.0377  -1.0338  -1.0287  -1.0207  -1.0141  -1.0103  -0.9777
    -0.9759  -0.9701  -0.9687  -0.9470  -0.9463  -0.9372  -0.9080  -0.8994
    -0.8738  -0.8718  -0.8440  -0.8436  -0.8412  -0.8405  -0.8386  -0.8344
    -0.8297  -0.8274  -0.8248  -0.8237  -0.7932  -0.7928  -0.7749  -0.7714
    -0.7707  -0.7689  -0.7663  -0.7524  -0.7488  -0.4752  -0.4632  -0.4060
    -0.3949  -0.3669  -0.2052  -0.1418  -0.1409  -0.1024   0.1770   0.1800
     0.5080   0.5146   0.6059   0.6068   0.6469   0.6500   0.7930   0.7977
     0.9146   0.9175   1.0092   1.6030   1.6200   1.6207   1.6589   1.6648
     1.7100   1.7189   1.7911   1.7955   1.9962   1.9982   2.2338   2.3124
     2.3181   2.3297   2.7077   2.7160   2.7816   2.7827   2.7910   2.7917
     2.9411   2.9419   2.9876   3.0873   3.0900   3.3181   3.3218   3.4509
     3.4784   3.4811   3.7507   3.7533   3.8548   3.8818   3.8829   3.9382
     3.9670   4.0689   4.0705   4.3033   4.3064   4.3928   4.3966   4.5136
     4.5219   4.5412   4.5498   4.6840   5.0866   5.3392   5.3515   5.4476
     5.4549   5.5195   5.6285   5.6335   5.6796   5.7155   5.7424   5.7462
     5.7567   5.7997   5.8010   5.8456   6.0373   6.0745   6.1011   6.1139
     6.1251   6.1364   6.1438   6.1508   6.1530   6.1635   6.2079   6.2275

          k =-0.2500-0.2500 0.0833 (167653 PWs)   bands (ev):

   -19.4963  -7.3421  -6.8221  -6.2948  -6.2937  -5.8648  -5.4576  -5.3629
    -5.3624  -5.1665  -5.1665  -5.0514  -5.0496  -4.9698  -4.9486  -4.8745
    -4.7891  -4.7855  -4.7478  -4.7467  -4.5862  -4.5686  -4.5676  -4.5673
    -4.5608  -4.5053  -4.5050  -4.4935  -4.4931  -4.4556  -4.4460  -4.4444
    -4.4013  -4.4011  -4.3677  -4.3667  -4.3155  -4.3145  -4.3052  -4.3021
    -4.2971  -4.2842  -4.2839  -4.2446  -4.2247  -4.2244  -4.2175  -4.2172
    -4.1881  -4.1412  -4.1211  -4.1201  -4.1198  -4.1171  -4.1087  -4.1035
    -4.1030  -4.1024  -4.0399  -4.0382  -3.9932  -3.9883  -3.9779  -3.9509
    -3.9495  -3.9333  -3.9265  -3.9261  -3.9237  -3.9202  -3.8709  -3.8696
    -3.8573  -3.8567  -3.7640  -3.7524  -3.7488  -3.7459  -3.7099  -3.7038
    -3.6866  -3.6826  -3.6558  -3.6516  -3.6255  -3.6231  -3.6055  -3.6048
    -3.5923  -3.5912  -3.5354  -3.5351  -3.5166  -3.5025  -3.4906  -3.4888
    -3.4879  -3.4852  -3.4614  -3.4607  -3.4237  -3.4228  -3.4035  -3.4021
    -3.3702  -3.3688  -3.3498  -3.3236  -3.3230  -3.2851  -3.2844  -3.2486
    -3.2402  -3.2399  -3.2282  -3.2271  -3.2216  -3.2212  -3.1859  -3.1738
    -3.1336  -3.1328  -3.1235  -3.1154  -3.1142  -3.1129  -3.0894  -3.0891
    -3.0682  -3.0671  -3.0661  -3.0392  -3.0389  -3.0318  -3.0298  -3.0286
    -2.9923  -2.9894  -2.9535  -2.9530  -2.9521  -2.9502  -2.9496  -2.8693
[...]
    -2.3950  -2.3935  -2.3426  -2.3412  -2.3180  -2.3174  -2.3145  -2.3136
    -2.2598  -2.2566  -2.2458  -2.2168  -2.2165  -2.2043  -2.2001  -2.1919
    -2.1915  -2.1824  -2.1442  -2.1133  -2.1112  -2.1045  -2.1037  -2.0956
    -2.0942  -2.0933  -2.0787  -2.0736  -2.0723  -2.0695  -2.0655  -2.0598
    -2.0559  -2.0508  -2.0483  -2.0287  -2.0274  -2.0264  -2.0255  -2.0245
    -2.0219  -2.0007  -1.9979  -1.9912  -1.9903  -1.9862  -1.9836  -1.9280
    -1.8960  -1.8919  -1.8806  -1.8513  -1.8489  -1.8403  -1.8335  -1.8210
    -1.8170  -1.8118  -1.8092  -1.8020  -1.7998  -1.7986  -1.7961  -1.7741
    -1.7658  -1.7624  -1.7210  -1.7186  -1.6790  -1.6768  -1.6347  -1.6278
    -1.6147  -1.6049  -1.5908  -1.5862  -1.5824  -1.5664  -1.5613  -1.5507
    -1.5500  -1.5476  -1.5469  -1.5454  -1.5437  -1.5425  -1.5324  -1.5236
    -1.5147  -1.4920  -1.4867  -1.4746  -1.4705  -1.4524  -1.4501  -1.4469
    -1.4452  -1.4442  -1.4297  -1.4166  -1.4074  -1.3989  -1.3922  -1.3789
    -1.3669  -1.3630  -1.3539  -1.3297  -1.3280  -1.3263  -1.3131  -1.2887
    -1.2807  -1.2793  -1.2750  -1.2703  -1.2638  -1.2464  -1.2439  -1.2365
    -1.2327  -1.2302  -1.2203  -1.2164  -1.2150  -1.2078  -1.2015  -1.1838
    -1.1829  -1.1821  -1.1794  -1.1710  -1.1674  -1.1630  -1.1569  -1.1178
    -1.1168  -1.1122  -1.1103  -1.1079  -1.1057  -1.0737  -1.0530  -1.0523
    -1.0509  -1.0495  -1.0483  -1.0394  -1.0360  -1.0291  -1.0254  -0.9924
    -0.9882  -0.9819  -0.9813  -0.9577  -0.9553  -0.9497  -0.9148  -0.9087
    -0.8876  -0.8857  -0.8570  -0.8563  -0.8534  -0.8521  -0.8514  -0.8503
    -0.8392  -0.8386  -0.8326  -0.8311  -0.8029  -0.8009  -0.7866  -0.7809
    -0.7791  -0.7782  -0.7770  -0.7678  -0.7588  -0.4881  -0.4852  -0.4177
    -0.4034  -0.3849  -0.2296  -0.1613  -0.1583  -0.1130   0.1686   0.1721
     0.5030   0.5151   0.5847   0.5876   0.6304   0.6365   0.7849   0.7976
     0.8942   0.8950   1.0084   1.5955   1.6000   1.6013   1.6400   1.6435
     1.7038   1.7283   1.7933   1.8021   1.9857   1.9890   2.2402   2.3050
     2.3092   2.3215   2.7104   2.7294   2.7686   2.7708   2.7725   2.7746
     2.9179   2.9195   2.9867   3.0883   3.1045   3.3114   3.3152   3.4345
     3.4792   3.4860   3.7549   3.7687   3.8611   3.8665   3.8693   3.9285
     3.9766   4.0485   4.0560   4.2891   4.2985   4.3674   4.3788   4.5172
     4.5189   4.5355   4.5545   4.6884   5.0542   5.3346   5.3620   5.4330
     5.4424   5.5211   5.6236   5.6374   5.6571   5.7056   5.7255   5.7304
     5.7419   5.7803   5.7901   5.8539   6.0139   6.0864   6.1090   6.1246
     6.1339   6.1397   6.1422   6.1452   6.1474   6.1553   6.1810   6.2213

          k =-0.2500 0.2500 0.2500 (167588 PWs)   bands (ev):

   -19.3760  -7.2055  -6.8620  -6.3352  -6.3320  -5.9034  -5.4908  -5.4027
    -5.4000  -5.2051  -5.2025  -5.0861  -5.0831  -5.0057  -4.9828  -4.9096
    -4.8247  -4.8204  -4.7832  -4.7811  -4.6161  -4.6043  -4.6029  -4.5999
    -4.5994  -4.5430  -4.5411  -4.5293  -4.5263  -4.4870  -4.4809  -4.4782
    -4.4377  -4.4358  -4.4022  -4.4018  -4.3477  -4.3436  -4.3355  -4.3322
    -4.3280  -4.3198  -4.3182  -4.2723  -4.2594  -4.2580  -4.2520  -4.2500
    -4.2189  -4.1707  -4.1534  -4.1520  -4.1505  -4.1499  -4.1420  -4.1395
    -4.1374  -4.1361  -4.0685  -4.0644  -4.0240  -4.0213  -4.0080  -3.9814
    -3.9801  -3.9621  -3.9598  -3.9583  -3.9568  -3.9477  -3.9042  -3.9027
    -3.8885  -3.8860  -3.7868  -3.7826  -3.7818  -3.7796  -3.7403  -3.7236
    -3.7202  -3.6903  -3.6892  -3.6594  -3.6565  -3.6368  -3.6362  -3.6205
    -3.6176  -3.5665  -3.5657  -3.5463  -3.5431  -3.5278  -3.5247  -3.5224
    -3.5209  -3.4986  -3.4929  -3.4667  -3.4556  -3.4471  -3.4348  -3.4311
    -3.4024  -3.3995  -3.3666  -3.3592  -3.3575  -3.3133  -3.3112  -3.2729
    -3.2666  -3.2632  -3.2586  -3.2571  -3.2521  -3.2491  -3.2110  -3.2081
    -3.1633  -3.1623  -3.1412  -3.1394  -3.1370  -3.1333  -3.1208  -3.1196
    -3.0963  -3.0929  -3.0757  -3.0663  -3.0652  -3.0581  -3.0577  -3.0568
    -3.0162  -3.0119  -2.9834  -2.9819  -2.9811  -2.9793  -2.9660  -2.8890
    -2.8876  -2.8844  -2.8821  -2.8755  -2.8751  -2.8724  -2.8710  -2.8691
    -2.8661  -2.8655  -2.8647  -2.8431  -2.8344  -2.8331  -2.8277  -2.8172
    -2.8159  -2.7795  -2.7768  -2.7698  -2.7667  -2.7626  -2.7588  -2.7559
    -2.7487  -2.7474  -2.7454  -2.6895  -2.6884  -2.6830  -2.6810  -2.6775
    -2.6747  -2.6380  -2.5870  -2.5831  -2.5803  -2.5782  -2.5768  -2.5691
    -2.5670  -2.5450  -2.5440  -2.5133  -2.5075  -2.5072  -2.5045  -2.4994
    -2.4936  -2.4654  -2.4594  -2.4577  -2.4566  -2.4501  -2.4448  -2.4133
    -2.3950  -2.3935  -2.3425  -2.3412  -2.3180  -2.3175  -2.3145  -2.3136
    -2.2598  -2.2566  -2.2458  -2.2168  -2.2165  -2.2043  -2.2001  -2.1919
    -2.1915  -2.1824  -2.1442  -2.1133  -2.1112  -2.1045  -2.1037  -2.0956
    -2.0942  -2.0933  -2.0787  -2.0736  -2.0723  -2.0695  -2.0655  -2.0598
    -2.0559  -2.0508  -2.0483  -2.0287  -2.0274  -2.0264  -2.0255  -2.0245
    -2.0219  -2.0007  -1.9979  -1.9912  -1.9903  -1.9862  -1.9836  -1.9280
    -1.8960  -1.8919  -1.8806  -1.8513  -1.8489  -1.8403  -1.8334  -1.8210
    -1.8170  -1.8118  -1.8092  -1.8020  -1.7998  -1.7986  -1.7961  -1.7741
    -1.7658  -1.7624  -1.7210  -1.7186  -1.6791  -1.6768  -1.6347  -1.6278
    -1.6147  -1.6049  -1.5908  -1.5863  -1.5824  -1.5665  -1.5613  -1.5507
    -1.5500  -1.5476  -1.5469  -1.5454  -1.5437  -1.5425  -1.5324  -1.5236
    -1.5147  -1.4920  -1.4867  -1.4746  -1.4705  -1.4524  -1.4501  -1.4469
    -1.4452  -1.4441  -1.4297  -1.4166  -1.4074  -1.3989  -1.3922  -1.3789
    -1.3669  -1.3630  -1.3539  -1.3297  -1.3280  -1.3263  -1.3131  -1.2886
    -1.2807  -1.2793  -1.2750  -1.2703  -1.2638  -1.2464  -1.2439  -1.2365
    -1.2327  -1.2302  -1.2203  -1.2164  -1.2150  -1.2078  -1.2015  -1.1838
    -1.1829  -1.1821  -1.1794  -1.1710  -1.1674  -1.1630  -1.1569  -1.1178
    -1.1168  -1.1122  -1.1103  -1.1079  -1.1057  -1.0737  -1.0530  -1.0523
    -1.0508  -1.0495  -1.0483  -1.0394  -1.0360  -1.0291  -1.0254  -0.9924
    -0.9882  -0.9819  -0.9813  -0.9577  -0.9553  -0.9497  -0.9148  -0.9087
    -0.8876  -0.8857  -0.8570  -0.8563  -0.8534  -0.8521  -0.8514  -0.8503
    -0.8392  -0.8386  -0.8326  -0.8311  -0.8029  -0.8009  -0.7866  -0.7809
    -0.7791  -0.7781  -0.7770  -0.7678  -0.7588  -0.4881  -0.4852  -0.4177
    -0.4034  -0.3849  -0.2296  -0.1613  -0.1583  -0.1130   0.1686   0.1721
     0.5030   0.5151   0.5847   0.5876   0.6304   0.6365   0.7849   0.7976
     0.8942   0.8950   1.0084   1.5955   1.6000   1.6014   1.6400   1.6435
     1.7038   1.7283   1.7933   1.8021   1.9857   1.9890   2.2402   2.3050
     2.3092   2.3215   2.7104   2.7294   2.7686   2.7708   2.7725   2.7746
     2.9179   2.9195   2.9868   3.0883   3.1045   3.3114   3.3152   3.4345
     3.4792   3.4860   3.7550   3.7687   3.8611   3.8665   3.8694   3.9286
     3.9767   4.0485   4.0560   4.2891   4.2985   4.3674   4.3788   4.5172
     4.5189   4.5355   4.5545   4.6885   5.0485   5.3317   5.3597   5.4322
     5.4422   5.5151   5.6237   5.6374   5.6709   5.7164   5.7254   5.7311
     5.7623   5.7807   5.7902   5.8540   6.0359   6.0854   6.1107   6.1183
     6.1339   6.1398   6.1432   6.1466   6.1521   6.1616   6.1946   6.2309

     the Fermi energy is     0.8549 ev

!    total energy              =   -7425.29666188 Ry
     Harris-Foulkes estimate   =   -7425.29666188 Ry
     estimated scf accuracy    <          1.1E-11 Ry

     The total energy is the sum of the following terms:

     one-electron contribution =  -48904.91215772 Ry
     hartree contribution      =   25002.72982687 Ry
     xc contribution           =   -3604.32537655 Ry
     ewald contribution        =   20081.21337445 Ry
     smearing contrib. (-TS)   =      -0.00232893 Ry

     convergence has been achieved in  18 iterations

     negative rho (up, down):  1.972E+00 0.000E+00

     Forces acting on atoms (Ry/au):

     atom    1 type  3   force =     0.00068194   -0.00071427   -0.00084542
     atom    2 type  2   force =     0.00074178    0.00034278    0.00068313
     atom    3 type  2   force =    -0.00053046    0.00061171   -0.00007572
     atom    4 type  1   force =    -0.00002537    0.00001917    0.00047084
     atom    5 type  1   force =    -0.00016903    0.00001313    0.00021298
     atom    6 type  1   force =     0.00001797   -0.00055513    0.00030214
     atom    7 type  1   force =    -0.00009301   -0.00008117    0.00011758
     atom    8 type  1   force =    -0.00013860   -0.00011293    0.00019896
     atom    9 type  1   force =     0.00032679   -0.00008886    0.00042657
     atom   10 type  1   force =    -0.00002388   -0.00018094    0.00025559
     atom   11 type  1   force =    -0.00018385   -0.00017280    0.00003734
     atom   12 type  1   force =     0.00002796    0.00013780    0.00019514
     atom   13 type  1   force =    -0.00014877   -0.00014965    0.00018197
     atom   14 type  1   force =     0.00016125    0.00018111    0.00003051
     atom   15 type  1   force =    -0.00002427    0.00023028    0.00019113
     atom   16 type  1   force =    -0.00060013    0.00004324    0.00034236
     atom   17 type  1   force =     0.00015068    0.00005281    0.00014993
     atom   18 type  1   force =    -0.00002806    0.00001086   -0.00006554
     atom   19 type  1   force =    -0.00012591    0.00031703    0.00037442
     atom   20 type  1   force =     0.00021658   -0.00000292    0.00012941
     atom   21 type  1   force =    -0.00007683   -0.00003734    0.00030154
     atom   22 type  1   force =    -0.00015634    0.00023994   -0.00012116
     atom   23 type  1   force =     0.00004701    0.00027293   -0.00031649
     atom   24 type  1   force =     0.00006137    0.00009675   -0.00028405
     atom   25 type  1   force =     0.00020848   -0.00011081   -0.00010869
     atom   26 type  1   force =    -0.00033134   -0.00009911   -0.00033693
     atom   27 type  1   force =    -0.00001270   -0.00006916    0.00004522
     atom   28 type  1   force =    -0.00013799   -0.00032364   -0.00034353
     atom   29 type  1   force =     0.00005960   -0.00046322   -0.00030741
     atom   30 type  1   force =     0.00000837   -0.00035079   -0.00033935
     atom   31 type  1   force =     0.00019591    0.00003267   -0.00033989
     atom   32 type  1   force =    -0.00046360    0.00003027   -0.00032384
     atom   33 type  1   force =     0.00011239   -0.00029438   -0.00009651
     atom   34 type  1   force =    -0.00017717    0.00001139    0.00006955
     atom   35 type  1   force =    -0.00026515    0.00006917   -0.00012936
     atom   36 type  1   force =     0.00052975    0.00009564   -0.00007112
     atom   37 type  1   force =     0.00007379    0.00005924   -0.00027838
     atom   38 type  1   force =    -0.00039290    0.00002196   -0.00034909
     atom   39 type  1   force =     0.00015232    0.00054409   -0.00008086
     atom   40 type  1   force =     0.00020617    0.00019664   -0.00002177
     atom   41 type  1   force =    -0.00023106    0.00027742    0.00001334
     atom   42 type  1   force =     0.00002791   -0.00009522    0.00035317
     atom   43 type  1   force =     0.00026801   -0.00021640   -0.00007536
     atom   44 type  1   force =    -0.00032417   -0.00032363   -0.00004088
     atom   45 type  1   force =    -0.00003054    0.00001450    0.00026201
     atom   46 type  1   force =    -0.00012953    0.00001076    0.00033554
     atom   47 type  1   force =    -0.00006096   -0.00005506    0.00025111
     atom   48 type  1   force =     0.00012111    0.00009076   -0.00042565
     atom   49 type  1   force =    -0.00008703   -0.00004727   -0.00006957
     atom   50 type  1   force =     0.00020527   -0.00011466    0.00015669
     atom   51 type  1   force =    -0.00001322   -0.00005916   -0.00006239
     atom   52 type  1   force =    -0.00015376    0.00017927    0.00006733
     atom   53 type  1   force =    -0.00001122   -0.00004611    0.00014147
     atom   54 type  1   force =     0.00014942    0.00003159    0.00011566
     atom   55 type  1   force =    -0.00010405   -0.00002318   -0.00000748
     atom   56 type  1   force =     0.00005485    0.00016068    0.00016889
     atom   57 type  1   force =     0.00012729    0.00011197    0.00025932
     atom   58 type  1   force =    -0.00004778    0.00014971   -0.00017714
     atom   59 type  1   force =     0.00033671   -0.00006547   -0.00000965
     atom   60 type  1   force =    -0.00015713   -0.00010430   -0.00023923
     atom   61 type  1   force =     0.00022171   -0.00006033   -0.00006754
     atom   62 type  1   force =     0.00001205   -0.00001587   -0.00009322
     atom   63 type  1   force =    -0.00001511    0.00002759    0.00021845
     atom   64 type  1   force =    -0.00000193    0.00002526   -0.00017492
     atom   65 type  1   force =     0.00026673   -0.00007108    0.00000075
     atom   66 type  1   force =    -0.00018375    0.00003070   -0.00023587
     atom   67 type  1   force =    -0.00008841    0.00033084   -0.00001562
     atom   68 type  1   force =    -0.00008299    0.00024966   -0.00003354
     atom   69 type  1   force =    -0.00009408    0.00003560   -0.00008051
     atom   70 type  1   force =     0.00001672   -0.00002195    0.00020723
     atom   71 type  1   force =     0.00004444   -0.00007948   -0.00007785
     atom   72 type  1   force =     0.00019769    0.00001571   -0.00002265
     atom   73 type  1   force =    -0.00009234   -0.00016287   -0.00021498
     atom   74 type  1   force =    -0.00001065   -0.00018544   -0.00024803
     atom   75 type  1   force =    -0.00000493    0.00018200   -0.00006004

     Total force =     0.003432     Total SCF correction =     0.000016

     bfgs converged in  38 scf cycles and  37 bfgs steps
     (criteria: energy <  1.0E-04, force <  1.0E-03)

     End of BFGS Geometry Optimization

     Final energy   =   -7425.2966618841 Ry
Begin final coordinates

ATOMIC_POSITIONS (angstrom)
O        2.367480507   2.213898695   9.476258110
H        1.714293088   1.791185921   8.884560372
H        2.828406299   1.467889564   9.903999199
Au      -0.004195753  -0.002694194   0.003892672
Au       4.251368797  -0.001981048   0.003776440
Au       8.499745950   0.002326377  -0.001346598
Au       2.124776097   2.127084440   0.009013058
Au       6.373850035   2.128248005   0.000287591
Au      10.627335310   2.128379863   0.003009812
Au      -0.003331251   4.253657003   0.004123666
Au       4.250690676   4.252759199   0.003514177
Au       8.500602179   4.252205676   0.002164848
Au       2.127626186   6.376351591   0.001069972
Au       6.374247559   6.375447572   0.001251480
Au      10.632992148   6.376384681  -0.001343614
Au       0.001494129   8.501804262  -0.002338451
Au       4.250870751   8.502506816   0.002688621
Au       8.502703708   8.503951725  -0.002969731
Au       2.127762392  10.629855608   0.002542112
Au       6.374537534  10.634362712  -0.000307442
Au      10.631771416  10.632521947  -0.003500127
Au       2.123271293  -0.005858193   2.111864245
Au       6.375703921  -0.005756283   2.114426028
Au      10.624460744  -0.007646824   2.104751538
Au      -0.008789094   2.125998560   2.111759582
Au       4.251741825   2.126376376   2.118292015
Au       8.494828032   2.125845598   2.110192190
Au       2.123575730   4.255146406   2.119224777
Au       6.373376617   4.255434344   2.119951014
Au      10.628674032   4.256660156   2.112240010
Au      -0.008139280   6.379536183   2.113799694
Au       4.253969840   6.375869082   2.120075769
Au       8.500959289   6.381293696   2.111716092
Au       2.124590930   8.499610475   2.109464484
Au       6.379104311   8.503287951   2.111603192
Au      10.625067279   8.502636321   2.107568742
Au      -0.009516985  10.626915081   2.104865572
Au       4.254671716  10.632297543   2.113277126
Au       8.500178197  10.627181399   2.107370556
Au      -0.017473884  -0.012687046   4.224301008
Au       4.244715465  -0.008888170   4.239795355
Au       8.499433128  -0.007934524   4.233301706
Au      -0.015177934   4.249713903   4.238008556
Au       4.246644075   4.250699262   4.251089170
Au       8.501509682   4.250218106   4.239163302
Au      -0.011124108   8.504948812   4.232865420
Au       4.248723135   8.507080157   4.239762167
Au       8.498538660   8.503536422   4.246129260
Au       2.117372562   2.121157059   4.241852848
Au       6.370443832   2.122340273   4.242888822
Au      10.621126730   2.119992328   4.229678046
Au       2.119704146   6.379089514   4.240756218
Au       6.376472798   6.380693113   4.245924264
Au      10.623973693   6.377798896   4.239840114
Au       2.117542116  10.626449331   4.229313765
Au       6.373443863  10.629056782   4.240058147
Au      10.623514180  10.628455255   4.232247870
Au       2.103025603  -0.020526029   6.339073424
Au       6.368476048  -0.008639626   6.350123400
Au      10.626460546  -0.010493439   6.348682850
Au      -0.022929317   2.110103821   6.339235450
Au       4.244218705   2.114958294   6.348345965
Au       8.500359472   2.116697952   6.344012721
Au       2.107035374   4.254651229   6.341135285
Au       6.373618514   4.249043238   6.351205316
Au      10.628544587   4.243656084   6.350636920
Au      -0.014533305   6.376981965   6.346607402
Au       4.245306231   6.379810155   6.350831612
Au       8.502434377   6.374260396   6.354147469
Au       2.114073040   8.507923334   6.344088665
Au       6.369924294   8.508730583   6.355772492
Au      10.627576147   8.505305411   6.348179634
Au      -0.015574793  10.630877021   6.348765656
Au       4.239268854  10.635582194   6.354047916
Au       8.499153680  10.633708879   6.349693379
End final coordinates



     Writing output data file 9886283.save
 
     init_run     :     53.82s CPU     56.19s WALL (       1 calls)
     electrons    : 105858.86s CPU 122377.32s WALL (      38 calls)
     update_pot   :    301.55s CPU    324.63s WALL (      37 calls)
     forces       :   1272.83s CPU   1323.63s WALL (      38 calls)

     Called by init_run:
     wfcinit      :     38.62s CPU     39.43s WALL (       1 calls)
     potinit      :      8.66s CPU      9.17s WALL (       1 calls)

     Called by electrons:
     c_bands      :  77094.74s CPU  82731.48s WALL (     717 calls)
     sum_band     :  16059.42s CPU  16580.79s WALL (     717 calls)
     v_of_rho     :   4668.40s CPU   4846.30s WALL (     720 calls)
     newd         :   1621.02s CPU   1965.27s WALL (     720 calls)
     mix_rho      :    155.96s CPU    161.26s WALL (     717 calls)

     Called by c_bands:
     init_us_2    :    194.92s CPU    209.97s WALL (    1435 calls)
     cegterg      :  40046.58s CPU  45090.38s WALL (     717 calls)

     Called by sum_band:
     sum_band:bec :      4.11s CPU      4.24s WALL (     717 calls)
     addusdens    :   2160.78s CPU   2489.67s WALL (     717 calls)

     Called by *egterg:
     h_psi        :  24206.09s CPU  28671.36s WALL (    2365 calls)
     s_psi        :   3218.94s CPU   3221.08s WALL (    2365 calls)
     g_psi        :     68.60s CPU     68.64s WALL (    1647 calls)
     cdiaghg      :   2639.75s CPU   2651.69s WALL (    2292 calls)

     Called by h_psi:
     add_vuspsi   :   3214.27s CPU   3217.35s WALL (    2365 calls)

     General routines
     calbec       :   4924.56s CPU   9209.56s WALL (    3234 calls)
     fft          :   3434.52s CPU   3471.33s WALL (   49863 calls)
     ffts         :     26.19s CPU     26.92s WALL (    1437 calls)
     fftw         :  16901.63s CPU  17103.08s WALL ( 1886564 calls)
     interpolate  :    119.87s CPU    123.33s WALL (    1437 calls)
     davcio       :      0.03s CPU      4.65s WALL (      38 calls)
 
     Parallel routines
     fft_scatter  :   9218.05s CPU   9370.55s WALL ( 1937864 calls)
 
     PWSCF        :     1d    5h59m CPU        1d   10h40m WALL

 
   This run was terminated on:  23:19:20  26Jan2017            

=------------------------------------------------------------------------------=
   JOB DONE.
=------------------------------------------------------------------------------=
