
     Program PWSCF v.5.4.0 starts on 24Jan2017 at 22:16:41 

     This program is part of the open-source Quantum ESPRESSO suite
     for quantum simulation of materials; please cite
         "P. Giannozzi et al., J. Phys.:Condens. Matter 21 395502 (2009);
          URL http://www.quantum-espresso.org", 
     in publications or presentations arising from this work. More details at
     http://www.quantum-espresso.org/quote

     Parallel version (MPI), running on    48 processors
     K-points division:     npool     =       6
     R & G space division:  proc/nbgrp/npool/nimage =       8
     Reading input from bridge.O1.Au6165.d.2.7.phi.0.psi.90.in
Warning: card &CELL ignored
Warning: card / ignored

     Current dimensions of program PWSCF are:
     Max number of different atomic species (ntypx) = 10
     Max number of k-points (npk) =  40000
     Max angular momentum in pseudopotentials (lmaxx) =  3

     Subspace diagonalization in iterative solution of the eigenvalue problem:
     a serial algorithm will be used

 
     Parallelization info
     --------------------
     sticks:   dense  smooth     PW     G-vecs:    dense   smooth      PW
     Min        2313    1158    298               474089   167622   21962
     Max        2314    1159    299               474104   167655   21969
     Sum       18505    9265   2385              3792731  1341081  175711
 

     Title: 
     bridge.O1.Au6165.d.2.7.phi.0.psi.90                                        


     bravais-lattice index     =            8
     lattice parameter (alat)  =      24.1233  a.u.
     unit-cell volume          =   28076.2361 (a.u.)^3
     number of atoms/cell      =           75
     number of atomic types    =            3
     number of electrons       =       800.00
     number of Kohn-Sham states=          480
     kinetic-energy cutoff     =      50.0000  Ry
     charge density cutoff     =     400.0000  Ry
     convergence threshold     =      1.0E-08
     mixing beta               =       0.7000
     number of iterations used =            8  plain     mixing
     Exchange-correlation      =  SLA  PW   PBE  PBE ( 1  4  3  4 0 0)
     nstep                     =           50


     celldm(1)=  24.123277  celldm(2)=   1.000000  celldm(3)=   2.000000
     celldm(4)=   0.000000  celldm(5)=   0.000000  celldm(6)=   0.000000

     crystal axes: (cart. coord. in units of alat)
               a(1) = (   1.000000   0.000000   0.000000 )  
               a(2) = (   0.000000   1.000000   0.000000 )  
               a(3) = (   0.000000   0.000000   2.000000 )  

     reciprocal axes: (cart. coord. in units 2 pi/alat)
               b(1) = (  1.000000  0.000000  0.000000 )  
               b(2) = (  0.000000  1.000000  0.000000 )  
               b(3) = (  0.000000  0.000000  0.500000 )  


     PseudoPot. # 1 for Au read from file:
     ../../../../pseudo/Au.pbe-nd-van.UPF
     MD5 check sum: 458681b50f36d87ef23c61b04bba420a
     Pseudo is Ultrasoft + core correction, Zval = 11.0
     Generated by new atomic code, or converted to UPF format
     Using radial grid of  985 points,  3 beta functions with: 
                l(1) =   1
                l(2) =   2
                l(3) =   2
     Q(r) pseudized with  8 coefficients,  rinner =    1.100   1.100   1.100
                                                       1.100   1.100

     PseudoPot. # 2 for H  read from file:
     ../../../../pseudo/H.pbe-van_ak.UPF
     MD5 check sum: 403db7282739603aa925980fa9b8608d
     Pseudo is Ultrasoft, Zval =  1.0
     Generated by new atomic code, or converted to UPF format
     Using radial grid of  615 points,  1 beta functions with: 
                l(1) =   0
     Q(r) pseudized with  8 coefficients,  rinner =    0.800

     PseudoPot. # 3 for O  read from file:
     ../../../../pseudo/O.pbe-van_ak.UPF
     MD5 check sum: 4b8c549914a63cae506c6ff22b5af4fe
     Pseudo is Ultrasoft, Zval =  6.0
     Generated by new atomic code, or converted to UPF format
     Using radial grid of  737 points,  4 beta functions with: 
                l(1) =   0
                l(2) =   0
                l(3) =   1
                l(4) =   1
     Q(r) pseudized with  8 coefficients,  rinner =    0.800   0.800   0.800


     atomic species   valence    mass     pseudopotential
        Au            11.00   196.96657     Au( 1.00)
        H              1.00     1.01000     H ( 1.00)
        O              6.00    16.00000     O ( 1.00)

     No symmetry found



   Cartesian axes

     site n.     atom                  positions (alat units)
         1           O   tau(   1) = (   0.2499161   0.4165269   0.7108263  )
         2           H   tau(   2) = (   0.2028385   0.3710330   0.6716548  )
         3           H   tau(   3) = (   0.2955663   0.3686692   0.7488279  )
         4           Au  tau(   4) = (   0.0000000   0.0000000   0.0000000  )
         5           Au  tau(   5) = (   0.3332217   0.0000000   0.0000000  )
         6           Au  tau(   6) = (   0.6664434   0.0000000   0.0000000  )
         7           Au  tau(   7) = (   0.1666109   0.1666109   0.0000000  )
         8           Au  tau(   8) = (   0.4998326   0.1666109   0.0000000  )
         9           Au  tau(   9) = (   0.8330542   0.1666109   0.0000000  )
        10           Au  tau(  10) = (   0.0000000   0.3332217   0.0000000  )
        11           Au  tau(  11) = (   0.3332217   0.3332217   0.0000000  )
        12           Au  tau(  12) = (   0.6664434   0.3332217   0.0000000  )
        13           Au  tau(  13) = (   0.1666109   0.4998326   0.0000000  )
        14           Au  tau(  14) = (   0.4998326   0.4998326   0.0000000  )
        15           Au  tau(  15) = (   0.8330542   0.4998326   0.0000000  )
        16           Au  tau(  16) = (   0.0000000   0.6664434   0.0000000  )
        17           Au  tau(  17) = (   0.3332217   0.6664434   0.0000000  )
        18           Au  tau(  18) = (   0.6664434   0.6664434   0.0000000  )
        19           Au  tau(  19) = (   0.1666109   0.8330542   0.0000000  )
        20           Au  tau(  20) = (   0.4998326   0.8330542   0.0000000  )
        21           Au  tau(  21) = (   0.8330542   0.8330542   0.0000000  )
        22           Au  tau(  22) = (   0.1666109   0.0000000   0.1666109  )
        23           Au  tau(  23) = (   0.4998326   0.0000000   0.1666109  )
        24           Au  tau(  24) = (   0.8330542   0.0000000   0.1666109  )
        25           Au  tau(  25) = (   0.0000000   0.1666109   0.1666109  )
        26           Au  tau(  26) = (   0.3332217   0.1666109   0.1666109  )
        27           Au  tau(  27) = (   0.6664434   0.1666109   0.1666109  )
        28           Au  tau(  28) = (   0.1666109   0.3332217   0.1666109  )
        29           Au  tau(  29) = (   0.4998326   0.3332217   0.1666109  )
        30           Au  tau(  30) = (   0.8330542   0.3332217   0.1666109  )
        31           Au  tau(  31) = (   0.0000000   0.4998326   0.1666109  )
        32           Au  tau(  32) = (   0.3332217   0.4998326   0.1666109  )
        33           Au  tau(  33) = (   0.6664434   0.4998326   0.1666109  )
        34           Au  tau(  34) = (   0.1666109   0.6664434   0.1666109  )
        35           Au  tau(  35) = (   0.4998326   0.6664434   0.1666109  )
        36           Au  tau(  36) = (   0.8330542   0.6664434   0.1666109  )
        37           Au  tau(  37) = (   0.0000000   0.8330542   0.1666109  )
        38           Au  tau(  38) = (   0.3332217   0.8330542   0.1666109  )
        39           Au  tau(  39) = (   0.6664434   0.8330542   0.1666109  )
        40           Au  tau(  40) = (  -0.0000182  -0.0000182   0.3335478  )
        41           Au  tau(  41) = (   0.3332215  -0.0000181   0.3335473  )
        42           Au  tau(  42) = (   0.6664447  -0.0000183   0.3335481  )
        43           Au  tau(  43) = (  -0.0000181   0.3332215   0.3335473  )
        44           Au  tau(  44) = (   0.3332215   0.3332215   0.3335468  )
        45           Au  tau(  45) = (   0.6664445   0.3332215   0.3335477  )
        46           Au  tau(  46) = (  -0.0000183   0.6664447   0.3335481  )
        47           Au  tau(  47) = (   0.3332215   0.6664445   0.3335477  )
        48           Au  tau(  48) = (   0.6664446   0.6664446   0.3335486  )
        49           Au  tau(  49) = (   0.1666097   0.1666097   0.3335483  )
        50           Au  tau(  50) = (   0.4998320   0.1666098   0.3335477  )
        51           Au  tau(  51) = (   0.8330732   0.1666096   0.3335480  )
        52           Au  tau(  52) = (   0.1666098   0.4998320   0.3335477  )
        53           Au  tau(  53) = (   0.4998322   0.4998322   0.3335470  )
        54           Au  tau(  54) = (   0.8330731   0.4998322   0.3335474  )
        55           Au  tau(  55) = (   0.1666096   0.8330732   0.3335480  )
        56           Au  tau(  56) = (   0.4998322   0.8330731   0.3335474  )
        57           Au  tau(  57) = (   0.8330731   0.8330731   0.3335478  )
        58           Au  tau(  58) = (   0.1666104  -0.0000111   0.4993095  )
        59           Au  tau(  59) = (   0.4998323  -0.0000112   0.4993099  )
        60           Au  tau(  60) = (   0.8330660  -0.0000111   0.4993009  )
        61           Au  tau(  61) = (  -0.0000111   0.1666104   0.4993095  )
        62           Au  tau(  62) = (   0.3332213   0.1666106   0.4993185  )
        63           Au  tau(  63) = (   0.6664437   0.1666106   0.4993187  )
        64           Au  tau(  64) = (   0.1666106   0.3332213   0.4993185  )
        65           Au  tau(  65) = (   0.4998324   0.3332216   0.4993185  )
        66           Au  tau(  66) = (   0.8330658   0.3332215   0.4993102  )
        67           Au  tau(  67) = (  -0.0000112   0.4998323   0.4993099  )
        68           Au  tau(  68) = (   0.3332216   0.4998324   0.4993185  )
        69           Au  tau(  69) = (   0.6664437   0.4998325   0.4993187  )
        70           Au  tau(  70) = (   0.1666106   0.6664437   0.4993187  )
        71           Au  tau(  71) = (   0.4998325   0.6664437   0.4993187  )
        72           Au  tau(  72) = (   0.8330658   0.6664438   0.4993102  )
        73           Au  tau(  73) = (  -0.0000111   0.8330660   0.4993009  )
        74           Au  tau(  74) = (   0.3332215   0.8330658   0.4993102  )
        75           Au  tau(  75) = (   0.6664438   0.8330658   0.4993102  )

     number of k points=     6  Marzari-Vanderbilt smearing, width (Ry)=  0.0200
                       cart. coord. in units 2pi/alat
        k(    1) = (   0.2500000   0.2500000   0.0833333), wk =   0.3333333
        k(    2) = (   0.2500000   0.2500000  -0.2500000), wk =   0.3333333
        k(    3) = (  -0.2500000  -0.2500000   0.0833333), wk =   0.3333333
        k(    4) = (  -0.2500000   0.2500000  -0.0833333), wk =   0.3333333
        k(    5) = (   0.2500000  -0.2500000  -0.0833333), wk =   0.3333333
        k(    6) = (  -0.2500000   0.2500000   0.2500000), wk =   0.3333333

     Dense  grid:  3792731 G-vectors     FFT dimensions: ( 160, 160, 320)

     Smooth grid:  1341081 G-vectors     FFT dimensions: ( 120, 120, 225)

     Largest allocated arrays     est. size (Mb)     dimensions
        Kohn-Sham Wavefunctions       154.19 Mb     (   21052,  480)
        NL pseudopotentials           303.88 Mb     (   21052,  946)
        Each V/rho on FFT grid         15.62 Mb     ( 1024000)
        Each G-vector array             3.62 Mb     (  474091)
        G-vector shells                 0.08 Mb     (   10780)
     Largest temporary arrays     est. size (Mb)     dimensions
        Auxiliary wavefunctions       616.76 Mb     (   21052, 1920)
        Each subspace H/S matrix       56.25 Mb     (    1920, 1920)
        Each <psi_i|beta_j> matrix      6.93 Mb     (     946,  480)
        Arrays for rho mixing         125.00 Mb     ( 1024000,    8)

     Initial potential from superposition of free atoms
     Check: negative starting charge=   -1.945178

     starting charge  799.16392, renormalised to  800.00000

     negative rho (up, down):  1.947E+00 0.000E+00
     Starting wfc are  654 randomized atomic wfcs

     total cpu time spent up to now is       49.5 secs

     per-process dynamical memory:   717.0 Mb

     Self-consistent Calculation

     iteration #  1     ecut=    50.00 Ry     beta=0.70
     Davidson diagonalization with overlap
     ethr =  1.00E-02,  avg # of iterations =  3.0

     Threshold (ethr) on eigenvalues was too large:
     Diagonalizing with lowered threshold

     Davidson diagonalization with overlap
     ethr =  4.89E-04,  avg # of iterations =  2.0

     negative rho (up, down):  1.932E+00 0.000E+00

     total cpu time spent up to now is      230.6 secs

     total energy              =   -7377.45204262 Ry
     Harris-Foulkes estimate   =   -7380.93847220 Ry
     estimated scf accuracy    <       4.43172482 Ry

     iteration #  2     ecut=    50.00 Ry     beta=0.70
     Davidson diagonalization with overlap
     ethr =  5.54E-04,  avg # of iterations = 11.3

     negative rho (up, down):  1.930E+00 0.000E+00

     total cpu time spent up to now is      464.3 secs

     total energy              =   -7369.03125009 Ry
     Harris-Foulkes estimate   =   -7387.82010559 Ry
     estimated scf accuracy    <      96.42850032 Ry

     iteration #  3     ecut=    50.00 Ry     beta=0.70
     Davidson diagonalization with overlap
     ethr =  5.54E-04,  avg # of iterations =  6.0

     negative rho (up, down):  1.947E+00 0.000E+00

     total cpu time spent up to now is      634.0 secs

     total energy              =   -7378.81936778 Ry
     Harris-Foulkes estimate   =   -7380.68013537 Ry
     estimated scf accuracy    <       7.01922985 Ry

     iteration #  4     ecut=    50.00 Ry     beta=0.70
     Davidson diagonalization with overlap
     ethr =  5.54E-04,  avg # of iterations =  5.2

     negative rho (up, down):  1.951E+00 0.000E+00

     total cpu time spent up to now is      732.6 secs

     total energy              =   -7379.40725792 Ry
     Harris-Foulkes estimate   =   -7380.42365721 Ry
     estimated scf accuracy    <       5.71756603 Ry

     iteration #  5     ecut=    50.00 Ry     beta=0.70
     Davidson diagonalization with overlap
     ethr =  5.54E-04,  avg # of iterations =  5.7

     negative rho (up, down):  1.960E+00 0.000E+00

     total cpu time spent up to now is      832.6 secs

     total energy              =   -7379.73884644 Ry
     Harris-Foulkes estimate   =   -7380.28453148 Ry
     estimated scf accuracy    <       4.07890456 Ry

     iteration #  6     ecut=    50.00 Ry     beta=0.70
     Davidson diagonalization with overlap
     ethr =  5.10E-04,  avg # of iterations =  2.7

     negative rho (up, down):  1.963E+00 0.000E+00

     total cpu time spent up to now is      919.9 secs

     total energy              =   -7379.95290751 Ry
     Harris-Foulkes estimate   =   -7380.02050026 Ry
     estimated scf accuracy    <       0.24200692 Ry

     iteration #  7     ecut=    50.00 Ry     beta=0.70
     Davidson diagonalization with overlap
     ethr =  3.03E-05,  avg # of iterations = 11.0

     negative rho (up, down):  1.966E+00 0.000E+00

     total cpu time spent up to now is     1044.9 secs

     total energy              =   -7379.96583896 Ry
     Harris-Foulkes estimate   =   -7380.01127995 Ry
     estimated scf accuracy    <       0.23426483 Ry

     iteration #  8     ecut=    50.00 Ry     beta=0.70
     Davidson diagonalization with overlap
     ethr =  2.93E-05,  avg # of iterations =  4.8

     negative rho (up, down):  1.968E+00 0.000E+00

     total cpu time spent up to now is     1154.7 secs

     total energy              =   -7379.97397473 Ry
     Harris-Foulkes estimate   =   -7379.99556651 Ry
     estimated scf accuracy    <       0.08838882 Ry

     iteration #  9     ecut=    50.00 Ry     beta=0.70
     Davidson diagonalization with overlap
     ethr =  1.10E-05,  avg # of iterations =  9.5

     negative rho (up, down):  1.969E+00 0.000E+00

     total cpu time spent up to now is     1275.3 secs

     total energy              =   -7379.97720695 Ry
     Harris-Foulkes estimate   =   -7379.98671002 Ry
     estimated scf accuracy    <       0.02955589 Ry

     iteration # 10     ecut=    50.00 Ry     beta=0.70
     Davidson diagonalization with overlap
     ethr =  3.69E-06,  avg # of iterations =  8.2

     negative rho (up, down):  1.969E+00 0.000E+00

     total cpu time spent up to now is     1395.3 secs

     total energy              =   -7379.97967586 Ry
     Harris-Foulkes estimate   =   -7379.98244345 Ry
     estimated scf accuracy    <       0.00702619 Ry

     iteration # 11     ecut=    50.00 Ry     beta=0.70
     Davidson diagonalization with overlap
     ethr =  8.78E-07,  avg # of iterations =  3.0

     negative rho (up, down):  1.970E+00 0.000E+00

     total cpu time spent up to now is     1491.3 secs

     total energy              =   -7379.98049010 Ry
     Harris-Foulkes estimate   =   -7379.98167256 Ry
     estimated scf accuracy    <       0.00335209 Ry

     iteration # 12     ecut=    50.00 Ry     beta=0.70
     Davidson diagonalization with overlap
     ethr =  4.19E-07,  avg # of iterations =  2.0

     negative rho (up, down):  1.970E+00 0.000E+00

     total cpu time spent up to now is     1579.9 secs

     total energy              =   -7379.98061702 Ry
     Harris-Foulkes estimate   =   -7379.98142402 Ry
     estimated scf accuracy    <       0.00333120 Ry

     iteration # 13     ecut=    50.00 Ry     beta=0.70
     Davidson diagonalization with overlap
     ethr =  4.16E-07,  avg # of iterations =  3.5

     negative rho (up, down):  1.970E+00 0.000E+00

     total cpu time spent up to now is     1673.9 secs

     total energy              =   -7379.98058196 Ry
     Harris-Foulkes estimate   =   -7379.98165046 Ry
     estimated scf accuracy    <       0.00544465 Ry

     iteration # 14     ecut=    50.00 Ry     beta=0.70
     Davidson diagonalization with overlap
     ethr =  4.16E-07,  avg # of iterations =  2.5

     negative rho (up, down):  1.970E+00 0.000E+00

     total cpu time spent up to now is     1761.6 secs

     total energy              =   -7379.98107207 Ry
     Harris-Foulkes estimate   =   -7379.98110927 Ry
     estimated scf accuracy    <       0.00010187 Ry

     iteration # 15     ecut=    50.00 Ry     beta=0.70
     Davidson diagonalization with overlap
     ethr =  1.27E-08,  avg # of iterations =  3.0

     negative rho (up, down):  1.970E+00 0.000E+00

     total cpu time spent up to now is     1876.1 secs

     total energy              =   -7379.98105058 Ry
     Harris-Foulkes estimate   =   -7379.98115564 Ry
     estimated scf accuracy    <       0.00080022 Ry

     iteration # 16     ecut=    50.00 Ry     beta=0.70
     Davidson diagonalization with overlap
     ethr =  1.27E-08,  avg # of iterations =  3.0

     negative rho (up, down):  1.970E+00 0.000E+00

     total cpu time spent up to now is     1968.5 secs

     total energy              =   -7379.98109944 Ry
     Harris-Foulkes estimate   =   -7379.98111989 Ry
     estimated scf accuracy    <       0.00010076 Ry

     iteration # 17     ecut=    50.00 Ry     beta=0.70
     Davidson diagonalization with overlap
     ethr =  1.26E-08,  avg # of iterations =  1.0

     negative rho (up, down):  1.970E+00 0.000E+00

     total cpu time spent up to now is     2052.0 secs

     total energy              =   -7379.98110806 Ry
     Harris-Foulkes estimate   =   -7379.98111051 Ry
     estimated scf accuracy    <       0.00000749 Ry

     iteration # 18     ecut=    50.00 Ry     beta=0.70
     Davidson diagonalization with overlap
     ethr =  9.36E-10,  avg # of iterations =  2.0

     negative rho (up, down):  1.970E+00 0.000E+00

     total cpu time spent up to now is     2150.7 secs

     total energy              =   -7379.98110885 Ry
     Harris-Foulkes estimate   =   -7379.98111050 Ry
     estimated scf accuracy    <       0.00000695 Ry

     iteration # 19     ecut=    50.00 Ry     beta=0.70
     Davidson diagonalization with overlap
     ethr =  8.69E-10,  avg # of iterations =  2.0

     negative rho (up, down):  1.970E+00 0.000E+00

     total cpu time spent up to now is     2236.5 secs

     total energy              =   -7379.98110944 Ry
     Harris-Foulkes estimate   =   -7379.98110995 Ry
     estimated scf accuracy    <       0.00000170 Ry

     iteration # 20     ecut=    50.00 Ry     beta=0.70
     Davidson diagonalization with overlap
     ethr =  2.12E-10,  avg # of iterations =  3.0

     negative rho (up, down):  1.970E+00 0.000E+00

     total cpu time spent up to now is     2330.2 secs

     total energy              =   -7379.98110948 Ry
     Harris-Foulkes estimate   =   -7379.98111005 Ry
     estimated scf accuracy    <       0.00000263 Ry

     iteration # 21     ecut=    50.00 Ry     beta=0.70
     Davidson diagonalization with overlap
     ethr =  2.12E-10,  avg # of iterations =  2.0

     negative rho (up, down):  1.970E+00 0.000E+00

     total cpu time spent up to now is     2416.3 secs

     total energy              =   -7379.98110972 Ry
     Harris-Foulkes estimate   =   -7379.98110982 Ry
     estimated scf accuracy    <       0.00000033 Ry

     iteration # 22     ecut=    50.00 Ry     beta=0.70
     Davidson diagonalization with overlap
     ethr =  4.13E-11,  avg # of iterations =  2.0

     negative rho (up, down):  1.970E+00 0.000E+00

     total cpu time spent up to now is     2504.1 secs

     total energy              =   -7379.98110976 Ry
     Harris-Foulkes estimate   =   -7379.98110979 Ry
     estimated scf accuracy    <       0.00000011 Ry

     iteration # 23     ecut=    50.00 Ry     beta=0.70
     Davidson diagonalization with overlap
     ethr =  1.35E-11,  avg # of iterations =  2.0

     negative rho (up, down):  1.970E+00 0.000E+00

     total cpu time spent up to now is     2590.2 secs

     total energy              =   -7379.98110977 Ry
     Harris-Foulkes estimate   =   -7379.98110978 Ry
     estimated scf accuracy    <       0.00000005 Ry

     iteration # 24     ecut=    50.00 Ry     beta=0.70
     Davidson diagonalization with overlap
     ethr =  5.66E-12,  avg # of iterations =  3.0

     negative rho (up, down):  1.970E+00 0.000E+00

     total cpu time spent up to now is     2701.5 secs

     total energy              =   -7379.98110976 Ry
     Harris-Foulkes estimate   =   -7379.98110980 Ry
     estimated scf accuracy    <       0.00000018 Ry

     iteration # 25     ecut=    50.00 Ry     beta=0.70
     Davidson diagonalization with overlap
     ethr =  5.66E-12,  avg # of iterations =  2.5

     negative rho (up, down):  1.970E+00 0.000E+00

     total cpu time spent up to now is     2801.8 secs

     total energy              =   -7379.98110978 Ry
     Harris-Foulkes estimate   =   -7379.98110978 Ry
     estimated scf accuracy    <       0.00000002 Ry

     iteration # 26     ecut=    50.00 Ry     beta=0.70
     Davidson diagonalization with overlap
     ethr =  2.00E-12,  avg # of iterations =  2.0

     negative rho (up, down):  1.970E+00 0.000E+00

     total cpu time spent up to now is     2890.5 secs

     total energy              =   -7379.98110978 Ry
     Harris-Foulkes estimate   =   -7379.98110978 Ry
     estimated scf accuracy    <       0.00000007 Ry

     iteration # 27     ecut=    50.00 Ry     beta=0.70
     Davidson diagonalization with overlap
     ethr =  2.00E-12,  avg # of iterations =  2.0

     negative rho (up, down):  1.970E+00 0.000E+00

     total cpu time spent up to now is     2976.2 secs

     End of self-consistent calculation

          k = 0.2500 0.2500 0.0833 (167653 PWs)   bands (ev):

   -19.5217  -7.4211  -6.8308  -6.3021  -6.3006  -5.8636  -5.4603  -5.3620
    -5.3612  -5.1400  -5.1395  -5.0441  -5.0421  -4.9100  -4.9015  -4.7925
    -4.7042  -4.6994  -4.6788  -4.6782  -4.4982  -4.4964  -4.4958  -4.4712
    -4.4657  -4.4646  -4.4603  -4.4103  -4.4075  -4.4053  -4.4047  -4.3410
    -4.3139  -4.3124  -4.2575  -4.2529  -4.2515  -4.2164  -4.2152  -4.2015
    -4.1966  -4.1790  -4.1779  -4.1426  -4.1090  -4.1087  -4.1061  -4.1024
    -4.1022  -4.0756  -4.0447  -4.0420  -4.0127  -4.0122  -4.0102  -4.0079
    -4.0072  -4.0000  -3.9704  -3.9681  -3.9149  -3.9075  -3.8767  -3.8518
    -3.8439  -3.8394  -3.8378  -3.8185  -3.8154  -3.8048  -3.7562  -3.7542
    -3.7485  -3.7479  -3.6804  -3.6626  -3.6551  -3.6400  -3.6292  -3.6060
    -3.5996  -3.5849  -3.5652  -3.5607  -3.5202  -3.5196  -3.5177  -3.5125
    -3.4940  -3.4921  -3.4140  -3.4116  -3.4100  -3.3948  -3.3822  -3.3795
    -3.3656  -3.3648  -3.3588  -3.3578  -3.3157  -3.3151  -3.2946  -3.2925
    -3.2574  -3.2553  -3.2308  -3.2093  -3.2077  -3.1630  -3.1618  -3.1299
    -3.1033  -3.1015  -3.1004  -3.1001  -3.0960  -3.0955  -3.0714  -3.0590
    -3.0221  -3.0217  -3.0010  -2.9769  -2.9744  -2.9729  -2.9674  -2.9661
    -2.9627  -2.9624  -2.9287  -2.9267  -2.9260  -2.9213  -2.9198  -2.9159
    -2.8601  -2.8568  -2.8509  -2.8500  -2.8294  -2.8285  -2.8241  -2.7338
    -2.7252  -2.7235  -2.7168  -2.7136  -2.7093  -2.7076  -2.7068  -2.6984
    -2.6973  -2.6894  -2.6802  -2.6795  -2.6764  -2.6717  -2.6627  -2.6585
    -2.6544  -2.6341  -2.6243  -2.6215  -2.6071  -2.6060  -2.5904  -2.5893
    -2.5803  -2.5798  -2.5591  -2.5498  -2.5472  -2.5441  -2.5421  -2.5115
    -2.5063  -2.5049  -2.4474  -2.4429  -2.4321  -2.4301  -2.4193  -2.4161
    -2.3938  -2.3915  -2.3863  -2.3800  -2.3751  -2.3682  -2.3619  -2.3474
    -2.3449  -2.3217  -2.3194  -2.3098  -2.3086  -2.2991  -2.2983  -2.2877
    -2.2705  -2.2503  -2.1895  -2.1785  -2.1581  -2.1570  -2.1543  -2.1462
    -2.1079  -2.0947  -2.0871  -2.0612  -2.0508  -2.0496  -2.0300  -2.0161
    -2.0114  -2.0011  -1.9983  -1.9855  -1.9616  -1.9605  -1.9500  -1.9480
    -1.9455  -1.9429  -1.9324  -1.9157  -1.9131  -1.9081  -1.9072  -1.9051
    -1.9038  -1.9022  -1.8898  -1.8828  -1.8692  -1.8676  -1.8618  -1.8497
    -1.8477  -1.8460  -1.8449  -1.8398  -1.8359  -1.8182  -1.8004  -1.7644
    -1.7444  -1.7380  -1.7309  -1.6932  -1.6911  -1.6903  -1.6818  -1.6768
    -1.6668  -1.6654  -1.6595  -1.6503  -1.6482  -1.6299  -1.6283  -1.6070
    -1.5909  -1.5868  -1.5727  -1.5518  -1.5440  -1.5136  -1.5075  -1.4617
    -1.4575  -1.4390  -1.4209  -1.4148  -1.4128  -1.4081  -1.4054  -1.3933
    -1.3872  -1.3868  -1.3863  -1.3853  -1.3842  -1.3824  -1.3802  -1.3605
    -1.3553  -1.3442  -1.3223  -1.3209  -1.3203  -1.2985  -1.2977  -1.2931
    -1.2925  -1.2880  -1.2683  -1.2531  -1.2453  -1.2272  -1.2257  -1.2068
    -1.2046  -1.1935  -1.1890  -1.1670  -1.1645  -1.1590  -1.1465  -1.1200
    -1.1163  -1.1082  -1.1077  -1.1054  -1.0957  -1.0797  -1.0792  -1.0672
    -1.0595  -1.0579  -1.0472  -1.0459  -1.0447  -1.0385  -1.0344  -1.0229
    -1.0219  -1.0150  -1.0145  -1.0082  -1.0041  -0.9895  -0.9871  -0.9478
    -0.9464  -0.9445  -0.9432  -0.9370  -0.9332  -0.9102  -0.8992  -0.8965
    -0.8772  -0.8723  -0.8691  -0.8666  -0.8610  -0.8518  -0.8420  -0.8166
    -0.8136  -0.8048  -0.8033  -0.7846  -0.7841  -0.7691  -0.7460  -0.7369
    -0.7207  -0.7184  -0.6818  -0.6811  -0.6790  -0.6765  -0.6746  -0.6709
    -0.6696  -0.6676  -0.6634  -0.6632  -0.6324  -0.6311  -0.6290  -0.6275
    -0.6261  -0.6163  -0.6127  -0.5954  -0.5849  -0.3271  -0.3141  -0.2705
    -0.2563  -0.2378  -0.1753  -0.0280  -0.0272   0.0115   0.2867   0.2924
     0.6274   0.6339   0.6714   0.6743   0.7217   0.7266   0.8810   0.8900
     1.0090   1.0122   1.1297   1.6211   1.6599   1.6678   1.7035   1.7041
     1.8375   1.8460   1.8964   1.9008   2.0788   2.0815   2.3613   2.3901
     2.3949   2.4138   2.8428   2.8494   2.8695   2.8711   2.8879   2.8890
     2.9533   2.9545   3.1045   3.2289   3.2318   3.4177   3.4203   3.5278
     3.5981   3.5996   3.8927   3.8990   3.9516   3.9581   3.9596   4.0937
     4.1053   4.1143   4.1342   4.3990   4.4015   4.4377   4.4396   4.5493
     4.5520   4.6155   4.6225   4.8884   5.4478   5.4957   5.5122   5.5839
     5.6650   5.7059   5.7099   5.7801   5.7818   5.7984   5.8017   5.8723
     5.9059   5.9244   6.0847   6.1803   6.1977   6.2039   6.2077   6.2125
     6.2162   6.2282   6.3271   6.3755   6.3902   6.4060   6.4841   6.5247

          k = 0.2500 0.2500-0.2500 (167588 PWs)   bands (ev):

   -19.5217  -7.4211  -6.8308  -6.3021  -6.3006  -5.8636  -5.4603  -5.3620
    -5.3612  -5.1400  -5.1395  -5.0441  -5.0421  -4.9100  -4.9015  -4.7925
    -4.7042  -4.6994  -4.6788  -4.6782  -4.4982  -4.4964  -4.4958  -4.4712
    -4.4657  -4.4646  -4.4603  -4.4103  -4.4075  -4.4053  -4.4047  -4.3410
    -4.3139  -4.3124  -4.2575  -4.2529  -4.2515  -4.2164  -4.2152  -4.2016
    -4.1966  -4.1790  -4.1779  -4.1426  -4.1090  -4.1087  -4.1061  -4.1024
    -4.1022  -4.0756  -4.0447  -4.0420  -4.0127  -4.0121  -4.0102  -4.0079
    -4.0072  -4.0000  -3.9704  -3.9681  -3.9149  -3.9075  -3.8767  -3.8518
    -3.8439  -3.8394  -3.8378  -3.8185  -3.8154  -3.8048  -3.7562  -3.7542
    -3.7485  -3.7479  -3.6804  -3.6626  -3.6551  -3.6400  -3.6292  -3.6060
    -3.5996  -3.5849  -3.5652  -3.5607  -3.5202  -3.5195  -3.5177  -3.5125
    -3.4940  -3.4921  -3.4140  -3.4116  -3.4100  -3.3948  -3.3822  -3.3795
    -3.3656  -3.3648  -3.3588  -3.3578  -3.3157  -3.3151  -3.2946  -3.2925
    -3.2574  -3.2553  -3.2308  -3.2093  -3.2077  -3.1630  -3.1617  -3.1299
    -3.1033  -3.1015  -3.1004  -3.1001  -3.0959  -3.0955  -3.0714  -3.0590
    -3.0221  -3.0217  -3.0011  -2.9769  -2.9744  -2.9729  -2.9674  -2.9661
    -2.9627  -2.9624  -2.9286  -2.9267  -2.9260  -2.9213  -2.9198  -2.9159
    -2.8601  -2.8568  -2.8509  -2.8500  -2.8294  -2.8285  -2.8241  -2.7338
    -2.7252  -2.7235  -2.7168  -2.7136  -2.7093  -2.7076  -2.7068  -2.6984
    -2.6973  -2.6894  -2.6802  -2.6795  -2.6763  -2.6717  -2.6627  -2.6585
    -2.6544  -2.6341  -2.6243  -2.6215  -2.6071  -2.6060  -2.5904  -2.5893
    -2.5802  -2.5798  -2.5591  -2.5498  -2.5472  -2.5441  -2.5421  -2.5115
    -2.5063  -2.5049  -2.4475  -2.4429  -2.4321  -2.4301  -2.4193  -2.4161
    -2.3938  -2.3915  -2.3863  -2.3799  -2.3751  -2.3682  -2.3619  -2.3474
    -2.3449  -2.3217  -2.3194  -2.3098  -2.3086  -2.2991  -2.2983  -2.2877
    -2.2705  -2.2504  -2.1895  -2.1785  -2.1581  -2.1570  -2.1543  -2.1462
    -2.1079  -2.0947  -2.0871  -2.0613  -2.0508  -2.0496  -2.0300  -2.0161
    -2.0114  -2.0011  -1.9983  -1.9855  -1.9616  -1.9605  -1.9500  -1.9480
    -1.9455  -1.9429  -1.9324  -1.9157  -1.9131  -1.9081  -1.9072  -1.9051
    -1.9038  -1.9022  -1.8898  -1.8828  -1.8692  -1.8676  -1.8618  -1.8497
    -1.8477  -1.8460  -1.8449  -1.8398  -1.8359  -1.8182  -1.8004  -1.7644
    -1.7444  -1.7380  -1.7309  -1.6932  -1.6911  -1.6903  -1.6818  -1.6768
    -1.6668  -1.6654  -1.6595  -1.6503  -1.6482  -1.6299  -1.6283  -1.6070
    -1.5909  -1.5868  -1.5727  -1.5518  -1.5439  -1.5136  -1.5075  -1.4617
    -1.4575  -1.4391  -1.4209  -1.4148  -1.4128  -1.4081  -1.4054  -1.3933
    -1.3872  -1.3868  -1.3863  -1.3853  -1.3842  -1.3824  -1.3802  -1.3605
    -1.3553  -1.3441  -1.3223  -1.3209  -1.3203  -1.2985  -1.2977  -1.2931
    -1.2925  -1.2880  -1.2683  -1.2531  -1.2453  -1.2272  -1.2257  -1.2068
    -1.2046  -1.1935  -1.1890  -1.1670  -1.1645  -1.1590  -1.1465  -1.1200
    -1.1163  -1.1082  -1.1077  -1.1054  -1.0957  -1.0797  -1.0792  -1.0672
    -1.0595  -1.0579  -1.0472  -1.0459  -1.0447  -1.0385  -1.0344  -1.0229
    -1.0219  -1.0150  -1.0144  -1.0082  -1.0041  -0.9895  -0.9871  -0.9478
    -0.9464  -0.9445  -0.9432  -0.9370  -0.9332  -0.9102  -0.8992  -0.8965
    -0.8772  -0.8723  -0.8691  -0.8666  -0.8610  -0.8518  -0.8420  -0.8166
    -0.8136  -0.8048  -0.8033  -0.7846  -0.7841  -0.7691  -0.7460  -0.7369
    -0.7207  -0.7184  -0.6818  -0.6811  -0.6790  -0.6765  -0.6746  -0.6709
    -0.6696  -0.6676  -0.6634  -0.6632  -0.6324  -0.6312  -0.6290  -0.6275
    -0.6261  -0.6163  -0.6127  -0.5954  -0.5849  -0.3271  -0.3141  -0.2705
    -0.2563  -0.2378  -0.1753  -0.0280  -0.0272   0.0115   0.2867   0.2924
     0.6274   0.6339   0.6714   0.6743   0.7217   0.7266   0.8810   0.8900
     1.0090   1.0122   1.1297   1.6211   1.6599   1.6678   1.7035   1.7041
     1.8375   1.8460   1.8964   1.9008   2.0788   2.0815   2.3613   2.3901
     2.3949   2.4138   2.8428   2.8494   2.8695   2.8711   2.8879   2.8890
     2.9533   2.9545   3.1045   3.2289   3.2318   3.4177   3.4203   3.5278
     3.5981   3.5996   3.8927   3.8990   3.9516   3.9581   3.9596   4.0938
     4.1053   4.1144   4.1342   4.3990   4.4015   4.4377   4.4396   4.5493
     4.5520   4.6155   4.6225   4.8885   5.4444   5.4956   5.5113   5.5840
     5.6485   5.7056   5.7096   5.7792   5.7817   5.7984   5.8015   5.8648
     5.9082   5.9620   6.1428   6.1581   6.1846   6.1981   6.2045   6.2086
     6.2158   6.2269   6.3163   6.3767   6.3966   6.4776   6.5203   6.5463

          k =-0.2500-0.2500 0.0833 (167653 PWs)   bands (ev):

   -19.5217  -7.4211  -6.8308  -6.3021  -6.3006  -5.8636  -5.4603  -5.3620
    -5.3612  -5.1400  -5.1395  -5.0441  -5.0421  -4.9100  -4.9015  -4.7925
    -4.7042  -4.6994  -4.6788  -4.6782  -4.4982  -4.4964  -4.4958  -4.4712
    -4.4657  -4.4646  -4.4603  -4.4103  -4.4075  -4.4053  -4.4047  -4.3410
    -4.3139  -4.3124  -4.2575  -4.2529  -4.2515  -4.2164  -4.2152  -4.2015
    -4.1966  -4.1790  -4.1779  -4.1426  -4.1090  -4.1087  -4.1061  -4.1024
    -4.1022  -4.0756  -4.0447  -4.0420  -4.0127  -4.0122  -4.0102  -4.0079
    -4.0072  -4.0000  -3.9704  -3.9681  -3.9149  -3.9075  -3.8767  -3.8518
    -3.8439  -3.8394  -3.8378  -3.8185  -3.8154  -3.8048  -3.7562  -3.7542
    -3.7485  -3.7479  -3.6804  -3.6626  -3.6551  -3.6400  -3.6292  -3.6060
    -3.5996  -3.5849  -3.5652  -3.5607  -3.5202  -3.5196  -3.5177  -3.5125
    -3.4940  -3.4921  -3.4140  -3.4116  -3.4100  -3.3948  -3.3822  -3.3795
    -3.3656  -3.3648  -3.3588  -3.3578  -3.3157  -3.3151  -3.2946  -3.2925
    -3.2574  -3.2553  -3.2308  -3.2093  -3.2077  -3.1630  -3.1618  -3.1299
    -3.1033  -3.1015  -3.1004  -3.1001  -3.0960  -3.0955  -3.0714  -3.0590
    -3.0221  -3.0217  -3.0010  -2.9769  -2.9744  -2.9729  -2.9674  -2.9661
    -2.9627  -2.9624  -2.9287  -2.9267  -2.9260  -2.9213  -2.9198  -2.9159
    -2.8601  -2.8568  -2.8509  -2.8500  -2.8294  -2.8285  -2.8241  -2.7338
    -2.7252  -2.7235  -2.7168  -2.7136  -2.7093  -2.7076  -2.7068  -2.6984
    -2.6973  -2.6894  -2.6802  -2.6795  -2.6764  -2.6717  -2.6627  -2.6585
    -2.6544  -2.6341  -2.6243  -2.6215  -2.6071  -2.6060  -2.5904  -2.5893
    -2.5803  -2.5798  -2.5591  -2.5498  -2.5472  -2.5441  -2.5421  -2.5115
    -2.5063  -2.5049  -2.4474  -2.4429  -2.4321  -2.4301  -2.4193  -2.4161
    -2.3938  -2.3915  -2.3863  -2.3800  -2.3751  -2.3682  -2.3619  -2.3474
    -2.3449  -2.3217  -2.3194  -2.3098  -2.3086  -2.2991  -2.2983  -2.2877
    -2.2705  -2.2503  -2.1895  -2.1785  -2.1581  -2.1570  -2.1543  -2.1462
    -2.1079  -2.0947  -2.0871  -2.0612  -2.0508  -2.0496  -2.0300  -2.0161
    -2.0114  -2.0011  -1.9983  -1.9855  -1.9616  -1.9605  -1.9500  -1.9480
    -1.9455  -1.9429  -1.9324  -1.9157  -1.9131  -1.9081  -1.9072  -1.9051
    -1.9038  -1.9022  -1.8898  -1.8828  -1.8692  -1.8676  -1.8618  -1.8497
    -1.8477  -1.8460  -1.8449  -1.8398  -1.8359  -1.8182  -1.8004  -1.7644
    -1.7444  -1.7380  -1.7309  -1.6932  -1.6911  -1.6903  -1.6818  -1.6768
    -1.6668  -1.6654  -1.6595  -1.6503  -1.6482  -1.6299  -1.6283  -1.6070
    -1.5909  -1.5868  -1.5727  -1.5518  -1.5440  -1.5136  -1.5075  -1.4617
    -1.4575  -1.4390  -1.4209  -1.4148  -1.4128  -1.4081  -1.4054  -1.3933
    -1.3872  -1.3868  -1.3863  -1.3853  -1.3842  -1.3824  -1.3802  -1.3605
    -1.3553  -1.3442  -1.3223  -1.3209  -1.3203  -1.2985  -1.2977  -1.2931
    -1.2925  -1.2880  -1.2683  -1.2531  -1.2453  -1.2272  -1.2257  -1.2068
    -1.2046  -1.1935  -1.1890  -1.1670  -1.1645  -1.1590  -1.1465  -1.1200
    -1.1163  -1.1082  -1.1077  -1.1054  -1.0957  -1.0797  -1.0792  -1.0672
    -1.0595  -1.0579  -1.0472  -1.0459  -1.0447  -1.0385  -1.0344  -1.0229
    -1.0219  -1.0150  -1.0145  -1.0082  -1.0041  -0.9895  -0.9871  -0.9478
    -0.9464  -0.9445  -0.9432  -0.9370  -0.9332  -0.9102  -0.8992  -0.8965
    -0.8772  -0.8723  -0.8691  -0.8666  -0.8610  -0.8518  -0.8420  -0.8166
    -0.8136  -0.8048  -0.8033  -0.7846  -0.7841  -0.7691  -0.7460  -0.7369
    -0.7207  -0.7184  -0.6818  -0.6811  -0.6790  -0.6765  -0.6746  -0.6709
    -0.6696  -0.6676  -0.6634  -0.6632  -0.6324  -0.6311  -0.6290  -0.6275
    -0.6261  -0.6163  -0.6127  -0.5954  -0.5849  -0.3271  -0.3141  -0.2705
    -0.2563  -0.2378  -0.1753  -0.0280  -0.0272   0.0115   0.2867   0.2924
     0.6274   0.6339   0.6714   0.6743   0.7217   0.7266   0.8810   0.8900
     1.0090   1.0122   1.1297   1.6211   1.6599   1.6678   1.7035   1.7041
     1.8375   1.8460   1.8964   1.9008   2.0788   2.0815   2.3613   2.3901
     2.3949   2.4138   2.8428   2.8494   2.8695   2.8711   2.8879   2.8890
     2.9533   2.9545   3.1045   3.2289   3.2318   3.4177   3.4203   3.5278
     3.5981   3.5996   3.8927   3.8990   3.9516   3.9581   3.9596   4.0937
     4.1053   4.1143   4.1342   4.3990   4.4015   4.4377   4.4396   4.5493
     4.5520   4.6155   4.6225   4.8884   5.4476   5.4957   5.5121   5.5839
     5.6660   5.7062   5.7101   5.7800   5.7816   5.7984   5.8017   5.8673
     5.9075   5.9259   6.0872   6.1801   6.1977   6.2036   6.2079   6.2124
     6.2159   6.2282   6.3337   6.3742   6.3892   6.4019   6.4781   6.5240

          k =-0.2500 0.2500-0.0833 (167653 PWs)   bands (ev):

   -19.5217  -7.4211  -6.8308  -6.3029  -6.3000  -5.8634  -5.4602  -5.3632
    -5.3598  -5.1402  -5.1395  -5.0455  -5.0411  -4.9094  -4.9017  -4.7922
    -4.7041  -4.6998  -4.6795  -4.6783  -4.4983  -4.4978  -4.4945  -4.4714
    -4.4657  -4.4647  -4.4602  -4.4106  -4.4064  -4.4062  -4.4033  -4.3410
    -4.3137  -4.3124  -4.2575  -4.2529  -4.2514  -4.2178  -4.2135  -4.2016
    -4.1965  -4.1787  -4.1779  -4.1426  -4.1102  -4.1078  -4.1060  -4.1034
    -4.1011  -4.0734  -4.0479  -4.0418  -4.0141  -4.0114  -4.0099  -4.0080
    -4.0075  -4.0000  -3.9715  -3.9665  -3.9109  -3.9069  -3.8769  -3.8574
    -3.8429  -3.8389  -3.8379  -3.8184  -3.8156  -3.8047  -3.7555  -3.7543
    -3.7499  -3.7468  -3.6826  -3.6633  -3.6544  -3.6404  -3.6295  -3.6056
    -3.6021  -3.5859  -3.5653  -3.5525  -3.5214  -3.5185  -3.5178  -3.5133
    -3.4953  -3.4910  -3.4151  -3.4124  -3.4106  -3.3938  -3.3828  -3.3794
    -3.3666  -3.3642  -3.3587  -3.3577  -3.3162  -3.3139  -3.2943  -3.2919
    -3.2575  -3.2548  -3.2307  -3.2101  -3.2080  -3.1638  -3.1609  -3.1298
    -3.1030  -3.1009  -3.1003  -3.0996  -3.0967  -3.0955  -3.0716  -3.0587
    -3.0222  -3.0218  -3.0011  -2.9773  -2.9744  -2.9720  -2.9684  -2.9646
    -2.9629  -2.9624  -2.9286  -2.9270  -2.9254  -2.9217  -2.9199  -2.9158
    -2.8605  -2.8568  -2.8530  -2.8494  -2.8294  -2.8285  -2.8240  -2.7339
    -2.7259  -2.7229  -2.7181  -2.7120  -2.7104  -2.7081  -2.7065  -2.6982
    -2.6972  -2.6895  -2.6811  -2.6796  -2.6766  -2.6717  -2.6620  -2.6598
    -2.6543  -2.6341  -2.6248  -2.6203  -2.6070  -2.6058  -2.5911  -2.5893
    -2.5812  -2.5788  -2.5591  -2.5505  -2.5479  -2.5452  -2.5415  -2.5092
    -2.5058  -2.5049  -2.4477  -2.4429  -2.4311  -2.4287  -2.4209  -2.4141
    -2.3933  -2.3910  -2.3863  -2.3803  -2.3748  -2.3671  -2.3601  -2.3502
    -2.3430  -2.3212  -2.3185  -2.3111  -2.3073  -2.3009  -2.2976  -2.2870
    -2.2703  -2.2498  -2.1858  -2.1811  -2.1603  -2.1563  -2.1517  -2.1464
    -2.1006  -2.0940  -2.0846  -2.0609  -2.0537  -2.0493  -2.0297  -2.0211
    -2.0126  -2.0022  -1.9986  -1.9765  -1.9694  -1.9571  -1.9522  -1.9485
    -1.9477  -1.9428  -1.9308  -1.9191  -1.9130  -1.9083  -1.9073  -1.9044
    -1.9038  -1.9008  -1.8895  -1.8786  -1.8697  -1.8662  -1.8643  -1.8511
    -1.8485  -1.8458  -1.8426  -1.8381  -1.8372  -1.8216  -1.8012  -1.7767
    -1.7546  -1.7404  -1.7354  -1.6932  -1.6920  -1.6904  -1.6807  -1.6757
    -1.6669  -1.6626  -1.6593  -1.6530  -1.6483  -1.6332  -1.6280  -1.5947
    -1.5917  -1.5734  -1.5701  -1.5524  -1.5502  -1.5137  -1.5023  -1.4618
    -1.4586  -1.4394  -1.4195  -1.4145  -1.4127  -1.4114  -1.4041  -1.3944
    -1.3916  -1.3858  -1.3856  -1.3852  -1.3843  -1.3822  -1.3805  -1.3635
    -1.3550  -1.3446  -1.3228  -1.3213  -1.3145  -1.3005  -1.2972  -1.2944
    -1.2920  -1.2885  -1.2711  -1.2533  -1.2405  -1.2278  -1.2259  -1.2066
    -1.2013  -1.1970  -1.1850  -1.1670  -1.1638  -1.1587  -1.1491  -1.1230
    -1.1150  -1.1093  -1.1074  -1.1050  -1.0955  -1.0816  -1.0784  -1.0669
    -1.0615  -1.0560  -1.0484  -1.0466  -1.0426  -1.0376  -1.0343  -1.0239
    -1.0190  -1.0166  -1.0144  -1.0079  -1.0061  -0.9907  -0.9833  -0.9463
    -0.9451  -0.9439  -0.9420  -0.9383  -0.9351  -0.9099  -0.8980  -0.8930
    -0.8791  -0.8720  -0.8695  -0.8623  -0.8602  -0.8523  -0.8460  -0.8191
    -0.8096  -0.8045  -0.8025  -0.7852  -0.7834  -0.7689  -0.7456  -0.7369
    -0.7212  -0.7174  -0.6824  -0.6818  -0.6795  -0.6765  -0.6724  -0.6718
    -0.6698  -0.6693  -0.6643  -0.6632  -0.6334  -0.6303  -0.6294  -0.6275
    -0.6263  -0.6155  -0.6130  -0.5949  -0.5839  -0.3274  -0.3140  -0.2738
    -0.2510  -0.2385  -0.1802  -0.0301  -0.0263   0.0112   0.2853   0.2949
     0.6219   0.6390   0.6705   0.6751   0.7190   0.7265   0.8754   0.8943
     1.0090   1.0127   1.1311   1.6200   1.6655   1.6678   1.7028   1.7054
     1.8243   1.8551   1.8916   1.9086   2.0755   2.0842   2.3627   2.3836
     2.4028   2.4131   2.8291   2.8565   2.8698   2.8765   2.8860   2.8909
     2.9520   2.9555   3.1004   3.2192   3.2429   3.4155   3.4213   3.5270
     3.5917   3.6069   3.8841   3.9048   3.9519   3.9585   3.9648   4.0937
     4.0999   4.1090   4.1411   4.3956   4.4032   4.4359   4.4435   4.5466
     4.5545   4.6042   4.6379   4.8898   5.4355   5.5030   5.5156   5.5836
     5.6647   5.6989   5.7157   5.7791   5.7881   5.7932   5.8001   5.8732
     5.9103   5.9209   6.0867   6.1878   6.1927   6.2011   6.2049   6.2124
     6.2146   6.2272   6.3298   6.3764   6.3888   6.3991   6.4915   6.5203

          k = 0.2500-0.2500-0.0833 (167653 PWs)   bands (ev):

   -19.5217  -7.4211  -6.8308  -6.3029  -6.3000  -5.8634  -5.4602  -5.3632
    -5.3598  -5.1402  -5.1395  -5.0455  -5.0411  -4.9094  -4.9017  -4.7922
    -4.7041  -4.6998  -4.6795  -4.6783  -4.4983  -4.4978  -4.4945  -4.4714
    -4.4657  -4.4647  -4.4602  -4.4106  -4.4064  -4.4062  -4.4033  -4.3410
    -4.3137  -4.3124  -4.2575  -4.2529  -4.2514  -4.2178  -4.2135  -4.2016
    -4.1965  -4.1787  -4.1779  -4.1426  -4.1102  -4.1078  -4.1060  -4.1034
    -4.1011  -4.0734  -4.0479  -4.0418  -4.0141  -4.0114  -4.0099  -4.0080
    -4.0075  -4.0000  -3.9715  -3.9665  -3.9109  -3.9069  -3.8769  -3.8574
    -3.8429  -3.8389  -3.8379  -3.8184  -3.8156  -3.8047  -3.7555  -3.7543
    -3.7499  -3.7468  -3.6826  -3.6633  -3.6544  -3.6404  -3.6295  -3.6056
    -3.6021  -3.5859  -3.5653  -3.5525  -3.5214  -3.5185  -3.5178  -3.5133
    -3.4953  -3.4910  -3.4151  -3.4124  -3.4106  -3.3938  -3.3828  -3.3794
    -3.3666  -3.3642  -3.3587  -3.3577  -3.3162  -3.3139  -3.2943  -3.2919
    -3.2575  -3.2548  -3.2307  -3.2101  -3.2080  -3.1638  -3.1609  -3.1298
    -3.1030  -3.1009  -3.1003  -3.0996  -3.0967  -3.0955  -3.0716  -3.0587
    -3.0222  -3.0218  -3.0011  -2.9773  -2.9744  -2.9720  -2.9684  -2.9646
    -2.9629  -2.9624  -2.9286  -2.9270  -2.9254  -2.9217  -2.9199  -2.9158
    -2.8605  -2.8568  -2.8530  -2.8494  -2.8294  -2.8285  -2.8240  -2.7339
    -2.7259  -2.7229  -2.7181  -2.7120  -2.7104  -2.7081  -2.7065  -2.6982
    -2.6972  -2.6895  -2.6811  -2.6796  -2.6766  -2.6717  -2.6620  -2.6598
    -2.6543  -2.6341  -2.6248  -2.6203  -2.6070  -2.6058  -2.5911  -2.5893
    -2.5812  -2.5788  -2.5591  -2.5505  -2.5479  -2.5452  -2.5415  -2.5092
    -2.5058  -2.5049  -2.4477  -2.4429  -2.4311  -2.4287  -2.4209  -2.4141
    -2.3933  -2.3910  -2.3863  -2.3803  -2.3748  -2.3671  -2.3601  -2.3502
    -2.3430  -2.3212  -2.3185  -2.3111  -2.3073  -2.3009  -2.2976  -2.2870
    -2.2703  -2.2498  -2.1858  -2.1811  -2.1603  -2.1563  -2.1517  -2.1464
    -2.1006  -2.0940  -2.0846  -2.0609  -2.0537  -2.0493  -2.0297  -2.0211
    -2.0126  -2.0022  -1.9986  -1.9765  -1.9694  -1.9571  -1.9522  -1.9485
    -1.9477  -1.9428  -1.9308  -1.9191  -1.9130  -1.9083  -1.9073  -1.9044
    -1.9038  -1.9008  -1.8895  -1.8786  -1.8697  -1.8662  -1.8643  -1.8511
    -1.8485  -1.8458  -1.8426  -1.8381  -1.8372  -1.8216  -1.8012  -1.7767
    -1.7546  -1.7404  -1.7354  -1.6932  -1.6920  -1.6904  -1.6807  -1.6757
    -1.6669  -1.6626  -1.6593  -1.6530  -1.6483  -1.6332  -1.6280  -1.5947
    -1.5917  -1.5734  -1.5701  -1.5524  -1.5502  -1.5137  -1.5023  -1.4618
    -1.4586  -1.4394  -1.4195  -1.4145  -1.4127  -1.4114  -1.4041  -1.3944
    -1.3916  -1.3858  -1.3856  -1.3852  -1.3843  -1.3822  -1.3805  -1.3635
    -1.3550  -1.3446  -1.3228  -1.3213  -1.3145  -1.3005  -1.2972  -1.2944
    -1.2920  -1.2885  -1.2711  -1.2533  -1.2405  -1.2278  -1.2259  -1.2066
    -1.2013  -1.1970  -1.1850  -1.1670  -1.1638  -1.1587  -1.1491  -1.1230
    -1.1150  -1.1093  -1.1074  -1.1050  -1.0955  -1.0816  -1.0784  -1.0669
    -1.0615  -1.0560  -1.0484  -1.0466  -1.0426  -1.0376  -1.0343  -1.0239
    -1.0190  -1.0166  -1.0144  -1.0079  -1.0061  -0.9907  -0.9833  -0.9463
    -0.9451  -0.9439  -0.9420  -0.9383  -0.9351  -0.9099  -0.8980  -0.8930
    -0.8791  -0.8720  -0.8695  -0.8623  -0.8602  -0.8523  -0.8460  -0.8191
    -0.8096  -0.8045  -0.8025  -0.7852  -0.7834  -0.7689  -0.7456  -0.7369
    -0.7212  -0.7174  -0.6824  -0.6818  -0.6795  -0.6765  -0.6724  -0.6718
    -0.6698  -0.6693  -0.6643  -0.6632  -0.6334  -0.6303  -0.6294  -0.6275
    -0.6263  -0.6155  -0.6130  -0.5949  -0.5839  -0.3274  -0.3140  -0.2738
    -0.2510  -0.2385  -0.1802  -0.0301  -0.0263   0.0112   0.2853   0.2949
     0.6219   0.6390   0.6705   0.6751   0.7190   0.7265   0.8754   0.8943
     1.0090   1.0127   1.1311   1.6200   1.6655   1.6678   1.7028   1.7054
     1.8243   1.8551   1.8916   1.9086   2.0755   2.0842   2.3627   2.3836
     2.4028   2.4131   2.8291   2.8565   2.8698   2.8765   2.8860   2.8909
     2.9520   2.9555   3.1004   3.2192   3.2429   3.4155   3.4213   3.5270
     3.5917   3.6069   3.8841   3.9048   3.9519   3.9585   3.9648   4.0937
     4.0999   4.1090   4.1411   4.3956   4.4032   4.4359   4.4435   4.5466
     4.5545   4.6042   4.6379   4.8898   5.4355   5.5030   5.5157   5.5838
     5.6646   5.6987   5.7155   5.7789   5.7886   5.7932   5.8001   5.8724
     5.9104   5.9199   6.0899   6.1878   6.1931   6.2010   6.2042   6.2124
     6.2149   6.2270   6.3264   6.3704   6.3872   6.4071   6.4934   6.5232

          k =-0.2500 0.2500 0.2500 (167588 PWs)   bands (ev):

   -19.5217  -7.4211  -6.8308  -6.3029  -6.3000  -5.8634  -5.4602  -5.3632
    -5.3598  -5.1402  -5.1395  -5.0455  -5.0411  -4.9094  -4.9017  -4.7922
    -4.7041  -4.6998  -4.6795  -4.6783  -4.4983  -4.4978  -4.4945  -4.4714
    -4.4657  -4.4647  -4.4603  -4.4106  -4.4064  -4.4062  -4.4033  -4.3410
    -4.3137  -4.3124  -4.2575  -4.2529  -4.2514  -4.2178  -4.2135  -4.2016
    -4.1965  -4.1787  -4.1779  -4.1426  -4.1102  -4.1078  -4.1060  -4.1034
    -4.1011  -4.0734  -4.0479  -4.0418  -4.0141  -4.0114  -4.0099  -4.0080
    -4.0075  -4.0000  -3.9715  -3.9665  -3.9109  -3.9069  -3.8769  -3.8574
    -3.8429  -3.8389  -3.8379  -3.8184  -3.8156  -3.8047  -3.7555  -3.7543
    -3.7499  -3.7468  -3.6826  -3.6633  -3.6544  -3.6404  -3.6295  -3.6056
    -3.6021  -3.5859  -3.5653  -3.5525  -3.5214  -3.5185  -3.5178  -3.5133
    -3.4953  -3.4910  -3.4151  -3.4124  -3.4106  -3.3938  -3.3828  -3.3794
    -3.3666  -3.3642  -3.3587  -3.3577  -3.3162  -3.3139  -3.2943  -3.2919
    -3.2575  -3.2548  -3.2307  -3.2101  -3.2080  -3.1638  -3.1609  -3.1298
    -3.1030  -3.1009  -3.1003  -3.0996  -3.0967  -3.0955  -3.0716  -3.0587
    -3.0222  -3.0218  -3.0011  -2.9773  -2.9744  -2.9720  -2.9684  -2.9646
    -2.9629  -2.9624  -2.9286  -2.9270  -2.9254  -2.9217  -2.9199  -2.9158
    -2.8605  -2.8568  -2.8530  -2.8494  -2.8294  -2.8285  -2.8240  -2.7339
    -2.7259  -2.7229  -2.7181  -2.7120  -2.7104  -2.7081  -2.7065  -2.6981
    -2.6972  -2.6895  -2.6811  -2.6796  -2.6766  -2.6717  -2.6620  -2.6597
    -2.6543  -2.6341  -2.6248  -2.6203  -2.6070  -2.6057  -2.5911  -2.5893
    -2.5812  -2.5788  -2.5591  -2.5505  -2.5479  -2.5452  -2.5415  -2.5093
    -2.5058  -2.5049  -2.4477  -2.4429  -2.4311  -2.4287  -2.4208  -2.4141
    -2.3933  -2.3910  -2.3863  -2.3803  -2.3748  -2.3671  -2.3601  -2.3502
    -2.3430  -2.3212  -2.3185  -2.3111  -2.3073  -2.3009  -2.2977  -2.2870
    -2.2703  -2.2498  -2.1858  -2.1811  -2.1603  -2.1563  -2.1517  -2.1464
    -2.1006  -2.0940  -2.0846  -2.0609  -2.0537  -2.0493  -2.0297  -2.0211
    -2.0126  -2.0022  -1.9986  -1.9765  -1.9694  -1.9571  -1.9522  -1.9485
    -1.9477  -1.9428  -1.9308  -1.9191  -1.9130  -1.9083  -1.9073  -1.9044
    -1.9038  -1.9008  -1.8895  -1.8786  -1.8697  -1.8662  -1.8644  -1.8511
    -1.8485  -1.8458  -1.8426  -1.8381  -1.8372  -1.8216  -1.8012  -1.7767
    -1.7546  -1.7404  -1.7354  -1.6932  -1.6920  -1.6904  -1.6807  -1.6757
    -1.6669  -1.6626  -1.6593  -1.6530  -1.6483  -1.6332  -1.6280  -1.5947
    -1.5917  -1.5734  -1.5701  -1.5524  -1.5502  -1.5137  -1.5023  -1.4618
    -1.4586  -1.4394  -1.4195  -1.4145  -1.4127  -1.4114  -1.4041  -1.3944
    -1.3916  -1.3858  -1.3856  -1.3852  -1.3843  -1.3822  -1.3805  -1.3635
    -1.3550  -1.3446  -1.3228  -1.3213  -1.3145  -1.3005  -1.2972  -1.2944
    -1.2920  -1.2885  -1.2711  -1.2533  -1.2405  -1.2278  -1.2259  -1.2066
    -1.2013  -1.1970  -1.1850  -1.1670  -1.1638  -1.1587  -1.1491  -1.1230
    -1.1150  -1.1093  -1.1074  -1.1050  -1.0955  -1.0816  -1.0784  -1.0669
    -1.0615  -1.0560  -1.0484  -1.0466  -1.0426  -1.0376  -1.0343  -1.0239
    -1.0190  -1.0166  -1.0144  -1.0079  -1.0061  -0.9907  -0.9833  -0.9463
    -0.9451  -0.9439  -0.9420  -0.9383  -0.9351  -0.9099  -0.8980  -0.8930
    -0.8791  -0.8720  -0.8695  -0.8623  -0.8602  -0.8523  -0.8460  -0.8191
    -0.8096  -0.8045  -0.8025  -0.7852  -0.7834  -0.7689  -0.7456  -0.7369
    -0.7212  -0.7174  -0.6824  -0.6818  -0.6795  -0.6765  -0.6724  -0.6718
    -0.6698  -0.6693  -0.6643  -0.6632  -0.6334  -0.6303  -0.6294  -0.6275
    -0.6263  -0.6155  -0.6130  -0.5949  -0.5839  -0.3274  -0.3140  -0.2738
    -0.2510  -0.2385  -0.1802  -0.0300  -0.0263   0.0112   0.2853   0.2949
     0.6219   0.6390   0.6705   0.6751   0.7190   0.7265   0.8754   0.8943
     1.0090   1.0127   1.1311   1.6200   1.6655   1.6678   1.7028   1.7054
     1.8243   1.8551   1.8916   1.9086   2.0755   2.0842   2.3627   2.3836
     2.4028   2.4131   2.8291   2.8565   2.8698   2.8765   2.8860   2.8909
     2.9520   2.9555   3.1005   3.2192   3.2429   3.4155   3.4213   3.5270
     3.5917   3.6069   3.8841   3.9048   3.9519   3.9585   3.9648   4.0937
     4.0999   4.1090   4.1411   4.3956   4.4032   4.4359   4.4435   4.5466
     4.5545   4.6042   4.6379   4.8899   5.4328   5.5030   5.5143   5.5831
     5.6485   5.6986   5.7152   5.7782   5.7874   5.7931   5.8001   5.8701
     5.9106   5.9550   6.1379   6.1561   6.1900   6.2003   6.2026   6.2123
     6.2146   6.2271   6.3163   6.3819   6.3869   6.4855   6.5129   6.5596

     the Fermi energy is     0.9555 ev

!    total energy              =   -7379.98110978 Ry
     Harris-Foulkes estimate   =   -7379.98110978 Ry
     estimated scf accuracy    <          3.9E-09 Ry

     The total energy is the sum of the following terms:

     one-electron contribution =  -48835.70050567 Ry
     hartree contribution      =   24967.38477157 Ry
     xc contribution           =   -3556.27138987 Ry
     ewald contribution        =   20044.60486974 Ry
     smearing contrib. (-TS)   =       0.00114445 Ry

     convergence has been achieved in  27 iterations

     negative rho (up, down):  1.970E+00 0.000E+00

     Forces acting on atoms (Ry/au):

     atom    1 type  3   force =     0.01288750    0.01938020    0.01588664
     atom    2 type  2   force =    -0.01371857   -0.01072901   -0.00838565
     atom    3 type  2   force =     0.00470497   -0.00313779    0.00121602
     atom    4 type  1   force =    -0.00032658   -0.00023781    0.01845242
     atom    5 type  1   force =    -0.00001222   -0.00020283    0.01846907
     atom    6 type  1   force =     0.00000336   -0.00019958    0.01819578
     atom    7 type  1   force =     0.00009912   -0.00001523    0.01814986
     atom    8 type  1   force =    -0.00005410   -0.00001020    0.01813684
     atom    9 type  1   force =     0.00020656   -0.00013781    0.01825204
     atom   10 type  1   force =    -0.00020585    0.00009773    0.01826988
     atom   11 type  1   force =    -0.00003286   -0.00007131    0.01808632
     atom   12 type  1   force =    -0.00000577    0.00005552    0.01789759
     atom   13 type  1   force =    -0.00007433   -0.00003181    0.01805547
     atom   14 type  1   force =     0.00010040   -0.00001214    0.01798181
     atom   15 type  1   force =     0.00021316    0.00002030    0.01848074
     atom   16 type  1   force =    -0.00024261   -0.00002733    0.01832008
     atom   17 type  1   force =    -0.00000834    0.00009659    0.01793246
     atom   18 type  1   force =     0.00001752    0.00001009    0.01811848
     atom   19 type  1   force =     0.00003281    0.00023047    0.01811354
     atom   20 type  1   force =     0.00002191    0.00022078    0.01830423
     atom   21 type  1   force =     0.00025637    0.00019748    0.01841934
     atom   22 type  1   force =    -0.00019673   -0.00053790   -0.00260290
     atom   23 type  1   force =     0.00006905   -0.00034095   -0.00253904
     atom   24 type  1   force =     0.00036944   -0.00034377   -0.00229465
     atom   25 type  1   force =    -0.00044729   -0.00002657   -0.00236809
     atom   26 type  1   force =     0.00010174    0.00010453   -0.00242292
     atom   27 type  1   force =     0.00011862    0.00003967   -0.00236924
     atom   28 type  1   force =    -0.00000448    0.00009751   -0.00229274
     atom   29 type  1   force =     0.00020163    0.00007315   -0.00261410
     atom   30 type  1   force =     0.00032239   -0.00017385   -0.00260180
     atom   31 type  1   force =    -0.00018142    0.00008808   -0.00244874
     atom   32 type  1   force =     0.00000686    0.00008019   -0.00272429
     atom   33 type  1   force =    -0.00047363   -0.00004295   -0.00234539
     atom   34 type  1   force =     0.00005179    0.00018203   -0.00266354
     atom   35 type  1   force =    -0.00018754   -0.00005229   -0.00259870
     atom   36 type  1   force =     0.00045531    0.00011262   -0.00260360
     atom   37 type  1   force =    -0.00028916    0.00042049   -0.00242203
     atom   38 type  1   force =    -0.00003172   -0.00020846   -0.00236208
     atom   39 type  1   force =     0.00007645    0.00045408   -0.00250738
     atom   40 type  1   force =    -0.00031280   -0.00040907    0.00146855
     atom   41 type  1   force =     0.00004810   -0.00048129    0.00141065
     atom   42 type  1   force =     0.00007035   -0.00044571    0.00141227
     atom   43 type  1   force =    -0.00066198    0.00018132    0.00088086
     atom   44 type  1   force =     0.00036785    0.00033160    0.00088828
     atom   45 type  1   force =     0.00023381    0.00003439    0.00130491
     atom   46 type  1   force =    -0.00038662   -0.00005167    0.00153973
     atom   47 type  1   force =    -0.00015681   -0.00090903    0.00248812
     atom   48 type  1   force =     0.00023178    0.00005860    0.00146022
     atom   49 type  1   force =     0.00011926   -0.00048254    0.00072453
     atom   50 type  1   force =    -0.00007765   -0.00011601    0.00132604
     atom   51 type  1   force =     0.00028215   -0.00002726    0.00147010
     atom   52 type  1   force =     0.00030004    0.00037101    0.00130657
     atom   53 type  1   force =    -0.00089446   -0.00010234    0.00233071
     atom   54 type  1   force =     0.00026688    0.00009777    0.00155510
     atom   55 type  1   force =    -0.00003824    0.00045230    0.00145737
     atom   56 type  1   force =     0.00001740    0.00051431    0.00141337
     atom   57 type  1   force =     0.00024740    0.00034941    0.00138590
     atom   58 type  1   force =    -0.00001670   -0.00016752   -0.01708938
     atom   59 type  1   force =     0.00001657   -0.00013697   -0.01709773
     atom   60 type  1   force =     0.00030807   -0.00005731   -0.01743154
     atom   61 type  1   force =    -0.00012877    0.00002434   -0.01667592
     atom   62 type  1   force =    -0.00006129   -0.00033040   -0.01697636
     atom   63 type  1   force =     0.00002457   -0.00005988   -0.01695328
     atom   64 type  1   force =    -0.00546441   -0.00597341   -0.02680814
     atom   65 type  1   force =     0.00098850   -0.00057350   -0.01765172
     atom   66 type  1   force =     0.00011770   -0.00007101   -0.01711540
     atom   67 type  1   force =    -0.00031336   -0.00025660   -0.01731599
     atom   68 type  1   force =     0.00137925    0.00105988   -0.01484474
     atom   69 type  1   force =    -0.00000131   -0.00007870   -0.01710721
     atom   70 type  1   force =    -0.00045698    0.00089474   -0.01785790
     atom   71 type  1   force =     0.00023570    0.00020219   -0.01724676
     atom   72 type  1   force =     0.00021607    0.00001501   -0.01722838
     atom   73 type  1   force =    -0.00024836    0.00026540   -0.01740937
     atom   74 type  1   force =    -0.00002462    0.00028337   -0.01734123
     atom   75 type  1   force =    -0.00005085    0.00017263   -0.01724397

     Total force =     0.034658     Total SCF correction =     0.000002

     BFGS Geometry Optimization

     number of scf cycles    =   1
     number of bfgs steps    =   0

     energy   new            =   -7379.9811097754 Ry

     new trust radius        =       0.0281791604 bohr
     new conv_thr            =       0.0000000100 Ry


ATOMIC_POSITIONS (angstrom)
O        3.197120711   5.327424750   9.082451075
H        2.582072481   4.730739745   8.569563581
H        3.775538504   4.704582412   9.559797828
Au       0.000000000   0.000000000   0.000000000    0   0   0
Au       4.253737926   0.000000000   0.000000000    0   0   0
Au       8.507475853   0.000000000   0.000000000    0   0   0
Au       2.126868963   2.126868963   0.000000000    0   0   0
Au       6.380607128   2.126868963   0.000000000    0   0   0
Au      10.634344101   2.126868963   0.000000000    0   0   0
Au       0.000000000   4.253737926   0.000000000    0   0   0
Au       4.253737926   4.253737926   0.000000000    0   0   0
Au       8.507475853   4.253737926   0.000000000    0   0   0
Au       2.126868963   6.380607128   0.000000000    0   0   0
Au       6.380607128   6.380607128   0.000000000    0   0   0
Au      10.634344101   6.380607128   0.000000000    0   0   0
Au       0.000000000   8.507475853   0.000000000    0   0   0
Au       4.253737926   8.507475853   0.000000000    0   0   0
Au       8.507475853   8.507475853   0.000000000    0   0   0
Au       2.126868963  10.634344101   0.000000000    0   0   0
Au       6.380607128  10.634344101   0.000000000    0   0   0
Au      10.634344101  10.634344101   0.000000000    0   0   0
Au       2.126868963   0.000000000   2.126868963    0   0   0
Au       6.380607128   0.000000000   2.126868963    0   0   0
Au      10.634344101   0.000000000   2.126868963    0   0   0
Au       0.000000000   2.126868963   2.126868963    0   0   0
Au       4.253737926   2.126868963   2.126868963    0   0   0
Au       8.507475853   2.126868963   2.126868963    0   0   0
Au       2.126868963   4.253737926   2.126868963    0   0   0
Au       6.380607128   4.253737926   2.126868963    0   0   0
Au      10.634344101   4.253737926   2.126868963    0   0   0
Au       0.000000000   6.380607128   2.126868963    0   0   0
Au       4.253737926   6.380607128   2.126868963    0   0   0
Au       8.507475853   6.380607128   2.126868963    0   0   0
Au       2.126868963   8.507475853   2.126868963    0   0   0
Au       6.380607128   8.507475853   2.126868963    0   0   0
Au      10.634344101   8.507475853   2.126868963    0   0   0
Au       0.000000000  10.634344101   2.126868963    0   0   0
Au       4.253737926  10.634344101   2.126868963    0   0   0
Au       8.507475853  10.634344101   2.126868963    0   0   0
Au      -0.000231899  -0.000231899   4.257900238    0   0   0
Au       4.253734589  -0.000230451   4.257893562    0   0   0
Au       8.507492065  -0.000233495   4.257904530    0   0   0
Au      -0.000230451   4.253734589   4.257893562    0   0   0
Au       4.253735065   4.253735065   4.257887840    0   0   0
Au       8.507489204   4.253735542   4.257899761    0   0   0
Au      -0.000233495   8.507492065   4.257904530    0   0   0
Au       4.253735542   8.507489204   4.257899761    0   0   0
Au       8.507491112   8.507491112   4.257910252    0   0   0
Au       2.126854181   2.126854181   4.257906914    0   0   0
Au       6.380599976   2.126855135   4.257899284    0   0   0
Au      10.634586334   2.126852274   4.257903576    0   0   0
Au       2.126855135   6.380599976   4.257899284    0   0   0
Au       6.380601406   6.380601406   4.257890701    0   0   0
Au      10.634584427   6.380601883   4.257895470    0   0   0
Au       2.126852274  10.634586334   4.257903576    0   0   0
Au       6.380601883  10.634584427   4.257895470    0   0   0
Au      10.634585381  10.634585381   4.257900715    0   0   0
Au       2.126863003  -0.000141616   6.373929977    0   0   0
Au       6.380603790  -0.000142418   6.373934269    0   0   0
Au      10.634494781  -0.000142245   6.373820305    0   0   0
Au      -0.000141616   2.126863003   6.373929977    0   0   0
Au       4.253733158   2.126865625   6.374044418    0   0   0
Au       8.507479668   2.126865625   6.374047279    0   0   0
Au       2.126865625   4.253733158   6.374044418    0   0   0
Au       6.380604744   4.253736019   6.374044895    0   0   0
Au      10.634491920   4.253734589   6.373939037    0   0   0
Au      -0.000142418   6.380603790   6.373934269    0   0   0
Au       4.253736019   6.380604744   6.374044895    0   0   0
Au       8.507478714   6.380605698   6.374047279    0   0   0
Au       2.126865625   8.507479668   6.374047279    0   0   0
Au       6.380605698   8.507478714   6.374047279    0   0   0
Au      10.634491920   8.507480621   6.373938560    0   0   0
Au      -0.000142245  10.634494781   6.373820305    0   0   0
Au       4.253734589  10.634491920   6.373939037    0   0   0
Au       8.507480621  10.634491920   6.373938560    0   0   0



     Writing output data file 0917.save
     Check: negative starting charge=   -1.945178
     NEW-OLD atomic charge density approx. for the potential
     Check: negative starting charge=   -1.945172

     negative rho (up, down):  1.971E+00 0.000E+00

     total cpu time spent up to now is     3014.4 secs

     per-process dynamical memory:   723.4 Mb

     Self-consistent Calculation

     iteration #  1     ecut=    50.00 Ry     beta=0.70
     Davidson diagonalization with overlap
     ethr =  1.00E-06,  avg # of iterations =  4.0

     Threshold (ethr) on eigenvalues was too large:
     Diagonalizing with lowered threshold

     Davidson diagonalization with overlap
     ethr =  6.85E-08,  avg # of iterations =  1.0

     negative rho (up, down):  1.970E+00 0.000E+00

     total cpu time spent up to now is     3206.3 secs

     total energy              =   -7379.98107940 Ry
     Harris-Foulkes estimate   =   -7379.98143692 Ry
     estimated scf accuracy    <       0.00054766 Ry

     iteration #  2     ecut=    50.00 Ry     beta=0.70
     Davidson diagonalization with overlap
     ethr =  6.85E-08,  avg # of iterations =  4.0

     negative rho (up, down):  1.970E+00 0.000E+00

     total cpu time spent up to now is     3312.1 secs

     total energy              =   -7379.98104867 Ry
     Harris-Foulkes estimate   =   -7379.98148007 Ry
     estimated scf accuracy    <       0.00095741 Ry

     iteration #  3     ecut=    50.00 Ry     beta=0.70
     Davidson diagonalization with overlap
     ethr =  6.85E-08,  avg # of iterations =  4.0

     negative rho (up, down):  1.970E+00 0.000E+00

     total cpu time spent up to now is     3414.4 secs

     total energy              =   -7379.98099646 Ry
     Harris-Foulkes estimate   =   -7379.98154246 Ry
     estimated scf accuracy    <       0.00430014 Ry

     iteration #  4     ecut=    50.00 Ry     beta=0.70
     Davidson diagonalization with overlap
     ethr =  6.85E-08,  avg # of iterations =  2.0

     negative rho (up, down):  1.970E+00 0.000E+00

     total cpu time spent up to now is     3502.9 secs

     total energy              =   -7379.98125886 Ry
     Harris-Foulkes estimate   =   -7379.98131454 Ry
     estimated scf accuracy    <       0.00024691 Ry

     iteration #  5     ecut=    50.00 Ry     beta=0.70
     Davidson diagonalization with overlap
     ethr =  3.09E-08,  avg # of iterations =  2.0

     negative rho (up, down):  1.970E+00 0.000E+00

     total cpu time spent up to now is     3589.1 secs

     total energy              =   -7379.98126748 Ry
     Harris-Foulkes estimate   =   -7379.98132296 Ry
     estimated scf accuracy    <       0.00027888 Ry

     iteration #  6     ecut=    50.00 Ry     beta=0.70
     Davidson diagonalization with overlap
     ethr =  3.09E-08,  avg # of iterations =  2.0

     negative rho (up, down):  1.970E+00 0.000E+00

     total cpu time spent up to now is     3675.1 secs

     total energy              =   -7379.98128954 Ry
     Harris-Foulkes estimate   =   -7379.98130161 Ry
     estimated scf accuracy    <       0.00005306 Ry

     iteration #  7     ecut=    50.00 Ry     beta=0.70
     Davidson diagonalization with overlap
     ethr =  6.63E-09,  avg # of iterations =  2.0

     negative rho (up, down):  1.970E+00 0.000E+00

     total cpu time spent up to now is     3761.1 secs

     total energy              =   -7379.98129531 Ry
     Harris-Foulkes estimate   =   -7379.98129706 Ry
     estimated scf accuracy    <       0.00000567 Ry

     iteration #  8     ecut=    50.00 Ry     beta=0.70
     Davidson diagonalization with overlap
     ethr =  7.09E-10,  avg # of iterations =  3.0

     negative rho (up, down):  1.970E+00 0.000E+00

     total cpu time spent up to now is     3858.1 secs

     total energy              =   -7379.98129606 Ry
     Harris-Foulkes estimate   =   -7379.98129693 Ry
     estimated scf accuracy    <       0.00000305 Ry

     iteration #  9     ecut=    50.00 Ry     beta=0.70
     Davidson diagonalization with overlap
     ethr =  3.82E-10,  avg # of iterations =  2.0

     negative rho (up, down):  1.970E+00 0.000E+00

     total cpu time spent up to now is     3946.8 secs

     total energy              =   -7379.98129635 Ry
     Harris-Foulkes estimate   =   -7379.98129675 Ry
     estimated scf accuracy    <       0.00000153 Ry

     iteration # 10     ecut=    50.00 Ry     beta=0.70
     Davidson diagonalization with overlap
     ethr =  1.91E-10,  avg # of iterations =  2.0

     negative rho (up, down):  1.970E+00 0.000E+00

     total cpu time spent up to now is     4032.7 secs

     total energy              =   -7379.98129653 Ry
     Harris-Foulkes estimate   =   -7379.98129659 Ry
     estimated scf accuracy    <       0.00000017 Ry

     iteration # 11     ecut=    50.00 Ry     beta=0.70
     Davidson diagonalization with overlap
     ethr =  2.13E-11,  avg # of iterations =  3.0

     negative rho (up, down):  1.970E+00 0.000E+00

     total cpu time spent up to now is     4129.2 secs

     total energy              =   -7379.98129655 Ry
     Harris-Foulkes estimate   =   -7379.98129657 Ry
     estimated scf accuracy    <       0.00000005 Ry

     iteration # 12     ecut=    50.00 Ry     beta=0.70
     Davidson diagonalization with overlap
     ethr =  6.08E-12,  avg # of iterations =  3.0

     negative rho (up, down):  1.970E+00 0.000E+00

     total cpu time spent up to now is     4231.0 secs

     total energy              =   -7379.98129656 Ry
     Harris-Foulkes estimate   =   -7379.98129657 Ry
     estimated scf accuracy    <       0.00000008 Ry

     iteration # 13     ecut=    50.00 Ry     beta=0.70
     Davidson diagonalization with overlap
     ethr =  6.08E-12,  avg # of iterations =  2.0

     negative rho (up, down):  1.970E+00 0.000E+00

     total cpu time spent up to now is     4318.0 secs

     total energy              =   -7379.98129656 Ry
     Harris-Foulkes estimate   =   -7379.98129657 Ry
     estimated scf accuracy    <       0.00000004 Ry

     iteration # 14     ecut=    50.00 Ry     beta=0.70
     Davidson diagonalization with overlap
     ethr =  4.57E-12,  avg # of iterations =  2.0

     negative rho (up, down):  1.970E+00 0.000E+00

     total cpu time spent up to now is     4403.4 secs

     End of self-consistent calculation

          k = 0.2500 0.2500 0.0833 (167653 PWs)   bands (ev):

   -19.3790  -7.2462  -6.8323  -6.3043  -6.3025  -5.8659  -5.4623  -5.3643
    -5.3635  -5.1423  -5.1417  -5.0463  -5.0442  -4.9123  -4.9038  -4.7948
    -4.7066  -4.7017  -4.6810  -4.6805  -4.5005  -4.4987  -4.4981  -4.4737
    -4.4680  -4.4669  -4.4626  -4.4126  -4.4098  -4.4077  -4.4070  -4.3433
    -4.3163  -4.3147  -4.2597  -4.2552  -4.2538  -4.2187  -4.2174  -4.2039
    -4.1989  -4.1814  -4.1802  -4.1449  -4.1114  -4.1111  -4.1084  -4.1047
    -4.1045  -4.0781  -4.0469  -4.0442  -4.0151  -4.0145  -4.0126  -4.0102
    -4.0095  -4.0023  -3.9726  -3.9703  -3.9177  -3.9098  -3.8790  -3.8540
    -3.8463  -3.8416  -3.8401  -3.8210  -3.8177  -3.8071  -3.7588  -3.7565
    -3.7509  -3.7501  -3.6861  -3.6648  -3.6581  -3.6423  -3.6326  -3.6083
    -3.6025  -3.5874  -3.5676  -3.5630  -3.5226  -3.5218  -3.5199  -3.5149
    -3.4963  -3.4944  -3.4165  -3.4139  -3.4124  -3.3970  -3.3845  -3.3818
    -3.3679  -3.3671  -3.3610  -3.3601  -3.3180  -3.3174  -3.2968  -3.2948
    -3.2597  -3.2576  -3.2331  -3.2117  -3.2100  -3.1653  -3.1640  -3.1322
    -3.1055  -3.1038  -3.1027  -3.1024  -3.0982  -3.0978  -3.0737  -3.0612
    -3.0244  -3.0240  -3.0033  -2.9792  -2.9768  -2.9752  -2.9697  -2.9684
    -2.9650  -2.9647  -2.9309  -2.9290  -2.9283  -2.9236  -2.9221  -2.9182
    -2.8623  -2.8591  -2.8532  -2.8523  -2.8317  -2.8308  -2.8263  -2.7361
    -2.7275  -2.7257  -2.7190  -2.7159  -2.7116  -2.7099  -2.7091  -2.7007
    -2.6996  -2.6916  -2.6824  -2.6817  -2.6787  -2.6740  -2.6649  -2.6608
    -2.6567  -2.6363  -2.6264  -2.6238  -2.6094  -2.6083  -2.5926  -2.5916
    -2.5826  -2.5821  -2.5614  -2.5519  -2.5495  -2.5463  -2.5444  -2.5134
    -2.5085  -2.5072  -2.4498  -2.4452  -2.4345  -2.4324  -2.4215  -2.4184
    -2.3960  -2.3938  -2.3886  -2.3816  -2.3774  -2.3703  -2.3641  -2.3497
    -2.3472  -2.3236  -2.3217  -2.3121  -2.3108  -2.3013  -2.3006  -2.2893
    -2.2726  -2.2523  -2.1906  -2.1808  -2.1604  -2.1592  -2.1558  -2.1485
    -2.1088  -2.0969  -2.0891  -2.0636  -2.0531  -2.0519  -2.0323  -2.0175
    -2.0136  -2.0024  -2.0005  -1.9864  -1.9638  -1.9627  -1.9522  -1.9503
    -1.9477  -1.9452  -1.9343  -1.9171  -1.9153  -1.9105  -1.9095  -1.9074
    -1.9060  -1.9044  -1.8920  -1.8839  -1.8715  -1.8698  -1.8641  -1.8518
    -1.8499  -1.8481  -1.8473  -1.8421  -1.8381  -1.8193  -1.8026  -1.7656
    -1.7452  -1.7402  -1.7299  -1.6956  -1.6934  -1.6925  -1.6841  -1.6788
    -1.6690  -1.6676  -1.6618  -1.6526  -1.6505  -1.6319  -1.6306  -1.6061
    -1.5932  -1.5877  -1.5750  -1.5541  -1.5450  -1.5160  -1.5093  -1.4640
    -1.4595  -1.4412  -1.4233  -1.4172  -1.4151  -1.4104  -1.4076  -1.3956
    -1.3894  -1.3891  -1.3886  -1.3875  -1.3865  -1.3846  -1.3825  -1.3623
    -1.3576  -1.3455  -1.3246  -1.3232  -1.3225  -1.3009  -1.2999  -1.2954
    -1.2948  -1.2902  -1.2702  -1.2554  -1.2473  -1.2295  -1.2279  -1.2090
    -1.2063  -1.1958  -1.1905  -1.1693  -1.1668  -1.1612  -1.1481  -1.1223
    -1.1185  -1.1105  -1.1099  -1.1077  -1.0972  -1.0819  -1.0814  -1.0695
    -1.0618  -1.0602  -1.0495  -1.0482  -1.0470  -1.0406  -1.0367  -1.0252
    -1.0242  -1.0173  -1.0167  -1.0104  -1.0064  -0.9917  -0.9885  -0.9502
    -0.9487  -0.9468  -0.9455  -0.9393  -0.9351  -0.9124  -0.9012  -0.8988
    -0.8794  -0.8744  -0.8714  -0.8687  -0.8633  -0.8541  -0.8434  -0.8189
    -0.8156  -0.8071  -0.8055  -0.7869  -0.7863  -0.7714  -0.7483  -0.7392
    -0.7231  -0.7207  -0.6841  -0.6834  -0.6813  -0.6788  -0.6768  -0.6732
    -0.6719  -0.6698  -0.6657  -0.6654  -0.6347  -0.6335  -0.6313  -0.6298
    -0.6283  -0.6185  -0.6150  -0.5964  -0.5872  -0.3294  -0.3163  -0.2727
    -0.2583  -0.2400  -0.1775  -0.0303  -0.0295   0.0095   0.2844   0.2901
     0.6253   0.6315   0.6692   0.6720   0.7194   0.7243   0.8788   0.8875
     1.0067   1.0099   1.1273   1.6187   1.6576   1.6655   1.7012   1.7018
     1.8353   1.8430   1.8942   1.8982   2.0766   2.0791   2.3585   2.3879
     2.3924   2.4115   2.8402   2.8467   2.8672   2.8686   2.8856   2.8866
     2.9510   2.9522   3.1016   3.2255   3.2293   3.4141   3.4180   3.5255
     3.5955   3.5973   3.8887   3.8968   3.9488   3.9558   3.9573   4.0903
     4.1031   4.1121   4.1317   4.3963   4.3993   4.4350   4.4373   4.5459
     4.5497   4.6131   4.6199   4.8854   5.4430   5.4926   5.5101   5.5816
     5.6654   5.7028   5.7076   5.7779   5.7795   5.7962   5.7994   5.8717
     5.9040   5.9234   6.0848   6.1759   6.1956   6.2017   6.2052   6.2118
     6.2143   6.2263   6.3261   6.3723   6.3894   6.4058   6.4829   6.5226

          k = 0.2500 0.2500-0.2500 (167588 PWs)   bands (ev):

   -19.3790  -7.2462  -6.8323  -6.3043  -6.3025  -5.8659  -5.4623  -5.3643
    -5.3635  -5.1423  -5.1417  -5.0462  -5.0442  -4.9123  -4.9038  -4.7948
    -4.7065  -4.7017  -4.6810  -4.6805  -4.5005  -4.4987  -4.4981  -4.4737
    -4.4680  -4.4669  -4.4626  -4.4126  -4.4098  -4.4077  -4.4070  -4.3433
    -4.3163  -4.3147  -4.2597  -4.2552  -4.2538  -4.2187  -4.2174  -4.2039
    -4.1989  -4.1814  -4.1802  -4.1449  -4.1114  -4.1111  -4.1084  -4.1047
    -4.1045  -4.0781  -4.0469  -4.0442  -4.0151  -4.0144  -4.0126  -4.0102
    -4.0096  -4.0023  -3.9726  -3.9703  -3.9177  -3.9098  -3.8790  -3.8540
    -3.8462  -3.8416  -3.8401  -3.8210  -3.8177  -3.8071  -3.7588  -3.7565
    -3.7508  -3.7501  -3.6861  -3.6648  -3.6581  -3.6423  -3.6326  -3.6083
    -3.6025  -3.5874  -3.5676  -3.5630  -3.5226  -3.5218  -3.5199  -3.5149
    -3.4963  -3.4944  -3.4165  -3.4139  -3.4124  -3.3970  -3.3845  -3.3818
    -3.3679  -3.3671  -3.3610  -3.3601  -3.3180  -3.3174  -3.2968  -3.2948
    -3.2597  -3.2576  -3.2331  -3.2117  -3.2100  -3.1653  -3.1640  -3.1322
    -3.1055  -3.1038  -3.1027  -3.1024  -3.0982  -3.0978  -3.0737  -3.0612
    -3.0244  -3.0240  -3.0033  -2.9792  -2.9767  -2.9752  -2.9697  -2.9684
    -2.9650  -2.9647  -2.9309  -2.9290  -2.9283  -2.9236  -2.9220  -2.9182
    -2.8623  -2.8591  -2.8532  -2.8523  -2.8317  -2.8308  -2.8263  -2.7361
    -2.7275  -2.7257  -2.7190  -2.7159  -2.7116  -2.7099  -2.7091  -2.7007
    -2.6996  -2.6916  -2.6824  -2.6817  -2.6786  -2.6740  -2.6649  -2.6608
    -2.6567  -2.6363  -2.6264  -2.6238  -2.6094  -2.6083  -2.5926  -2.5916
    -2.5826  -2.5820  -2.5614  -2.5519  -2.5495  -2.5463  -2.5444  -2.5134
    -2.5085  -2.5072  -2.4498  -2.4452  -2.4345  -2.4324  -2.4215  -2.4184
    -2.3960  -2.3938  -2.3886  -2.3816  -2.3774  -2.3703  -2.3641  -2.3497
    -2.3471  -2.3236  -2.3217  -2.3121  -2.3108  -2.3013  -2.3006  -2.2893
    -2.2726  -2.2524  -2.1906  -2.1808  -2.1604  -2.1592  -2.1558  -2.1485
    -2.1088  -2.0969  -2.0891  -2.0636  -2.0531  -2.0519  -2.0323  -2.0175
    -2.0136  -2.0024  -2.0005  -1.9864  -1.9638  -1.9627  -1.9521  -1.9503
    -1.9477  -1.9452  -1.9343  -1.9171  -1.9153  -1.9105  -1.9095  -1.9074
    -1.9060  -1.9044  -1.8921  -1.8839  -1.8715  -1.8698  -1.8641  -1.8518
    -1.8499  -1.8481  -1.8473  -1.8421  -1.8381  -1.8193  -1.8026  -1.7656
    -1.7452  -1.7402  -1.7299  -1.6956  -1.6934  -1.6925  -1.6841  -1.6788
    -1.6690  -1.6676  -1.6618  -1.6526  -1.6505  -1.6319  -1.6305  -1.6061
    -1.5932  -1.5877  -1.5750  -1.5541  -1.5450  -1.5160  -1.5093  -1.4640
    -1.4595  -1.4412  -1.4233  -1.4172  -1.4151  -1.4104  -1.4076  -1.3956
    -1.3894  -1.3891  -1.3886  -1.3875  -1.3865  -1.3846  -1.3825  -1.3623
    -1.3576  -1.3455  -1.3246  -1.3232  -1.3225  -1.3009  -1.2999  -1.2954
    -1.2948  -1.2902  -1.2702  -1.2554  -1.2473  -1.2295  -1.2279  -1.2090
    -1.2063  -1.1958  -1.1905  -1.1693  -1.1668  -1.1612  -1.1481  -1.1223
    -1.1185  -1.1105  -1.1099  -1.1077  -1.0972  -1.0819  -1.0814  -1.0695
    -1.0618  -1.0602  -1.0495  -1.0482  -1.0470  -1.0406  -1.0367  -1.0252
    -1.0242  -1.0173  -1.0167  -1.0104  -1.0064  -0.9917  -0.9885  -0.9502
    -0.9487  -0.9468  -0.9455  -0.9393  -0.9351  -0.9124  -0.9012  -0.8988
    -0.8794  -0.8744  -0.8714  -0.8687  -0.8633  -0.8541  -0.8434  -0.8189
    -0.8156  -0.8071  -0.8055  -0.7869  -0.7863  -0.7714  -0.7483  -0.7392
    -0.7230  -0.7207  -0.6841  -0.6834  -0.6813  -0.6788  -0.6768  -0.6732
    -0.6719  -0.6698  -0.6657  -0.6654  -0.6347  -0.6335  -0.6313  -0.6298
    -0.6283  -0.6185  -0.6150  -0.5964  -0.5872  -0.3294  -0.3163  -0.2727
    -0.2583  -0.2400  -0.1775  -0.0303  -0.0295   0.0095   0.2844   0.2901
     0.6253   0.6315   0.6692   0.6720   0.7194   0.7243   0.8788   0.8875
     1.0067   1.0099   1.1273   1.6187   1.6576   1.6655   1.7012   1.7018
     1.8353   1.8430   1.8942   1.8982   2.0766   2.0791   2.3585   2.3879
     2.3924   2.4115   2.8402   2.8467   2.8672   2.8686   2.8856   2.8866
     2.9510   2.9522   3.1016   3.2255   3.2293   3.4141   3.4180   3.5255
     3.5955   3.5973   3.8887   3.8968   3.9488   3.9558   3.9573   4.0903
     4.1031   4.1121   4.1317   4.3963   4.3992   4.4350   4.4373   4.5459
     4.5497   4.6131   4.6199   4.8854   5.4398   5.4926   5.5092   5.5817
     5.6488   5.7024   5.7073   5.7770   5.7793   5.7962   5.7991   5.8637
     5.9061   5.9615   6.1425   6.1581   6.1815   6.1959   6.2021   6.2057
     6.2133   6.2248   6.3154   6.3726   6.3954   6.4767   6.5186   6.5454

          k =-0.2500-0.2500 0.0833 (167653 PWs)   bands (ev):

   -19.3790  -7.2462  -6.8323  -6.3043  -6.3025  -5.8659  -5.4623  -5.3643
    -5.3635  -5.1423  -5.1417  -5.0463  -5.0442  -4.9123  -4.9038  -4.7948
    -4.7066  -4.7017  -4.6810  -4.6805  -4.5005  -4.4987  -4.4981  -4.4737
    -4.4680  -4.4669  -4.4626  -4.4126  -4.4098  -4.4077  -4.4070  -4.3433
    -4.3163  -4.3147  -4.2597  -4.2552  -4.2538  -4.2187  -4.2174  -4.2039
    -4.1989  -4.1814  -4.1802  -4.1449  -4.1114  -4.1111  -4.1084  -4.1047
    -4.1045  -4.0781  -4.0469  -4.0442  -4.0151  -4.0145  -4.0126  -4.0102
    -4.0095  -4.0023  -3.9726  -3.9703  -3.9177  -3.9098  -3.8790  -3.8540
    -3.8463  -3.8416  -3.8401  -3.8210  -3.8177  -3.8071  -3.7588  -3.7565
    -3.7509  -3.7501  -3.6861  -3.6648  -3.6581  -3.6423  -3.6326  -3.6083
    -3.6025  -3.5874  -3.5676  -3.5630  -3.5226  -3.5218  -3.5199  -3.5149
    -3.4963  -3.4944  -3.4165  -3.4139  -3.4124  -3.3970  -3.3845  -3.3818
    -3.3679  -3.3671  -3.3610  -3.3601  -3.3180  -3.3174  -3.2968  -3.2948
    -3.2597  -3.2576  -3.2331  -3.2117  -3.2100  -3.1653  -3.1640  -3.1322
    -3.1055  -3.1038  -3.1027  -3.1024  -3.0982  -3.0978  -3.0737  -3.0612
    -3.0244  -3.0240  -3.0033  -2.9792  -2.9768  -2.9752  -2.9697  -2.9684
    -2.9650  -2.9647  -2.9309  -2.9290  -2.9283  -2.9236  -2.9221  -2.9182
    -2.8623  -2.8591  -2.8532  -2.8523  -2.8317  -2.8308  -2.8263  -2.7361
    -2.7275  -2.7257  -2.7190  -2.7159  -2.7116  -2.7099  -2.7091  -2.7007
    -2.6996  -2.6916  -2.6824  -2.6817  -2.6787  -2.6740  -2.6649  -2.6608
    -2.6567  -2.6363  -2.6264  -2.6238  -2.6094  -2.6083  -2.5926  -2.5916
    -2.5826  -2.5821  -2.5614  -2.5519  -2.5495  -2.5463  -2.5444  -2.5134
    -2.5085  -2.5072  -2.4498  -2.4452  -2.4345  -2.4324  -2.4215  -2.4184
    -2.3960  -2.3938  -2.3886  -2.3816  -2.3774  -2.3703  -2.3641  -2.3497
    -2.3472  -2.3236  -2.3217  -2.3121  -2.3108  -2.3013  -2.3006  -2.2893
    -2.2726  -2.2523  -2.1906  -2.1808  -2.1604  -2.1592  -2.1558  -2.1485
    -2.1088  -2.0969  -2.0891  -2.0636  -2.0531  -2.0519  -2.0323  -2.0175
[...]
     1.0600   1.0629   1.1792   1.6705   1.7091   1.7183   1.7536   1.7548
     1.8731   1.9016   1.9434   1.9634   2.1276   2.1342   2.4115   2.4353
     2.4559   2.4633   2.8821   2.9066   2.9203   2.9267   2.9373   2.9409
     3.0030   3.0046   3.1333   3.2728   3.2921   3.4692   3.4771   3.5790
     3.6463   3.6603   3.9404   3.9531   4.0059   4.0092   4.0161   4.1055
     4.1519   4.1561   4.1805   4.4499   4.4526   4.4806   4.4907   4.5998
     4.6055   4.6584   4.6976   4.9042   5.2859   5.5459   5.5526   5.6141
     5.6541   5.7525   5.7659   5.8134   5.8348   5.8437   5.8459   5.8598
     5.9319   5.9541   6.0417   6.1834   6.2298   6.2455   6.2532   6.2577
     6.2637   6.2693   6.3063   6.3743   6.3887   6.4214   6.4830   6.5560

          k =-0.2500 0.2500 0.2500 (167588 PWs)   bands (ev):

   -20.0409  -7.7799  -6.7818  -6.2526  -6.2504  -5.8132  -5.4124  -5.3121
    -5.3103  -5.0894  -5.0890  -4.9966  -4.9937  -4.8605  -4.8506  -4.7419
    -4.6533  -4.6498  -4.6306  -4.6277  -4.4477  -4.4463  -4.4443  -4.4256
    -4.4150  -4.4147  -4.4096  -4.3671  -4.3589  -4.3551  -4.3534  -4.2901
    -4.2728  -4.2618  -4.2191  -4.2070  -4.2018  -4.1994  -4.1661  -4.1636
    -4.1505  -4.1457  -4.1271  -4.1233  -4.0921  -4.0579  -4.0571  -4.0547
    -4.0523  -4.0505  -4.0224  -3.9925  -3.9876  -3.9622  -3.9604  -3.9575
    -3.9572  -3.9518  -3.9487  -3.9209  -3.9164  -3.8587  -3.8547  -3.8255
    -3.7984  -3.7915  -3.7881  -3.7874  -3.7648  -3.7642  -3.7540  -3.7037
    -3.7021  -3.6980  -3.6964  -3.6142  -3.6110  -3.5915  -3.5888  -3.5567
    -3.5546  -3.5379  -3.5145  -3.5127  -3.4701  -3.4683  -3.4677  -3.4668
    -3.4435  -3.4414  -3.3655  -3.3615  -3.3600  -3.3446  -3.3331  -3.3282
    -3.3151  -3.3140  -3.3084  -3.3077  -3.2668  -3.2635  -3.2443  -3.2421
    -3.2077  -3.2049  -3.1799  -3.1604  -3.1575  -3.1122  -3.1111  -3.0795
    -3.0528  -3.0506  -3.0500  -3.0493  -3.0463  -3.0449  -3.0216  -3.0081
    -2.9733  -2.9706  -2.9515  -2.9261  -2.9245  -2.9228  -2.9173  -2.9158
    -2.9124  -2.9116  -2.8789  -2.8767  -2.8756  -2.8728  -2.8693  -2.8650
    -2.8124  -2.8062  -2.8044  -2.7996  -2.7789  -2.7776  -2.7733  -2.7042
    -2.6817  -2.6742  -2.6719  -2.6647  -2.6628  -2.6571  -2.6561  -2.6503
    -2.6469  -2.6438  -2.6373  -2.6288  -2.6256  -2.6210  -2.6123  -2.6094
    -2.6039  -2.5870  -2.5766  -2.5718  -2.5595  -2.5555  -2.5451  -2.5388
    -2.5303  -2.5293  -2.5243  -2.5082  -2.4970  -2.4966  -2.4903  -2.4670
    -2.4558  -2.4543  -2.4396  -2.3959  -2.3920  -2.3783  -2.3748  -2.3666
    -2.3522  -2.3404  -2.3393  -2.3350  -2.3239  -2.3179  -2.3138  -2.3075
    -2.2968  -2.2882  -2.2677  -2.2659  -2.2587  -2.2555  -2.2477  -2.2468
    -2.2234  -2.2122  -2.1813  -2.1298  -2.1234  -2.1066  -2.1060  -2.0954
    -2.0855  -2.0468  -2.0440  -2.0328  -2.0099  -1.9987  -1.9971  -1.9789
    -1.9614  -1.9593  -1.9477  -1.9351  -1.9160  -1.9112  -1.9076  -1.8988
    -1.8968  -1.8928  -1.8906  -1.8769  -1.8627  -1.8561  -1.8557  -1.8550
    -1.8543  -1.8525  -1.8461  -1.8382  -1.8191  -1.8179  -1.8152  -1.8094
    -1.7978  -1.7956  -1.7931  -1.7927  -1.7861  -1.7839  -1.7508  -1.7414
    -1.7032  -1.6883  -1.6829  -1.6417  -1.6411  -1.6407  -1.6298  -1.6294
    -1.6160  -1.6149  -1.6089  -1.6062  -1.5982  -1.5953  -1.5774  -1.5719
    -1.5409  -1.5346  -1.5219  -1.5016  -1.4974  -1.4626  -1.4584  -1.4111
    -1.4097  -1.3882  -1.3656  -1.3631  -1.3626  -1.3583  -1.3552  -1.3394
    -1.3391  -1.3379  -1.3362  -1.3356  -1.3343  -1.3333  -1.3306  -1.3138
    -1.3042  -1.2969  -1.2720  -1.2704  -1.2691  -1.2483  -1.2471  -1.2438
    -1.2423  -1.2397  -1.2221  -1.2019  -1.1961  -1.1779  -1.1762  -1.1604
    -1.1558  -1.1441  -1.1345  -1.1156  -1.1143  -1.1087  -1.1014  -1.0699
    -1.0675  -1.0575  -1.0567  -1.0551  -1.0445  -1.0300  -1.0286  -1.0160
    -1.0084  -1.0056  -0.9968  -0.9958  -0.9939  -0.9873  -0.9830  -0.9734
    -0.9714  -0.9649  -0.9642  -0.9587  -0.9547  -0.9401  -0.9346  -0.8957
    -0.8954  -0.8943  -0.8932  -0.8863  -0.8794  -0.8594  -0.8484  -0.8457
    -0.8285  -0.8242  -0.8187  -0.8138  -0.8104  -0.8012  -0.7893  -0.7675
    -0.7561  -0.7541  -0.7466  -0.7343  -0.7318  -0.7184  -0.6947  -0.6865
    -0.6690  -0.6672  -0.6315  -0.6311  -0.6296  -0.6257  -0.6209  -0.6202
    -0.6192  -0.6181  -0.6134  -0.6126  -0.5816  -0.5805  -0.5795  -0.5777
    -0.5771  -0.5651  -0.5624  -0.5363  -0.5284  -0.2766  -0.2632  -0.2241
    -0.1967  -0.1829  -0.1315   0.0213   0.0231   0.0658   0.3359   0.3464
     0.6730   0.6938   0.7215   0.7234   0.7698   0.7759   0.9264   0.9494
     1.0600   1.0629   1.1792   1.6705   1.7091   1.7183   1.7536   1.7548
     1.8731   1.9016   1.9434   1.9634   2.1276   2.1342   2.4115   2.4353
     2.4559   2.4633   2.8821   2.9066   2.9203   2.9267   2.9373   2.9409
     3.0030   3.0046   3.1333   3.2728   3.2921   3.4692   3.4771   3.5790
     3.6463   3.6603   3.9404   3.9531   4.0059   4.0092   4.0161   4.1055
     4.1519   4.1561   4.1805   4.4499   4.4526   4.4806   4.4907   4.5998
     4.6055   4.6584   4.6976   4.9043   5.2826   5.5458   5.5525   5.6128
     5.6485   5.7523   5.7659   5.7999   5.8335   5.8437   5.8460   5.8560
     5.9506   5.9626   6.1201   6.1333   6.2287   6.2432   6.2509   6.2553
     6.2621   6.2678   6.2825   6.4014   6.4195   6.4888   6.5067   6.5531

     the Fermi energy is     1.0066 ev

!    total energy              =   -7379.98911904 Ry
     Harris-Foulkes estimate   =   -7379.98911904 Ry
     estimated scf accuracy    <          4.3E-11 Ry

     The total energy is the sum of the following terms:

     one-electron contribution =  -48826.49683915 Ry
     hartree contribution      =   24964.09134003 Ry
     xc contribution           =   -3556.24478778 Ry
     ewald contribution        =   20038.65998459 Ry
     smearing contrib. (-TS)   =       0.00118327 Ry

     convergence has been achieved in  18 iterations

     negative rho (up, down):  1.970E+00 0.000E+00

     Forces acting on atoms (Ry/au):

     atom    1 type  3   force =     0.00211564   -0.00147700    0.00083937
     atom    2 type  2   force =    -0.00191728    0.00144806   -0.00204075
     atom    3 type  2   force =     0.00096788   -0.00001844   -0.00028735
     atom    4 type  1   force =    -0.00035046   -0.00021449    0.01837188
     atom    5 type  1   force =    -0.00002723   -0.00022903    0.01863341
     atom    6 type  1   force =     0.00008609   -0.00019526    0.01818904
     atom    7 type  1   force =     0.00012129   -0.00002581    0.01808183
     atom    8 type  1   force =    -0.00009145    0.00001182    0.01814115
     atom    9 type  1   force =     0.00021211   -0.00013442    0.01815762
     atom   10 type  1   force =    -0.00023763    0.00012884    0.01823266
     atom   11 type  1   force =     0.00001130   -0.00015987    0.01805128
     atom   12 type  1   force =    -0.00000149    0.00011451    0.01799535
     atom   13 type  1   force =    -0.00016121    0.00001706    0.01804890
     atom   14 type  1   force =     0.00017501   -0.00001192    0.01795540
     atom   15 type  1   force =     0.00021276   -0.00002866    0.01861882
     atom   16 type  1   force =    -0.00020417   -0.00010340    0.01832288
     atom   17 type  1   force =    -0.00001548    0.00017518    0.01795532
     atom   18 type  1   force =    -0.00000395   -0.00009064    0.01803568
     atom   19 type  1   force =     0.00012825    0.00021541    0.01817312
     atom   20 type  1   force =    -0.00010111    0.00021223    0.01818434
     atom   21 type  1   force =     0.00023326    0.00030222    0.01839698
     atom   22 type  1   force =    -0.00035811   -0.00039428   -0.00261717
     atom   23 type  1   force =     0.00026977   -0.00047686   -0.00262820
     atom   24 type  1   force =     0.00037865   -0.00034469   -0.00217473
     atom   25 type  1   force =    -0.00047243   -0.00010928   -0.00235195
     atom   26 type  1   force =     0.00001378    0.00045242   -0.00233036
     atom   27 type  1   force =     0.00019475   -0.00006533   -0.00240595
     atom   28 type  1   force =    -0.00002880    0.00004051   -0.00252633
     atom   29 type  1   force =     0.00005152    0.00010923   -0.00258957
     atom   30 type  1   force =     0.00041101   -0.00031928   -0.00260215
     atom   31 type  1   force =     0.00011094    0.00001476   -0.00234383
     atom   32 type  1   force =     0.00002708    0.00005898   -0.00299858
     atom   33 type  1   force =    -0.00071338    0.00003851   -0.00232877
     atom   34 type  1   force =     0.00006987    0.00008095   -0.00266811
     atom   35 type  1   force =    -0.00005002    0.00001604   -0.00274050
     atom   36 type  1   force =     0.00031914    0.00029550   -0.00264046
     atom   37 type  1   force =    -0.00038266    0.00049900   -0.00242644
     atom   38 type  1   force =     0.00003375   -0.00038832   -0.00232233
     atom   39 type  1   force =     0.00007915    0.00042954   -0.00242748
     atom   40 type  1   force =    -0.00026862   -0.00036402    0.00139546
     atom   41 type  1   force =     0.00003668   -0.00041493    0.00148802
     atom   42 type  1   force =    -0.00000223   -0.00035274    0.00142922
     atom   43 type  1   force =    -0.00057017    0.00011147    0.00102734
     atom   44 type  1   force =     0.00003193    0.00087907    0.00162084
     atom   45 type  1   force =     0.00032900    0.00009532    0.00115646
     atom   46 type  1   force =    -0.00053876   -0.00003985    0.00117931
     atom   47 type  1   force =     0.00003189   -0.00133137    0.00265285
     atom   48 type  1   force =     0.00020336   -0.00007540    0.00140949
     atom   49 type  1   force =     0.00004540   -0.00030331    0.00103069
     atom   50 type  1   force =    -0.00002400   -0.00033271    0.00105224
     atom   51 type  1   force =     0.00028994    0.00002561    0.00140626
     atom   52 type  1   force =     0.00082026    0.00010150    0.00174657
     atom   53 type  1   force =    -0.00133151    0.00010169    0.00255511
     atom   54 type  1   force =     0.00025041    0.00003178    0.00149238
     atom   55 type  1   force =     0.00006918    0.00055932    0.00124488
     atom   56 type  1   force =    -0.00010832    0.00050651    0.00136900
     atom   57 type  1   force =     0.00030379    0.00030533    0.00142312
     atom   58 type  1   force =    -0.00007307   -0.00015457   -0.01706473
     atom   59 type  1   force =     0.00006979   -0.00015086   -0.01705181
     atom   60 type  1   force =     0.00024834   -0.00015479   -0.01728758
     atom   61 type  1   force =    -0.00028764   -0.00010356   -0.01689359
     atom   62 type  1   force =    -0.00004994    0.00048178   -0.01640329
     atom   63 type  1   force =     0.00010320   -0.00014371   -0.01684062
     atom   64 type  1   force =    -0.00210376   -0.00216959   -0.01813269
     atom   65 type  1   force =     0.00138223   -0.00156383   -0.01790847
     atom   66 type  1   force =     0.00022008   -0.00007782   -0.01704273
     atom   67 type  1   force =     0.00007947   -0.00009935   -0.01690312
     atom   68 type  1   force =     0.00006773    0.00126654   -0.01372052
     atom   69 type  1   force =     0.00000393   -0.00008019   -0.01718666
     atom   70 type  1   force =    -0.00148042    0.00146692   -0.01821529
     atom   71 type  1   force =     0.00119217    0.00118263   -0.01811125
     atom   72 type  1   force =     0.00023155    0.00008085   -0.01707474
     atom   73 type  1   force =    -0.00035041    0.00029837   -0.01720685
     atom   74 type  1   force =    -0.00006659    0.00023104   -0.01740869
     atom   75 type  1   force =     0.00013901    0.00031309   -0.01716067

     Total force =     0.004280     Total SCF correction =     0.000002

     number of scf cycles    =  50
     number of bfgs steps    =  46

     energy   old            =   -7379.9890717733 Ry
     energy   new            =   -7379.9891190446 Ry

     CASE: energy  _new < energy  _old

     new trust radius        =       0.0651145291 bohr
     new conv_thr            =            1.0E-10 Ry


ATOMIC_POSITIONS (angstrom)
O        4.064471127   6.068206434   9.066717737
H        3.121289142   6.117270847   9.312708679
H        4.266236658   5.111916206   9.074319615
Au       0.000000000   0.000000000   0.000000000    0   0   0
Au       4.253737926   0.000000000   0.000000000    0   0   0
Au       8.507475853   0.000000000   0.000000000    0   0   0
Au       2.126868963   2.126868963   0.000000000    0   0   0
Au       6.380607128   2.126868963   0.000000000    0   0   0
Au      10.634344101   2.126868963   0.000000000    0   0   0
Au       0.000000000   4.253737926   0.000000000    0   0   0
Au       4.253737926   4.253737926   0.000000000    0   0   0
Au       8.507475853   4.253737926   0.000000000    0   0   0
Au       2.126868963   6.380607128   0.000000000    0   0   0
Au       6.380607128   6.380607128   0.000000000    0   0   0
Au      10.634344101   6.380607128   0.000000000    0   0   0
Au       0.000000000   8.507475853   0.000000000    0   0   0
Au       4.253737926   8.507475853   0.000000000    0   0   0
Au       8.507475853   8.507475853   0.000000000    0   0   0
Au       2.126868963  10.634344101   0.000000000    0   0   0
Au       6.380607128  10.634344101   0.000000000    0   0   0
Au      10.634344101  10.634344101   0.000000000    0   0   0
Au       2.126868963   0.000000000   2.126868963    0   0   0
Au       6.380607128   0.000000000   2.126868963    0   0   0
Au      10.634344101   0.000000000   2.126868963    0   0   0
Au       0.000000000   2.126868963   2.126868963    0   0   0
Au       4.253737926   2.126868963   2.126868963    0   0   0
Au       8.507475853   2.126868963   2.126868963    0   0   0
Au       2.126868963   4.253737926   2.126868963    0   0   0
Au       6.380607128   4.253737926   2.126868963    0   0   0
Au      10.634344101   4.253737926   2.126868963    0   0   0
Au       0.000000000   6.380607128   2.126868963    0   0   0
Au       4.253737926   6.380607128   2.126868963    0   0   0
Au       8.507475853   6.380607128   2.126868963    0   0   0
Au       2.126868963   8.507475853   2.126868963    0   0   0
Au       6.380607128   8.507475853   2.126868963    0   0   0
Au      10.634344101   8.507475853   2.126868963    0   0   0
Au       0.000000000  10.634344101   2.126868963    0   0   0
Au       4.253737926  10.634344101   2.126868963    0   0   0
Au       8.507475853  10.634344101   2.126868963    0   0   0
Au      -0.000231899  -0.000231899   4.257900238    0   0   0
Au       4.253734589  -0.000230451   4.257893562    0   0   0
Au       8.507492065  -0.000233495   4.257904530    0   0   0
Au      -0.000230451   4.253734589   4.257893562    0   0   0
Au       4.253735065   4.253735065   4.257887840    0   0   0
Au       8.507489204   4.253735542   4.257899761    0   0   0
Au      -0.000233495   8.507492065   4.257904530    0   0   0
Au       4.253735542   8.507489204   4.257899761    0   0   0
Au       8.507491112   8.507491112   4.257910252    0   0   0
Au       2.126854181   2.126854181   4.257906914    0   0   0
Au       6.380599976   2.126855135   4.257899284    0   0   0
Au      10.634586334   2.126852274   4.257903576    0   0   0
Au       2.126855135   6.380599976   4.257899284    0   0   0
Au       6.380601406   6.380601406   4.257890701    0   0   0
Au      10.634584427   6.380601883   4.257895470    0   0   0
Au       2.126852274  10.634586334   4.257903576    0   0   0
Au       6.380601883  10.634584427   4.257895470    0   0   0
Au      10.634585381  10.634585381   4.257900715    0   0   0
Au       2.126863003  -0.000141616   6.373929977    0   0   0
Au       6.380603790  -0.000142418   6.373934269    0   0   0
Au      10.634494781  -0.000142245   6.373820305    0   0   0
Au      -0.000141616   2.126863003   6.373929977    0   0   0
Au       4.253733158   2.126865625   6.374044418    0   0   0
Au       8.507479668   2.126865625   6.374047279    0   0   0
Au       2.126865625   4.253733158   6.374044418    0   0   0
Au       6.380604744   4.253736019   6.374044895    0   0   0
Au      10.634491920   4.253734589   6.373939037    0   0   0
Au      -0.000142418   6.380603790   6.373934269    0   0   0
Au       4.253736019   6.380604744   6.374044895    0   0   0
Au       8.507478714   6.380605698   6.374047279    0   0   0
Au       2.126865625   8.507479668   6.374047279    0   0   0
Au       6.380605698   8.507478714   6.374047279    0   0   0
Au      10.634491920   8.507480621   6.373938560    0   0   0
Au      -0.000142245  10.634494781   6.373820305    0   0   0
Au       4.253734589  10.634491920   6.373939037    0   0   0
Au       8.507480621  10.634491920   6.373938560    0   0   0



     Writing output data file 0917.save
     Check: negative starting charge=   -1.945180
     NEW-OLD atomic charge density approx. for the potential
     Check: negative starting charge=   -1.945176

     negative rho (up, down):  1.971E+00 0.000E+00

     Writing output data file 0917.save
 
     init_run     :     48.04s CPU     48.93s WALL (       1 calls)
     electrons    :  91162.51s CPU  98419.33s WALL (      50 calls)
     update_pot   :    134.51s CPU    142.81s WALL (      50 calls)
     forces       :   1274.93s CPU   1314.62s WALL (      50 calls)

     Called by init_run:
     wfcinit      :     38.78s CPU     39.00s WALL (       1 calls)
     potinit      :      1.82s CPU      1.86s WALL (       1 calls)

     Called by electrons:
     c_bands      :  73460.56s CPU  79617.86s WALL (     965 calls)
     sum_band     :  14199.76s CPU  14777.02s WALL (     965 calls)
     v_of_rho     :    935.08s CPU    939.72s WALL (     988 calls)
     newd         :   2278.53s CPU   2751.59s WALL (     988 calls)
     mix_rho      :    217.97s CPU    220.00s WALL (     965 calls)

     Called by c_bands:
     init_us_2    :    266.52s CPU    266.81s WALL (    1931 calls)
     cegterg      :  69638.73s CPU  75708.19s WALL (     965 calls)

     Called by sum_band:
     sum_band:bec :      5.86s CPU      5.88s WALL (     965 calls)
     addusdens    :   3350.93s CPU   3729.04s WALL (     965 calls)

     Called by *egterg:
     h_psi        :  37507.11s CPU  42264.77s WALL (    3342 calls)
     s_psi        :   7233.22s CPU   7233.56s WALL (    3342 calls)
     g_psi        :     78.59s CPU     78.63s WALL (    2376 calls)
     cdiaghg      :   4230.15s CPU   4235.74s WALL (    3264 calls)

     Called by h_psi:
     add_vuspsi   :   7227.21s CPU   7227.52s WALL (    3342 calls)

     General routines
     calbec       :  11029.12s CPU  11030.22s WALL (    4507 calls)
     fft          :   1076.69s CPU   1080.19s WALL (   16318 calls)
     ffts         :     32.57s CPU     32.74s WALL (    1953 calls)
     fftw         :  20001.11s CPU  24884.93s WALL ( 2478084 calls)
     interpolate  :    161.34s CPU    162.02s WALL (    1953 calls)
     davcio       :      0.03s CPU      4.54s WALL (      51 calls)
 
     Parallel routines
     fft_scatter  :   6555.77s CPU   6767.16s WALL ( 2496355 calls)
 
     PWSCF        :     1d    1h46m CPU        1d    4h24m WALL

 
   This run was terminated on:   2:40:53  26Jan2017            

=------------------------------------------------------------------------------=
   JOB DONE.
=------------------------------------------------------------------------------=
-------------------------------------------------------
Primary job  terminated normally, but 1 process returned
a non-zero exit code.. Per user-direction, the job has been aborted.
-------------------------------------------------------
--------------------------------------------------------------------------
mpirun detected that one or more processes exited with non-zero status, thus causing
the job to be terminated. The first process to do so was:

  Process name: [[22020,1],26]
  Exit code:    3
--------------------------------------------------------------------------
