********************************************************************************
*                       GENERAL UTILITY LATTICE PROGRAM                        *
*                                 Julian Gale                                  *
*                      Nanochemistry Research Institute                        *
*                           Department of Chemistry                            *
*                    Curtin University, Western Australia                      *
********************************************************************************
* Version = 4.3.2 * Last modified = 13th April 2015                            *
********************************************************************************
*  fit          - perform fitting run                                          *
*  noflags      - no flags to be read in, assumed to all be zero               *
********************************************************************************

  Job Started  at 17:35.51  6th April      2016                               

  Number of CPUs =     1


  Total number of configurations input = 174

********************************************************************************
*  Input for Configuration =   1                                               *
********************************************************************************

  Formula = OH2Au64                                                     

  Number of irreducible atoms/shells =      67


  Total number atoms/shells =      67

  Dimensionality = 3               :  Bulk   



  Cartesian lattice vectors (Angstroms) :

       12.031364    0.000000    0.000000
       -6.015682   10.419462    0.000000
        0.000000    0.000000   27.070570

  Cell parameters (Angstroms/Degrees):

  a =      12.0314    alpha =  90.0000
  b =      12.0314    beta  =  90.0000
  c =      27.0706    gamma = 120.0000

  Initial cell volume =        3393.575905 Angs**3

  Temperature of configuration =  0.000     K 

  Pressure of configuration =         0.000 GPa 

  Fractional coordinates of asymmetric unit :

--------------------------------------------------------------------------------
   No.  Atomic       x           y          z         Charge      Occupancy
        Label      (Frac)      (Frac)     (Frac)        (e)         (Frac)  
--------------------------------------------------------------------------------
      1 O     c    0.485506    0.350965    0.384346     0.00000    1.000000    
      2 H     c    0.458184    0.333222    0.350001     0.00000    1.000000    
      3 H     c    0.407256    0.300164    0.403292     0.00000    1.000000    
      4 Au    c    0.708096    0.708096    0.000000     0.00000    1.000000    
      5 Au    c    0.708096    0.458180    0.000000     0.00000    1.000000    
      6 Au    c    0.708096    0.208264    0.000000     0.00000    1.000000    
      7 Au    c    0.708096    0.958347    0.000000     0.00000    1.000000    
      8 Au    c    0.458180    0.708096    0.000000     0.00000    1.000000    
      9 Au    c    0.458180    0.458180    0.000000     0.00000    1.000000    
     10 Au    c    0.458180    0.208264    0.000000     0.00000    1.000000    
     11 Au    c    0.458180    0.958347    0.000000     0.00000    1.000000    
     12 Au    c    0.208264    0.708096    0.000000     0.00000    1.000000    
     13 Au    c    0.208264    0.458180    0.000000     0.00000    1.000000    
     14 Au    c    0.208264    0.208264    0.000000     0.00000    1.000000    
     15 Au    c    0.208264    0.958347    0.000000     0.00000    1.000000    
     16 Au    c    0.958347    0.708096    0.000000     0.00000    1.000000    
     17 Au    c    0.958347    0.458180    0.000000     0.00000    1.000000    
     18 Au    c    0.958347    0.208264    0.000000     0.00000    1.000000    
     19 Au    c    0.958347    0.958347    0.000000     0.00000    1.000000    
     20 Au    c    0.874707    0.791402    0.090691     0.00000    1.000000    
     21 Au    c    0.874707    0.541486    0.090691     0.00000    1.000000    
     22 Au    c    0.874707    0.291569    0.090691     0.00000    1.000000    
     23 Au    c    0.874707    0.041653    0.090691     0.00000    1.000000    
     24 Au    c    0.624791    0.791402    0.090691     0.00000    1.000000    
     25 Au    c    0.624791    0.541486    0.090691     0.00000    1.000000    
     26 Au    c    0.624791    0.291569    0.090691     0.00000    1.000000    
     27 Au    c    0.624791    0.041653    0.090691     0.00000    1.000000    
     28 Au    c    0.374875    0.791402    0.090691     0.00000    1.000000    
     29 Au    c    0.374875    0.541486    0.090691     0.00000    1.000000    
     30 Au    c    0.374874    0.291569    0.090691     0.00000    1.000000    
     31 Au    c    0.374874    0.041653    0.090691     0.00000    1.000000    
     32 Au    c    0.124958    0.791402    0.090691     0.00000    1.000000    
     33 Au    c    0.124958    0.541486    0.090691     0.00000    1.000000    
     34 Au    c    0.124958    0.291569    0.090691     0.00000    1.000000    
     35 Au    c    0.124958    0.041653    0.090691     0.00000    1.000000    
     36 Au    c    0.791551    0.874870    0.180733     0.00000    1.000000    
     37 Au    c    0.791529    0.624857    0.180742     0.00000    1.000000    
     38 Au    c    0.791515    0.374916    0.180739     0.00000    1.000000    
     39 Au    c    0.791478    0.124902    0.180735     0.00000    1.000000    
     40 Au    c    0.541531    0.874829    0.180722     0.00000    1.000000    
     41 Au    c    0.541508    0.624816    0.180731     0.00000    1.000000    
     42 Au    c    0.541494    0.374874    0.180728     0.00000    1.000000    
     43 Au    c    0.541458    0.124861    0.180724     0.00000    1.000000    
     44 Au    c    0.291587    0.874814    0.180721     0.00000    1.000000    
     45 Au    c    0.291564    0.624801    0.180731     0.00000    1.000000    
     46 Au    c    0.291550    0.374859    0.180727     0.00000    1.000000    
     47 Au    c    0.291514    0.124846    0.180723     0.00000    1.000000    
     48 Au    c    0.041572    0.874777    0.180703     0.00000    1.000000    
     49 Au    c    0.041549    0.624764    0.180712     0.00000    1.000000    
     50 Au    c    0.041535    0.374823    0.180709     0.00000    1.000000    
     51 Au    c    0.041499    0.124810    0.180705     0.00000    1.000000    
     52 Au    c    0.708217    0.708218    0.272434     0.00000    1.000000    
     53 Au    c    0.708186    0.458216    0.272443     0.00000    1.000000    
     54 Au    c    0.708179    0.208286    0.272438     0.00000    1.000000    
     55 Au    c    0.708161    0.958290    0.272417     0.00000    1.000000    
     56 Au    c    0.458219    0.708189    0.272445     0.00000    1.000000    
     57 Au    c    0.458188    0.458187    0.272455     0.00000    1.000000    
     58 Au    c    0.458180    0.208256    0.272450     0.00000    1.000000    
     59 Au    c    0.458163    0.958260    0.272429     0.00000    1.000000    
     60 Au    c    0.208287    0.708180    0.272444     0.00000    1.000000    
     61 Au    c    0.208255    0.458178    0.272453     0.00000    1.000000    
     62 Au    c    0.208248    0.208248    0.272448     0.00000    1.000000    
     63 Au    c    0.208230    0.958251    0.272427     0.00000    1.000000    
     64 Au    c    0.958283    0.708148    0.272421     0.00000    1.000000    
     65 Au    c    0.958252    0.458146    0.272431     0.00000    1.000000    
     66 Au    c    0.958244    0.208216    0.272425     0.00000    1.000000    
     67 Au    c    0.958228    0.958220    0.272405     0.00000    1.000000    
--------------------------------------------------------------------------------



********************************************************************************
*  Input for Configuration =   2                                               *
********************************************************************************

  Formula = OH2Au64                                                     

  Number of irreducible atoms/shells =      67


  Total number atoms/shells =      67

  Dimensionality = 3               :  Bulk   



  Cartesian lattice vectors (Angstroms) :

       12.031364    0.000000    0.000000
       -6.015682   10.419462    0.000000
        0.000000    0.000000   27.070570

  Cell parameters (Angstroms/Degrees):

  a =      12.0314    alpha =  90.0000
  b =      12.0314    beta  =  90.0000
  c =      27.0706    gamma = 120.0000

  Initial cell volume =        3393.575905 Angs**3

  Temperature of configuration =  0.000     K 

  Pressure of configuration =         0.000 GPa 

  Fractional coordinates of asymmetric unit :

--------------------------------------------------------------------------------
   No.  Atomic       x           y          z         Charge      Occupancy
        Label      (Frac)      (Frac)     (Frac)        (e)         (Frac)  
--------------------------------------------------------------------------------
      1 O     c    0.474170    0.360833    0.384346     0.00000    1.000000    
      2 H     c    0.458184    0.333222    0.350001     0.00000    1.000000    
      3 H     c    0.428373    0.281760    0.403292     0.00000    1.000000    
      4 Au    c    0.708096    0.708096    0.000000     0.00000    1.000000    
      5 Au    c    0.708096    0.458180    0.000000     0.00000    1.000000    
      6 Au    c    0.708096    0.208264    0.000000     0.00000    1.000000    
      7 Au    c    0.708096    0.958347    0.000000     0.00000    1.000000    
      8 Au    c    0.458180    0.708096    0.000000     0.00000    1.000000    
      9 Au    c    0.458180    0.458180    0.000000     0.00000    1.000000    
     10 Au    c    0.458180    0.208264    0.000000     0.00000    1.000000    
     11 Au    c    0.458180    0.958347    0.000000     0.00000    1.000000    
     12 Au    c    0.208264    0.708096    0.000000     0.00000    1.000000    
     13 Au    c    0.208264    0.458180    0.000000     0.00000    1.000000    
     14 Au    c    0.208264    0.208264    0.000000     0.00000    1.000000    
     15 Au    c    0.208264    0.958347    0.000000     0.00000    1.000000    
     16 Au    c    0.958347    0.708096    0.000000     0.00000    1.000000    
     17 Au    c    0.958347    0.458180    0.000000     0.00000    1.000000    
     18 Au    c    0.958347    0.208264    0.000000     0.00000    1.000000    
     19 Au    c    0.958347    0.958347    0.000000     0.00000    1.000000    
     20 Au    c    0.874707    0.791402    0.090691     0.00000    1.000000    
     21 Au    c    0.874707    0.541486    0.090691     0.00000    1.000000    
     22 Au    c    0.874707    0.291569    0.090691     0.00000    1.000000    
     23 Au    c    0.874707    0.041653    0.090691     0.00000    1.000000    
     24 Au    c    0.624791    0.791402    0.090691     0.00000    1.000000    
     25 Au    c    0.624791    0.541486    0.090691     0.00000    1.000000    
     26 Au    c    0.624791    0.291569    0.090691     0.00000    1.000000    
     27 Au    c    0.624791    0.041653    0.090691     0.00000    1.000000    
     28 Au    c    0.374875    0.791402    0.090691     0.00000    1.000000    
     29 Au    c    0.374875    0.541486    0.090691     0.00000    1.000000    
     30 Au    c    0.374874    0.291569    0.090691     0.00000    1.000000    
     31 Au    c    0.374874    0.041653    0.090691     0.00000    1.000000    
     32 Au    c    0.124958    0.791402    0.090691     0.00000    1.000000    
     33 Au    c    0.124958    0.541486    0.090691     0.00000    1.000000    
     34 Au    c    0.124958    0.291569    0.090691     0.00000    1.000000    
     35 Au    c    0.124958    0.041653    0.090691     0.00000    1.000000    
     36 Au    c    0.791551    0.874870    0.180733     0.00000    1.000000    
     37 Au    c    0.791529    0.624857    0.180742     0.00000    1.000000    
     38 Au    c    0.791515    0.374916    0.180739     0.00000    1.000000    
     39 Au    c    0.791478    0.124902    0.180735     0.00000    1.000000    
     40 Au    c    0.541531    0.874829    0.180722     0.00000    1.000000    
     41 Au    c    0.541508    0.624816    0.180731     0.00000    1.000000    
     42 Au    c    0.541494    0.374874    0.180728     0.00000    1.000000    
     43 Au    c    0.541458    0.124861    0.180724     0.00000    1.000000    
     44 Au    c    0.291587    0.874814    0.180721     0.00000    1.000000    
     45 Au    c    0.291564    0.624801    0.180731     0.00000    1.000000    
     46 Au    c    0.291550    0.374859    0.180727     0.00000    1.000000    
     47 Au    c    0.291514    0.124846    0.180723     0.00000    1.000000    
     48 Au    c    0.041572    0.874777    0.180703     0.00000    1.000000    
     49 Au    c    0.041549    0.624764    0.180712     0.00000    1.000000    
     50 Au    c    0.041535    0.374823    0.180709     0.00000    1.000000    
     51 Au    c    0.041499    0.124810    0.180705     0.00000    1.000000    
     52 Au    c    0.708217    0.708218    0.272434     0.00000    1.000000    
     53 Au    c    0.708186    0.458216    0.272443     0.00000    1.000000    
     54 Au    c    0.708179    0.208286    0.272438     0.00000    1.000000    
     55 Au    c    0.708161    0.958290    0.272417     0.00000    1.000000    
     56 Au    c    0.458219    0.708189    0.272445     0.00000    1.000000    
     57 Au    c    0.458188    0.458187    0.272455     0.00000    1.000000    
     58 Au    c    0.458180    0.208256    0.272450     0.00000    1.000000    
     59 Au    c    0.458163    0.958260    0.272429     0.00000    1.000000    
     60 Au    c    0.208287    0.708180    0.272444     0.00000    1.000000    
     61 Au    c    0.208255    0.458178    0.272453     0.00000    1.000000    
     62 Au    c    0.208248    0.208248    0.272448     0.00000    1.000000    
     63 Au    c    0.208230    0.958251    0.272427     0.00000    1.000000    
     64 Au    c    0.958283    0.708148    0.272421     0.00000    1.000000    
     65 Au    c    0.958252    0.458146    0.272431     0.00000    1.000000    
     66 Au    c    0.958244    0.208216    0.272425     0.00000    1.000000    
     67 Au    c    0.958228    0.958220    0.272405     0.00000    1.000000    
--------------------------------------------------------------------------------



********************************************************************************
*  Input for Configuration =   3                                               *
********************************************************************************

  Formula = OH2Au64                                                     

  Number of irreducible atoms/shells =      67


  Total number atoms/shells =      67

  Dimensionality = 3               :  Bulk   



  Cartesian lattice vectors (Angstroms) :

       12.031364    0.000000    0.000000
       -6.015682   10.419462    0.000000
        0.000000    0.000000   27.070570

  Cell parameters (Angstroms/Degrees):

  a =      12.0314    alpha =  90.0000
  b =      12.0314    beta  =  90.0000
  c =      27.0706    gamma = 120.0000

  Initial cell volume =        3393.575905 Angs**3

  Temperature of configuration =  0.000     K 

  Pressure of configuration =         0.000 GPa 

  Fractional coordinates of asymmetric unit :

--------------------------------------------------------------------------------
   No.  Atomic       x           y          z         Charge      Occupancy
        Label      (Frac)      (Frac)     (Frac)        (e)         (Frac)  
--------------------------------------------------------------------------------
      1 O     c    0.415750    0.243992    0.360629     0.00000    1.000000    
      2 H     c    0.458184    0.333222    0.350001     0.00000    1.000000    
      3 H     c    0.384877    0.194769    0.330194     0.00000    1.000000    
      4 Au    c    0.708096    0.708096    0.000000     0.00000    1.000000    
      5 Au    c    0.708096    0.458180    0.000000     0.00000    1.000000    
      6 Au    c    0.708096    0.208264    0.000000     0.00000    1.000000    
      7 Au    c    0.708096    0.958347    0.000000     0.00000    1.000000    
      8 Au    c    0.458180    0.708096    0.000000     0.00000    1.000000    
      9 Au    c    0.458180    0.458180    0.000000     0.00000    1.000000    
     10 Au    c    0.458180    0.208264    0.000000     0.00000    1.000000    
     11 Au    c    0.458180    0.958347    0.000000     0.00000    1.000000    
     12 Au    c    0.208264    0.708096    0.000000     0.00000    1.000000    
     13 Au    c    0.208264    0.458180    0.000000     0.00000    1.000000    
     14 Au    c    0.208264    0.208264    0.000000     0.00000    1.000000    
     15 Au    c    0.208264    0.958347    0.000000     0.00000    1.000000    
     16 Au    c    0.958347    0.708096    0.000000     0.00000    1.000000    
     17 Au    c    0.958347    0.458180    0.000000     0.00000    1.000000    
     18 Au    c    0.958347    0.208264    0.000000     0.00000    1.000000    
     19 Au    c    0.958347    0.958347    0.000000     0.00000    1.000000    
     20 Au    c    0.874707    0.791402    0.090691     0.00000    1.000000    
     21 Au    c    0.874707    0.541486    0.090691     0.00000    1.000000    
     22 Au    c    0.874707    0.291569    0.090691     0.00000    1.000000    
     23 Au    c    0.874707    0.041653    0.090691     0.00000    1.000000    
     24 Au    c    0.624791    0.791402    0.090691     0.00000    1.000000    
     25 Au    c    0.624791    0.541486    0.090691     0.00000    1.000000    
     26 Au    c    0.624791    0.291569    0.090691     0.00000    1.000000    
     27 Au    c    0.624791    0.041653    0.090691     0.00000    1.000000    
     28 Au    c    0.374875    0.791402    0.090691     0.00000    1.000000    
     29 Au    c    0.374875    0.541486    0.090691     0.00000    1.000000    
     30 Au    c    0.374874    0.291569    0.090691     0.00000    1.000000    
     31 Au    c    0.374874    0.041653    0.090691     0.00000    1.000000    
     32 Au    c    0.124958    0.791402    0.090691     0.00000    1.000000    
     33 Au    c    0.124958    0.541486    0.090691     0.00000    1.000000    
     34 Au    c    0.124958    0.291569    0.090691     0.00000    1.000000    
     35 Au    c    0.124958    0.041653    0.090691     0.00000    1.000000    
     36 Au    c    0.791551    0.874870    0.180733     0.00000    1.000000    
     37 Au    c    0.791529    0.624857    0.180742     0.00000    1.000000    
     38 Au    c    0.791515    0.374916    0.180739     0.00000    1.000000    
     39 Au    c    0.791478    0.124902    0.180735     0.00000    1.000000    
     40 Au    c    0.541531    0.874829    0.180722     0.00000    1.000000    
     41 Au    c    0.541508    0.624816    0.180731     0.00000    1.000000    
     42 Au    c    0.541494    0.374874    0.180728     0.00000    1.000000    
     43 Au    c    0.541458    0.124861    0.180724     0.00000    1.000000    
     44 Au    c    0.291587    0.874814    0.180721     0.00000    1.000000    
     45 Au    c    0.291564    0.624801    0.180731     0.00000    1.000000    
     46 Au    c    0.291550    0.374859    0.180727     0.00000    1.000000    
     47 Au    c    0.291514    0.124846    0.180723     0.00000    1.000000    
     48 Au    c    0.041572    0.874777    0.180703     0.00000    1.000000    
     49 Au    c    0.041549    0.624764    0.180712     0.00000    1.000000    
     50 Au    c    0.041535    0.374823    0.180709     0.00000    1.000000    
     51 Au    c    0.041499    0.124810    0.180705     0.00000    1.000000    
     52 Au    c    0.708217    0.708218    0.272434     0.00000    1.000000    
     53 Au    c    0.708186    0.458216    0.272443     0.00000    1.000000    
     54 Au    c    0.708179    0.208286    0.272438     0.00000    1.000000    
     55 Au    c    0.708161    0.958290    0.272417     0.00000    1.000000    
     56 Au    c    0.458219    0.708189    0.272445     0.00000    1.000000    
     57 Au    c    0.458188    0.458187    0.272455     0.00000    1.000000    
     58 Au    c    0.458180    0.208256    0.272450     0.00000    1.000000    
     59 Au    c    0.458163    0.958260    0.272429     0.00000    1.000000    
     60 Au    c    0.208287    0.708180    0.272444     0.00000    1.000000    
     61 Au    c    0.208255    0.458178    0.272453     0.00000    1.000000    
     62 Au    c    0.208248    0.208248    0.272448     0.00000    1.000000    
     63 Au    c    0.208230    0.958251    0.272427     0.00000    1.000000    
     64 Au    c    0.958283    0.708148    0.272421     0.00000    1.000000    
     65 Au    c    0.958252    0.458146    0.272431     0.00000    1.000000    
     66 Au    c    0.958244    0.208216    0.272425     0.00000    1.000000    
     67 Au    c    0.958228    0.958220    0.272405     0.00000    1.000000    
--------------------------------------------------------------------------------



********************************************************************************
*  Input for Configuration =   4                                               *
********************************************************************************

  Formula = OH2Au64                                                     

  Number of irreducible atoms/shells =      67


  Total number atoms/shells =      67

  Dimensionality = 3               :  Bulk   



  Cartesian lattice vectors (Angstroms) :

       12.031364    0.000000    0.000000
       -6.015682   10.419462    0.000000
        0.000000    0.000000   27.070570

  Cell parameters (Angstroms/Degrees):

  a =      12.0314    alpha =  90.0000
  b =      12.0314    beta  =  90.0000
  c =      27.0706    gamma = 120.0000

  Initial cell volume =        3393.575905 Angs**3

  Temperature of configuration =  0.000     K 

  Pressure of configuration =         0.000 GPa 

  Fractional coordinates of asymmetric unit :

--------------------------------------------------------------------------------
   No.  Atomic       x           y          z         Charge      Occupancy
        Label      (Frac)      (Frac)     (Frac)        (e)         (Frac)  
--------------------------------------------------------------------------------
      1 O     c    0.485506    0.350965    0.395424     0.00000    1.000000    
      2 H     c    0.458184    0.333222    0.361080     0.00000    1.000000    
      3 H     c    0.407256    0.300164    0.414370     0.00000    1.000000    
      4 Au    c    0.708096    0.708096    0.000000     0.00000    1.000000    
      5 Au    c    0.708096    0.458180    0.000000     0.00000    1.000000    
      6 Au    c    0.708096    0.208264    0.000000     0.00000    1.000000    
      7 Au    c    0.708096    0.958347    0.000000     0.00000    1.000000    
      8 Au    c    0.458180    0.708096    0.000000     0.00000    1.000000    
      9 Au    c    0.458180    0.458180    0.000000     0.00000    1.000000    
     10 Au    c    0.458180    0.208264    0.000000     0.00000    1.000000    
     11 Au    c    0.458180    0.958347    0.000000     0.00000    1.000000    
     12 Au    c    0.208264    0.708096    0.000000     0.00000    1.000000    
     13 Au    c    0.208264    0.458180    0.000000     0.00000    1.000000    
     14 Au    c    0.208264    0.208264    0.000000     0.00000    1.000000    
     15 Au    c    0.208264    0.958347    0.000000     0.00000    1.000000    
     16 Au    c    0.958347    0.708096    0.000000     0.00000    1.000000    
     17 Au    c    0.958347    0.458180    0.000000     0.00000    1.000000    
     18 Au    c    0.958347    0.208264    0.000000     0.00000    1.000000    
     19 Au    c    0.958347    0.958347    0.000000     0.00000    1.000000    
     20 Au    c    0.874707    0.791402    0.090691     0.00000    1.000000    
     21 Au    c    0.874707    0.541486    0.090691     0.00000    1.000000    
     22 Au    c    0.874707    0.291569    0.090691     0.00000    1.000000    
     23 Au    c    0.874707    0.041653    0.090691     0.00000    1.000000    
     24 Au    c    0.624791    0.791402    0.090691     0.00000    1.000000    
     25 Au    c    0.624791    0.541486    0.090691     0.00000    1.000000    
     26 Au    c    0.624791    0.291569    0.090691     0.00000    1.000000    
     27 Au    c    0.624791    0.041653    0.090691     0.00000    1.000000    
     28 Au    c    0.374875    0.791402    0.090691     0.00000    1.000000    
     29 Au    c    0.374875    0.541486    0.090691     0.00000    1.000000    
     30 Au    c    0.374874    0.291569    0.090691     0.00000    1.000000    
     31 Au    c    0.374874    0.041653    0.090691     0.00000    1.000000    
     32 Au    c    0.124958    0.791402    0.090691     0.00000    1.000000    
     33 Au    c    0.124958    0.541486    0.090691     0.00000    1.000000    
     34 Au    c    0.124958    0.291569    0.090691     0.00000    1.000000    
     35 Au    c    0.124958    0.041653    0.090691     0.00000    1.000000    
     36 Au    c    0.791551    0.874870    0.180733     0.00000    1.000000    
     37 Au    c    0.791529    0.624857    0.180742     0.00000    1.000000    
     38 Au    c    0.791515    0.374916    0.180739     0.00000    1.000000    
     39 Au    c    0.791478    0.124902    0.180735     0.00000    1.000000    
     40 Au    c    0.541531    0.874829    0.180722     0.00000    1.000000    
     41 Au    c    0.541508    0.624816    0.180731     0.00000    1.000000    
     42 Au    c    0.541494    0.374874    0.180728     0.00000    1.000000    
     43 Au    c    0.541458    0.124861    0.180724     0.00000    1.000000    
     44 Au    c    0.291587    0.874814    0.180721     0.00000    1.000000    
     45 Au    c    0.291564    0.624801    0.180731     0.00000    1.000000    
     46 Au    c    0.291550    0.374859    0.180727     0.00000    1.000000    
     47 Au    c    0.291514    0.124846    0.180723     0.00000    1.000000    
     48 Au    c    0.041572    0.874777    0.180703     0.00000    1.000000    
     49 Au    c    0.041549    0.624764    0.180712     0.00000    1.000000    
     50 Au    c    0.041535    0.374823    0.180709     0.00000    1.000000    
     51 Au    c    0.041499    0.124810    0.180705     0.00000    1.000000    
     52 Au    c    0.708217    0.708218    0.272434     0.00000    1.000000    
     53 Au    c    0.708186    0.458216    0.272443     0.00000    1.000000    
     54 Au    c    0.708179    0.208286    0.272438     0.00000    1.000000    
     55 Au    c    0.708161    0.958290    0.272417     0.00000    1.000000    
     56 Au    c    0.458219    0.708189    0.272445     0.00000    1.000000    
     57 Au    c    0.458188    0.458187    0.272455     0.00000    1.000000    
     58 Au    c    0.458180    0.208256    0.272450     0.00000    1.000000    
     59 Au    c    0.458163    0.958260    0.272429     0.00000    1.000000    
     60 Au    c    0.208287    0.708180    0.272444     0.00000    1.000000    
     61 Au    c    0.208255    0.458178    0.272453     0.00000    1.000000    
     62 Au    c    0.208248    0.208248    0.272448     0.00000    1.000000    
     63 Au    c    0.208230    0.958251    0.272427     0.00000    1.000000    
     64 Au    c    0.958283    0.708148    0.272421     0.00000    1.000000    
     65 Au    c    0.958252    0.458146    0.272431     0.00000    1.000000    
     66 Au    c    0.958244    0.208216    0.272425     0.00000    1.000000    
     67 Au    c    0.958228    0.958220    0.272405     0.00000    1.000000    
--------------------------------------------------------------------------------



********************************************************************************
*  Input for Configuration =   5                                               *
********************************************************************************

  Formula = OH2Au64                                                     

  Number of irreducible atoms/shells =      67


  Total number atoms/shells =      67

  Dimensionality = 3               :  Bulk   



  Cartesian lattice vectors (Angstroms) :

       12.031364    0.000000    0.000000
       -6.015682   10.419462    0.000000
        0.000000    0.000000   27.070570

  Cell parameters (Angstroms/Degrees):

  a =      12.0314    alpha =  90.0000
  b =      12.0314    beta  =  90.0000
  c =      27.0706    gamma = 120.0000

  Initial cell volume =        3393.575905 Angs**3

  Temperature of configuration =  0.000     K 

  Pressure of configuration =         0.000 GPa 

  Fractional coordinates of asymmetric unit :

--------------------------------------------------------------------------------
   No.  Atomic       x           y          z         Charge      Occupancy
        Label      (Frac)      (Frac)     (Frac)        (e)         (Frac)  
--------------------------------------------------------------------------------
      1 O     c    0.432020    0.243992    0.367909     0.00000    1.000000    
      2 H     c    0.458184    0.333222    0.361080     0.00000    1.000000    
      3 H     c    0.354559    0.194769    0.348356     0.00000    1.000000    
      4 Au    c    0.708096    0.708096    0.000000     0.00000    1.000000    
      5 Au    c    0.708096    0.458180    0.000000     0.00000    1.000000    
      6 Au    c    0.708096    0.208264    0.000000     0.00000    1.000000    
      7 Au    c    0.708096    0.958347    0.000000     0.00000    1.000000    
      8 Au    c    0.458180    0.708096    0.000000     0.00000    1.000000    
      9 Au    c    0.458180    0.458180    0.000000     0.00000    1.000000    
     10 Au    c    0.458180    0.208264    0.000000     0.00000    1.000000    
     11 Au    c    0.458180    0.958347    0.000000     0.00000    1.000000    
     12 Au    c    0.208264    0.708096    0.000000     0.00000    1.000000    
     13 Au    c    0.208264    0.458180    0.000000     0.00000    1.000000    
     14 Au    c    0.208264    0.208264    0.000000     0.00000    1.000000    
     15 Au    c    0.208264    0.958347    0.000000     0.00000    1.000000    
     16 Au    c    0.958347    0.708096    0.000000     0.00000    1.000000    
     17 Au    c    0.958347    0.458180    0.000000     0.00000    1.000000    
     18 Au    c    0.958347    0.208264    0.000000     0.00000    1.000000    
     19 Au    c    0.958347    0.958347    0.000000     0.00000    1.000000    
     20 Au    c    0.874707    0.791402    0.090691     0.00000    1.000000    
     21 Au    c    0.874707    0.541486    0.090691     0.00000    1.000000    
     22 Au    c    0.874707    0.291569    0.090691     0.00000    1.000000    
     23 Au    c    0.874707    0.041653    0.090691     0.00000    1.000000    
     24 Au    c    0.624791    0.791402    0.090691     0.00000    1.000000    
     25 Au    c    0.624791    0.541486    0.090691     0.00000    1.000000    
     26 Au    c    0.624791    0.291569    0.090691     0.00000    1.000000    
     27 Au    c    0.624791    0.041653    0.090691     0.00000    1.000000    
     28 Au    c    0.374875    0.791402    0.090691     0.00000    1.000000    
     29 Au    c    0.374875    0.541486    0.090691     0.00000    1.000000    
     30 Au    c    0.374874    0.291569    0.090691     0.00000    1.000000    
     31 Au    c    0.374874    0.041653    0.090691     0.00000    1.000000    
     32 Au    c    0.124958    0.791402    0.090691     0.00000    1.000000    
     33 Au    c    0.124958    0.541486    0.090691     0.00000    1.000000    
     34 Au    c    0.124958    0.291569    0.090691     0.00000    1.000000    
     35 Au    c    0.124958    0.041653    0.090691     0.00000    1.000000    
     36 Au    c    0.791551    0.874870    0.180733     0.00000    1.000000    
     37 Au    c    0.791529    0.624857    0.180742     0.00000    1.000000    
     38 Au    c    0.791515    0.374916    0.180739     0.00000    1.000000    
     39 Au    c    0.791478    0.124902    0.180735     0.00000    1.000000    
     40 Au    c    0.541531    0.874829    0.180722     0.00000    1.000000    
     41 Au    c    0.541508    0.624816    0.180731     0.00000    1.000000    
     42 Au    c    0.541494    0.374874    0.180728     0.00000    1.000000    
     43 Au    c    0.541458    0.124861    0.180724     0.00000    1.000000    
     44 Au    c    0.291587    0.874814    0.180721     0.00000    1.000000    
     45 Au    c    0.291564    0.624801    0.180731     0.00000    1.000000    
     46 Au    c    0.291550    0.374859    0.180727     0.00000    1.000000    
     47 Au    c    0.291514    0.124846    0.180723     0.00000    1.000000    
     48 Au    c    0.041572    0.874777    0.180703     0.00000    1.000000    
     49 Au    c    0.041549    0.624764    0.180712     0.00000    1.000000    
     50 Au    c    0.041535    0.374823    0.180709     0.00000    1.000000    
     51 Au    c    0.041499    0.124810    0.180705     0.00000    1.000000    
     52 Au    c    0.708217    0.708218    0.272434     0.00000    1.000000    
     53 Au    c    0.708186    0.458216    0.272443     0.00000    1.000000    
     54 Au    c    0.708179    0.208286    0.272438     0.00000    1.000000    
     55 Au    c    0.708161    0.958290    0.272417     0.00000    1.000000    
     56 Au    c    0.458219    0.708189    0.272445     0.00000    1.000000    
     57 Au    c    0.458188    0.458187    0.272455     0.00000    1.000000    
     58 Au    c    0.458180    0.208256    0.272450     0.00000    1.000000    
     59 Au    c    0.458163    0.958260    0.272429     0.00000    1.000000    
     60 Au    c    0.208287    0.708180    0.272444     0.00000    1.000000    
     61 Au    c    0.208255    0.458178    0.272453     0.00000    1.000000    
     62 Au    c    0.208248    0.208248    0.272448     0.00000    1.000000    
     63 Au    c    0.208230    0.958251    0.272427     0.00000    1.000000    
     64 Au    c    0.958283    0.708148    0.272421     0.00000    1.000000    
     65 Au    c    0.958252    0.458146    0.272431     0.00000    1.000000    
     66 Au    c    0.958244    0.208216    0.272425     0.00000    1.000000    
     67 Au    c    0.958228    0.958220    0.272405     0.00000    1.000000    
--------------------------------------------------------------------------------



********************************************************************************
*  Input for Configuration =   6                                               *
********************************************************************************

  Formula = OH2Au64                                                     

  Number of irreducible atoms/shells =      67


  Total number atoms/shells =      67

  Dimensionality = 3               :  Bulk   



  Cartesian lattice vectors (Angstroms) :

       12.031364    0.000000    0.000000
       -6.015682   10.419462    0.000000
        0.000000    0.000000   27.070570

  Cell parameters (Angstroms/Degrees):

  a =      12.0314    alpha =  90.0000
  b =      12.0314    beta  =  90.0000
  c =      27.0706    gamma = 120.0000

  Initial cell volume =        3393.575905 Angs**3

  Temperature of configuration =  0.000     K 

  Pressure of configuration =         0.000 GPa 

  Fractional coordinates of asymmetric unit :

--------------------------------------------------------------------------------
   No.  Atomic       x           y          z         Charge      Occupancy
        Label      (Frac)      (Frac)     (Frac)        (e)         (Frac)  
--------------------------------------------------------------------------------
      1 O     c    0.474170    0.360833    0.395424     0.00000    1.000000    
      2 H     c    0.458184    0.333222    0.361080     0.00000    1.000000    
      3 H     c    0.428373    0.281760    0.414370     0.00000    1.000000    
      4 Au    c    0.708096    0.708096    0.000000     0.00000    1.000000    
      5 Au    c    0.708096    0.458180    0.000000     0.00000    1.000000    
      6 Au    c    0.708096    0.208264    0.000000     0.00000    1.000000    
      7 Au    c    0.708096    0.958347    0.000000     0.00000    1.000000    
      8 Au    c    0.458180    0.708096    0.000000     0.00000    1.000000    
      9 Au    c    0.458180    0.458180    0.000000     0.00000    1.000000    
     10 Au    c    0.458180    0.208264    0.000000     0.00000    1.000000    
     11 Au    c    0.458180    0.958347    0.000000     0.00000    1.000000    
     12 Au    c    0.208264    0.708096    0.000000     0.00000    1.000000    
     13 Au    c    0.208264    0.458180    0.000000     0.00000    1.000000    
     14 Au    c    0.208264    0.208264    0.000000     0.00000    1.000000    
     15 Au    c    0.208264    0.958347    0.000000     0.00000    1.000000    
     16 Au    c    0.958347    0.708096    0.000000     0.00000    1.000000    
     17 Au    c    0.958347    0.458180    0.000000     0.00000    1.000000    
     18 Au    c    0.958347    0.208264    0.000000     0.00000    1.000000    
     19 Au    c    0.958347    0.958347    0.000000     0.00000    1.000000    
     20 Au    c    0.874707    0.791402    0.090691     0.00000    1.000000    
     21 Au    c    0.874707    0.541486    0.090691     0.00000    1.000000    
     22 Au    c    0.874707    0.291569    0.090691     0.00000    1.000000    
     23 Au    c    0.874707    0.041653    0.090691     0.00000    1.000000    
     24 Au    c    0.624791    0.791402    0.090691     0.00000    1.000000    
     25 Au    c    0.624791    0.541486    0.090691     0.00000    1.000000    
     26 Au    c    0.624791    0.291569    0.090691     0.00000    1.000000    
     27 Au    c    0.624791    0.041653    0.090691     0.00000    1.000000    
     28 Au    c    0.374875    0.791402    0.090691     0.00000    1.000000    
     29 Au    c    0.374875    0.541486    0.090691     0.00000    1.000000    
     30 Au    c    0.374874    0.291569    0.090691     0.00000    1.000000    
     31 Au    c    0.374874    0.041653    0.090691     0.00000    1.000000    
     32 Au    c    0.124958    0.791402    0.090691     0.00000    1.000000    
     33 Au    c    0.124958    0.541486    0.090691     0.00000    1.000000    
     34 Au    c    0.124958    0.291569    0.090691     0.00000    1.000000    
     35 Au    c    0.124958    0.041653    0.090691     0.00000    1.000000    
     36 Au    c    0.791551    0.874870    0.180733     0.00000    1.000000    
     37 Au    c    0.791529    0.624857    0.180742     0.00000    1.000000    
     38 Au    c    0.791515    0.374916    0.180739     0.00000    1.000000    
     39 Au    c    0.791478    0.124902    0.180735     0.00000    1.000000    
     40 Au    c    0.541531    0.874829    0.180722     0.00000    1.000000    
     41 Au    c    0.541508    0.624816    0.180731     0.00000    1.000000    
     42 Au    c    0.541494    0.374874    0.180728     0.00000    1.000000    
     43 Au    c    0.541458    0.124861    0.180724     0.00000    1.000000    
     44 Au    c    0.291587    0.874814    0.180721     0.00000    1.000000    
     45 Au    c    0.291564    0.624801    0.180731     0.00000    1.000000    
     46 Au    c    0.291550    0.374859    0.180727     0.00000    1.000000    
     47 Au    c    0.291514    0.124846    0.180723     0.00000    1.000000    
     48 Au    c    0.041572    0.874777    0.180703     0.00000    1.000000    
     49 Au    c    0.041549    0.624764    0.180712     0.00000    1.000000    
     50 Au    c    0.041535    0.374823    0.180709     0.00000    1.000000    
     51 Au    c    0.041499    0.124810    0.180705     0.00000    1.000000    
     52 Au    c    0.708217    0.708218    0.272434     0.00000    1.000000    
     53 Au    c    0.708186    0.458216    0.272443     0.00000    1.000000    
     54 Au    c    0.708179    0.208286    0.272438     0.00000    1.000000    
     55 Au    c    0.708161    0.958290    0.272417     0.00000    1.000000    
     56 Au    c    0.458219    0.708189    0.272445     0.00000    1.000000    
     57 Au    c    0.458188    0.458187    0.272455     0.00000    1.000000    
     58 Au    c    0.458180    0.208256    0.272450     0.00000    1.000000    
     59 Au    c    0.458163    0.958260    0.272429     0.00000    1.000000    
     60 Au    c    0.208287    0.708180    0.272444     0.00000    1.000000    
     61 Au    c    0.208255    0.458178    0.272453     0.00000    1.000000    
     62 Au    c    0.208248    0.208248    0.272448     0.00000    1.000000    
     63 Au    c    0.208230    0.958251    0.272427     0.00000    1.000000    
     64 Au    c    0.958283    0.708148    0.272421     0.00000    1.000000    
     65 Au    c    0.958252    0.458146    0.272431     0.00000    1.000000    
     66 Au    c    0.958244    0.208216    0.272425     0.00000    1.000000    
     67 Au    c    0.958228    0.958220    0.272405     0.00000    1.000000    
--------------------------------------------------------------------------------



********************************************************************************
*  Input for Configuration =   7                                               *
********************************************************************************

  Formula = OH2Au64                                                     

  Number of irreducible atoms/shells =      67


  Total number atoms/shells =      67

  Dimensionality = 3               :  Bulk   



  Cartesian lattice vectors (Angstroms) :

       12.031364    0.000000    0.000000
       -6.015682   10.419462    0.000000
        0.000000    0.000000   27.070570

  Cell parameters (Angstroms/Degrees):

  a =      12.0314    alpha =  90.0000
  b =      12.0314    beta  =  90.0000
  c =      27.0706    gamma = 120.0000

  Initial cell volume =        3393.575905 Angs**3

  Temperature of configuration =  0.000     K 

  Pressure of configuration =         0.000 GPa 

  Fractional coordinates of asymmetric unit :

--------------------------------------------------------------------------------
   No.  Atomic       x           y          z         Charge      Occupancy
        Label      (Frac)      (Frac)     (Frac)        (e)         (Frac)  
--------------------------------------------------------------------------------
      1 O     c    0.415750    0.243992    0.371707     0.00000    1.000000    
      2 H     c    0.458184    0.333222    0.361080     0.00000    1.000000    
      3 H     c    0.384877    0.194769    0.341272     0.00000    1.000000    
      4 Au    c    0.708096    0.708096    0.000000     0.00000    1.000000    
      5 Au    c    0.708096    0.458180    0.000000     0.00000    1.000000    
      6 Au    c    0.708096    0.208264    0.000000     0.00000    1.000000    
      7 Au    c    0.708096    0.958347    0.000000     0.00000    1.000000    
      8 Au    c    0.458180    0.708096    0.000000     0.00000    1.000000    
      9 Au    c    0.458180    0.458180    0.000000     0.00000    1.000000    
     10 Au    c    0.458180    0.208264    0.000000     0.00000    1.000000    
     11 Au    c    0.458180    0.958347    0.000000     0.00000    1.000000    
     12 Au    c    0.208264    0.708096    0.000000     0.00000    1.000000    
     13 Au    c    0.208264    0.458180    0.000000     0.00000    1.000000    
     14 Au    c    0.208264    0.208264    0.000000     0.00000    1.000000    
     15 Au    c    0.208264    0.958347    0.000000     0.00000    1.000000    
     16 Au    c    0.958347    0.708096    0.000000     0.00000    1.000000    
     17 Au    c    0.958347    0.458180    0.000000     0.00000    1.000000    
     18 Au    c    0.958347    0.208264    0.000000     0.00000    1.000000    
     19 Au    c    0.958347    0.958347    0.000000     0.00000    1.000000    
     20 Au    c    0.874707    0.791402    0.090691     0.00000    1.000000    
     21 Au    c    0.874707    0.541486    0.090691     0.00000    1.000000    
     22 Au    c    0.874707    0.291569    0.090691     0.00000    1.000000    
     23 Au    c    0.874707    0.041653    0.090691     0.00000    1.000000    
     24 Au    c    0.624791    0.791402    0.090691     0.00000    1.000000    
     25 Au    c    0.624791    0.541486    0.090691     0.00000    1.000000    
     26 Au    c    0.624791    0.291569    0.090691     0.00000    1.000000    
     27 Au    c    0.624791    0.041653    0.090691     0.00000    1.000000    
     28 Au    c    0.374875    0.791402    0.090691     0.00000    1.000000    
     29 Au    c    0.374875    0.541486    0.090691     0.00000    1.000000    
     30 Au    c    0.374874    0.291569    0.090691     0.00000    1.000000    
     31 Au    c    0.374874    0.041653    0.090691     0.00000    1.000000    
     32 Au    c    0.124958    0.791402    0.090691     0.00000    1.000000    
     33 Au    c    0.124958    0.541486    0.090691     0.00000    1.000000    
     34 Au    c    0.124958    0.291569    0.090691     0.00000    1.000000    
     35 Au    c    0.124958    0.041653    0.090691     0.00000    1.000000    
     36 Au    c    0.791551    0.874870    0.180733     0.00000    1.000000    
     37 Au    c    0.791529    0.624857    0.180742     0.00000    1.000000    
     38 Au    c    0.791515    0.374916    0.180739     0.00000    1.000000    
     39 Au    c    0.791478    0.124902    0.180735     0.00000    1.000000    
     40 Au    c    0.541531    0.874829    0.180722     0.00000    1.000000    
     41 Au    c    0.541508    0.624816    0.180731     0.00000    1.000000    
     42 Au    c    0.541494    0.374874    0.180728     0.00000    1.000000    
     43 Au    c    0.541458    0.124861    0.180724     0.00000    1.000000    
     44 Au    c    0.291587    0.874814    0.180721     0.00000    1.000000    
     45 Au    c    0.291564    0.624801    0.180731     0.00000    1.000000    
     46 Au    c    0.291550    0.374859    0.180727     0.00000    1.000000    
     47 Au    c    0.291514    0.124846    0.180723     0.00000    1.000000    
     48 Au    c    0.041572    0.874777    0.180703     0.00000    1.000000    
     49 Au    c    0.041549    0.624764    0.180712     0.00000    1.000000    
     50 Au    c    0.041535    0.374823    0.180709     0.00000    1.000000    
     51 Au    c    0.041499    0.124810    0.180705     0.00000    1.000000    
     52 Au    c    0.708217    0.708218    0.272434     0.00000    1.000000    
     53 Au    c    0.708186    0.458216    0.272443     0.00000    1.000000    
     54 Au    c    0.708179    0.208286    0.272438     0.00000    1.000000    
     55 Au    c    0.708161    0.958290    0.272417     0.00000    1.000000    
     56 Au    c    0.458219    0.708189    0.272445     0.00000    1.000000    
     57 Au    c    0.458188    0.458187    0.272455     0.00000    1.000000    
     58 Au    c    0.458180    0.208256    0.272450     0.00000    1.000000    
     59 Au    c    0.458163    0.958260    0.272429     0.00000    1.000000    
     60 Au    c    0.208287    0.708180    0.272444     0.00000    1.000000    
     61 Au    c    0.208255    0.458178    0.272453     0.00000    1.000000    
     62 Au    c    0.208248    0.208248    0.272448     0.00000    1.000000    
     63 Au    c    0.208230    0.958251    0.272427     0.00000    1.000000    
     64 Au    c    0.958283    0.708148    0.272421     0.00000    1.000000    
     65 Au    c    0.958252    0.458146    0.272431     0.00000    1.000000    
     66 Au    c    0.958244    0.208216    0.272425     0.00000    1.000000    
     67 Au    c    0.958228    0.958220    0.272405     0.00000    1.000000    
--------------------------------------------------------------------------------



********************************************************************************
*  Input for Configuration =   8                                               *
********************************************************************************

  Formula = OH2Au64                                                     

  Number of irreducible atoms/shells =      67


  Total number atoms/shells =      67

  Dimensionality = 3               :  Bulk   



  Cartesian lattice vectors (Angstroms) :

       12.031364    0.000000    0.000000
       -6.015682   10.419462    0.000000
        0.000000    0.000000   27.070570

  Cell parameters (Angstroms/Degrees):

  a =      12.0314    alpha =  90.0000
  b =      12.0314    beta  =  90.0000
  c =      27.0706    gamma = 120.0000

  Initial cell volume =        3393.575905 Angs**3

  Temperature of configuration =  0.000     K 

  Pressure of configuration =         0.000 GPa 

  Fractional coordinates of asymmetric unit :

--------------------------------------------------------------------------------
   No.  Atomic       x           y          z         Charge      Occupancy
        Label      (Frac)      (Frac)     (Frac)        (e)         (Frac)  
--------------------------------------------------------------------------------
      1 O     c    0.485506    0.350965    0.472973     0.00000    1.000000    
      2 H     c    0.458184    0.333222    0.438629     0.00000    1.000000    
      3 H     c    0.407256    0.300164    0.491919     0.00000    1.000000    
      4 Au    c    0.708096    0.708096    0.000000     0.00000    1.000000    
      5 Au    c    0.708096    0.458180    0.000000     0.00000    1.000000    
      6 Au    c    0.708096    0.208264    0.000000     0.00000    1.000000    
      7 Au    c    0.708096    0.958347    0.000000     0.00000    1.000000    
      8 Au    c    0.458180    0.708096    0.000000     0.00000    1.000000    
      9 Au    c    0.458180    0.458180    0.000000     0.00000    1.000000    
     10 Au    c    0.458180    0.208264    0.000000     0.00000    1.000000    
     11 Au    c    0.458180    0.958347    0.000000     0.00000    1.000000    
     12 Au    c    0.208264    0.708096    0.000000     0.00000    1.000000    
     13 Au    c    0.208264    0.458180    0.000000     0.00000    1.000000    
     14 Au    c    0.208264    0.208264    0.000000     0.00000    1.000000    
     15 Au    c    0.208264    0.958347    0.000000     0.00000    1.000000    
     16 Au    c    0.958347    0.708096    0.000000     0.00000    1.000000    
     17 Au    c    0.958347    0.458180    0.000000     0.00000    1.000000    
     18 Au    c    0.958347    0.208264    0.000000     0.00000    1.000000    
     19 Au    c    0.958347    0.958347    0.000000     0.00000    1.000000    
     20 Au    c    0.874707    0.791402    0.090691     0.00000    1.000000    
     21 Au    c    0.874707    0.541486    0.090691     0.00000    1.000000    
     22 Au    c    0.874707    0.291569    0.090691     0.00000    1.000000    
     23 Au    c    0.874707    0.041653    0.090691     0.00000    1.000000    
     24 Au    c    0.624791    0.791402    0.090691     0.00000    1.000000    
     25 Au    c    0.624791    0.541486    0.090691     0.00000    1.000000    
     26 Au    c    0.624791    0.291569    0.090691     0.00000    1.000000    
     27 Au    c    0.624791    0.041653    0.090691     0.00000    1.000000    
     28 Au    c    0.374875    0.791402    0.090691     0.00000    1.000000    
     29 Au    c    0.374875    0.541486    0.090691     0.00000    1.000000    
     30 Au    c    0.374874    0.291569    0.090691     0.00000    1.000000    
     31 Au    c    0.374874    0.041653    0.090691     0.00000    1.000000    
     32 Au    c    0.124958    0.791402    0.090691     0.00000    1.000000    
     33 Au    c    0.124958    0.541486    0.090691     0.00000    1.000000    
     34 Au    c    0.124958    0.291569    0.090691     0.00000    1.000000    
     35 Au    c    0.124958    0.041653    0.090691     0.00000    1.000000    
     36 Au    c    0.791551    0.874870    0.180733     0.00000    1.000000    
     37 Au    c    0.791529    0.624857    0.180742     0.00000    1.000000    
     38 Au    c    0.791515    0.374916    0.180739     0.00000    1.000000    
     39 Au    c    0.791478    0.124902    0.180735     0.00000    1.000000    
     40 Au    c    0.541531    0.874829    0.180722     0.00000    1.000000    
     41 Au    c    0.541508    0.624816    0.180731     0.00000    1.000000    
     42 Au    c    0.541494    0.374874    0.180728     0.00000    1.000000    
     43 Au    c    0.541458    0.124861    0.180724     0.00000    1.000000    
     44 Au    c    0.291587    0.874814    0.180721     0.00000    1.000000    
     45 Au    c    0.291564    0.624801    0.180731     0.00000    1.000000    
     46 Au    c    0.291550    0.374859    0.180727     0.00000    1.000000    
     47 Au    c    0.291514    0.124846    0.180723     0.00000    1.000000    
     48 Au    c    0.041572    0.874777    0.180703     0.00000    1.000000    
     49 Au    c    0.041549    0.624764    0.180712     0.00000    1.000000    
     50 Au    c    0.041535    0.374823    0.180709     0.00000    1.000000    
     51 Au    c    0.041499    0.124810    0.180705     0.00000    1.000000    
     52 Au    c    0.708217    0.708218    0.272434     0.00000    1.000000    
     53 Au    c    0.708186    0.458216    0.272443     0.00000    1.000000    
     54 Au    c    0.708179    0.208286    0.272438     0.00000    1.000000    
     55 Au    c    0.708161    0.958290    0.272417     0.00000    1.000000    
     56 Au    c    0.458219    0.708189    0.272445     0.00000    1.000000    
     57 Au    c    0.458188    0.458187    0.272455     0.00000    1.000000    
     58 Au    c    0.458180    0.208256    0.272450     0.00000    1.000000    
     59 Au    c    0.458163    0.958260    0.272429     0.00000    1.000000    
     60 Au    c    0.208287    0.708180    0.272444     0.00000    1.000000    
     61 Au    c    0.208255    0.458178    0.272453     0.00000    1.000000    
     62 Au    c    0.208248    0.208248    0.272448     0.00000    1.000000    
     63 Au    c    0.208230    0.958251    0.272427     0.00000    1.000000    
     64 Au    c    0.958283    0.708148    0.272421     0.00000    1.000000    
     65 Au    c    0.958252    0.458146    0.272431     0.00000    1.000000    
     66 Au    c    0.958244    0.208216    0.272425     0.00000    1.000000    
     67 Au    c    0.958228    0.958220    0.272405     0.00000    1.000000    
--------------------------------------------------------------------------------



********************************************************************************
*  Input for Configuration =   9                                               *
********************************************************************************

  Formula = OH2Au64                                                     

  Number of irreducible atoms/shells =      67


  Total number atoms/shells =      67

  Dimensionality = 3               :  Bulk   



  Cartesian lattice vectors (Angstroms) :

       12.031364    0.000000    0.000000
       -6.015682   10.419462    0.000000
        0.000000    0.000000   27.070570

  Cell parameters (Angstroms/Degrees):

  a =      12.0314    alpha =  90.0000
  b =      12.0314    beta  =  90.0000
  c =      27.0706    gamma = 120.0000

  Initial cell volume =        3393.575905 Angs**3

  Temperature of configuration =  0.000     K 

  Pressure of configuration =         0.000 GPa 

  Fractional coordinates of asymmetric unit :

--------------------------------------------------------------------------------
   No.  Atomic       x           y          z         Charge      Occupancy
        Label      (Frac)      (Frac)     (Frac)        (e)         (Frac)  
--------------------------------------------------------------------------------
      1 O     c    0.432020    0.243992    0.445458     0.00000    1.000000    
      2 H     c    0.458184    0.333222    0.438629     0.00000    1.000000    
      3 H     c    0.354559    0.194769    0.425905     0.00000    1.000000    
      4 Au    c    0.708096    0.708096    0.000000     0.00000    1.000000    
      5 Au    c    0.708096    0.458180    0.000000     0.00000    1.000000    
      6 Au    c    0.708096    0.208264    0.000000     0.00000    1.000000    
      7 Au    c    0.708096    0.958347    0.000000     0.00000    1.000000    
      8 Au    c    0.458180    0.708096    0.000000     0.00000    1.000000    
      9 Au    c    0.458180    0.458180    0.000000     0.00000    1.000000    
     10 Au    c    0.458180    0.208264    0.000000     0.00000    1.000000    
     11 Au    c    0.458180    0.958347    0.000000     0.00000    1.000000    
     12 Au    c    0.208264    0.708096    0.000000     0.00000    1.000000    
     13 Au    c    0.208264    0.458180    0.000000     0.00000    1.000000    
     14 Au    c    0.208264    0.208264    0.000000     0.00000    1.000000    
     15 Au    c    0.208264    0.958347    0.000000     0.00000    1.000000    
     16 Au    c    0.958347    0.708096    0.000000     0.00000    1.000000    
     17 Au    c    0.958347    0.458180    0.000000     0.00000    1.000000    
     18 Au    c    0.958347    0.208264    0.000000     0.00000    1.000000    
     19 Au    c    0.958347    0.958347    0.000000     0.00000    1.000000    
     20 Au    c    0.874707    0.791402    0.090691     0.00000    1.000000    
     21 Au    c    0.874707    0.541486    0.090691     0.00000    1.000000    
     22 Au    c    0.874707    0.291569    0.090691     0.00000    1.000000    
     23 Au    c    0.874707    0.041653    0.090691     0.00000    1.000000    
     24 Au    c    0.624791    0.791402    0.090691     0.00000    1.000000    
     25 Au    c    0.624791    0.541486    0.090691     0.00000    1.000000    
     26 Au    c    0.624791    0.291569    0.090691     0.00000    1.000000    
     27 Au    c    0.624791    0.041653    0.090691     0.00000    1.000000    
     28 Au    c    0.374875    0.791402    0.090691     0.00000    1.000000    
     29 Au    c    0.374875    0.541486    0.090691     0.00000    1.000000    
     30 Au    c    0.374874    0.291569    0.090691     0.00000    1.000000    
     31 Au    c    0.374874    0.041653    0.090691     0.00000    1.000000    
     32 Au    c    0.124958    0.791402    0.090691     0.00000    1.000000    
     33 Au    c    0.124958    0.541486    0.090691     0.00000    1.000000    
     34 Au    c    0.124958    0.291569    0.090691     0.00000    1.000000    
     35 Au    c    0.124958    0.041653    0.090691     0.00000    1.000000    
     36 Au    c    0.791551    0.874870    0.180733     0.00000    1.000000    
     37 Au    c    0.791529    0.624857    0.180742     0.00000    1.000000    
     38 Au    c    0.791515    0.374916    0.180739     0.00000    1.000000    
     39 Au    c    0.791478    0.124902    0.180735     0.00000    1.000000    
     40 Au    c    0.541531    0.874829    0.180722     0.00000    1.000000    
     41 Au    c    0.541508    0.624816    0.180731     0.00000    1.000000    
     42 Au    c    0.541494    0.374874    0.180728     0.00000    1.000000    
     43 Au    c    0.541458    0.124861    0.180724     0.00000    1.000000    
     44 Au    c    0.291587    0.874814    0.180721     0.00000    1.000000    
     45 Au    c    0.291564    0.624801    0.180731     0.00000    1.000000    
     46 Au    c    0.291550    0.374859    0.180727     0.00000    1.000000    
     47 Au    c    0.291514    0.124846    0.180723     0.00000    1.000000    
     48 Au    c    0.041572    0.874777    0.180703     0.00000    1.000000    
     49 Au    c    0.041549    0.624764    0.180712     0.00000    1.000000    
     50 Au    c    0.041535    0.374823    0.180709     0.00000    1.000000    
     51 Au    c    0.041499    0.124810    0.180705     0.00000    1.000000    
     52 Au    c    0.708217    0.708218    0.272434     0.00000    1.000000    
     53 Au    c    0.708186    0.458216    0.272443     0.00000    1.000000    
     54 Au    c    0.708179    0.208286    0.272438     0.00000    1.000000    
     55 Au    c    0.708161    0.958290    0.272417     0.00000    1.000000    
     56 Au    c    0.458219    0.708189    0.272445     0.00000    1.000000    
     57 Au    c    0.458188    0.458187    0.272455     0.00000    1.000000    
     58 Au    c    0.458180    0.208256    0.272450     0.00000    1.000000    
     59 Au    c    0.458163    0.958260    0.272429     0.00000    1.000000    
     60 Au    c    0.208287    0.708180    0.272444     0.00000    1.000000    
     61 Au    c    0.208255    0.458178    0.272453     0.00000    1.000000    
     62 Au    c    0.208248    0.208248    0.272448     0.00000    1.000000    
     63 Au    c    0.208230    0.958251    0.272427     0.00000    1.000000    
     64 Au    c    0.958283    0.708148    0.272421     0.00000    1.000000    
     65 Au    c    0.958252    0.458146    0.272431     0.00000    1.000000    
     66 Au    c    0.958244    0.208216    0.272425     0.00000    1.000000    
     67 Au    c    0.958228    0.958220    0.272405     0.00000    1.000000    
--------------------------------------------------------------------------------



********************************************************************************
*  Input for Configuration =  10                                               *
********************************************************************************

  Formula = OH2Au64                                                     

  Number of irreducible atoms/shells =      67


  Total number atoms/shells =      67

  Dimensionality = 3               :  Bulk   



  Cartesian lattice vectors (Angstroms) :

       12.031364    0.000000    0.000000
       -6.015682   10.419462    0.000000
        0.000000    0.000000   27.070570

  Cell parameters (Angstroms/Degrees):

  a =      12.0314    alpha =  90.0000
  b =      12.0314    beta  =  90.0000
  c =      27.0706    gamma = 120.0000

  Initial cell volume =        3393.575905 Angs**3

  Temperature of configuration =  0.000     K 

  Pressure of configuration =         0.000 GPa 

  Fractional coordinates of asymmetric unit :

--------------------------------------------------------------------------------
   No.  Atomic       x           y          z         Charge      Occupancy
        Label      (Frac)      (Frac)     (Frac)        (e)         (Frac)  
--------------------------------------------------------------------------------
      1 O     c    0.474170    0.360833    0.472973     0.00000    1.000000    
      2 H     c    0.458184    0.333222    0.438629     0.00000    1.000000    
      3 H     c    0.428373    0.281760    0.491919     0.00000    1.000000    
      4 Au    c    0.708096    0.708096    0.000000     0.00000    1.000000    
      5 Au    c    0.708096    0.458180    0.000000     0.00000    1.000000    
      6 Au    c    0.708096    0.208264    0.000000     0.00000    1.000000    
      7 Au    c    0.708096    0.958347    0.000000     0.00000    1.000000    
      8 Au    c    0.458180    0.708096    0.000000     0.00000    1.000000    
      9 Au    c    0.458180    0.458180    0.000000     0.00000    1.000000    
     10 Au    c    0.458180    0.208264    0.000000     0.00000    1.000000    
     11 Au    c    0.458180    0.958347    0.000000     0.00000    1.000000    
     12 Au    c    0.208264    0.708096    0.000000     0.00000    1.000000    
     13 Au    c    0.208264    0.458180    0.000000     0.00000    1.000000    
     14 Au    c    0.208264    0.208264    0.000000     0.00000    1.000000    
     15 Au    c    0.208264    0.958347    0.000000     0.00000    1.000000    
     16 Au    c    0.958347    0.708096    0.000000     0.00000    1.000000    
     17 Au    c    0.958347    0.458180    0.000000     0.00000    1.000000    
     18 Au    c    0.958347    0.208264    0.000000     0.00000    1.000000    
     19 Au    c    0.958347    0.958347    0.000000     0.00000    1.000000    
     20 Au    c    0.874707    0.791402    0.090691     0.00000    1.000000    
     21 Au    c    0.874707    0.541486    0.090691     0.00000    1.000000    
     22 Au    c    0.874707    0.291569    0.090691     0.00000    1.000000    
     23 Au    c    0.874707    0.041653    0.090691     0.00000    1.000000    
     24 Au    c    0.624791    0.791402    0.090691     0.00000    1.000000    
     25 Au    c    0.624791    0.541486    0.090691     0.00000    1.000000    
     26 Au    c    0.624791    0.291569    0.090691     0.00000    1.000000    
     27 Au    c    0.624791    0.041653    0.090691     0.00000    1.000000    
     28 Au    c    0.374875    0.791402    0.090691     0.00000    1.000000    
     29 Au    c    0.374875    0.541486    0.090691     0.00000    1.000000    
     30 Au    c    0.374874    0.291569    0.090691     0.00000    1.000000    
     31 Au    c    0.374874    0.041653    0.090691     0.00000    1.000000    
     32 Au    c    0.124958    0.791402    0.090691     0.00000    1.000000    
     33 Au    c    0.124958    0.541486    0.090691     0.00000    1.000000    
     34 Au    c    0.124958    0.291569    0.090691     0.00000    1.000000    
     35 Au    c    0.124958    0.041653    0.090691     0.00000    1.000000    
     36 Au    c    0.791551    0.874870    0.180733     0.00000    1.000000    
     37 Au    c    0.791529    0.624857    0.180742     0.00000    1.000000    
     38 Au    c    0.791515    0.374916    0.180739     0.00000    1.000000    
     39 Au    c    0.791478    0.124902    0.180735     0.00000    1.000000    
     40 Au    c    0.541531    0.874829    0.180722     0.00000    1.000000    
     41 Au    c    0.541508    0.624816    0.180731     0.00000    1.000000    
     42 Au    c    0.541494    0.374874    0.180728     0.00000    1.000000    
     43 Au    c    0.541458    0.124861    0.180724     0.00000    1.000000    
     44 Au    c    0.291587    0.874814    0.180721     0.00000    1.000000    
     45 Au    c    0.291564    0.624801    0.180731     0.00000    1.000000    
     46 Au    c    0.291550    0.374859    0.180727     0.00000    1.000000    
     47 Au    c    0.291514    0.124846    0.180723     0.00000    1.000000    
     48 Au    c    0.041572    0.874777    0.180703     0.00000    1.000000    
     49 Au    c    0.041549    0.624764    0.180712     0.00000    1.000000    
     50 Au    c    0.041535    0.374823    0.180709     0.00000    1.000000    
     51 Au    c    0.041499    0.124810    0.180705     0.00000    1.000000    
     52 Au    c    0.708217    0.708218    0.272434     0.00000    1.000000    
     53 Au    c    0.708186    0.458216    0.272443     0.00000    1.000000    
     54 Au    c    0.708179    0.208286    0.272438     0.00000    1.000000    
     55 Au    c    0.708161    0.958290    0.272417     0.00000    1.000000    
     56 Au    c    0.458219    0.708189    0.272445     0.00000    1.000000    
     57 Au    c    0.458188    0.458187    0.272455     0.00000    1.000000    
     58 Au    c    0.458180    0.208256    0.272450     0.00000    1.000000    
     59 Au    c    0.458163    0.958260    0.272429     0.00000    1.000000    
     60 Au    c    0.208287    0.708180    0.272444     0.00000    1.000000    
     61 Au    c    0.208255    0.458178    0.272453     0.00000    1.000000    
     62 Au    c    0.208248    0.208248    0.272448     0.00000    1.000000    
     63 Au    c    0.208230    0.958251    0.272427     0.00000    1.000000    
     64 Au    c    0.958283    0.708148    0.272421     0.00000    1.000000    
     65 Au    c    0.958252    0.458146    0.272431     0.00000    1.000000    
     66 Au    c    0.958244    0.208216    0.272425     0.00000    1.000000    
     67 Au    c    0.958228    0.958220    0.272405     0.00000    1.000000    
--------------------------------------------------------------------------------



********************************************************************************
*  Input for Configuration =  11                                               *
********************************************************************************

  Formula = OH2Au64                                                     

  Number of irreducible atoms/shells =      67


  Total number atoms/shells =      67

  Dimensionality = 3               :  Bulk   



  Cartesian lattice vectors (Angstroms) :

       12.031364    0.000000    0.000000
       -6.015682   10.419462    0.000000
        0.000000    0.000000   27.070570

  Cell parameters (Angstroms/Degrees):

  a =      12.0314    alpha =  90.0000
  b =      12.0314    beta  =  90.0000
  c =      27.0706    gamma = 120.0000

  Initial cell volume =        3393.575905 Angs**3

  Temperature of configuration =  0.000     K 

  Pressure of configuration =         0.000 GPa 

  Fractional coordinates of asymmetric unit :

--------------------------------------------------------------------------------
   No.  Atomic       x           y          z         Charge      Occupancy
        Label      (Frac)      (Frac)     (Frac)        (e)         (Frac)  
--------------------------------------------------------------------------------
      1 O     c    0.415750    0.243992    0.449256     0.00000    1.000000    
      2 H     c    0.458184    0.333222    0.438629     0.00000    1.000000    
      3 H     c    0.384877    0.194769    0.418821     0.00000    1.000000    
      4 Au    c    0.708096    0.708096    0.000000     0.00000    1.000000    
      5 Au    c    0.708096    0.458180    0.000000     0.00000    1.000000    
      6 Au    c    0.708096    0.208264    0.000000     0.00000    1.000000    
      7 Au    c    0.708096    0.958347    0.000000     0.00000    1.000000    
      8 Au    c    0.458180    0.708096    0.000000     0.00000    1.000000    
      9 Au    c    0.458180    0.458180    0.000000     0.00000    1.000000    
     10 Au    c    0.458180    0.208264    0.000000     0.00000    1.000000    
     11 Au    c    0.458180    0.958347    0.000000     0.00000    1.000000    
     12 Au    c    0.208264    0.708096    0.000000     0.00000    1.000000    
     13 Au    c    0.208264    0.458180    0.000000     0.00000    1.000000    
     14 Au    c    0.208264    0.208264    0.000000     0.00000    1.000000    
     15 Au    c    0.208264    0.958347    0.000000     0.00000    1.000000    
     16 Au    c    0.958347    0.708096    0.000000     0.00000    1.000000    
     17 Au    c    0.958347    0.458180    0.000000     0.00000    1.000000    
     18 Au    c    0.958347    0.208264    0.000000     0.00000    1.000000    
     19 Au    c    0.958347    0.958347    0.000000     0.00000    1.000000    
     20 Au    c    0.874707    0.791402    0.090691     0.00000    1.000000    
     21 Au    c    0.874707    0.541486    0.090691     0.00000    1.000000    
     22 Au    c    0.874707    0.291569    0.090691     0.00000    1.000000    
     23 Au    c    0.874707    0.041653    0.090691     0.00000    1.000000    
     24 Au    c    0.624791    0.791402    0.090691     0.00000    1.000000    
     25 Au    c    0.624791    0.541486    0.090691     0.00000    1.000000    
     26 Au    c    0.624791    0.291569    0.090691     0.00000    1.000000    
     27 Au    c    0.624791    0.041653    0.090691     0.00000    1.000000    
     28 Au    c    0.374875    0.791402    0.090691     0.00000    1.000000    
     29 Au    c    0.374875    0.541486    0.090691     0.00000    1.000000    
     30 Au    c    0.374874    0.291569    0.090691     0.00000    1.000000    
     31 Au    c    0.374874    0.041653    0.090691     0.00000    1.000000    
     32 Au    c    0.124958    0.791402    0.090691     0.00000    1.000000    
     33 Au    c    0.124958    0.541486    0.090691     0.00000    1.000000    
     34 Au    c    0.124958    0.291569    0.090691     0.00000    1.000000    
     35 Au    c    0.124958    0.041653    0.090691     0.00000    1.000000    
     36 Au    c    0.791551    0.874870    0.180733     0.00000    1.000000    
     37 Au    c    0.791529    0.624857    0.180742     0.00000    1.000000    
     38 Au    c    0.791515    0.374916    0.180739     0.00000    1.000000    
     39 Au    c    0.791478    0.124902    0.180735     0.00000    1.000000    
     40 Au    c    0.541531    0.874829    0.180722     0.00000    1.000000    
     41 Au    c    0.541508    0.624816    0.180731     0.00000    1.000000    
     42 Au    c    0.541494    0.374874    0.180728     0.00000    1.000000    
     43 Au    c    0.541458    0.124861    0.180724     0.00000    1.000000    
     44 Au    c    0.291587    0.874814    0.180721     0.00000    1.000000    
     45 Au    c    0.291564    0.624801    0.180731     0.00000    1.000000    
     46 Au    c    0.291550    0.374859    0.180727     0.00000    1.000000    
     47 Au    c    0.291514    0.124846    0.180723     0.00000    1.000000    
     48 Au    c    0.041572    0.874777    0.180703     0.00000    1.000000    
     49 Au    c    0.041549    0.624764    0.180712     0.00000    1.000000    
     50 Au    c    0.041535    0.374823    0.180709     0.00000    1.000000    
     51 Au    c    0.041499    0.124810    0.180705     0.00000    1.000000    
     52 Au    c    0.708217    0.708218    0.272434     0.00000    1.000000    
     53 Au    c    0.708186    0.458216    0.272443     0.00000    1.000000    
     54 Au    c    0.708179    0.208286    0.272438     0.00000    1.000000    
     55 Au    c    0.708161    0.958290    0.272417     0.00000    1.000000    
     56 Au    c    0.458219    0.708189    0.272445     0.00000    1.000000    
     57 Au    c    0.458188    0.458187    0.272455     0.00000    1.000000    
     58 Au    c    0.458180    0.208256    0.272450     0.00000    1.000000    
     59 Au    c    0.458163    0.958260    0.272429     0.00000    1.000000    
     60 Au    c    0.208287    0.708180    0.272444     0.00000    1.000000    
     61 Au    c    0.208255    0.458178    0.272453     0.00000    1.000000    
     62 Au    c    0.208248    0.208248    0.272448     0.00000    1.000000    
     63 Au    c    0.208230    0.958251    0.272427     0.00000    1.000000    
     64 Au    c    0.958283    0.708148    0.272421     0.00000    1.000000    
     65 Au    c    0.958252    0.458146    0.272431     0.00000    1.000000    
     66 Au    c    0.958244    0.208216    0.272425     0.00000    1.000000    
     67 Au    c    0.958228    0.958220    0.272405     0.00000    1.000000    
--------------------------------------------------------------------------------



********************************************************************************
*  Input for Configuration =  12                                               *
********************************************************************************

  Formula = OH2Au64                                                     

  Number of irreducible atoms/shells =      67


  Total number atoms/shells =      67

  Dimensionality = 3               :  Bulk   



  Cartesian lattice vectors (Angstroms) :

       12.031364    0.000000    0.000000
       -6.015682   10.419462    0.000000
        0.000000    0.000000   27.070570

  Cell parameters (Angstroms/Degrees):

  a =      12.0314    alpha =  90.0000
  b =      12.0314    beta  =  90.0000
  c =      27.0706    gamma = 120.0000

  Initial cell volume =        3393.575905 Angs**3

  Temperature of configuration =  0.000     K 

  Pressure of configuration =         0.000 GPa 

  Fractional coordinates of asymmetric unit :

--------------------------------------------------------------------------------
   No.  Atomic       x           y          z         Charge      Occupancy
        Label      (Frac)      (Frac)     (Frac)        (e)         (Frac)  
--------------------------------------------------------------------------------
      1 O     c    0.458184    0.333222    0.364773     0.00000    1.000000    
      2 H     c    0.384263    0.285246    0.386219     0.00000    1.000000    
      3 H     c    0.529874    0.379764    0.387333     0.00000    1.000000    
      4 Au    c    0.708096    0.708096    0.000000     0.00000    1.000000    
      5 Au    c    0.708096    0.458180    0.000000     0.00000    1.000000    
      6 Au    c    0.708096    0.208264    0.000000     0.00000    1.000000    
      7 Au    c    0.708096    0.958347    0.000000     0.00000    1.000000    
      8 Au    c    0.458180    0.708096    0.000000     0.00000    1.000000    
      9 Au    c    0.458180    0.458180    0.000000     0.00000    1.000000    
     10 Au    c    0.458180    0.208264    0.000000     0.00000    1.000000    
     11 Au    c    0.458180    0.958347    0.000000     0.00000    1.000000    
     12 Au    c    0.208264    0.708096    0.000000     0.00000    1.000000    
     13 Au    c    0.208264    0.458180    0.000000     0.00000    1.000000    
     14 Au    c    0.208264    0.208264    0.000000     0.00000    1.000000    
     15 Au    c    0.208264    0.958347    0.000000     0.00000    1.000000    
     16 Au    c    0.958347    0.708096    0.000000     0.00000    1.000000    
     17 Au    c    0.958347    0.458180    0.000000     0.00000    1.000000    
     18 Au    c    0.958347    0.208264    0.000000     0.00000    1.000000    
     19 Au    c    0.958347    0.958347    0.000000     0.00000    1.000000    
     20 Au    c    0.874707    0.791402    0.090691     0.00000    1.000000    
     21 Au    c    0.874707    0.541486    0.090691     0.00000    1.000000    
     22 Au    c    0.874707    0.291569    0.090691     0.00000    1.000000    
     23 Au    c    0.874707    0.041653    0.090691     0.00000    1.000000    
     24 Au    c    0.624791    0.791402    0.090691     0.00000    1.000000    
     25 Au    c    0.624791    0.541486    0.090691     0.00000    1.000000    
     26 Au    c    0.624791    0.291569    0.090691     0.00000    1.000000    
     27 Au    c    0.624791    0.041653    0.090691     0.00000    1.000000    
     28 Au    c    0.374875    0.791402    0.090691     0.00000    1.000000    
     29 Au    c    0.374875    0.541486    0.090691     0.00000    1.000000    
     30 Au    c    0.374874    0.291569    0.090691     0.00000    1.000000    
     31 Au    c    0.374874    0.041653    0.090691     0.00000    1.000000    
     32 Au    c    0.124958    0.791402    0.090691     0.00000    1.000000    
     33 Au    c    0.124958    0.541486    0.090691     0.00000    1.000000    
     34 Au    c    0.124958    0.291569    0.090691     0.00000    1.000000    
     35 Au    c    0.124958    0.041653    0.090691     0.00000    1.000000    
     36 Au    c    0.791551    0.874870    0.180733     0.00000    1.000000    
     37 Au    c    0.791529    0.624857    0.180742     0.00000    1.000000    
     38 Au    c    0.791515    0.374916    0.180739     0.00000    1.000000    
     39 Au    c    0.791478    0.124902    0.180735     0.00000    1.000000    
     40 Au    c    0.541531    0.874829    0.180722     0.00000    1.000000    
     41 Au    c    0.541508    0.624816    0.180731     0.00000    1.000000    
     42 Au    c    0.541494    0.374874    0.180728     0.00000    1.000000    
     43 Au    c    0.541458    0.124861    0.180724     0.00000    1.000000    
[...]
--------------------------------------------------------------------------------
  Total lattice energy       =             -12.0004 kJ/(mole unit cells)
--------------------------------------------------------------------------------

********************************************************************************
*  Output for configuration 155                                                *
********************************************************************************


  Components of energy : 

--------------------------------------------------------------------------------
  Interatomic potentials     =          -0.16077194 eV
  Monopole - monopole (real) =           0.00000000 eV
  Monopole - monopole (recip)=           0.00000000 eV
  Monopole - monopole (total)=           0.00000000 eV
--------------------------------------------------------------------------------
  Total lattice energy       =          -0.16077194 eV
--------------------------------------------------------------------------------
  Total lattice energy       =             -15.5120 kJ/(mole unit cells)
--------------------------------------------------------------------------------

********************************************************************************
*  Output for configuration 156                                                *
********************************************************************************


  Components of energy : 

--------------------------------------------------------------------------------
  Interatomic potentials     =          -0.12197070 eV
  Monopole - monopole (real) =           0.00000000 eV
  Monopole - monopole (recip)=           0.00000000 eV
  Monopole - monopole (total)=           0.00000000 eV
--------------------------------------------------------------------------------
  Total lattice energy       =          -0.12197070 eV
--------------------------------------------------------------------------------
  Total lattice energy       =             -11.7683 kJ/(mole unit cells)
--------------------------------------------------------------------------------

********************************************************************************
*  Output for configuration 157                                                *
********************************************************************************


  Components of energy : 

--------------------------------------------------------------------------------
  Interatomic potentials     =          -0.10655588 eV
  Monopole - monopole (real) =           0.00000000 eV
  Monopole - monopole (recip)=           0.00000000 eV
  Monopole - monopole (total)=           0.00000000 eV
--------------------------------------------------------------------------------
  Total lattice energy       =          -0.10655588 eV
--------------------------------------------------------------------------------
  Total lattice energy       =             -10.2810 kJ/(mole unit cells)
--------------------------------------------------------------------------------

********************************************************************************
*  Output for configuration 158                                                *
********************************************************************************


  Components of energy : 

--------------------------------------------------------------------------------
  Interatomic potentials     =          -0.16756062 eV
  Monopole - monopole (real) =           0.00000000 eV
  Monopole - monopole (recip)=           0.00000000 eV
  Monopole - monopole (total)=           0.00000000 eV
--------------------------------------------------------------------------------
  Total lattice energy       =          -0.16756062 eV
--------------------------------------------------------------------------------
  Total lattice energy       =             -16.1670 kJ/(mole unit cells)
--------------------------------------------------------------------------------

********************************************************************************
*  Output for configuration 159                                                *
********************************************************************************


  Components of energy : 

--------------------------------------------------------------------------------
  Interatomic potentials     =          -0.16294075 eV
  Monopole - monopole (real) =           0.00000000 eV
  Monopole - monopole (recip)=           0.00000000 eV
  Monopole - monopole (total)=           0.00000000 eV
--------------------------------------------------------------------------------
  Total lattice energy       =          -0.16294075 eV
--------------------------------------------------------------------------------
  Total lattice energy       =             -15.7213 kJ/(mole unit cells)
--------------------------------------------------------------------------------

********************************************************************************
*  Output for configuration 160                                                *
********************************************************************************


  Components of energy : 

--------------------------------------------------------------------------------
  Interatomic potentials     =          -0.16311134 eV
  Monopole - monopole (real) =           0.00000000 eV
  Monopole - monopole (recip)=           0.00000000 eV
  Monopole - monopole (total)=           0.00000000 eV
--------------------------------------------------------------------------------
  Total lattice energy       =          -0.16311134 eV
--------------------------------------------------------------------------------
  Total lattice energy       =             -15.7378 kJ/(mole unit cells)
--------------------------------------------------------------------------------

********************************************************************************
*  Output for configuration 161                                                *
********************************************************************************


  Components of energy : 

--------------------------------------------------------------------------------
  Interatomic potentials     =          -0.15747036 eV
  Monopole - monopole (real) =           0.00000000 eV
  Monopole - monopole (recip)=           0.00000000 eV
  Monopole - monopole (total)=           0.00000000 eV
--------------------------------------------------------------------------------
  Total lattice energy       =          -0.15747036 eV
--------------------------------------------------------------------------------
  Total lattice energy       =             -15.1935 kJ/(mole unit cells)
--------------------------------------------------------------------------------

********************************************************************************
*  Output for configuration 162                                                *
********************************************************************************


  Components of energy : 

--------------------------------------------------------------------------------
  Interatomic potentials     =          -0.16185898 eV
  Monopole - monopole (real) =           0.00000000 eV
  Monopole - monopole (recip)=           0.00000000 eV
  Monopole - monopole (total)=           0.00000000 eV
--------------------------------------------------------------------------------
  Total lattice energy       =          -0.16185898 eV
--------------------------------------------------------------------------------
  Total lattice energy       =             -15.6169 kJ/(mole unit cells)
--------------------------------------------------------------------------------

********************************************************************************
*  Output for configuration 163                                                *
********************************************************************************


  Components of energy : 

--------------------------------------------------------------------------------
  Interatomic potentials     =          -0.16311144 eV
  Monopole - monopole (real) =           0.00000000 eV
  Monopole - monopole (recip)=           0.00000000 eV
  Monopole - monopole (total)=           0.00000000 eV
--------------------------------------------------------------------------------
  Total lattice energy       =          -0.16311144 eV
--------------------------------------------------------------------------------
  Total lattice energy       =             -15.7378 kJ/(mole unit cells)
--------------------------------------------------------------------------------

********************************************************************************
*  Output for configuration 164                                                *
********************************************************************************


  Components of energy : 

--------------------------------------------------------------------------------
  Interatomic potentials     =          -0.15751987 eV
  Monopole - monopole (real) =           0.00000000 eV
  Monopole - monopole (recip)=           0.00000000 eV
  Monopole - monopole (total)=           0.00000000 eV
--------------------------------------------------------------------------------
  Total lattice energy       =          -0.15751987 eV
--------------------------------------------------------------------------------
  Total lattice energy       =             -15.1983 kJ/(mole unit cells)
--------------------------------------------------------------------------------

********************************************************************************
*  Output for configuration 165                                                *
********************************************************************************


  Components of energy : 

--------------------------------------------------------------------------------
  Interatomic potentials     =          -0.15721193 eV
  Monopole - monopole (real) =           0.00000000 eV
  Monopole - monopole (recip)=           0.00000000 eV
  Monopole - monopole (total)=           0.00000000 eV
--------------------------------------------------------------------------------
  Total lattice energy       =          -0.15721193 eV
--------------------------------------------------------------------------------
  Total lattice energy       =             -15.1685 kJ/(mole unit cells)
--------------------------------------------------------------------------------

********************************************************************************
*  Output for configuration 166                                                *
********************************************************************************


  Components of energy : 

--------------------------------------------------------------------------------
  Interatomic potentials     =          -0.16313584 eV
  Monopole - monopole (real) =           0.00000000 eV
  Monopole - monopole (recip)=           0.00000000 eV
  Monopole - monopole (total)=           0.00000000 eV
--------------------------------------------------------------------------------
  Total lattice energy       =          -0.16313584 eV
--------------------------------------------------------------------------------
  Total lattice energy       =             -15.7401 kJ/(mole unit cells)
--------------------------------------------------------------------------------

********************************************************************************
*  Output for configuration 167                                                *
********************************************************************************


  Components of energy : 

--------------------------------------------------------------------------------
  Interatomic potentials     =          -0.15757034 eV
  Monopole - monopole (real) =           0.00000000 eV
  Monopole - monopole (recip)=           0.00000000 eV
  Monopole - monopole (total)=           0.00000000 eV
--------------------------------------------------------------------------------
  Total lattice energy       =          -0.15757034 eV
--------------------------------------------------------------------------------
  Total lattice energy       =             -15.2031 kJ/(mole unit cells)
--------------------------------------------------------------------------------

********************************************************************************
*  Output for configuration 168                                                *
********************************************************************************


  Components of energy : 

--------------------------------------------------------------------------------
  Interatomic potentials     =          -0.15417984 eV
  Monopole - monopole (real) =           0.00000000 eV
  Monopole - monopole (recip)=           0.00000000 eV
  Monopole - monopole (total)=           0.00000000 eV
--------------------------------------------------------------------------------
  Total lattice energy       =          -0.15417984 eV
--------------------------------------------------------------------------------
  Total lattice energy       =             -14.8760 kJ/(mole unit cells)
--------------------------------------------------------------------------------

********************************************************************************
*  Output for configuration 169                                                *
********************************************************************************


  Components of energy : 

--------------------------------------------------------------------------------
  Interatomic potentials     =          -0.15116232 eV
  Monopole - monopole (real) =           0.00000000 eV
  Monopole - monopole (recip)=           0.00000000 eV
  Monopole - monopole (total)=           0.00000000 eV
--------------------------------------------------------------------------------
  Total lattice energy       =          -0.15116232 eV
--------------------------------------------------------------------------------
  Total lattice energy       =             -14.5849 kJ/(mole unit cells)
--------------------------------------------------------------------------------

********************************************************************************
*  Output for configuration 170                                                *
********************************************************************************


  Components of energy : 

--------------------------------------------------------------------------------
  Interatomic potentials     =          -0.15144574 eV
  Monopole - monopole (real) =           0.00000000 eV
  Monopole - monopole (recip)=           0.00000000 eV
  Monopole - monopole (total)=           0.00000000 eV
--------------------------------------------------------------------------------
  Total lattice energy       =          -0.15144574 eV
--------------------------------------------------------------------------------
  Total lattice energy       =             -14.6122 kJ/(mole unit cells)
--------------------------------------------------------------------------------

********************************************************************************
*  Output for configuration 171                                                *
********************************************************************************


  Components of energy : 

--------------------------------------------------------------------------------
  Interatomic potentials     =          -0.13850006 eV
  Monopole - monopole (real) =           0.00000000 eV
  Monopole - monopole (recip)=           0.00000000 eV
  Monopole - monopole (total)=           0.00000000 eV
--------------------------------------------------------------------------------
  Total lattice energy       =          -0.13850006 eV
--------------------------------------------------------------------------------
  Total lattice energy       =             -13.3631 kJ/(mole unit cells)
--------------------------------------------------------------------------------

********************************************************************************
*  Output for configuration 172                                                *
********************************************************************************


  Components of energy : 

--------------------------------------------------------------------------------
  Interatomic potentials     =          -0.13947301 eV
  Monopole - monopole (real) =           0.00000000 eV
  Monopole - monopole (recip)=           0.00000000 eV
  Monopole - monopole (total)=           0.00000000 eV
--------------------------------------------------------------------------------
  Total lattice energy       =          -0.13947301 eV
--------------------------------------------------------------------------------
  Total lattice energy       =             -13.4570 kJ/(mole unit cells)
--------------------------------------------------------------------------------

********************************************************************************
*  Output for configuration 173                                                *
********************************************************************************


  Components of energy : 

--------------------------------------------------------------------------------
  Interatomic potentials     =          -0.12749241 eV
  Monopole - monopole (real) =           0.00000000 eV
  Monopole - monopole (recip)=           0.00000000 eV
  Monopole - monopole (total)=           0.00000000 eV
--------------------------------------------------------------------------------
  Total lattice energy       =          -0.12749241 eV
--------------------------------------------------------------------------------
  Total lattice energy       =             -12.3011 kJ/(mole unit cells)
--------------------------------------------------------------------------------

********************************************************************************
*  Output for configuration 174                                                *
********************************************************************************


  Components of energy : 

--------------------------------------------------------------------------------
  Interatomic potentials     =          -0.12873377 eV
  Monopole - monopole (real) =           0.00000000 eV
  Monopole - monopole (recip)=           0.00000000 eV
  Monopole - monopole (total)=           0.00000000 eV
--------------------------------------------------------------------------------
  Total lattice energy       =          -0.12873377 eV
--------------------------------------------------------------------------------
  Total lattice energy       =             -12.4208 kJ/(mole unit cells)
--------------------------------------------------------------------------------

  Peak dynamic memory used =       5.73 MB 


  Timing analysis for GULP :

--------------------------------------------------------------------------------
  Task / Subroutine                                          Time (Seconds)
--------------------------------------------------------------------------------
  Calculation of real space energy and derivatives               53.4826
  Sum of squares for fitting                                      1.1325
  Global summation overhead                                       0.0202
--------------------------------------------------------------------------------
  Total CPU time                                                 54.9589
--------------------------------------------------------------------------------


  Job Finished at 17:36.46  6th April      2016                               

