Setting SGE environment for SCC

     Program PWSCF v.5.1.2 starts on 22Jun2015 at 10:16:10 

     This program is part of the open-source Quantum ESPRESSO suite
     for quantum simulation of materials; please cite
         "P. Giannozzi et al., J. Phys.:Condens. Matter 21 395502 (2009);
          URL http://www.quantum-espresso.org", 
     in publications or presentations arising from this work. More details at
     http://www.quantum-espresso.org/quote

     Parallel version (MPI), running on    32 processors
     R & G space division:  proc/nbgrp/npool/nimage =      32
     Waiting for input...
     Reading input from standard input
Warning: card &CELL ignored
Warning: card / ignored

     Current dimensions of program PWSCF are:
     Max number of different atomic species (ntypx) = 10
     Max number of k-points (npk) =  40000
     Max angular momentum in pseudopotentials (lmaxx) =  3

     IMPORTANT: XC functional enforced from input :
     Exchange-correlation      = VDW-DF ( 1  4  4  0 1 0)
     Any further DFT definition will be discarded
     Please, verify this is what you really want


     Subspace diagonalization in iterative solution of the eigenvalue problem:
     a serial algorithm will be used


     Parallelization info
     --------------------
     sticks:   dense  smooth     PW     G-vecs:    dense   smooth      PW
     Min         578     289     74               118518    41891    5486
     Max         579     290     75               118533    41932    5497
     Sum       18505    9265   2385              3792731  1341081  175711


     Title: 
     GOLD                                                                       


     bravais-lattice index     =            8
     lattice parameter (alat)  =      24.1233  a.u.
     unit-cell volume          =   28076.2361 (a.u.)^3
     number of atoms/cell      =           72
     number of atomic types    =            1
     number of electrons       =       792.00
     number of Kohn-Sham states=          475
     kinetic-energy cutoff     =      50.0000  Ry
     charge density cutoff     =     400.0000  Ry
     convergence threshold     =      1.0E-08
     mixing beta               =       0.7000
     number of iterations used =            8  plain     mixing
     Exchange-correlation      = VDW-DF ( 1  4  4  0 1 0)
     nstep                     =           50


     celldm(1)=  24.123277  celldm(2)=   1.000000  celldm(3)=   2.000000
     celldm(4)=   0.000000  celldm(5)=   0.000000  celldm(6)=   0.000000

     crystal axes: (cart. coord. in units of alat)
               a(1) = (   1.000000   0.000000   0.000000 )  
               a(2) = (   0.000000   1.000000   0.000000 )  
               a(3) = (   0.000000   0.000000   2.000000 )  

     reciprocal axes: (cart. coord. in units 2 pi/alat)
               b(1) = (  1.000000  0.000000  0.000000 )  
               b(2) = (  0.000000  1.000000  0.000000 )  
               b(3) = (  0.000000  0.000000  0.500000 )  


     PseudoPot. # 1 for Au read from file:
     /home/scc/andrejb/qe/pseudo/Au.pbe-nd-van.UPF
     MD5 check sum: 458681b50f36d87ef23c61b04bba420a
     Pseudo is Ultrasoft + core correction, Zval = 11.0
     Generated by new atomic code, or converted to UPF format
     Using radial grid of  985 points,  3 beta functions with: 
                l(1) =   1
                l(2) =   2
                l(3) =   2
     Q(r) pseudized with  8 coefficients,  rinner =    1.100   1.100   1.100
                                                       1.100   1.100

     vdW kernel table read from file vdW_kernel_table
     MD5 check sum: 48e77a2e26edf626eeb0eaa751ad5cac

     atomic species   valence    mass     pseudopotential
        Au            11.00   196.96657     Au( 1.00)

      2 Sym. Ops. (no inversion) found
          (note:  2 additional sym.ops. were found but ignored
           their fractional translations are incommensurate with FFT grid)


   Cartesian axes

     site n.     atom                  positions (alat units)
         1           Au  tau(   1) = (   0.0000000   0.0000000   0.0000000  )
         2           Au  tau(   2) = (   0.3332217   0.0000000   0.0000000  )
         3           Au  tau(   3) = (   0.6664435   0.0000000   0.0000000  )
         4           Au  tau(   4) = (   0.1666109   0.1666109   0.0000000  )
         5           Au  tau(   5) = (   0.4998326   0.1666109   0.0000000  )
         6           Au  tau(   6) = (   0.8330542   0.1666109   0.0000000  )
         7           Au  tau(   7) = (   0.0000000   0.3332217   0.0000000  )
         8           Au  tau(   8) = (   0.3332217   0.3332217   0.0000000  )
         9           Au  tau(   9) = (   0.6664435   0.3332217   0.0000000  )
        10           Au  tau(  10) = (   0.1666109   0.4998326   0.0000000  )
        11           Au  tau(  11) = (   0.4998326   0.4998326   0.0000000  )
        12           Au  tau(  12) = (   0.8330542   0.4998326   0.0000000  )
        13           Au  tau(  13) = (   0.0000000   0.6664435   0.0000000  )
        14           Au  tau(  14) = (   0.3332217   0.6664435   0.0000000  )
        15           Au  tau(  15) = (   0.6664435   0.6664435   0.0000000  )
        16           Au  tau(  16) = (   0.1666109   0.8330542   0.0000000  )
        17           Au  tau(  17) = (   0.4998326   0.8330542   0.0000000  )
        18           Au  tau(  18) = (   0.8330542   0.8330542   0.0000000  )
        19           Au  tau(  19) = (   0.1666109   0.0000000   0.1666109  )
        20           Au  tau(  20) = (   0.4998326   0.0000000   0.1666109  )
        21           Au  tau(  21) = (   0.8330542   0.0000000   0.1666109  )
        22           Au  tau(  22) = (   0.0000000   0.1666109   0.1666109  )
        23           Au  tau(  23) = (   0.3332217   0.1666109   0.1666109  )
        24           Au  tau(  24) = (   0.6664435   0.1666109   0.1666109  )
        25           Au  tau(  25) = (   0.1666109   0.3332217   0.1666109  )
        26           Au  tau(  26) = (   0.4998326   0.3332217   0.1666109  )
        27           Au  tau(  27) = (   0.8330542   0.3332217   0.1666109  )
        28           Au  tau(  28) = (   0.0000000   0.4998326   0.1666109  )
        29           Au  tau(  29) = (   0.3332217   0.4998326   0.1666109  )
        30           Au  tau(  30) = (   0.6664435   0.4998326   0.1666109  )
        31           Au  tau(  31) = (   0.1666109   0.6664435   0.1666109  )
        32           Au  tau(  32) = (   0.4998326   0.6664435   0.1666109  )
        33           Au  tau(  33) = (   0.8330542   0.6664435   0.1666109  )
        34           Au  tau(  34) = (   0.0000000   0.8330542   0.1666109  )
        35           Au  tau(  35) = (   0.3332217   0.8330542   0.1666109  )
        36           Au  tau(  36) = (   0.6664435   0.8330542   0.1666109  )
        37           Au  tau(  37) = (   0.0000000   0.0000000   0.3335453  )
        38           Au  tau(  38) = (   0.3332217   0.0000000   0.3335453  )
        39           Au  tau(  39) = (   0.6664435   0.0000000   0.3335453  )
        40           Au  tau(  40) = (   0.0000000   0.3332217   0.3335453  )
        41           Au  tau(  41) = (   0.3332217   0.3332217   0.3335453  )
        42           Au  tau(  42) = (   0.6664435   0.3332217   0.3335453  )
        43           Au  tau(  43) = (   0.0000000   0.6664435   0.3335453  )
        44           Au  tau(  44) = (   0.3332217   0.6664435   0.3335453  )
        45           Au  tau(  45) = (   0.6664435   0.6664435   0.3335453  )
        46           Au  tau(  46) = (   0.1666109   0.1666109   0.3335453  )
        47           Au  tau(  47) = (   0.4998326   0.1666109   0.3335453  )
        48           Au  tau(  48) = (   0.8330542   0.1666109   0.3335453  )
        49           Au  tau(  49) = (   0.1666109   0.4998326   0.3335453  )
        50           Au  tau(  50) = (   0.4998326   0.4998326   0.3335453  )
        51           Au  tau(  51) = (   0.8330542   0.4998326   0.3335453  )
        52           Au  tau(  52) = (   0.1666109   0.8330542   0.3335453  )
        53           Au  tau(  53) = (   0.4998326   0.8330542   0.3335453  )
        54           Au  tau(  54) = (   0.8330542   0.8330542   0.3335453  )
        55           Au  tau(  55) = (   0.1666109   0.0000000   0.4993449  )
        56           Au  tau(  56) = (   0.4998326   0.0000000   0.4993449  )
        57           Au  tau(  57) = (   0.8330542   0.0000000   0.4993449  )
        58           Au  tau(  58) = (   0.0000000   0.1666109   0.4993449  )
        59           Au  tau(  59) = (   0.3332217   0.1666109   0.4993449  )
        60           Au  tau(  60) = (   0.6664435   0.1666109   0.4993449  )
        61           Au  tau(  61) = (   0.1666109   0.3332217   0.4993449  )
        62           Au  tau(  62) = (   0.4998326   0.3332217   0.4993449  )
        63           Au  tau(  63) = (   0.8330542   0.3332217   0.4993449  )
        64           Au  tau(  64) = (   0.0000000   0.4998326   0.4993449  )
        65           Au  tau(  65) = (   0.3332217   0.4998326   0.4993449  )
        66           Au  tau(  66) = (   0.6664435   0.4998326   0.4993449  )
        67           Au  tau(  67) = (   0.1666109   0.6664435   0.4993449  )
        68           Au  tau(  68) = (   0.4998326   0.6664435   0.4993449  )
        69           Au  tau(  69) = (   0.8330542   0.6664435   0.4993449  )
        70           Au  tau(  70) = (   0.0000000   0.8330542   0.4993449  )
        71           Au  tau(  71) = (   0.3332217   0.8330542   0.4993449  )
        72           Au  tau(  72) = (   0.6664435   0.8330542   0.4993449  )

     number of k points=     5  Marzari-Vanderbilt smearing, width (Ry)=  0.0200
                       cart. coord. in units 2pi/alat
        k(    1) = (   0.2500000   0.2500000   0.0833333), wk =   0.3333333
        k(    2) = (   0.2500000   0.2500000  -0.2500000), wk =   0.3333333
        k(    3) = (  -0.2500000   0.2500000  -0.0833333), wk =   0.6666667
        k(    4) = (   0.2500000   0.2500000  -0.0833333), wk =   0.3333333
        k(    5) = (  -0.2500000   0.2500000   0.2500000), wk =   0.3333333

     Dense  grid:  3792731 G-vectors     FFT dimensions: ( 160, 160, 320)

     Smooth grid:  1341081 G-vectors     FFT dimensions: ( 120, 120, 225)

     Largest allocated arrays     est. size (Mb)     dimensions
        Kohn-Sham Wavefunctions        38.17 Mb     (    5267,  475)
        NL pseudopotentials            75.22 Mb     (    5267,  936)
        Each V/rho on FFT grid          3.91 Mb     (  256000)
        Each G-vector array             0.90 Mb     (  118520)
        G-vector shells                 0.08 Mb     (   10286)
     Largest temporary arrays     est. size (Mb)     dimensions
        Auxiliary wavefunctions       152.70 Mb     (    5267, 1900)
        Each subspace H/S matrix       55.08 Mb     (    1900, 1900)
        Each <psi_i|beta_j> matrix      6.78 Mb     (     936,  475)
        Arrays for rho mixing          31.25 Mb     (  256000,    8)

     Initial potential from superposition of free atoms
     Check: negative starting charge=   -1.945153

     starting charge  791.16394, renormalised to  792.00000

     negative rho (up, down):  1.947E+00 0.000E+00


     ************************************************************************
     *
     * You are using vdW-DF for exchange-correlation in this calculation.
     * Please cite the following three references that made this development
     * possible:
     *
     *   M. Dion, H. Rydberg, E. Schroder, D. C. Langreth, and
     *   B. I. Lundqvist, Phys. Rev. Lett. 92, 246401 (2004).
     *
     *   T. Thonhauser, V. R. Cooper, S. Li, A. Puzder, P. Hyldgaard, and
     *   D. C. Langreth, Phys. Rev. B 76, 125112 (2007).
     *
     *   G. Roman-Perez and J. M. Soler, Phys. Rev. Lett. 103, 096102 (2009).
     *
     *
     * If you are using vdW-DF2, please also cite:
     *
     *   K. Lee, E. D. Murray, L. Kong, B. I. Lundqvist, and
     *   D. C. Langreth, Phys. Rev. B 82, 081101(R) (2010).
     *
     *
     * If you are calculating the stress with vdW-DF, please also cite:
     *
     *   R. Sabatini, E. Kucukbenli, B. Kolb, T. Thonhauser, and
     *   S. de Gironcoli, J. Phys.: Condens. Matter 24, 424209 (2012).
     *
     ************************************************************************

     Carrying out vdW-DF run using the following parameters:

     Nqs =      20    Nr_points =    1024   r_max =   100.000
     q_mesh =
               0.00001000     0.04494208     0.09755937     0.15916263
               0.23128650     0.31572767     0.41458969     0.53033537
               0.66584808     0.82450364     1.01025438     1.22772762
               1.48234092     1.78043706     2.12944203     2.53805004
               3.01644009     3.57652955     4.23227104     5.00000000

     Gradients computed in reciprocal space

     ************************************************************************


     Starting wfc are  648 randomized atomic wfcs

     total cpu time spent up to now is      105.6 secs

     Self-consistent Calculation

     iteration #  1     ecut=    50.00 Ry     beta=0.70
     Davidson diagonalization with overlap
     ethr =  1.00E-02,  avg # of iterations =  3.0

     Threshold (ethr) on eigenvalues was too large:
     Diagonalizing with lowered threshold

     Davidson diagonalization with overlap
     ethr =  3.67E-04,  avg # of iterations =  2.0

     negative rho (up, down):  1.946E+00 0.000E+00

     total cpu time spent up to now is      418.8 secs

     total energy              =   -7388.53771416 Ry
     Harris-Foulkes estimate   =   -7391.24109993 Ry
     estimated scf accuracy    <       3.29544806 Ry

     iteration #  2     ecut=    50.00 Ry     beta=0.70
     Davidson diagonalization with overlap
     ethr =  4.16E-04,  avg # of iterations = 11.6

     negative rho (up, down):  1.942E+00 0.000E+00

     total cpu time spent up to now is      982.5 secs

     total energy              =   -7381.03530042 Ry
     Harris-Foulkes estimate   =   -7397.76972945 Ry
     estimated scf accuracy    <      89.75474999 Ry

     iteration #  3     ecut=    50.00 Ry     beta=0.70
     Davidson diagonalization with overlap
     ethr =  4.16E-04,  avg # of iterations =  6.0

     negative rho (up, down):  1.955E+00 0.000E+00

     total cpu time spent up to now is     1335.6 secs

     total energy              =   -7390.33067400 Ry
     Harris-Foulkes estimate   =   -7390.95666309 Ry
     estimated scf accuracy    <       2.11479859 Ry

     iteration #  4     ecut=    50.00 Ry     beta=0.70
     Davidson diagonalization with overlap
     ethr =  2.67E-04,  avg # of iterations =  2.0

     negative rho (up, down):  1.965E+00 0.000E+00

     total cpu time spent up to now is     1490.8 secs

     total energy              =   -7390.57007925 Ry
     Harris-Foulkes estimate   =   -7390.61402373 Ry
     estimated scf accuracy    <       0.12329579 Ry

     iteration #  5     ecut=    50.00 Ry     beta=0.70
     Davidson diagonalization with overlap
     ethr =  1.56E-05,  avg # of iterations =  8.0

     negative rho (up, down):  1.966E+00 0.000E+00

     total cpu time spent up to now is     1824.9 secs

     total energy              =   -7390.56319588 Ry
     Harris-Foulkes estimate   =   -7390.62268267 Ry
     estimated scf accuracy    <       0.42744578 Ry

     iteration #  6     ecut=    50.00 Ry     beta=0.70
     Davidson diagonalization with overlap
     ethr =  1.56E-05,  avg # of iterations =  6.4

     negative rho (up, down):  1.968E+00 0.000E+00

     total cpu time spent up to now is     2031.8 secs

     total energy              =   -7390.58629449 Ry
     Harris-Foulkes estimate   =   -7390.60021563 Ry
     estimated scf accuracy    <       0.06721838 Ry

     iteration #  7     ecut=    50.00 Ry     beta=0.70
     Davidson diagonalization with overlap
     ethr =  8.49E-06,  avg # of iterations =  4.8

     negative rho (up, down):  1.972E+00 0.000E+00

     total cpu time spent up to now is     2240.6 secs

     total energy              =   -7390.58048345 Ry
     Harris-Foulkes estimate   =   -7390.60991582 Ry
     estimated scf accuracy    <       0.19164356 Ry

     iteration #  8     ecut=    50.00 Ry     beta=0.70
     Davidson diagonalization with overlap
     ethr =  8.49E-06,  avg # of iterations =  9.6

     negative rho (up, down):  1.971E+00 0.000E+00

     total cpu time spent up to now is     2475.5 secs

     total energy              =   -7390.59446316 Ry
     Harris-Foulkes estimate   =   -7390.59497853 Ry
     estimated scf accuracy    <       0.00186097 Ry

     iteration #  9     ecut=    50.00 Ry     beta=0.70
     Davidson diagonalization with overlap
     ethr =  2.35E-07,  avg # of iterations =  2.6

     negative rho (up, down):  1.971E+00 0.000E+00

     total cpu time spent up to now is     2661.3 secs

     total energy              =   -7390.59467479 Ry
     Harris-Foulkes estimate   =   -7390.59483101 Ry
     estimated scf accuracy    <       0.00050759 Ry

     iteration # 10     ecut=    50.00 Ry     beta=0.70
     Davidson diagonalization with overlap
     ethr =  6.41E-08,  avg # of iterations =  2.0

     negative rho (up, down):  1.971E+00 0.000E+00

     total cpu time spent up to now is     2816.2 secs

     total energy              =   -7390.59473628 Ry
     Harris-Foulkes estimate   =   -7390.59477324 Ry
     estimated scf accuracy    <       0.00012265 Ry

     iteration # 11     ecut=    50.00 Ry     beta=0.70
     Davidson diagonalization with overlap
     ethr =  1.55E-08,  avg # of iterations =  2.0

     negative rho (up, down):  1.971E+00 0.000E+00

     total cpu time spent up to now is     2981.6 secs

     total energy              =   -7390.59474849 Ry
     Harris-Foulkes estimate   =   -7390.59476824 Ry
     estimated scf accuracy    <       0.00006400 Ry

     iteration # 12     ecut=    50.00 Ry     beta=0.70
     Davidson diagonalization with overlap
     ethr =  8.08E-09,  avg # of iterations =  2.0

     negative rho (up, down):  1.971E+00 0.000E+00

     total cpu time spent up to now is     3142.6 secs

     total energy              =   -7390.59475734 Ry
     Harris-Foulkes estimate   =   -7390.59476165 Ry
     estimated scf accuracy    <       0.00001355 Ry

     iteration # 13     ecut=    50.00 Ry     beta=0.70
     Davidson diagonalization with overlap
     ethr =  1.71E-09,  avg # of iterations =  2.0

     negative rho (up, down):  1.971E+00 0.000E+00

     total cpu time spent up to now is     3314.2 secs

     total energy              =   -7390.59475838 Ry
     Harris-Foulkes estimate   =   -7390.59476016 Ry
     estimated scf accuracy    <       0.00000436 Ry

     iteration # 14     ecut=    50.00 Ry     beta=0.70
     Davidson diagonalization with overlap
     ethr =  5.50E-10,  avg # of iterations =  2.0

     negative rho (up, down):  1.971E+00 0.000E+00

     total cpu time spent up to now is     3478.2 secs

     total energy              =   -7390.59475897 Ry
     Harris-Foulkes estimate   =   -7390.59475955 Ry
     estimated scf accuracy    <       0.00000156 Ry

     iteration # 15     ecut=    50.00 Ry     beta=0.70
     Davidson diagonalization with overlap
     ethr =  1.97E-10,  avg # of iterations =  2.0

     negative rho (up, down):  1.971E+00 0.000E+00

     total cpu time spent up to now is     3657.1 secs

     total energy              =   -7390.59475893 Ry
     Harris-Foulkes estimate   =   -7390.59475945 Ry
     estimated scf accuracy    <       0.00000174 Ry

     iteration # 16     ecut=    50.00 Ry     beta=0.70
     Davidson diagonalization with overlap
     ethr =  1.97E-10,  avg # of iterations =  2.0

     negative rho (up, down):  1.971E+00 0.000E+00

     total cpu time spent up to now is     3811.5 secs

     total energy              =   -7390.59475874 Ry
     Harris-Foulkes estimate   =   -7390.59475960 Ry
     estimated scf accuracy    <       0.00000613 Ry

     iteration # 17     ecut=    50.00 Ry     beta=0.70
     Davidson diagonalization with overlap
     ethr =  1.97E-10,  avg # of iterations =  2.0

     negative rho (up, down):  1.971E+00 0.000E+00

     total cpu time spent up to now is     3966.5 secs

     total energy              =   -7390.59475897 Ry
     Harris-Foulkes estimate   =   -7390.59475913 Ry
     estimated scf accuracy    <       0.00000025 Ry

     iteration # 18     ecut=    50.00 Ry     beta=0.70
     Davidson diagonalization with overlap
     ethr =  3.17E-11,  avg # of iterations =  2.0

     negative rho (up, down):  1.971E+00 0.000E+00

     total cpu time spent up to now is     4131.2 secs

     total energy              =   -7390.59475900 Ry
     Harris-Foulkes estimate   =   -7390.59475900 Ry
     estimated scf accuracy    <       0.00000001 Ry

     iteration # 19     ecut=    50.00 Ry     beta=0.70
     Davidson diagonalization with overlap
     ethr =  1.73E-12,  avg # of iterations =  3.0

     negative rho (up, down):  1.971E+00 0.000E+00

     total cpu time spent up to now is     4363.2 secs

     total energy              =   -7390.59475899 Ry
     Harris-Foulkes estimate   =   -7390.59475901 Ry
     estimated scf accuracy    <       0.00000007 Ry

     iteration # 20     ecut=    50.00 Ry     beta=0.70
     Davidson diagonalization with overlap
     ethr =  1.73E-12,  avg # of iterations =  3.0

     negative rho (up, down):  1.971E+00 0.000E+00

     total cpu time spent up to now is     4554.0 secs

     End of self-consistent calculation

          k = 0.2500 0.2500 0.0833 (167653 PWs)   bands (ev):

    -6.8638  -6.3352  -6.3352  -5.9056  -5.4965  -5.4033  -5.4033  -5.2073
    -5.2073  -5.0893  -5.0892  -5.0109  -4.9879  -4.9150  -4.8300  -4.8264
    -4.7873  -4.7873  -4.6264  -4.6096  -4.6086  -4.6085  -4.6017  -4.5457
    -4.5457  -4.5338  -4.5338  -4.4970  -4.4840  -4.4839  -4.4420  -4.4420
    -4.4085  -4.4074  -4.3553  -4.3552  -4.3444  -4.3433  -4.3381  -4.3248
    -4.3248  -4.2834  -4.2653  -4.2653  -4.2584  -4.2584  -4.2261  -4.1762
    -4.1612  -4.1612  -4.1570  -4.1570  -4.1492  -4.1438  -4.1433  -4.1432
    -4.0781  -4.0780  -4.0282  -4.0281  -4.0157  -3.9897  -3.9897  -3.9696
    -3.9674  -3.9666  -3.9624  -3.9594  -3.9106  -3.9106  -3.8974  -3.8974
    -3.7920  -3.7919  -3.7857  -3.7857  -3.7485  -3.7388  -3.7254  -3.6951
    -3.6951  -3.6665  -3.6665  -3.6445  -3.6445  -3.6308  -3.6308  -3.5760
    -3.5760  -3.5570  -3.5421  -3.5302  -3.5290  -3.5289  -3.5273  -3.5002
    -3.5002  -3.4639  -3.4639  -3.4410  -3.4410  -3.4081  -3.4081  -3.3901
    -3.3622  -3.3622  -3.3251  -3.3250  -3.2896  -3.2822  -3.2815  -3.2671
    -3.2671  -3.2621  -3.2621  -3.2230  -3.2135  -3.1724  -3.1724  -3.1648
    -3.1552  -3.1545  -3.1529  -3.1285  -3.1285  -3.1076  -3.1068  -3.1066
    -3.0798  -3.0798  -3.0722  -3.0693  -3.0693  -3.0333  -3.0291  -2.9936
    -2.9935  -2.9929  -2.9896  -2.9896  -2.9107  -2.9006  -2.8962  -2.8961
    -2.8944  -2.8943  -2.8894  -2.8894  -2.8893  -2.8892  -2.8793  -2.8716
    -2.8548  -2.8518  -2.8512  -2.8511  -2.8363  -2.8318  -2.7938  -2.7929
    -2.7927  -2.7886  -2.7885  -2.7701  -2.7701  -2.7610  -2.7610  -2.7588
    -2.6991  -2.6991  -2.6937  -2.6937  -2.6886  -2.6886  -2.6606  -2.6014
    -2.6003  -2.5999  -2.5981  -2.5865  -2.5843  -2.5797  -2.5687  -2.5687
    -2.5316  -2.5316  -2.5225  -2.5225  -2.5216  -2.5216  -2.4819  -2.4819
    -2.4719  -2.4719  -2.4704  -2.4704  -2.4281  -2.4122  -2.4069  -2.3532
    -2.3532  -2.3348  -2.3332  -2.3277  -2.3277  -2.2789  -2.2789  -2.2552
    -2.2391  -2.2244  -2.2242  -2.2242  -2.2017  -2.2017  -2.1919  -2.1759
    -2.1342  -2.1342  -2.1205  -2.1204  -2.1204  -2.1088  -2.1088  -2.0933
    -2.0933  -2.0925  -2.0887  -2.0841  -2.0838  -2.0837  -2.0712  -2.0712
    -2.0533  -2.0533  -2.0510  -2.0451  -2.0417  -2.0417  -2.0180  -2.0180
    -2.0065  -2.0045  -1.9998  -1.9998  -1.9616  -1.9277  -1.9276  -1.8917
    -1.8747  -1.8746  -1.8638  -1.8638  -1.8401  -1.8401  -1.8250  -1.8250
    -1.8236  -1.8236  -1.8204  -1.8204  -1.7877  -1.7877  -1.7876  -1.7414
    -1.7414  -1.7014  -1.7014  -1.6542  -1.6542  -1.6418  -1.6190  -1.6139
    -1.6117  -1.5950  -1.5935  -1.5759  -1.5759  -1.5707  -1.5707  -1.5691
    -1.5688  -1.5683  -1.5658  -1.5455  -1.5455  -1.5351  -1.5178  -1.4986
    -1.4986  -1.4722  -1.4722  -1.4692  -1.4692  -1.4659  -1.4631  -1.4413
    -1.4413  -1.4261  -1.4261  -1.4133  -1.4030  -1.3893  -1.3893  -1.3583
    -1.3583  -1.3501  -1.3501  -1.3145  -1.3145  -1.3060  -1.3060  -1.2972
    -1.2972  -1.2756  -1.2756  -1.2635  -1.2567  -1.2567  -1.2432  -1.2432
    -1.2428  -1.2428  -1.2282  -1.2179  -1.2171  -1.2097  -1.2097  -1.1977
    -1.1930  -1.1930  -1.1861  -1.1468  -1.1446  -1.1395  -1.1378  -1.1373
    -1.1360  -1.0974  -1.0806  -1.0806  -1.0799  -1.0799  -1.0753  -1.0753
    -1.0703  -1.0573  -1.0552  -1.0184  -1.0184  -1.0112  -1.0112  -0.9882
    -0.9882  -0.9783  -0.9486  -0.9409  -0.9134  -0.9134  -0.8855  -0.8854
    -0.8824  -0.8814  -0.8808  -0.8767  -0.8734  -0.8713  -0.8667  -0.8667
    -0.8345  -0.8345  -0.8162  -0.8162  -0.8107  -0.8107  -0.8092  -0.8092
    -0.7903  -0.5132  -0.5047  -0.4482  -0.4482  -0.4088  -0.2478  -0.1828
    -0.1828  -0.1519   0.1362   0.1362   0.4662   0.4662   0.5654   0.5654
     0.6067   0.6067   0.7498   0.7498   0.8741   0.8758   0.9623   1.5613
     1.5795   1.5803   1.6196   1.6246   1.6693   1.6693   1.7493   1.7493
     1.9571   1.9571   2.1913   2.2719   2.2719   2.2881   2.6690   2.6690
     2.7426   2.7436   2.7500   2.7500   2.9014   2.9023   2.9530   3.0455
     3.0455   3.2758   3.2803   3.4119   3.4388   3.4388   3.7104   3.7104
     3.8236   3.8423   3.8423   3.9212   3.9212   4.0296   4.0296   4.2663
     4.2666   4.3559   4.3559   4.4791   4.4829   4.5038   4.5038   4.6676
     5.3064   5.3064   5.3691   5.4120   5.4121   5.5911   5.5911   5.6468
     5.6616   5.7066   5.7066   5.7299   5.7299   5.7600   5.7600   5.8042
     6.0711   6.0740   6.0740   6.0870   6.1013   6.1013   6.1109   6.1124
     6.1581   6.1791   6.1791

          k = 0.2500 0.2500-0.2500 (167588 PWs)   bands (ev):

    -6.8638  -6.3352  -6.3352  -5.9056  -5.4965  -5.4033  -5.4033  -5.2073
    -5.2073  -5.0893  -5.0892  -5.0109  -4.9879  -4.9150  -4.8300  -4.8264
    -4.7873  -4.7873  -4.6265  -4.6096  -4.6086  -4.6085  -4.6017  -4.5457
    -4.5457  -4.5338  -4.5338  -4.4970  -4.4840  -4.4839  -4.4420  -4.4420
    -4.4085  -4.4074  -4.3553  -4.3552  -4.3444  -4.3433  -4.3381  -4.3248
    -4.3248  -4.2834  -4.2653  -4.2653  -4.2584  -4.2584  -4.2261  -4.1762
    -4.1612  -4.1612  -4.1570  -4.1570  -4.1492  -4.1439  -4.1433  -4.1432
    -4.0781  -4.0780  -4.0282  -4.0281  -4.0157  -3.9897  -3.9897  -3.9696
    -3.9674  -3.9666  -3.9624  -3.9594  -3.9106  -3.9106  -3.8974  -3.8974
    -3.7920  -3.7919  -3.7858  -3.7857  -3.7485  -3.7388  -3.7254  -3.6951
    -3.6951  -3.6665  -3.6665  -3.6445  -3.6445  -3.6308  -3.6308  -3.5760
    -3.5760  -3.5570  -3.5421  -3.5302  -3.5290  -3.5289  -3.5273  -3.5002
    -3.5002  -3.4639  -3.4639  -3.4410  -3.4410  -3.4081  -3.4081  -3.3901
    -3.3622  -3.3622  -3.3251  -3.3250  -3.2896  -3.2822  -3.2815  -3.2671
    -3.2671  -3.2621  -3.2621  -3.2230  -3.2135  -3.1724  -3.1724  -3.1648
    -3.1552  -3.1545  -3.1529  -3.1286  -3.1285  -3.1076  -3.1068  -3.1066
    -3.0798  -3.0798  -3.0722  -3.0693  -3.0693  -3.0333  -3.0291  -2.9936
    -2.9935  -2.9929  -2.9896  -2.9896  -2.9107  -2.9006  -2.8962  -2.8961
    -2.8944  -2.8943  -2.8894  -2.8894  -2.8893  -2.8892  -2.8793  -2.8716
    -2.8548  -2.8518  -2.8511  -2.8511  -2.8363  -2.8318  -2.7938  -2.7929
    -2.7927  -2.7886  -2.7885  -2.7701  -2.7701  -2.7610  -2.7610  -2.7588
    -2.6991  -2.6991  -2.6937  -2.6937  -2.6886  -2.6886  -2.6606  -2.6014
    -2.6003  -2.5999  -2.5981  -2.5865  -2.5843  -2.5797  -2.5687  -2.5687
    -2.5316  -2.5315  -2.5225  -2.5225  -2.5216  -2.5216  -2.4819  -2.4819
    -2.4719  -2.4719  -2.4704  -2.4704  -2.4281  -2.4122  -2.4069  -2.3532
    -2.3532  -2.3348  -2.3332  -2.3277  -2.3277  -2.2789  -2.2789  -2.2552
    -2.2391  -2.2244  -2.2242  -2.2242  -2.2017  -2.2017  -2.1919  -2.1759
    -2.1342  -2.1342  -2.1205  -2.1204  -2.1204  -2.1088  -2.1088  -2.0933
    -2.0933  -2.0925  -2.0887  -2.0841  -2.0838  -2.0837  -2.0712  -2.0712
    -2.0533  -2.0533  -2.0511  -2.0452  -2.0417  -2.0417  -2.0180  -2.0180
    -2.0065  -2.0045  -1.9998  -1.9998  -1.9617  -1.9277  -1.9276  -1.8917
    -1.8747  -1.8746  -1.8638  -1.8638  -1.8401  -1.8401  -1.8250  -1.8250
    -1.8236  -1.8236  -1.8204  -1.8204  -1.7877  -1.7877  -1.7876  -1.7414
    -1.7414  -1.7014  -1.7014  -1.6542  -1.6542  -1.6418  -1.6190  -1.6139
    -1.6117  -1.5950  -1.5935  -1.5759  -1.5759  -1.5707  -1.5707  -1.5691
    -1.5688  -1.5683  -1.5658  -1.5455  -1.5455  -1.5351  -1.5178  -1.4986
    -1.4986  -1.4722  -1.4722  -1.4692  -1.4692  -1.4659  -1.4631  -1.4413
    -1.4412  -1.4261  -1.4261  -1.4133  -1.4030  -1.3893  -1.3893  -1.3583
    -1.3583  -1.3501  -1.3501  -1.3145  -1.3145  -1.3060  -1.3060  -1.2972
    -1.2972  -1.2756  -1.2756  -1.2635  -1.2567  -1.2567  -1.2432  -1.2432
    -1.2428  -1.2428  -1.2283  -1.2179  -1.2172  -1.2097  -1.2097  -1.1977
    -1.1930  -1.1930  -1.1861  -1.1468  -1.1446  -1.1395  -1.1378  -1.1373
    -1.1360  -1.0974  -1.0806  -1.0806  -1.0799  -1.0799  -1.0753  -1.0753
    -1.0703  -1.0573  -1.0552  -1.0184  -1.0184  -1.0112  -1.0112  -0.9882
    -0.9882  -0.9783  -0.9486  -0.9409  -0.9134  -0.9134  -0.8855  -0.8854
    -0.8824  -0.8814  -0.8808  -0.8767  -0.8734  -0.8713  -0.8667  -0.8667
    -0.8345  -0.8345  -0.8163  -0.8162  -0.8107  -0.8107  -0.8092  -0.8092
    -0.7903  -0.5132  -0.5047  -0.4482  -0.4482  -0.4088  -0.2478  -0.1828
    -0.1828  -0.1519   0.1362   0.1362   0.4662   0.4662   0.5654   0.5654
     0.6067   0.6067   0.7498   0.7498   0.8741   0.8758   0.9623   1.5613
     1.5795   1.5803   1.6196   1.6246   1.6693   1.6693   1.7493   1.7493
     1.9571   1.9571   2.1913   2.2719   2.2719   2.2881   2.6690   2.6690
     2.7426   2.7436   2.7500   2.7500   2.9014   2.9023   2.9530   3.0455
     3.0455   3.2758   3.2803   3.4119   3.4388   3.4388   3.7104   3.7104
     3.8236   3.8423   3.8423   3.9212   3.9212   4.0296   4.0296   4.2663
     4.2666   4.3559   4.3559   4.4791   4.4829   4.5038   4.5038   4.6677
     5.3066   5.3066   5.3414   5.4121   5.4121   5.5911   5.5911   5.6454
     5.7066   5.7066   5.7107   5.7108   5.7600   5.7600   5.7672   5.8042
     6.0711   6.0744   6.0745   6.0870   6.1013   6.1013   6.1109   6.1124
     6.1188   6.1766   6.1766

          k =-0.2500 0.2500-0.0833 (167653 PWs)   bands (ev):

    -6.8638  -6.3352  -6.3352  -5.9056  -5.4965  -5.4033  -5.4033  -5.2073
    -5.2073  -5.0893  -5.0892  -5.0109  -4.9879  -4.9150  -4.8300  -4.8264
    -4.7873  -4.7873  -4.6264  -4.6096  -4.6086  -4.6085  -4.6017  -4.5457
    -4.5457  -4.5338  -4.5338  -4.4970  -4.4840  -4.4839  -4.4420  -4.4420
    -4.4085  -4.4074  -4.3553  -4.3553  -4.3444  -4.3433  -4.3381  -4.3248
    -4.3248  -4.2834  -4.2654  -4.2653  -4.2584  -4.2584  -4.2261  -4.1762
    -4.1612  -4.1612  -4.1570  -4.1570  -4.1492  -4.1438  -4.1433  -4.1432
    -4.0781  -4.0780  -4.0282  -4.0281  -4.0157  -3.9897  -3.9897  -3.9696
    -3.9673  -3.9666  -3.9624  -3.9594  -3.9106  -3.9106  -3.8974  -3.8974
    -3.7920  -3.7919  -3.7857  -3.7857  -3.7485  -3.7388  -3.7254  -3.6951
    -3.6951  -3.6665  -3.6665  -3.6445  -3.6445  -3.6308  -3.6308  -3.5760
    -3.5760  -3.5570  -3.5421  -3.5302  -3.5291  -3.5289  -3.5273  -3.5002
    -3.5002  -3.4639  -3.4639  -3.4410  -3.4410  -3.4081  -3.4081  -3.3901
    -3.3622  -3.3622  -3.3251  -3.3250  -3.2896  -3.2822  -3.2815  -3.2671
    -3.2671  -3.2621  -3.2621  -3.2230  -3.2135  -3.1724  -3.1724  -3.1648
    -3.1552  -3.1545  -3.1529  -3.1286  -3.1285  -3.1076  -3.1068  -3.1066
    -3.0798  -3.0798  -3.0722  -3.0693  -3.0693  -3.0333  -3.0291  -2.9936
    -2.9935  -2.9929  -2.9896  -2.9896  -2.9107  -2.9006  -2.8962  -2.8962
    -2.8944  -2.8943  -2.8894  -2.8894  -2.8893  -2.8892  -2.8793  -2.8716
    -2.8548  -2.8518  -2.8512  -2.8511  -2.8363  -2.8318  -2.7938  -2.7929
    -2.7927  -2.7886  -2.7885  -2.7701  -2.7701  -2.7610  -2.7610  -2.7588
    -2.6991  -2.6991  -2.6937  -2.6937  -2.6886  -2.6886  -2.6606  -2.6014
    -2.6003  -2.5999  -2.5982  -2.5865  -2.5843  -2.5797  -2.5687  -2.5687
    -2.5316  -2.5316  -2.5225  -2.5225  -2.5216  -2.5216  -2.4819  -2.4819
    -2.4719  -2.4719  -2.4704  -2.4704  -2.4281  -2.4122  -2.4069  -2.3532
    -2.3532  -2.3348  -2.3332  -2.3277  -2.3277  -2.2789  -2.2789  -2.2552
    -2.2391  -2.2244  -2.2242  -2.2242  -2.2017  -2.2017  -2.1919  -2.1759
    -2.1342  -2.1342  -2.1205  -2.1204  -2.1204  -2.1088  -2.1088  -2.0933
    -2.0933  -2.0925  -2.0887  -2.0841  -2.0838  -2.0837  -2.0712  -2.0712
    -2.0533  -2.0533  -2.0510  -2.0451  -2.0417  -2.0417  -2.0180  -2.0180
    -2.0065  -2.0045  -1.9998  -1.9998  -1.9616  -1.9277  -1.9276  -1.8917
    -1.8747  -1.8746  -1.8638  -1.8638  -1.8401  -1.8401  -1.8250  -1.8250
    -1.8236  -1.8236  -1.8204  -1.8204  -1.7877  -1.7877  -1.7876  -1.7414
    -1.7414  -1.7014  -1.7014  -1.6542  -1.6542  -1.6418  -1.6190  -1.6139
    -1.6117  -1.5950  -1.5935  -1.5759  -1.5759  -1.5707  -1.5707  -1.5691
    -1.5688  -1.5683  -1.5658  -1.5455  -1.5455  -1.5351  -1.5178  -1.4986
    -1.4986  -1.4722  -1.4722  -1.4692  -1.4692  -1.4659  -1.4631  -1.4413
    -1.4413  -1.4261  -1.4261  -1.4133  -1.4030  -1.3893  -1.3893  -1.3583
    -1.3583  -1.3501  -1.3501  -1.3145  -1.3145  -1.3060  -1.3060  -1.2972
    -1.2972  -1.2756  -1.2756  -1.2635  -1.2567  -1.2566  -1.2432  -1.2432
    -1.2428  -1.2428  -1.2282  -1.2179  -1.2171  -1.2097  -1.2097  -1.1977
    -1.1930  -1.1930  -1.1861  -1.1468  -1.1446  -1.1395  -1.1378  -1.1373
    -1.1360  -1.0974  -1.0806  -1.0806  -1.0799  -1.0799  -1.0753  -1.0753
    -1.0703  -1.0573  -1.0552  -1.0184  -1.0184  -1.0112  -1.0112  -0.9883
    -0.9882  -0.9783  -0.9486  -0.9409  -0.9134  -0.9134  -0.8855  -0.8854
    -0.8824  -0.8814  -0.8808  -0.8768  -0.8734  -0.8713  -0.8667  -0.8667
    -0.8345  -0.8345  -0.8162  -0.8162  -0.8107  -0.8107  -0.8092  -0.8092
    -0.7903  -0.5132  -0.5047  -0.4482  -0.4482  -0.4088  -0.2478  -0.1828
    -0.1828  -0.1519   0.1362   0.1362   0.4662   0.4662   0.5654   0.5654
     0.6067   0.6067   0.7498   0.7498   0.8741   0.8758   0.9623   1.5613
     1.5795   1.5803   1.6196   1.6246   1.6693   1.6693   1.7493   1.7493
     1.9571   1.9571   2.1913   2.2719   2.2719   2.2881   2.6690   2.6690
     2.7426   2.7436   2.7500   2.7500   2.9014   2.9023   2.9530   3.0455
     3.0455   3.2758   3.2803   3.4119   3.4388   3.4388   3.7104   3.7104
     3.8236   3.8423   3.8423   3.9212   3.9212   4.0296   4.0296   4.2663
     4.2667   4.3559   4.3559   4.4791   4.4829   4.5038   4.5038   4.6676
     5.3064   5.3064   5.3691   5.4120   5.4121   5.5911   5.5911   5.6468
     5.6616   5.7066   5.7066   5.7299   5.7300   5.7600   5.7600   5.8042
     6.0711   6.0739   6.0740   6.0870   6.1013   6.1013   6.1109   6.1124
     6.1581   6.1791   6.1791

          k = 0.2500 0.2500-0.0833 (167653 PWs)   bands (ev):

    -6.8638  -6.3352  -6.3352  -5.9056  -5.4965  -5.4033  -5.4033  -5.2073
    -5.2073  -5.0893  -5.0892  -5.0109  -4.9879  -4.9150  -4.8300  -4.8264
    -4.7873  -4.7873  -4.6264  -4.6096  -4.6086  -4.6085  -4.6017  -4.5457
    -4.5457  -4.5338  -4.5338  -4.4970  -4.4840  -4.4839  -4.4420  -4.4420
    -4.4085  -4.4074  -4.3553  -4.3552  -4.3444  -4.3433  -4.3381  -4.3248
    -4.3248  -4.2834  -4.2653  -4.2653  -4.2584  -4.2584  -4.2261  -4.1762
    -4.1612  -4.1612  -4.1570  -4.1570  -4.1492  -4.1438  -4.1433  -4.1432
    -4.0781  -4.0780  -4.0282  -4.0281  -4.0157  -3.9897  -3.9897  -3.9696
    -3.9674  -3.9666  -3.9624  -3.9594  -3.9106  -3.9106  -3.8974  -3.8974
    -3.7920  -3.7919  -3.7857  -3.7857  -3.7485  -3.7388  -3.7254  -3.6951
    -3.6951  -3.6665  -3.6665  -3.6445  -3.6445  -3.6308  -3.6308  -3.5760
    -3.5760  -3.5570  -3.5421  -3.5302  -3.5290  -3.5289  -3.5273  -3.5002
    -3.5002  -3.4639  -3.4639  -3.4410  -3.4410  -3.4081  -3.4081  -3.3901
    -3.3622  -3.3622  -3.3251  -3.3250  -3.2896  -3.2822  -3.2815  -3.2671
    -3.2671  -3.2621  -3.2621  -3.2230  -3.2135  -3.1724  -3.1724  -3.1648
    -3.1552  -3.1545  -3.1529  -3.1285  -3.1285  -3.1076  -3.1068  -3.1066
    -3.0798  -3.0798  -3.0722  -3.0693  -3.0693  -3.0333  -3.0291  -2.9936
    -2.9935  -2.9929  -2.9896  -2.9896  -2.9107  -2.9006  -2.8962  -2.8961
    -2.8944  -2.8943  -2.8894  -2.8894  -2.8893  -2.8892  -2.8793  -2.8716
    -2.8548  -2.8518  -2.8512  -2.8511  -2.8363  -2.8318  -2.7938  -2.7929
    -2.7927  -2.7886  -2.7885  -2.7701  -2.7701  -2.7610  -2.7610  -2.7588
    -2.6991  -2.6991  -2.6937  -2.6937  -2.6886  -2.6886  -2.6606  -2.6014
    -2.6003  -2.5999  -2.5981  -2.5865  -2.5843  -2.5797  -2.5687  -2.5687
    -2.5316  -2.5316  -2.5225  -2.5225  -2.5216  -2.5216  -2.4819  -2.4819
    -2.4719  -2.4719  -2.4704  -2.4704  -2.4281  -2.4122  -2.4069  -2.3532
    -2.3532  -2.3348  -2.3332  -2.3277  -2.3277  -2.2789  -2.2789  -2.2552
    -2.2391  -2.2244  -2.2242  -2.2242  -2.2017  -2.2017  -2.1919  -2.1759
    -2.1342  -2.1342  -2.1205  -2.1204  -2.1204  -2.1088  -2.1088  -2.0933
    -2.0933  -2.0925  -2.0887  -2.0841  -2.0838  -2.0837  -2.0712  -2.0712
    -2.0533  -2.0533  -2.0510  -2.0451  -2.0417  -2.0417  -2.0180  -2.0180
    -2.0065  -2.0045  -1.9998  -1.9998  -1.9616  -1.9277  -1.9276  -1.8917
    -1.8747  -1.8746  -1.8638  -1.8638  -1.8401  -1.8401  -1.8250  -1.8250
    -1.8236  -1.8236  -1.8204  -1.8204  -1.7877  -1.7877  -1.7876  -1.7414
    -1.7414  -1.7014  -1.7014  -1.6542  -1.6542  -1.6418  -1.6190  -1.6139
    -1.6117  -1.5950  -1.5935  -1.5759  -1.5759  -1.5707  -1.5707  -1.5691
    -1.5688  -1.5683  -1.5658  -1.5455  -1.5455  -1.5351  -1.5178  -1.4986
    -1.4986  -1.4722  -1.4722  -1.4692  -1.4692  -1.4659  -1.4631  -1.4413
    -1.4413  -1.4261  -1.4261  -1.4133  -1.4030  -1.3893  -1.3893  -1.3583
    -1.3583  -1.3501  -1.3501  -1.3145  -1.3145  -1.3060  -1.3060  -1.2972
    -1.2972  -1.2756  -1.2756  -1.2635  -1.2567  -1.2567  -1.2432  -1.2432
    -1.2428  -1.2428  -1.2282  -1.2179  -1.2171  -1.2097  -1.2097  -1.1977
    -1.1930  -1.1930  -1.1861  -1.1468  -1.1446  -1.1395  -1.1378  -1.1373
    -1.1360  -1.0974  -1.0806  -1.0806  -1.0799  -1.0799  -1.0753  -1.0753
    -1.0703  -1.0573  -1.0552  -1.0184  -1.0184  -1.0112  -1.0112  -0.9882
    -0.9882  -0.9783  -0.9486  -0.9409  -0.9134  -0.9134  -0.8855  -0.8854
    -0.8824  -0.8814  -0.8808  -0.8767  -0.8734  -0.8713  -0.8667  -0.8667
    -0.8345  -0.8345  -0.8162  -0.8162  -0.8107  -0.8107  -0.8092  -0.8092
    -0.7903  -0.5132  -0.5047  -0.4482  -0.4482  -0.4088  -0.2478  -0.1828
    -0.1828  -0.1519   0.1362   0.1362   0.4662   0.4662   0.5654   0.5654
     0.6067   0.6067   0.7498   0.7498   0.8741   0.8758   0.9623   1.5613
     1.5795   1.5803   1.6196   1.6246   1.6693   1.6693   1.7493   1.7493
     1.9571   1.9571   2.1913   2.2719   2.2719   2.2881   2.6690   2.6690
     2.7426   2.7436   2.7500   2.7500   2.9014   2.9023   2.9530   3.0455
     3.0455   3.2758   3.2803   3.4119   3.4388   3.4388   3.7104   3.7104
     3.8236   3.8423   3.8423   3.9212   3.9212   4.0296   4.0296   4.2663
     4.2666   4.3559   4.3559   4.4791   4.4829   4.5038   4.5038   4.6676
     5.3064   5.3064   5.3691   5.4120   5.4121   5.5911   5.5911   5.6468
     5.6616   5.7066   5.7066   5.7299   5.7299   5.7600   5.7600   5.8042
     6.0711   6.0740   6.0740   6.0870   6.1013   6.1013   6.1109   6.1124
     6.1581   6.1791   6.1791

          k =-0.2500 0.2500 0.2500 (167588 PWs)   bands (ev):

    -6.8638  -6.3352  -6.3352  -5.9056  -5.4965  -5.4033  -5.4033  -5.2073
    -5.2073  -5.0893  -5.0892  -5.0109  -4.9879  -4.9150  -4.8300  -4.8264
    -4.7873  -4.7873  -4.6265  -4.6096  -4.6086  -4.6085  -4.6017  -4.5457
    -4.5457  -4.5338  -4.5338  -4.4970  -4.4840  -4.4839  -4.4420  -4.4420
    -4.4085  -4.4074  -4.3553  -4.3552  -4.3444  -4.3433  -4.3381  -4.3248
    -4.3248  -4.2834  -4.2654  -4.2653  -4.2584  -4.2584  -4.2261  -4.1762
    -4.1612  -4.1612  -4.1570  -4.1570  -4.1492  -4.1439  -4.1433  -4.1432
    -4.0781  -4.0780  -4.0282  -4.0281  -4.0157  -3.9897  -3.9897  -3.9696
    -3.9673  -3.9666  -3.9624  -3.9595  -3.9106  -3.9106  -3.8974  -3.8974
    -3.7920  -3.7919  -3.7858  -3.7857  -3.7485  -3.7388  -3.7254  -3.6951
    -3.6951  -3.6665  -3.6665  -3.6445  -3.6445  -3.6308  -3.6308  -3.5760
    -3.5760  -3.5570  -3.5421  -3.5302  -3.5290  -3.5289  -3.5273  -3.5002
    -3.5002  -3.4639  -3.4639  -3.4410  -3.4410  -3.4081  -3.4081  -3.3901
    -3.3622  -3.3622  -3.3251  -3.3250  -3.2896  -3.2822  -3.2815  -3.2671
    -3.2671  -3.2621  -3.2621  -3.2230  -3.2135  -3.1724  -3.1724  -3.1648
    -3.1552  -3.1545  -3.1529  -3.1286  -3.1285  -3.1076  -3.1068  -3.1066
    -3.0798  -3.0798  -3.0722  -3.0693  -3.0693  -3.0333  -3.0291  -2.9936
    -2.9935  -2.9929  -2.9896  -2.9896  -2.9107  -2.9006  -2.8962  -2.8961
    -2.8944  -2.8943  -2.8894  -2.8894  -2.8893  -2.8892  -2.8793  -2.8716
    -2.8548  -2.8518  -2.8511  -2.8511  -2.8363  -2.8318  -2.7938  -2.7929
    -2.7927  -2.7885  -2.7885  -2.7701  -2.7701  -2.7610  -2.7610  -2.7588
    -2.6991  -2.6991  -2.6937  -2.6937  -2.6886  -2.6886  -2.6606  -2.6014
    -2.6003  -2.5999  -2.5982  -2.5865  -2.5843  -2.5797  -2.5687  -2.5687
    -2.5316  -2.5316  -2.5225  -2.5225  -2.5216  -2.5216  -2.4819  -2.4819
    -2.4719  -2.4719  -2.4704  -2.4704  -2.4281  -2.4122  -2.4069  -2.3532
    -2.3532  -2.3348  -2.3332  -2.3277  -2.3277  -2.2789  -2.2789  -2.2552
    -2.2391  -2.2244  -2.2242  -2.2242  -2.2017  -2.2017  -2.1919  -2.1759
    -2.1342  -2.1342  -2.1205  -2.1204  -2.1204  -2.1088  -2.1088  -2.0933
    -2.0933  -2.0925  -2.0887  -2.0841  -2.0838  -2.0837  -2.0712  -2.0712
    -2.0533  -2.0533  -2.0511  -2.0452  -2.0417  -2.0417  -2.0180  -2.0180
    -2.0065  -2.0045  -1.9998  -1.9998  -1.9617  -1.9277  -1.9276  -1.8917
    -1.8747  -1.8746  -1.8638  -1.8638  -1.8401  -1.8401  -1.8250  -1.8250
    -1.8236  -1.8236  -1.8204  -1.8204  -1.7877  -1.7877  -1.7876  -1.7414
    -1.7414  -1.7014  -1.7014  -1.6542  -1.6542  -1.6418  -1.6190  -1.6139
    -1.6117  -1.5950  -1.5935  -1.5759  -1.5759  -1.5707  -1.5707  -1.5691
    -1.5688  -1.5683  -1.5658  -1.5455  -1.5455  -1.5351  -1.5178  -1.4986
    -1.4986  -1.4722  -1.4722  -1.4692  -1.4692  -1.4659  -1.4631  -1.4413
    -1.4412  -1.4261  -1.4261  -1.4133  -1.4030  -1.3893  -1.3893  -1.3583
    -1.3583  -1.3501  -1.3501  -1.3145  -1.3145  -1.3060  -1.3060  -1.2972
    -1.2972  -1.2756  -1.2756  -1.2635  -1.2567  -1.2567  -1.2432  -1.2432
    -1.2428  -1.2428  -1.2283  -1.2179  -1.2172  -1.2097  -1.2097  -1.1977
    -1.1930  -1.1930  -1.1861  -1.1468  -1.1446  -1.1395  -1.1378  -1.1373
    -1.1360  -1.0974  -1.0806  -1.0806  -1.0799  -1.0799  -1.0753  -1.0753
    -1.0703  -1.0573  -1.0552  -1.0184  -1.0184  -1.0112  -1.0112  -0.9882
    -0.9882  -0.9783  -0.9486  -0.9409  -0.9134  -0.9134  -0.8855  -0.8854
    -0.8824  -0.8814  -0.8808  -0.8768  -0.8734  -0.8713  -0.8667  -0.8667
    -0.8345  -0.8345  -0.8163  -0.8162  -0.8107  -0.8107  -0.8092  -0.8092
    -0.7903  -0.5132  -0.5047  -0.4482  -0.4482  -0.4088  -0.2478  -0.1828
    -0.1828  -0.1519   0.1362   0.1362   0.4662   0.4662   0.5654   0.5654
     0.6067   0.6067   0.7498   0.7498   0.8741   0.8758   0.9623   1.5613
     1.5795   1.5803   1.6196   1.6246   1.6693   1.6693   1.7493   1.7493
     1.9571   1.9571   2.1913   2.2719   2.2719   2.2881   2.6690   2.6690
     2.7426   2.7436   2.7500   2.7500   2.9014   2.9023   2.9530   3.0455
     3.0455   3.2758   3.2803   3.4119   3.4388   3.4388   3.7104   3.7104
     3.8236   3.8423   3.8423   3.9212   3.9212   4.0296   4.0296   4.2663
     4.2666   4.3559   4.3559   4.4791   4.4829   4.5038   4.5038   4.6677
     5.3066   5.3066   5.3414   5.4121   5.4121   5.5911   5.5911   5.6454
     5.7066   5.7066   5.7107   5.7109   5.7600   5.7600   5.7672   5.8042
     6.0711   6.0744   6.0745   6.0870   6.1013   6.1013   6.1109   6.1124
     6.1188   6.1765   6.1766

     the Fermi energy is     0.8243 ev

!    total energy              =   -7390.59475899 Ry
     Harris-Foulkes estimate   =   -7390.59475900 Ry
     estimated scf accuracy    <          7.1E-09 Ry

     The total energy is the sum of the following terms:

     one-electron contribution =  -48776.57873305 Ry
     hartree contribution      =   24934.69203975 Ry
     xc contribution           =   -3595.52474812 Ry
     ewald contribution        =   20046.81958965 Ry
     smearing contrib. (-TS)   =      -0.00290722 Ry

     convergence has been achieved in  20 iterations

     Forces acting on atoms (Ry/au):


     negative rho (up, down):  1.971E+00 0.000E+00
     atom    1 type  1   force =    -0.00026074   -0.00026074    0.00214254
     atom    2 type  1   force =    -0.00000551   -0.00025846    0.00192307
     atom    3 type  1   force =     0.00000539   -0.00026242    0.00192331
     atom    4 type  1   force =    -0.00000124   -0.00000124    0.00172302
     atom    5 type  1   force =    -0.00001135    0.00000326    0.00171393
     atom    6 type  1   force =     0.00027638   -0.00000606    0.00192338
     atom    7 type  1   force =    -0.00025846   -0.00000551    0.00192307
     atom    8 type  1   force =    -0.00000280   -0.00000280    0.00170920
     atom    9 type  1   force =    -0.00000358   -0.00000188    0.00170587
     atom   10 type  1   force =     0.00000326   -0.00001135    0.00171393
     atom   11 type  1   force =    -0.00001167   -0.00001167    0.00170844
     atom   12 type  1   force =     0.00027279   -0.00000720    0.00191638
     atom   13 type  1   force =    -0.00026242    0.00000539    0.00192331
     atom   14 type  1   force =    -0.00000188   -0.00000358    0.00170587
     atom   15 type  1   force =    -0.00000032   -0.00000032    0.00170859
     atom   16 type  1   force =    -0.00000606    0.00027638    0.00192338
     atom   17 type  1   force =    -0.00000720    0.00027279    0.00191638
     atom   18 type  1   force =     0.00027436    0.00027436    0.00212990
     atom   19 type  1   force =    -0.00003135   -0.00043160   -0.00113899
     atom   20 type  1   force =    -0.00001191   -0.00043138   -0.00112597
     atom   21 type  1   force =     0.00045168   -0.00043416   -0.00112389
     atom   22 type  1   force =    -0.00043160   -0.00003135   -0.00113899
     atom   23 type  1   force =    -0.00000778   -0.00002081   -0.00114038
     atom   24 type  1   force =     0.00002728   -0.00002678   -0.00115664
     atom   25 type  1   force =    -0.00002081   -0.00000778   -0.00114038
     atom   26 type  1   force =    -0.00001636   -0.00000136   -0.00112862
     atom   27 type  1   force =     0.00044836   -0.00000629   -0.00112518
     atom   28 type  1   force =    -0.00043138   -0.00001191   -0.00112597
     atom   29 type  1   force =    -0.00000136   -0.00001636   -0.00112862
     atom   30 type  1   force =     0.00002154   -0.00001051   -0.00114414
     atom   31 type  1   force =    -0.00002678    0.00002728   -0.00115664
     atom   32 type  1   force =    -0.00001051    0.00002154   -0.00114414
     atom   33 type  1   force =     0.00044751    0.00003191   -0.00114046
     atom   34 type  1   force =    -0.00043416    0.00045168   -0.00112389
     atom   35 type  1   force =    -0.00000629    0.00044836   -0.00112518
     atom   36 type  1   force =     0.00003191    0.00044751   -0.00114046
     atom   37 type  1   force =    -0.00043823   -0.00043823    0.00005907
     atom   38 type  1   force =    -0.00000641   -0.00043549    0.00004614
     atom   39 type  1   force =     0.00003052   -0.00044124    0.00006759
     atom   40 type  1   force =    -0.00043549   -0.00000641    0.00004614
     atom   41 type  1   force =    -0.00000591   -0.00000591    0.00003576
     atom   42 type  1   force =     0.00002499   -0.00000432    0.00005853
     atom   43 type  1   force =    -0.00044124    0.00003052    0.00006759
     atom   44 type  1   force =    -0.00000432    0.00002499    0.00005853
     atom   45 type  1   force =     0.00002829    0.00002829    0.00007809
     atom   46 type  1   force =    -0.00002781   -0.00002781    0.00007170
     atom   47 type  1   force =    -0.00001320   -0.00002634    0.00005678
     atom   48 type  1   force =     0.00045845   -0.00003143    0.00006559
     atom   49 type  1   force =    -0.00002634   -0.00001320    0.00005678
     atom   50 type  1   force =    -0.00001077   -0.00001077    0.00004090
     atom   51 type  1   force =     0.00045372   -0.00000985    0.00004991
     atom   52 type  1   force =    -0.00003143    0.00045845    0.00006559
     atom   53 type  1   force =    -0.00000985    0.00045372    0.00004991
     atom   54 type  1   force =     0.00045555    0.00045555    0.00006011
     atom   55 type  1   force =    -0.00001112   -0.00026762   -0.00085269
     atom   56 type  1   force =    -0.00000625   -0.00026913   -0.00084400
     atom   57 type  1   force =     0.00028512   -0.00026880   -0.00105987
     atom   58 type  1   force =    -0.00026762   -0.00001112   -0.00085269
     atom   59 type  1   force =    -0.00000882   -0.00000649   -0.00063584
     atom   60 type  1   force =     0.00000652   -0.00000659   -0.00063037
     atom   61 type  1   force =    -0.00000649   -0.00000882   -0.00063584
     atom   62 type  1   force =    -0.00000414   -0.00000399   -0.00063554
     atom   63 type  1   force =     0.00028033   -0.00000659   -0.00083491
     atom   64 type  1   force =    -0.00026913   -0.00000625   -0.00084400
     atom   65 type  1   force =    -0.00000399   -0.00000414   -0.00063554
     atom   66 type  1   force =     0.00000462   -0.00000213   -0.00063063
     atom   67 type  1   force =    -0.00000659    0.00000652   -0.00063037
     atom   68 type  1   force =    -0.00000213    0.00000462   -0.00063063
     atom   69 type  1   force =     0.00027928    0.00000831   -0.00083604
     atom   70 type  1   force =    -0.00026880    0.00028512   -0.00105987
     atom   71 type  1   force =    -0.00000659    0.00028033   -0.00083491
     atom   72 type  1   force =     0.00000831    0.00027928   -0.00083604

     Total force =     0.003809     Total SCF correction =     0.000325

     BFGS Geometry Optimization

     number of scf cycles    =   1
     number of bfgs steps    =   0

     energy   new            =   -7390.5947589875 Ry

     new trust radius        =       0.0011299917 bohr
     new conv_thr            =       0.0000000100 Ry


ATOMIC_POSITIONS (angstrom)
Au       0.000000000   0.000000000   0.000000000    0   0   0
Au       4.253738000   0.000000000   0.000000000    0   0   0
Au       8.507476000   0.000000000   0.000000000    0   0   0
Au       2.126869000   2.126869000   0.000000000    0   0   0
Au       6.380607000   2.126869000   0.000000000    0   0   0
Au      10.634344000   2.126869000   0.000000000    0   0   0
Au       0.000000000   4.253738000   0.000000000    0   0   0
Au       4.253738000   4.253738000   0.000000000    0   0   0
Au       8.507476000   4.253738000   0.000000000    0   0   0
Au       2.126869000   6.380607000   0.000000000    0   0   0
Au       6.380607000   6.380607000   0.000000000    0   0   0
Au      10.634344000   6.380607000   0.000000000    0   0   0
Au       0.000000000   8.507476000   0.000000000    0   0   0
Au       4.253738000   8.507476000   0.000000000    0   0   0
Au       8.507476000   8.507476000   0.000000000    0   0   0
Au       2.126869000  10.634344000   0.000000000    0   0   0
Au       6.380607000  10.634344000   0.000000000    0   0   0
Au      10.634344000  10.634344000   0.000000000    0   0   0
Au       2.126869000   0.000000000   2.126869000    0   0   0
Au       6.380607000   0.000000000   2.126869000    0   0   0
Au      10.634344000   0.000000000   2.126869000    0   0   0
Au       0.000000000   2.126869000   2.126869000    0   0   0
Au       4.253738000   2.126869000   2.126869000    0   0   0
Au       8.507476000   2.126869000   2.126869000    0   0   0
Au       2.126869000   4.253738000   2.126869000    0   0   0
Au       6.380607000   4.253738000   2.126869000    0   0   0
Au      10.634344000   4.253738000   2.126869000    0   0   0
Au       0.000000000   6.380607000   2.126869000    0   0   0
Au       4.253738000   6.380607000   2.126869000    0   0   0
Au       8.507476000   6.380607000   2.126869000    0   0   0
Au       2.126869000   8.507476000   2.126869000    0   0   0
Au       6.380607000   8.507476000   2.126869000    0   0   0
Au      10.634344000   8.507476000   2.126869000    0   0   0
Au       0.000000000  10.634344000   2.126869000    0   0   0
Au       4.253738000  10.634344000   2.126869000    0   0   0
Au       8.507476000  10.634344000   2.126869000    0   0   0
Au      -0.000231899  -0.000231899   4.257900259
Au       4.253734608  -0.000230451   4.257893418
Au       8.507492151  -0.000233495   4.257904766
Au      -0.000230451   4.253734608   4.257893418
Au       4.253734872   4.253734872   4.257887922
Au       8.507489223   4.253735714   4.257899972
Au      -0.000233495   8.507492151   4.257904766
Au       4.253735714   8.507489223   4.257899972
Au       8.507490970   8.507490970   4.257910325
Au       2.126854284   2.126854284   4.257906940
Au       6.380600017   2.126855061   4.257899048
Au      10.634586601   2.126852368   4.257903711
Au       2.126855061   6.380600017   4.257899048
Au       6.380601302   6.380601302   4.257890644
Au      10.634584097   6.380601789   4.257895413
Au       2.126852368  10.634586601   4.257903711
Au       6.380601789  10.634584097   4.257895413
Au      10.634585069  10.634585069   4.257900809
Au       2.126863116  -0.000141616   6.373929777
Au       6.380603693  -0.000142418   6.373934377
Au      10.634494877  -0.000142245   6.373820138
Au      -0.000141616   2.126863116   6.373929777
Au       4.253733333   2.126865567   6.374044528
Au       8.507479448   2.126865512   6.374047422
Au       2.126865567   4.253733333   6.374044528
Au       6.380604810   4.253735890   6.374044687
Au      10.634492342   4.253734512   6.373939184
Au      -0.000142418   6.380603693   6.373934377
Au       4.253735890   6.380604810   6.374044687
Au       8.507478446   6.380605875   6.374047284
Au       2.126865512   8.507479448   6.374047422
Au       6.380605875   8.507478446   6.374047284
Au      10.634491790   8.507480400   6.373938586
Au      -0.000142245  10.634494877   6.373820138
Au       4.253734512  10.634492342   6.373939184
Au       8.507480400  10.634491790   6.373938586



     Writing output data file 001strucdevrelax.save
     Check: negative starting charge=   -1.945153
     NEW-OLD atomic charge density approx. for the potential
     Check: negative starting charge=   -1.945108

     negative rho (up, down):  1.971E+00 0.000E+00

     total cpu time spent up to now is     4658.7 secs

     Self-consistent Calculation

     iteration #  1     ecut=    50.00 Ry     beta=0.70
     Davidson diagonalization with overlap
     ethr =  1.00E-06,  avg # of iterations =  2.0

     Threshold (ethr) on eigenvalues was too large:
     Diagonalizing with lowered threshold

     Davidson diagonalization with overlap
     ethr =  9.91E-11,  avg # of iterations =  3.0

     negative rho (up, down):  1.971E+00 0.000E+00

     total cpu time spent up to now is     5151.0 secs

     total energy              =   -7390.59477165 Ry
     Harris-Foulkes estimate   =   -7390.59477275 Ry
     estimated scf accuracy    <       0.00000148 Ry

     iteration #  2     ecut=    50.00 Ry     beta=0.70
     Davidson diagonalization with overlap
     ethr =  1.86E-10,  avg # of iterations =  3.0

     negative rho (up, down):  1.971E+00 0.000E+00

     total cpu time spent up to now is     5390.5 secs

     total energy              =   -7390.59476815 Ry
     Harris-Foulkes estimate   =   -7390.59477709 Ry
     estimated scf accuracy    <       0.00005098 Ry

     iteration #  3     ecut=    50.00 Ry     beta=0.70
     Davidson diagonalization with overlap
     ethr =  1.86E-10,  avg # of iterations =  3.0

     negative rho (up, down):  1.971E+00 0.000E+00

     total cpu time spent up to now is     5632.1 secs

     total energy              =   -7390.59477217 Ry
     Harris-Foulkes estimate   =   -7390.59477307 Ry
     estimated scf accuracy    <       0.00000540 Ry

     iteration #  4     ecut=    50.00 Ry     beta=0.70
     Davidson diagonalization with overlap
     ethr =  1.86E-10,  avg # of iterations =  2.0

     negative rho (up, down):  1.971E+00 0.000E+00

     total cpu time spent up to now is     5817.2 secs

     total energy              =   -7390.59477253 Ry
     Harris-Foulkes estimate   =   -7390.59477287 Ry
     estimated scf accuracy    <       0.00000236 Ry

     iteration #  5     ecut=    50.00 Ry     beta=0.70
     Davidson diagonalization with overlap
     ethr =  1.86E-10,  avg # of iterations =  1.0

     negative rho (up, down):  1.971E+00 0.000E+00

     total cpu time spent up to now is     5971.4 secs

     total energy              =   -7390.59477268 Ry
     Harris-Foulkes estimate   =   -7390.59477274 Ry
     estimated scf accuracy    <       0.00000027 Ry

     iteration #  6     ecut=    50.00 Ry     beta=0.70
     Davidson diagonalization with overlap
     ethr =  3.35E-11,  avg # of iterations =  2.0

     negative rho (up, down):  1.971E+00 0.000E+00

     total cpu time spent up to now is     6125.9 secs

     total energy              =   -7390.59477273 Ry
     Harris-Foulkes estimate   =   -7390.59477272 Ry
     estimated scf accuracy    <       0.00000008 Ry

     iteration #  7     ecut=    50.00 Ry     beta=0.70
     Davidson diagonalization with overlap
     ethr =  1.05E-11,  avg # of iterations =  2.0

     negative rho (up, down):  1.971E+00 0.000E+00

     total cpu time spent up to now is     6287.8 secs

     total energy              =   -7390.59477276 Ry
     Harris-Foulkes estimate   =   -7390.59477274 Ry
     estimated scf accuracy    <       0.00000001 Ry

     iteration #  8     ecut=    50.00 Ry     beta=0.70
     Davidson diagonalization with overlap
     ethr =  1.48E-12,  avg # of iterations =  2.0

     negative rho (up, down):  1.971E+00 0.000E+00

     total cpu time spent up to now is     6454.6 secs

     End of self-consistent calculation

          k = 0.2500 0.2500 0.0833 (167653 PWs)   bands (ev):

    -6.8641  -6.3354  -6.3354  -5.9058  -5.4968  -5.4035  -5.4035  -5.2075
    -5.2075  -5.0896  -5.0895  -5.0111  -4.9881  -4.9151  -4.8302  -4.8265
    -4.7875  -4.7875  -4.6266  -4.6099  -4.6087  -4.6087  -4.6017  -4.5459
    -4.5459  -4.5340  -4.5340  -4.4971  -4.4842  -4.4842  -4.4422  -4.4422
    -4.4087  -4.4075  -4.3554  -4.3554  -4.3445  -4.3435  -4.3382  -4.3250
    -4.3249  -4.2836  -4.2655  -4.2655  -4.2585  -4.2585  -4.2262  -4.1765
    -4.1613  -4.1613  -4.1573  -4.1573  -4.1495  -4.1439  -4.1435  -4.1434
    -4.0782  -4.0782  -4.0285  -4.0283  -4.0159  -3.9899  -3.9899  -3.9700
    -3.9675  -3.9668  -3.9625  -3.9597  -3.9107  -3.9107  -3.8976  -3.8975
    -3.7922  -3.7922  -3.7860  -3.7860  -3.7486  -3.7393  -3.7254  -3.6954
    -3.6954  -3.6666  -3.6666  -3.6448  -3.6448  -3.6310  -3.6310  -3.5762
    -3.5761  -3.5576  -3.5421  -3.5306  -3.5292  -3.5291  -3.5276  -3.5005
    -3.5005  -3.4641  -3.4641  -3.4414  -3.4414  -3.4083  -3.4083  -3.3900
    -3.3626  -3.3625  -3.3251  -3.3251  -3.2896  -3.2822  -3.2814  -3.2673
    -3.2673  -3.2622  -3.2622  -3.2234  -3.2135  -3.1727  -3.1727  -3.1648
    -3.1552  -3.1546  -3.1532  -3.1288  -3.1287  -3.1075  -3.1069  -3.1067
    -3.0799  -3.0799  -3.0723  -3.0695  -3.0695  -3.0335  -3.0290  -2.9937
    -2.9936  -2.9928  -2.9898  -2.9898  -2.9107  -2.9006  -2.8962  -2.8961
    -2.8946  -2.8945  -2.8894  -2.8894  -2.8893  -2.8892  -2.8795  -2.8717
    -2.8546  -2.8520  -2.8512  -2.8512  -2.8364  -2.8318  -2.7937  -2.7929
    -2.7927  -2.7885  -2.7885  -2.7701  -2.7701  -2.7611  -2.7611  -2.7589
    -2.6993  -2.6993  -2.6939  -2.6939  -2.6888  -2.6888  -2.6606  -2.6015
    -2.6003  -2.5999  -2.5981  -2.5867  -2.5845  -2.5797  -2.5687  -2.5687
    -2.5316  -2.5316  -2.5225  -2.5225  -2.5216  -2.5216  -2.4819  -2.4819
    -2.4719  -2.4719  -2.4704  -2.4704  -2.4283  -2.4123  -2.4069  -2.3534
    -2.3534  -2.3348  -2.3332  -2.3279  -2.3279  -2.2790  -2.2790  -2.2555
    -2.2391  -2.2246  -2.2242  -2.2242  -2.2019  -2.2019  -2.1922  -2.1757
    -2.1343  -2.1343  -2.1204  -2.1204  -2.1204  -2.1090  -2.1090  -2.0933
    -2.0933  -2.0927  -2.0889  -2.0839  -2.0837  -2.0837  -2.0712  -2.0712
    -2.0533  -2.0533  -2.0511  -2.0449  -2.0419  -2.0419  -2.0180  -2.0180
    -2.0066  -2.0045  -1.9999  -1.9999  -1.9615  -1.9275  -1.9274  -1.8919
    -1.8746  -1.8746  -1.8636  -1.8636  -1.8400  -1.8400  -1.8252  -1.8252
    -1.8235  -1.8235  -1.8203  -1.8203  -1.7878  -1.7877  -1.7877  -1.7414
    -1.7414  -1.7014  -1.7014  -1.6540  -1.6540  -1.6417  -1.6192  -1.6139
    -1.6116  -1.5949  -1.5933  -1.5757  -1.5757  -1.5707  -1.5706  -1.5691
    -1.5688  -1.5683  -1.5657  -1.5455  -1.5455  -1.5351  -1.5177  -1.4986
    -1.4986  -1.4722  -1.4722  -1.4692  -1.4692  -1.4658  -1.4632  -1.4412
    -1.4412  -1.4260  -1.4260  -1.4133  -1.4030  -1.3892  -1.3892  -1.3581
    -1.3581  -1.3500  -1.3500  -1.3144  -1.3144  -1.3059  -1.3059  -1.2972
    -1.2972  -1.2754  -1.2754  -1.2634  -1.2566  -1.2566  -1.2432  -1.2432
    -1.2427  -1.2427  -1.2281  -1.2177  -1.2169  -1.2096  -1.2096  -1.1976
    -1.1929  -1.1929  -1.1861  -1.1468  -1.1445  -1.1395  -1.1377  -1.1372
    -1.1358  -1.0973  -1.0804  -1.0804  -1.0798  -1.0798  -1.0752  -1.0752
    -1.0701  -1.0573  -1.0551  -1.0183  -1.0182  -1.0111  -1.0111  -0.9881
    -0.9881  -0.9782  -0.9484  -0.9408  -0.9133  -0.9133  -0.8852  -0.8852
    -0.8824  -0.8813  -0.8806  -0.8766  -0.8732  -0.8711  -0.8665  -0.8665
    -0.8343  -0.8343  -0.8161  -0.8161  -0.8106  -0.8106  -0.8091  -0.8091
    -0.7901  -0.5134  -0.5045  -0.4480  -0.4480  -0.4088  -0.2479  -0.1828
    -0.1827  -0.1517   0.1364   0.1364   0.4666   0.4666   0.5654   0.5654
     0.6067   0.6067   0.7501   0.7501   0.8741   0.8758   0.9626   1.5615
     1.5794   1.5803   1.6194   1.6246   1.6697   1.6697   1.7497   1.7497
     1.9572   1.9572   2.1917   2.2723   2.2723   2.2881   2.6694   2.6694
     2.7426   2.7437   2.7500   2.7500   2.9014   2.9023   2.9533   3.0458
     3.0458   3.2760   3.2807   3.4119   3.4392   3.4392   3.7108   3.7108
     3.8239   3.8424   3.8424   3.9215   3.9215   4.0296   4.0296   4.2664
     4.2667   4.3559   4.3559   4.4794   4.4833   4.5041   4.5041   4.6679
     5.3066   5.3067   5.3693   5.4121   5.4121   5.5913   5.5913   5.6469
     5.6617   5.7067   5.7067   5.7301   5.7302   5.7600   5.7600   5.8047
     6.0712   6.0742   6.0742   6.0878   6.1016   6.1017   6.1110   6.1126
     6.1582   6.1792   6.1793

          k = 0.2500 0.2500-0.2500 (167588 PWs)   bands (ev):

    -6.8641  -6.3354  -6.3354  -5.9058  -5.4968  -5.4035  -5.4035  -5.2075
    -5.2075  -5.0896  -5.0895  -5.0111  -4.9881  -4.9151  -4.8302  -4.8265
    -4.7875  -4.7875  -4.6266  -4.6099  -4.6087  -4.6087  -4.6017  -4.5459
    -4.5459  -4.5340  -4.5340  -4.4971  -4.4842  -4.4842  -4.4422  -4.4422
    -4.4087  -4.4075  -4.3554  -4.3554  -4.3445  -4.3435  -4.3382  -4.3250
    -4.3249  -4.2836  -4.2655  -4.2655  -4.2585  -4.2585  -4.2263  -4.1765
    -4.1613  -4.1613  -4.1573  -4.1573  -4.1495  -4.1439  -4.1435  -4.1434
    -4.0782  -4.0782  -4.0285  -4.0283  -4.0159  -3.9899  -3.9899  -3.9700
    -3.9675  -3.9668  -3.9625  -3.9597  -3.9107  -3.9107  -3.8975  -3.8975
    -3.7922  -3.7922  -3.7860  -3.7860  -3.7486  -3.7393  -3.7254  -3.6954
    -3.6954  -3.6666  -3.6666  -3.6448  -3.6448  -3.6310  -3.6310  -3.5762
    -3.5761  -3.5576  -3.5421  -3.5306  -3.5292  -3.5291  -3.5276  -3.5005
    -3.5005  -3.4641  -3.4641  -3.4414  -3.4414  -3.4083  -3.4083  -3.3900
    -3.3625  -3.3625  -3.3251  -3.3251  -3.2896  -3.2822  -3.2814  -3.2673
    -3.2673  -3.2622  -3.2622  -3.2234  -3.2136  -3.1727  -3.1727  -3.1648
    -3.1552  -3.1546  -3.1532  -3.1288  -3.1287  -3.1075  -3.1069  -3.1067
    -3.0799  -3.0798  -3.0723  -3.0694  -3.0694  -3.0335  -3.0290  -2.9937
    -2.9936  -2.9928  -2.9898  -2.9898  -2.9107  -2.9006  -2.8962  -2.8961
    -2.8946  -2.8945  -2.8894  -2.8894  -2.8893  -2.8892  -2.8795  -2.8717
    -2.8546  -2.8519  -2.8512  -2.8512  -2.8364  -2.8318  -2.7937  -2.7929
    -2.7927  -2.7885  -2.7885  -2.7701  -2.7701  -2.7611  -2.7611  -2.7589
    -2.6993  -2.6993  -2.6939  -2.6939  -2.6888  -2.6888  -2.6606  -2.6015
    -2.6003  -2.5999  -2.5981  -2.5867  -2.5845  -2.5797  -2.5687  -2.5687
    -2.5316  -2.5315  -2.5225  -2.5225  -2.5216  -2.5216  -2.4819  -2.4819
    -2.4719  -2.4719  -2.4704  -2.4704  -2.4283  -2.4123  -2.4069  -2.3534
    -2.3534  -2.3348  -2.3332  -2.3279  -2.3279  -2.2790  -2.2790  -2.2555
    -2.2391  -2.2246  -2.2242  -2.2241  -2.2019  -2.2019  -2.1922  -2.1757
    -2.1343  -2.1343  -2.1204  -2.1204  -2.1204  -2.1090  -2.1089  -2.0933
    -2.0933  -2.0927  -2.0889  -2.0839  -2.0837  -2.0837  -2.0712  -2.0712
    -2.0533  -2.0533  -2.0511  -2.0449  -2.0419  -2.0419  -2.0180  -2.0180
    -2.0066  -2.0045  -1.9999  -1.9999  -1.9615  -1.9275  -1.9274  -1.8919
    -1.8746  -1.8746  -1.8636  -1.8636  -1.8400  -1.8400  -1.8252  -1.8252
    -1.8235  -1.8235  -1.8203  -1.8203  -1.7878  -1.7877  -1.7877  -1.7414
    -1.7414  -1.7014  -1.7014  -1.6540  -1.6540  -1.6417  -1.6192  -1.6139
    -1.6116  -1.5949  -1.5933  -1.5757  -1.5757  -1.5706  -1.5706  -1.5691
    -1.5688  -1.5683  -1.5657  -1.5455  -1.5455  -1.5351  -1.5177  -1.4986
    -1.4986  -1.4722  -1.4722  -1.4692  -1.4692  -1.4658  -1.4632  -1.4412
    -1.4412  -1.4260  -1.4260  -1.4133  -1.4030  -1.3892  -1.3892  -1.3581
    -1.3581  -1.3500  -1.3500  -1.3144  -1.3144  -1.3059  -1.3059  -1.2972
    -1.2972  -1.2754  -1.2754  -1.2634  -1.2566  -1.2566  -1.2432  -1.2432
    -1.2427  -1.2427  -1.2281  -1.2178  -1.2169  -1.2096  -1.2096  -1.1976
    -1.1929  -1.1929  -1.1861  -1.1468  -1.1445  -1.1395  -1.1377  -1.1372
    -1.1358  -1.0973  -1.0804  -1.0804  -1.0798  -1.0798  -1.0752  -1.0752
    -1.0701  -1.0573  -1.0551  -1.0183  -1.0182  -1.0111  -1.0111  -0.9881
    -0.9881  -0.9782  -0.9484  -0.9408  -0.9133  -0.9133  -0.8852  -0.8852
    -0.8824  -0.8813  -0.8807  -0.8766  -0.8732  -0.8711  -0.8665  -0.8665
    -0.8343  -0.8343  -0.8161  -0.8161  -0.8106  -0.8106  -0.8090  -0.8090
    -0.7901  -0.5134  -0.5045  -0.4480  -0.4480  -0.4088  -0.2479  -0.1827
    -0.1827  -0.1517   0.1364   0.1364   0.4666   0.4666   0.5654   0.5654
     0.6067   0.6068   0.7501   0.7501   0.8741   0.8758   0.9626   1.5615
     1.5795   1.5803   1.6195   1.6246   1.6697   1.6697   1.7497   1.7497
     1.9572   1.9572   2.1917   2.2723   2.2723   2.2881   2.6694   2.6694
     2.7426   2.7437   2.7500   2.7500   2.9014   2.9023   2.9533   3.0458
     3.0458   3.2760   3.2807   3.4119   3.4392   3.4392   3.7108   3.7108
     3.8239   3.8424   3.8424   3.9215   3.9215   4.0296   4.0296   4.2663
     4.2667   4.3559   4.3559   4.4794   4.4833   4.5041   4.5041   4.6680
     5.3068   5.3069   5.3416   5.4121   5.4121   5.5913   5.5913   5.6455
     5.7066   5.7067   5.7109   5.7110   5.7600   5.7600   5.7673   5.8047
     6.0712   6.0746   6.0746   6.0878   6.1016   6.1017   6.1110   6.1126
     6.1188   6.1767   6.1768

          k =-0.2500 0.2500-0.0833 (167653 PWs)   bands (ev):

    -6.8641  -6.3354  -6.3354  -5.9058  -5.4968  -5.4035  -5.4035  -5.2075
    -5.2075  -5.0896  -5.0895  -5.0111  -4.9881  -4.9151  -4.8302  -4.8265
    -4.7875  -4.7875  -4.6266  -4.6099  -4.6087  -4.6087  -4.6017  -4.5459
    -4.5459  -4.5340  -4.5340  -4.4971  -4.4842  -4.4842  -4.4422  -4.4422
    -4.4087  -4.4075  -4.3554  -4.3554  -4.3445  -4.3435  -4.3382  -4.3250
    -4.3249  -4.2836  -4.2656  -4.2655  -4.2585  -4.2585  -4.2262  -4.1765
    -4.1613  -4.1613  -4.1573  -4.1573  -4.1495  -4.1439  -4.1435  -4.1434
    -4.0782  -4.0782  -4.0285  -4.0283  -4.0159  -3.9899  -3.9899  -3.9700
    -3.9675  -3.9669  -3.9626  -3.9597  -3.9107  -3.9107  -3.8976  -3.8975
    -3.7922  -3.7922  -3.7860  -3.7860  -3.7486  -3.7393  -3.7254  -3.6954
    -3.6954  -3.6666  -3.6666  -3.6448  -3.6448  -3.6310  -3.6310  -3.5762
    -3.5761  -3.5576  -3.5421  -3.5306  -3.5292  -3.5291  -3.5276  -3.5005
    -3.5005  -3.4641  -3.4641  -3.4414  -3.4414  -3.4084  -3.4083  -3.3900
    -3.3625  -3.3625  -3.3252  -3.3251  -3.2896  -3.2822  -3.2814  -3.2673
    -3.2673  -3.2622  -3.2622  -3.2234  -3.2136  -3.1727  -3.1727  -3.1648
    -3.1552  -3.1546  -3.1532  -3.1288  -3.1287  -3.1075  -3.1069  -3.1067
    -3.0799  -3.0798  -3.0723  -3.0695  -3.0695  -3.0334  -3.0290  -2.9937
    -2.9936  -2.9928  -2.9898  -2.9898  -2.9107  -2.9006  -2.8962  -2.8961
    -2.8946  -2.8945  -2.8894  -2.8894  -2.8893  -2.8892  -2.8795  -2.8717
    -2.8546  -2.8520  -2.8512  -2.8512  -2.8364  -2.8318  -2.7937  -2.7929
    -2.7927  -2.7885  -2.7885  -2.7701  -2.7701  -2.7611  -2.7611  -2.7589
    -2.6993  -2.6993  -2.6939  -2.6939  -2.6888  -2.6888  -2.6606  -2.6015
    -2.6003  -2.5999  -2.5982  -2.5867  -2.5845  -2.5797  -2.5687  -2.5687
    -2.5316  -2.5316  -2.5225  -2.5225  -2.5216  -2.5216  -2.4819  -2.4819
    -2.4719  -2.4719  -2.4704  -2.4704  -2.4283  -2.4123  -2.4069  -2.3534
    -2.3534  -2.3348  -2.3332  -2.3279  -2.3279  -2.2790  -2.2790  -2.2555
    -2.2391  -2.2246  -2.2242  -2.2242  -2.2019  -2.2019  -2.1922  -2.1757
    -2.1343  -2.1343  -2.1204  -2.1204  -2.1204  -2.1090  -2.1090  -2.0933
    -2.0933  -2.0927  -2.0889  -2.0839  -2.0837  -2.0837  -2.0712  -2.0712
    -2.0533  -2.0533  -2.0511  -2.0449  -2.0419  -2.0419  -2.0180  -2.0180
    -2.0066  -2.0045  -1.9999  -1.9999  -1.9615  -1.9275  -1.9274  -1.8919
    -1.8746  -1.8746  -1.8636  -1.8636  -1.8400  -1.8400  -1.8252  -1.8252
    -1.8235  -1.8235  -1.8203  -1.8203  -1.7878  -1.7877  -1.7877  -1.7414
    -1.7414  -1.7014  -1.7014  -1.6540  -1.6540  -1.6417  -1.6192  -1.6139
    -1.6116  -1.5949  -1.5933  -1.5757  -1.5757  -1.5707  -1.5706  -1.5691
    -1.5688  -1.5683  -1.5657  -1.5455  -1.5455  -1.5351  -1.5177  -1.4986
    -1.4986  -1.4722  -1.4722  -1.4692  -1.4692  -1.4658  -1.4632  -1.4412
    -1.4412  -1.4260  -1.4260  -1.4133  -1.4030  -1.3892  -1.3892  -1.3581
    -1.3581  -1.3500  -1.3500  -1.3144  -1.3144  -1.3059  -1.3059  -1.2972
    -1.2972  -1.2754  -1.2754  -1.2634  -1.2566  -1.2566  -1.2432  -1.2432
    -1.2427  -1.2427  -1.2281  -1.2177  -1.2169  -1.2096  -1.2096  -1.1976
    -1.1929  -1.1929  -1.1861  -1.1468  -1.1445  -1.1395  -1.1377  -1.1372
    -1.1358  -1.0973  -1.0804  -1.0804  -1.0798  -1.0798  -1.0752  -1.0752
    -1.0701  -1.0573  -1.0551  -1.0182  -1.0182  -1.0111  -1.0111  -0.9881
    -0.9881  -0.9782  -0.9484  -0.9408  -0.9133  -0.9133  -0.8852  -0.8852
    -0.8824  -0.8813  -0.8806  -0.8766  -0.8732  -0.8711  -0.8665  -0.8665
    -0.8343  -0.8343  -0.8161  -0.8161  -0.8106  -0.8106  -0.8091  -0.8091
    -0.7901  -0.5134  -0.5045  -0.4480  -0.4480  -0.4088  -0.2479  -0.1827
    -0.1827  -0.1517   0.1364   0.1364   0.4666   0.4666   0.5654   0.5654
     0.6067   0.6067   0.7501   0.7501   0.8741   0.8758   0.9626   1.5615
     1.5794   1.5803   1.6195   1.6246   1.6697   1.6697   1.7497   1.7497
     1.9572   1.9572   2.1917   2.2723   2.2723   2.2881   2.6694   2.6694
     2.7426   2.7437   2.7500   2.7500   2.9014   2.9023   2.9533   3.0458
     3.0458   3.2760   3.2807   3.4119   3.4392   3.4392   3.7108   3.7108
     3.8239   3.8424   3.8424   3.9215   3.9215   4.0296   4.0296   4.2664
     4.2667   4.3559   4.3559   4.4794   4.4833   4.5041   4.5041   4.6679
     5.3066   5.3067   5.3693   5.4121   5.4121   5.5913   5.5913   5.6469
     5.6617   5.7067   5.7067   5.7301   5.7302   5.7600   5.7600   5.8047
     6.0712   6.0741   6.0742   6.0878   6.1016   6.1016   6.1110   6.1126
     6.1582   6.1792   6.1793

          k = 0.2500 0.2500-0.0833 (167653 PWs)   bands (ev):

    -6.8641  -6.3354  -6.3354  -5.9058  -5.4968  -5.4035  -5.4035  -5.2075
    -5.2075  -5.0896  -5.0895  -5.0111  -4.9881  -4.9151  -4.8302  -4.8265
    -4.7875  -4.7875  -4.6266  -4.6099  -4.6087  -4.6087  -4.6017  -4.5459
    -4.5459  -4.5340  -4.5340  -4.4971  -4.4842  -4.4842  -4.4422  -4.4422
    -4.4087  -4.4075  -4.3554  -4.3554  -4.3445  -4.3435  -4.3382  -4.3250
    -4.3249  -4.2836  -4.2655  -4.2655  -4.2585  -4.2585  -4.2262  -4.1765
    -4.1613  -4.1613  -4.1573  -4.1573  -4.1495  -4.1439  -4.1435  -4.1434
    -4.0782  -4.0782  -4.0285  -4.0283  -4.0159  -3.9899  -3.9899  -3.9700
    -3.9675  -3.9668  -3.9625  -3.9597  -3.9107  -3.9107  -3.8976  -3.8975
    -3.7922  -3.7922  -3.7860  -3.7860  -3.7486  -3.7393  -3.7254  -3.6954
    -3.6954  -3.6666  -3.6666  -3.6448  -3.6448  -3.6310  -3.6310  -3.5762
    -3.5761  -3.5576  -3.5421  -3.5306  -3.5292  -3.5291  -3.5276  -3.5005
    -3.5005  -3.4641  -3.4641  -3.4414  -3.4414  -3.4083  -3.4083  -3.3900
    -3.3626  -3.3625  -3.3251  -3.3251  -3.2896  -3.2822  -3.2814  -3.2673
    -3.2673  -3.2622  -3.2622  -3.2234  -3.2135  -3.1727  -3.1727  -3.1648
    -3.1552  -3.1546  -3.1532  -3.1288  -3.1287  -3.1075  -3.1069  -3.1067
    -3.0799  -3.0799  -3.0723  -3.0695  -3.0695  -3.0335  -3.0290  -2.9937
    -2.9936  -2.9928  -2.9898  -2.9898  -2.9107  -2.9006  -2.8962  -2.8961
    -2.8946  -2.8945  -2.8894  -2.8894  -2.8893  -2.8892  -2.8795  -2.8717
    -2.8546  -2.8520  -2.8512  -2.8512  -2.8364  -2.8318  -2.7937  -2.7929
    -2.7927  -2.7885  -2.7885  -2.7701  -2.7701  -2.7611  -2.7611  -2.7589
    -2.6993  -2.6993  -2.6939  -2.6939  -2.6888  -2.6888  -2.6606  -2.6015
    -2.6003  -2.5999  -2.5981  -2.5867  -2.5845  -2.5797  -2.5687  -2.5687
    -2.5316  -2.5316  -2.5225  -2.5225  -2.5216  -2.5216  -2.4819  -2.4819
    -2.4719  -2.4719  -2.4704  -2.4704  -2.4283  -2.4123  -2.4069  -2.3534
    -2.3534  -2.3348  -2.3332  -2.3279  -2.3279  -2.2790  -2.2790  -2.2555
    -2.2391  -2.2246  -2.2242  -2.2242  -2.2019  -2.2019  -2.1922  -2.1757
    -2.1343  -2.1343  -2.1204  -2.1204  -2.1204  -2.1090  -2.1090  -2.0933
    -2.0933  -2.0927  -2.0889  -2.0839  -2.0837  -2.0837  -2.0712  -2.0712
    -2.0533  -2.0533  -2.0511  -2.0449  -2.0419  -2.0419  -2.0180  -2.0180
    -2.0066  -2.0045  -1.9999  -1.9999  -1.9615  -1.9275  -1.9274  -1.8919
    -1.8746  -1.8746  -1.8636  -1.8636  -1.8400  -1.8400  -1.8252  -1.8252
    -1.8235  -1.8235  -1.8203  -1.8203  -1.7878  -1.7877  -1.7877  -1.7414
    -1.7414  -1.7014  -1.7014  -1.6540  -1.6540  -1.6417  -1.6192  -1.6139
    -1.6116  -1.5949  -1.5933  -1.5757  -1.5757  -1.5707  -1.5706  -1.5691
    -1.5688  -1.5683  -1.5657  -1.5455  -1.5455  -1.5351  -1.5177  -1.4986
    -1.4986  -1.4722  -1.4722  -1.4692  -1.4692  -1.4658  -1.4632  -1.4412
    -1.4412  -1.4260  -1.4260  -1.4133  -1.4030  -1.3892  -1.3892  -1.3581
    -1.3581  -1.3500  -1.3500  -1.3144  -1.3144  -1.3059  -1.3059  -1.2972
    -1.2972  -1.2754  -1.2754  -1.2634  -1.2566  -1.2566  -1.2432  -1.2432
    -1.2427  -1.2427  -1.2281  -1.2177  -1.2169  -1.2096  -1.2096  -1.1976
    -1.1929  -1.1929  -1.1861  -1.1468  -1.1445  -1.1395  -1.1377  -1.1372
    -1.1358  -1.0973  -1.0804  -1.0804  -1.0798  -1.0798  -1.0752  -1.0752
    -1.0701  -1.0573  -1.0551  -1.0183  -1.0182  -1.0111  -1.0111  -0.9881
    -0.9881  -0.9782  -0.9484  -0.9408  -0.9133  -0.9133  -0.8852  -0.8852
    -0.8824  -0.8813  -0.8806  -0.8766  -0.8732  -0.8711  -0.8665  -0.8665
    -0.8343  -0.8343  -0.8161  -0.8161  -0.8106  -0.8106  -0.8091  -0.8091
    -0.7901  -0.5134  -0.5045  -0.4480  -0.4480  -0.4088  -0.2479  -0.1828
    -0.1827  -0.1517   0.1364   0.1364   0.4666   0.4666   0.5654   0.5654
     0.6067   0.6067   0.7501   0.7501   0.8741   0.8758   0.9626   1.5615
     1.5794   1.5803   1.6194   1.6246   1.6697   1.6697   1.7497   1.7497
     1.9572   1.9572   2.1917   2.2723   2.2723   2.2881   2.6694   2.6694
     2.7426   2.7437   2.7500   2.7500   2.9014   2.9023   2.9533   3.0458
     3.0458   3.2760   3.2807   3.4119   3.4392   3.4392   3.7108   3.7108
     3.8239   3.8424   3.8424   3.9215   3.9215   4.0296   4.0296   4.2664
     4.2667   4.3559   4.3559   4.4794   4.4833   4.5041   4.5041   4.6679
     5.3066   5.3067   5.3693   5.4121   5.4121   5.5913   5.5913   5.6469
     5.6617   5.7067   5.7067   5.7301   5.7302   5.7600   5.7600   5.8047
     6.0712   6.0742   6.0742   6.0878   6.1016   6.1017   6.1110   6.1126
     6.1582   6.1792   6.1793

          k =-0.2500 0.2500 0.2500 (167588 PWs)   bands (ev):

    -6.8641  -6.3354  -6.3354  -5.9058  -5.4968  -5.4035  -5.4035  -5.2075
    -5.2075  -5.0896  -5.0895  -5.0111  -4.9881  -4.9151  -4.8302  -4.8265
    -4.7875  -4.7875  -4.6266  -4.6099  -4.6087  -4.6087  -4.6017  -4.5459
    -4.5459  -4.5340  -4.5340  -4.4971  -4.4842  -4.4842  -4.4422  -4.4422
    -4.4087  -4.4075  -4.3554  -4.3554  -4.3445  -4.3435  -4.3382  -4.3250
    -4.3249  -4.2836  -4.2656  -4.2655  -4.2585  -4.2585  -4.2263  -4.1765
    -4.1613  -4.1613  -4.1573  -4.1573  -4.1495  -4.1439  -4.1435  -4.1434
    -4.0782  -4.0782  -4.0285  -4.0283  -4.0159  -3.9899  -3.9898  -3.9700
    -3.9675  -3.9669  -3.9625  -3.9597  -3.9107  -3.9107  -3.8976  -3.8975
    -3.7922  -3.7922  -3.7860  -3.7860  -3.7486  -3.7393  -3.7254  -3.6954
    -3.6954  -3.6666  -3.6666  -3.6448  -3.6448  -3.6310  -3.6310  -3.5762
    -3.5761  -3.5576  -3.5421  -3.5306  -3.5292  -3.5291  -3.5276  -3.5005
    -3.5005  -3.4641  -3.4641  -3.4414  -3.4414  -3.4083  -3.4083  -3.3900
    -3.3625  -3.3625  -3.3251  -3.3251  -3.2896  -3.2822  -3.2814  -3.2673
    -3.2673  -3.2622  -3.2622  -3.2234  -3.2136  -3.1727  -3.1727  -3.1648
    -3.1552  -3.1546  -3.1532  -3.1288  -3.1287  -3.1075  -3.1069  -3.1067
    -3.0799  -3.0798  -3.0723  -3.0694  -3.0694  -3.0334  -3.0290  -2.9937
    -2.9937  -2.9928  -2.9898  -2.9898  -2.9107  -2.9006  -2.8962  -2.8961
    -2.8946  -2.8945  -2.8894  -2.8894  -2.8893  -2.8892  -2.8795  -2.8717
    -2.8546  -2.8519  -2.8512  -2.8512  -2.8364  -2.8318  -2.7937  -2.7929
    -2.7927  -2.7885  -2.7885  -2.7701  -2.7701  -2.7611  -2.7611  -2.7589
    -2.6993  -2.6993  -2.6939  -2.6939  -2.6888  -2.6888  -2.6606  -2.6015
    -2.6003  -2.5999  -2.5982  -2.5867  -2.5845  -2.5797  -2.5687  -2.5687
    -2.5316  -2.5316  -2.5225  -2.5225  -2.5216  -2.5216  -2.4820  -2.4819
    -2.4719  -2.4719  -2.4704  -2.4704  -2.4283  -2.4123  -2.4069  -2.3534
    -2.3534  -2.3348  -2.3332  -2.3279  -2.3279  -2.2790  -2.2790  -2.2555
    -2.2391  -2.2246  -2.2242  -2.2241  -2.2019  -2.2019  -2.1922  -2.1757
    -2.1343  -2.1343  -2.1204  -2.1204  -2.1204  -2.1090  -2.1089  -2.0933
    -2.0933  -2.0927  -2.0889  -2.0839  -2.0837  -2.0837  -2.0712  -2.0712
    -2.0533  -2.0533  -2.0511  -2.0449  -2.0419  -2.0419  -2.0180  -2.0180
    -2.0066  -2.0045  -1.9999  -1.9999  -1.9615  -1.9275  -1.9274  -1.8919
    -1.8746  -1.8746  -1.8636  -1.8636  -1.8400  -1.8400  -1.8252  -1.8252
    -1.8235  -1.8235  -1.8203  -1.8203  -1.7878  -1.7877  -1.7876  -1.7414
    -1.7414  -1.7014  -1.7014  -1.6540  -1.6540  -1.6417  -1.6192  -1.6139
    -1.6116  -1.5949  -1.5933  -1.5757  -1.5757  -1.5706  -1.5706  -1.5691
    -1.5688  -1.5683  -1.5657  -1.5455  -1.5455  -1.5351  -1.5177  -1.4986
    -1.4986  -1.4722  -1.4722  -1.4692  -1.4692  -1.4658  -1.4632  -1.4412
    -1.4412  -1.4260  -1.4260  -1.4133  -1.4030  -1.3892  -1.3892  -1.3581
    -1.3581  -1.3500  -1.3500  -1.3144  -1.3144  -1.3059  -1.3059  -1.2972
    -1.2972  -1.2754  -1.2754  -1.2634  -1.2566  -1.2566  -1.2432  -1.2432
    -1.2427  -1.2427  -1.2281  -1.2178  -1.2169  -1.2096  -1.2096  -1.1976
    -1.1929  -1.1929  -1.1861  -1.1468  -1.1445  -1.1395  -1.1377  -1.1372
    -1.1358  -1.0973  -1.0804  -1.0804  -1.0797  -1.0797  -1.0752  -1.0752
    -1.0701  -1.0573  -1.0551  -1.0182  -1.0182  -1.0111  -1.0111  -0.9881
    -0.9881  -0.9782  -0.9484  -0.9408  -0.9133  -0.9133  -0.8852  -0.8852
    -0.8824  -0.8813  -0.8806  -0.8766  -0.8732  -0.8711  -0.8665  -0.8665
    -0.8343  -0.8343  -0.8161  -0.8161  -0.8106  -0.8106  -0.8090  -0.8090
    -0.7901  -0.5134  -0.5045  -0.4480  -0.4480  -0.4088  -0.2479  -0.1827
    -0.1827  -0.1517   0.1364   0.1364   0.4666   0.4666   0.5654   0.5654
     0.6067   0.6067   0.7501   0.7501   0.8741   0.8758   0.9626   1.5615
     1.5794   1.5803   1.6195   1.6246   1.6697   1.6697   1.7497   1.7497
     1.9572   1.9572   2.1917   2.2723   2.2723   2.2881   2.6694   2.6694
     2.7426   2.7437   2.7500   2.7500   2.9014   2.9023   2.9533   3.0458
     3.0458   3.2760   3.2807   3.4119   3.4392   3.4392   3.7108   3.7108
     3.8239   3.8424   3.8424   3.9215   3.9215   4.0296   4.0296   4.2663
     4.2667   4.3559   4.3559   4.4794   4.4833   4.5041   4.5041   4.6680
     5.3068   5.3069   5.3416   5.4121   5.4121   5.5913   5.5914   5.6455
     5.7066   5.7067   5.7109   5.7110   5.7600   5.7600   5.7673   5.8047
     6.0712   6.0746   6.0747   6.0878   6.1016   6.1017   6.1110   6.1126
     6.1188   6.1767   6.1768

     the Fermi energy is     0.8245 ev

!    total energy              =   -7390.59477276 Ry
     Harris-Foulkes estimate   =   -7390.59477276 Ry
     estimated scf accuracy    <          7.5E-09 Ry

     The total energy is the sum of the following terms:

     one-electron contribution =  -48779.07663341 Ry
     hartree contribution      =   24935.93959510 Ry
     xc contribution           =   -3595.52625470 Ry
     ewald contribution        =   20048.07141746 Ry
     smearing contrib. (-TS)   =      -0.00289720 Ry

     convergence has been achieved in   8 iterations

     Forces acting on atoms (Ry/au):


     negative rho (up, down):  1.971E+00 0.000E+00
     atom    1 type  1   force =    -0.00027239   -0.00027239    0.00213385
     atom    2 type  1   force =     0.00000274   -0.00028005    0.00192463
     atom    3 type  1   force =     0.00000835   -0.00027317    0.00193049
     atom    4 type  1   force =    -0.00001494   -0.00001494    0.00171824
     atom    5 type  1   force =     0.00000926   -0.00002097    0.00171759
     atom    6 type  1   force =     0.00026879   -0.00000917    0.00192627
     atom    7 type  1   force =    -0.00028005    0.00000274    0.00192463
     atom    8 type  1   force =    -0.00000458   -0.00000458    0.00170252
     atom    9 type  1   force =     0.00002035   -0.00000466    0.00171317
     atom   10 type  1   force =    -0.00002097    0.00000926    0.00171759
     atom   11 type  1   force =     0.00000791    0.00000791    0.00170992
     atom   12 type  1   force =     0.00027732    0.00000294    0.00192574
     atom   13 type  1   force =    -0.00027317    0.00000835    0.00193049
     atom   14 type  1   force =    -0.00000466    0.00002035    0.00171317
     atom   15 type  1   force =     0.00001429    0.00001429    0.00171839
     atom   16 type  1   force =    -0.00000917    0.00026879    0.00192627
     atom   17 type  1   force =     0.00000294    0.00027732    0.00192574
     atom   18 type  1   force =     0.00026822    0.00026822    0.00212924
     atom   19 type  1   force =    -0.00003112   -0.00043878   -0.00114986
     atom   20 type  1   force =     0.00000136   -0.00043717   -0.00113308
     atom   21 type  1   force =     0.00042477   -0.00042835   -0.00115868
     atom   22 type  1   force =    -0.00043878   -0.00003112   -0.00114986
     atom   23 type  1   force =     0.00000322   -0.00004432   -0.00112509
     atom   24 type  1   force =     0.00003827   -0.00003764   -0.00114356
     atom   25 type  1   force =    -0.00004432    0.00000322   -0.00112509
     atom   26 type  1   force =     0.00000792   -0.00000439   -0.00110960
     atom   27 type  1   force =     0.00043364    0.00000138   -0.00113164
     atom   28 type  1   force =    -0.00043717    0.00000136   -0.00113308
     atom   29 type  1   force =    -0.00000439    0.00000792   -0.00110960
     atom   30 type  1   force =     0.00004504   -0.00000088   -0.00112817
     atom   31 type  1   force =    -0.00003764    0.00003827   -0.00114356
     atom   32 type  1   force =    -0.00000088    0.00004504   -0.00112817
     atom   33 type  1   force =     0.00043536    0.00003184   -0.00115259
     atom   34 type  1   force =    -0.00042835    0.00042477   -0.00115868
     atom   35 type  1   force =     0.00000138    0.00043364   -0.00113164
     atom   36 type  1   force =     0.00003184    0.00043536   -0.00115259
     atom   37 type  1   force =    -0.00038333   -0.00038333   -0.00001953
     atom   38 type  1   force =     0.00001105   -0.00039121   -0.00000320
     atom   39 type  1   force =     0.00002493   -0.00038309    0.00000525
     atom   40 type  1   force =    -0.00039121    0.00001105   -0.00000320
     atom   41 type  1   force =     0.00000289    0.00000289    0.00001861
     atom   42 type  1   force =     0.00004002    0.00000104    0.00002446
     atom   43 type  1   force =    -0.00038309    0.00002493    0.00000525
     atom   44 type  1   force =     0.00000104    0.00004002    0.00002446
     atom   45 type  1   force =     0.00003391    0.00003391    0.00003111
     atom   46 type  1   force =    -0.00003309   -0.00003309    0.00003662
     atom   47 type  1   force =    -0.00000036   -0.00004118    0.00002572
     atom   48 type  1   force =     0.00038110   -0.00002551    0.00000634
     atom   49 type  1   force =    -0.00004118   -0.00000036    0.00002572
     atom   50 type  1   force =    -0.00000170   -0.00000170    0.00001706
     atom   51 type  1   force =     0.00039098   -0.00000850   -0.00000514
     atom   52 type  1   force =    -0.00002551    0.00038110    0.00000634
     atom   53 type  1   force =    -0.00000850    0.00039098   -0.00000514
     atom   54 type  1   force =     0.00038142    0.00038142   -0.00002272
     atom   55 type  1   force =    -0.00000255   -0.00023670   -0.00079875
     atom   56 type  1   force =    -0.00000737   -0.00023654   -0.00079177
     atom   57 type  1   force =     0.00023250   -0.00022913   -0.00098460
     atom   58 type  1   force =    -0.00023670   -0.00000255   -0.00079875
     atom   59 type  1   force =     0.00000720   -0.00000971   -0.00059404
     atom   60 type  1   force =     0.00000470   -0.00000477   -0.00061151
     atom   61 type  1   force =    -0.00000971    0.00000720   -0.00059404
     atom   62 type  1   force =    -0.00000186    0.00000430   -0.00058496
     atom   63 type  1   force =     0.00023593    0.00000654   -0.00078289
     atom   64 type  1   force =    -0.00023654   -0.00000737   -0.00079177
     atom   65 type  1   force =     0.00000430   -0.00000186   -0.00058496
     atom   66 type  1   force =     0.00000767   -0.00000776   -0.00060151
     atom   67 type  1   force =    -0.00000477    0.00000470   -0.00061151
     atom   68 type  1   force =    -0.00000776    0.00000767   -0.00060151
     atom   69 type  1   force =     0.00023726    0.00000057   -0.00079565
     atom   70 type  1   force =    -0.00022913    0.00023250   -0.00098460
     atom   71 type  1   force =     0.00000654    0.00023593   -0.00078289
     atom   72 type  1   force =     0.00000057    0.00023726   -0.00079565

     Total force =     0.003505     Total SCF correction =     0.000341

     bfgs converged in   2 scf cycles and   1 bfgs steps
     (criteria: energy <  1.0E-04, force <  1.0E-03)

     End of BFGS Geometry Optimization

     Final energy   =   -7390.5947727568 Ry
Begin final coordinates

ATOMIC_POSITIONS (angstrom)
Au       0.000000000   0.000000000   0.000000000    0   0   0
Au       4.253738000   0.000000000   0.000000000    0   0   0
Au       8.507476000   0.000000000   0.000000000    0   0   0
Au       2.126869000   2.126869000   0.000000000    0   0   0
Au       6.380607000   2.126869000   0.000000000    0   0   0
Au      10.634344000   2.126869000   0.000000000    0   0   0
Au       0.000000000   4.253738000   0.000000000    0   0   0
Au       4.253738000   4.253738000   0.000000000    0   0   0
Au       8.507476000   4.253738000   0.000000000    0   0   0
Au       2.126869000   6.380607000   0.000000000    0   0   0
Au       6.380607000   6.380607000   0.000000000    0   0   0
Au      10.634344000   6.380607000   0.000000000    0   0   0
Au       0.000000000   8.507476000   0.000000000    0   0   0
Au       4.253738000   8.507476000   0.000000000    0   0   0
Au       8.507476000   8.507476000   0.000000000    0   0   0
Au       2.126869000  10.634344000   0.000000000    0   0   0
Au       6.380607000  10.634344000   0.000000000    0   0   0
Au      10.634344000  10.634344000   0.000000000    0   0   0
Au       2.126869000   0.000000000   2.126869000    0   0   0
Au       6.380607000   0.000000000   2.126869000    0   0   0
Au      10.634344000   0.000000000   2.126869000    0   0   0
Au       0.000000000   2.126869000   2.126869000    0   0   0
Au       4.253738000   2.126869000   2.126869000    0   0   0
Au       8.507476000   2.126869000   2.126869000    0   0   0
Au       2.126869000   4.253738000   2.126869000    0   0   0
Au       6.380607000   4.253738000   2.126869000    0   0   0
Au      10.634344000   4.253738000   2.126869000    0   0   0
Au       0.000000000   6.380607000   2.126869000    0   0   0
Au       4.253738000   6.380607000   2.126869000    0   0   0
Au       8.507476000   6.380607000   2.126869000    0   0   0
Au       2.126869000   8.507476000   2.126869000    0   0   0
Au       6.380607000   8.507476000   2.126869000    0   0   0
Au      10.634344000   8.507476000   2.126869000    0   0   0
Au       0.000000000  10.634344000   2.126869000    0   0   0
Au       4.253738000  10.634344000   2.126869000    0   0   0
Au       8.507476000  10.634344000   2.126869000    0   0   0
Au      -0.000231899  -0.000231899   4.257900259
Au       4.253734608  -0.000230451   4.257893418
Au       8.507492151  -0.000233495   4.257904766
Au      -0.000230451   4.253734608   4.257893418
Au       4.253734872   4.253734872   4.257887922
Au       8.507489223   4.253735714   4.257899972
Au      -0.000233495   8.507492151   4.257904766
Au       4.253735714   8.507489223   4.257899972
Au       8.507490970   8.507490970   4.257910325
Au       2.126854284   2.126854284   4.257906940
Au       6.380600017   2.126855061   4.257899048
Au      10.634586601   2.126852368   4.257903711
Au       2.126855061   6.380600017   4.257899048
Au       6.380601302   6.380601302   4.257890644
Au      10.634584097   6.380601789   4.257895413
Au       2.126852368  10.634586601   4.257903711
Au       6.380601789  10.634584097   4.257895413
Au      10.634585069  10.634585069   4.257900809
Au       2.126863116  -0.000141616   6.373929777
Au       6.380603693  -0.000142418   6.373934377
Au      10.634494877  -0.000142245   6.373820138
Au      -0.000141616   2.126863116   6.373929777
Au       4.253733333   2.126865567   6.374044528
Au       8.507479448   2.126865512   6.374047422
Au       2.126865567   4.253733333   6.374044528
Au       6.380604810   4.253735890   6.374044687
Au      10.634492342   4.253734512   6.373939184
Au      -0.000142418   6.380603693   6.373934377
Au       4.253735890   6.380604810   6.374044687
Au       8.507478446   6.380605875   6.374047284
Au       2.126865512   8.507479448   6.374047422
Au       6.380605875   8.507478446   6.374047284
Au      10.634491790   8.507480400   6.373938586
Au      -0.000142245  10.634494877   6.373820138
Au       4.253734512  10.634492342   6.373939184
Au       8.507480400  10.634491790   6.373938586
End final coordinates



     Writing output data file 001strucdevrelax.save

     init_run     :     94.64s CPU    104.43s WALL (       1 calls)
     electrons    :   5870.36s CPU   6256.41s WALL (       2 calls)
     update_pot   :      9.06s CPU     10.89s WALL (       1 calls)
     forces       :    133.96s CPU    134.96s WALL (       2 calls)

     Called by init_run:
     wfcinit      :     67.66s CPU     74.71s WALL (       1 calls)
     potinit      :      4.20s CPU      4.54s WALL (       1 calls)

     Called by electrons:
     c_bands      :   4692.59s CPU   4982.63s WALL (      30 calls)
     sum_band     :    729.90s CPU    788.76s WALL (      30 calls)
     v_of_rho     :    101.20s CPU    111.71s WALL (      30 calls)
     newd         :    376.18s CPU    380.02s WALL (      30 calls)
     mix_rho      :      2.69s CPU      3.04s WALL (      30 calls)
     vdW_energy   :      9.48s CPU     10.19s WALL (      32 calls)
     vdW_ffts     :     51.47s CPU     57.14s WALL (      64 calls)
     vdW_v        :     15.80s CPU     16.73s WALL (      32 calls)

     Called by c_bands:
     init_us_2    :     13.68s CPU     13.96s WALL (     315 calls)
     cegterg      :   4635.78s CPU   4909.03s WALL (     150 calls)

     Called by *egterg:
     h_psi        :   1985.69s CPU   2231.48s WALL (     655 calls)
     s_psi        :    322.58s CPU    324.09s WALL (     655 calls)
     g_psi        :      4.45s CPU      4.47s WALL (     500 calls)
     cdiaghg      :   1184.21s CPU   1186.63s WALL (     635 calls)

     Called by h_psi:
     add_vuspsi   :    323.08s CPU    324.55s WALL (     655 calls)

     General routines
     calbec       :    507.85s CPU    509.24s WALL (     815 calls)
     fft          :    139.56s CPU    149.69s WALL (    2103 calls)
     ffts         :      1.22s CPU      1.43s WALL (      60 calls)
     fftw         :   1394.16s CPU   1654.48s WALL (  420796 calls)
     interpolate  :      3.65s CPU      4.35s WALL (      60 calls)
     davcio       :      0.00s CPU      0.15s WALL (       5 calls)

     Parallel routines
     fft_scatter  :   1026.68s CPU   1219.57s WALL (  422959 calls)

     PWSCF        :     1h42m CPU        1h50m WALL


   This run was terminated on:  12: 6:20  22Jun2015            

=------------------------------------------------------------------------------=
   JOB DONE.
=------------------------------------------------------------------------------=
