
     Program PWSCF v.5.1.1 starts on 30May2015 at 14:49: 9 

     This program is part of the open-source Quantum ESPRESSO suite
     for quantum simulation of materials; please cite
         "P. Giannozzi et al., J. Phys.:Condens. Matter 21 395502 (2009);
          URL http://www.quantum-espresso.org", 
     in publications or presentations arising from this work. More details at
     http://www.quantum-espresso.org/quote

     Parallel version (MPI), running on     8 processors
     R & G space division:  proc/nbgrp/npool/nimage =       8
     Waiting for input...
     Reading input from standard input
Warning: card &IONS ignored
Warning: card / ignored
Warning: card &CELL ignored
Warning: card / ignored

     Current dimensions of program PWSCF are:
     Max number of different atomic species (ntypx) = 10
     Max number of k-points (npk) =  40000
     Max angular momentum in pseudopotentials (lmaxx) =  3

     IMPORTANT: XC functional enforced from input :
     Exchange-correlation      = VDW-DF ( 1  4  4  0 1 0)
     Any further DFT definition will be discarded
     Please, verify this is what you really want


     Subspace diagonalization in iterative solution of the eigenvalue problem:
     a serial algorithm will be used


     Parallelization info
     --------------------
     sticks:   dense  smooth     PW     G-vecs:    dense   smooth      PW
     Min        2313    1158    298               474089   167622   21962
     Max        2314    1159    299               474104   167655   21969
     Sum       18505    9265   2385              3792731  1341081  175711


     Title: 
     GOLD                                                                       


     bravais-lattice index     =            8
     lattice parameter (alat)  =      24.1233  a.u.
     unit-cell volume          =   28076.2361 (a.u.)^3
     number of atoms/cell      =           72
     number of atomic types    =            1
     number of electrons       =       792.00
     number of Kohn-Sham states=          475
     kinetic-energy cutoff     =      50.0000  Ry
     charge density cutoff     =     400.0000  Ry
     convergence threshold     =      1.0E-08
     mixing beta               =       0.7000
     number of iterations used =            8  plain     mixing
     Exchange-correlation      = VDW-DF ( 1  4  4  0 1 0)

     celldm(1)=  24.123277  celldm(2)=   1.000000  celldm(3)=   2.000000
     celldm(4)=   0.000000  celldm(5)=   0.000000  celldm(6)=   0.000000

     crystal axes: (cart. coord. in units of alat)
               a(1) = (   1.000000   0.000000   0.000000 )  
               a(2) = (   0.000000   1.000000   0.000000 )  
               a(3) = (   0.000000   0.000000   2.000000 )  

     reciprocal axes: (cart. coord. in units 2 pi/alat)
               b(1) = (  1.000000  0.000000  0.000000 )  
               b(2) = (  0.000000  1.000000  0.000000 )  
               b(3) = (  0.000000  0.000000  0.500000 )  


     PseudoPot. # 1 for Au read from file:
     /home/andrejb/Andrej/qe/pseudo/Au.pbe-nd-van.UPF
     MD5 check sum: 458681b50f36d87ef23c61b04bba420a
     Pseudo is Ultrasoft + core correction, Zval = 11.0
     Generated by new atomic code, or converted to UPF format
     Using radial grid of  985 points,  3 beta functions with: 
                l(1) =   1
                l(2) =   2
                l(3) =   2
     Q(r) pseudized with  8 coefficients,  rinner =    1.100   1.100   1.100
                                                       1.100   1.100

     vdW kernel table read from file vdW_kernel_table
     MD5 check sum: 48e77a2e26edf626eeb0eaa751ad5cac

     atomic species   valence    mass     pseudopotential
        Au            11.00   196.96657     Au( 1.00)

      2 Sym. Ops. (no inversion) found
          (note:  2 additional sym.ops. were found but ignored
           their fractional translations are incommensurate with FFT grid)


   Cartesian axes

     site n.     atom                  positions (alat units)
         1           Au  tau(   1) = (   0.0000000   0.0000000   0.0000000  )
         2           Au  tau(   2) = (   0.3332217   0.0000000   0.0000000  )
         3           Au  tau(   3) = (   0.6664435   0.0000000   0.0000000  )
         4           Au  tau(   4) = (   0.1666109   0.1666109   0.0000000  )
         5           Au  tau(   5) = (   0.4998326   0.1666109   0.0000000  )
         6           Au  tau(   6) = (   0.8330542   0.1666109   0.0000000  )
         7           Au  tau(   7) = (   0.0000000   0.3332217   0.0000000  )
         8           Au  tau(   8) = (   0.3332217   0.3332217   0.0000000  )
         9           Au  tau(   9) = (   0.6664435   0.3332217   0.0000000  )
        10           Au  tau(  10) = (   0.1666109   0.4998326   0.0000000  )
        11           Au  tau(  11) = (   0.4998326   0.4998326   0.0000000  )
        12           Au  tau(  12) = (   0.8330542   0.4998326   0.0000000  )
        13           Au  tau(  13) = (   0.0000000   0.6664435   0.0000000  )
        14           Au  tau(  14) = (   0.3332217   0.6664435   0.0000000  )
        15           Au  tau(  15) = (   0.6664435   0.6664435   0.0000000  )
        16           Au  tau(  16) = (   0.1666109   0.8330542   0.0000000  )
        17           Au  tau(  17) = (   0.4998326   0.8330542   0.0000000  )
        18           Au  tau(  18) = (   0.8330542   0.8330542   0.0000000  )
        19           Au  tau(  19) = (   0.1666109   0.0000000   0.1666109  )
        20           Au  tau(  20) = (   0.4998326   0.0000000   0.1666109  )
        21           Au  tau(  21) = (   0.8330542   0.0000000   0.1666109  )
        22           Au  tau(  22) = (   0.0000000   0.1666109   0.1666109  )
        23           Au  tau(  23) = (   0.3332217   0.1666109   0.1666109  )
        24           Au  tau(  24) = (   0.6664435   0.1666109   0.1666109  )
        25           Au  tau(  25) = (   0.1666109   0.3332217   0.1666109  )
        26           Au  tau(  26) = (   0.4998326   0.3332217   0.1666109  )
        27           Au  tau(  27) = (   0.8330542   0.3332217   0.1666109  )
        28           Au  tau(  28) = (   0.0000000   0.4998326   0.1666109  )
        29           Au  tau(  29) = (   0.3332217   0.4998326   0.1666109  )
        30           Au  tau(  30) = (   0.6664435   0.4998326   0.1666109  )
        31           Au  tau(  31) = (   0.1666109   0.6664435   0.1666109  )
        32           Au  tau(  32) = (   0.4998326   0.6664435   0.1666109  )
        33           Au  tau(  33) = (   0.8330542   0.6664435   0.1666109  )
        34           Au  tau(  34) = (   0.0000000   0.8330542   0.1666109  )
        35           Au  tau(  35) = (   0.3332217   0.8330542   0.1666109  )
        36           Au  tau(  36) = (   0.6664435   0.8330542   0.1666109  )
        37           Au  tau(  37) = (   0.0000000   0.0000000   0.3335453  )
        38           Au  tau(  38) = (   0.3332217   0.0000000   0.3335453  )
        39           Au  tau(  39) = (   0.6664435   0.0000000   0.3335453  )
        40           Au  tau(  40) = (   0.0000000   0.3332217   0.3335453  )
        41           Au  tau(  41) = (   0.3332217   0.3332217   0.3335453  )
        42           Au  tau(  42) = (   0.6664435   0.3332217   0.3335453  )
        43           Au  tau(  43) = (   0.0000000   0.6664435   0.3335453  )
        44           Au  tau(  44) = (   0.3332217   0.6664435   0.3335453  )
        45           Au  tau(  45) = (   0.6664435   0.6664435   0.3335453  )
        46           Au  tau(  46) = (   0.1666109   0.1666109   0.3335453  )
        47           Au  tau(  47) = (   0.4998326   0.1666109   0.3335453  )
        48           Au  tau(  48) = (   0.8330542   0.1666109   0.3335453  )
        49           Au  tau(  49) = (   0.1666109   0.4998326   0.3335453  )
        50           Au  tau(  50) = (   0.4998326   0.4998326   0.3335453  )
        51           Au  tau(  51) = (   0.8330542   0.4998326   0.3335453  )
        52           Au  tau(  52) = (   0.1666109   0.8330542   0.3335453  )
        53           Au  tau(  53) = (   0.4998326   0.8330542   0.3335453  )
        54           Au  tau(  54) = (   0.8330542   0.8330542   0.3335453  )
        55           Au  tau(  55) = (   0.1666109   0.0000000   0.4993449  )
        56           Au  tau(  56) = (   0.4998326   0.0000000   0.4993449  )
        57           Au  tau(  57) = (   0.8330542   0.0000000   0.4993449  )
        58           Au  tau(  58) = (   0.0000000   0.1666109   0.4993449  )
        59           Au  tau(  59) = (   0.3332217   0.1666109   0.4993449  )
        60           Au  tau(  60) = (   0.6664435   0.1666109   0.4993449  )
        61           Au  tau(  61) = (   0.1666109   0.3332217   0.4993449  )
        62           Au  tau(  62) = (   0.4998326   0.3332217   0.4993449  )
        63           Au  tau(  63) = (   0.8330542   0.3332217   0.4993449  )
        64           Au  tau(  64) = (   0.0000000   0.4998326   0.4993449  )
        65           Au  tau(  65) = (   0.3332217   0.4998326   0.4993449  )
        66           Au  tau(  66) = (   0.6664435   0.4998326   0.4993449  )
        67           Au  tau(  67) = (   0.1666109   0.6664435   0.4993449  )
        68           Au  tau(  68) = (   0.4998326   0.6664435   0.4993449  )
        69           Au  tau(  69) = (   0.8330542   0.6664435   0.4993449  )
        70           Au  tau(  70) = (   0.0000000   0.8330542   0.4993449  )
        71           Au  tau(  71) = (   0.3332217   0.8330542   0.4993449  )
        72           Au  tau(  72) = (   0.6664435   0.8330542   0.4993449  )

     number of k points=     5  Marzari-Vanderbilt smearing, width (Ry)=  0.0200
                       cart. coord. in units 2pi/alat
        k(    1) = (   0.2500000   0.2500000   0.0833333), wk =   0.3333333
        k(    2) = (   0.2500000   0.2500000  -0.2500000), wk =   0.3333333
        k(    3) = (  -0.2500000   0.2500000  -0.0833333), wk =   0.6666667
        k(    4) = (   0.2500000   0.2500000  -0.0833333), wk =   0.3333333
        k(    5) = (  -0.2500000   0.2500000   0.2500000), wk =   0.3333333

     Dense  grid:  3792731 G-vectors     FFT dimensions: ( 160, 160, 320)

     Smooth grid:  1341081 G-vectors     FFT dimensions: ( 120, 120, 225)

     Largest allocated arrays     est. size (Mb)     dimensions
        Kohn-Sham Wavefunctions       152.21 Mb     (   21000,  475)
        NL pseudopotentials           299.93 Mb     (   21000,  936)
        Each V/rho on FFT grid         15.62 Mb     ( 1024000)
        Each G-vector array             3.62 Mb     (  474091)
        G-vector shells                 0.08 Mb     (   10780)
     Largest temporary arrays     est. size (Mb)     dimensions
        Auxiliary wavefunctions       608.83 Mb     (   21000, 1900)
        Each subspace H/S matrix       55.08 Mb     (    1900, 1900)
        Each <psi_i|beta_j> matrix      6.78 Mb     (     936,  475)
        Arrays for rho mixing         125.00 Mb     ( 1024000,    8)

     Initial potential from superposition of free atoms
     Check: negative starting charge=   -1.945153

     starting charge  791.16394, renormalised to  792.00000

     negative rho (up, down):  1.947E+00 0.000E+00


     ************************************************************************
     *
     * You are using vdW-DF for exchange-correlation in this calculation.
     * Please cite the following three references that made this development
     * possible:
     *
     *   M. Dion, H. Rydberg, E. Schroder, D. C. Langreth, and
     *   B. I. Lundqvist, Phys. Rev. Lett. 92, 246401 (2004).
     *
     *   T. Thonhauser, V. R. Cooper, S. Li, A. Puzder, P. Hyldgaard, and
     *   D. C. Langreth, Phys. Rev. B 76, 125112 (2007).
     *
     *   G. Roman-Perez and J. M. Soler, Phys. Rev. Lett. 103, 096102 (2009).
     *
     *
     * If you are using vdW-DF2, please also cite:
     *
     *   K. Lee, E. D. Murray, L. Kong, B. I. Lundqvist, and
     *   D. C. Langreth, Phys. Rev. B 82, 081101(R) (2010).
     *
     *
     * If you are calculating the stress with vdW-DF, please also cite:
     *
     *   R. Sabatini, E. Kucukbenli, B. Kolb, T. Thonhauser, and
     *   S. de Gironcoli, J. Phys.: Condens. Matter 24, 424209 (2012).
     *
     ************************************************************************

     Carrying out vdW-DF run using the following parameters:

     Nqs =      20    Nr_points =    1024   r_max =   100.000
     q_mesh =
               0.00001000     0.04494208     0.09755937     0.15916263
               0.23128650     0.31572767     0.41458969     0.53033537
               0.66584808     0.82450364     1.01025438     1.22772762
               1.48234092     1.78043706     2.12944203     2.53805004
               3.01644009     3.57652955     4.23227104     5.00000000

     Gradients computed in reciprocal space

     ************************************************************************


     Starting wfc are  648 randomized atomic wfcs

     total cpu time spent up to now is      754.5 secs

     per-process dynamical memory:  1474.6 Mb

     Self-consistent Calculation

     iteration #  1     ecut=    50.00 Ry     beta=0.70
     Davidson diagonalization with overlap
     ethr =  1.00E-02,  avg # of iterations =  3.0

     Threshold (ethr) on eigenvalues was too large:
     Diagonalizing with lowered threshold

     Davidson diagonalization with overlap
     ethr =  3.67E-04,  avg # of iterations =  2.0

     negative rho (up, down):  1.946E+00 0.000E+00

     total cpu time spent up to now is     3714.8 secs

     total energy              =   -7388.53756827 Ry
     Harris-Foulkes estimate   =   -7391.24117453 Ry
     estimated scf accuracy    <       3.29574307 Ry

     iteration #  2     ecut=    50.00 Ry     beta=0.70
     Davidson diagonalization with overlap
     ethr =  4.16E-04,  avg # of iterations = 11.6

     negative rho (up, down):  1.942E+00 0.000E+00

     total cpu time spent up to now is     7321.4 secs

     total energy              =   -7381.03428235 Ry
     Harris-Foulkes estimate   =   -7397.77041351 Ry
     estimated scf accuracy    <      89.76507073 Ry

     iteration #  3     ecut=    50.00 Ry     beta=0.70
     Davidson diagonalization with overlap
     ethr =  4.16E-04,  avg # of iterations =  6.0

     negative rho (up, down):  1.955E+00 0.000E+00

     total cpu time spent up to now is     9987.6 secs

     total energy              =   -7390.33058880 Ry
     Harris-Foulkes estimate   =   -7390.95672548 Ry
     estimated scf accuracy    <       2.11523085 Ry

     iteration #  4     ecut=    50.00 Ry     beta=0.70
     Davidson diagonalization with overlap
     ethr =  2.67E-04,  avg # of iterations =  2.0

     negative rho (up, down):  1.965E+00 0.000E+00

     total cpu time spent up to now is    11403.1 secs

     total energy              =   -7390.56959555 Ry
     Harris-Foulkes estimate   =   -7390.61417466 Ry
     estimated scf accuracy    <       0.12461910 Ry

     iteration #  5     ecut=    50.00 Ry     beta=0.70
     Davidson diagonalization with overlap
     ethr =  1.57E-05,  avg # of iterations =  8.2

     negative rho (up, down):  1.966E+00 0.000E+00

     total cpu time spent up to now is    13790.9 secs

     total energy              =   -7390.56109063 Ry
     Harris-Foulkes estimate   =   -7390.62494781 Ry
     estimated scf accuracy    <       0.46902842 Ry

     iteration #  6     ecut=    50.00 Ry     beta=0.70
     Davidson diagonalization with overlap
     ethr =  1.57E-05,  avg # of iterations =  7.0

     negative rho (up, down):  1.968E+00 0.000E+00

     total cpu time spent up to now is    15430.6 secs

     total energy              =   -7390.58645981 Ry
     Harris-Foulkes estimate   =   -7390.60006800 Ry
     estimated scf accuracy    <       0.06412144 Ry

     iteration #  7     ecut=    50.00 Ry     beta=0.70
     Davidson diagonalization with overlap
     ethr =  8.10E-06,  avg # of iterations =  5.2

     negative rho (up, down):  1.972E+00 0.000E+00

     total cpu time spent up to now is    17083.1 secs

     total energy              =   -7390.58060753 Ry
     Harris-Foulkes estimate   =   -7390.60979164 Ry
     estimated scf accuracy    <       0.18862857 Ry

     iteration #  8     ecut=    50.00 Ry     beta=0.70
     Davidson diagonalization with overlap
     ethr =  8.10E-06,  avg # of iterations =  9.2

     negative rho (up, down):  1.971E+00 0.000E+00

     total cpu time spent up to now is    18803.5 secs

     total energy              =   -7390.59446972 Ry
     Harris-Foulkes estimate   =   -7390.59498492 Ry
     estimated scf accuracy    <       0.00186614 Ry

     iteration #  9     ecut=    50.00 Ry     beta=0.70
     Davidson diagonalization with overlap
     ethr =  2.36E-07,  avg # of iterations =  2.4

     negative rho (up, down):  1.971E+00 0.000E+00

     total cpu time spent up to now is    20447.9 secs

     total energy              =   -7390.59467377 Ry
     Harris-Foulkes estimate   =   -7390.59483304 Ry
     estimated scf accuracy    <       0.00051920 Ry

     iteration # 10     ecut=    50.00 Ry     beta=0.70
     Davidson diagonalization with overlap
     ethr =  6.56E-08,  avg # of iterations =  2.0

     negative rho (up, down):  1.971E+00 0.000E+00

     total cpu time spent up to now is    21879.7 secs

     total energy              =   -7390.59473602 Ry
     Harris-Foulkes estimate   =   -7390.59477326 Ry
     estimated scf accuracy    <       0.00012308 Ry

     iteration # 11     ecut=    50.00 Ry     beta=0.70
     Davidson diagonalization with overlap
     ethr =  1.55E-08,  avg # of iterations =  2.0

     negative rho (up, down):  1.971E+00 0.000E+00

     total cpu time spent up to now is    23320.9 secs

     total energy              =   -7390.59474837 Ry
     Harris-Foulkes estimate   =   -7390.59476837 Ry
     estimated scf accuracy    <       0.00006466 Ry

     iteration # 12     ecut=    50.00 Ry     beta=0.70
     Davidson diagonalization with overlap
     ethr =  8.16E-09,  avg # of iterations =  2.0

     negative rho (up, down):  1.971E+00 0.000E+00

     total cpu time spent up to now is    24750.4 secs

     total energy              =   -7390.59475725 Ry
     Harris-Foulkes estimate   =   -7390.59476175 Ry
     estimated scf accuracy    <       0.00001415 Ry

     iteration # 13     ecut=    50.00 Ry     beta=0.70
     Davidson diagonalization with overlap
     ethr =  1.79E-09,  avg # of iterations =  2.0

     negative rho (up, down):  1.971E+00 0.000E+00

     total cpu time spent up to now is    26314.5 secs

     total energy              =   -7390.59475804 Ry
     Harris-Foulkes estimate   =   -7390.59476039 Ry
     estimated scf accuracy    <       0.00000669 Ry

     iteration # 14     ecut=    50.00 Ry     beta=0.70
     Davidson diagonalization with overlap
     ethr =  8.45E-10,  avg # of iterations =  2.0

     negative rho (up, down):  1.971E+00 0.000E+00

     total cpu time spent up to now is    27753.7 secs

     total energy              =   -7390.59475863 Ry
     Harris-Foulkes estimate   =   -7390.59475989 Ry
     estimated scf accuracy    <       0.00000537 Ry

     iteration # 15     ecut=    50.00 Ry     beta=0.70
     Davidson diagonalization with overlap
     ethr =  6.78E-10,  avg # of iterations =  2.0

     negative rho (up, down):  1.971E+00 0.000E+00

     total cpu time spent up to now is    29153.7 secs

     total energy              =   -7390.59475885 Ry
     Harris-Foulkes estimate   =   -7390.59475966 Ry
     estimated scf accuracy    <       0.00000329 Ry

     iteration # 16     ecut=    50.00 Ry     beta=0.70
     Davidson diagonalization with overlap
     ethr =  4.16E-10,  avg # of iterations =  2.0

     negative rho (up, down):  1.971E+00 0.000E+00

     total cpu time spent up to now is    30555.8 secs

     total energy              =   -7390.59475863 Ry
     Harris-Foulkes estimate   =   -7390.59475981 Ry
     estimated scf accuracy    <       0.00000841 Ry

     iteration # 17     ecut=    50.00 Ry     beta=0.70
     Davidson diagonalization with overlap
     ethr =  4.16E-10,  avg # of iterations =  1.0

     negative rho (up, down):  1.971E+00 0.000E+00

     total cpu time spent up to now is    31926.9 secs

     total energy              =   -7390.59475905 Ry
     Harris-Foulkes estimate   =   -7390.59475925 Ry
     estimated scf accuracy    <       0.00000053 Ry

     iteration # 18     ecut=    50.00 Ry     beta=0.70
     Davidson diagonalization with overlap
     ethr =  6.72E-11,  avg # of iterations =  2.0

     negative rho (up, down):  1.971E+00 0.000E+00

     total cpu time spent up to now is    33341.4 secs

     total energy              =   -7390.59475905 Ry
     Harris-Foulkes estimate   =   -7390.59475914 Ry
     estimated scf accuracy    <       0.00000027 Ry

     iteration # 19     ecut=    50.00 Ry     beta=0.70
     Davidson diagonalization with overlap
     ethr =  3.40E-11,  avg # of iterations =  2.0

     negative rho (up, down):  1.971E+00 0.000E+00

     total cpu time spent up to now is    34764.3 secs

     total energy              =   -7390.59475905 Ry
     Harris-Foulkes estimate   =   -7390.59475912 Ry
     estimated scf accuracy    <       0.00000022 Ry

     iteration # 20     ecut=    50.00 Ry     beta=0.70
     Davidson diagonalization with overlap
     ethr =  2.75E-11,  avg # of iterations =  2.0

     negative rho (up, down):  1.971E+00 0.000E+00

     total cpu time spent up to now is    36185.5 secs

     total energy              =   -7390.59475904 Ry
     Harris-Foulkes estimate   =   -7390.59475909 Ry
     estimated scf accuracy    <       0.00000010 Ry

     iteration # 21     ecut=    50.00 Ry     beta=0.70
     Davidson diagonalization with overlap
     ethr =  1.22E-11,  avg # of iterations =  2.0

     negative rho (up, down):  1.971E+00 0.000E+00

     total cpu time spent up to now is    37595.5 secs

     total energy              =   -7390.59475904 Ry
     Harris-Foulkes estimate   =   -7390.59475906 Ry
     estimated scf accuracy    <       0.00000002 Ry

     iteration # 22     ecut=    50.00 Ry     beta=0.70
     Davidson diagonalization with overlap
     ethr =  2.29E-12,  avg # of iterations =  2.0

     negative rho (up, down):  1.971E+00 0.000E+00

     total cpu time spent up to now is    39078.8 secs

     total energy              =   -7390.59475902 Ry
     Harris-Foulkes estimate   =   -7390.59475904 Ry
     estimated scf accuracy    <       0.00000001 Ry

     iteration # 23     ecut=    50.00 Ry     beta=0.70
     Davidson diagonalization with overlap
     ethr =  1.59E-12,  avg # of iterations =  2.0

     negative rho (up, down):  1.971E+00 0.000E+00

     total cpu time spent up to now is    40502.4 secs

     End of self-consistent calculation

          k = 0.2500 0.2500 0.0833 (167653 PWs)   bands (ev):

    -6.8639  -6.3352  -6.3352  -5.9056  -5.4965  -5.4033  -5.4033  -5.2073
    -5.2073  -5.0893  -5.0893  -5.0110  -4.9879  -4.9150  -4.8300  -4.8264
    -4.7873  -4.7873  -4.6265  -4.6096  -4.6086  -4.6086  -4.6017  -4.5458
    -4.5458  -4.5338  -4.5338  -4.4970  -4.4840  -4.4839  -4.4420  -4.4420
    -4.4086  -4.4074  -4.3553  -4.3553  -4.3445  -4.3433  -4.3381  -4.3248
    -4.3248  -4.2834  -4.2654  -4.2653  -4.2585  -4.2584  -4.2261  -4.1762
    -4.1613  -4.1612  -4.1571  -4.1570  -4.1492  -4.1439  -4.1433  -4.1433
    -4.0781  -4.0781  -4.0283  -4.0281  -4.0157  -3.9897  -3.9897  -3.9696
    -3.9674  -3.9666  -3.9624  -3.9595  -3.9106  -3.9106  -3.8974  -3.8974
    -3.7920  -3.7920  -3.7858  -3.7857  -3.7485  -3.7388  -3.7255  -3.6951
    -3.6951  -3.6665  -3.6665  -3.6445  -3.6445  -3.6309  -3.6308  -3.5760
    -3.5760  -3.5570  -3.5422  -3.5302  -3.5291  -3.5290  -3.5273  -3.5002
    -3.5002  -3.4640  -3.4640  -3.4411  -3.4410  -3.4082  -3.4082  -3.3901
    -3.3622  -3.3622  -3.3251  -3.3251  -3.2896  -3.2822  -3.2815  -3.2671
    -3.2671  -3.2621  -3.2621  -3.2230  -3.2135  -3.1725  -3.1725  -3.1648
    -3.1552  -3.1545  -3.1530  -3.1286  -3.1285  -3.1076  -3.1068  -3.1066
    -3.0798  -3.0798  -3.0723  -3.0694  -3.0694  -3.0333  -3.0291  -2.9936
    -2.9936  -2.9929  -2.9896  -2.9896  -2.9107  -2.9006  -2.8963  -2.8962
    -2.8944  -2.8943  -2.8894  -2.8894  -2.8893  -2.8892  -2.8793  -2.8716
    -2.8548  -2.8519  -2.8512  -2.8512  -2.8363  -2.8318  -2.7938  -2.7929
    -2.7927  -2.7886  -2.7886  -2.7701  -2.7701  -2.7611  -2.7611  -2.7588
    -2.6992  -2.6992  -2.6938  -2.6938  -2.6886  -2.6886  -2.6607  -2.6014
    -2.6004  -2.5999  -2.5982  -2.5866  -2.5843  -2.5797  -2.5687  -2.5687
    -2.5316  -2.5316  -2.5226  -2.5226  -2.5216  -2.5216  -2.4819  -2.4819
    -2.4719  -2.4719  -2.4704  -2.4704  -2.4281  -2.4122  -2.4069  -2.3532
    -2.3532  -2.3348  -2.3332  -2.3277  -2.3277  -2.2790  -2.2789  -2.2552
    -2.2391  -2.2244  -2.2242  -2.2242  -2.2017  -2.2017  -2.1920  -2.1759
    -2.1342  -2.1342  -2.1205  -2.1205  -2.1204  -2.1088  -2.1088  -2.0933
    -2.0933  -2.0925  -2.0887  -2.0841  -2.0838  -2.0838  -2.0712  -2.0712
    -2.0534  -2.0534  -2.0511  -2.0452  -2.0417  -2.0417  -2.0180  -2.0180
    -2.0065  -2.0045  -1.9998  -1.9998  -1.9617  -1.9278  -1.9277  -1.8917
    -1.8747  -1.8747  -1.8638  -1.8638  -1.8401  -1.8401  -1.8250  -1.8250
    -1.8236  -1.8236  -1.8204  -1.8204  -1.7877  -1.7877  -1.7877  -1.7414
    -1.7414  -1.7014  -1.7014  -1.6542  -1.6542  -1.6418  -1.6191  -1.6139
    -1.6118  -1.5951  -1.5935  -1.5759  -1.5759  -1.5707  -1.5707  -1.5691
    -1.5688  -1.5683  -1.5658  -1.5455  -1.5455  -1.5352  -1.5178  -1.4987
    -1.4987  -1.4723  -1.4723  -1.4692  -1.4692  -1.4659  -1.4632  -1.4413
    -1.4413  -1.4262  -1.4262  -1.4134  -1.4030  -1.3893  -1.3893  -1.3583
    -1.3583  -1.3501  -1.3501  -1.3146  -1.3146  -1.3061  -1.3061  -1.2973
    -1.2973  -1.2757  -1.2757  -1.2636  -1.2567  -1.2567  -1.2433  -1.2433
    -1.2428  -1.2428  -1.2283  -1.2180  -1.2172  -1.2097  -1.2097  -1.1977
    -1.1930  -1.1930  -1.1861  -1.1469  -1.1446  -1.1395  -1.1378  -1.1373
    -1.1360  -1.0974  -1.0806  -1.0806  -1.0799  -1.0799  -1.0753  -1.0753
    -1.0704  -1.0573  -1.0552  -1.0184  -1.0184  -1.0112  -1.0112  -0.9883
    -0.9883  -0.9783  -0.9486  -0.9410  -0.9134  -0.9134  -0.8855  -0.8854
    -0.8824  -0.8814  -0.8808  -0.8767  -0.8734  -0.8713  -0.8667  -0.8667
    -0.8345  -0.8345  -0.8163  -0.8163  -0.8108  -0.8108  -0.8092  -0.8092
    -0.7903  -0.5132  -0.5047  -0.4482  -0.4482  -0.4088  -0.2478  -0.1828
    -0.1828  -0.1519   0.1362   0.1362   0.4662   0.4662   0.5653   0.5653
     0.6067   0.6067   0.7497   0.7497   0.8741   0.8758   0.9622   1.5613
     1.5794   1.5802   1.6196   1.6245   1.6693   1.6693   1.7492   1.7492
     1.9571   1.9571   2.1913   2.2719   2.2719   2.2881   2.6690   2.6690
     2.7426   2.7436   2.7499   2.7499   2.9014   2.9023   2.9530   3.0454
     3.0454   3.2758   3.2803   3.4119   3.4388   3.4388   3.7104   3.7104
     3.8236   3.8423   3.8423   3.9212   3.9212   4.0296   4.0296   4.2663
     4.2666   4.3559   4.3559   4.4791   4.4829   4.5037   4.5037   4.6675
     5.3064   5.3064   5.3691   5.4120   5.4120   5.5910   5.5910   5.6468
     5.6616   5.7066   5.7066   5.7299   5.7299   5.7600   5.7600   5.8042
     6.0711   6.0740   6.0740   6.0870   6.1013   6.1013   6.1108   6.1124
     6.1581   6.1791   6.1791

          k = 0.2500 0.2500-0.2500 (167588 PWs)   bands (ev):

    -6.8639  -6.3352  -6.3352  -5.9056  -5.4965  -5.4033  -5.4033  -5.2073
    -5.2073  -5.0893  -5.0893  -5.0110  -4.9879  -4.9150  -4.8300  -4.8264
    -4.7873  -4.7873  -4.6265  -4.6096  -4.6086  -4.6086  -4.6017  -4.5458
    -4.5458  -4.5338  -4.5338  -4.4970  -4.4840  -4.4839  -4.4420  -4.4420
    -4.4086  -4.4074  -4.3553  -4.3553  -4.3445  -4.3433  -4.3381  -4.3248
    -4.3248  -4.2834  -4.2654  -4.2653  -4.2585  -4.2584  -4.2261  -4.1762
    -4.1613  -4.1612  -4.1570  -4.1570  -4.1492  -4.1439  -4.1433  -4.1433
    -4.0781  -4.0781  -4.0283  -4.0281  -4.0157  -3.9897  -3.9897  -3.9696
    -3.9674  -3.9666  -3.9624  -3.9595  -3.9106  -3.9106  -3.8974  -3.8974
    -3.7920  -3.7920  -3.7858  -3.7858  -3.7485  -3.7388  -3.7255  -3.6951
    -3.6951  -3.6665  -3.6665  -3.6445  -3.6445  -3.6309  -3.6308  -3.5760
    -3.5760  -3.5570  -3.5422  -3.5302  -3.5291  -3.5290  -3.5273  -3.5002
    -3.5002  -3.4639  -3.4639  -3.4411  -3.4410  -3.4082  -3.4081  -3.3901
    -3.3622  -3.3622  -3.3251  -3.3250  -3.2896  -3.2822  -3.2815  -3.2671
    -3.2671  -3.2621  -3.2621  -3.2230  -3.2135  -3.1725  -3.1725  -3.1648
    -3.1552  -3.1545  -3.1530  -3.1286  -3.1285  -3.1076  -3.1068  -3.1066
    -3.0798  -3.0798  -3.0722  -3.0694  -3.0694  -3.0333  -3.0291  -2.9936
    -2.9936  -2.9929  -2.9896  -2.9896  -2.9107  -2.9006  -2.8963  -2.8962
    -2.8944  -2.8943  -2.8894  -2.8894  -2.8893  -2.8892  -2.8793  -2.8716
    -2.8548  -2.8519  -2.8512  -2.8512  -2.8363  -2.8318  -2.7938  -2.7929
    -2.7927  -2.7886  -2.7886  -2.7701  -2.7701  -2.7611  -2.7611  -2.7588
    -2.6992  -2.6992  -2.6938  -2.6938  -2.6886  -2.6886  -2.6607  -2.6014
    -2.6003  -2.5999  -2.5982  -2.5866  -2.5843  -2.5797  -2.5687  -2.5687
    -2.5316  -2.5316  -2.5226  -2.5226  -2.5216  -2.5216  -2.4819  -2.4819
    -2.4719  -2.4719  -2.4704  -2.4704  -2.4281  -2.4122  -2.4069  -2.3532
    -2.3532  -2.3348  -2.3332  -2.3277  -2.3277  -2.2789  -2.2789  -2.2552
    -2.2391  -2.2244  -2.2242  -2.2242  -2.2017  -2.2017  -2.1920  -2.1759
    -2.1342  -2.1342  -2.1205  -2.1204  -2.1204  -2.1088  -2.1088  -2.0933
    -2.0933  -2.0925  -2.0887  -2.0841  -2.0838  -2.0838  -2.0712  -2.0712
    -2.0534  -2.0534  -2.0511  -2.0452  -2.0417  -2.0417  -2.0180  -2.0180
    -2.0065  -2.0045  -1.9998  -1.9998  -1.9617  -1.9278  -1.9277  -1.8917
    -1.8747  -1.8747  -1.8638  -1.8638  -1.8401  -1.8401  -1.8250  -1.8250
    -1.8236  -1.8236  -1.8204  -1.8204  -1.7877  -1.7877  -1.7877  -1.7414
    -1.7414  -1.7014  -1.7014  -1.6542  -1.6542  -1.6418  -1.6191  -1.6140
    -1.6118  -1.5951  -1.5935  -1.5759  -1.5759  -1.5707  -1.5707  -1.5691
    -1.5688  -1.5683  -1.5658  -1.5455  -1.5455  -1.5352  -1.5178  -1.4987
    -1.4987  -1.4723  -1.4723  -1.4692  -1.4692  -1.4659  -1.4631  -1.4413
    -1.4413  -1.4262  -1.4262  -1.4134  -1.4031  -1.3893  -1.3893  -1.3583
    -1.3583  -1.3501  -1.3501  -1.3145  -1.3145  -1.3061  -1.3061  -1.2973
    -1.2973  -1.2757  -1.2757  -1.2636  -1.2567  -1.2567  -1.2433  -1.2433
    -1.2428  -1.2428  -1.2283  -1.2180  -1.2172  -1.2097  -1.2097  -1.1977
    -1.1930  -1.1930  -1.1861  -1.1469  -1.1446  -1.1395  -1.1378  -1.1373
    -1.1360  -1.0974  -1.0806  -1.0806  -1.0799  -1.0799  -1.0753  -1.0753
    -1.0704  -1.0573  -1.0552  -1.0184  -1.0184  -1.0112  -1.0112  -0.9883
    -0.9883  -0.9783  -0.9486  -0.9410  -0.9134  -0.9134  -0.8855  -0.8854
    -0.8824  -0.8814  -0.8808  -0.8767  -0.8734  -0.8713  -0.8667  -0.8667
    -0.8345  -0.8345  -0.8163  -0.8163  -0.8108  -0.8108  -0.8092  -0.8092
    -0.7903  -0.5132  -0.5047  -0.4482  -0.4482  -0.4088  -0.2478  -0.1828
    -0.1828  -0.1519   0.1362   0.1362   0.4662   0.4662   0.5654   0.5654
     0.6067   0.6067   0.7498   0.7498   0.8741   0.8758   0.9622   1.5613
     1.5794   1.5802   1.6196   1.6245   1.6693   1.6693   1.7492   1.7492
     1.9571   1.9571   2.1913   2.2719   2.2719   2.2881   2.6690   2.6690
     2.7426   2.7436   2.7499   2.7499   2.9014   2.9023   2.9530   3.0454
     3.0455   3.2758   3.2803   3.4119   3.4388   3.4388   3.7104   3.7104
     3.8236   3.8423   3.8423   3.9212   3.9212   4.0296   4.0296   4.2663
     4.2666   4.3559   4.3559   4.4791   4.4829   4.5037   4.5037   4.6677
     5.3065   5.3066   5.3414   5.4120   5.4121   5.5910   5.5910   5.6454
     5.7066   5.7066   5.7107   5.7108   5.7600   5.7600   5.7671   5.8042
     6.0711   6.0744   6.0744   6.0870   6.1013   6.1013   6.1108   6.1124
     6.1186   6.1765   6.1766

          k =-0.2500 0.2500-0.0833 (167653 PWs)   bands (ev):

    -6.8639  -6.3352  -6.3352  -5.9056  -5.4965  -5.4033  -5.4033  -5.2073
    -5.2073  -5.0893  -5.0893  -5.0110  -4.9879  -4.9150  -4.8300  -4.8264
    -4.7873  -4.7873  -4.6265  -4.6096  -4.6086  -4.6086  -4.6017  -4.5458
    -4.5458  -4.5338  -4.5338  -4.4970  -4.4840  -4.4839  -4.4420  -4.4420
    -4.4086  -4.4074  -4.3553  -4.3553  -4.3445  -4.3433  -4.3381  -4.3248
    -4.3248  -4.2834  -4.2654  -4.2653  -4.2585  -4.2584  -4.2261  -4.1762
    -4.1613  -4.1612  -4.1570  -4.1570  -4.1492  -4.1439  -4.1433  -4.1433
    -4.0781  -4.0781  -4.0283  -4.0281  -4.0157  -3.9897  -3.9897  -3.9696
    -3.9674  -3.9667  -3.9624  -3.9595  -3.9106  -3.9106  -3.8974  -3.8974
    -3.7920  -3.7920  -3.7858  -3.7857  -3.7485  -3.7388  -3.7255  -3.6951
    -3.6951  -3.6665  -3.6665  -3.6445  -3.6445  -3.6309  -3.6308  -3.5760
    -3.5760  -3.5570  -3.5422  -3.5302  -3.5291  -3.5290  -3.5273  -3.5002
    -3.5002  -3.4640  -3.4640  -3.4411  -3.4410  -3.4082  -3.4082  -3.3901
    -3.3622  -3.3622  -3.3251  -3.3251  -3.2896  -3.2822  -3.2815  -3.2671
    -3.2671  -3.2621  -3.2621  -3.2230  -3.2135  -3.1725  -3.1725  -3.1648
    -3.1552  -3.1545  -3.1530  -3.1286  -3.1285  -3.1076  -3.1068  -3.1066
    -3.0798  -3.0798  -3.0722  -3.0694  -3.0694  -3.0333  -3.0291  -2.9936
    -2.9936  -2.9929  -2.9896  -2.9896  -2.9107  -2.9006  -2.8963  -2.8962
    -2.8944  -2.8943  -2.8894  -2.8894  -2.8893  -2.8892  -2.8793  -2.8716
    -2.8548  -2.8519  -2.8512  -2.8512  -2.8363  -2.8319  -2.7938  -2.7929
    -2.7927  -2.7886  -2.7886  -2.7701  -2.7701  -2.7611  -2.7611  -2.7588
    -2.6992  -2.6992  -2.6938  -2.6938  -2.6887  -2.6886  -2.6607  -2.6014
    -2.6003  -2.5999  -2.5982  -2.5866  -2.5843  -2.5797  -2.5687  -2.5687
    -2.5316  -2.5316  -2.5226  -2.5226  -2.5216  -2.5216  -2.4819  -2.4819
    -2.4719  -2.4719  -2.4704  -2.4704  -2.4281  -2.4122  -2.4069  -2.3532
    -2.3532  -2.3348  -2.3332  -2.3277  -2.3277  -2.2790  -2.2789  -2.2552
    -2.2391  -2.2244  -2.2242  -2.2242  -2.2017  -2.2017  -2.1920  -2.1759
    -2.1342  -2.1342  -2.1205  -2.1204  -2.1204  -2.1088  -2.1088  -2.0933
    -2.0933  -2.0925  -2.0887  -2.0841  -2.0838  -2.0838  -2.0712  -2.0712
    -2.0534  -2.0534  -2.0511  -2.0452  -2.0417  -2.0417  -2.0180  -2.0180
    -2.0065  -2.0045  -1.9998  -1.9998  -1.9617  -1.9278  -1.9277  -1.8917
    -1.8747  -1.8747  -1.8638  -1.8638  -1.8401  -1.8401  -1.8250  -1.8250
    -1.8236  -1.8236  -1.8204  -1.8204  -1.7877  -1.7877  -1.7877  -1.7414
    -1.7414  -1.7014  -1.7014  -1.6542  -1.6542  -1.6418  -1.6191  -1.6140
    -1.6117  -1.5951  -1.5935  -1.5759  -1.5759  -1.5707  -1.5707  -1.5691
    -1.5688  -1.5683  -1.5659  -1.5455  -1.5455  -1.5352  -1.5178  -1.4987
    -1.4987  -1.4723  -1.4723  -1.4692  -1.4692  -1.4659  -1.4632  -1.4413
    -1.4413  -1.4262  -1.4262  -1.4134  -1.4030  -1.3893  -1.3893  -1.3583
    -1.3583  -1.3501  -1.3501  -1.3146  -1.3146  -1.3061  -1.3061  -1.2973
    -1.2973  -1.2757  -1.2757  -1.2636  -1.2567  -1.2567  -1.2433  -1.2433
    -1.2428  -1.2428  -1.2283  -1.2180  -1.2172  -1.2097  -1.2097  -1.1977
    -1.1930  -1.1930  -1.1861  -1.1469  -1.1446  -1.1395  -1.1378  -1.1373
    -1.1360  -1.0974  -1.0806  -1.0806  -1.0799  -1.0799  -1.0753  -1.0753
    -1.0704  -1.0573  -1.0552  -1.0184  -1.0184  -1.0112  -1.0112  -0.9883
    -0.9883  -0.9783  -0.9486  -0.9410  -0.9134  -0.9134  -0.8855  -0.8854
    -0.8824  -0.8814  -0.8808  -0.8768  -0.8734  -0.8713  -0.8667  -0.8667
    -0.8345  -0.8345  -0.8163  -0.8163  -0.8108  -0.8108  -0.8092  -0.8092
    -0.7903  -0.5132  -0.5047  -0.4482  -0.4482  -0.4088  -0.2478  -0.1828
    -0.1828  -0.1519   0.1362   0.1362   0.4662   0.4662   0.5653   0.5653
     0.6067   0.6067   0.7497   0.7497   0.8741   0.8758   0.9622   1.5613
     1.5794   1.5802   1.6196   1.6245   1.6693   1.6693   1.7492   1.7492
     1.9571   1.9571   2.1913   2.2719   2.2719   2.2881   2.6690   2.6690
     2.7426   2.7436   2.7499   2.7499   2.9014   2.9023   2.9530   3.0454
     3.0454   3.2758   3.2803   3.4119   3.4388   3.4388   3.7104   3.7104
     3.8236   3.8423   3.8423   3.9211   3.9212   4.0296   4.0296   4.2663
     4.2666   4.3559   4.3559   4.4791   4.4829   4.5037   4.5037   4.6675
     5.3063   5.3064   5.3691   5.4120   5.4120   5.5910   5.5910   5.6468
     5.6616   5.7066   5.7066   5.7298   5.7300   5.7600   5.7600   5.8042
     6.0711   6.0739   6.0740   6.0870   6.1013   6.1013   6.1108   6.1124
     6.1581   6.1790   6.1791

          k = 0.2500 0.2500-0.0833 (167653 PWs)   bands (ev):

    -6.8639  -6.3352  -6.3352  -5.9056  -5.4965  -5.4033  -5.4033  -5.2073
    -5.2073  -5.0893  -5.0893  -5.0110  -4.9879  -4.9150  -4.8300  -4.8264
    -4.7873  -4.7873  -4.6265  -4.6096  -4.6086  -4.6086  -4.6017  -4.5458
    -4.5458  -4.5338  -4.5338  -4.4970  -4.4840  -4.4839  -4.4420  -4.4420
    -4.4086  -4.4074  -4.3553  -4.3553  -4.3445  -4.3433  -4.3381  -4.3248
    -4.3248  -4.2834  -4.2654  -4.2653  -4.2585  -4.2584  -4.2261  -4.1762
    -4.1613  -4.1612  -4.1571  -4.1570  -4.1492  -4.1439  -4.1433  -4.1433
    -4.0781  -4.0781  -4.0283  -4.0281  -4.0157  -3.9897  -3.9897  -3.9696
    -3.9674  -3.9666  -3.9624  -3.9595  -3.9106  -3.9106  -3.8974  -3.8974
    -3.7920  -3.7920  -3.7858  -3.7857  -3.7485  -3.7388  -3.7255  -3.6951
    -3.6951  -3.6665  -3.6665  -3.6445  -3.6445  -3.6309  -3.6308  -3.5760
    -3.5760  -3.5570  -3.5422  -3.5302  -3.5291  -3.5290  -3.5273  -3.5002
    -3.5002  -3.4640  -3.4640  -3.4411  -3.4410  -3.4082  -3.4082  -3.3901
    -3.3622  -3.3622  -3.3251  -3.3251  -3.2896  -3.2822  -3.2815  -3.2671
    -3.2671  -3.2621  -3.2621  -3.2230  -3.2135  -3.1725  -3.1725  -3.1648
    -3.1552  -3.1545  -3.1530  -3.1286  -3.1285  -3.1076  -3.1068  -3.1066
    -3.0798  -3.0798  -3.0723  -3.0694  -3.0694  -3.0333  -3.0291  -2.9936
    -2.9936  -2.9929  -2.9896  -2.9896  -2.9107  -2.9006  -2.8963  -2.8962
    -2.8944  -2.8943  -2.8894  -2.8894  -2.8893  -2.8892  -2.8793  -2.8716
    -2.8548  -2.8519  -2.8512  -2.8512  -2.8363  -2.8318  -2.7938  -2.7929
    -2.7927  -2.7886  -2.7886  -2.7701  -2.7701  -2.7611  -2.7611  -2.7588
    -2.6992  -2.6992  -2.6938  -2.6938  -2.6886  -2.6886  -2.6607  -2.6014
    -2.6004  -2.5999  -2.5982  -2.5866  -2.5843  -2.5797  -2.5687  -2.5687
    -2.5316  -2.5316  -2.5226  -2.5226  -2.5216  -2.5216  -2.4819  -2.4819
    -2.4719  -2.4719  -2.4704  -2.4704  -2.4281  -2.4122  -2.4069  -2.3532
    -2.3532  -2.3348  -2.3332  -2.3277  -2.3277  -2.2790  -2.2789  -2.2552
    -2.2391  -2.2244  -2.2242  -2.2242  -2.2017  -2.2017  -2.1920  -2.1759
    -2.1342  -2.1342  -2.1205  -2.1205  -2.1204  -2.1088  -2.1088  -2.0933
    -2.0933  -2.0925  -2.0887  -2.0841  -2.0838  -2.0838  -2.0712  -2.0712
    -2.0534  -2.0534  -2.0511  -2.0452  -2.0417  -2.0417  -2.0180  -2.0180
    -2.0065  -2.0045  -1.9998  -1.9998  -1.9617  -1.9278  -1.9277  -1.8917
    -1.8747  -1.8747  -1.8638  -1.8638  -1.8401  -1.8401  -1.8250  -1.8250
    -1.8236  -1.8236  -1.8204  -1.8204  -1.7877  -1.7877  -1.7877  -1.7414
    -1.7414  -1.7014  -1.7014  -1.6542  -1.6542  -1.6418  -1.6191  -1.6139
    -1.6118  -1.5951  -1.5935  -1.5759  -1.5759  -1.5707  -1.5707  -1.5691
    -1.5688  -1.5683  -1.5658  -1.5455  -1.5455  -1.5352  -1.5178  -1.4987
    -1.4987  -1.4723  -1.4723  -1.4692  -1.4692  -1.4659  -1.4632  -1.4413
    -1.4413  -1.4262  -1.4262  -1.4134  -1.4030  -1.3893  -1.3893  -1.3583
    -1.3583  -1.3501  -1.3501  -1.3146  -1.3146  -1.3061  -1.3061  -1.2973
    -1.2973  -1.2757  -1.2757  -1.2636  -1.2567  -1.2567  -1.2433  -1.2433
    -1.2428  -1.2428  -1.2283  -1.2180  -1.2172  -1.2097  -1.2097  -1.1977
    -1.1930  -1.1930  -1.1861  -1.1469  -1.1446  -1.1395  -1.1378  -1.1373
    -1.1360  -1.0974  -1.0806  -1.0806  -1.0799  -1.0799  -1.0753  -1.0753
    -1.0704  -1.0573  -1.0552  -1.0184  -1.0184  -1.0112  -1.0112  -0.9883
    -0.9883  -0.9783  -0.9486  -0.9410  -0.9134  -0.9134  -0.8855  -0.8854
    -0.8824  -0.8814  -0.8808  -0.8767  -0.8734  -0.8713  -0.8667  -0.8667
    -0.8345  -0.8345  -0.8163  -0.8163  -0.8108  -0.8108  -0.8092  -0.8092
    -0.7903  -0.5132  -0.5047  -0.4482  -0.4482  -0.4088  -0.2478  -0.1828
    -0.1828  -0.1519   0.1362   0.1362   0.4662   0.4662   0.5653   0.5653
     0.6067   0.6067   0.7497   0.7497   0.8741   0.8758   0.9622   1.5613
     1.5794   1.5802   1.6196   1.6245   1.6693   1.6693   1.7492   1.7492
     1.9571   1.9571   2.1913   2.2719   2.2719   2.2881   2.6690   2.6690
     2.7426   2.7436   2.7499   2.7499   2.9014   2.9023   2.9530   3.0454
     3.0454   3.2758   3.2803   3.4119   3.4388   3.4388   3.7104   3.7104
     3.8236   3.8423   3.8423   3.9212   3.9212   4.0296   4.0296   4.2663
     4.2666   4.3559   4.3559   4.4791   4.4829   4.5037   4.5037   4.6675
     5.3064   5.3064   5.3691   5.4120   5.4120   5.5910   5.5910   5.6468
     5.6616   5.7066   5.7066   5.7299   5.7299   5.7600   5.7600   5.8042
     6.0711   6.0740   6.0740   6.0870   6.1013   6.1013   6.1108   6.1124
     6.1581   6.1791   6.1791

          k =-0.2500 0.2500 0.2500 (167588 PWs)   bands (ev):

    -6.8639  -6.3352  -6.3352  -5.9056  -5.4965  -5.4033  -5.4033  -5.2073
    -5.2073  -5.0893  -5.0893  -5.0110  -4.9879  -4.9150  -4.8300  -4.8264
    -4.7873  -4.7873  -4.6265  -4.6096  -4.6086  -4.6086  -4.6017  -4.5458
    -4.5458  -4.5338  -4.5338  -4.4970  -4.4840  -4.4839  -4.4420  -4.4420
    -4.4086  -4.4074  -4.3553  -4.3553  -4.3445  -4.3433  -4.3381  -4.3248
    -4.3248  -4.2834  -4.2654  -4.2653  -4.2585  -4.2584  -4.2261  -4.1762
    -4.1613  -4.1612  -4.1570  -4.1570  -4.1492  -4.1439  -4.1433  -4.1433
    -4.0781  -4.0781  -4.0283  -4.0281  -4.0157  -3.9897  -3.9897  -3.9696
    -3.9674  -3.9667  -3.9624  -3.9595  -3.9106  -3.9106  -3.8974  -3.8974
    -3.7920  -3.7920  -3.7858  -3.7858  -3.7485  -3.7388  -3.7255  -3.6951
    -3.6951  -3.6665  -3.6665  -3.6445  -3.6445  -3.6309  -3.6308  -3.5760
    -3.5760  -3.5570  -3.5422  -3.5302  -3.5291  -3.5289  -3.5273  -3.5002
    -3.5002  -3.4639  -3.4639  -3.4411  -3.4410  -3.4082  -3.4081  -3.3901
    -3.3622  -3.3622  -3.3251  -3.3250  -3.2896  -3.2822  -3.2815  -3.2671
    -3.2671  -3.2621  -3.2621  -3.2230  -3.2135  -3.1725  -3.1725  -3.1648
    -3.1552  -3.1545  -3.1530  -3.1286  -3.1285  -3.1076  -3.1068  -3.1066
    -3.0798  -3.0798  -3.0722  -3.0694  -3.0694  -3.0333  -3.0291  -2.9936
    -2.9936  -2.9929  -2.9896  -2.9896  -2.9107  -2.9006  -2.8963  -2.8962
    -2.8944  -2.8943  -2.8894  -2.8894  -2.8893  -2.8892  -2.8793  -2.8716
    -2.8548  -2.8519  -2.8512  -2.8512  -2.8363  -2.8318  -2.7938  -2.7929
    -2.7927  -2.7886  -2.7886  -2.7701  -2.7701  -2.7611  -2.7611  -2.7588
    -2.6992  -2.6992  -2.6938  -2.6938  -2.6886  -2.6886  -2.6607  -2.6014
    -2.6003  -2.5999  -2.5982  -2.5866  -2.5843  -2.5797  -2.5687  -2.5687
    -2.5316  -2.5316  -2.5226  -2.5226  -2.5216  -2.5216  -2.4819  -2.4819
    -2.4719  -2.4719  -2.4704  -2.4704  -2.4281  -2.4122  -2.4069  -2.3532
    -2.3532  -2.3348  -2.3332  -2.3277  -2.3277  -2.2789  -2.2789  -2.2552
    -2.2391  -2.2244  -2.2242  -2.2242  -2.2017  -2.2017  -2.1920  -2.1759
    -2.1342  -2.1342  -2.1205  -2.1204  -2.1204  -2.1088  -2.1088  -2.0933
    -2.0933  -2.0925  -2.0887  -2.0841  -2.0838  -2.0838  -2.0712  -2.0712
    -2.0534  -2.0534  -2.0511  -2.0452  -2.0417  -2.0417  -2.0180  -2.0180
    -2.0065  -2.0045  -1.9998  -1.9998  -1.9617  -1.9278  -1.9277  -1.8917
    -1.8747  -1.8747  -1.8638  -1.8638  -1.8401  -1.8401  -1.8250  -1.8250
    -1.8236  -1.8236  -1.8204  -1.8204  -1.7877  -1.7877  -1.7877  -1.7414
    -1.7414  -1.7014  -1.7014  -1.6542  -1.6542  -1.6418  -1.6191  -1.6140
    -1.6117  -1.5951  -1.5935  -1.5759  -1.5759  -1.5707  -1.5707  -1.5691
    -1.5688  -1.5683  -1.5659  -1.5455  -1.5455  -1.5352  -1.5178  -1.4987
    -1.4987  -1.4723  -1.4723  -1.4692  -1.4692  -1.4659  -1.4631  -1.4413
    -1.4413  -1.4262  -1.4262  -1.4134  -1.4031  -1.3893  -1.3893  -1.3583
    -1.3583  -1.3501  -1.3501  -1.3145  -1.3145  -1.3061  -1.3061  -1.2973
    -1.2973  -1.2757  -1.2756  -1.2636  -1.2567  -1.2567  -1.2433  -1.2433
    -1.2428  -1.2428  -1.2283  -1.2180  -1.2172  -1.2097  -1.2097  -1.1977
    -1.1930  -1.1930  -1.1861  -1.1469  -1.1446  -1.1395  -1.1378  -1.1373
    -1.1360  -1.0974  -1.0806  -1.0806  -1.0799  -1.0799  -1.0753  -1.0753
    -1.0704  -1.0573  -1.0552  -1.0184  -1.0184  -1.0112  -1.0112  -0.9883
    -0.9883  -0.9783  -0.9486  -0.9410  -0.9134  -0.9134  -0.8855  -0.8854
    -0.8824  -0.8814  -0.8808  -0.8768  -0.8734  -0.8713  -0.8667  -0.8667
    -0.8345  -0.8345  -0.8163  -0.8163  -0.8108  -0.8108  -0.8092  -0.8092
    -0.7903  -0.5132  -0.5047  -0.4482  -0.4482  -0.4088  -0.2478  -0.1828
    -0.1828  -0.1519   0.1362   0.1362   0.4662   0.4662   0.5654   0.5654
     0.6067   0.6067   0.7498   0.7498   0.8741   0.8758   0.9622   1.5613
     1.5794   1.5802   1.6196   1.6245   1.6693   1.6693   1.7492   1.7492
     1.9571   1.9571   2.1913   2.2719   2.2719   2.2881   2.6690   2.6690
     2.7426   2.7436   2.7499   2.7499   2.9014   2.9023   2.9530   3.0454
     3.0455   3.2758   3.2803   3.4119   3.4388   3.4388   3.7104   3.7104
     3.8236   3.8423   3.8423   3.9212   3.9212   4.0296   4.0296   4.2663
     4.2666   4.3559   4.3559   4.4791   4.4829   4.5037   4.5037   4.6677
     5.3065   5.3066   5.3414   5.4120   5.4121   5.5910   5.5910   5.6454
     5.7066   5.7066   5.7107   5.7108   5.7600   5.7600   5.7671   5.8042
     6.0711   6.0744   6.0745   6.0870   6.1013   6.1013   6.1108   6.1124
     6.1188   6.1765   6.1766

     the Fermi energy is     0.8243 ev

!    total energy              =   -7390.59475901 Ry
     Harris-Foulkes estimate   =   -7390.59475902 Ry
     estimated scf accuracy    <          1.5E-09 Ry

     The total energy is the sum of the following terms:

     one-electron contribution =  -48776.58277781 Ry
     hartree contribution      =   24934.69609491 Ry
     xc contribution           =   -3595.52475895 Ry
     ewald contribution        =   20046.81958964 Ry
     smearing contrib. (-TS)   =      -0.00290679 Ry

     convergence has been achieved in  23 iterations

     Writing output data file 001strucdev.save

     init_run     :    729.58s CPU    753.85s WALL (       1 calls)
     electrons    :  38515.24s CPU  39751.87s WALL (       1 calls)

     Called by init_run:
     wfcinit      :    601.12s CPU    619.63s WALL (       1 calls)
     potinit      :     13.81s CPU     14.48s WALL (       1 calls)

     Called by electrons:
     c_bands      :  30081.41s CPU  31091.03s WALL (      24 calls)
     sum_band     :   5629.22s CPU   5797.08s WALL (      24 calls)
     v_of_rho     :    312.88s CPU    326.56s WALL (      24 calls)
     newd         :   2591.56s CPU   2637.64s WALL (      24 calls)
     mix_rho      :     13.58s CPU     14.00s WALL (      24 calls)
     vdW_energy   :     48.17s CPU     52.22s WALL (      24 calls)
     vdW_ffts     :    125.87s CPU    130.53s WALL (      48 calls)
     vdW_v        :     52.15s CPU     53.21s WALL (      24 calls)

     Called by c_bands:
     init_us_2    :     82.22s CPU     83.86s WALL (     245 calls)
     cegterg      :  29734.83s CPU  30718.15s WALL (     120 calls)

     Called by *egterg:
     h_psi        :  15068.57s CPU  15611.11s WALL (     543 calls)
     s_psi        :   2976.54s CPU   3002.41s WALL (     543 calls)
     g_psi        :     13.66s CPU     13.86s WALL (     418 calls)
     cdiaghg      :   2504.32s CPU   2535.08s WALL (     533 calls)

     Called by h_psi:
     add_vuspsi   :   2979.97s CPU   3003.84s WALL (     543 calls)

     General routines
     calbec       :   4721.05s CPU   4829.51s WALL (     663 calls)
     fft          :    217.83s CPU    254.25s WALL (    1584 calls)
     ffts         :      2.24s CPU      2.33s WALL (      48 calls)
     fftw         :   7554.51s CPU   8013.14s WALL (  323490 calls)
     interpolate  :     10.11s CPU     10.42s WALL (      48 calls)
     davcio       :      0.05s CPU     72.95s WALL (       5 calls)

     Parallel routines
     fft_scatter  :   4074.51s CPU   4505.28s WALL (  325122 calls)

     PWSCF        :    10h54m CPU       11h16m WALL


   This run was terminated on:   2: 5:34  31May2015            

=------------------------------------------------------------------------------=
   JOB DONE.
=------------------------------------------------------------------------------=
