
     Program PWSCF v.5.1.1 starts on 23Jun2015 at  9: 2:52 

     This program is part of the open-source Quantum ESPRESSO suite
     for quantum simulation of materials; please cite
         "P. Giannozzi et al., J. Phys.:Condens. Matter 21 395502 (2009);
          URL http://www.quantum-espresso.org", 
     in publications or presentations arising from this work. More details at
     http://www.quantum-espresso.org/quote

     Parallel version (MPI), running on     8 processors
     R & G space division:  proc/nbgrp/npool/nimage =       8
     Waiting for input...
     Reading input from standard input
Warning: card &CELL ignored
Warning: card / ignored

     Current dimensions of program PWSCF are:
     Max number of different atomic species (ntypx) = 10
     Max number of k-points (npk) =  40000
     Max angular momentum in pseudopotentials (lmaxx) =  3

     IMPORTANT: XC functional enforced from input :
     Exchange-correlation      = VDW-DF ( 1  4  4  0 1 0)
     Any further DFT definition will be discarded
     Please, verify this is what you really want


     Subspace diagonalization in iterative solution of the eigenvalue problem:
     a serial algorithm will be used


     Parallelization info
     --------------------
     sticks:   dense  smooth     PW     G-vecs:    dense   smooth      PW
     Min        2313    1158    298               474089   167622   21962
     Max        2314    1159    299               474104   167655   21969
     Sum       18505    9265   2385              3792731  1341081  175711


     Title: 
     GOLD                                                                       


     bravais-lattice index     =            8
     lattice parameter (alat)  =      24.1233  a.u.
     unit-cell volume          =   28076.2361 (a.u.)^3
     number of atoms/cell      =            3
     number of atomic types    =            2
     number of electrons       =         8.00
     number of Kohn-Sham states=            8
     kinetic-energy cutoff     =      50.0000  Ry
     charge density cutoff     =     400.0000  Ry
     convergence threshold     =      1.0E-08
     mixing beta               =       0.7000
     number of iterations used =            8  plain     mixing
     Exchange-correlation      = VDW-DF ( 1  4  4  0 1 0)
     nstep                     =           50


     celldm(1)=  24.123277  celldm(2)=   1.000000  celldm(3)=   2.000000
     celldm(4)=   0.000000  celldm(5)=   0.000000  celldm(6)=   0.000000

     crystal axes: (cart. coord. in units of alat)
               a(1) = (   1.000000   0.000000   0.000000 )  
               a(2) = (   0.000000   1.000000   0.000000 )  
               a(3) = (   0.000000   0.000000   2.000000 )  

     reciprocal axes: (cart. coord. in units 2 pi/alat)
               b(1) = (  1.000000  0.000000  0.000000 )  
               b(2) = (  0.000000  1.000000  0.000000 )  
               b(3) = (  0.000000  0.000000  0.500000 )  


     PseudoPot. # 1 for H  read from file:
     /home/andrejb/Andrej/qe/pseudo/H.pbe-van_ak.UPF
     MD5 check sum: 403db7282739603aa925980fa9b8608d
     Pseudo is Ultrasoft, Zval =  1.0
     Generated by new atomic code, or converted to UPF format
     Using radial grid of  615 points,  1 beta functions with: 
                l(1) =   0
     Q(r) pseudized with  8 coefficients,  rinner =    0.800

     PseudoPot. # 2 for O  read from file:
     /home/andrejb/Andrej/qe/pseudo/O.pbe-van_ak.UPF
     MD5 check sum: 4b8c549914a63cae506c6ff22b5af4fe
     Pseudo is Ultrasoft, Zval =  6.0
     Generated by new atomic code, or converted to UPF format
     Using radial grid of  737 points,  4 beta functions with: 
                l(1) =   0
                l(2) =   0
                l(3) =   1
                l(4) =   1
     Q(r) pseudized with  8 coefficients,  rinner =    0.800   0.800   0.800


     vdW kernel table read from file vdW_kernel_table
     MD5 check sum: 48e77a2e26edf626eeb0eaa751ad5cac

     atomic species   valence    mass     pseudopotential
        H              1.00     1.01000     H ( 1.00)
        O              6.00    16.00000     O ( 1.00)

     No symmetry found



   Cartesian axes

     site n.     atom                  positions (alat units)
         1           O   tau(   1) = (   0.1666109   0.0000000   0.7343535  )
         2           H   tau(   2) = (   0.1210026  -0.0379673   0.7822990  )
         3           H   tau(   3) = (   0.2137277   0.0392036   0.7797574  )

     number of k points=     6  Marzari-Vanderbilt smearing, width (Ry)=  0.0200
                       cart. coord. in units 2pi/alat
        k(    1) = (   0.2500000   0.2500000   0.0833333), wk =   0.3333333
        k(    2) = (   0.2500000   0.2500000  -0.2500000), wk =   0.3333333
        k(    3) = (  -0.2500000  -0.2500000   0.0833333), wk =   0.3333333
        k(    4) = (  -0.2500000   0.2500000  -0.0833333), wk =   0.3333333
        k(    5) = (   0.2500000  -0.2500000  -0.0833333), wk =   0.3333333
        k(    6) = (  -0.2500000   0.2500000   0.2500000), wk =   0.3333333

     Dense  grid:  3792731 G-vectors     FFT dimensions: ( 160, 160, 320)

     Smooth grid:  1341081 G-vectors     FFT dimensions: ( 120, 120, 225)

     Largest allocated arrays     est. size (Mb)     dimensions
        Kohn-Sham Wavefunctions         2.57 Mb     (   21052,    8)
        NL pseudopotentials             3.21 Mb     (   21052,   10)
        Each V/rho on FFT grid         15.62 Mb     ( 1024000)
        Each G-vector array             3.62 Mb     (  474091)
        G-vector shells                 0.08 Mb     (   10780)
     Largest temporary arrays     est. size (Mb)     dimensions
        Auxiliary wavefunctions        10.28 Mb     (   21052,   32)
        Each subspace H/S matrix        0.02 Mb     (      32,   32)
        Each <psi_i|beta_j> matrix      0.00 Mb     (      10,    8)
        Arrays for rho mixing         125.00 Mb     ( 1024000,    8)

     Initial potential from superposition of free atoms
     Check: negative starting charge=   -0.004921

     starting charge    7.99998, renormalised to    8.00000

     negative rho (up, down):  4.921E-03 0.000E+00


     ************************************************************************
     *
     * You are using vdW-DF for exchange-correlation in this calculation.
     * Please cite the following three references that made this development
     * possible:
     *
     *   M. Dion, H. Rydberg, E. Schroder, D. C. Langreth, and
     *   B. I. Lundqvist, Phys. Rev. Lett. 92, 246401 (2004).
     *
     *   T. Thonhauser, V. R. Cooper, S. Li, A. Puzder, P. Hyldgaard, and
     *   D. C. Langreth, Phys. Rev. B 76, 125112 (2007).
     *
     *   G. Roman-Perez and J. M. Soler, Phys. Rev. Lett. 103, 096102 (2009).
     *
     *
     * If you are using vdW-DF2, please also cite:
     *
     *   K. Lee, E. D. Murray, L. Kong, B. I. Lundqvist, and
     *   D. C. Langreth, Phys. Rev. B 82, 081101(R) (2010).
     *
     *
     * If you are calculating the stress with vdW-DF, please also cite:
     *
     *   R. Sabatini, E. Kucukbenli, B. Kolb, T. Thonhauser, and
     *   S. de Gironcoli, J. Phys.: Condens. Matter 24, 424209 (2012).
     *
     ************************************************************************

     Carrying out vdW-DF run using the following parameters:

     Nqs =      20    Nr_points =    1024   r_max =   100.000
     q_mesh =
               0.00001000     0.04494208     0.09755937     0.15916263
               0.23128650     0.31572767     0.41458969     0.53033537
               0.66584808     0.82450364     1.01025438     1.22772762
               1.48234092     1.78043706     2.12944203     2.53805004
               3.01644009     3.57652955     4.23227104     5.00000000

     Gradients computed in reciprocal space

     ************************************************************************


     Starting wfc are    6 randomized atomic wfcs +    2 random wfc

     total cpu time spent up to now is       25.5 secs

     per-process dynamical memory:   205.8 Mb

     Self-consistent Calculation

     iteration #  1     ecut=    50.00 Ry     beta=0.70
     Davidson diagonalization with overlap
     ethr =  1.00E-02,  avg # of iterations =  6.0

     negative rho (up, down):  6.746E-03 0.000E+00

     total cpu time spent up to now is       65.7 secs

     total energy              =     -34.47538930 Ry
     Harris-Foulkes estimate   =     -34.84561628 Ry
     estimated scf accuracy    <       0.49871571 Ry

     iteration #  2     ecut=    50.00 Ry     beta=0.70
     Davidson diagonalization with overlap
     ethr =  6.23E-03,  avg # of iterations =  3.0

     negative rho (up, down):  7.676E-03 0.000E+00

     total cpu time spent up to now is       98.2 secs

     total energy              =     -34.55273050 Ry
     Harris-Foulkes estimate   =     -34.84088262 Ry
     estimated scf accuracy    <       0.62065143 Ry

     iteration #  3     ecut=    50.00 Ry     beta=0.70
     Davidson diagonalization with overlap
     ethr =  6.23E-03,  avg # of iterations =  2.0

     negative rho (up, down):  9.428E-03 0.000E+00

     total cpu time spent up to now is      128.8 secs

     total energy              =     -34.68523966 Ry
     Harris-Foulkes estimate   =     -34.68965917 Ry
     estimated scf accuracy    <       0.00836236 Ry

     iteration #  4     ecut=    50.00 Ry     beta=0.70
     Davidson diagonalization with overlap
     ethr =  1.05E-04,  avg # of iterations = 11.2

     negative rho (up, down):  9.542E-03 0.000E+00

     total cpu time spent up to now is      173.2 secs

     total energy              =     -34.68500997 Ry
     Harris-Foulkes estimate   =     -34.68577899 Ry
     estimated scf accuracy    <       0.00187847 Ry

     iteration #  5     ecut=    50.00 Ry     beta=0.70
     Davidson diagonalization with overlap
     ethr =  2.35E-05,  avg # of iterations =  5.8

     negative rho (up, down):  9.740E-03 0.000E+00

     total cpu time spent up to now is      206.2 secs

     total energy              =     -34.68503725 Ry
     Harris-Foulkes estimate   =     -34.68513158 Ry
     estimated scf accuracy    <       0.00021448 Ry

     iteration #  6     ecut=    50.00 Ry     beta=0.70
     Davidson diagonalization with overlap
     c_bands:  1 eigenvalues not converged
     ethr =  2.68E-06,  avg # of iterations = 10.8

     negative rho (up, down):  9.862E-03 0.000E+00

     total cpu time spent up to now is      246.2 secs

     total energy              =     -34.68506486 Ry
     Harris-Foulkes estimate   =     -34.68506682 Ry
     estimated scf accuracy    <       0.00000412 Ry

     iteration #  7     ecut=    50.00 Ry     beta=0.70
     Davidson diagonalization with overlap
     ethr =  5.16E-08,  avg # of iterations =  2.7

     negative rho (up, down):  9.866E-03 0.000E+00

     total cpu time spent up to now is      277.4 secs

     total energy              =     -34.68506528 Ry
     Harris-Foulkes estimate   =     -34.68506538 Ry
     estimated scf accuracy    <       0.00000056 Ry

     iteration #  8     ecut=    50.00 Ry     beta=0.70
     Davidson diagonalization with overlap
     ethr =  6.96E-09,  avg # of iterations =  2.0

     negative rho (up, down):  9.876E-03 0.000E+00

     total cpu time spent up to now is      307.5 secs

     End of self-consistent calculation

          k = 0.2500 0.2500 0.0833 (167653 PWs)   bands (ev):

   -25.4478 -13.2632  -9.4642  -7.4429  -1.4245  -0.3257  -0.1568  -0.0255

          k = 0.2500 0.2500-0.2500 (167588 PWs)   bands (ev):

   -25.4478 -13.2632  -9.4642  -7.4429  -1.4245  -0.3203  -0.1946   0.0095

          k =-0.2500-0.2500 0.0833 (167653 PWs)   bands (ev):

   -25.4478 -13.2632  -9.4642  -7.4429  -1.4245  -0.3262  -0.1555  -0.0329

          k =-0.2500 0.2500-0.0833 (167653 PWs)   bands (ev):

   -25.4478 -13.2632  -9.4642  -7.4429  -1.4248  -0.2536  -0.2021  -0.1250

          k = 0.2500-0.2500-0.0833 (167653 PWs)   bands (ev):

   -25.4478 -13.2632  -9.4642  -7.4429  -1.4248  -0.2535  -0.2014  -0.1249

          k =-0.2500 0.2500 0.2500 (167588 PWs)   bands (ev):

   -25.4478 -13.2632  -9.4642  -7.4429  -1.4248  -0.2445  -0.2032  -0.1645

     the Fermi energy is    -7.1922 ev

!    total energy              =     -34.68506528 Ry
     Harris-Foulkes estimate   =     -34.68506534 Ry
     estimated scf accuracy    <          5.7E-09 Ry

     The total energy is the sum of the following terms:

     one-electron contribution =     -72.88315377 Ry
     hartree contribution      =      37.91721057 Ry
     xc contribution           =      -8.66809157 Ry
     ewald contribution        =       8.94570753 Ry
     smearing contrib. (-TS)   =       0.00326198 Ry

     convergence has been achieved in   8 iterations

     Forces acting on atoms (Ry/au):

     atom    1 type  2   force =    -0.00017546   -0.00015205    0.00029728
     atom    2 type  1   force =     0.00007950    0.00007801   -0.00023518
     atom    3 type  1   force =     0.00009595    0.00007404   -0.00006210

     Total force =     0.000478     Total SCF correction =     0.000134
     SCF correction compared to forces is large: reduce conv_thr to get better values

     BFGS Geometry Optimization

     bfgs converged in   1 scf cycles and   0 bfgs steps
     (criteria: energy <  1.0E-04, force <  1.0E-03)

     End of BFGS Geometry Optimization

     Final energy   =     -34.6850652751 Ry
Begin final coordinates

ATOMIC_POSITIONS (angstrom)
O        2.126869000   0.000000000   9.374381000
H        1.544657000  -0.484671000   9.986429000
H        2.728338000   0.500453000   9.953984000
End final coordinates



     Writing output data file 001waterrelax.save

     init_run     :     22.63s CPU     24.96s WALL (       1 calls)
     electrons    :    241.06s CPU    286.12s WALL (       1 calls)
     forces       :      4.00s CPU      4.28s WALL (       1 calls)

     Called by init_run:
     wfcinit      :      3.40s CPU      4.48s WALL (       1 calls)
     potinit      :     13.70s CPU     14.58s WALL (       1 calls)

     Called by electrons:
     c_bands      :     97.41s CPU    114.74s WALL (       8 calls)
     sum_band     :     29.75s CPU     35.73s WALL (       8 calls)
     v_of_rho     :    109.30s CPU    125.48s WALL (       9 calls)
     newd         :     13.49s CPU     14.95s WALL (       9 calls)
     mix_rho      :      3.13s CPU      3.82s WALL (       8 calls)
     vdW_energy   :     17.19s CPU     19.59s WALL (       9 calls)
     vdW_ffts     :     45.55s CPU     53.60s WALL (      18 calls)
     vdW_v        :     17.99s CPU     19.35s WALL (       9 calls)

     Called by c_bands:
     init_us_2    :      1.06s CPU      1.27s WALL (     108 calls)
     cegterg      :     95.99s CPU    112.88s WALL (      48 calls)

     Called by *egterg:
     h_psi        :     88.72s CPU    104.99s WALL (     315 calls)
     s_psi        :      1.00s CPU      1.02s WALL (     315 calls)
     g_psi        :      0.23s CPU      0.26s WALL (     261 calls)
     cdiaghg      :      0.07s CPU      0.10s WALL (     309 calls)

     Called by h_psi:
     add_vuspsi   :      0.99s CPU      1.04s WALL (     315 calls)

     General routines
     calbec       :      1.51s CPU      2.12s WALL (     369 calls)
     fft          :     74.14s CPU     88.06s WALL (     592 calls)
     ffts         :      0.80s CPU      0.90s WALL (      17 calls)
     fftw         :     71.54s CPU     87.84s WALL (    3150 calls)
     interpolate  :      3.39s CPU      3.76s WALL (      17 calls)
     davcio       :      0.01s CPU      0.19s WALL (       6 calls)

     Parallel routines
     fft_scatter  :     83.64s CPU    109.24s WALL (    3759 calls)

     PWSCF        :  4m28.66s CPU     5m22.00s WALL


   This run was terminated on:   9: 8:14  23Jun2015            

=------------------------------------------------------------------------------=
   JOB DONE.
=------------------------------------------------------------------------------=
