Setting SGE environment for SCC

     Program PWSCF v.5.1.2 starts on 13Aug2015 at 14:14:22 

     This program is part of the open-source Quantum ESPRESSO suite
     for quantum simulation of materials; please cite
         "P. Giannozzi et al., J. Phys.:Condens. Matter 21 395502 (2009);
          URL http://www.quantum-espresso.org", 
     in publications or presentations arising from this work. More details at
     http://www.quantum-espresso.org/quote

     Parallel version (MPI), running on    32 processors
     R & G space division:  proc/nbgrp/npool/nimage =      32
     Reading input from top.O1.Au50.d.3.4.phi.0.psi.0.in
Warning: card &IONS ignored
Warning: card / ignored
Warning: card &CELL ignored
Warning: card / ignored

     Current dimensions of program PWSCF are:
     Max number of different atomic species (ntypx) = 10
     Max number of k-points (npk) =  40000
     Max angular momentum in pseudopotentials (lmaxx) =  3

     Subspace diagonalization in iterative solution of the eigenvalue problem:
     a serial algorithm will be used


     Parallelization info
     --------------------
     sticks:   dense  smooth     PW     G-vecs:    dense   smooth      PW
     Min         445     223     58                96775    34191    4534
     Max         446     224     59                96790    34246    4540
     Sum       14269    7147   1867              3097177  1095093  145167


     Title: 
     top.O1.Au50.d.3.4.phi.0.psi.0                                              


     bravais-lattice index     =            4
     lattice parameter (alat)  =      22.7436  a.u.
     unit-cell volume          =   22924.1508 (a.u.)^3
     number of atoms/cell      =           67
     number of atomic types    =            3
     number of electrons       =       712.00
     number of Kohn-Sham states=          427
     kinetic-energy cutoff     =      50.0000  Ry
     charge density cutoff     =     400.0000  Ry
     convergence threshold     =      1.0E-08
     mixing beta               =       0.7000
     number of iterations used =            8  plain     mixing
     Exchange-correlation      =  SLA  PW   PBE  PBE ( 1  4  3  4 0 0)

     celldm(1)=  22.743643  celldm(2)=   0.000000  celldm(3)=   2.250000
     celldm(4)=   0.000000  celldm(5)=   0.000000  celldm(6)=   0.000000

     crystal axes: (cart. coord. in units of alat)
               a(1) = (   1.000000   0.000000   0.000000 )  
               a(2) = (  -0.500000   0.866025   0.000000 )  
               a(3) = (   0.000000   0.000000   2.250000 )  

     reciprocal axes: (cart. coord. in units 2 pi/alat)
               b(1) = (  1.000000  0.577350 -0.000000 )  
               b(2) = (  0.000000  1.154701  0.000000 )  
               b(3) = (  0.000000 -0.000000  0.444444 )  


     PseudoPot. # 1 for Au read from file:
     /home/scc/andrejb/qe/pseudo/Au.pbe-nd-van.UPF
     MD5 check sum: 458681b50f36d87ef23c61b04bba420a
     Pseudo is Ultrasoft + core correction, Zval = 11.0
     Generated by new atomic code, or converted to UPF format
     Using radial grid of  985 points,  3 beta functions with: 
                l(1) =   1
                l(2) =   2
                l(3) =   2
     Q(r) pseudized with  8 coefficients,  rinner =    1.100   1.100   1.100
                                                       1.100   1.100

     PseudoPot. # 2 for H  read from file:
     /home/scc/andrejb/qe/pseudo/H.pbe-van_ak.UPF
     MD5 check sum: 403db7282739603aa925980fa9b8608d
     Pseudo is Ultrasoft, Zval =  1.0
     Generated by new atomic code, or converted to UPF format
     Using radial grid of  615 points,  1 beta functions with: 
                l(1) =   0
     Q(r) pseudized with  8 coefficients,  rinner =    0.800

     PseudoPot. # 3 for O  read from file:
     /home/scc/andrejb/qe/pseudo/O.pbe-van_ak.UPF
     MD5 check sum: 4b8c549914a63cae506c6ff22b5af4fe
     Pseudo is Ultrasoft, Zval =  6.0
     Generated by new atomic code, or converted to UPF format
     Using radial grid of  737 points,  4 beta functions with: 
                l(1) =   0
                l(2) =   0
                l(3) =   1
                l(4) =   1
     Q(r) pseudized with  8 coefficients,  rinner =    0.800   0.800   0.800


     atomic species   valence    mass     pseudopotential
        Au            11.00   196.96657     Au( 1.00)
        H              1.00     1.01000     H ( 1.00)
        O              6.00    16.00000     O ( 1.00)

     No symmetry found



   Cartesian axes

     site n.     atom                  positions (alat units)
         1           O   tau(   1) = (   0.4790780   0.3968269   0.8954964  )
         2           H   tau(   2) = (   0.4291446   0.3552792   0.9437499  )
         3           H   tau(   3) = (   0.5274974   0.4371337   0.9462571  )
         4           Au  tau(   4) = (   0.3540481   0.6132292   0.0000000  )
         5           Au  tau(   5) = (   0.4790062   0.3967954   0.0000000  )
         6           Au  tau(   6) = (   0.6039644   0.1803616   0.0000000  )
         7           Au  tau(   7) = (   0.7289225  -0.0360723   0.0000000  )
         8           Au  tau(   8) = (   0.1041318   0.6132292   0.0000000  )
         9           Au  tau(   9) = (   0.2290899   0.3967954   0.0000000  )
        10           Au  tau(  10) = (   0.3540481   0.1803616   0.0000000  )
        11           Au  tau(  11) = (   0.4790062  -0.0360723   0.0000000  )
        12           Au  tau(  12) = (  -0.1457845   0.6132292   0.0000000  )
        13           Au  tau(  13) = (  -0.0208264   0.3967954   0.0000000  )
        14           Au  tau(  14) = (   0.1041318   0.1803616   0.0000000  )
        15           Au  tau(  15) = (   0.2290899  -0.0360723   0.0000000  )
        16           Au  tau(  16) = (  -0.3957008   0.6132292   0.0000000  )
        17           Au  tau(  17) = (  -0.2707426   0.3967954   0.0000000  )
        18           Au  tau(  18) = (  -0.1457845   0.1803616   0.0000000  )
        19           Au  tau(  19) = (  -0.0208264  -0.0360723   0.0000000  )
        20           Au  tau(  20) = (   0.4790062   0.6853738   0.2040557  )
        21           Au  tau(  21) = (   0.6039644   0.4689400   0.2040557  )
        22           Au  tau(  22) = (   0.7289225   0.2525062   0.2040557  )
        23           Au  tau(  23) = (   0.8538806   0.0360723   0.2040557  )
        24           Au  tau(  24) = (   0.2290899   0.6853738   0.2040557  )
        25           Au  tau(  25) = (   0.3540481   0.4689400   0.2040557  )
        26           Au  tau(  26) = (   0.4790062   0.2525062   0.2040557  )
        27           Au  tau(  27) = (   0.6039644   0.0360723   0.2040557  )
        28           Au  tau(  28) = (  -0.0208264   0.6853738   0.2040557  )
        29           Au  tau(  29) = (   0.1041318   0.4689400   0.2040557  )
        30           Au  tau(  30) = (   0.2290899   0.2525062   0.2040557  )
        31           Au  tau(  31) = (   0.3540481   0.0360723   0.2040557  )
        32           Au  tau(  32) = (  -0.2707426   0.6853738   0.2040557  )
        33           Au  tau(  33) = (  -0.1457845   0.4689400   0.2040557  )
        34           Au  tau(  34) = (  -0.0208264   0.2525062   0.2040557  )
        35           Au  tau(  35) = (   0.1041318   0.0360723   0.2040557  )
        36           Au  tau(  36) = (   0.3541162   0.7576593   0.4066483  )
        37           Au  tau(  37) = (   0.4791000   0.5411421   0.4066696  )
        38           Au  tau(  38) = (   0.6040570   0.3246862   0.4066618  )
        39           Au  tau(  39) = (   0.7290270   0.1081684   0.4066530  )
        40           Au  tau(  40) = (   0.1041162   0.7576236   0.4066247  )
        41           Au  tau(  41) = (   0.2291001   0.5411062   0.4066455  )
        42           Au  tau(  42) = (   0.3540567   0.3246505   0.4066380  )
        43           Au  tau(  43) = (   0.4790276   0.1081324   0.4066292  )
        44           Au  tau(  44) = (  -0.1458201   0.7576104   0.4066225  )
        45           Au  tau(  45) = (  -0.0208365   0.5410930   0.4066438  )
        46           Au  tau(  46) = (   0.1041202   0.3246372   0.4066359  )
        47           Au  tau(  47) = (   0.2290908   0.1081193   0.4066273  )
        48           Au  tau(  48) = (  -0.3958167   0.7575791   0.4065812  )
        49           Au  tau(  49) = (  -0.2708328   0.5410617   0.4066025  )
        50           Au  tau(  50) = (  -0.1458763   0.3246061   0.4065947  )
        51           Au  tau(  51) = (  -0.0209056   0.1080882   0.4065858  )
        52           Au  tau(  52) = (   0.3541084   0.6133344   0.6129762  )
        53           Au  tau(  53) = (   0.4790780   0.3968269   0.6129968  )
        54           Au  tau(  54) = (   0.6040356   0.1803811   0.6129859  )
        55           Au  tau(  55) = (   0.7290165  -0.0361221   0.6129385  )
        56           Au  tau(  56) = (   0.1041243   0.6133091   0.6130023  )
        57           Au  tau(  57) = (   0.2290941   0.3968013   0.6130241  )
        58           Au  tau(  58) = (   0.3540515   0.1803552   0.6130121  )
        59           Au  tau(  59) = (   0.4790323  -0.0361475   0.6129659  )
        60           Au  tau(  60) = (  -0.1458030   0.6133014   0.6129980  )
        61           Au  tau(  61) = (  -0.0208339   0.3967936   0.6130189  )
        62           Au  tau(  62) = (   0.1041239   0.1803477   0.6130083  )
        63           Au  tau(  63) = (   0.2291046  -0.0361554   0.6129607  )
        64           Au  tau(  64) = (  -0.3957908   0.6132739   0.6129471  )
        65           Au  tau(  65) = (  -0.2708208   0.3967658   0.6129688  )
        66           Au  tau(  66) = (  -0.1458636   0.1803200   0.6129569  )
        67           Au  tau(  67) = (  -0.0208823  -0.0361826   0.6129110  )

     number of k points=    12  Marzari-Vanderbilt smearing, width (Ry)=  0.0200
                       cart. coord. in units 2pi/alat
        k(    1) = (   0.2500000   0.4330127   0.1111111), wk =   0.1666667
        k(    2) = (   0.2500000  -0.1443376   0.1111111), wk =   0.1666667
        k(    3) = (  -0.2500000  -0.4330127   0.1111111), wk =   0.1666667
        k(    4) = (  -0.2500000   0.4330127  -0.1111111), wk =   0.1666667
        k(    5) = (   0.2500000  -0.4330127  -0.1111111), wk =   0.1666667
        k(    6) = (   0.5000000   0.0000000   0.1111111), wk =   0.1666667
        k(    7) = (  -0.5000000   0.0000000   0.1111111), wk =   0.1666667
        k(    8) = (  -0.2500000   0.1443376   0.1111111), wk =   0.1666667
        k(    9) = (  -0.2500000  -0.1443376  -0.1111111), wk =   0.1666667
        k(   10) = (   0.2500000   0.1443376  -0.1111111), wk =   0.1666667
        k(   11) = (   0.0000000  -0.2886751   0.1111111), wk =   0.1666667
        k(   12) = (   0.0000000   0.2886751   0.1111111), wk =   0.1666667

     Dense  grid:  3097177 G-vectors     FFT dimensions: ( 150, 150, 360)

     Smooth grid:  1095093 G-vectors     FFT dimensions: ( 108, 108, 240)

     Largest allocated arrays     est. size (Mb)     dimensions
        Kohn-Sham Wavefunctions        28.01 Mb     (    4299,  427)
        NL pseudopotentials            55.23 Mb     (    4299,  842)
        Each V/rho on FFT grid          4.12 Mb     (  270000)
        Each G-vector array             0.74 Mb     (   96788)
        G-vector shells                 0.16 Mb     (   21404)
     Largest temporary arrays     est. size (Mb)     dimensions
        Auxiliary wavefunctions       112.04 Mb     (    4299, 1708)
        Each subspace H/S matrix       44.51 Mb     (    1708, 1708)
        Each <psi_i|beta_j> matrix      5.49 Mb     (     842,  427)
        Arrays for rho mixing          32.96 Mb     (  270000,    8)

     Initial potential from superposition of free atoms
     Check: negative starting charge=   -1.730113

     starting charge  711.25682, renormalised to  712.00000

     negative rho (up, down):  1.732E+00 0.000E+00
     Starting wfc are  582 randomized atomic wfcs

     total cpu time spent up to now is      150.4 secs

     Self-consistent Calculation

     iteration #  1     ecut=    50.00 Ry     beta=0.70
     Davidson diagonalization with overlap
     ethr =  1.00E-02,  avg # of iterations =  3.0

     Threshold (ethr) on eigenvalues was too large:
     Diagonalizing with lowered threshold

     Davidson diagonalization with overlap
     ethr =  4.34E-04,  avg # of iterations =  2.6

     negative rho (up, down):  1.714E+00 0.000E+00

     total cpu time spent up to now is      743.8 secs

     total energy              =   -6562.22486123 Ry
     Harris-Foulkes estimate   =   -6564.99473358 Ry
     estimated scf accuracy    <       3.56664968 Ry

     iteration #  2     ecut=    50.00 Ry     beta=0.70
     Davidson diagonalization with overlap
     ethr =  5.01E-04,  avg # of iterations = 11.8

     negative rho (up, down):  1.713E+00 0.000E+00

     total cpu time spent up to now is     1697.9 secs

     total energy              =   -6554.82321120 Ry
     Harris-Foulkes estimate   =   -6570.89983182 Ry
     estimated scf accuracy    <      91.15171285 Ry

     iteration #  3     ecut=    50.00 Ry     beta=0.70
     Davidson diagonalization with overlap
     ethr =  5.01E-04,  avg # of iterations =  6.0

     negative rho (up, down):  1.728E+00 0.000E+00

     total cpu time spent up to now is     2261.5 secs

     total energy              =   -6562.65892015 Ry
     Harris-Foulkes estimate   =   -6564.90276273 Ry
     estimated scf accuracy    <       9.56415754 Ry

     iteration #  4     ecut=    50.00 Ry     beta=0.70
     Davidson diagonalization with overlap
     ethr =  5.01E-04,  avg # of iterations =  7.3

     negative rho (up, down):  1.731E+00 0.000E+00

     total cpu time spent up to now is     2616.4 secs

     total energy              =   -6563.01914270 Ry
     Harris-Foulkes estimate   =   -6565.07099765 Ry
     estimated scf accuracy    <      18.03656568 Ry

     iteration #  5     ecut=    50.00 Ry     beta=0.70
     Davidson diagonalization with overlap
     ethr =  5.01E-04,  avg # of iterations =  5.8

     negative rho (up, down):  1.743E+00 0.000E+00

     total cpu time spent up to now is     2932.2 secs

     total energy              =   -6563.98755446 Ry
     Harris-Foulkes estimate   =   -6564.52906566 Ry
     estimated scf accuracy    <       4.43375520 Ry

     iteration #  6     ecut=    50.00 Ry     beta=0.70
     Davidson diagonalization with overlap
     ethr =  5.01E-04,  avg # of iterations =  3.0

     negative rho (up, down):  1.747E+00 0.000E+00

     total cpu time spent up to now is     3188.5 secs

     total energy              =   -6564.18768726 Ry
     Harris-Foulkes estimate   =   -6564.25099745 Ry
     estimated scf accuracy    <       0.18976159 Ry

     iteration #  7     ecut=    50.00 Ry     beta=0.70
     Davidson diagonalization with overlap
     ethr =  2.67E-05,  avg # of iterations =  9.6

     negative rho (up, down):  1.750E+00 0.000E+00

     total cpu time spent up to now is     3597.7 secs

     total energy              =   -6564.20068381 Ry
     Harris-Foulkes estimate   =   -6564.23539687 Ry
     estimated scf accuracy    <       0.14890712 Ry

     iteration #  8     ecut=    50.00 Ry     beta=0.70
     Davidson diagonalization with overlap
     ethr =  2.09E-05,  avg # of iterations =  3.3

     negative rho (up, down):  1.751E+00 0.000E+00

     total cpu time spent up to now is     3863.7 secs

     total energy              =   -6564.20434963 Ry
     Harris-Foulkes estimate   =   -6564.22104487 Ry
     estimated scf accuracy    <       0.06188776 Ry

     iteration #  9     ecut=    50.00 Ry     beta=0.70
     Davidson diagonalization with overlap
     ethr =  8.69E-06,  avg # of iterations = 12.3

     negative rho (up, down):  1.752E+00 0.000E+00

     total cpu time spent up to now is     4281.4 secs

     total energy              =   -6564.20399146 Ry
     Harris-Foulkes estimate   =   -6564.21228541 Ry
     estimated scf accuracy    <       0.02657548 Ry

     iteration # 10     ecut=    50.00 Ry     beta=0.70
     Davidson diagonalization with overlap
     ethr =  3.73E-06,  avg # of iterations =  8.3

     negative rho (up, down):  1.754E+00 0.000E+00

     total cpu time spent up to now is     4677.4 secs

     total energy              =   -6564.20354974 Ry
     Harris-Foulkes estimate   =   -6564.20744196 Ry
     estimated scf accuracy    <       0.01224665 Ry

     iteration # 11     ecut=    50.00 Ry     beta=0.70
     Davidson diagonalization with overlap
     c_bands:  1 eigenvalues not converged
     ethr =  1.72E-06,  avg # of iterations =  7.8

     negative rho (up, down):  1.755E+00 0.000E+00

     total cpu time spent up to now is     5024.4 secs

     total energy              =   -6564.20354961 Ry
     Harris-Foulkes estimate   =   -6564.20532254 Ry
     estimated scf accuracy    <       0.00621607 Ry

     iteration # 12     ecut=    50.00 Ry     beta=0.70
     Davidson diagonalization with overlap
     ethr =  8.73E-07,  avg # of iterations =  4.9

     negative rho (up, down):  1.755E+00 0.000E+00

     total cpu time spent up to now is     5316.6 secs

     total energy              =   -6564.20346369 Ry
     Harris-Foulkes estimate   =   -6564.20419246 Ry
     estimated scf accuracy    <       0.00113596 Ry

     iteration # 13     ecut=    50.00 Ry     beta=0.70
     Davidson diagonalization with overlap
     c_bands:  1 eigenvalues not converged
     c_bands:  1 eigenvalues not converged
     c_bands:  1 eigenvalues not converged
     c_bands:  1 eigenvalues not converged
     ethr =  1.60E-07,  avg # of iterations = 11.5

     negative rho (up, down):  1.755E+00 0.000E+00

     total cpu time spent up to now is     5770.3 secs

     total energy              =   -6564.20358842 Ry
     Harris-Foulkes estimate   =   -6564.20385531 Ry
     estimated scf accuracy    <       0.00090222 Ry

     iteration # 14     ecut=    50.00 Ry     beta=0.70
     Davidson diagonalization with overlap
     ethr =  1.27E-07,  avg # of iterations =  2.3

     negative rho (up, down):  1.755E+00 0.000E+00

     total cpu time spent up to now is     6025.1 secs

     total energy              =   -6564.20371068 Ry
     Harris-Foulkes estimate   =   -6564.20374470 Ry
     estimated scf accuracy    <       0.00011075 Ry

     iteration # 15     ecut=    50.00 Ry     beta=0.70
     Davidson diagonalization with overlap
     ethr =  1.56E-08,  avg # of iterations =  3.0

     negative rho (up, down):  1.755E+00 0.000E+00

     total cpu time spent up to now is     6320.4 secs

     total energy              =   -6564.20370146 Ry
     Harris-Foulkes estimate   =   -6564.20375809 Ry
     estimated scf accuracy    <       0.00039573 Ry

     iteration # 16     ecut=    50.00 Ry     beta=0.70
     Davidson diagonalization with overlap
     ethr =  1.56E-08,  avg # of iterations =  2.0

     negative rho (up, down):  1.755E+00 0.000E+00

     total cpu time spent up to now is     6584.7 secs

     total energy              =   -6564.20372146 Ry
     Harris-Foulkes estimate   =   -6564.20374165 Ry
     estimated scf accuracy    <       0.00013946 Ry

     iteration # 17     ecut=    50.00 Ry     beta=0.70
     Davidson diagonalization with overlap
     ethr =  1.56E-08,  avg # of iterations =  1.6

     negative rho (up, down):  1.755E+00 0.000E+00

     total cpu time spent up to now is     6816.7 secs

     total energy              =   -6564.20372942 Ry
     Harris-Foulkes estimate   =   -6564.20373818 Ry
     estimated scf accuracy    <       0.00004618 Ry

     iteration # 18     ecut=    50.00 Ry     beta=0.70
     Davidson diagonalization with overlap
     ethr =  6.49E-09,  avg # of iterations =  2.0

     negative rho (up, down):  1.755E+00 0.000E+00

     total cpu time spent up to now is     7062.8 secs

     total energy              =   -6564.20373236 Ry
     Harris-Foulkes estimate   =   -6564.20373547 Ry
     estimated scf accuracy    <       0.00001136 Ry

     iteration # 19     ecut=    50.00 Ry     beta=0.70
     Davidson diagonalization with overlap
     ethr =  1.60E-09,  avg # of iterations =  2.0

     negative rho (up, down):  1.755E+00 0.000E+00

     total cpu time spent up to now is     7304.9 secs

     total energy              =   -6564.20373378 Ry
     Harris-Foulkes estimate   =   -6564.20373428 Ry
     estimated scf accuracy    <       0.00000166 Ry

     iteration # 20     ecut=    50.00 Ry     beta=0.70
     Davidson diagonalization with overlap
     ethr =  2.33E-10,  avg # of iterations =  2.0

     negative rho (up, down):  1.755E+00 0.000E+00

     total cpu time spent up to now is     7561.5 secs

     total energy              =   -6564.20373401 Ry
     Harris-Foulkes estimate   =   -6564.20373424 Ry
     estimated scf accuracy    <       0.00000096 Ry

     iteration # 21     ecut=    50.00 Ry     beta=0.70
     Davidson diagonalization with overlap
     ethr =  1.35E-10,  avg # of iterations =  2.0

     negative rho (up, down):  1.755E+00 0.000E+00

     total cpu time spent up to now is     7806.2 secs

     total energy              =   -6564.20373412 Ry
     Harris-Foulkes estimate   =   -6564.20373418 Ry
     estimated scf accuracy    <       0.00000024 Ry

     iteration # 22     ecut=    50.00 Ry     beta=0.70
     Davidson diagonalization with overlap
     ethr =  3.36E-11,  avg # of iterations =  2.0

     negative rho (up, down):  1.755E+00 0.000E+00

     total cpu time spent up to now is     8048.5 secs

     total energy              =   -6564.20373414 Ry
     Harris-Foulkes estimate   =   -6564.20373415 Ry
     estimated scf accuracy    <       0.00000002 Ry

     iteration # 23     ecut=    50.00 Ry     beta=0.70
     Davidson diagonalization with overlap
     ethr =  2.77E-12,  avg # of iterations =  3.0

     negative rho (up, down):  1.755E+00 0.000E+00

     total cpu time spent up to now is     8397.6 secs

     total energy              =   -6564.20373415 Ry
     Harris-Foulkes estimate   =   -6564.20373415 Ry
     estimated scf accuracy    <       0.00000003 Ry

     iteration # 24     ecut=    50.00 Ry     beta=0.70
     Davidson diagonalization with overlap
     ethr =  2.77E-12,  avg # of iterations =  2.0

     negative rho (up, down):  1.755E+00 0.000E+00

     total cpu time spent up to now is     8667.2 secs

     total energy              =   -6564.20373415 Ry
     Harris-Foulkes estimate   =   -6564.20373415 Ry
     estimated scf accuracy    <       0.00000001 Ry

     iteration # 25     ecut=    50.00 Ry     beta=0.70
     Davidson diagonalization with overlap
     ethr =  1.51E-12,  avg # of iterations =  2.0

     negative rho (up, down):  1.755E+00 0.000E+00

     total cpu time spent up to now is     8915.8 secs

     End of self-consistent calculation

          k = 0.2500 0.4330 0.1111 (136853 PWs)   bands (ev):

   -18.8151  -6.6196  -6.2410  -5.8409  -5.8406  -5.1643  -4.8167  -4.8166
    -4.7898  -4.7891  -4.3689  -4.3687  -4.2870  -4.2478  -4.2430  -4.2429
    -4.2004  -4.0848  -4.0844  -4.0397  -3.9934  -3.9934  -3.9905  -3.9904
    -3.9421  -3.9418  -3.9136  -3.9131  -3.8923  -3.8730  -3.8720  -3.7952
    -3.7952  -3.7765  -3.7763  -3.7326  -3.7326  -3.7321  -3.7111  -3.7108
    -3.7079  -3.6333  -3.6332  -3.5716  -3.5715  -3.5547  -3.5544  -3.4929
    -3.4925  -3.4638  -3.4638  -3.4258  -3.4109  -3.4104  -3.3913  -3.3911
    -3.3885  -3.3878  -3.3822  -3.3622  -3.3015  -3.2951  -3.2946  -3.2741
    -3.2408  -3.2133  -3.2119  -3.1576  -3.1563  -3.1315  -3.1310  -3.1038
    -3.0780  -3.0416  -3.0399  -3.0048  -3.0034  -2.9673  -2.9633  -2.9615
    -2.9290  -2.9203  -2.8886  -2.8874  -2.8665  -2.8657  -2.8622  -2.8605
    -2.8591  -2.8555  -2.8511  -2.7970  -2.7388  -2.7380  -2.7371  -2.7367
    -2.7329  -2.7106  -2.7102  -2.6927  -2.6171  -2.6157  -2.6149  -2.6081
    -2.5600  -2.5548  -2.5541  -2.5331  -2.5328  -2.4816  -2.4641  -2.4639
    -2.4596  -2.4201  -2.4189  -2.4185  -2.3769  -2.3767  -2.3247  -2.2983
    -2.2983  -2.2948  -2.2945  -2.2723  -2.2722  -2.2673  -2.2595  -2.2593
    -2.2250  -2.1934  -2.1883  -2.1821  -2.1815  -2.1787  -2.1784  -2.1777
    -2.1775  -2.1583  -2.1441  -2.1432  -2.1426  -2.1398  -2.1383  -2.1273
    -2.1227  -2.1218  -2.0956  -2.0921  -2.0918  -2.0693  -2.0667  -2.0499
    -2.0497  -2.0236  -2.0229  -2.0223  -2.0212  -2.0149  -2.0143  -2.0139
    -2.0135  -1.9996  -1.9985  -1.9834  -1.9786  -1.9778  -1.8971  -1.8966
    -1.8818  -1.8817  -1.8633  -1.8627  -1.8421  -1.8293  -1.8291  -1.8098
    -1.7921  -1.7905  -1.7827  -1.7815  -1.7555  -1.7553  -1.7516  -1.7503
    -1.7445  -1.7334  -1.7049  -1.6766  -1.6574  -1.6553  -1.6355  -1.6309
    -1.6306  -1.5713  -1.5709  -1.5584  -1.5576  -1.4886  -1.4881  -1.4479
    -1.4299  -1.4281  -1.3960  -1.3956  -1.3689  -1.3678  -1.3489  -1.3481
    -1.3467  -1.3458  -1.3307  -1.2899  -1.2889  -1.2883  -1.2864  -1.2812
    -1.2803  -1.2517  -1.2494  -1.2488  -1.2145  -1.2040  -1.2027  -1.1978
    -1.1976  -1.1901  -1.1743  -1.1469  -1.1464  -1.1414  -1.1407  -1.1235
    -1.1195  -1.0754  -1.0630  -1.0617  -1.0611  -1.0377  -1.0372  -0.9926
    -0.9573  -0.9083  -0.9070  -0.9065  -0.9051  -0.9004  -0.8994  -0.8972
    -0.8857  -0.8850  -0.8354  -0.8344  -0.8191  -0.8177  -0.8038  -0.8004
    -0.7888  -0.7835  -0.7757  -0.7735  -0.7730  -0.7718  -0.7652  -0.7287
    -0.7252  -0.7154  -0.7146  -0.7127  -0.6987  -0.6973  -0.6682  -0.6590
    -0.6580  -0.6305  -0.6118  -0.6095  -0.5698  -0.5658  -0.5541  -0.5539
    -0.5450  -0.5445  -0.5380  -0.5365  -0.5331  -0.5317  -0.5036  -0.5034
    -0.4939  -0.4928  -0.4820  -0.4675  -0.4665  -0.4512  -0.4508  -0.4257
    -0.4174  -0.4155  -0.4036  -0.3522  -0.3503  -0.3499  -0.3459  -0.3398
    -0.3377  -0.3355  -0.3172  -0.3149  -0.3039  -0.3030  -0.3009  -0.3004
    -0.2592  -0.2576  -0.2569  -0.2503  -0.2492  -0.2423  -0.2412  -0.2367
    -0.2276  -0.2217  -0.2205  -0.1894  -0.1890  -0.1809  -0.1674  -0.1667
    -0.1141  -0.1132  -0.0855  -0.0850  -0.0765  -0.0759  -0.0432  -0.0330
    -0.0326  -0.0160  -0.0141  -0.0087   0.0648   0.0672   0.1773   0.5788
     0.5789   0.6044   0.6048   0.6663   0.6705   1.0171   1.0178   1.0308
     1.0314   1.2020   1.2688   1.3566   1.3638   1.6153   1.6275   2.2031
     2.2052   2.3332   2.3366   2.5426   2.5483   2.6154   2.6155   2.7038
     2.9785   2.9933   3.1602   3.3724   3.3796   3.4089   3.4098   3.4741
     3.5724   3.7323   3.7431   3.7806   4.0229   4.0235   4.0952   4.0991
     4.3395   4.3445   4.3727   4.5623   4.5636   4.6241   4.7088   4.9998
     5.0352   5.0384   5.2270   5.3178   5.3182   5.4030   5.4318   5.6056
     6.0470   6.1093   6.1140   6.1844   6.1881   6.1921   6.2643   6.3279
     6.3388   6.3428   6.3466   6.3981   6.4106   6.4116   6.4129   6.4201
     6.4672   6.6890   6.8182   6.8404   6.9978   7.0575   7.0609   7.0837
     7.1755   7.1981   7.2251

          k = 0.2500-0.1443 0.1111 (136898 PWs)   bands (ev):

   -18.8151  -6.6196  -6.4510  -5.6564  -5.3682  -5.3026  -5.3022  -4.7457
    -4.7454  -4.6330  -4.5961  -4.4464  -4.3755  -4.3436  -4.3431  -4.2962
    -4.2257  -4.2257  -4.0886  -4.0461  -4.0461  -4.0253  -4.0245  -4.0237
    -3.9028  -3.9027  -3.8238  -3.8123  -3.8107  -3.8106  -3.7901  -3.7901
    -3.7251  -3.6684  -3.6684  -3.6561  -3.6457  -3.6455  -3.6344  -3.6342
    -3.6262  -3.5788  -3.5787  -3.5692  -3.5690  -3.5572  -3.5570  -3.5259
    -3.5219  -3.5217  -3.4864  -3.4858  -3.4680  -3.4680  -3.4480  -3.4054
    -3.4054  -3.3442  -3.3442  -3.3230  -3.3221  -3.3055  -3.2320  -3.2318
    -3.2235  -3.2232  -3.2067  -3.2061  -3.1827  -3.1825  -3.0321  -3.0313
    -3.0141  -3.0128  -3.0085  -2.9745  -2.9696  -2.9662  -2.9646  -2.9288
    -2.9086  -2.9034  -2.8897  -2.8870  -2.8501  -2.8273  -2.8268  -2.8044
    -2.7972  -2.7958  -2.7523  -2.7514  -2.7333  -2.7316  -2.7280  -2.7258
    -2.7027  -2.7020  -2.6577  -2.6576  -2.6517  -2.6505  -2.6362  -2.5881
    -2.5874  -2.5638  -2.5562  -2.5548  -2.4766  -2.4764  -2.4464  -2.4458
    -2.4392  -2.4299  -2.4083  -2.3811  -2.3810  -2.3637  -2.3603  -2.3562
    -2.3561  -2.3435  -2.3351  -2.3338  -2.3260  -2.3256  -2.3179  -2.3171
    -2.2660  -2.2399  -2.2208  -2.2170  -2.2168  -2.2010  -2.2001  -2.1975
    -2.1974  -2.1866  -2.1565  -2.1561  -2.1447  -2.1385  -2.1261  -2.1259
    -2.1238  -2.0980  -2.0976  -2.0874  -2.0796  -2.0787  -2.0223  -2.0112
    -1.9994  -1.9988  -1.9975  -1.9778  -1.9777  -1.9643  -1.9437  -1.9436
    -1.9389  -1.9385  -1.9269  -1.9155  -1.9153  -1.9020  -1.8862  -1.8854
    -1.8385  -1.8380  -1.8295  -1.8286  -1.8278  -1.8254  -1.8158  -1.8152
    -1.8126  -1.8120  -1.7995  -1.7949  -1.7942  -1.6805  -1.6797  -1.6515
    -1.6512  -1.6487  -1.6276  -1.6232  -1.6220  -1.6134  -1.6130  -1.5929
    -1.5925  -1.5900  -1.5863  -1.5839  -1.5495  -1.5485  -1.5479  -1.5185
    -1.5180  -1.5125  -1.5124  -1.4989  -1.4987  -1.4412  -1.4385  -1.4149
    -1.4139  -1.4058  -1.3999  -1.3775  -1.3771  -1.3721  -1.3717  -1.3688
    -1.3686  -1.3561  -1.3560  -1.3373  -1.2998  -1.2975  -1.2680  -1.2678
    -1.2576  -1.2211  -1.2189  -1.1870  -1.1862  -1.1760  -1.1757  -1.1620
    -1.1461  -1.1437  -1.1253  -1.1239  -1.0941  -1.0936  -1.0752  -1.0743
    -1.0413  -1.0410  -1.0290  -0.9758  -0.9741  -0.9708  -0.9701  -0.9510
    -0.9506  -0.9342  -0.9340  -0.9031  -0.8916  -0.8722  -0.8696  -0.8692
    -0.8440  -0.8197  -0.8185  -0.8164  -0.8125  -0.8082  -0.8027  -0.8024
    -0.7825  -0.7720  -0.7650  -0.7636  -0.7527  -0.7476  -0.7449  -0.7405
    -0.7261  -0.7101  -0.7055  -0.6815  -0.6777  -0.5974  -0.5801  -0.5794
    -0.5790  -0.5767  -0.5724  -0.5712  -0.5597  -0.5413  -0.5208  -0.5188
    -0.5149  -0.5125  -0.4964  -0.4817  -0.4796  -0.4766  -0.4614  -0.3814
    -0.3811  -0.3541  -0.3513  -0.3443  -0.3415  -0.3358  -0.3345  -0.3344
    -0.3289  -0.3265  -0.3099  -0.2778  -0.2657  -0.2470  -0.2458  -0.2381
    -0.2369  -0.2305  -0.2286  -0.2222  -0.2192  -0.2183  -0.2010  -0.1986
    -0.1974  -0.1669  -0.1657  -0.1656  -0.1484  -0.1481  -0.1256  -0.0997
    -0.0991  -0.0897  -0.0889  -0.0216  -0.0210  -0.0034  -0.0031   0.0583
     0.0615   0.0620   0.0643   0.0901   0.2947   0.3027   0.6409   0.6410
     0.7134   0.7208   0.8671   0.8956   0.9213   1.0520   1.0538   1.4310
     1.4986   1.4986   1.7328   1.7329   1.7882   2.0939   2.1037   2.1316
     2.1325   2.1681   2.1750   2.3255   2.3257   2.5004   2.5009   2.5099
     2.6519   2.6624   2.7035   2.9135   3.2795   3.2800   3.3204   3.3226
     3.3280   3.3315   3.6564   3.6566   3.9878   3.9943   4.0594   4.3253
     4.4525   4.4574   4.6400   4.6542   4.7435   4.7457   4.8230   4.9828
     4.9864   5.0774   5.0793   5.3691   5.4283   5.4342   5.5020   5.6096
     5.6491   5.7707   5.7733   5.7756   5.7769   5.9195   5.9227   5.9799
     6.1881   6.4221   6.5074   6.6010   6.6013   6.6047   6.6084   6.6304
     6.7215   6.7767   6.8190   6.8230   6.9511   7.1251   7.1536   7.1771
     7.1998   7.3177   7.3792

          k =-0.2500-0.4330 0.1111 (136853 PWs)   bands (ev):

   -18.8151  -6.6196  -6.2410  -5.8409  -5.8406  -5.1643  -4.8167  -4.8166
    -4.7898  -4.7891  -4.3689  -4.3687  -4.2870  -4.2478  -4.2430  -4.2429
    -4.2004  -4.0848  -4.0844  -4.0397  -3.9934  -3.9934  -3.9905  -3.9904
    -3.9421  -3.9418  -3.9136  -3.9131  -3.8923  -3.8730  -3.8720  -3.7952
    -3.7952  -3.7765  -3.7763  -3.7326  -3.7326  -3.7321  -3.7111  -3.7108
    -3.7079  -3.6333  -3.6332  -3.5716  -3.5715  -3.5547  -3.5544  -3.4929
    -3.4925  -3.4638  -3.4638  -3.4258  -3.4109  -3.4104  -3.3913  -3.3911
    -3.3885  -3.3878  -3.3822  -3.3622  -3.3015  -3.2951  -3.2946  -3.2741
    -3.2408  -3.2133  -3.2119  -3.1576  -3.1563  -3.1315  -3.1310  -3.1038
    -3.0780  -3.0416  -3.0399  -3.0048  -3.0034  -2.9673  -2.9633  -2.9615
    -2.9290  -2.9203  -2.8886  -2.8874  -2.8665  -2.8657  -2.8622  -2.8605
    -2.8591  -2.8555  -2.8511  -2.7970  -2.7388  -2.7380  -2.7371  -2.7367
    -2.7329  -2.7106  -2.7102  -2.6927  -2.6171  -2.6157  -2.6149  -2.6081
    -2.5600  -2.5548  -2.5541  -2.5331  -2.5328  -2.4816  -2.4641  -2.4639
    -2.4596  -2.4201  -2.4189  -2.4185  -2.3769  -2.3767  -2.3247  -2.2983
    -2.2983  -2.2948  -2.2945  -2.2723  -2.2722  -2.2673  -2.2595  -2.2593
    -2.2250  -2.1934  -2.1883  -2.1821  -2.1815  -2.1787  -2.1784  -2.1777
    -2.1775  -2.1583  -2.1441  -2.1432  -2.1426  -2.1398  -2.1383  -2.1273
    -2.1227  -2.1218  -2.0956  -2.0921  -2.0918  -2.0693  -2.0667  -2.0499
    -2.0497  -2.0236  -2.0229  -2.0223  -2.0212  -2.0149  -2.0143  -2.0139
    -2.0135  -1.9996  -1.9985  -1.9834  -1.9786  -1.9778  -1.8971  -1.8966
    -1.8818  -1.8817  -1.8633  -1.8627  -1.8421  -1.8293  -1.8291  -1.8098
    -1.7921  -1.7905  -1.7827  -1.7815  -1.7555  -1.7553  -1.7516  -1.7503
    -1.7445  -1.7334  -1.7049  -1.6766  -1.6574  -1.6553  -1.6355  -1.6309
    -1.6306  -1.5713  -1.5709  -1.5584  -1.5576  -1.4886  -1.4881  -1.4479
    -1.4299  -1.4281  -1.3960  -1.3956  -1.3689  -1.3678  -1.3489  -1.3481
    -1.3467  -1.3458  -1.3307  -1.2899  -1.2889  -1.2883  -1.2864  -1.2812
    -1.2803  -1.2517  -1.2494  -1.2488  -1.2145  -1.2040  -1.2027  -1.1978
    -1.1976  -1.1901  -1.1743  -1.1469  -1.1464  -1.1414  -1.1407  -1.1235
    -1.1195  -1.0754  -1.0630  -1.0617  -1.0611  -1.0377  -1.0372  -0.9926
    -0.9573  -0.9083  -0.9070  -0.9065  -0.9052  -0.9004  -0.8994  -0.8972
    -0.8857  -0.8850  -0.8354  -0.8344  -0.8191  -0.8177  -0.8038  -0.8004
    -0.7888  -0.7835  -0.7757  -0.7735  -0.7730  -0.7718  -0.7652  -0.7287
    -0.7252  -0.7154  -0.7146  -0.7127  -0.6987  -0.6973  -0.6682  -0.6590
    -0.6580  -0.6305  -0.6118  -0.6095  -0.5698  -0.5658  -0.5541  -0.5539
    -0.5450  -0.5445  -0.5380  -0.5365  -0.5331  -0.5317  -0.5036  -0.5034
    -0.4939  -0.4928  -0.4820  -0.4675  -0.4665  -0.4512  -0.4508  -0.4257
    -0.4174  -0.4155  -0.4036  -0.3522  -0.3503  -0.3499  -0.3459  -0.3398
    -0.3377  -0.3355  -0.3172  -0.3149  -0.3039  -0.3030  -0.3009  -0.3004
    -0.2592  -0.2576  -0.2569  -0.2503  -0.2492  -0.2423  -0.2412  -0.2367
    -0.2276  -0.2217  -0.2205  -0.1894  -0.1890  -0.1809  -0.1674  -0.1667
    -0.1141  -0.1132  -0.0855  -0.0850  -0.0765  -0.0759  -0.0432  -0.0330
    -0.0326  -0.0160  -0.0141  -0.0087   0.0648   0.0672   0.1773   0.5788
     0.5789   0.6044   0.6048   0.6663   0.6705   1.0171   1.0178   1.0308
     1.0314   1.2020   1.2688   1.3566   1.3638   1.6153   1.6275   2.2031
     2.2052   2.3332   2.3366   2.5426   2.5483   2.6154   2.6155   2.7038
     2.9785   2.9933   3.1602   3.3724   3.3796   3.4089   3.4098   3.4741
     3.5724   3.7323   3.7431   3.7806   4.0229   4.0235   4.0952   4.0991
     4.3395   4.3445   4.3727   4.5623   4.5636   4.6241   4.7088   4.9998
     5.0352   5.0384   5.2270   5.3178   5.3182   5.4030   5.4318   5.6056
     6.0470   6.1093   6.1140   6.1841   6.1881   6.1922   6.2643   6.3279
     6.3388   6.3428   6.3466   6.3985   6.4105   6.4116   6.4130   6.4201
     6.4676   6.6889   6.8146   6.8419   6.9979   7.0572   7.0610   7.0835
     7.1814   7.1980   7.2212

          k =-0.2500 0.4330-0.1111 (136853 PWs)   bands (ev):

   -18.8151  -6.6196  -6.2410  -5.8422  -5.8392  -5.1643  -4.8170  -4.8163
    -4.7912  -4.7877  -4.3694  -4.3681  -4.2870  -4.2478  -4.2431  -4.2426
    -4.2004  -4.0854  -4.0840  -4.0398  -3.9936  -3.9933  -3.9905  -3.9903
    -3.9423  -3.9418  -3.9150  -3.9118  -3.8922  -3.8737  -3.8712  -3.7958
    -3.7942  -3.7765  -3.7761  -3.7333  -3.7326  -3.7315  -3.7112  -3.7108
    -3.7079  -3.6336  -3.6330  -3.5726  -3.5705  -3.5548  -3.5543  -3.4928
    -3.4925  -3.4639  -3.4637  -3.4259  -3.4111  -3.4104  -3.3912  -3.3911
    -3.3887  -3.3877  -3.3822  -3.3622  -3.3014  -3.2953  -3.2945  -3.2739
    -3.2405  -3.2136  -3.2119  -3.1580  -3.1557  -3.1318  -3.1304  -3.1037
    -3.0781  -3.0417  -3.0401  -3.0050  -3.0029  -2.9673  -2.9634  -2.9614
    -2.9289  -2.9202  -2.8884  -2.8875  -2.8667  -2.8661  -2.8623  -2.8602
    -2.8588  -2.8551  -2.8513  -2.7969  -2.7396  -2.7376  -2.7371  -2.7363
    -2.7330  -2.7106  -2.7102  -2.6926  -2.6177  -2.6156  -2.6146  -2.6080
    -2.5599  -2.5554  -2.5533  -2.5336  -2.5326  -2.4816  -2.4641  -2.4636
    -2.4595  -2.4201  -2.4193  -2.4183  -2.3771  -2.3764  -2.3246  -2.2983
    -2.2982  -2.2953  -2.2946  -2.2725  -2.2717  -2.2673  -2.2600  -2.2590
    -2.2251  -2.1934  -2.1882  -2.1821  -2.1812  -2.1793  -2.1783  -2.1776
    -2.1772  -2.1585  -2.1442  -2.1438  -2.1418  -2.1401  -2.1383  -2.1272
    -2.1226  -2.1215  -2.0954  -2.0920  -2.0917  -2.0694  -2.0669  -2.0499
    -2.0495  -2.0246  -2.0232  -2.0220  -2.0205  -2.0150  -2.0144  -2.0141
    -2.0128  -2.0000  -1.9982  -1.9835  -1.9790  -1.9778  -1.8977  -1.8962
    -1.8825  -1.8810  -1.8631  -1.8624  -1.8421  -1.8293  -1.8289  -1.8096
    -1.7924  -1.7904  -1.7826  -1.7813  -1.7554  -1.7552  -1.7522  -1.7499
    -1.7443  -1.7333  -1.7049  -1.6767  -1.6578  -1.6553  -1.6358  -1.6312
    -1.6304  -1.5720  -1.5701  -1.5585  -1.5574  -1.4892  -1.4873  -1.4482
    -1.4301  -1.4277  -1.3962  -1.3952  -1.3692  -1.3676  -1.3494  -1.3478
    -1.3470  -1.3454  -1.3308  -1.2894  -1.2887  -1.2885  -1.2863  -1.2818
    -1.2788  -1.2520  -1.2496  -1.2494  -1.2144  -1.2047  -1.2023  -1.1980
    -1.1974  -1.1908  -1.1740  -1.1467  -1.1464  -1.1415  -1.1397  -1.1230
    -1.1198  -1.0752  -1.0637  -1.0615  -1.0611  -1.0383  -1.0374  -0.9930
    -0.9575  -0.9079  -0.9072  -0.9066  -0.9055  -0.9006  -0.8992  -0.8969
    -0.8860  -0.8841  -0.8355  -0.8345  -0.8216  -0.8183  -0.8032  -0.7950
    -0.7889  -0.7863  -0.7749  -0.7736  -0.7720  -0.7710  -0.7657  -0.7311
    -0.7212  -0.7151  -0.7149  -0.7138  -0.6998  -0.6984  -0.6678  -0.6601
    -0.6573  -0.6314  -0.6124  -0.6080  -0.5698  -0.5656  -0.5541  -0.5538
    -0.5455  -0.5441  -0.5384  -0.5362  -0.5331  -0.5312  -0.5040  -0.5033
    -0.4942  -0.4928  -0.4820  -0.4691  -0.4660  -0.4512  -0.4506  -0.4253
    -0.4177  -0.4150  -0.4033  -0.3523  -0.3504  -0.3496  -0.3457  -0.3394
    -0.3383  -0.3354  -0.3175  -0.3148  -0.3040  -0.3026  -0.3011  -0.3005
    -0.2593  -0.2579  -0.2565  -0.2507  -0.2487  -0.2420  -0.2414  -0.2367
    -0.2275  -0.2221  -0.2202  -0.1898  -0.1886  -0.1811  -0.1675  -0.1665
    -0.1142  -0.1130  -0.0856  -0.0849  -0.0766  -0.0759  -0.0431  -0.0331
    -0.0325  -0.0177  -0.0140  -0.0072   0.0642   0.0683   0.1776   0.5786
     0.5791   0.6042   0.6049   0.6647   0.6714   1.0171   1.0177   1.0303
     1.0318   1.2026   1.2690   1.3549   1.3661   1.6125   1.6298   2.2021
     2.2058   2.3318   2.3384   2.5404   2.5502   2.6150   2.6158   2.7036
     2.9790   2.9936   3.1601   3.3706   3.3808   3.4087   3.4107   3.4736
     3.5725   3.7272   3.7475   3.7808   4.0223   4.0242   4.0943   4.1008
     4.3381   4.3456   4.3725   4.5621   4.5637   4.6247   4.7085   4.9991
     5.0341   5.0394   5.2273   5.3176   5.3185   5.4232   5.4272   5.5784
     6.0472   6.1077   6.1158   6.1877   6.1892   6.2331   6.2646   6.3283
     6.3385   6.3425   6.3483   6.3573   6.4077   6.4096   6.4127   6.4291
     6.4831   6.7007   6.7840   6.8544   6.9974   7.0570   7.0655   7.0969
     7.1191   7.1984   7.2560

          k = 0.2500-0.4330-0.1111 (136853 PWs)   bands (ev):

   -18.8151  -6.6196  -6.2410  -5.8422  -5.8392  -5.1643  -4.8170  -4.8163
    -4.7912  -4.7877  -4.3694  -4.3681  -4.2870  -4.2478  -4.2431  -4.2426
    -4.2004  -4.0854  -4.0840  -4.0398  -3.9936  -3.9933  -3.9905  -3.9903
    -3.9423  -3.9418  -3.9150  -3.9118  -3.8922  -3.8737  -3.8712  -3.7958
    -3.7942  -3.7765  -3.7761  -3.7333  -3.7326  -3.7315  -3.7112  -3.7108
    -3.7079  -3.6336  -3.6330  -3.5726  -3.5705  -3.5548  -3.5543  -3.4928
    -3.4925  -3.4639  -3.4637  -3.4259  -3.4111  -3.4104  -3.3912  -3.3911
    -3.3887  -3.3877  -3.3822  -3.3622  -3.3014  -3.2953  -3.2945  -3.2739
    -3.2405  -3.2136  -3.2119  -3.1580  -3.1557  -3.1318  -3.1304  -3.1037
    -3.0781  -3.0417  -3.0401  -3.0050  -3.0029  -2.9673  -2.9634  -2.9614
    -2.9289  -2.9202  -2.8884  -2.8875  -2.8667  -2.8661  -2.8623  -2.8602
    -2.8588  -2.8551  -2.8513  -2.7969  -2.7396  -2.7376  -2.7371  -2.7363
    -2.7330  -2.7106  -2.7102  -2.6926  -2.6177  -2.6156  -2.6146  -2.6080
    -2.5599  -2.5554  -2.5533  -2.5336  -2.5326  -2.4816  -2.4641  -2.4636
    -2.4595  -2.4201  -2.4193  -2.4183  -2.3771  -2.3764  -2.3246  -2.2983
    -2.2982  -2.2953  -2.2946  -2.2725  -2.2717  -2.2673  -2.2600  -2.2590
    -2.2251  -2.1934  -2.1882  -2.1821  -2.1812  -2.1793  -2.1783  -2.1776
    -2.1772  -2.1585  -2.1442  -2.1438  -2.1418  -2.1401  -2.1383  -2.1272
    -2.1226  -2.1215  -2.0954  -2.0920  -2.0917  -2.0694  -2.0669  -2.0499
    -2.0495  -2.0246  -2.0232  -2.0220  -2.0205  -2.0150  -2.0144  -2.0141
    -2.0128  -2.0000  -1.9982  -1.9835  -1.9790  -1.9778  -1.8977  -1.8962
    -1.8825  -1.8810  -1.8631  -1.8624  -1.8421  -1.8293  -1.8289  -1.8096
    -1.7924  -1.7904  -1.7826  -1.7813  -1.7554  -1.7552  -1.7522  -1.7499
    -1.7443  -1.7333  -1.7049  -1.6767  -1.6578  -1.6553  -1.6358  -1.6312
    -1.6304  -1.5720  -1.5701  -1.5585  -1.5574  -1.4892  -1.4873  -1.4482
    -1.4301  -1.4277  -1.3962  -1.3952  -1.3692  -1.3676  -1.3494  -1.3478
    -1.3470  -1.3454  -1.3308  -1.2894  -1.2887  -1.2885  -1.2863  -1.2818
    -1.2788  -1.2520  -1.2496  -1.2494  -1.2144  -1.2047  -1.2023  -1.1980
    -1.1974  -1.1908  -1.1740  -1.1467  -1.1464  -1.1415  -1.1397  -1.1230
    -1.1198  -1.0752  -1.0637  -1.0615  -1.0611  -1.0383  -1.0374  -0.9930
    -0.9575  -0.9079  -0.9072  -0.9066  -0.9055  -0.9006  -0.8992  -0.8969
    -0.8860  -0.8841  -0.8355  -0.8345  -0.8216  -0.8183  -0.8032  -0.7950
    -0.7889  -0.7863  -0.7749  -0.7736  -0.7720  -0.7710  -0.7657  -0.7311
    -0.7212  -0.7151  -0.7149  -0.7138  -0.6998  -0.6984  -0.6678  -0.6601
    -0.6573  -0.6314  -0.6124  -0.6080  -0.5698  -0.5656  -0.5541  -0.5538
    -0.5455  -0.5441  -0.5384  -0.5362  -0.5331  -0.5312  -0.5040  -0.5033
    -0.4942  -0.4928  -0.4820  -0.4691  -0.4660  -0.4512  -0.4506  -0.4253
    -0.4177  -0.4150  -0.4033  -0.3523  -0.3504  -0.3496  -0.3457  -0.3394
    -0.3383  -0.3354  -0.3175  -0.3148  -0.3040  -0.3026  -0.3011  -0.3005
    -0.2593  -0.2579  -0.2565  -0.2507  -0.2487  -0.2420  -0.2414  -0.2367
    -0.2275  -0.2221  -0.2202  -0.1898  -0.1886  -0.1811  -0.1675  -0.1665
    -0.1142  -0.1130  -0.0856  -0.0849  -0.0766  -0.0759  -0.0431  -0.0331
    -0.0325  -0.0177  -0.0140  -0.0072   0.0642   0.0683   0.1776   0.5786
     0.5791   0.6042   0.6049   0.6647   0.6714   1.0171   1.0177   1.0303
     1.0318   1.2026   1.2690   1.3549   1.3661   1.6125   1.6298   2.2021
     2.2058   2.3318   2.3384   2.5404   2.5502   2.6150   2.6158   2.7036
     2.9790   2.9936   3.1601   3.3706   3.3808   3.4087   3.4107   3.4736
     3.5725   3.7272   3.7475   3.7808   4.0223   4.0242   4.0943   4.1008
     4.3381   4.3456   4.3725   4.5621   4.5637   4.6247   4.7085   4.9991
     5.0341   5.0394   5.2273   5.3176   5.3185   5.4232   5.4272   5.5784
     6.0472   6.1077   6.1158   6.1877   6.1892   6.2332   6.2646   6.3283
     6.3385   6.3425   6.3483   6.3572   6.4077   6.4096   6.4127   6.4290
     6.4830   6.7005   6.7841   6.8550   6.9974   7.0567   7.0655   7.0986
     7.1176   7.1982   7.2466

          k = 0.5000 0.0000 0.1111 (136853 PWs)   bands (ev):

   -18.8151  -6.6196  -6.2410  -5.8420  -5.8394  -5.1643  -4.8176  -4.8157
    -4.7905  -4.7885  -4.3695  -4.3679  -4.2870  -4.2478  -4.2430  -4.2427
    -4.2004  -4.0851  -4.0844  -4.0398  -3.9935  -3.9934  -3.9910  -3.9897
    -3.9423  -3.9418  -3.9151  -3.9116  -3.8922  -3.8732  -3.8717  -3.7960
    -3.7941  -3.7766  -3.7760  -3.7328  -3.7326  -3.7320  -3.7113  -3.7108
    -3.7079  -3.6335  -3.6331  -3.5726  -3.5705  -3.5547  -3.5543  -3.4931
    -3.4922  -3.4639  -3.4636  -3.4259  -3.4110  -3.4104  -3.3916  -3.3911
    -3.3889  -3.3873  -3.3823  -3.3622  -3.3014  -3.2952  -3.2946  -3.2739
    -3.2405  -3.2130  -3.2124  -3.1577  -3.1560  -3.1316  -3.1306  -3.1037
    -3.0781  -3.0420  -3.0398  -3.0044  -3.0034  -2.9672  -2.9634  -2.9615
    -2.9291  -2.9200  -2.8886  -2.8874  -2.8663  -2.8656  -2.8619  -2.8603
    -2.8592  -2.8560  -2.8512  -2.7969  -2.7390  -2.7379  -2.7373  -2.7365
    -2.7330  -2.7106  -2.7102  -2.6926  -2.6166  -2.6160  -2.6152  -2.6080
    -2.5600  -2.5551  -2.5535  -2.5334  -2.5329  -2.4816  -2.4642  -2.4634
    -2.4596  -2.4200  -2.4191  -2.4186  -2.3770  -2.3765  -2.3246  -2.2984
    -2.2981  -2.2951  -2.2948  -2.2725  -2.2718  -2.2673  -2.2599  -2.2589
    -2.2251  -2.1934  -2.1882  -2.1819  -2.1813  -2.1795  -2.1781  -2.1776
    -2.1773  -2.1584  -2.1442  -2.1432  -2.1424  -2.1398  -2.1384  -2.1274
    -2.1227  -2.1214  -2.0953  -2.0921  -2.0916  -2.0694  -2.0670  -2.0499
    -2.0496  -2.0235  -2.0231  -2.0226  -2.0209  -2.0152  -2.0141  -2.0136
    -2.0133  -1.9998  -1.9986  -1.9834  -1.9790  -1.9778  -1.8979  -1.8958
    -1.8826  -1.8810  -1.8631  -1.8624  -1.8421  -1.8295  -1.8289  -1.8096
    -1.7922  -1.7904  -1.7826  -1.7813  -1.7555  -1.7552  -1.7520  -1.7500
    -1.7444  -1.7333  -1.7048  -1.6766  -1.6579  -1.6551  -1.6356  -1.6310
    -1.6306  -1.5719  -1.5703  -1.5584  -1.5576  -1.4886  -1.4879  -1.4482
    -1.4299  -1.4279  -1.3961  -1.3954  -1.3689  -1.3679  -1.3490  -1.3481
    -1.3466  -1.3458  -1.3308  -1.2895  -1.2889  -1.2885  -1.2864  -1.2811
    -1.2799  -1.2519  -1.2498  -1.2489  -1.2145  -1.2041  -1.2028  -1.1980
    -1.1974  -1.1904  -1.1740  -1.1473  -1.1459  -1.1414  -1.1402  -1.1234
    -1.1194  -1.0753  -1.0629  -1.0620  -1.0611  -1.0380  -1.0373  -0.9929
    -0.9574  -0.9082  -0.9073  -0.9064  -0.9052  -0.9005  -0.8994  -0.8973
    -0.8854  -0.8850  -0.8354  -0.8344  -0.8201  -0.8179  -0.8034  -0.7987
    -0.7890  -0.7842  -0.7752  -0.7734  -0.7727  -0.7717  -0.7653  -0.7294
    -0.7241  -0.7152  -0.7146  -0.7130  -0.6989  -0.6980  -0.6683  -0.6590
    -0.6580  -0.6309  -0.6121  -0.6088  -0.5699  -0.5657  -0.5543  -0.5536
    -0.5452  -0.5441  -0.5382  -0.5363  -0.5332  -0.5314  -0.5040  -0.5031
    -0.4942  -0.4927  -0.4821  -0.4682  -0.4662  -0.4512  -0.4505  -0.4257
    -0.4174  -0.4154  -0.4034  -0.3521  -0.3504  -0.3499  -0.3458  -0.3395
    -0.3379  -0.3356  -0.3173  -0.3149  -0.3038  -0.3029  -0.3010  -0.3005
    -0.2593  -0.2575  -0.2568  -0.2503  -0.2491  -0.2422  -0.2413  -0.2366
    -0.2276  -0.2219  -0.2204  -0.1896  -0.1888  -0.1811  -0.1674  -0.1667
    -0.1142  -0.1131  -0.0856  -0.0849  -0.0766  -0.0758  -0.0431  -0.0331
    -0.0326  -0.0162  -0.0141  -0.0086   0.0645   0.0676   0.1774   0.5785
     0.5792   0.6043   0.6049   0.6655   0.6710   1.0171   1.0178   1.0303
     1.0319   1.2022   1.2689   1.3567   1.3641   1.6149   1.6278   2.2023
     2.2057   2.3324   2.3376   2.5417   2.5491   2.6147   2.6161   2.7036
     2.9787   2.9936   3.1602   3.3724   3.3795   3.4082   3.4106   3.4738
     3.5725   3.7314   3.7438   3.7808   4.0230   4.0235   4.0943   4.1002
     4.3385   4.3453   4.3725   4.5615   4.5642   4.6246   4.7086   4.9993
     5.0355   5.0380   5.2274   5.3174   5.3186   5.4103   5.4292   5.5966
     6.0471   6.1094   6.1141   6.1877   6.1886   6.2030   6.2643   6.3280
     6.3380   6.3421   6.3472   6.3857   6.4099   6.4114   6.4131   6.4225
     6.4730   6.6922   6.8076   6.8461   6.9975   7.0591   7.0619   7.0849
     7.1589   7.1984   7.2295

          k =-0.5000 0.0000 0.1111 (136853 PWs)   bands (ev):

   -18.8151  -6.6196  -6.2410  -5.8420  -5.8394  -5.1643  -4.8176  -4.8157
    -4.7905  -4.7885  -4.3695  -4.3679  -4.2870  -4.2478  -4.2430  -4.2427
    -4.2004  -4.0851  -4.0844  -4.0398  -3.9935  -3.9934  -3.9910  -3.9897
    -3.9423  -3.9418  -3.9151  -3.9116  -3.8922  -3.8732  -3.8717  -3.7960
    -3.7941  -3.7766  -3.7760  -3.7328  -3.7326  -3.7320  -3.7113  -3.7108
    -3.7079  -3.6335  -3.6331  -3.5726  -3.5705  -3.5547  -3.5543  -3.4931
    -3.4922  -3.4639  -3.4636  -3.4259  -3.4110  -3.4104  -3.3916  -3.3911
    -3.3889  -3.3873  -3.3823  -3.3622  -3.3014  -3.2952  -3.2946  -3.2739
    -3.2405  -3.2130  -3.2124  -3.1577  -3.1560  -3.1316  -3.1306  -3.1037
    -3.0781  -3.0420  -3.0398  -3.0044  -3.0034  -2.9672  -2.9634  -2.9615
    -2.9291  -2.9200  -2.8886  -2.8874  -2.8663  -2.8656  -2.8619  -2.8603
    -2.8592  -2.8560  -2.8512  -2.7969  -2.7390  -2.7379  -2.7373  -2.7365
    -2.7330  -2.7106  -2.7102  -2.6926  -2.6166  -2.6160  -2.6152  -2.6080
    -2.5600  -2.5551  -2.5535  -2.5334  -2.5329  -2.4816  -2.4642  -2.4634
    -2.4596  -2.4200  -2.4191  -2.4186  -2.3770  -2.3765  -2.3246  -2.2984
    -2.2981  -2.2951  -2.2948  -2.2725  -2.2718  -2.2673  -2.2599  -2.2589
    -2.2251  -2.1934  -2.1882  -2.1819  -2.1813  -2.1795  -2.1781  -2.1776
    -2.1773  -2.1584  -2.1442  -2.1432  -2.1424  -2.1398  -2.1384  -2.1274
    -2.1227  -2.1214  -2.0953  -2.0921  -2.0916  -2.0694  -2.0670  -2.0499
    -2.0496  -2.0235  -2.0231  -2.0226  -2.0209  -2.0152  -2.0141  -2.0136
    -2.0133  -1.9998  -1.9986  -1.9834  -1.9790  -1.9778  -1.8979  -1.8958
    -1.8826  -1.8810  -1.8631  -1.8624  -1.8421  -1.8295  -1.8289  -1.8096
    -1.7922  -1.7904  -1.7826  -1.7813  -1.7555  -1.7552  -1.7520  -1.7500
    -1.7444  -1.7333  -1.7048  -1.6766  -1.6579  -1.6551  -1.6356  -1.6310
    -1.6306  -1.5719  -1.5703  -1.5584  -1.5576  -1.4886  -1.4879  -1.4482
    -1.4299  -1.4279  -1.3961  -1.3954  -1.3689  -1.3679  -1.3490  -1.3481
    -1.3466  -1.3458  -1.3308  -1.2895  -1.2889  -1.2885  -1.2864  -1.2811
    -1.2799  -1.2519  -1.2498  -1.2489  -1.2145  -1.2041  -1.2028  -1.1980
    -1.1974  -1.1904  -1.1740  -1.1473  -1.1459  -1.1414  -1.1402  -1.1234
    -1.1194  -1.0753  -1.0629  -1.0620  -1.0611  -1.0380  -1.0373  -0.9929
    -0.9574  -0.9082  -0.9073  -0.9064  -0.9052  -0.9005  -0.8994  -0.8973
    -0.8854  -0.8850  -0.8354  -0.8344  -0.8201  -0.8179  -0.8034  -0.7987
    -0.7890  -0.7842  -0.7752  -0.7734  -0.7727  -0.7717  -0.7653  -0.7294
    -0.7241  -0.7152  -0.7146  -0.7130  -0.6989  -0.6980  -0.6683  -0.6590
    -0.6580  -0.6309  -0.6121  -0.6088  -0.5699  -0.5657  -0.5543  -0.5536
    -0.5452  -0.5441  -0.5382  -0.5363  -0.5332  -0.5314  -0.5040  -0.5031
    -0.4942  -0.4927  -0.4821  -0.4682  -0.4662  -0.4512  -0.4505  -0.4257
    -0.4174  -0.4154  -0.4034  -0.3521  -0.3504  -0.3499  -0.3458  -0.3395
    -0.3379  -0.3356  -0.3173  -0.3149  -0.3038  -0.3029  -0.3010  -0.3005
    -0.2593  -0.2575  -0.2568  -0.2503  -0.2491  -0.2422  -0.2413  -0.2366
    -0.2276  -0.2219  -0.2204  -0.1896  -0.1888  -0.1811  -0.1674  -0.1667
    -0.1142  -0.1131  -0.0856  -0.0849  -0.0766  -0.0758  -0.0431  -0.0331
    -0.0325  -0.0162  -0.0141  -0.0086   0.0645   0.0676   0.1774   0.5785
     0.5792   0.6043   0.6049   0.6655   0.6710   1.0171   1.0178   1.0303
     1.0319   1.2022   1.2689   1.3567   1.3641   1.6149   1.6278   2.2023
     2.2057   2.3324   2.3376   2.5417   2.5491   2.6147   2.6161   2.7036
     2.9787   2.9936   3.1602   3.3724   3.3795   3.4082   3.4106   3.4738
     3.5725   3.7314   3.7438   3.7808   4.0230   4.0235   4.0943   4.1002
     4.3385   4.3453   4.3725   4.5615   4.5642   4.6246   4.7086   4.9993
     5.0355   5.0380   5.2274   5.3174   5.3186   5.4103   5.4292   5.5966
     6.0471   6.1094   6.1141   6.1877   6.1885   6.2029   6.2643   6.3280
     6.3380   6.3421   6.3472   6.3862   6.4100   6.4114   6.4130   6.4226
     6.4733   6.6921   6.8048   6.8472   6.9976   7.0587   7.0620   7.0857
     7.1621   7.1985   7.2265

          k =-0.2500 0.1443 0.1111 (136898 PWs)   bands (ev):

   -18.8151  -6.6196  -6.4510  -5.6564  -5.3682  -5.3026  -5.3022  -4.7457
    -4.7454  -4.6330  -4.5961  -4.4464  -4.3755  -4.3436  -4.3431  -4.2962
    -4.2257  -4.2257  -4.0886  -4.0461  -4.0461  -4.0253  -4.0245  -4.0237
    -3.9028  -3.9027  -3.8238  -3.8123  -3.8107  -3.8106  -3.7901  -3.7901
    -3.7251  -3.6684  -3.6684  -3.6561  -3.6457  -3.6455  -3.6344  -3.6342
    -3.6262  -3.5788  -3.5787  -3.5692  -3.5690  -3.5572  -3.5570  -3.5259
    -3.5219  -3.5217  -3.4864  -3.4858  -3.4680  -3.4680  -3.4480  -3.4054
    -3.4054  -3.3442  -3.3442  -3.3230  -3.3221  -3.3055  -3.2320  -3.2318
    -3.2235  -3.2232  -3.2067  -3.2061  -3.1827  -3.1825  -3.0321  -3.0313
    -3.0141  -3.0128  -3.0085  -2.9745  -2.9696  -2.9662  -2.9646  -2.9288
    -2.9086  -2.9034  -2.8897  -2.8870  -2.8501  -2.8273  -2.8268  -2.8044
    -2.7972  -2.7958  -2.7523  -2.7514  -2.7333  -2.7316  -2.7279  -2.7258
    -2.7027  -2.7020  -2.6577  -2.6576  -2.6517  -2.6505  -2.6362  -2.5881
    -2.5874  -2.5638  -2.5562  -2.5548  -2.4766  -2.4764  -2.4464  -2.4458
    -2.4392  -2.4300  -2.4083  -2.3811  -2.3810  -2.3637  -2.3603  -2.3562
    -2.3561  -2.3435  -2.3351  -2.3338  -2.3260  -2.3256  -2.3179  -2.3171
    -2.2660  -2.2399  -2.2208  -2.2170  -2.2168  -2.2010  -2.2001  -2.1975
    -2.1974  -2.1866  -2.1565  -2.1561  -2.1447  -2.1385  -2.1261  -2.1259
    -2.1238  -2.0980  -2.0976  -2.0874  -2.0796  -2.0787  -2.0223  -2.0111
    -1.9994  -1.9988  -1.9975  -1.9778  -1.9777  -1.9643  -1.9437  -1.9436
    -1.9389  -1.9385  -1.9269  -1.9155  -1.9153  -1.9020  -1.8862  -1.8854
    -1.8385  -1.8380  -1.8295  -1.8286  -1.8278  -1.8254  -1.8158  -1.8152
    -1.8127  -1.8120  -1.7995  -1.7949  -1.7942  -1.6805  -1.6797  -1.6515
    -1.6512  -1.6487  -1.6276  -1.6232  -1.6220  -1.6134  -1.6129  -1.5929
    -1.5925  -1.5900  -1.5863  -1.5839  -1.5495  -1.5485  -1.5479  -1.5185
    -1.5180  -1.5125  -1.5124  -1.4989  -1.4987  -1.4412  -1.4385  -1.4149
    -1.4139  -1.4058  -1.3999  -1.3775  -1.3771  -1.3721  -1.3717  -1.3688
    -1.3686  -1.3561  -1.3560  -1.3373  -1.2998  -1.2974  -1.2680  -1.2678
    -1.2576  -1.2211  -1.2189  -1.1870  -1.1862  -1.1760  -1.1757  -1.1620
    -1.1461  -1.1437  -1.1253  -1.1239  -1.0941  -1.0936  -1.0752  -1.0743
    -1.0413  -1.0410  -1.0290  -0.9758  -0.9741  -0.9708  -0.9701  -0.9510
    -0.9506  -0.9342  -0.9340  -0.9031  -0.8916  -0.8722  -0.8696  -0.8692
    -0.8440  -0.8197  -0.8185  -0.8164  -0.8125  -0.8082  -0.8027  -0.8024
    -0.7825  -0.7720  -0.7650  -0.7636  -0.7527  -0.7476  -0.7449  -0.7405
    -0.7261  -0.7101  -0.7055  -0.6815  -0.6777  -0.5974  -0.5801  -0.5794
    -0.5790  -0.5767  -0.5724  -0.5712  -0.5597  -0.5413  -0.5208  -0.5188
    -0.5149  -0.5125  -0.4964  -0.4817  -0.4796  -0.4765  -0.4614  -0.3814
    -0.3811  -0.3541  -0.3513  -0.3443  -0.3416  -0.3357  -0.3345  -0.3344
    -0.3289  -0.3265  -0.3099  -0.2778  -0.2657  -0.2470  -0.2458  -0.2381
    -0.2369  -0.2305  -0.2286  -0.2222  -0.2192  -0.2183  -0.2010  -0.1986
    -0.1974  -0.1669  -0.1657  -0.1656  -0.1484  -0.1481  -0.1256  -0.0997
    -0.0991  -0.0897  -0.0889  -0.0216  -0.0210  -0.0034  -0.0031   0.0583
     0.0615   0.0620   0.0643   0.0901   0.2947   0.3027   0.6409   0.6410
     0.7134   0.7208   0.8671   0.8956   0.9213   1.0520   1.0538   1.4310
     1.4986   1.4986   1.7328   1.7329   1.7882   2.0939   2.1037   2.1316
     2.1326   2.1681   2.1750   2.3255   2.3257   2.5004   2.5009   2.5099
     2.6519   2.6624   2.7035   2.9135   3.2795   3.2799   3.3204   3.3226
     3.3280   3.3315   3.6564   3.6566   3.9878   3.9943   4.0594   4.3253
     4.4525   4.4574   4.6400   4.6542   4.7435   4.7457   4.8230   4.9828
     4.9864   5.0774   5.0793   5.3691   5.4283   5.4342   5.5020   5.6096
     5.6491   5.7707   5.7733   5.7756   5.7769   5.9195   5.9227   5.9799
     6.1878   6.4224   6.5074   6.6009   6.6011   6.6047   6.6084   6.6297
     6.7223   6.7783   6.8190   6.8230   6.9574   7.1252   7.1529   7.1746
     7.1962   7.3096   7.3665

          k =-0.2500-0.1443-0.1111 (136898 PWs)   bands (ev):

   -18.8151  -6.6196  -6.4510  -5.6564  -5.3682  -5.3025  -5.3023  -4.7456
    -4.7454  -4.6330  -4.5962  -4.4464  -4.3755  -4.3435  -4.3434  -4.2963
    -4.2258  -4.2255  -4.0885  -4.0463  -4.0460  -4.0251  -4.0246  -4.0237
    -3.9028  -3.9026  -3.8237  -3.8124  -3.8107  -3.8106  -3.7903  -3.7899
    -3.7250  -3.6686  -3.6683  -3.6561  -3.6458  -3.6455  -3.6344  -3.6343
    -3.6261  -3.5788  -3.5788  -3.5691  -3.5690  -3.5573  -3.5570  -3.5257
    -3.5219  -3.5217  -3.4867  -3.4857  -3.4683  -3.4677  -3.4482  -3.4055
    -3.4053  -3.3443  -3.3442  -3.3230  -3.3219  -3.3054  -3.2322  -3.2320
    -3.2235  -3.2230  -3.2069  -3.2060  -3.1828  -3.1826  -3.0323  -3.0312
    -3.0142  -3.0127  -3.0085  -2.9745  -2.9696  -2.9662  -2.9644  -2.9288
    -2.9086  -2.9036  -2.8896  -2.8870  -2.8500  -2.8272  -2.8267  -2.8044
    -2.7973  -2.7960  -2.7524  -2.7514  -2.7332  -2.7320  -2.7279  -2.7258
    -2.7024  -2.7019  -2.6580  -2.6573  -2.6516  -2.6505  -2.6361  -2.5880
    -2.5875  -2.5640  -2.5561  -2.5549  -2.4767  -2.4761  -2.4462  -2.4457
    -2.4393  -2.4298  -2.4084  -2.3811  -2.3809  -2.3637  -2.3603  -2.3564
    -2.3560  -2.3436  -2.3348  -2.3340  -2.3259  -2.3256  -2.3181  -2.3174
    -2.2660  -2.2399  -2.2208  -2.2170  -2.2168  -2.2009  -2.2003  -2.1975
    -2.1974  -2.1868  -2.1565  -2.1559  -2.1448  -2.1386  -2.1260  -2.1258
    -2.1236  -2.0979  -2.0975  -2.0877  -2.0796  -2.0787  -2.0225  -2.0113
    -1.9994  -1.9990  -1.9975  -1.9778  -1.9776  -1.9644  -1.9436  -1.9435
    -1.9387  -1.9384  -1.9269  -1.9155  -1.9154  -1.9021  -1.8860  -1.8855
    -1.8384  -1.8380  -1.8292  -1.8287  -1.8280  -1.8251  -1.8157  -1.8155
    -1.8134  -1.8116  -1.7994  -1.7949  -1.7944  -1.6804  -1.6799  -1.6512
    -1.6510  -1.6488  -1.6270  -1.6237  -1.6224  -1.6132  -1.6128  -1.5928
    -1.5924  -1.5900  -1.5862  -1.5838  -1.5497  -1.5480  -1.5479  -1.5188
    -1.5183  -1.5132  -1.5123  -1.4987  -1.4985  -1.4411  -1.4383  -1.4147
    -1.4139  -1.4055  -1.3999  -1.3777  -1.3772  -1.3723  -1.3719  -1.3693
    -1.3686  -1.3559  -1.3558  -1.3369  -1.3003  -1.2979  -1.2683  -1.2677
    -1.2578  -1.2210  -1.2188  -1.1873  -1.1858  -1.1762  -1.1755  -1.1619
    -1.1451  -1.1435  -1.1254  -1.1240  -1.0939  -1.0935  -1.0754  -1.0741
    -1.0412  -1.0410  -1.0291  -0.9760  -0.9744  -0.9709  -0.9708  -0.9514
    -0.9504  -0.9338  -0.9333  -0.9027  -0.8914  -0.8714  -0.8703  -0.8687
    -0.8377  -0.8257  -0.8188  -0.8168  -0.8123  -0.8069  -0.8035  -0.8024
    -0.7907  -0.7719  -0.7647  -0.7644  -0.7501  -0.7490  -0.7437  -0.7384
    -0.7257  -0.7075  -0.7047  -0.6804  -0.6786  -0.5975  -0.5801  -0.5794
    -0.5789  -0.5771  -0.5719  -0.5713  -0.5611  -0.5413  -0.5202  -0.5194
    -0.5144  -0.5134  -0.4966  -0.4810  -0.4801  -0.4766  -0.4614  -0.3815
    -0.3811  -0.3535  -0.3522  -0.3439  -0.3420  -0.3358  -0.3347  -0.3342
    -0.3289  -0.3258  -0.3102  -0.2781  -0.2656  -0.2467  -0.2461  -0.2380
    -0.2371  -0.2307  -0.2283  -0.2221  -0.2191  -0.2186  -0.2008  -0.1987
    -0.1976  -0.1671  -0.1656  -0.1651  -0.1484  -0.1480  -0.1256  -0.0997
    -0.0991  -0.0895  -0.0889  -0.0218  -0.0210  -0.0036  -0.0029   0.0584
     0.0616   0.0618   0.0638   0.0901   0.2966   0.3016   0.6409   0.6410
     0.7150   0.7197   0.8668   0.8939   0.9221   1.0524   1.0533   1.4310
     1.4985   1.4987   1.7327   1.7331   1.7882   2.0961   2.1017   2.1318
     2.1323   2.1694   2.1738   2.3251   2.3261   2.5005   2.5007   2.5100
     2.6538   2.6602   2.7032   2.9136   3.2794   3.2801   3.3206   3.3229
     3.3287   3.3308   3.6564   3.6568   3.9893   3.9932   4.0594   4.3253
     4.4533   4.4563   4.6453   4.6466   4.7437   4.7453   4.8233   4.9825
     4.9860   5.0780   5.0792   5.3694   5.4277   5.4340   5.5046   5.6162
     5.6528   5.7709   5.7726   5.7758   5.7767   5.9192   5.9237   5.9768
     6.1785   6.3887   6.5069   6.6001   6.6018   6.6048   6.6060   6.6132
     6.7594   6.8168   6.8210   6.8224   6.9456   7.0997   7.1618   7.1669
     7.2667   7.2993   7.3497

          k = 0.2500 0.1443-0.1111 (136898 PWs)   bands (ev):

   -18.8151  -6.6196  -6.4510  -5.6564  -5.3682  -5.3025  -5.3023  -4.7456
    -4.7454  -4.6330  -4.5962  -4.4464  -4.3755  -4.3435  -4.3434  -4.2963
    -4.2258  -4.2254  -4.0885  -4.0463  -4.0460  -4.0251  -4.0246  -4.0237
    -3.9028  -3.9026  -3.8238  -3.8124  -3.8107  -3.8106  -3.7903  -3.7899
    -3.7250  -3.6686  -3.6683  -3.6560  -3.6458  -3.6455  -3.6344  -3.6343
    -3.6261  -3.5788  -3.5788  -3.5691  -3.5690  -3.5573  -3.5570  -3.5257
    -3.5219  -3.5217  -3.4867  -3.4857  -3.4683  -3.4677  -3.4482  -3.4055
    -3.4053  -3.3443  -3.3442  -3.3230  -3.3219  -3.3054  -3.2322  -3.2320
    -3.2235  -3.2230  -3.2069  -3.2060  -3.1828  -3.1826  -3.0323  -3.0312
    -3.0142  -3.0127  -3.0085  -2.9745  -2.9696  -2.9662  -2.9644  -2.9288
    -2.9086  -2.9036  -2.8896  -2.8870  -2.8500  -2.8272  -2.8267  -2.8044
    -2.7973  -2.7960  -2.7524  -2.7514  -2.7332  -2.7320  -2.7279  -2.7258
    -2.7024  -2.7019  -2.6580  -2.6573  -2.6516  -2.6505  -2.6361  -2.5880
    -2.5875  -2.5640  -2.5561  -2.5549  -2.4767  -2.4761  -2.4462  -2.4457
    -2.4393  -2.4298  -2.4084  -2.3811  -2.3809  -2.3637  -2.3603  -2.3564
    -2.3560  -2.3436  -2.3348  -2.3340  -2.3259  -2.3256  -2.3181  -2.3174
    -2.2660  -2.2398  -2.2208  -2.2170  -2.2168  -2.2009  -2.2003  -2.1975
    -2.1974  -2.1868  -2.1565  -2.1559  -2.1448  -2.1386  -2.1260  -2.1258
    -2.1236  -2.0979  -2.0975  -2.0877  -2.0796  -2.0787  -2.0225  -2.0113
    -1.9994  -1.9990  -1.9975  -1.9778  -1.9776  -1.9644  -1.9436  -1.9435
    -1.9387  -1.9384  -1.9269  -1.9155  -1.9155  -1.9021  -1.8860  -1.8855
    -1.8384  -1.8380  -1.8292  -1.8287  -1.8280  -1.8251  -1.8157  -1.8155
    -1.8134  -1.8116  -1.7994  -1.7949  -1.7944  -1.6804  -1.6799  -1.6512
    -1.6510  -1.6488  -1.6270  -1.6237  -1.6224  -1.6132  -1.6128  -1.5927
    -1.5924  -1.5900  -1.5862  -1.5838  -1.5497  -1.5480  -1.5479  -1.5188
    -1.5183  -1.5132  -1.5123  -1.4987  -1.4985  -1.4411  -1.4383  -1.4147
    -1.4139  -1.4055  -1.3999  -1.3777  -1.3772  -1.3723  -1.3718  -1.3693
    -1.3686  -1.3559  -1.3558  -1.3369  -1.3003  -1.2979  -1.2683  -1.2677
    -1.2578  -1.2210  -1.2188  -1.1873  -1.1858  -1.1762  -1.1755  -1.1619
    -1.1451  -1.1435  -1.1254  -1.1240  -1.0939  -1.0935  -1.0754  -1.0741
    -1.0412  -1.0410  -1.0291  -0.9760  -0.9744  -0.9708  -0.9708  -0.9514
    -0.9504  -0.9338  -0.9333  -0.9027  -0.8914  -0.8714  -0.8703  -0.8687
    -0.8377  -0.8257  -0.8188  -0.8168  -0.8123  -0.8069  -0.8035  -0.8024
    -0.7907  -0.7719  -0.7647  -0.7644  -0.7501  -0.7490  -0.7437  -0.7384
    -0.7258  -0.7075  -0.7047  -0.6804  -0.6786  -0.5975  -0.5801  -0.5794
    -0.5789  -0.5771  -0.5719  -0.5713  -0.5612  -0.5413  -0.5202  -0.5194
    -0.5144  -0.5134  -0.4966  -0.4810  -0.4801  -0.4766  -0.4614  -0.3815
    -0.3811  -0.3535  -0.3522  -0.3439  -0.3420  -0.3358  -0.3347  -0.3342
    -0.3289  -0.3258  -0.3102  -0.2781  -0.2656  -0.2467  -0.2461  -0.2380
    -0.2371  -0.2307  -0.2283  -0.2221  -0.2191  -0.2186  -0.2008  -0.1987
    -0.1976  -0.1671  -0.1656  -0.1651  -0.1484  -0.1480  -0.1256  -0.0997
    -0.0991  -0.0895  -0.0889  -0.0218  -0.0210  -0.0036  -0.0029   0.0584
     0.0616   0.0618   0.0638   0.0901   0.2966   0.3016   0.6409   0.6410
     0.7150   0.7197   0.8668   0.8939   0.9221   1.0524   1.0533   1.4310
     1.4985   1.4987   1.7327   1.7331   1.7882   2.0961   2.1017   2.1318
     2.1323   2.1694   2.1738   2.3251   2.3261   2.5005   2.5007   2.5100
     2.6538   2.6602   2.7032   2.9136   3.2794   3.2801   3.3206   3.3229
     3.3287   3.3308   3.6564   3.6568   3.9893   3.9932   4.0594   4.3253
     4.4533   4.4563   4.6453   4.6466   4.7437   4.7453   4.8233   4.9825
     4.9860   5.0780   5.0792   5.3694   5.4277   5.4340   5.5046   5.6162
     5.6528   5.7709   5.7726   5.7758   5.7767   5.9192   5.9237   5.9768
     6.1780   6.3911   6.5070   6.5983   6.6018   6.6037   6.6057   6.6152
     6.7568   6.8159   6.8210   6.8220   6.9384   7.1023   7.1619   7.1675
     7.2791   7.3111   7.3539

          k = 0.0000-0.2887 0.1111 (136898 PWs)   bands (ev):

   -18.8151  -6.6196  -6.4510  -5.6564  -5.3682  -5.3026  -5.3022  -4.7457
    -4.7454  -4.6330  -4.5962  -4.4464  -4.3755  -4.3436  -4.3432  -4.2964
    -4.2257  -4.2256  -4.0885  -4.0462  -4.0461  -4.0252  -4.0246  -4.0237
    -3.9028  -3.9026  -3.8238  -3.8123  -3.8107  -3.8106  -3.7902  -3.7900
    -3.7250  -3.6685  -3.6684  -3.6561  -3.6458  -3.6456  -3.6344  -3.6343
    -3.6262  -3.5788  -3.5787  -3.5691  -3.5689  -3.5573  -3.5569  -3.5257
    -3.5219  -3.5217  -3.4865  -3.4859  -3.4681  -3.4679  -3.4482  -3.4055
    -3.4053  -3.3443  -3.3442  -3.3230  -3.3220  -3.3054  -3.2321  -3.2319
    -3.2235  -3.2231  -3.2068  -3.2061  -3.1828  -3.1826  -3.0323  -3.0313
    -3.0142  -3.0127  -3.0086  -2.9744  -2.9696  -2.9661  -2.9646  -2.9288
    -2.9087  -2.9034  -2.8897  -2.8871  -2.8499  -2.8274  -2.8266  -2.8045
    -2.7973  -2.7960  -2.7523  -2.7514  -2.7333  -2.7316  -2.7280  -2.7260
    -2.7025  -2.7018  -2.6578  -2.6574  -2.6516  -2.6505  -2.6361  -2.5881
    -2.5874  -2.5640  -2.5562  -2.5548  -2.4767  -2.4762  -2.4462  -2.4457
    -2.4393  -2.4298  -2.4084  -2.3811  -2.3809  -2.3636  -2.3603  -2.3563
    -2.3561  -2.3438  -2.3350  -2.3339  -2.3259  -2.3255  -2.3182  -2.3173
    -2.2660  -2.2399  -2.2208  -2.2170  -2.2168  -2.2010  -2.2003  -2.1974
    -2.1974  -2.1867  -2.1563  -2.1561  -2.1448  -2.1386  -2.1260  -2.1258
    -2.1236  -2.0979  -2.0975  -2.0876  -2.0796  -2.0787  -2.0224  -2.0113
    -1.9995  -1.9990  -1.9975  -1.9778  -1.9776  -1.9644  -1.9436  -1.9435
    -1.9388  -1.9384  -1.9269  -1.9155  -1.9153  -1.9021  -1.8861  -1.8854
    -1.8385  -1.8379  -1.8293  -1.8287  -1.8279  -1.8251  -1.8158  -1.8155
    -1.8129  -1.8119  -1.7994  -1.7950  -1.7943  -1.6805  -1.6798  -1.6514
    -1.6510  -1.6487  -1.6271  -1.6239  -1.6221  -1.6133  -1.6129  -1.5927
    -1.5924  -1.5899  -1.5862  -1.5839  -1.5494  -1.5483  -1.5479  -1.5188
    -1.5182  -1.5129  -1.5123  -1.4989  -1.4986  -1.4412  -1.4383  -1.4148
    -1.4139  -1.4056  -1.3999  -1.3776  -1.3772  -1.3722  -1.3718  -1.3693
    -1.3684  -1.3559  -1.3558  -1.3372  -1.3000  -1.2977  -1.2683  -1.2677
    -1.2579  -1.2210  -1.2188  -1.1870  -1.1860  -1.1762  -1.1755  -1.1620
    -1.1458  -1.1436  -1.1253  -1.1239  -1.0940  -1.0935  -1.0754  -1.0742
    -1.0412  -1.0410  -1.0291  -0.9758  -0.9742  -0.9709  -0.9704  -0.9511
    -0.9507  -0.9339  -0.9337  -0.9027  -0.8915  -0.8720  -0.8699  -0.8690
    -0.8421  -0.8215  -0.8189  -0.8165  -0.8125  -0.8078  -0.8029  -0.8024
    -0.7856  -0.7719  -0.7648  -0.7641  -0.7514  -0.7484  -0.7442  -0.7398
    -0.7260  -0.7089  -0.7057  -0.6811  -0.6779  -0.5974  -0.5801  -0.5794
    -0.5790  -0.5767  -0.5724  -0.5712  -0.5601  -0.5413  -0.5206  -0.5190
    -0.5148  -0.5128  -0.4965  -0.4814  -0.4796  -0.4766  -0.4615  -0.3814
    -0.3811  -0.3539  -0.3516  -0.3442  -0.3417  -0.3358  -0.3345  -0.3344
    -0.3290  -0.3262  -0.3101  -0.2780  -0.2656  -0.2469  -0.2459  -0.2381
    -0.2370  -0.2305  -0.2284  -0.2221  -0.2192  -0.2184  -0.2009  -0.1987
    -0.1975  -0.1668  -0.1656  -0.1655  -0.1483  -0.1481  -0.1256  -0.0997
    -0.0990  -0.0896  -0.0889  -0.0218  -0.0211  -0.0036  -0.0029   0.0583
     0.0615   0.0619   0.0640   0.0902   0.2954   0.3025   0.6409   0.6410
     0.7139   0.7204   0.8670   0.8950   0.9215   1.0522   1.0536   1.4311
     1.4986   1.4986   1.7328   1.7330   1.7882   2.0947   2.1030   2.1316
     2.1325   2.1685   2.1746   2.3252   2.3258   2.5004   2.5008   2.5099
     2.6525   2.6616   2.7033   2.9136   3.2796   3.2801   3.3204   3.3227
     3.3282   3.3314   3.6564   3.6566   3.9883   3.9939   4.0594   4.3254
     4.4527   4.4569   4.6421   4.6513   4.7436   4.7455   4.8232   4.9826
     4.9864   5.0778   5.0795   5.3694   5.4271   5.4343   5.5020   5.6126
     5.6515   5.7707   5.7731   5.7755   5.7767   5.9192   5.9234   5.9787
     6.1845   6.4095   6.5069   6.6008   6.6012   6.6049   6.6074   6.6201
     6.7451   6.7841   6.8194   6.8224   6.9547   7.1162   7.1582   7.1745
     7.2143   7.3130   7.3611

          k = 0.0000 0.2887 0.1111 (136898 PWs)   bands (ev):

   -18.8151  -6.6196  -6.4510  -5.6564  -5.3682  -5.3026  -5.3022  -4.7457
    -4.7454  -4.6330  -4.5962  -4.4464  -4.3755  -4.3436  -4.3432  -4.2964
    -4.2257  -4.2255  -4.0885  -4.0462  -4.0461  -4.0252  -4.0246  -4.0237
    -3.9028  -3.9026  -3.8238  -3.8124  -3.8107  -3.8106  -3.7902  -3.7900
    -3.7250  -3.6685  -3.6684  -3.6561  -3.6458  -3.6456  -3.6344  -3.6343
    -3.6262  -3.5788  -3.5787  -3.5691  -3.5689  -3.5573  -3.5569  -3.5257
    -3.5219  -3.5217  -3.4865  -3.4859  -3.4681  -3.4679  -3.4482  -3.4055
    -3.4053  -3.3443  -3.3442  -3.3230  -3.3220  -3.3054  -3.2321  -3.2319
    -3.2235  -3.2231  -3.2068  -3.2061  -3.1828  -3.1826  -3.0323  -3.0313
    -3.0142  -3.0127  -3.0086  -2.9744  -2.9696  -2.9661  -2.9646  -2.9288
    -2.9087  -2.9034  -2.8897  -2.8871  -2.8499  -2.8274  -2.8266  -2.8045
    -2.7973  -2.7960  -2.7523  -2.7514  -2.7333  -2.7316  -2.7280  -2.7260
    -2.7025  -2.7018  -2.6578  -2.6574  -2.6516  -2.6505  -2.6361  -2.5881
    -2.5874  -2.5640  -2.5562  -2.5548  -2.4767  -2.4762  -2.4462  -2.4457
    -2.4393  -2.4298  -2.4084  -2.3811  -2.3809  -2.3636  -2.3603  -2.3563
    -2.3561  -2.3437  -2.3350  -2.3339  -2.3259  -2.3255  -2.3182  -2.3173
    -2.2660  -2.2399  -2.2207  -2.2170  -2.2168  -2.2010  -2.2003  -2.1974
    -2.1974  -2.1867  -2.1563  -2.1561  -2.1448  -2.1386  -2.1260  -2.1258
    -2.1236  -2.0979  -2.0975  -2.0876  -2.0796  -2.0788  -2.0224  -2.0113
    -1.9995  -1.9990  -1.9975  -1.9778  -1.9776  -1.9644  -1.9436  -1.9435
    -1.9388  -1.9384  -1.9269  -1.9155  -1.9153  -1.9021  -1.8861  -1.8854
    -1.8385  -1.8379  -1.8293  -1.8287  -1.8279  -1.8251  -1.8158  -1.8155
    -1.8129  -1.8119  -1.7994  -1.7950  -1.7943  -1.6805  -1.6798  -1.6514
    -1.6510  -1.6487  -1.6271  -1.6239  -1.6221  -1.6133  -1.6129  -1.5927
    -1.5924  -1.5899  -1.5862  -1.5839  -1.5494  -1.5483  -1.5479  -1.5188
    -1.5182  -1.5129  -1.5123  -1.4989  -1.4986  -1.4412  -1.4383  -1.4148
    -1.4139  -1.4056  -1.3999  -1.3776  -1.3772  -1.3722  -1.3718  -1.3692
    -1.3684  -1.3559  -1.3558  -1.3372  -1.3000  -1.2977  -1.2683  -1.2677
    -1.2579  -1.2210  -1.2188  -1.1870  -1.1860  -1.1762  -1.1755  -1.1620
    -1.1458  -1.1436  -1.1253  -1.1239  -1.0940  -1.0935  -1.0754  -1.0742
    -1.0412  -1.0410  -1.0291  -0.9758  -0.9742  -0.9709  -0.9704  -0.9511
    -0.9507  -0.9339  -0.9337  -0.9027  -0.8915  -0.8720  -0.8699  -0.8690
    -0.8421  -0.8215  -0.8189  -0.8165  -0.8125  -0.8078  -0.8029  -0.8024
    -0.7856  -0.7719  -0.7648  -0.7641  -0.7514  -0.7484  -0.7442  -0.7398
    -0.7260  -0.7089  -0.7057  -0.6811  -0.6779  -0.5974  -0.5801  -0.5794
    -0.5790  -0.5767  -0.5724  -0.5712  -0.5601  -0.5413  -0.5206  -0.5190
    -0.5148  -0.5128  -0.4965  -0.4814  -0.4796  -0.4766  -0.4615  -0.3814
    -0.3811  -0.3539  -0.3516  -0.3442  -0.3417  -0.3358  -0.3345  -0.3344
    -0.3290  -0.3262  -0.3101  -0.2780  -0.2656  -0.2469  -0.2459  -0.2381
    -0.2370  -0.2305  -0.2285  -0.2221  -0.2192  -0.2184  -0.2009  -0.1987
    -0.1975  -0.1668  -0.1656  -0.1655  -0.1483  -0.1481  -0.1256  -0.0997
    -0.0991  -0.0896  -0.0889  -0.0218  -0.0211  -0.0036  -0.0029   0.0583
     0.0615   0.0619   0.0640   0.0902   0.2954   0.3025   0.6409   0.6410
     0.7139   0.7204   0.8670   0.8950   0.9215   1.0522   1.0536   1.4311
     1.4986   1.4986   1.7328   1.7330   1.7882   2.0947   2.1030   2.1316
     2.1325   2.1685   2.1746   2.3252   2.3258   2.5004   2.5008   2.5099
     2.6525   2.6616   2.7033   2.9136   3.2796   3.2801   3.3204   3.3227
     3.3282   3.3314   3.6564   3.6566   3.9883   3.9939   4.0594   4.3254
     4.4527   4.4569   4.6421   4.6514   4.7436   4.7455   4.8232   4.9826
     4.9864   5.0778   5.0795   5.3694   5.4271   5.4343   5.5020   5.6126
     5.6515   5.7707   5.7731   5.7755   5.7767   5.9192   5.9234   5.9787
     6.1850   6.4086   6.5070   6.6010   6.6012   6.6050   6.6071   6.6213
     6.7453   6.7819   6.8195   6.8224   6.9486   7.1158   7.1581   7.1751
     7.2204   7.3211   7.3729

     the Fermi energy is     1.6221 ev

!    total energy              =   -6564.20373415 Ry
     Harris-Foulkes estimate   =   -6564.20373415 Ry
     estimated scf accuracy    <          2.1E-09 Ry

     The total energy is the sum of the following terms:

     one-electron contribution =  -48540.45685169 Ry
     hartree contribution      =   24772.72426728 Ry
     xc contribution           =   -3162.27341523 Ry
     ewald contribution        =   20365.80014417 Ry
     smearing contrib. (-TS)   =       0.00212132 Ry

     convergence has been achieved in  25 iterations

     Writing output data file 4802449.save

     init_run     :    138.94s CPU    149.81s WALL (       1 calls)
     electrons    :   8163.06s CPU   8771.10s WALL (       1 calls)

     Called by init_run:
     wfcinit      :    114.97s CPU    125.01s WALL (       1 calls)
     potinit      :      5.60s CPU      5.76s WALL (       1 calls)

     Called by electrons:
     c_bands      :   7199.86s CPU   7704.20s WALL (      26 calls)
     sum_band     :    798.40s CPU    891.71s WALL (      26 calls)
     v_of_rho     :     12.06s CPU     13.49s WALL (      26 calls)
     newd         :    156.10s CPU    159.06s WALL (      26 calls)
     mix_rho      :      2.15s CPU      2.50s WALL (      26 calls)

     Called by c_bands:
     init_us_2    :     14.71s CPU     15.06s WALL (     636 calls)
     cegterg      :   7121.39s CPU   7574.55s WALL (     312 calls)

     Called by *egterg:
     h_psi        :   2719.55s CPU   3134.83s WALL (    1802 calls)
     s_psi        :    437.98s CPU    440.49s WALL (    1802 calls)
     g_psi        :      6.17s CPU      6.24s WALL (    1478 calls)
     cdiaghg      :   2299.28s CPU   2306.34s WALL (    1778 calls)

     Called by h_psi:
     add_vuspsi   :    440.37s CPU    443.17s WALL (    1802 calls)

     General routines
     calbec       :    641.46s CPU    644.07s WALL (    2114 calls)
     fft          :     21.73s CPU     23.99s WALL (     416 calls)
     ffts         :      0.82s CPU      1.12s WALL (      52 calls)
     fftw         :   1960.50s CPU   2395.27s WALL (  753890 calls)
     interpolate  :      2.48s CPU      3.13s WALL (      52 calls)
     davcio       :      0.00s CPU      6.03s WALL (      12 calls)

     Parallel routines
     fft_scatter  :   1218.72s CPU   1515.03s WALL (  754358 calls)

     PWSCF        :     2h18m CPU        2h29m WALL


   This run was terminated on:  16:43:33  13Aug2015            

=------------------------------------------------------------------------------=
   JOB DONE.
=------------------------------------------------------------------------------=
