Setting SGE environment for SCC

     Program PWSCF v.5.1.2 starts on 13Aug2015 at 14:15: 4 

     This program is part of the open-source Quantum ESPRESSO suite
     for quantum simulation of materials; please cite
         "P. Giannozzi et al., J. Phys.:Condens. Matter 21 395502 (2009);
          URL http://www.quantum-espresso.org", 
     in publications or presentations arising from this work. More details at
     http://www.quantum-espresso.org/quote

     Parallel version (MPI), running on    32 processors
     R & G space division:  proc/nbgrp/npool/nimage =      32
     Reading input from top.O1.Au50.d.3.4.phi.0.psi.180.in
Warning: card &IONS ignored
Warning: card / ignored
Warning: card &CELL ignored
Warning: card / ignored

     Current dimensions of program PWSCF are:
     Max number of different atomic species (ntypx) = 10
     Max number of k-points (npk) =  40000
     Max angular momentum in pseudopotentials (lmaxx) =  3

     Subspace diagonalization in iterative solution of the eigenvalue problem:
     a serial algorithm will be used


     Parallelization info
     --------------------
     sticks:   dense  smooth     PW     G-vecs:    dense   smooth      PW
     Min         445     223     58                96775    34191    4534
     Max         446     224     59                96790    34246    4540
     Sum       14269    7147   1867              3097177  1095093  145167


     Title: 
     top.O1.Au50.d.3.4.phi.0.psi.180                                            


     bravais-lattice index     =            4
     lattice parameter (alat)  =      22.7436  a.u.
     unit-cell volume          =   22924.1508 (a.u.)^3
     number of atoms/cell      =           67
     number of atomic types    =            3
     number of electrons       =       712.00
     number of Kohn-Sham states=          427
     kinetic-energy cutoff     =      50.0000  Ry
     charge density cutoff     =     400.0000  Ry
     convergence threshold     =      1.0E-08
     mixing beta               =       0.7000
     number of iterations used =            8  plain     mixing
     Exchange-correlation      =  SLA  PW   PBE  PBE ( 1  4  3  4 0 0)

     celldm(1)=  22.743643  celldm(2)=   0.000000  celldm(3)=   2.250000
     celldm(4)=   0.000000  celldm(5)=   0.000000  celldm(6)=   0.000000

     crystal axes: (cart. coord. in units of alat)
               a(1) = (   1.000000   0.000000   0.000000 )  
               a(2) = (  -0.500000   0.866025   0.000000 )  
               a(3) = (   0.000000   0.000000   2.250000 )  

     reciprocal axes: (cart. coord. in units 2 pi/alat)
               b(1) = (  1.000000  0.577350 -0.000000 )  
               b(2) = (  0.000000  1.154701  0.000000 )  
               b(3) = (  0.000000 -0.000000  0.444444 )  


     PseudoPot. # 1 for Au read from file:
     /home/scc/andrejb/qe/pseudo/Au.pbe-nd-van.UPF
     MD5 check sum: 458681b50f36d87ef23c61b04bba420a
     Pseudo is Ultrasoft + core correction, Zval = 11.0
     Generated by new atomic code, or converted to UPF format
     Using radial grid of  985 points,  3 beta functions with: 
                l(1) =   1
                l(2) =   2
                l(3) =   2
     Q(r) pseudized with  8 coefficients,  rinner =    1.100   1.100   1.100
                                                       1.100   1.100

     PseudoPot. # 2 for H  read from file:
     /home/scc/andrejb/qe/pseudo/H.pbe-van_ak.UPF
     MD5 check sum: 403db7282739603aa925980fa9b8608d
     Pseudo is Ultrasoft, Zval =  1.0
     Generated by new atomic code, or converted to UPF format
     Using radial grid of  615 points,  1 beta functions with: 
                l(1) =   0
     Q(r) pseudized with  8 coefficients,  rinner =    0.800

     PseudoPot. # 3 for O  read from file:
     /home/scc/andrejb/qe/pseudo/O.pbe-van_ak.UPF
     MD5 check sum: 4b8c549914a63cae506c6ff22b5af4fe
     Pseudo is Ultrasoft, Zval =  6.0
     Generated by new atomic code, or converted to UPF format
     Using radial grid of  737 points,  4 beta functions with: 
                l(1) =   0
                l(2) =   0
                l(3) =   1
                l(4) =   1
     Q(r) pseudized with  8 coefficients,  rinner =    0.800   0.800   0.800


     atomic species   valence    mass     pseudopotential
        Au            11.00   196.96657     Au( 1.00)
        H              1.00     1.01000     H ( 1.00)
        O              6.00    16.00000     O ( 1.00)

     No symmetry found



   Cartesian axes

     site n.     atom                  positions (alat units)
         1           O   tau(   1) = (   0.4790780   0.3968269   0.8954964  )
         2           H   tau(   2) = (   0.4291446   0.4383745   0.8472428  )
         3           H   tau(   3) = (   0.5274974   0.3565200   0.8447357  )
         4           Au  tau(   4) = (   0.3540481   0.6132292   0.0000000  )
         5           Au  tau(   5) = (   0.4790062   0.3967954   0.0000000  )
         6           Au  tau(   6) = (   0.6039644   0.1803616   0.0000000  )
         7           Au  tau(   7) = (   0.7289225  -0.0360723   0.0000000  )
         8           Au  tau(   8) = (   0.1041318   0.6132292   0.0000000  )
         9           Au  tau(   9) = (   0.2290899   0.3967954   0.0000000  )
        10           Au  tau(  10) = (   0.3540481   0.1803616   0.0000000  )
        11           Au  tau(  11) = (   0.4790062  -0.0360723   0.0000000  )
        12           Au  tau(  12) = (  -0.1457845   0.6132292   0.0000000  )
        13           Au  tau(  13) = (  -0.0208264   0.3967954   0.0000000  )
        14           Au  tau(  14) = (   0.1041318   0.1803616   0.0000000  )
        15           Au  tau(  15) = (   0.2290899  -0.0360723   0.0000000  )
        16           Au  tau(  16) = (  -0.3957008   0.6132292   0.0000000  )
        17           Au  tau(  17) = (  -0.2707426   0.3967954   0.0000000  )
        18           Au  tau(  18) = (  -0.1457845   0.1803616   0.0000000  )
        19           Au  tau(  19) = (  -0.0208264  -0.0360723   0.0000000  )
        20           Au  tau(  20) = (   0.4790062   0.6853738   0.2040557  )
        21           Au  tau(  21) = (   0.6039644   0.4689400   0.2040557  )
        22           Au  tau(  22) = (   0.7289225   0.2525062   0.2040557  )
        23           Au  tau(  23) = (   0.8538806   0.0360723   0.2040557  )
        24           Au  tau(  24) = (   0.2290899   0.6853738   0.2040557  )
        25           Au  tau(  25) = (   0.3540481   0.4689400   0.2040557  )
        26           Au  tau(  26) = (   0.4790062   0.2525062   0.2040557  )
        27           Au  tau(  27) = (   0.6039644   0.0360723   0.2040557  )
        28           Au  tau(  28) = (  -0.0208264   0.6853738   0.2040557  )
        29           Au  tau(  29) = (   0.1041318   0.4689400   0.2040557  )
        30           Au  tau(  30) = (   0.2290899   0.2525062   0.2040557  )
        31           Au  tau(  31) = (   0.3540481   0.0360723   0.2040557  )
        32           Au  tau(  32) = (  -0.2707426   0.6853738   0.2040557  )
        33           Au  tau(  33) = (  -0.1457845   0.4689400   0.2040557  )
        34           Au  tau(  34) = (  -0.0208264   0.2525062   0.2040557  )
        35           Au  tau(  35) = (   0.1041318   0.0360723   0.2040557  )
        36           Au  tau(  36) = (   0.3541162   0.7576593   0.4066483  )
        37           Au  tau(  37) = (   0.4791000   0.5411421   0.4066696  )
        38           Au  tau(  38) = (   0.6040570   0.3246862   0.4066618  )
        39           Au  tau(  39) = (   0.7290270   0.1081684   0.4066530  )
        40           Au  tau(  40) = (   0.1041162   0.7576236   0.4066247  )
        41           Au  tau(  41) = (   0.2291001   0.5411062   0.4066455  )
        42           Au  tau(  42) = (   0.3540567   0.3246505   0.4066380  )
        43           Au  tau(  43) = (   0.4790276   0.1081324   0.4066292  )
        44           Au  tau(  44) = (  -0.1458201   0.7576104   0.4066225  )
        45           Au  tau(  45) = (  -0.0208365   0.5410930   0.4066438  )
        46           Au  tau(  46) = (   0.1041202   0.3246372   0.4066359  )
        47           Au  tau(  47) = (   0.2290908   0.1081193   0.4066273  )
        48           Au  tau(  48) = (  -0.3958167   0.7575791   0.4065812  )
        49           Au  tau(  49) = (  -0.2708328   0.5410617   0.4066025  )
        50           Au  tau(  50) = (  -0.1458763   0.3246061   0.4065947  )
        51           Au  tau(  51) = (  -0.0209056   0.1080882   0.4065858  )
        52           Au  tau(  52) = (   0.3541084   0.6133344   0.6129762  )
        53           Au  tau(  53) = (   0.4790780   0.3968269   0.6129968  )
        54           Au  tau(  54) = (   0.6040356   0.1803811   0.6129859  )
        55           Au  tau(  55) = (   0.7290165  -0.0361221   0.6129385  )
        56           Au  tau(  56) = (   0.1041243   0.6133091   0.6130023  )
        57           Au  tau(  57) = (   0.2290941   0.3968013   0.6130241  )
        58           Au  tau(  58) = (   0.3540515   0.1803552   0.6130121  )
        59           Au  tau(  59) = (   0.4790323  -0.0361475   0.6129659  )
        60           Au  tau(  60) = (  -0.1458030   0.6133014   0.6129980  )
        61           Au  tau(  61) = (  -0.0208339   0.3967936   0.6130189  )
        62           Au  tau(  62) = (   0.1041239   0.1803477   0.6130083  )
        63           Au  tau(  63) = (   0.2291046  -0.0361554   0.6129607  )
        64           Au  tau(  64) = (  -0.3957908   0.6132739   0.6129471  )
        65           Au  tau(  65) = (  -0.2708208   0.3967658   0.6129688  )
        66           Au  tau(  66) = (  -0.1458636   0.1803200   0.6129569  )
        67           Au  tau(  67) = (  -0.0208823  -0.0361826   0.6129110  )

     number of k points=    12  Marzari-Vanderbilt smearing, width (Ry)=  0.0200
                       cart. coord. in units 2pi/alat
        k(    1) = (   0.2500000   0.4330127   0.1111111), wk =   0.1666667
        k(    2) = (   0.2500000  -0.1443376   0.1111111), wk =   0.1666667
        k(    3) = (  -0.2500000  -0.4330127   0.1111111), wk =   0.1666667
        k(    4) = (  -0.2500000   0.4330127  -0.1111111), wk =   0.1666667
        k(    5) = (   0.2500000  -0.4330127  -0.1111111), wk =   0.1666667
        k(    6) = (   0.5000000   0.0000000   0.1111111), wk =   0.1666667
        k(    7) = (  -0.5000000   0.0000000   0.1111111), wk =   0.1666667
        k(    8) = (  -0.2500000   0.1443376   0.1111111), wk =   0.1666667
        k(    9) = (  -0.2500000  -0.1443376  -0.1111111), wk =   0.1666667
        k(   10) = (   0.2500000   0.1443376  -0.1111111), wk =   0.1666667
        k(   11) = (   0.0000000  -0.2886751   0.1111111), wk =   0.1666667
        k(   12) = (   0.0000000   0.2886751   0.1111111), wk =   0.1666667

     Dense  grid:  3097177 G-vectors     FFT dimensions: ( 150, 150, 360)

     Smooth grid:  1095093 G-vectors     FFT dimensions: ( 108, 108, 240)

     Largest allocated arrays     est. size (Mb)     dimensions
        Kohn-Sham Wavefunctions        28.01 Mb     (    4299,  427)
        NL pseudopotentials            55.23 Mb     (    4299,  842)
        Each V/rho on FFT grid          4.12 Mb     (  270000)
        Each G-vector array             0.74 Mb     (   96788)
        G-vector shells                 0.16 Mb     (   21404)
     Largest temporary arrays     est. size (Mb)     dimensions
        Auxiliary wavefunctions       112.04 Mb     (    4299, 1708)
        Each subspace H/S matrix       44.51 Mb     (    1708, 1708)
        Each <psi_i|beta_j> matrix      5.49 Mb     (     842,  427)
        Arrays for rho mixing          32.96 Mb     (  270000,    8)

     Initial potential from superposition of free atoms
     Check: negative starting charge=   -1.730359

     starting charge  711.25682, renormalised to  712.00000

     negative rho (up, down):  1.732E+00 0.000E+00
     Starting wfc are  582 randomized atomic wfcs

     total cpu time spent up to now is      178.7 secs

     Self-consistent Calculation

     iteration #  1     ecut=    50.00 Ry     beta=0.70
     Davidson diagonalization with overlap
     ethr =  1.00E-02,  avg # of iterations =  3.0

     Threshold (ethr) on eigenvalues was too large:
     Diagonalizing with lowered threshold

     Davidson diagonalization with overlap
     ethr =  4.22E-04,  avg # of iterations =  3.1

     negative rho (up, down):  1.713E+00 0.000E+00

     total cpu time spent up to now is      848.5 secs

     total energy              =   -6562.27203138 Ry
     Harris-Foulkes estimate   =   -6564.97027298 Ry
     estimated scf accuracy    <       3.48502299 Ry

     iteration #  2     ecut=    50.00 Ry     beta=0.70
     Davidson diagonalization with overlap
     ethr =  4.89E-04,  avg # of iterations = 11.5

     negative rho (up, down):  1.714E+00 0.000E+00

     total cpu time spent up to now is     1923.3 secs

     total energy              =   -6555.37411876 Ry
     Harris-Foulkes estimate   =   -6570.67942670 Ry
     estimated scf accuracy    <      85.44524779 Ry

     iteration #  3     ecut=    50.00 Ry     beta=0.70
     Davidson diagonalization with overlap
     ethr =  4.89E-04,  avg # of iterations =  5.9

     negative rho (up, down):  1.729E+00 0.000E+00

     total cpu time spent up to now is     2616.4 secs

     total energy              =   -6562.53436991 Ry
     Harris-Foulkes estimate   =   -6565.00926989 Ry
     estimated scf accuracy    <      11.00332489 Ry

     iteration #  4     ecut=    50.00 Ry     beta=0.70
     Davidson diagonalization with overlap
     ethr =  4.89E-04,  avg # of iterations =  7.9

     negative rho (up, down):  1.732E+00 0.000E+00

     total cpu time spent up to now is     3062.7 secs

     total energy              =   -6562.49085361 Ry
     Harris-Foulkes estimate   =   -6565.52412569 Ry
     estimated scf accuracy    <      32.40452655 Ry

     iteration #  5     ecut=    50.00 Ry     beta=0.70
     Davidson diagonalization with overlap
     ethr =  4.89E-04,  avg # of iterations =  5.7

     negative rho (up, down):  1.744E+00 0.000E+00

     total cpu time spent up to now is     3453.0 secs

     total energy              =   -6564.07916394 Ry
     Harris-Foulkes estimate   =   -6564.46671218 Ry
     estimated scf accuracy    <       2.43967921 Ry

     iteration #  6     ecut=    50.00 Ry     beta=0.70
     Davidson diagonalization with overlap
     ethr =  3.43E-04,  avg # of iterations =  3.8

     negative rho (up, down):  1.749E+00 0.000E+00

     total cpu time spent up to now is     3774.7 secs

     total energy              =   -6564.19778141 Ry
     Harris-Foulkes estimate   =   -6564.25019163 Ry
     estimated scf accuracy    <       0.16510332 Ry

     iteration #  7     ecut=    50.00 Ry     beta=0.70
     Davidson diagonalization with overlap
     ethr =  2.32E-05,  avg # of iterations =  9.6

     negative rho (up, down):  1.751E+00 0.000E+00

     total cpu time spent up to now is     4249.0 secs

     total energy              =   -6564.20387287 Ry
     Harris-Foulkes estimate   =   -6564.23584022 Ry
     estimated scf accuracy    <       0.13929686 Ry

     iteration #  8     ecut=    50.00 Ry     beta=0.70
     Davidson diagonalization with overlap
     ethr =  1.96E-05,  avg # of iterations =  3.6

     negative rho (up, down):  1.752E+00 0.000E+00

     total cpu time spent up to now is     4625.1 secs

     total energy              =   -6564.20524423 Ry
     Harris-Foulkes estimate   =   -6564.22210620 Ry
     estimated scf accuracy    <       0.06190579 Ry

     iteration #  9     ecut=    50.00 Ry     beta=0.70
     Davidson diagonalization with overlap
     ethr =  8.69E-06,  avg # of iterations =  5.3

     negative rho (up, down):  1.753E+00 0.000E+00

     total cpu time spent up to now is     4982.1 secs

     total energy              =   -6564.20470025 Ry
     Harris-Foulkes estimate   =   -6564.21217274 Ry
     estimated scf accuracy    <       0.02542719 Ry

     iteration # 10     ecut=    50.00 Ry     beta=0.70
     Davidson diagonalization with overlap
     ethr =  3.57E-06,  avg # of iterations =  8.5

     negative rho (up, down):  1.754E+00 0.000E+00

     total cpu time spent up to now is     5409.6 secs

     total energy              =   -6564.20369642 Ry
     Harris-Foulkes estimate   =   -6564.20767345 Ry
     estimated scf accuracy    <       0.01426892 Ry

     iteration # 11     ecut=    50.00 Ry     beta=0.70
     Davidson diagonalization with overlap
     ethr =  2.00E-06,  avg # of iterations =  6.3

     negative rho (up, down):  1.755E+00 0.000E+00

     total cpu time spent up to now is     5794.3 secs

     total energy              =   -6564.20347382 Ry
     Harris-Foulkes estimate   =   -6564.20555146 Ry
     estimated scf accuracy    <       0.00789290 Ry

     iteration # 12     ecut=    50.00 Ry     beta=0.70
     Davidson diagonalization with overlap
     ethr =  1.11E-06,  avg # of iterations =  3.6

     negative rho (up, down):  1.755E+00 0.000E+00

     total cpu time spent up to now is     6133.8 secs

     total energy              =   -6564.20371630 Ry
     Harris-Foulkes estimate   =   -6564.20428500 Ry
     estimated scf accuracy    <       0.00109953 Ry

     iteration # 13     ecut=    50.00 Ry     beta=0.70
     Davidson diagonalization with overlap
     ethr =  1.54E-07,  avg # of iterations =  4.8

     negative rho (up, down):  1.755E+00 0.000E+00

     total cpu time spent up to now is     6526.4 secs

     total energy              =   -6564.20381607 Ry
     Harris-Foulkes estimate   =   -6564.20407060 Ry
     estimated scf accuracy    <       0.00086799 Ry

     iteration # 14     ecut=    50.00 Ry     beta=0.70
     Davidson diagonalization with overlap
     ethr =  1.22E-07,  avg # of iterations =  2.0

     negative rho (up, down):  1.755E+00 0.000E+00

     total cpu time spent up to now is     6827.8 secs

     total energy              =   -6564.20389748 Ry
     Harris-Foulkes estimate   =   -6564.20402014 Ry
     estimated scf accuracy    <       0.00074037 Ry

     iteration # 15     ecut=    50.00 Ry     beta=0.70
     Davidson diagonalization with overlap
     ethr =  1.04E-07,  avg # of iterations =  2.0

     negative rho (up, down):  1.754E+00 0.000E+00

     total cpu time spent up to now is     7132.9 secs

     total energy              =   -6564.20395940 Ry
     Harris-Foulkes estimate   =   -6564.20397104 Ry
     estimated scf accuracy    <       0.00008634 Ry

     iteration # 16     ecut=    50.00 Ry     beta=0.70
     Davidson diagonalization with overlap
     ethr =  1.21E-08,  avg # of iterations =  2.0

     negative rho (up, down):  1.754E+00 0.000E+00

     total cpu time spent up to now is     7424.9 secs

     total energy              =   -6564.20396258 Ry
     Harris-Foulkes estimate   =   -6564.20396849 Ry
     estimated scf accuracy    <       0.00001511 Ry

     iteration # 17     ecut=    50.00 Ry     beta=0.70
     Davidson diagonalization with overlap
     ethr =  2.12E-09,  avg # of iterations =  2.3

     negative rho (up, down):  1.754E+00 0.000E+00

     total cpu time spent up to now is     7751.8 secs

     total energy              =   -6564.20396346 Ry
     Harris-Foulkes estimate   =   -6564.20396958 Ry
     estimated scf accuracy    <       0.00003550 Ry

     iteration # 18     ecut=    50.00 Ry     beta=0.70
     Davidson diagonalization with overlap
     ethr =  2.12E-09,  avg # of iterations =  2.0

     negative rho (up, down):  1.754E+00 0.000E+00

     total cpu time spent up to now is     8078.0 secs

     total energy              =   -6564.20396479 Ry
     Harris-Foulkes estimate   =   -6564.20396853 Ry
     estimated scf accuracy    <       0.00001837 Ry

     iteration # 19     ecut=    50.00 Ry     beta=0.70
     Davidson diagonalization with overlap
     ethr =  2.12E-09,  avg # of iterations =  2.0

     negative rho (up, down):  1.754E+00 0.000E+00

     total cpu time spent up to now is     8364.1 secs

     total energy              =   -6564.20396654 Ry
     Harris-Foulkes estimate   =   -6564.20396677 Ry
     estimated scf accuracy    <       0.00000065 Ry

     iteration # 20     ecut=    50.00 Ry     beta=0.70
     Davidson diagonalization with overlap
     ethr =  9.13E-11,  avg # of iterations =  3.0

     negative rho (up, down):  1.754E+00 0.000E+00

     total cpu time spent up to now is     8765.1 secs

     total energy              =   -6564.20396664 Ry
     Harris-Foulkes estimate   =   -6564.20396682 Ry
     estimated scf accuracy    <       0.00000077 Ry

     iteration # 21     ecut=    50.00 Ry     beta=0.70
     Davidson diagonalization with overlap
     ethr =  9.13E-11,  avg # of iterations =  2.0

     negative rho (up, down):  1.754E+00 0.000E+00

     total cpu time spent up to now is     9080.7 secs

     total energy              =   -6564.20396671 Ry
     Harris-Foulkes estimate   =   -6564.20396676 Ry
     estimated scf accuracy    <       0.00000022 Ry

     iteration # 22     ecut=    50.00 Ry     beta=0.70
     Davidson diagonalization with overlap
     ethr =  3.13E-11,  avg # of iterations =  2.0

     negative rho (up, down):  1.754E+00 0.000E+00

     total cpu time spent up to now is     9368.1 secs

     total energy              =   -6564.20396673 Ry
     Harris-Foulkes estimate   =   -6564.20396675 Ry
     estimated scf accuracy    <       0.00000003 Ry

     iteration # 23     ecut=    50.00 Ry     beta=0.70
     Davidson diagonalization with overlap
     ethr =  4.27E-12,  avg # of iterations =  3.0

     negative rho (up, down):  1.754E+00 0.000E+00

     total cpu time spent up to now is     9771.3 secs

     total energy              =   -6564.20396673 Ry
     Harris-Foulkes estimate   =   -6564.20396675 Ry
     estimated scf accuracy    <       0.00000005 Ry

     iteration # 24     ecut=    50.00 Ry     beta=0.70
     Davidson diagonalization with overlap
     ethr =  4.27E-12,  avg # of iterations =  2.0

     negative rho (up, down):  1.754E+00 0.000E+00

     total cpu time spent up to now is    10103.9 secs

     total energy              =   -6564.20396674 Ry
     Harris-Foulkes estimate   =   -6564.20396674 Ry
     estimated scf accuracy    <       0.00000001 Ry

     iteration # 25     ecut=    50.00 Ry     beta=0.70
     Davidson diagonalization with overlap
     ethr =  1.96E-12,  avg # of iterations =  2.0

     negative rho (up, down):  1.754E+00 0.000E+00

     total cpu time spent up to now is    10392.4 secs

     total energy              =   -6564.20396674 Ry
     Harris-Foulkes estimate   =   -6564.20396674 Ry
     estimated scf accuracy    <       0.00000001 Ry

     iteration # 26     ecut=    50.00 Ry     beta=0.70
     Davidson diagonalization with overlap
     ethr =  1.45E-12,  avg # of iterations =  1.0

     negative rho (up, down):  1.754E+00 0.000E+00

     total cpu time spent up to now is    10665.8 secs

     End of self-consistent calculation

          k = 0.2500 0.4330 0.1111 (136853 PWs)   bands (ev):

   -18.3860  -6.4992  -6.2079  -6.0993  -6.0981  -5.4231  -5.0749  -5.0746
    -5.0498  -5.0465  -4.6271  -4.6267  -4.5451  -4.5058  -4.5011  -4.5009
    -4.4601  -4.3431  -4.3422  -4.2977  -4.2516  -4.2514  -4.2495  -4.2484
    -4.2005  -4.1998  -4.1712  -4.1702  -4.1503  -4.1346  -4.1301  -4.0534
    -4.0531  -4.0347  -4.0343  -3.9912  -3.9906  -3.9901  -3.9691  -3.9690
    -3.9659  -3.8916  -3.8913  -3.8298  -3.8293  -3.8133  -3.8128  -3.7520
    -3.7505  -3.7219  -3.7217  -3.6838  -3.6702  -3.6697  -3.6498  -3.6491
    -3.6471  -3.6457  -3.6402  -3.6198  -3.5609  -3.5539  -3.5535  -3.5323
    -3.4989  -3.4710  -3.4700  -3.4163  -3.4145  -3.3900  -3.3892  -3.3618
    -3.3355  -3.2991  -3.2986  -3.2620  -3.2616  -3.2249  -3.2205  -3.2203
    -3.1787  -3.1485  -3.1467  -3.1263  -3.1254  -3.1210  -3.1203  -3.1181
    -3.1176  -3.1109  -3.0562  -2.9980  -2.9966  -2.9958  -2.9953  -2.9904
    -2.9695  -2.9691  -2.9550  -2.8790  -2.8749  -2.8738  -2.8668  -2.8204
    -2.8138  -2.8128  -2.7925  -2.7920  -2.7414  -2.7242  -2.7227  -2.7188
    -2.6811  -2.6778  -2.6770  -2.6399  -2.6355  -2.5917  -2.5830  -2.5570
    -2.5562  -2.5536  -2.5443  -2.5309  -2.5265  -2.5230  -2.5180  -2.5147
    -2.4829  -2.4487  -2.4471  -2.4400  -2.4396  -2.4373  -2.4369  -2.4360
    -2.4335  -2.4195  -2.4018  -2.4011  -2.4003  -2.3976  -2.3922  -2.3855
    -2.3806  -2.3786  -2.3524  -2.3506  -2.3495  -2.3276  -2.3255  -2.3087
    -2.3077  -2.2817  -2.2808  -2.2803  -2.2760  -2.2737  -2.2726  -2.2721
    -2.2697  -2.2571  -2.2545  -2.2398  -2.2365  -2.2349  -2.1553  -2.1547
    -2.1404  -2.1397  -2.1218  -2.1198  -2.1000  -2.0878  -2.0863  -2.0670
    -2.0499  -2.0468  -2.0431  -2.0394  -2.0145  -2.0129  -2.0093  -2.0081
    -2.0025  -1.9880  -1.9650  -1.9335  -1.9146  -1.9130  -1.8968  -1.8896
    -1.8877  -1.8293  -1.8288  -1.8168  -1.8149  -1.7479  -1.7469  -1.7056
    -1.6877  -1.6852  -1.6543  -1.6541  -1.6277  -1.6263  -1.6085  -1.6065
    -1.6047  -1.6037  -1.5887  -1.5497  -1.5469  -1.5463  -1.5431  -1.5397
    -1.5373  -1.5101  -1.5081  -1.5070  -1.4730  -1.4634  -1.4605  -1.4562
    -1.4553  -1.4478  -1.4324  -1.4050  -1.4047  -1.4007  -1.3988  -1.3810
    -1.3767  -1.3350  -1.3224  -1.3204  -1.3186  -1.2969  -1.2958  -1.2505
    -1.2159  -1.1674  -1.1649  -1.1637  -1.1627  -1.1592  -1.1562  -1.1554
    -1.1446  -1.1429  -1.0943  -1.0922  -1.0767  -1.0760  -1.0599  -1.0475
    -1.0467  -1.0355  -1.0322  -1.0313  -1.0301  -1.0296  -0.9855  -0.9850
    -0.9747  -0.9727  -0.9725  -0.9582  -0.9571  -0.9259  -0.9184  -0.9165
    -0.8902  -0.8701  -0.8689  -0.8276  -0.8247  -0.8124  -0.8121  -0.8035
    -0.8030  -0.7959  -0.7951  -0.7916  -0.7910  -0.7628  -0.7623  -0.7517
    -0.7515  -0.7403  -0.7274  -0.7251  -0.7095  -0.7092  -0.6847  -0.6759
    -0.6746  -0.6618  -0.6103  -0.6088  -0.6085  -0.6044  -0.5974  -0.5958
    -0.5948  -0.5747  -0.5742  -0.5626  -0.5620  -0.5595  -0.5590  -0.5177
    -0.5163  -0.5152  -0.5084  -0.5076  -0.5011  -0.5000  -0.4952  -0.4863
    -0.4800  -0.4793  -0.4479  -0.4476  -0.4395  -0.4268  -0.4252  -0.3784
    -0.3726  -0.3587  -0.3435  -0.3430  -0.3347  -0.3341  -0.3016  -0.2914
    -0.2911  -0.2722  -0.2709  -0.2649  -0.1918  -0.1890  -0.0797   0.3204
     0.3209   0.3461   0.3466   0.4087   0.4127   0.7568   0.7596   0.7725
     0.7736   0.9470   1.0115   1.1020   1.1031   1.3638   1.3651   1.9438
     1.9466   2.0752   2.0776   2.2858   2.2896   2.3571   2.3573   2.4454
     2.7237   2.7347   2.9021   3.1153   3.1200   3.1496   3.1510   3.2144
     3.3142   3.4786   3.4900   3.5213   3.7645   3.7655   3.8380   3.8395
     4.0825   4.0836   4.1139   4.3024   4.3050   4.3658   4.4498   4.7394
     4.7754   4.7798   4.9691   5.0593   5.0601   5.1793   5.1858   5.7882
     5.8437   5.8560   5.9192   5.9303   5.9465   6.0067   6.0722   6.0806
     6.0871   6.0965   6.1501   6.1551   6.1580   6.1720   6.2624   6.2943
     6.6288   6.7369   6.8008   6.8083   6.9340   6.9394   6.9864   7.0227
     7.0317   7.0344   7.0956

          k = 0.2500-0.1443 0.1111 (136898 PWs)   bands (ev):

   -18.3860  -6.7092  -6.2077  -5.9145  -5.6270  -5.5609  -5.5602  -5.0040
    -5.0034  -4.8916  -4.8542  -4.7048  -4.6347  -4.6035  -4.6006  -4.5542
    -4.4838  -4.4837  -4.3466  -4.3042  -4.3041  -4.2851  -4.2825  -4.2811
    -4.1609  -4.1607  -4.0818  -4.0705  -4.0688  -4.0686  -4.0483  -4.0481
    -3.9841  -3.9265  -3.9265  -3.9143  -3.9041  -3.9034  -3.8932  -3.8918
    -3.8842  -3.8375  -3.8367  -3.8273  -3.8270  -3.8149  -3.8148  -3.7851
    -3.7801  -3.7797  -3.7469  -3.7459  -3.7280  -3.7252  -3.7062  -3.6634
    -3.6634  -3.6027  -3.6022  -3.5820  -3.5798  -3.5641  -3.4903  -3.4898
    -3.4822  -3.4807  -3.4650  -3.4645  -3.4414  -3.4408  -3.2901  -3.2885
    -3.2718  -3.2717  -3.2670  -3.2288  -3.2274  -3.2234  -3.2230  -3.1676
    -3.1666  -3.1485  -3.1474  -3.1098  -3.0867  -3.0863  -3.0641  -3.0562
    -3.0550  -3.0118  -3.0105  -2.9937  -2.9906  -2.9871  -2.9855  -2.9617
    -2.9607  -2.9175  -2.9165  -2.9117  -2.9099  -2.8953  -2.8481  -2.8462
    -2.8244  -2.8166  -2.8138  -2.7363  -2.7353  -2.7071  -2.7043  -2.6978
    -2.6912  -2.6685  -2.6400  -2.6395  -2.6302  -2.6207  -2.6183  -2.6152
    -2.6039  -2.5972  -2.5923  -2.5884  -2.5841  -2.5810  -2.5757  -2.5430
    -2.5237  -2.4942  -2.4791  -2.4753  -2.4752  -2.4584  -2.4583  -2.4565
    -2.4514  -2.4433  -2.4145  -2.4123  -2.4027  -2.3922  -2.3844  -2.3843
    -2.3822  -2.3569  -2.3553  -2.3439  -2.3373  -2.3353  -2.2786  -2.2692
    -2.2577  -2.2569  -2.2550  -2.2367  -2.2357  -2.2223  -2.2019  -2.2018
    -2.1971  -2.1961  -2.1857  -2.1741  -2.1738  -2.1597  -2.1458  -2.1439
    -2.0969  -2.0964  -2.0889  -2.0880  -2.0864  -2.0841  -2.0746  -2.0737
    -2.0708  -2.0689  -2.0574  -2.0536  -2.0529  -1.9396  -1.9387  -1.9099
    -1.9080  -1.9069  -1.8850  -1.8815  -1.8795  -1.8713  -1.8707  -1.8505
    -1.8501  -1.8463  -1.8449  -1.8387  -1.8076  -1.8068  -1.8061  -1.7771
    -1.7759  -1.7710  -1.7706  -1.7586  -1.7575  -1.6993  -1.6970  -1.6727
    -1.6724  -1.6642  -1.6587  -1.6362  -1.6354  -1.6307  -1.6300  -1.6278
    -1.6271  -1.6145  -1.6144  -1.5950  -1.5576  -1.5543  -1.5277  -1.5268
    -1.5151  -1.4780  -1.4772  -1.4454  -1.4443  -1.4340  -1.4337  -1.4207
    -1.4044  -1.4002  -1.3828  -1.3827  -1.3525  -1.3517  -1.3333  -1.3322
    -1.3005  -1.2993  -1.2872  -1.2346  -1.2332  -1.2295  -1.2280  -1.2097
    -1.2093  -1.1924  -1.1920  -1.1615  -1.1501  -1.1296  -1.1277  -1.1277
    -1.0932  -1.0774  -1.0759  -1.0748  -1.0664  -1.0661  -1.0606  -1.0605
    -1.0301  -1.0242  -1.0235  -1.0099  -1.0080  -1.0035  -1.0024  -0.9849
    -0.9671  -0.9661  -0.9391  -0.9375  -0.8559  -0.8392  -0.8380  -0.8364
    -0.8353  -0.8310  -0.8297  -0.8196  -0.8011  -0.7798  -0.7778  -0.7734
    -0.7731  -0.7553  -0.7403  -0.7393  -0.7349  -0.7202  -0.6400  -0.6397
    -0.6113  -0.6108  -0.6022  -0.6005  -0.5946  -0.5930  -0.5925  -0.5877
    -0.5855  -0.5679  -0.5364  -0.5237  -0.5055  -0.5050  -0.4961  -0.4955
    -0.4891  -0.4875  -0.4808  -0.4776  -0.4769  -0.4595  -0.4564  -0.4562
    -0.4249  -0.4245  -0.4242  -0.4066  -0.4065  -0.3842  -0.3638  -0.3577
    -0.3554  -0.3477  -0.3453  -0.2797  -0.2793  -0.2616  -0.2613  -0.1987
    -0.1971  -0.1966  -0.1939  -0.1706   0.0408   0.0455   0.3826   0.3828
     0.4580   0.4624   0.6084   0.6390   0.6636   0.7932   0.7951   1.1718
     1.2403   1.2406   1.4744   1.4750   1.5313   1.8380   1.8465   1.8732
     1.8740   1.9099   1.9152   2.0666   2.0679   2.2419   2.2429   2.2551
     2.3956   2.4028   2.4437   2.6554   3.0198   3.0223   3.0618   3.0639
     3.0688   3.0722   3.3977   3.3985   3.7282   3.7372   3.8068   4.0667
     4.1929   4.1992   4.3784   4.4107   4.4850   4.4859   4.5642   4.7241
     4.7269   4.8180   4.8210   5.1107   5.1688   5.1733   5.3465   5.3829
     5.5100   5.5154   5.5171   5.5186   5.6585   5.6629   5.7277   5.8637
     6.2474   6.3371   6.3432   6.3449   6.3513   6.3694   6.4566   6.5518
     6.5652   6.6384   6.7265   6.8393   6.9004   6.9262   7.1484   7.1855
     7.2320   7.2380   7.2817

          k =-0.2500-0.4330 0.1111 (136853 PWs)   bands (ev):

   -18.3860  -6.4992  -6.2079  -6.0993  -6.0981  -5.4231  -5.0749  -5.0746
    -5.0498  -5.0465  -4.6271  -4.6267  -4.5451  -4.5058  -4.5011  -4.5009
    -4.4601  -4.3431  -4.3422  -4.2977  -4.2516  -4.2514  -4.2495  -4.2484
    -4.2005  -4.1998  -4.1712  -4.1702  -4.1503  -4.1346  -4.1301  -4.0534
    -4.0531  -4.0347  -4.0343  -3.9912  -3.9906  -3.9901  -3.9691  -3.9690
    -3.9659  -3.8916  -3.8913  -3.8298  -3.8293  -3.8133  -3.8128  -3.7520
    -3.7505  -3.7219  -3.7217  -3.6838  -3.6702  -3.6697  -3.6498  -3.6491
    -3.6471  -3.6457  -3.6402  -3.6198  -3.5609  -3.5539  -3.5535  -3.5323
    -3.4989  -3.4710  -3.4700  -3.4163  -3.4145  -3.3900  -3.3892  -3.3618
    -3.3355  -3.2991  -3.2986  -3.2620  -3.2616  -3.2249  -3.2205  -3.2203
    -3.1787  -3.1485  -3.1467  -3.1263  -3.1254  -3.1210  -3.1203  -3.1181
    -3.1176  -3.1109  -3.0562  -2.9980  -2.9966  -2.9958  -2.9953  -2.9904
    -2.9695  -2.9691  -2.9550  -2.8790  -2.8749  -2.8738  -2.8668  -2.8204
    -2.8138  -2.8128  -2.7925  -2.7920  -2.7414  -2.7242  -2.7227  -2.7188
    -2.6811  -2.6778  -2.6770  -2.6399  -2.6355  -2.5917  -2.5830  -2.5570
    -2.5562  -2.5536  -2.5443  -2.5309  -2.5265  -2.5230  -2.5180  -2.5147
    -2.4829  -2.4487  -2.4471  -2.4400  -2.4396  -2.4373  -2.4369  -2.4360
    -2.4335  -2.4195  -2.4018  -2.4011  -2.4003  -2.3976  -2.3922  -2.3855
    -2.3806  -2.3786  -2.3524  -2.3506  -2.3495  -2.3276  -2.3255  -2.3087
    -2.3077  -2.2817  -2.2808  -2.2803  -2.2760  -2.2737  -2.2726  -2.2721
    -2.2697  -2.2571  -2.2545  -2.2398  -2.2365  -2.2349  -2.1553  -2.1547
    -2.1404  -2.1397  -2.1218  -2.1198  -2.1000  -2.0878  -2.0863  -2.0670
    -2.0499  -2.0468  -2.0431  -2.0394  -2.0145  -2.0129  -2.0093  -2.0081
    -2.0025  -1.9880  -1.9650  -1.9335  -1.9146  -1.9130  -1.8968  -1.8896
    -1.8877  -1.8293  -1.8288  -1.8168  -1.8149  -1.7479  -1.7469  -1.7056
    -1.6877  -1.6852  -1.6543  -1.6541  -1.6277  -1.6263  -1.6085  -1.6065
    -1.6047  -1.6037  -1.5887  -1.5497  -1.5469  -1.5463  -1.5431  -1.5397
    -1.5373  -1.5101  -1.5081  -1.5070  -1.4730  -1.4634  -1.4605  -1.4562
    -1.4553  -1.4478  -1.4324  -1.4050  -1.4047  -1.4007  -1.3988  -1.3810
    -1.3767  -1.3350  -1.3224  -1.3204  -1.3186  -1.2969  -1.2958  -1.2505
    -1.2159  -1.1674  -1.1649  -1.1637  -1.1627  -1.1592  -1.1562  -1.1554
    -1.1446  -1.1429  -1.0943  -1.0922  -1.0767  -1.0760  -1.0599  -1.0475
    -1.0467  -1.0355  -1.0322  -1.0313  -1.0301  -1.0296  -0.9855  -0.9850
    -0.9747  -0.9727  -0.9725  -0.9582  -0.9571  -0.9259  -0.9184  -0.9165
    -0.8902  -0.8701  -0.8689  -0.8276  -0.8247  -0.8124  -0.8121  -0.8035
    -0.8030  -0.7959  -0.7951  -0.7916  -0.7910  -0.7628  -0.7623  -0.7517
    -0.7515  -0.7403  -0.7274  -0.7251  -0.7095  -0.7092  -0.6847  -0.6759
    -0.6746  -0.6618  -0.6103  -0.6088  -0.6085  -0.6044  -0.5974  -0.5958
    -0.5948  -0.5747  -0.5742  -0.5626  -0.5620  -0.5595  -0.5590  -0.5177
    -0.5163  -0.5152  -0.5084  -0.5076  -0.5011  -0.5000  -0.4952  -0.4863
    -0.4800  -0.4793  -0.4479  -0.4476  -0.4395  -0.4268  -0.4252  -0.3784
    -0.3726  -0.3587  -0.3435  -0.3430  -0.3347  -0.3341  -0.3016  -0.2914
    -0.2911  -0.2722  -0.2709  -0.2649  -0.1918  -0.1890  -0.0797   0.3204
     0.3209   0.3461   0.3466   0.4087   0.4127   0.7568   0.7596   0.7725
     0.7736   0.9470   1.0115   1.1020   1.1031   1.3638   1.3651   1.9438
     1.9466   2.0752   2.0776   2.2858   2.2896   2.3571   2.3573   2.4454
     2.7237   2.7347   2.9021   3.1153   3.1200   3.1496   3.1510   3.2144
     3.3142   3.4786   3.4900   3.5213   3.7645   3.7655   3.8380   3.8395
     4.0825   4.0836   4.1139   4.3024   4.3050   4.3658   4.4498   4.7394
     4.7754   4.7798   4.9691   5.0593   5.0601   5.1793   5.1858   5.7882
     5.8437   5.8560   5.9192   5.9303   5.9465   6.0067   6.0722   6.0806
     6.0871   6.0965   6.1501   6.1551   6.1580   6.1720   6.2624   6.2943
     6.6288   6.7369   6.8008   6.8083   6.9344   6.9392   6.9866   7.0221
     7.0317   7.0344   7.0958

          k =-0.2500 0.4330-0.1111 (136853 PWs)   bands (ev):

   -18.3860  -6.4992  -6.2078  -6.1002  -6.0973  -5.4230  -5.0758  -5.0738
    -5.0505  -5.0459  -4.6278  -4.6258  -4.5451  -4.5057  -4.5010  -4.5008
    -4.4600  -4.3432  -4.3424  -4.2979  -4.2516  -4.2515  -4.2507  -4.2474
    -4.2008  -4.1997  -4.1725  -4.1689  -4.1503  -4.1356  -4.1291  -4.0541
    -4.0522  -4.0349  -4.0339  -3.9911  -3.9905  -3.9903  -3.9693  -3.9688
    -3.9660  -3.8917  -3.8912  -3.8306  -3.8286  -3.8131  -3.8126  -3.7517
    -3.7503  -3.7219  -3.7216  -3.6840  -3.6703  -3.6693  -3.6515  -3.6488
    -3.6477  -3.6447  -3.6403  -3.6198  -3.5614  -3.5540  -3.5533  -3.5320
    -3.4986  -3.4721  -3.4696  -3.4176  -3.4136  -3.3899  -3.3889  -3.3617
    -3.3356  -3.2993  -3.2985  -3.2619  -3.2615  -3.2248  -3.2209  -3.2200
    -3.1786  -3.1495  -3.1458  -3.1264  -3.1252  -3.1215  -3.1202  -3.1182
    -3.1174  -3.1110  -3.0561  -2.9980  -2.9968  -2.9960  -2.9949  -2.9906
    -2.9705  -2.9685  -2.9549  -2.8786  -2.8750  -2.8741  -2.8666  -2.8202
    -2.8135  -2.8129  -2.7930  -2.7925  -2.7414  -2.7241  -2.7224  -2.7186
    -2.6808  -2.6778  -2.6769  -2.6400  -2.6358  -2.5914  -2.5816  -2.5570
    -2.5556  -2.5539  -2.5460  -2.5310  -2.5263  -2.5233  -2.5179  -2.5132
    -2.4831  -2.4487  -2.4471  -2.4395  -2.4388  -2.4382  -2.4369  -2.4358
    -2.4339  -2.4198  -2.4019  -2.4012  -2.4005  -2.3974  -2.3930  -2.3853
    -2.3805  -2.3783  -2.3524  -2.3508  -2.3488  -2.3277  -2.3259  -2.3091
    -2.3072  -2.2819  -2.2809  -2.2800  -2.2766  -2.2749  -2.2722  -2.2708
    -2.2699  -2.2573  -2.2548  -2.2398  -2.2363  -2.2348  -2.1558  -2.1545
    -2.1403  -2.1397  -2.1216  -2.1194  -2.0998  -2.0885  -2.0858  -2.0670
    -2.0489  -2.0480  -2.0430  -2.0389  -2.0144  -2.0132  -2.0092  -2.0083
    -2.0015  -1.9881  -1.9650  -1.9336  -1.9141  -1.9139  -1.8969  -1.8902
    -1.8875  -1.8300  -1.8280  -1.8171  -1.8148  -1.7480  -1.7466  -1.7061
    -1.6872  -1.6854  -1.6546  -1.6539  -1.6280  -1.6259  -1.6085  -1.6061
    -1.6053  -1.6036  -1.5889  -1.5498  -1.5483  -1.5451  -1.5428  -1.5405
    -1.5364  -1.5103  -1.5083  -1.5068  -1.4731  -1.4640  -1.4598  -1.4567
    -1.4548  -1.4478  -1.4321  -1.4061  -1.4035  -1.4016  -1.3980  -1.3810
    -1.3766  -1.3348  -1.3228  -1.3201  -1.3185  -1.2971  -1.2953  -1.2507
    -1.2159  -1.1674  -1.1648  -1.1644  -1.1623  -1.1587  -1.1568  -1.1557
    -1.1445  -1.1429  -1.0950  -1.0916  -1.0777  -1.0750  -1.0601  -1.0481
    -1.0460  -1.0361  -1.0324  -1.0309  -1.0297  -1.0291  -0.9863  -0.9844
    -0.9748  -0.9730  -0.9721  -0.9588  -0.9569  -0.9258  -0.9188  -0.9162
    -0.8908  -0.8700  -0.8681  -0.8279  -0.8241  -0.8133  -0.8111  -0.8034
    -0.8033  -0.7966  -0.7944  -0.7919  -0.7907  -0.7634  -0.7618  -0.7526
    -0.7510  -0.7404  -0.7289  -0.7249  -0.7095  -0.7090  -0.6838  -0.6756
    -0.6744  -0.6617  -0.6106  -0.6093  -0.6079  -0.6042  -0.5972  -0.5968
    -0.5952  -0.5756  -0.5737  -0.5629  -0.5614  -0.5603  -0.5585  -0.5177
    -0.5164  -0.5150  -0.5085  -0.5075  -0.5007  -0.4998  -0.4939  -0.4861
    -0.4804  -0.4791  -0.4484  -0.4474  -0.4397  -0.4262  -0.4249  -0.3752
    -0.3714  -0.3623  -0.3435  -0.3434  -0.3346  -0.3330  -0.3015  -0.2918
    -0.2908  -0.2722  -0.2700  -0.2645  -0.1951  -0.1897  -0.0814   0.3202
     0.3209   0.3461   0.3468   0.4094   0.4134   0.7585   0.7598   0.7716
     0.7735   0.9469   1.0106   1.0986   1.1053   1.3595   1.3694   1.9443
     1.9471   2.0738   2.0787   2.2837   2.2915   2.3568   2.3575   2.4454
     2.7244   2.7355   2.9021   3.1127   3.1226   3.1493   3.1517   3.2155
     3.3142   3.4702   3.4975   3.5221   3.7639   3.7659   3.8344   3.8428
     4.0800   4.0867   4.1136   4.3015   4.3050   4.3663   4.4497   4.7397
     4.7757   4.7793   4.9659   5.0581   5.0609   5.1634   5.1967   5.7861
     5.8487   5.8553   5.9257   5.9307   5.9686   6.0052   6.0694   6.0782
     6.0862   6.0954   6.1427   6.1546   6.1648   6.1771   6.2211   6.3176
     6.6248   6.7381   6.7941   6.8112   6.9213   6.9402   7.0037   7.0143
     7.0320   7.0390   7.0888

          k = 0.2500-0.4330-0.1111 (136853 PWs)   bands (ev):

   -18.3860  -6.4992  -6.2078  -6.1002  -6.0973  -5.4230  -5.0758  -5.0738
    -5.0505  -5.0459  -4.6278  -4.6258  -4.5451  -4.5057  -4.5010  -4.5008
    -4.4600  -4.3432  -4.3424  -4.2979  -4.2516  -4.2515  -4.2507  -4.2474
    -4.2008  -4.1997  -4.1725  -4.1689  -4.1503  -4.1356  -4.1291  -4.0541
    -4.0522  -4.0349  -4.0339  -3.9911  -3.9905  -3.9903  -3.9693  -3.9688
    -3.9660  -3.8917  -3.8912  -3.8306  -3.8286  -3.8131  -3.8126  -3.7517
    -3.7503  -3.7219  -3.7216  -3.6840  -3.6703  -3.6693  -3.6515  -3.6488
    -3.6477  -3.6447  -3.6403  -3.6198  -3.5614  -3.5540  -3.5533  -3.5320
    -3.4986  -3.4721  -3.4696  -3.4176  -3.4136  -3.3899  -3.3889  -3.3617
    -3.3356  -3.2993  -3.2985  -3.2619  -3.2615  -3.2248  -3.2209  -3.2200
    -3.1786  -3.1495  -3.1458  -3.1264  -3.1252  -3.1215  -3.1202  -3.1182
    -3.1174  -3.1110  -3.0561  -2.9980  -2.9968  -2.9960  -2.9949  -2.9906
    -2.9705  -2.9685  -2.9549  -2.8786  -2.8750  -2.8741  -2.8666  -2.8202
    -2.8135  -2.8129  -2.7930  -2.7925  -2.7414  -2.7241  -2.7224  -2.7186
    -2.6808  -2.6778  -2.6769  -2.6400  -2.6358  -2.5914  -2.5816  -2.5570
    -2.5556  -2.5539  -2.5460  -2.5310  -2.5263  -2.5233  -2.5179  -2.5132
    -2.4831  -2.4487  -2.4471  -2.4395  -2.4388  -2.4382  -2.4369  -2.4358
    -2.4339  -2.4198  -2.4019  -2.4012  -2.4005  -2.3974  -2.3930  -2.3853
    -2.3805  -2.3783  -2.3524  -2.3508  -2.3488  -2.3277  -2.3259  -2.3091
    -2.3072  -2.2819  -2.2809  -2.2800  -2.2766  -2.2749  -2.2722  -2.2708
    -2.2699  -2.2573  -2.2548  -2.2398  -2.2363  -2.2348  -2.1558  -2.1545
    -2.1403  -2.1397  -2.1216  -2.1194  -2.0998  -2.0885  -2.0858  -2.0670
    -2.0489  -2.0480  -2.0430  -2.0389  -2.0144  -2.0132  -2.0092  -2.0083
    -2.0015  -1.9881  -1.9650  -1.9336  -1.9141  -1.9139  -1.8969  -1.8902
    -1.8875  -1.8300  -1.8280  -1.8171  -1.8148  -1.7480  -1.7466  -1.7061
    -1.6872  -1.6854  -1.6546  -1.6539  -1.6280  -1.6259  -1.6085  -1.6061
    -1.6053  -1.6036  -1.5889  -1.5498  -1.5483  -1.5451  -1.5428  -1.5405
    -1.5364  -1.5103  -1.5083  -1.5068  -1.4731  -1.4640  -1.4598  -1.4567
    -1.4548  -1.4478  -1.4321  -1.4061  -1.4035  -1.4016  -1.3980  -1.3810
    -1.3766  -1.3348  -1.3228  -1.3201  -1.3185  -1.2971  -1.2953  -1.2507
    -1.2159  -1.1674  -1.1648  -1.1645  -1.1623  -1.1587  -1.1568  -1.1557
    -1.1445  -1.1429  -1.0950  -1.0916  -1.0777  -1.0750  -1.0601  -1.0481
    -1.0460  -1.0361  -1.0324  -1.0309  -1.0297  -1.0291  -0.9863  -0.9844
    -0.9748  -0.9730  -0.9721  -0.9589  -0.9569  -0.9258  -0.9187  -0.9162
    -0.8908  -0.8700  -0.8681  -0.8279  -0.8241  -0.8133  -0.8111  -0.8034
    -0.8033  -0.7966  -0.7944  -0.7919  -0.7907  -0.7634  -0.7618  -0.7526
    -0.7510  -0.7404  -0.7289  -0.7249  -0.7095  -0.7090  -0.6838  -0.6756
    -0.6744  -0.6617  -0.6106  -0.6093  -0.6079  -0.6042  -0.5972  -0.5968
    -0.5952  -0.5756  -0.5737  -0.5628  -0.5614  -0.5603  -0.5585  -0.5177
    -0.5164  -0.5150  -0.5085  -0.5075  -0.5007  -0.4998  -0.4939  -0.4861
    -0.4804  -0.4791  -0.4484  -0.4474  -0.4397  -0.4262  -0.4249  -0.3752
    -0.3714  -0.3623  -0.3435  -0.3434  -0.3346  -0.3330  -0.3015  -0.2918
    -0.2908  -0.2722  -0.2700  -0.2645  -0.1951  -0.1897  -0.0814   0.3202
     0.3209   0.3461   0.3468   0.4094   0.4134   0.7585   0.7598   0.7716
     0.7735   0.9469   1.0106   1.0986   1.1053   1.3595   1.3694   1.9443
     1.9471   2.0738   2.0787   2.2837   2.2915   2.3568   2.3575   2.4454
     2.7244   2.7355   2.9021   3.1127   3.1226   3.1493   3.1517   3.2155
     3.3142   3.4702   3.4975   3.5221   3.7639   3.7659   3.8344   3.8428
     4.0800   4.0867   4.1136   4.3015   4.3050   4.3663   4.4497   4.7397
     4.7757   4.7793   4.9659   5.0581   5.0609   5.1634   5.1967   5.7861
     5.8487   5.8553   5.9257   5.9307   5.9686   6.0052   6.0694   6.0782
     6.0862   6.0954   6.1427   6.1546   6.1648   6.1771   6.2211   6.3176
     6.6247   6.7381   6.7943   6.8112   6.9199   6.9402   7.0060   7.0137
     7.0320   7.0394   7.0886

          k = 0.5000 0.0000 0.1111 (136853 PWs)   bands (ev):

   -18.3860  -6.4992  -6.2078  -6.1009  -6.0966  -5.4230  -5.0755  -5.0742
    -5.0516  -5.0448  -4.6276  -4.6260  -4.5451  -4.5057  -4.5012  -4.5006
    -4.4600  -4.3439  -4.3417  -4.2979  -4.2517  -4.2514  -4.2500  -4.2480
    -4.2009  -4.1996  -4.1718  -4.1698  -4.1503  -4.1352  -4.1292  -4.0541
    -4.0522  -4.0345  -4.0343  -3.9916  -3.9906  -3.9897  -3.9692  -3.9690
    -3.9659  -3.8917  -3.8912  -3.8308  -3.8283  -3.8131  -3.8128  -3.7521
    -3.7500  -3.7218  -3.7217  -3.6840  -3.6703  -3.6695  -3.6500  -3.6490
    -3.6475  -3.6456  -3.6403  -3.6200  -3.5610  -3.5541  -3.5533  -3.5321
    -3.4986  -3.4713  -3.4703  -3.4171  -3.4139  -3.3905  -3.3884  -3.3617
    -3.3356  -3.2994  -3.2984  -3.2624  -3.2611  -3.2248  -3.2206  -3.2203
    -3.1785  -3.1486  -3.1467  -3.1270  -3.1259  -3.1213  -3.1199  -3.1177
    -3.1169  -3.1111  -3.0561  -2.9988  -2.9960  -2.9957  -2.9952  -2.9905
    -2.9698  -2.9691  -2.9549  -2.8795  -2.8743  -2.8740  -2.8667  -2.8203
    -2.8142  -2.8122  -2.7930  -2.7922  -2.7414  -2.7242  -2.7225  -2.7185
    -2.6809  -2.6779  -2.6769  -2.6402  -2.6354  -2.5912  -2.5825  -2.5568
    -2.5559  -2.5541  -2.5455  -2.5312  -2.5263  -2.5227  -2.5182  -2.5136
    -2.4831  -2.4487  -2.4470  -2.4395  -2.4391  -2.4378  -2.4366  -2.4362
    -2.4340  -2.4197  -2.4020  -2.4016  -2.4000  -2.3974  -2.3928  -2.3855
    -2.3802  -2.3786  -2.3523  -2.3504  -2.3492  -2.3277  -2.3257  -2.3090
    -2.3073  -2.2822  -2.2805  -2.2802  -2.2764  -2.2747  -2.2721  -2.2716
    -2.2694  -2.2569  -2.2553  -2.2397  -2.2367  -2.2348  -2.1556  -2.1545
    -2.1413  -2.1390  -2.1215  -2.1195  -2.0999  -2.0882  -2.0861  -2.0670
    -2.0494  -2.0475  -2.0429  -2.0391  -2.0144  -2.0128  -2.0095  -2.0082
    -2.0019  -1.9881  -1.9650  -1.9335  -1.9146  -1.9134  -1.8969  -1.8900
    -1.8875  -1.8301  -1.8280  -1.8167  -1.8151  -1.7486  -1.7460  -1.7060
    -1.6874  -1.6853  -1.6546  -1.6539  -1.6279  -1.6259  -1.6088  -1.6063
    -1.6052  -1.6034  -1.5889  -1.5495  -1.5476  -1.5459  -1.5432  -1.5404
    -1.5365  -1.5103  -1.5081  -1.5071  -1.4730  -1.4641  -1.4596  -1.4563
    -1.4552  -1.4478  -1.4321  -1.4051  -1.4045  -1.4012  -1.3983  -1.3810
    -1.3766  -1.3348  -1.3235  -1.3195  -1.3186  -1.2968  -1.2957  -1.2507
    -1.2160  -1.1674  -1.1648  -1.1642  -1.1624  -1.1594  -1.1565  -1.1552
    -1.1451  -1.1424  -1.0950  -1.0915  -1.0774  -1.0753  -1.0599  -1.0477
    -1.0465  -1.0360  -1.0323  -1.0310  -1.0297  -1.0292  -0.9860  -0.9846
    -0.9748  -0.9728  -0.9722  -0.9585  -0.9571  -0.9259  -0.9189  -0.9159
    -0.8906  -0.8699  -0.8685  -0.8278  -0.8243  -0.8131  -0.8113  -0.8036
    -0.8030  -0.7963  -0.7948  -0.7917  -0.7908  -0.7633  -0.7619  -0.7521
    -0.7514  -0.7403  -0.7285  -0.7249  -0.7094  -0.7091  -0.6841  -0.6758
    -0.6743  -0.6617  -0.6105  -0.6091  -0.6081  -0.6043  -0.5975  -0.5964
    -0.5948  -0.5753  -0.5739  -0.5629  -0.5615  -0.5599  -0.5588  -0.5177
    -0.5166  -0.5148  -0.5087  -0.5073  -0.5009  -0.4999  -0.4942  -0.4862
    -0.4800  -0.4793  -0.4483  -0.4475  -0.4397  -0.4264  -0.4251  -0.3761
    -0.3723  -0.3609  -0.3436  -0.3431  -0.3346  -0.3333  -0.3015  -0.2915
    -0.2909  -0.2722  -0.2700  -0.2650  -0.1932  -0.1901  -0.0808   0.3202
     0.3210   0.3461   0.3467   0.4105   0.4118   0.7577   0.7599   0.7722
     0.7733   0.9470   1.0109   1.0990   1.1054   1.3605   1.3685   1.9448
     1.9463   2.0754   2.0771   2.2861   2.2893   2.3564   2.3580   2.4454
     2.7242   2.7353   2.9020   3.1130   3.1222   3.1492   3.1517   3.2150
     3.3142   3.4722   3.4959   3.5219   3.7634   3.7665   3.8371   3.8405
     4.0818   4.0844   4.1136   4.3021   4.3047   4.3662   4.4496   4.7396
     4.7746   4.7802   4.9681   5.0591   5.0601   5.1719   5.1895   5.7875
     5.8463   5.8553   5.9239   5.9297   5.9647   6.0052   6.0691   6.0783
     6.0862   6.0954   6.1463   6.1532   6.1619   6.1748   6.2352   6.3109
     6.6265   6.7372   6.7986   6.8099   6.9216   6.9397   6.9980   7.0181
     7.0313   7.0383   7.1014

          k =-0.5000 0.0000 0.1111 (136853 PWs)   bands (ev):

   -18.3860  -6.4992  -6.2078  -6.1009  -6.0966  -5.4230  -5.0755  -5.0742
    -5.0516  -5.0448  -4.6276  -4.6260  -4.5451  -4.5057  -4.5012  -4.5006
    -4.4600  -4.3439  -4.3417  -4.2979  -4.2517  -4.2514  -4.2500  -4.2480
    -4.2009  -4.1996  -4.1718  -4.1698  -4.1503  -4.1352  -4.1292  -4.0541
    -4.0522  -4.0345  -4.0343  -3.9916  -3.9906  -3.9897  -3.9692  -3.9690
    -3.9659  -3.8917  -3.8912  -3.8308  -3.8283  -3.8131  -3.8128  -3.7521
    -3.7500  -3.7218  -3.7217  -3.6840  -3.6703  -3.6695  -3.6500  -3.6490
    -3.6475  -3.6456  -3.6403  -3.6200  -3.5610  -3.5541  -3.5533  -3.5321
    -3.4986  -3.4713  -3.4703  -3.4171  -3.4139  -3.3905  -3.3884  -3.3617
    -3.3356  -3.2994  -3.2984  -3.2624  -3.2611  -3.2248  -3.2206  -3.2203
    -3.1785  -3.1486  -3.1467  -3.1270  -3.1259  -3.1213  -3.1199  -3.1177
    -3.1169  -3.1111  -3.0561  -2.9988  -2.9960  -2.9957  -2.9952  -2.9905
    -2.9698  -2.9691  -2.9549  -2.8795  -2.8743  -2.8740  -2.8667  -2.8203
    -2.8142  -2.8122  -2.7930  -2.7922  -2.7414  -2.7242  -2.7225  -2.7185
    -2.6809  -2.6779  -2.6769  -2.6402  -2.6354  -2.5912  -2.5825  -2.5568
    -2.5559  -2.5541  -2.5455  -2.5312  -2.5263  -2.5227  -2.5182  -2.5136
    -2.4831  -2.4487  -2.4470  -2.4395  -2.4391  -2.4378  -2.4366  -2.4362
    -2.4340  -2.4197  -2.4020  -2.4016  -2.4000  -2.3974  -2.3928  -2.3855
    -2.3802  -2.3786  -2.3523  -2.3504  -2.3492  -2.3277  -2.3257  -2.3090
    -2.3073  -2.2822  -2.2805  -2.2801  -2.2764  -2.2747  -2.2721  -2.2716
    -2.2694  -2.2569  -2.2553  -2.2397  -2.2367  -2.2348  -2.1556  -2.1545
    -2.1413  -2.1390  -2.1215  -2.1195  -2.0999  -2.0882  -2.0861  -2.0670
    -2.0494  -2.0475  -2.0429  -2.0391  -2.0144  -2.0128  -2.0095  -2.0082
    -2.0019  -1.9881  -1.9650  -1.9335  -1.9146  -1.9134  -1.8969  -1.8900
    -1.8875  -1.8301  -1.8280  -1.8167  -1.8151  -1.7486  -1.7460  -1.7060
    -1.6874  -1.6853  -1.6546  -1.6539  -1.6279  -1.6259  -1.6088  -1.6063
    -1.6052  -1.6034  -1.5889  -1.5495  -1.5476  -1.5459  -1.5432  -1.5404
    -1.5365  -1.5103  -1.5081  -1.5071  -1.4730  -1.4641  -1.4596  -1.4563
    -1.4552  -1.4478  -1.4321  -1.4051  -1.4045  -1.4012  -1.3983  -1.3810
    -1.3766  -1.3348  -1.3235  -1.3195  -1.3186  -1.2968  -1.2957  -1.2507
    -1.2160  -1.1674  -1.1648  -1.1642  -1.1624  -1.1594  -1.1565  -1.1552
    -1.1451  -1.1424  -1.0950  -1.0915  -1.0774  -1.0753  -1.0599  -1.0477
    -1.0465  -1.0360  -1.0323  -1.0310  -1.0297  -1.0292  -0.9860  -0.9846
    -0.9748  -0.9728  -0.9722  -0.9585  -0.9571  -0.9259  -0.9189  -0.9159
    -0.8906  -0.8699  -0.8685  -0.8278  -0.8243  -0.8131  -0.8113  -0.8036
    -0.8030  -0.7963  -0.7948  -0.7917  -0.7908  -0.7633  -0.7619  -0.7521
    -0.7514  -0.7403  -0.7285  -0.7249  -0.7094  -0.7091  -0.6841  -0.6758
    -0.6743  -0.6617  -0.6105  -0.6091  -0.6081  -0.6043  -0.5975  -0.5964
    -0.5948  -0.5753  -0.5739  -0.5629  -0.5615  -0.5599  -0.5588  -0.5177
    -0.5166  -0.5148  -0.5087  -0.5073  -0.5009  -0.4999  -0.4942  -0.4862
    -0.4800  -0.4793  -0.4483  -0.4475  -0.4397  -0.4264  -0.4251  -0.3761
    -0.3723  -0.3609  -0.3436  -0.3431  -0.3346  -0.3333  -0.3015  -0.2915
    -0.2910  -0.2722  -0.2700  -0.2650  -0.1932  -0.1901  -0.0808   0.3202
     0.3210   0.3461   0.3467   0.4105   0.4118   0.7577   0.7599   0.7722
     0.7733   0.9470   1.0109   1.0990   1.1054   1.3605   1.3685   1.9448
     1.9463   2.0754   2.0771   2.2861   2.2893   2.3564   2.3580   2.4454
     2.7242   2.7353   2.9020   3.1130   3.1222   3.1492   3.1517   3.2150
     3.3142   3.4722   3.4959   3.5219   3.7634   3.7665   3.8371   3.8405
     4.0818   4.0844   4.1136   4.3021   4.3047   4.3662   4.4496   4.7396
     4.7746   4.7802   4.9681   5.0591   5.0601   5.1719   5.1895   5.7875
     5.8463   5.8553   5.9239   5.9297   5.9646   6.0052   6.0691   6.0783
     6.0862   6.0954   6.1463   6.1532   6.1619   6.1748   6.2352   6.3109
     6.6265   6.7373   6.7988   6.8099   6.9204   6.9396   6.9999   7.0175
     7.0314   7.0385   7.1012

          k =-0.2500 0.1443 0.1111 (136898 PWs)   bands (ev):

   -18.3860  -6.7092  -6.2077  -5.9145  -5.6270  -5.5609  -5.5602  -5.0040
    -5.0034  -4.8916  -4.8542  -4.7048  -4.6347  -4.6035  -4.6006  -4.5542
    -4.4838  -4.4837  -4.3466  -4.3042  -4.3041  -4.2851  -4.2825  -4.2811
    -4.1609  -4.1607  -4.0818  -4.0705  -4.0688  -4.0686  -4.0483  -4.0481
    -3.9841  -3.9265  -3.9265  -3.9143  -3.9041  -3.9035  -3.8932  -3.8919
    -3.8842  -3.8375  -3.8367  -3.8273  -3.8270  -3.8149  -3.8148  -3.7851
    -3.7801  -3.7797  -3.7469  -3.7459  -3.7280  -3.7252  -3.7062  -3.6634
    -3.6634  -3.6027  -3.6022  -3.5820  -3.5798  -3.5641  -3.4903  -3.4898
    -3.4822  -3.4807  -3.4650  -3.4645  -3.4414  -3.4408  -3.2901  -3.2885
    -3.2718  -3.2717  -3.2670  -3.2288  -3.2274  -3.2234  -3.2230  -3.1676
    -3.1666  -3.1486  -3.1474  -3.1098  -3.0867  -3.0863  -3.0641  -3.0562
    -3.0550  -3.0118  -3.0105  -2.9937  -2.9906  -2.9871  -2.9855  -2.9617
    -2.9607  -2.9175  -2.9165  -2.9117  -2.9099  -2.8953  -2.8481  -2.8462
    -2.8244  -2.8166  -2.8138  -2.7363  -2.7353  -2.7071  -2.7043  -2.6978
    -2.6912  -2.6685  -2.6400  -2.6395  -2.6302  -2.6207  -2.6183  -2.6152
    -2.6039  -2.5972  -2.5923  -2.5884  -2.5841  -2.5810  -2.5757  -2.5430
    -2.5237  -2.4942  -2.4791  -2.4753  -2.4752  -2.4584  -2.4583  -2.4565
    -2.4514  -2.4433  -2.4145  -2.4123  -2.4027  -2.3922  -2.3843  -2.3843
    -2.3822  -2.3569  -2.3553  -2.3439  -2.3373  -2.3353  -2.2786  -2.2692
    -2.2577  -2.2569  -2.2550  -2.2367  -2.2357  -2.2223  -2.2019  -2.2018
    -2.1971  -2.1961  -2.1857  -2.1741  -2.1738  -2.1597  -2.1458  -2.1439
    -2.0969  -2.0964  -2.0889  -2.0880  -2.0864  -2.0841  -2.0746  -2.0737
    -2.0708  -2.0690  -2.0574  -2.0536  -2.0529  -1.9396  -1.9387  -1.9099
    -1.9080  -1.9069  -1.8850  -1.8815  -1.8795  -1.8713  -1.8707  -1.8505
    -1.8501  -1.8463  -1.8449  -1.8387  -1.8076  -1.8068  -1.8061  -1.7771
    -1.7759  -1.7710  -1.7706  -1.7586  -1.7575  -1.6993  -1.6970  -1.6727
    -1.6724  -1.6642  -1.6587  -1.6362  -1.6354  -1.6307  -1.6300  -1.6278
    -1.6271  -1.6145  -1.6144  -1.5950  -1.5576  -1.5543  -1.5277  -1.5268
    -1.5151  -1.4780  -1.4772  -1.4454  -1.4443  -1.4340  -1.4337  -1.4207
    -1.4044  -1.4001  -1.3828  -1.3827  -1.3525  -1.3517  -1.3333  -1.3322
    -1.3005  -1.2993  -1.2872  -1.2346  -1.2332  -1.2295  -1.2280  -1.2097
    -1.2093  -1.1924  -1.1920  -1.1615  -1.1501  -1.1296  -1.1277  -1.1277
    -1.0932  -1.0774  -1.0759  -1.0748  -1.0664  -1.0661  -1.0606  -1.0605
    -1.0301  -1.0242  -1.0235  -1.0099  -1.0080  -1.0035  -1.0024  -0.9849
    -0.9671  -0.9661  -0.9391  -0.9375  -0.8559  -0.8392  -0.8380  -0.8364
    -0.8353  -0.8310  -0.8297  -0.8196  -0.8011  -0.7798  -0.7778  -0.7734
    -0.7731  -0.7553  -0.7403  -0.7393  -0.7349  -0.7202  -0.6400  -0.6397
    -0.6113  -0.6108  -0.6022  -0.6005  -0.5946  -0.5930  -0.5925  -0.5877
    -0.5855  -0.5679  -0.5364  -0.5237  -0.5055  -0.5050  -0.4961  -0.4955
    -0.4891  -0.4875  -0.4808  -0.4776  -0.4769  -0.4595  -0.4564  -0.4562
    -0.4249  -0.4245  -0.4242  -0.4066  -0.4065  -0.3842  -0.3638  -0.3577
    -0.3554  -0.3477  -0.3453  -0.2797  -0.2793  -0.2616  -0.2613  -0.1987
    -0.1971  -0.1966  -0.1939  -0.1706   0.0408   0.0455   0.3826   0.3828
     0.4580   0.4624   0.6084   0.6390   0.6636   0.7932   0.7951   1.1718
     1.2403   1.2406   1.4744   1.4750   1.5313   1.8380   1.8465   1.8732
     1.8740   1.9099   1.9152   2.0666   2.0679   2.2419   2.2429   2.2551
     2.3956   2.4028   2.4438   2.6554   3.0198   3.0223   3.0618   3.0639
     3.0688   3.0722   3.3977   3.3985   3.7282   3.7372   3.8068   4.0667
     4.1929   4.1992   4.3784   4.4107   4.4850   4.4859   4.5642   4.7241
     4.7269   4.8180   4.8210   5.1107   5.1688   5.1733   5.3465   5.3829
     5.5100   5.5154   5.5171   5.5186   5.6585   5.6630   5.7277   5.8637
     6.2474   6.3370   6.3432   6.3449   6.3513   6.3695   6.4561   6.5518
     6.5652   6.6385   6.7268   6.8401   6.9003   6.9262   7.1547   7.1862
     7.2320   7.2378   7.2813

          k =-0.2500-0.1443-0.1111 (136898 PWs)   bands (ev):

   -18.3860  -6.7092  -6.2076  -5.9146  -5.6270  -5.5607  -5.5602  -5.0038
    -5.0034  -4.8919  -4.8543  -4.7048  -4.6347  -4.6028  -4.6011  -4.5544
    -4.4838  -4.4836  -4.3465  -4.3043  -4.3042  -4.2849  -4.2827  -4.2811
    -4.1609  -4.1607  -4.0819  -4.0705  -4.0690  -4.0685  -4.0483  -4.0480
    -3.9845  -3.9267  -3.9264  -3.9146  -3.9041  -3.9036  -3.8927  -3.8921
    -3.8843  -3.8371  -3.8368  -3.8272  -3.8270  -3.8153  -3.8145  -3.7855
    -3.7800  -3.7797  -3.7468  -3.7452  -3.7273  -3.7257  -3.7066  -3.6635
    -3.6633  -3.6027  -3.6022  -3.5814  -3.5799  -3.5641  -3.4905  -3.4901
    -3.4819  -3.4808  -3.4651  -3.4645  -3.4413  -3.4411  -3.2899  -3.2888
    -3.2723  -3.2712  -3.2670  -3.2285  -3.2276  -3.2232  -3.2227  -3.1674
    -3.1667  -3.1485  -3.1476  -3.1097  -3.0869  -3.0856  -3.0642  -3.0564
    -3.0553  -3.0117  -3.0106  -2.9933  -2.9910  -2.9868  -2.9856  -2.9615
    -2.9607  -2.9172  -2.9162  -2.9115  -2.9100  -2.8954  -2.8475  -2.8464
    -2.8249  -2.8163  -2.8140  -2.7360  -2.7352  -2.7076  -2.7043  -2.6981
    -2.6909  -2.6685  -2.6400  -2.6396  -2.6289  -2.6197  -2.6179  -2.6158
    -2.6047  -2.5996  -2.5930  -2.5866  -2.5841  -2.5808  -2.5762  -2.5434
    -2.5238  -2.4936  -2.4790  -2.4754  -2.4752  -2.4588  -2.4582  -2.4561
    -2.4516  -2.4435  -2.4144  -2.4124  -2.4029  -2.3922  -2.3848  -2.3837
    -2.3821  -2.3568  -2.3553  -2.3444  -2.3374  -2.3349  -2.2788  -2.2694
    -2.2576  -2.2572  -2.2549  -2.2376  -2.2348  -2.2224  -2.2018  -2.2017
    -2.1968  -2.1963  -2.1857  -2.1743  -2.1738  -2.1598  -2.1452  -2.1444
    -2.0970  -2.0966  -2.0888  -2.0874  -2.0864  -2.0838  -2.0747  -2.0738
    -2.0707  -2.0692  -2.0574  -2.0538  -2.0534  -1.9395  -1.9388  -1.9091
    -1.9088  -1.9067  -1.8844  -1.8815  -1.8805  -1.8711  -1.8708  -1.8505
    -1.8499  -1.8460  -1.8452  -1.8383  -1.8074  -1.8066  -1.8061  -1.7774
    -1.7760  -1.7713  -1.7702  -1.7585  -1.7579  -1.6992  -1.6970  -1.6727
    -1.6725  -1.6640  -1.6587  -1.6363  -1.6353  -1.6308  -1.6302  -1.6277
    -1.6269  -1.6144  -1.6143  -1.5954  -1.5580  -1.5540  -1.5279  -1.5261
    -1.5156  -1.4784  -1.4766  -1.4448  -1.4446  -1.4343  -1.4336  -1.4207
    -1.4051  -1.3999  -1.3832  -1.3821  -1.3521  -1.3518  -1.3336  -1.3320
    -1.3001  -1.2995  -1.2874  -1.2338  -1.2337  -1.2297  -1.2289  -1.2101
    -1.2088  -1.1922  -1.1919  -1.1614  -1.1498  -1.1295  -1.1283  -1.1271
    -1.0936  -1.0769  -1.0763  -1.0749  -1.0666  -1.0660  -1.0606  -1.0606
    -1.0300  -1.0246  -1.0230  -1.0097  -1.0069  -1.0033  -1.0026  -0.9853
    -0.9679  -0.9656  -0.9382  -0.9381  -0.8557  -0.8388  -0.8378  -0.8368
    -0.8355  -0.8307  -0.8302  -0.8204  -0.8011  -0.7788  -0.7782  -0.7735
    -0.7732  -0.7562  -0.7398  -0.7390  -0.7353  -0.7202  -0.6405  -0.6391
    -0.6119  -0.6110  -0.6016  -0.6010  -0.5941  -0.5929  -0.5927  -0.5868
    -0.5855  -0.5682  -0.5372  -0.5236  -0.5052  -0.5046  -0.4959  -0.4957
    -0.4884  -0.4876  -0.4809  -0.4780  -0.4771  -0.4593  -0.4566  -0.4564
    -0.4252  -0.4242  -0.4237  -0.4071  -0.4063  -0.3838  -0.3649  -0.3577
    -0.3564  -0.3477  -0.3450  -0.2801  -0.2792  -0.2619  -0.2610  -0.1986
    -0.1978  -0.1959  -0.1908  -0.1705   0.0403   0.0434   0.3827   0.3828
     0.4586   0.4618   0.6090   0.6395   0.6641   0.7939   0.7950   1.1730
     1.2401   1.2405   1.4742   1.4748   1.5317   1.8409   1.8429   1.8727
     1.8732   1.9126   1.9133   2.0652   2.0679   2.2424   2.2425   2.2554
     2.3986   2.3997   2.4446   2.6553   3.0172   3.0230   3.0625   3.0631
     3.0707   3.0712   3.3972   3.3987   3.7322   3.7335   3.8053   4.0671
     4.1947   4.1964   4.3949   4.3973   4.4849   4.4861   4.5640   4.7248
     4.7271   4.8199   4.8206   5.1097   5.1707   5.1747   5.3631   5.3682
     5.5118   5.5134   5.5173   5.5182   5.6617   5.6624   5.7132   5.8660
     6.2431   6.3366   6.3425   6.3451   6.3494   6.3651   6.4749   6.5600
     6.5626   6.6759   6.6827   6.8370   6.9136   6.9149   7.1408   7.2198
     7.2329   7.2437   7.2533

          k = 0.2500 0.1443-0.1111 (136898 PWs)   bands (ev):

   -18.3860  -6.7092  -6.2076  -5.9146  -5.6270  -5.5607  -5.5602  -5.0038
    -5.0034  -4.8919  -4.8543  -4.7048  -4.6347  -4.6028  -4.6011  -4.5544
    -4.4838  -4.4836  -4.3465  -4.3043  -4.3042  -4.2849  -4.2827  -4.2811
    -4.1609  -4.1607  -4.0819  -4.0705  -4.0690  -4.0685  -4.0483  -4.0480
    -3.9845  -3.9267  -3.9264  -3.9146  -3.9041  -3.9036  -3.8927  -3.8921
    -3.8843  -3.8371  -3.8368  -3.8272  -3.8270  -3.8153  -3.8145  -3.7855
    -3.7800  -3.7797  -3.7468  -3.7452  -3.7273  -3.7257  -3.7066  -3.6635
    -3.6633  -3.6027  -3.6022  -3.5814  -3.5799  -3.5641  -3.4905  -3.4901
    -3.4819  -3.4808  -3.4651  -3.4645  -3.4413  -3.4411  -3.2899  -3.2888
    -3.2723  -3.2712  -3.2670  -3.2285  -3.2276  -3.2232  -3.2227  -3.1674
    -3.1667  -3.1485  -3.1476  -3.1097  -3.0869  -3.0856  -3.0642  -3.0564
    -3.0553  -3.0117  -3.0106  -2.9933  -2.9910  -2.9868  -2.9856  -2.9615
    -2.9607  -2.9172  -2.9162  -2.9115  -2.9100  -2.8954  -2.8475  -2.8464
    -2.8249  -2.8163  -2.8140  -2.7360  -2.7352  -2.7076  -2.7043  -2.6981
    -2.6909  -2.6685  -2.6400  -2.6396  -2.6289  -2.6197  -2.6179  -2.6158
    -2.6047  -2.5996  -2.5930  -2.5866  -2.5841  -2.5808  -2.5762  -2.5434
    -2.5238  -2.4936  -2.4790  -2.4754  -2.4752  -2.4588  -2.4582  -2.4561
    -2.4516  -2.4435  -2.4144  -2.4124  -2.4029  -2.3922  -2.3848  -2.3837
    -2.3821  -2.3568  -2.3553  -2.3444  -2.3374  -2.3349  -2.2788  -2.2694
    -2.2576  -2.2572  -2.2549  -2.2376  -2.2348  -2.2224  -2.2018  -2.2017
    -2.1968  -2.1963  -2.1857  -2.1743  -2.1738  -2.1598  -2.1452  -2.1444
    -2.0970  -2.0966  -2.0888  -2.0874  -2.0864  -2.0838  -2.0747  -2.0738
    -2.0707  -2.0692  -2.0574  -2.0538  -2.0534  -1.9395  -1.9388  -1.9091
    -1.9088  -1.9067  -1.8844  -1.8815  -1.8805  -1.8711  -1.8708  -1.8505
    -1.8499  -1.8460  -1.8452  -1.8383  -1.8074  -1.8066  -1.8061  -1.7774
    -1.7760  -1.7713  -1.7702  -1.7585  -1.7579  -1.6992  -1.6970  -1.6727
    -1.6725  -1.6640  -1.6587  -1.6363  -1.6353  -1.6308  -1.6302  -1.6277
    -1.6269  -1.6144  -1.6143  -1.5954  -1.5580  -1.5540  -1.5279  -1.5261
    -1.5156  -1.4784  -1.4766  -1.4448  -1.4446  -1.4343  -1.4336  -1.4207
    -1.4051  -1.3999  -1.3832  -1.3821  -1.3521  -1.3518  -1.3336  -1.3320
    -1.3001  -1.2995  -1.2874  -1.2338  -1.2337  -1.2297  -1.2289  -1.2101
    -1.2088  -1.1922  -1.1919  -1.1614  -1.1498  -1.1295  -1.1283  -1.1271
    -1.0936  -1.0769  -1.0763  -1.0749  -1.0666  -1.0660  -1.0606  -1.0606
    -1.0300  -1.0246  -1.0230  -1.0097  -1.0069  -1.0033  -1.0026  -0.9853
    -0.9679  -0.9656  -0.9382  -0.9381  -0.8557  -0.8388  -0.8378  -0.8368
    -0.8355  -0.8307  -0.8302  -0.8204  -0.8011  -0.7788  -0.7782  -0.7735
    -0.7732  -0.7562  -0.7398  -0.7390  -0.7353  -0.7202  -0.6404  -0.6391
    -0.6119  -0.6110  -0.6016  -0.6010  -0.5941  -0.5929  -0.5926  -0.5868
    -0.5855  -0.5682  -0.5372  -0.5236  -0.5052  -0.5046  -0.4959  -0.4957
    -0.4884  -0.4876  -0.4809  -0.4780  -0.4771  -0.4593  -0.4566  -0.4564
    -0.4252  -0.4242  -0.4237  -0.4071  -0.4063  -0.3838  -0.3649  -0.3577
    -0.3564  -0.3477  -0.3450  -0.2801  -0.2792  -0.2619  -0.2610  -0.1986
    -0.1978  -0.1959  -0.1908  -0.1706   0.0403   0.0434   0.3827   0.3828
     0.4586   0.4618   0.6090   0.6395   0.6641   0.7939   0.7950   1.1730
     1.2401   1.2405   1.4742   1.4748   1.5317   1.8409   1.8429   1.8727
     1.8732   1.9126   1.9133   2.0652   2.0679   2.2424   2.2425   2.2554
     2.3986   2.3997   2.4446   2.6553   3.0172   3.0231   3.0625   3.0631
     3.0707   3.0712   3.3972   3.3987   3.7322   3.7335   3.8053   4.0671
     4.1947   4.1964   4.3949   4.3973   4.4848   4.4861   4.5640   4.7248
     4.7271   4.8199   4.8206   5.1097   5.1707   5.1747   5.3631   5.3682
     5.5118   5.5134   5.5173   5.5182   5.6617   5.6624   5.7132   5.8659
     6.2431   6.3366   6.3425   6.3451   6.3494   6.3654   6.4752   6.5600
     6.5626   6.6756   6.6824   6.8362   6.9135   6.9149   7.1352   7.2198
     7.2329   7.2433   7.2533

          k = 0.0000-0.2887 0.1111 (136898 PWs)   bands (ev):

   -18.3860  -6.7092  -6.2077  -5.9145  -5.6271  -5.5608  -5.5602  -5.0039
    -5.0034  -4.8917  -4.8543  -4.7048  -4.6347  -4.6031  -4.6009  -4.5544
    -4.4838  -4.4835  -4.3465  -4.3043  -4.3041  -4.2846  -4.2826  -4.2815
    -4.1609  -4.1606  -4.0818  -4.0705  -4.0689  -4.0685  -4.0483  -4.0480
    -3.9843  -3.9266  -3.9265  -3.9144  -3.9042  -3.9035  -3.8929  -3.8920
    -3.8843  -3.8374  -3.8368  -3.8273  -3.8269  -3.8150  -3.8146  -3.7853
    -3.7800  -3.7796  -3.7468  -3.7456  -3.7275  -3.7256  -3.7065  -3.6635
    -3.6633  -3.6027  -3.6022  -3.5816  -3.5798  -3.5640  -3.4904  -3.4900
    -3.4820  -3.4808  -3.4651  -3.4645  -3.4413  -3.4410  -3.2900  -3.2887
    -3.2720  -3.2715  -3.2670  -3.2286  -3.2276  -3.2232  -3.2229  -3.1675
    -3.1667  -3.1485  -3.1475  -3.1097  -3.0868  -3.0857  -3.0642  -3.0563
    -3.0552  -3.0118  -3.0106  -2.9936  -2.9909  -2.9868  -2.9856  -2.9615
    -2.9606  -2.9170  -2.9165  -2.9116  -2.9099  -2.8953  -2.8478  -2.8464
    -2.8248  -2.8164  -2.8139  -2.7360  -2.7353  -2.7074  -2.7043  -2.6979
    -2.6909  -2.6685  -2.6400  -2.6395  -2.6293  -2.6201  -2.6181  -2.6154
    -2.6043  -2.5984  -2.5927  -2.5874  -2.5841  -2.5811  -2.5762  -2.5433
    -2.5238  -2.4937  -2.4791  -2.4753  -2.4752  -2.4588  -2.4584  -2.4563
    -2.4512  -2.4437  -2.4142  -2.4126  -2.4029  -2.3922  -2.3846  -2.3839
    -2.3821  -2.3568  -2.3552  -2.3441  -2.3374  -2.3352  -2.2788  -2.2694
    -2.2575  -2.2572  -2.2550  -2.2372  -2.2352  -2.2224  -2.2017  -2.2017
    -2.1969  -2.1962  -2.1857  -2.1742  -2.1738  -2.1597  -2.1454  -2.1442
    -2.0969  -2.0964  -2.0889  -2.0873  -2.0870  -2.0837  -2.0744  -2.0735
    -2.0707  -2.0695  -2.0574  -2.0539  -2.0532  -1.9393  -1.9389  -1.9094
    -1.9086  -1.9068  -1.8845  -1.8817  -1.8799  -1.8711  -1.8709  -1.8505
    -1.8499  -1.8460  -1.8452  -1.8386  -1.8073  -1.8068  -1.8061  -1.7775
    -1.7760  -1.7714  -1.7701  -1.7585  -1.7578  -1.6992  -1.6971  -1.6727
    -1.6724  -1.6639  -1.6587  -1.6364  -1.6353  -1.6309  -1.6300  -1.6277
    -1.6270  -1.6144  -1.6143  -1.5953  -1.5579  -1.5542  -1.5276  -1.5265
    -1.5155  -1.4782  -1.4768  -1.4450  -1.4444  -1.4344  -1.4336  -1.4206
    -1.4049  -1.4000  -1.3831  -1.3823  -1.3522  -1.3518  -1.3335  -1.3321
    -1.3003  -1.2994  -1.2873  -1.2340  -1.2335  -1.2297  -1.2286  -1.2102
    -1.2087  -1.1923  -1.1919  -1.1613  -1.1499  -1.1295  -1.1282  -1.1273
    -1.0934  -1.0773  -1.0761  -1.0749  -1.0666  -1.0660  -1.0606  -1.0606
    -1.0300  -1.0246  -1.0231  -1.0097  -1.0073  -1.0032  -1.0027  -0.9852
    -0.9678  -0.9657  -0.9385  -0.9379  -0.8557  -0.8390  -0.8379  -0.8366
    -0.8354  -0.8307  -0.8303  -0.8201  -0.8011  -0.7792  -0.7780  -0.7735
    -0.7731  -0.7558  -0.7401  -0.7390  -0.7352  -0.7202  -0.6403  -0.6393
    -0.6120  -0.6107  -0.6018  -0.6009  -0.5943  -0.5930  -0.5926  -0.5863
    -0.5860  -0.5681  -0.5370  -0.5236  -0.5055  -0.5047  -0.4960  -0.4956
    -0.4883  -0.4878  -0.4809  -0.4778  -0.4769  -0.4593  -0.4566  -0.4563
    -0.4250  -0.4243  -0.4238  -0.4070  -0.4063  -0.3839  -0.3647  -0.3576
    -0.3562  -0.3476  -0.3449  -0.2800  -0.2793  -0.2618  -0.2611  -0.1987
    -0.1974  -0.1962  -0.1920  -0.1705   0.0418   0.0429   0.3826   0.3828
     0.4596   0.4609   0.6088   0.6393   0.6639   0.7939   0.7948   1.1726
     1.2402   1.2405   1.4744   1.4748   1.5316   1.8411   1.8428   1.8729
     1.8734   1.9122   1.9134   2.0660   2.0675   2.2422   2.2426   2.2554
     2.3983   2.4000   2.4442   2.6554   3.0185   3.0223   3.0622   3.0633
     3.0704   3.0715   3.3977   3.3984   3.7309   3.7346   3.8061   4.0670
     4.1941   4.1974   4.3892   4.4015   4.4850   4.4859   4.5644   4.7249
     4.7265   4.8194   4.8208   5.1105   5.1697   5.1733   5.3578   5.3722
     5.5111   5.5138   5.5177   5.5180   5.6593   5.6629   5.7208   5.8651
     6.2468   6.3376   6.3425   6.3460   6.3486   6.3646   6.4675   6.5565
     6.5631   6.6627   6.6976   6.8382   6.9107   6.9178   7.1427   7.2203
     7.2290   7.2389   7.2596

          k = 0.0000 0.2887 0.1111 (136898 PWs)   bands (ev):

   -18.3860  -6.7092  -6.2077  -5.9145  -5.6271  -5.5608  -5.5602  -5.0039
    -5.0034  -4.8917  -4.8543  -4.7048  -4.6347  -4.6031  -4.6009  -4.5544
    -4.4838  -4.4835  -4.3465  -4.3043  -4.3041  -4.2846  -4.2826  -4.2815
    -4.1609  -4.1606  -4.0818  -4.0705  -4.0689  -4.0685  -4.0483  -4.0480
    -3.9843  -3.9266  -3.9265  -3.9144  -3.9042  -3.9035  -3.8929  -3.8920
    -3.8843  -3.8374  -3.8368  -3.8273  -3.8269  -3.8150  -3.8146  -3.7853
    -3.7800  -3.7796  -3.7468  -3.7456  -3.7275  -3.7256  -3.7065  -3.6635
    -3.6633  -3.6027  -3.6022  -3.5816  -3.5798  -3.5640  -3.4904  -3.4900
    -3.4820  -3.4808  -3.4651  -3.4645  -3.4413  -3.4410  -3.2900  -3.2887
    -3.2720  -3.2715  -3.2670  -3.2286  -3.2276  -3.2232  -3.2229  -3.1675
    -3.1667  -3.1485  -3.1475  -3.1097  -3.0868  -3.0857  -3.0642  -3.0564
    -3.0552  -3.0118  -3.0106  -2.9936  -2.9909  -2.9868  -2.9856  -2.9615
    -2.9606  -2.9170  -2.9165  -2.9116  -2.9099  -2.8953  -2.8478  -2.8464
    -2.8248  -2.8164  -2.8139  -2.7360  -2.7353  -2.7074  -2.7043  -2.6979
    -2.6909  -2.6686  -2.6400  -2.6395  -2.6293  -2.6201  -2.6181  -2.6154
    -2.6043  -2.5984  -2.5927  -2.5874  -2.5841  -2.5811  -2.5762  -2.5433
    -2.5238  -2.4937  -2.4791  -2.4753  -2.4752  -2.4588  -2.4584  -2.4563
    -2.4512  -2.4436  -2.4142  -2.4126  -2.4029  -2.3922  -2.3846  -2.3839
    -2.3821  -2.3568  -2.3552  -2.3441  -2.3374  -2.3352  -2.2788  -2.2694
    -2.2575  -2.2572  -2.2550  -2.2372  -2.2352  -2.2224  -2.2018  -2.2017
    -2.1969  -2.1962  -2.1857  -2.1742  -2.1738  -2.1597  -2.1454  -2.1442
    -2.0969  -2.0964  -2.0889  -2.0873  -2.0870  -2.0837  -2.0744  -2.0735
    -2.0707  -2.0695  -2.0574  -2.0539  -2.0532  -1.9393  -1.9389  -1.9094
    -1.9086  -1.9068  -1.8845  -1.8817  -1.8799  -1.8711  -1.8709  -1.8505
    -1.8499  -1.8460  -1.8452  -1.8386  -1.8073  -1.8068  -1.8061  -1.7775
    -1.7760  -1.7714  -1.7701  -1.7585  -1.7578  -1.6992  -1.6971  -1.6727
    -1.6724  -1.6639  -1.6587  -1.6364  -1.6353  -1.6309  -1.6300  -1.6277
    -1.6270  -1.6144  -1.6143  -1.5953  -1.5579  -1.5542  -1.5276  -1.5265
    -1.5155  -1.4782  -1.4768  -1.4450  -1.4444  -1.4344  -1.4336  -1.4206
    -1.4049  -1.4000  -1.3831  -1.3823  -1.3522  -1.3518  -1.3335  -1.3321
    -1.3003  -1.2994  -1.2873  -1.2340  -1.2335  -1.2297  -1.2286  -1.2102
    -1.2087  -1.1923  -1.1919  -1.1613  -1.1499  -1.1295  -1.1282  -1.1273
    -1.0934  -1.0773  -1.0761  -1.0749  -1.0666  -1.0660  -1.0606  -1.0606
    -1.0300  -1.0246  -1.0231  -1.0097  -1.0073  -1.0032  -1.0027  -0.9852
    -0.9678  -0.9657  -0.9385  -0.9379  -0.8557  -0.8390  -0.8379  -0.8366
    -0.8354  -0.8307  -0.8303  -0.8201  -0.8011  -0.7792  -0.7780  -0.7735
    -0.7731  -0.7558  -0.7401  -0.7390  -0.7352  -0.7202  -0.6403  -0.6393
    -0.6120  -0.6107  -0.6018  -0.6008  -0.5943  -0.5930  -0.5926  -0.5863
    -0.5860  -0.5681  -0.5370  -0.5236  -0.5055  -0.5047  -0.4960  -0.4956
    -0.4883  -0.4878  -0.4809  -0.4778  -0.4769  -0.4593  -0.4566  -0.4563
    -0.4250  -0.4243  -0.4238  -0.4070  -0.4063  -0.3839  -0.3647  -0.3576
    -0.3562  -0.3476  -0.3449  -0.2800  -0.2793  -0.2618  -0.2611  -0.1987
    -0.1974  -0.1962  -0.1920  -0.1705   0.0418   0.0428   0.3826   0.3828
     0.4596   0.4609   0.6088   0.6393   0.6639   0.7939   0.7948   1.1726
     1.2402   1.2405   1.4744   1.4748   1.5316   1.8411   1.8428   1.8729
     1.8734   1.9122   1.9134   2.0660   2.0675   2.2422   2.2426   2.2554
     2.3983   2.4000   2.4442   2.6554   3.0185   3.0224   3.0622   3.0633
     3.0704   3.0715   3.3977   3.3984   3.7309   3.7346   3.8061   4.0670
     4.1941   4.1974   4.3892   4.4015   4.4850   4.4859   4.5644   4.7249
     4.7265   4.8194   4.8208   5.1105   5.1697   5.1733   5.3578   5.3722
     5.5111   5.5138   5.5177   5.5180   5.6593   5.6629   5.7208   5.8651
     6.2468   6.3375   6.3426   6.3459   6.3486   6.3649   6.4676   6.5565
     6.5631   6.6624   6.6974   6.8377   6.9107   6.9178   7.1373   7.2202
     7.2285   7.2386   7.2597

     the Fermi energy is     1.3644 ev

!    total energy              =   -6564.20396674 Ry
     Harris-Foulkes estimate   =   -6564.20396674 Ry
     estimated scf accuracy    <          9.3E-10 Ry

     The total energy is the sum of the following terms:

     one-electron contribution =  -48612.02104788 Ry
     hartree contribution      =   24801.95062534 Ry
     xc contribution           =   -3162.28327921 Ry
     ewald contribution        =   20408.14758502 Ry
     smearing contrib. (-TS)   =       0.00214998 Ry

     convergence has been achieved in  26 iterations

     Writing output data file 5140421.save

     init_run     :    167.38s CPU    177.99s WALL (       1 calls)
     electrons    :   9870.66s CPU  10495.42s WALL (       1 calls)

     Called by init_run:
     wfcinit      :    140.22s CPU    150.23s WALL (       1 calls)
     potinit      :      6.70s CPU      6.94s WALL (       1 calls)

     Called by electrons:
     c_bands      :   8645.54s CPU   9163.74s WALL (      27 calls)
     sum_band     :   1023.17s CPU   1116.43s WALL (      27 calls)
     v_of_rho     :     14.14s CPU     15.75s WALL (      27 calls)
     newd         :    190.02s CPU    193.27s WALL (      27 calls)
     mix_rho      :      2.71s CPU      3.04s WALL (      27 calls)

     Called by c_bands:
     init_us_2    :     15.12s CPU     15.58s WALL (     660 calls)
     cegterg      :   8373.29s CPU   8846.86s WALL (     324 calls)

     Called by *egterg:
     h_psi        :   3185.97s CPU   3618.33s WALL (    1653 calls)
     s_psi        :    457.24s CPU    459.62s WALL (    1653 calls)
     g_psi        :      6.40s CPU      6.45s WALL (    1317 calls)
     cdiaghg      :   2089.26s CPU   2095.63s WALL (    1629 calls)

     Called by h_psi:
     add_vuspsi   :    456.73s CPU    459.06s WALL (    1653 calls)

     General routines
     calbec       :   1083.30s CPU   1087.20s WALL (    1977 calls)
     fft          :     83.14s CPU     85.91s WALL (     432 calls)
     ffts         :      1.33s CPU      1.59s WALL (      54 calls)
     fftw         :   1999.04s CPU   2432.49s WALL (  778120 calls)
     interpolate  :      3.49s CPU      4.20s WALL (      54 calls)
     davcio       :      0.01s CPU      2.07s WALL (      12 calls)

     Parallel routines
     fft_scatter  :   1275.63s CPU   1547.34s WALL (  778606 calls)

     PWSCF        :     2h47m CPU        2h58m WALL


   This run was terminated on:  17:13:45  13Aug2015            

=------------------------------------------------------------------------------=
   JOB DONE.
=------------------------------------------------------------------------------=
