Setting SGE environment for SCC

     Program PWSCF v.5.1.2 starts on 13Aug2015 at 14:15:49 

     This program is part of the open-source Quantum ESPRESSO suite
     for quantum simulation of materials; please cite
         "P. Giannozzi et al., J. Phys.:Condens. Matter 21 395502 (2009);
          URL http://www.quantum-espresso.org", 
     in publications or presentations arising from this work. More details at
     http://www.quantum-espresso.org/quote

     Parallel version (MPI), running on    32 processors
     R & G space division:  proc/nbgrp/npool/nimage =      32
     Reading input from top.O1.Au50.d.3.4.phi.45.psi.0.in
Warning: card &IONS ignored
Warning: card / ignored
Warning: card &CELL ignored
Warning: card / ignored

     Current dimensions of program PWSCF are:
     Max number of different atomic species (ntypx) = 10
     Max number of k-points (npk) =  40000
     Max angular momentum in pseudopotentials (lmaxx) =  3

     Subspace diagonalization in iterative solution of the eigenvalue problem:
     a serial algorithm will be used


     Parallelization info
     --------------------
     sticks:   dense  smooth     PW     G-vecs:    dense   smooth      PW
     Min         445     223     58                96775    34191    4534
     Max         446     224     59                96790    34246    4540
     Sum       14269    7147   1867              3097177  1095093  145167


     Title: 
     top.O1.Au50.d.3.4.phi.45.psi.0                                             


     bravais-lattice index     =            4
     lattice parameter (alat)  =      22.7436  a.u.
     unit-cell volume          =   22924.1508 (a.u.)^3
     number of atoms/cell      =           67
     number of atomic types    =            3
     number of electrons       =       712.00
     number of Kohn-Sham states=          427
     kinetic-energy cutoff     =      50.0000  Ry
     charge density cutoff     =     400.0000  Ry
     convergence threshold     =      1.0E-08
     mixing beta               =       0.7000
     number of iterations used =            8  plain     mixing
     Exchange-correlation      =  SLA  PW   PBE  PBE ( 1  4  3  4 0 0)

     celldm(1)=  22.743643  celldm(2)=   0.000000  celldm(3)=   2.250000
     celldm(4)=   0.000000  celldm(5)=   0.000000  celldm(6)=   0.000000

     crystal axes: (cart. coord. in units of alat)
               a(1) = (   1.000000   0.000000   0.000000 )  
               a(2) = (  -0.500000   0.866025   0.000000 )  
               a(3) = (   0.000000   0.000000   2.250000 )  

     reciprocal axes: (cart. coord. in units 2 pi/alat)
               b(1) = (  1.000000  0.577350 -0.000000 )  
               b(2) = (  0.000000  1.154701  0.000000 )  
               b(3) = (  0.000000 -0.000000  0.444444 )  


     PseudoPot. # 1 for Au read from file:
     /home/scc/andrejb/qe/pseudo/Au.pbe-nd-van.UPF
     MD5 check sum: 458681b50f36d87ef23c61b04bba420a
     Pseudo is Ultrasoft + core correction, Zval = 11.0
     Generated by new atomic code, or converted to UPF format
     Using radial grid of  985 points,  3 beta functions with: 
                l(1) =   1
                l(2) =   2
                l(3) =   2
     Q(r) pseudized with  8 coefficients,  rinner =    1.100   1.100   1.100
                                                       1.100   1.100

     PseudoPot. # 2 for H  read from file:
     /home/scc/andrejb/qe/pseudo/H.pbe-van_ak.UPF
     MD5 check sum: 403db7282739603aa925980fa9b8608d
     Pseudo is Ultrasoft, Zval =  1.0
     Generated by new atomic code, or converted to UPF format
     Using radial grid of  615 points,  1 beta functions with: 
                l(1) =   0
     Q(r) pseudized with  8 coefficients,  rinner =    0.800

     PseudoPot. # 3 for O  read from file:
     /home/scc/andrejb/qe/pseudo/O.pbe-van_ak.UPF
     MD5 check sum: 4b8c549914a63cae506c6ff22b5af4fe
     Pseudo is Ultrasoft, Zval =  6.0
     Generated by new atomic code, or converted to UPF format
     Using radial grid of  737 points,  4 beta functions with: 
                l(1) =   0
                l(2) =   0
                l(3) =   1
                l(4) =   1
     Q(r) pseudized with  8 coefficients,  rinner =    0.800   0.800   0.800


     atomic species   valence    mass     pseudopotential
        Au            11.00   196.96657     Au( 1.00)
        H              1.00     1.01000     H ( 1.00)
        O              6.00    16.00000     O ( 1.00)

     No symmetry found



   Cartesian axes

     site n.     atom                  positions (alat units)
         1           O   tau(   1) = (   0.4790780   0.3968269   0.8954964  )
         2           H   tau(   2) = (   0.4731484   0.3321400   0.9437499  )
         3           H   tau(   3) = (   0.4848144   0.4595658   0.9462571  )
         4           Au  tau(   4) = (   0.3540481   0.6132292   0.0000000  )
         5           Au  tau(   5) = (   0.4790062   0.3967954   0.0000000  )
         6           Au  tau(   6) = (   0.6039644   0.1803616   0.0000000  )
         7           Au  tau(   7) = (   0.7289225  -0.0360723   0.0000000  )
         8           Au  tau(   8) = (   0.1041318   0.6132292   0.0000000  )
         9           Au  tau(   9) = (   0.2290899   0.3967954   0.0000000  )
        10           Au  tau(  10) = (   0.3540481   0.1803616   0.0000000  )
        11           Au  tau(  11) = (   0.4790062  -0.0360723   0.0000000  )
        12           Au  tau(  12) = (  -0.1457845   0.6132292   0.0000000  )
        13           Au  tau(  13) = (  -0.0208264   0.3967954   0.0000000  )
        14           Au  tau(  14) = (   0.1041318   0.1803616   0.0000000  )
        15           Au  tau(  15) = (   0.2290899  -0.0360723   0.0000000  )
        16           Au  tau(  16) = (  -0.3957008   0.6132292   0.0000000  )
        17           Au  tau(  17) = (  -0.2707426   0.3967954   0.0000000  )
        18           Au  tau(  18) = (  -0.1457845   0.1803616   0.0000000  )
        19           Au  tau(  19) = (  -0.0208264  -0.0360723   0.0000000  )
        20           Au  tau(  20) = (   0.4790062   0.6853738   0.2040557  )
        21           Au  tau(  21) = (   0.6039644   0.4689400   0.2040557  )
        22           Au  tau(  22) = (   0.7289225   0.2525062   0.2040557  )
        23           Au  tau(  23) = (   0.8538806   0.0360723   0.2040557  )
        24           Au  tau(  24) = (   0.2290899   0.6853738   0.2040557  )
        25           Au  tau(  25) = (   0.3540481   0.4689400   0.2040557  )
        26           Au  tau(  26) = (   0.4790062   0.2525062   0.2040557  )
        27           Au  tau(  27) = (   0.6039644   0.0360723   0.2040557  )
        28           Au  tau(  28) = (  -0.0208264   0.6853738   0.2040557  )
        29           Au  tau(  29) = (   0.1041318   0.4689400   0.2040557  )
        30           Au  tau(  30) = (   0.2290899   0.2525062   0.2040557  )
        31           Au  tau(  31) = (   0.3540481   0.0360723   0.2040557  )
        32           Au  tau(  32) = (  -0.2707426   0.6853738   0.2040557  )
        33           Au  tau(  33) = (  -0.1457845   0.4689400   0.2040557  )
        34           Au  tau(  34) = (  -0.0208264   0.2525062   0.2040557  )
        35           Au  tau(  35) = (   0.1041318   0.0360723   0.2040557  )
        36           Au  tau(  36) = (   0.3541162   0.7576593   0.4066483  )
        37           Au  tau(  37) = (   0.4791000   0.5411421   0.4066696  )
        38           Au  tau(  38) = (   0.6040570   0.3246862   0.4066618  )
        39           Au  tau(  39) = (   0.7290270   0.1081684   0.4066530  )
        40           Au  tau(  40) = (   0.1041162   0.7576236   0.4066247  )
        41           Au  tau(  41) = (   0.2291001   0.5411062   0.4066455  )
        42           Au  tau(  42) = (   0.3540567   0.3246505   0.4066380  )
        43           Au  tau(  43) = (   0.4790276   0.1081324   0.4066292  )
        44           Au  tau(  44) = (  -0.1458201   0.7576104   0.4066225  )
        45           Au  tau(  45) = (  -0.0208365   0.5410930   0.4066438  )
        46           Au  tau(  46) = (   0.1041202   0.3246372   0.4066359  )
        47           Au  tau(  47) = (   0.2290908   0.1081193   0.4066273  )
        48           Au  tau(  48) = (  -0.3958167   0.7575791   0.4065812  )
        49           Au  tau(  49) = (  -0.2708328   0.5410617   0.4066025  )
        50           Au  tau(  50) = (  -0.1458763   0.3246061   0.4065947  )
        51           Au  tau(  51) = (  -0.0209056   0.1080882   0.4065858  )
        52           Au  tau(  52) = (   0.3541084   0.6133344   0.6129762  )
        53           Au  tau(  53) = (   0.4790780   0.3968269   0.6129968  )
        54           Au  tau(  54) = (   0.6040356   0.1803811   0.6129859  )
        55           Au  tau(  55) = (   0.7290165  -0.0361221   0.6129385  )
        56           Au  tau(  56) = (   0.1041243   0.6133091   0.6130023  )
        57           Au  tau(  57) = (   0.2290941   0.3968013   0.6130241  )
        58           Au  tau(  58) = (   0.3540515   0.1803552   0.6130121  )
        59           Au  tau(  59) = (   0.4790323  -0.0361475   0.6129659  )
        60           Au  tau(  60) = (  -0.1458030   0.6133014   0.6129980  )
        61           Au  tau(  61) = (  -0.0208339   0.3967936   0.6130189  )
        62           Au  tau(  62) = (   0.1041239   0.1803477   0.6130083  )
        63           Au  tau(  63) = (   0.2291046  -0.0361554   0.6129607  )
        64           Au  tau(  64) = (  -0.3957908   0.6132739   0.6129471  )
        65           Au  tau(  65) = (  -0.2708208   0.3967658   0.6129688  )
        66           Au  tau(  66) = (  -0.1458636   0.1803200   0.6129569  )
        67           Au  tau(  67) = (  -0.0208823  -0.0361826   0.6129110  )

     number of k points=    12  Marzari-Vanderbilt smearing, width (Ry)=  0.0200
                       cart. coord. in units 2pi/alat
        k(    1) = (   0.2500000   0.4330127   0.1111111), wk =   0.1666667
        k(    2) = (   0.2500000  -0.1443376   0.1111111), wk =   0.1666667
        k(    3) = (  -0.2500000  -0.4330127   0.1111111), wk =   0.1666667
        k(    4) = (  -0.2500000   0.4330127  -0.1111111), wk =   0.1666667
        k(    5) = (   0.2500000  -0.4330127  -0.1111111), wk =   0.1666667
        k(    6) = (   0.5000000   0.0000000   0.1111111), wk =   0.1666667
        k(    7) = (  -0.5000000   0.0000000   0.1111111), wk =   0.1666667
        k(    8) = (  -0.2500000   0.1443376   0.1111111), wk =   0.1666667
        k(    9) = (  -0.2500000  -0.1443376  -0.1111111), wk =   0.1666667
        k(   10) = (   0.2500000   0.1443376  -0.1111111), wk =   0.1666667
        k(   11) = (   0.0000000  -0.2886751   0.1111111), wk =   0.1666667
        k(   12) = (   0.0000000   0.2886751   0.1111111), wk =   0.1666667

     Dense  grid:  3097177 G-vectors     FFT dimensions: ( 150, 150, 360)

     Smooth grid:  1095093 G-vectors     FFT dimensions: ( 108, 108, 240)

     Largest allocated arrays     est. size (Mb)     dimensions
        Kohn-Sham Wavefunctions        28.01 Mb     (    4299,  427)
        NL pseudopotentials            55.23 Mb     (    4299,  842)
        Each V/rho on FFT grid          4.12 Mb     (  270000)
        Each G-vector array             0.74 Mb     (   96788)
        G-vector shells                 0.16 Mb     (   21404)
     Largest temporary arrays     est. size (Mb)     dimensions
        Auxiliary wavefunctions       112.04 Mb     (    4299, 1708)
        Each subspace H/S matrix       44.51 Mb     (    1708, 1708)
        Each <psi_i|beta_j> matrix      5.49 Mb     (     842,  427)
        Arrays for rho mixing          32.96 Mb     (  270000,    8)

     Initial potential from superposition of free atoms
     Check: negative starting charge=   -1.730113

     starting charge  711.25682, renormalised to  712.00000

     negative rho (up, down):  1.732E+00 0.000E+00
     Starting wfc are  582 randomized atomic wfcs

     total cpu time spent up to now is      199.2 secs

     Self-consistent Calculation

     iteration #  1     ecut=    50.00 Ry     beta=0.70
     Davidson diagonalization with overlap
     ethr =  1.00E-02,  avg # of iterations =  3.0

     Threshold (ethr) on eigenvalues was too large:
     Diagonalizing with lowered threshold

     Davidson diagonalization with overlap
     ethr =  4.34E-04,  avg # of iterations =  2.6

     negative rho (up, down):  1.714E+00 0.000E+00

     total cpu time spent up to now is     1008.5 secs

     total energy              =   -6562.22466086 Ry
     Harris-Foulkes estimate   =   -6564.99474275 Ry
     estimated scf accuracy    <       3.56692729 Ry

     iteration #  2     ecut=    50.00 Ry     beta=0.70
     Davidson diagonalization with overlap
     ethr =  5.01E-04,  avg # of iterations = 11.8

     negative rho (up, down):  1.713E+00 0.000E+00

     total cpu time spent up to now is     2214.7 secs

     total energy              =   -6554.82279384 Ry
     Harris-Foulkes estimate   =   -6570.89992167 Ry
     estimated scf accuracy    <      91.15190269 Ry

     iteration #  3     ecut=    50.00 Ry     beta=0.70
     Davidson diagonalization with overlap
     ethr =  5.01E-04,  avg # of iterations =  6.0

     negative rho (up, down):  1.728E+00 0.000E+00

     total cpu time spent up to now is     3002.6 secs

     total energy              =   -6562.65877584 Ry
     Harris-Foulkes estimate   =   -6564.90294818 Ry
     estimated scf accuracy    <       9.56588966 Ry

     iteration #  4     ecut=    50.00 Ry     beta=0.70
     Davidson diagonalization with overlap
     ethr =  5.01E-04,  avg # of iterations =  7.3

     negative rho (up, down):  1.731E+00 0.000E+00

     total cpu time spent up to now is     3506.1 secs

     total energy              =   -6563.01886141 Ry
     Harris-Foulkes estimate   =   -6565.07125737 Ry
     estimated scf accuracy    <      18.04351350 Ry

     iteration #  5     ecut=    50.00 Ry     beta=0.70
     Davidson diagonalization with overlap
     ethr =  5.01E-04,  avg # of iterations =  5.8

     negative rho (up, down):  1.743E+00 0.000E+00

     total cpu time spent up to now is     3976.5 secs

     total energy              =   -6563.98760969 Ry
     Harris-Foulkes estimate   =   -6564.52901607 Ry
     estimated scf accuracy    <       4.43217684 Ry

     iteration #  6     ecut=    50.00 Ry     beta=0.70
     Davidson diagonalization with overlap
     ethr =  5.01E-04,  avg # of iterations =  2.9

     negative rho (up, down):  1.747E+00 0.000E+00

     total cpu time spent up to now is     4352.9 secs

     total energy              =   -6564.18768361 Ry
     Harris-Foulkes estimate   =   -6564.25099874 Ry
     estimated scf accuracy    <       0.18977463 Ry

     iteration #  7     ecut=    50.00 Ry     beta=0.70
     Davidson diagonalization with overlap
     ethr =  2.67E-05,  avg # of iterations = 10.5

     negative rho (up, down):  1.750E+00 0.000E+00

     total cpu time spent up to now is     4976.0 secs

     total energy              =   -6564.20068006 Ry
     Harris-Foulkes estimate   =   -6564.23539422 Ry
     estimated scf accuracy    <       0.14890274 Ry

     iteration #  8     ecut=    50.00 Ry     beta=0.70
     Davidson diagonalization with overlap
     ethr =  2.09E-05,  avg # of iterations =  3.1

     negative rho (up, down):  1.751E+00 0.000E+00

     total cpu time spent up to now is     5351.9 secs

     total energy              =   -6564.20434439 Ry
     Harris-Foulkes estimate   =   -6564.22104192 Ry
     estimated scf accuracy    <       0.06188486 Ry

     iteration #  9     ecut=    50.00 Ry     beta=0.70
     Davidson diagonalization with overlap
     ethr =  8.69E-06,  avg # of iterations = 12.4

     negative rho (up, down):  1.752E+00 0.000E+00

     total cpu time spent up to now is     5918.9 secs

     total energy              =   -6564.20398913 Ry
     Harris-Foulkes estimate   =   -6564.21228317 Ry
     estimated scf accuracy    <       0.02657873 Ry

     iteration # 10     ecut=    50.00 Ry     beta=0.70
     Davidson diagonalization with overlap
     ethr =  3.73E-06,  avg # of iterations =  8.2

     negative rho (up, down):  1.754E+00 0.000E+00

     total cpu time spent up to now is     6415.7 secs

     total energy              =   -6564.20354924 Ry
     Harris-Foulkes estimate   =   -6564.20744022 Ry
     estimated scf accuracy    <       0.01224296 Ry

     iteration # 11     ecut=    50.00 Ry     beta=0.70
     Davidson diagonalization with overlap
     ethr =  1.72E-06,  avg # of iterations =  7.1

     negative rho (up, down):  1.755E+00 0.000E+00

     total cpu time spent up to now is     6894.8 secs

     total energy              =   -6564.20354897 Ry
     Harris-Foulkes estimate   =   -6564.20532173 Ry
     estimated scf accuracy    <       0.00621564 Ry

     iteration # 12     ecut=    50.00 Ry     beta=0.70
     Davidson diagonalization with overlap
     ethr =  8.73E-07,  avg # of iterations =  5.2

     negative rho (up, down):  1.755E+00 0.000E+00

     total cpu time spent up to now is     7310.1 secs

     total energy              =   -6564.20346315 Ry
     Harris-Foulkes estimate   =   -6564.20419185 Ry
     estimated scf accuracy    <       0.00113596 Ry

     iteration # 13     ecut=    50.00 Ry     beta=0.70
     Davidson diagonalization with overlap
     c_bands:  1 eigenvalues not converged
     c_bands:  1 eigenvalues not converged
     c_bands:  1 eigenvalues not converged
     c_bands:  1 eigenvalues not converged
     ethr =  1.60E-07,  avg # of iterations = 11.3

     negative rho (up, down):  1.755E+00 0.000E+00

     total cpu time spent up to now is     7913.5 secs

     total energy              =   -6564.20358801 Ry
     Harris-Foulkes estimate   =   -6564.20385458 Ry
     estimated scf accuracy    <       0.00090097 Ry

     iteration # 14     ecut=    50.00 Ry     beta=0.70
     Davidson diagonalization with overlap
     ethr =  1.27E-07,  avg # of iterations =  2.3

     negative rho (up, down):  1.755E+00 0.000E+00

     total cpu time spent up to now is     8288.2 secs

     total energy              =   -6564.20371043 Ry
     Harris-Foulkes estimate   =   -6564.20374401 Ry
     estimated scf accuracy    <       0.00010970 Ry

     iteration # 15     ecut=    50.00 Ry     beta=0.70
     Davidson diagonalization with overlap
     ethr =  1.54E-08,  avg # of iterations =  3.0

     negative rho (up, down):  1.755E+00 0.000E+00

     total cpu time spent up to now is     8707.8 secs

     total energy              =   -6564.20370081 Ry
     Harris-Foulkes estimate   =   -6564.20375741 Ry
     estimated scf accuracy    <       0.00040201 Ry

     iteration # 16     ecut=    50.00 Ry     beta=0.70
     Davidson diagonalization with overlap
     ethr =  1.54E-08,  avg # of iterations =  2.0

     negative rho (up, down):  1.755E+00 0.000E+00

     total cpu time spent up to now is     9075.0 secs

     total energy              =   -6564.20372102 Ry
     Harris-Foulkes estimate   =   -6564.20374105 Ry
     estimated scf accuracy    <       0.00013802 Ry

     iteration # 17     ecut=    50.00 Ry     beta=0.70
     Davidson diagonalization with overlap
     ethr =  1.54E-08,  avg # of iterations =  1.8

     negative rho (up, down):  1.755E+00 0.000E+00

     total cpu time spent up to now is     9439.5 secs

     total energy              =   -6564.20372884 Ry
     Harris-Foulkes estimate   =   -6564.20373759 Ry
     estimated scf accuracy    <       0.00004518 Ry

     iteration # 18     ecut=    50.00 Ry     beta=0.70
     Davidson diagonalization with overlap
     ethr =  6.35E-09,  avg # of iterations =  2.0

     negative rho (up, down):  1.755E+00 0.000E+00

     total cpu time spent up to now is     9807.1 secs

     total energy              =   -6564.20373177 Ry
     Harris-Foulkes estimate   =   -6564.20373490 Ry
     estimated scf accuracy    <       0.00001145 Ry

     iteration # 19     ecut=    50.00 Ry     beta=0.70
     Davidson diagonalization with overlap
     ethr =  1.61E-09,  avg # of iterations =  2.0

     negative rho (up, down):  1.755E+00 0.000E+00

     total cpu time spent up to now is    10174.4 secs

     total energy              =   -6564.20373320 Ry
     Harris-Foulkes estimate   =   -6564.20373370 Ry
     estimated scf accuracy    <       0.00000164 Ry

     iteration # 20     ecut=    50.00 Ry     beta=0.70
     Davidson diagonalization with overlap
     ethr =  2.30E-10,  avg # of iterations =  2.0

     negative rho (up, down):  1.755E+00 0.000E+00

     total cpu time spent up to now is    10576.4 secs

     total energy              =   -6564.20373343 Ry
     Harris-Foulkes estimate   =   -6564.20373366 Ry
     estimated scf accuracy    <       0.00000097 Ry

     iteration # 21     ecut=    50.00 Ry     beta=0.70
     Davidson diagonalization with overlap
     ethr =  1.36E-10,  avg # of iterations =  2.0

     negative rho (up, down):  1.755E+00 0.000E+00

     total cpu time spent up to now is    10939.4 secs

     total energy              =   -6564.20373354 Ry
     Harris-Foulkes estimate   =   -6564.20373360 Ry
     estimated scf accuracy    <       0.00000024 Ry

     iteration # 22     ecut=    50.00 Ry     beta=0.70
     Davidson diagonalization with overlap
     ethr =  3.33E-11,  avg # of iterations =  2.0

     negative rho (up, down):  1.755E+00 0.000E+00

     total cpu time spent up to now is    11237.6 secs

     total energy              =   -6564.20373356 Ry
     Harris-Foulkes estimate   =   -6564.20373357 Ry
     estimated scf accuracy    <       0.00000002 Ry

     iteration # 23     ecut=    50.00 Ry     beta=0.70
     Davidson diagonalization with overlap
     ethr =  2.88E-12,  avg # of iterations =  3.0

     negative rho (up, down):  1.755E+00 0.000E+00

     total cpu time spent up to now is    11651.2 secs

     total energy              =   -6564.20373357 Ry
     Harris-Foulkes estimate   =   -6564.20373357 Ry
     estimated scf accuracy    <       0.00000003 Ry

     iteration # 24     ecut=    50.00 Ry     beta=0.70
     Davidson diagonalization with overlap
     ethr =  2.88E-12,  avg # of iterations =  2.0

     negative rho (up, down):  1.755E+00 0.000E+00

     total cpu time spent up to now is    11995.6 secs

     total energy              =   -6564.20373357 Ry
     Harris-Foulkes estimate   =   -6564.20373357 Ry
     estimated scf accuracy    <       0.00000001 Ry

     iteration # 25     ecut=    50.00 Ry     beta=0.70
     Davidson diagonalization with overlap
     ethr =  1.59E-12,  avg # of iterations =  2.0

     negative rho (up, down):  1.755E+00 0.000E+00

     total cpu time spent up to now is    12329.1 secs

     End of self-consistent calculation

          k = 0.2500 0.4330 0.1111 (136853 PWs)   bands (ev):

   -18.8151  -6.6196  -6.2410  -5.8409  -5.8406  -5.1643  -4.8168  -4.8166
    -4.7899  -4.7891  -4.3689  -4.3687  -4.2870  -4.2478  -4.2430  -4.2429
    -4.2004  -4.0848  -4.0843  -4.0397  -3.9934  -3.9934  -3.9905  -3.9905
    -3.9421  -3.9418  -3.9136  -3.9130  -3.8923  -3.8730  -3.8720  -3.7952
    -3.7952  -3.7765  -3.7763  -3.7326  -3.7326  -3.7321  -3.7111  -3.7108
    -3.7079  -3.6333  -3.6332  -3.5716  -3.5715  -3.5547  -3.5544  -3.4929
    -3.4925  -3.4638  -3.4637  -3.4258  -3.4109  -3.4104  -3.3913  -3.3911
    -3.3886  -3.3878  -3.3822  -3.3622  -3.3015  -3.2951  -3.2946  -3.2741
    -3.2408  -3.2132  -3.2119  -3.1577  -3.1562  -3.1315  -3.1310  -3.1038
    -3.0780  -3.0416  -3.0399  -3.0048  -3.0034  -2.9673  -2.9633  -2.9615
    -2.9290  -2.9203  -2.8886  -2.8874  -2.8665  -2.8657  -2.8621  -2.8605
    -2.8591  -2.8556  -2.8511  -2.7970  -2.7388  -2.7380  -2.7371  -2.7367
    -2.7329  -2.7106  -2.7102  -2.6927  -2.6171  -2.6157  -2.6149  -2.6081
    -2.5600  -2.5548  -2.5541  -2.5331  -2.5327  -2.4816  -2.4641  -2.4639
    -2.4596  -2.4201  -2.4189  -2.4185  -2.3769  -2.3767  -2.3247  -2.2984
    -2.2983  -2.2948  -2.2945  -2.2723  -2.2722  -2.2673  -2.2595  -2.2593
    -2.2250  -2.1934  -2.1883  -2.1821  -2.1816  -2.1787  -2.1784  -2.1777
    -2.1775  -2.1583  -2.1441  -2.1432  -2.1426  -2.1398  -2.1383  -2.1273
    -2.1227  -2.1218  -2.0956  -2.0921  -2.0917  -2.0693  -2.0667  -2.0499
    -2.0497  -2.0236  -2.0229  -2.0223  -2.0212  -2.0149  -2.0143  -2.0140
    -2.0134  -1.9996  -1.9985  -1.9834  -1.9786  -1.9778  -1.8971  -1.8966
    -1.8818  -1.8817  -1.8633  -1.8627  -1.8421  -1.8293  -1.8291  -1.8098
    -1.7921  -1.7905  -1.7827  -1.7815  -1.7554  -1.7553  -1.7517  -1.7503
    -1.7445  -1.7334  -1.7049  -1.6766  -1.6574  -1.6552  -1.6355  -1.6309
    -1.6306  -1.5713  -1.5709  -1.5585  -1.5576  -1.4886  -1.4881  -1.4479
    -1.4299  -1.4281  -1.3960  -1.3956  -1.3689  -1.3678  -1.3489  -1.3481
    -1.3467  -1.3458  -1.3307  -1.2899  -1.2889  -1.2883  -1.2864  -1.2812
    -1.2802  -1.2517  -1.2495  -1.2488  -1.2145  -1.2041  -1.2026  -1.1977
    -1.1977  -1.1902  -1.1743  -1.1469  -1.1464  -1.1414  -1.1406  -1.1235
    -1.1196  -1.0754  -1.0630  -1.0617  -1.0611  -1.0377  -1.0373  -0.9926
    -0.9573  -0.9083  -0.9070  -0.9066  -0.9050  -0.9003  -0.8994  -0.8971
    -0.8857  -0.8850  -0.8355  -0.8344  -0.8193  -0.8177  -0.8036  -0.8001
    -0.7888  -0.7838  -0.7756  -0.7735  -0.7729  -0.7718  -0.7652  -0.7289
    -0.7249  -0.7154  -0.7146  -0.7128  -0.6988  -0.6974  -0.6682  -0.6591
    -0.6580  -0.6306  -0.6119  -0.6094  -0.5698  -0.5658  -0.5541  -0.5539
    -0.5450  -0.5444  -0.5380  -0.5364  -0.5332  -0.5316  -0.5036  -0.5034
    -0.4939  -0.4928  -0.4820  -0.4677  -0.4664  -0.4512  -0.4508  -0.4257
    -0.4174  -0.4155  -0.4036  -0.3522  -0.3503  -0.3499  -0.3459  -0.3397
    -0.3377  -0.3355  -0.3172  -0.3149  -0.3039  -0.3030  -0.3009  -0.3004
    -0.2592  -0.2576  -0.2569  -0.2503  -0.2492  -0.2423  -0.2413  -0.2367
    -0.2276  -0.2217  -0.2205  -0.1894  -0.1890  -0.1809  -0.1674  -0.1667
    -0.1141  -0.1132  -0.0855  -0.0850  -0.0765  -0.0759  -0.0432  -0.0330
    -0.0326  -0.0161  -0.0141  -0.0086   0.0647   0.0673   0.1773   0.5788
     0.5789   0.6044   0.6048   0.6661   0.6706   1.0171   1.0178   1.0309
     1.0314   1.2021   1.2688   1.3566   1.3639   1.6151   1.6276   2.2030
     2.2052   2.3331   2.3367   2.5425   2.5485   2.6154   2.6155   2.7038
     2.9786   2.9933   3.1602   3.3723   3.3797   3.4089   3.4098   3.4740
     3.5725   3.7320   3.7434   3.7806   4.0229   4.0235   4.0951   4.0992
     4.3394   4.3446   4.3727   4.5622   4.5636   4.6242   4.7088   4.9998
     5.0352   5.0385   5.2271   5.3178   5.3182   5.4044   5.4313   5.6039
     6.0470   6.1092   6.1142   6.1859   6.1881   6.1936   6.2643   6.3280
     6.3385   6.3426   6.3468   6.3955   6.4106   6.4115   6.4131   6.4204
     6.4683   6.6895   6.8145   6.8437   6.9979   7.0578   7.0610   7.0844
     7.1750   7.1980   7.2215

          k = 0.2500-0.1443 0.1111 (136898 PWs)   bands (ev):

   -18.8151  -6.6196  -6.4510  -5.6564  -5.3682  -5.3026  -5.3022  -4.7457
    -4.7454  -4.6330  -4.5961  -4.4464  -4.3755  -4.3436  -4.3431  -4.2962
    -4.2257  -4.2257  -4.0886  -4.0461  -4.0461  -4.0252  -4.0245  -4.0238
    -3.9028  -3.9027  -3.8238  -3.8123  -3.8107  -3.8106  -3.7901  -3.7901
    -3.7251  -3.6684  -3.6684  -3.6561  -3.6457  -3.6455  -3.6344  -3.6342
    -3.6262  -3.5788  -3.5787  -3.5692  -3.5690  -3.5572  -3.5570  -3.5259
    -3.5219  -3.5217  -3.4864  -3.4858  -3.4681  -3.4680  -3.4480  -3.4054
    -3.4054  -3.3442  -3.3442  -3.3230  -3.3221  -3.3055  -3.2320  -3.2318
    -3.2235  -3.2232  -3.2067  -3.2061  -3.1827  -3.1825  -3.0321  -3.0313
    -3.0141  -3.0128  -3.0086  -2.9745  -2.9696  -2.9662  -2.9646  -2.9288
    -2.9086  -2.9034  -2.8897  -2.8871  -2.8501  -2.8273  -2.8268  -2.8044
    -2.7972  -2.7958  -2.7523  -2.7514  -2.7333  -2.7316  -2.7279  -2.7258
    -2.7026  -2.7020  -2.6577  -2.6576  -2.6517  -2.6505  -2.6362  -2.5881
    -2.5874  -2.5638  -2.5562  -2.5548  -2.4766  -2.4764  -2.4464  -2.4458
    -2.4392  -2.4299  -2.4083  -2.3811  -2.3810  -2.3637  -2.3603  -2.3562
    -2.3561  -2.3435  -2.3351  -2.3339  -2.3260  -2.3256  -2.3179  -2.3171
    -2.2660  -2.2399  -2.2208  -2.2170  -2.2168  -2.2009  -2.2001  -2.1975
    -2.1974  -2.1866  -2.1565  -2.1561  -2.1447  -2.1385  -2.1261  -2.1259
    -2.1238  -2.0980  -2.0976  -2.0874  -2.0796  -2.0787  -2.0223  -2.0112
    -1.9994  -1.9988  -1.9976  -1.9779  -1.9777  -1.9643  -1.9437  -1.9436
    -1.9389  -1.9385  -1.9269  -1.9155  -1.9153  -1.9020  -1.8862  -1.8854
    -1.8385  -1.8380  -1.8294  -1.8286  -1.8278  -1.8254  -1.8158  -1.8153
    -1.8127  -1.8120  -1.7995  -1.7949  -1.7942  -1.6805  -1.6798  -1.6514
    -1.6512  -1.6487  -1.6276  -1.6232  -1.6219  -1.6133  -1.6129  -1.5929
    -1.5925  -1.5900  -1.5863  -1.5839  -1.5496  -1.5485  -1.5479  -1.5185
    -1.5180  -1.5125  -1.5124  -1.4989  -1.4987  -1.4412  -1.4384  -1.4149
    -1.4139  -1.4058  -1.3999  -1.3775  -1.3771  -1.3721  -1.3717  -1.3688
    -1.3686  -1.3561  -1.3560  -1.3373  -1.2998  -1.2975  -1.2681  -1.2678
    -1.2576  -1.2211  -1.2189  -1.1871  -1.1862  -1.1760  -1.1756  -1.1620
    -1.1460  -1.1437  -1.1253  -1.1239  -1.0941  -1.0936  -1.0752  -1.0743
    -1.0413  -1.0410  -1.0290  -0.9758  -0.9741  -0.9708  -0.9701  -0.9510
    -0.9506  -0.9342  -0.9340  -0.9031  -0.8916  -0.8721  -0.8697  -0.8692
    -0.8436  -0.8199  -0.8187  -0.8164  -0.8125  -0.8081  -0.8027  -0.8023
    -0.7832  -0.7720  -0.7650  -0.7636  -0.7525  -0.7478  -0.7447  -0.7404
    -0.7261  -0.7099  -0.7055  -0.6814  -0.6778  -0.5975  -0.5801  -0.5794
    -0.5790  -0.5767  -0.5724  -0.5712  -0.5599  -0.5413  -0.5208  -0.5188
    -0.5148  -0.5126  -0.4964  -0.4817  -0.4796  -0.4765  -0.4614  -0.3814
    -0.3811  -0.3541  -0.3513  -0.3443  -0.3416  -0.3358  -0.3345  -0.3344
    -0.3289  -0.3265  -0.3099  -0.2778  -0.2657  -0.2469  -0.2458  -0.2381
    -0.2369  -0.2305  -0.2286  -0.2221  -0.2192  -0.2184  -0.2010  -0.1986
    -0.1974  -0.1669  -0.1656  -0.1656  -0.1484  -0.1481  -0.1256  -0.0997
    -0.0991  -0.0897  -0.0889  -0.0217  -0.0210  -0.0034  -0.0031   0.0583
     0.0616   0.0620   0.0642   0.0901   0.2948   0.3026   0.6409   0.6410
     0.7135   0.7207   0.8670   0.8955   0.9214   1.0521   1.0537   1.4310
     1.4986   1.4986   1.7328   1.7329   1.7882   2.0941   2.1036   2.1316
     2.1325   2.1681   2.1749   2.3255   2.3257   2.5004   2.5009   2.5099
     2.6520   2.6623   2.7035   2.9135   3.2796   3.2799   3.3204   3.3226
     3.3280   3.3314   3.6564   3.6566   3.9879   3.9942   4.0594   4.3253
     4.4526   4.4573   4.6404   4.6536   4.7434   4.7457   4.8230   4.9828
     4.9865   5.0774   5.0792   5.3692   5.4279   5.4344   5.5018   5.6103
     5.6497   5.7707   5.7733   5.7756   5.7769   5.9195   5.9228   5.9797
     6.1873   6.4204   6.5074   6.6010   6.6013   6.6047   6.6079   6.6271
     6.7265   6.7778   6.8191   6.8229   6.9506   7.1236   7.1550   7.1780
     7.2028   7.3178   7.3775

          k =-0.2500-0.4330 0.1111 (136853 PWs)   bands (ev):

   -18.8151  -6.6196  -6.2410  -5.8409  -5.8406  -5.1643  -4.8168  -4.8166
    -4.7899  -4.7891  -4.3689  -4.3687  -4.2870  -4.2478  -4.2430  -4.2429
    -4.2004  -4.0848  -4.0843  -4.0397  -3.9934  -3.9934  -3.9905  -3.9905
    -3.9421  -3.9418  -3.9136  -3.9130  -3.8923  -3.8730  -3.8720  -3.7952
    -3.7952  -3.7765  -3.7763  -3.7326  -3.7326  -3.7321  -3.7111  -3.7108
    -3.7079  -3.6333  -3.6332  -3.5716  -3.5715  -3.5547  -3.5544  -3.4929
    -3.4925  -3.4638  -3.4637  -3.4258  -3.4109  -3.4104  -3.3913  -3.3911
    -3.3886  -3.3878  -3.3822  -3.3622  -3.3015  -3.2951  -3.2946  -3.2741
    -3.2408  -3.2132  -3.2119  -3.1577  -3.1562  -3.1315  -3.1310  -3.1038
    -3.0780  -3.0416  -3.0399  -3.0048  -3.0034  -2.9673  -2.9633  -2.9615
    -2.9290  -2.9203  -2.8886  -2.8874  -2.8665  -2.8657  -2.8621  -2.8605
    -2.8591  -2.8556  -2.8511  -2.7970  -2.7388  -2.7380  -2.7371  -2.7367
    -2.7329  -2.7106  -2.7102  -2.6927  -2.6171  -2.6157  -2.6149  -2.6081
    -2.5600  -2.5548  -2.5541  -2.5331  -2.5327  -2.4816  -2.4641  -2.4639
    -2.4596  -2.4201  -2.4189  -2.4185  -2.3769  -2.3767  -2.3247  -2.2984
    -2.2983  -2.2948  -2.2945  -2.2723  -2.2722  -2.2673  -2.2595  -2.2593
    -2.2250  -2.1934  -2.1883  -2.1821  -2.1816  -2.1787  -2.1784  -2.1777
    -2.1775  -2.1583  -2.1441  -2.1432  -2.1426  -2.1398  -2.1383  -2.1273
    -2.1227  -2.1218  -2.0956  -2.0921  -2.0917  -2.0693  -2.0667  -2.0499
    -2.0497  -2.0236  -2.0229  -2.0223  -2.0212  -2.0149  -2.0143  -2.0140
    -2.0134  -1.9996  -1.9985  -1.9834  -1.9786  -1.9778  -1.8971  -1.8966
    -1.8818  -1.8817  -1.8633  -1.8627  -1.8421  -1.8293  -1.8291  -1.8098
    -1.7921  -1.7905  -1.7827  -1.7815  -1.7554  -1.7553  -1.7517  -1.7503
    -1.7445  -1.7334  -1.7049  -1.6766  -1.6574  -1.6552  -1.6355  -1.6309
    -1.6306  -1.5713  -1.5709  -1.5585  -1.5576  -1.4886  -1.4881  -1.4479
    -1.4299  -1.4281  -1.3960  -1.3956  -1.3689  -1.3678  -1.3489  -1.3481
    -1.3467  -1.3458  -1.3307  -1.2899  -1.2889  -1.2883  -1.2864  -1.2812
    -1.2802  -1.2517  -1.2495  -1.2488  -1.2145  -1.2041  -1.2026  -1.1977
    -1.1977  -1.1902  -1.1743  -1.1469  -1.1464  -1.1414  -1.1406  -1.1235
    -1.1196  -1.0754  -1.0630  -1.0617  -1.0611  -1.0377  -1.0373  -0.9926
    -0.9573  -0.9083  -0.9070  -0.9066  -0.9050  -0.9003  -0.8994  -0.8971
    -0.8857  -0.8850  -0.8355  -0.8344  -0.8193  -0.8177  -0.8036  -0.8001
    -0.7888  -0.7838  -0.7756  -0.7735  -0.7729  -0.7718  -0.7652  -0.7289
    -0.7249  -0.7154  -0.7146  -0.7128  -0.6988  -0.6974  -0.6682  -0.6591
    -0.6580  -0.6306  -0.6119  -0.6094  -0.5698  -0.5658  -0.5541  -0.5539
    -0.5450  -0.5444  -0.5380  -0.5364  -0.5332  -0.5316  -0.5036  -0.5034
    -0.4939  -0.4928  -0.4820  -0.4677  -0.4664  -0.4512  -0.4508  -0.4257
    -0.4174  -0.4155  -0.4036  -0.3522  -0.3503  -0.3499  -0.3459  -0.3397
    -0.3377  -0.3355  -0.3172  -0.3149  -0.3039  -0.3030  -0.3009  -0.3004
    -0.2592  -0.2576  -0.2569  -0.2503  -0.2492  -0.2423  -0.2413  -0.2367
    -0.2276  -0.2217  -0.2205  -0.1894  -0.1890  -0.1809  -0.1674  -0.1667
    -0.1141  -0.1132  -0.0855  -0.0850  -0.0765  -0.0759  -0.0432  -0.0330
    -0.0326  -0.0161  -0.0141  -0.0086   0.0647   0.0673   0.1773   0.5788
     0.5789   0.6044   0.6048   0.6661   0.6706   1.0171   1.0178   1.0309
     1.0314   1.2021   1.2688   1.3566   1.3639   1.6151   1.6276   2.2030
     2.2052   2.3331   2.3367   2.5425   2.5485   2.6154   2.6155   2.7038
     2.9786   2.9933   3.1602   3.3723   3.3797   3.4089   3.4098   3.4740
     3.5725   3.7320   3.7434   3.7806   4.0229   4.0235   4.0951   4.0992
     4.3394   4.3446   4.3727   4.5622   4.5636   4.6242   4.7088   4.9998
     5.0352   5.0385   5.2271   5.3178   5.3182   5.4044   5.4313   5.6039
     6.0470   6.1092   6.1142   6.1859   6.1881   6.1933   6.2643   6.3280
     6.3385   6.3426   6.3469   6.3958   6.4106   6.4115   6.4131   6.4205
     6.4688   6.6896   6.8145   6.8413   6.9978   7.0579   7.0608   7.0835
     7.1756   7.1981   7.2256

          k =-0.2500 0.4330-0.1111 (136853 PWs)   bands (ev):

   -18.8151  -6.6196  -6.2410  -5.8422  -5.8392  -5.1643  -4.8171  -4.8163
    -4.7910  -4.7879  -4.3694  -4.3681  -4.2870  -4.2478  -4.2431  -4.2427
    -4.2004  -4.0853  -4.0841  -4.0398  -3.9936  -3.9933  -3.9906  -3.9901
    -3.9422  -3.9419  -3.9150  -3.9118  -3.8922  -3.8733  -3.8716  -3.7958
    -3.7942  -3.7765  -3.7761  -3.7332  -3.7326  -3.7317  -3.7112  -3.7108
    -3.7079  -3.6336  -3.6330  -3.5725  -3.5705  -3.5548  -3.5543  -3.4928
    -3.4925  -3.4639  -3.4637  -3.4259  -3.4110  -3.4105  -3.3912  -3.3911
    -3.3885  -3.3879  -3.3822  -3.3622  -3.3014  -3.2952  -3.2946  -3.2739
    -3.2405  -3.2136  -3.2118  -3.1577  -3.1560  -3.1317  -3.1305  -3.1037
    -3.0781  -3.0416  -3.0402  -3.0049  -3.0030  -2.9673  -2.9633  -2.9615
    -2.9290  -2.9202  -2.8885  -2.8875  -2.8666  -2.8660  -2.8624  -2.8602
    -2.8590  -2.8552  -2.8512  -2.7969  -2.7396  -2.7376  -2.7371  -2.7364
    -2.7330  -2.7108  -2.7100  -2.6926  -2.6176  -2.6156  -2.6146  -2.6080
    -2.5599  -2.5554  -2.5534  -2.5334  -2.5328  -2.4816  -2.4641  -2.4636
    -2.4595  -2.4201  -2.4191  -2.4184  -2.3772  -2.3764  -2.3246  -2.2983
    -2.2982  -2.2952  -2.2947  -2.2724  -2.2718  -2.2674  -2.2600  -2.2590
    -2.2251  -2.1934  -2.1882  -2.1821  -2.1812  -2.1793  -2.1783  -2.1776
    -2.1772  -2.1583  -2.1442  -2.1437  -2.1419  -2.1399  -2.1384  -2.1272
    -2.1225  -2.1217  -2.0954  -2.0920  -2.0917  -2.0694  -2.0669  -2.0498
    -2.0497  -2.0243  -2.0231  -2.0220  -2.0210  -2.0147  -2.0142  -2.0140
    -2.0131  -1.9999  -1.9984  -1.9834  -1.9789  -1.9779  -1.8976  -1.8963
    -1.8824  -1.8811  -1.8630  -1.8625  -1.8421  -1.8294  -1.8288  -1.8096
    -1.7922  -1.7905  -1.7827  -1.7812  -1.7554  -1.7552  -1.7520  -1.7502
    -1.7442  -1.7333  -1.7049  -1.6766  -1.6576  -1.6555  -1.6356  -1.6310
    -1.6306  -1.5720  -1.5701  -1.5584  -1.5576  -1.4891  -1.4874  -1.4482
    -1.4300  -1.4279  -1.3963  -1.3952  -1.3690  -1.3677  -1.3493  -1.3480
    -1.3469  -1.3455  -1.3308  -1.2898  -1.2889  -1.2882  -1.2864  -1.2813
    -1.2798  -1.2520  -1.2495  -1.2490  -1.2145  -1.2044  -1.2024  -1.1981
    -1.1973  -1.1904  -1.1740  -1.1468  -1.1464  -1.1413  -1.1404  -1.1233
    -1.1195  -1.0753  -1.0636  -1.0614  -1.0610  -1.0379  -1.0373  -0.9928
    -0.9575  -0.9084  -0.9071  -0.9064  -0.9053  -0.9006  -0.8995  -0.8971
    -0.8859  -0.8845  -0.8355  -0.8343  -0.8199  -0.8178  -0.8035  -0.7992
    -0.7886  -0.7843  -0.7753  -0.7735  -0.7727  -0.7717  -0.7651  -0.7294
    -0.7244  -0.7150  -0.7148  -0.7128  -0.6987  -0.6978  -0.6684  -0.6594
    -0.6575  -0.6309  -0.6118  -0.6091  -0.5699  -0.5657  -0.5542  -0.5538
    -0.5449  -0.5443  -0.5381  -0.5365  -0.5330  -0.5317  -0.5039  -0.5032
    -0.4940  -0.4930  -0.4821  -0.4679  -0.4664  -0.4511  -0.4506  -0.4257
    -0.4175  -0.4154  -0.4033  -0.3522  -0.3504  -0.3498  -0.3458  -0.3396
    -0.3378  -0.3355  -0.3172  -0.3150  -0.3039  -0.3028  -0.3010  -0.3004
    -0.2593  -0.2577  -0.2567  -0.2506  -0.2489  -0.2422  -0.2413  -0.2365
    -0.2277  -0.2220  -0.2202  -0.1897  -0.1887  -0.1811  -0.1674  -0.1667
    -0.1141  -0.1132  -0.0855  -0.0850  -0.0766  -0.0759  -0.0431  -0.0330
    -0.0326  -0.0167  -0.0141  -0.0081   0.0647   0.0674   0.1774   0.5786
     0.5791   0.6043   0.6049   0.6659   0.6706   1.0171   1.0178   1.0307
     1.0315   1.2022   1.2688   1.3559   1.3648   1.6145   1.6282   2.2028
     2.2052   2.3327   2.3373   2.5421   2.5488   2.6151   2.6157   2.7036
     2.9786   2.9936   3.1601   3.3718   3.3799   3.4088   3.4101   3.4738
     3.5725   3.7308   3.7445   3.7808   4.0225   4.0240   4.0953   4.0992
     4.3392   4.3446   4.3725   4.5624   4.5633   4.6247   4.7085   4.9993
     5.0345   5.0390   5.2274   5.3178   5.3182   5.4080   5.4303   5.5989
     6.0471   6.1085   6.1149   6.1878   6.1882   6.1994   6.2643   6.3280
     6.3377   6.3426   6.3471   6.3891   6.4105   6.4113   6.4133   6.4217
     6.4719   6.6916   6.8090   6.8441   6.9974   7.0584   7.0619   7.0844
     7.1656   7.1985   7.2285

          k = 0.2500-0.4330-0.1111 (136853 PWs)   bands (ev):

   -18.8151  -6.6196  -6.2410  -5.8422  -5.8392  -5.1643  -4.8171  -4.8163
    -4.7910  -4.7879  -4.3694  -4.3681  -4.2870  -4.2478  -4.2431  -4.2427
    -4.2004  -4.0853  -4.0841  -4.0398  -3.9936  -3.9933  -3.9906  -3.9901
    -3.9422  -3.9419  -3.9150  -3.9118  -3.8922  -3.8733  -3.8716  -3.7958
    -3.7942  -3.7765  -3.7761  -3.7332  -3.7326  -3.7317  -3.7112  -3.7108
    -3.7079  -3.6336  -3.6330  -3.5725  -3.5705  -3.5548  -3.5543  -3.4928
    -3.4925  -3.4639  -3.4637  -3.4259  -3.4110  -3.4105  -3.3912  -3.3911
    -3.3885  -3.3879  -3.3822  -3.3622  -3.3014  -3.2952  -3.2946  -3.2739
    -3.2405  -3.2136  -3.2118  -3.1577  -3.1560  -3.1317  -3.1305  -3.1037
    -3.0781  -3.0416  -3.0402  -3.0049  -3.0030  -2.9673  -2.9633  -2.9615
    -2.9290  -2.9202  -2.8885  -2.8875  -2.8666  -2.8660  -2.8624  -2.8602
    -2.8590  -2.8552  -2.8512  -2.7969  -2.7396  -2.7376  -2.7371  -2.7364
    -2.7330  -2.7108  -2.7100  -2.6926  -2.6176  -2.6156  -2.6146  -2.6080
    -2.5599  -2.5554  -2.5534  -2.5334  -2.5328  -2.4816  -2.4641  -2.4636
    -2.4595  -2.4201  -2.4191  -2.4184  -2.3772  -2.3764  -2.3246  -2.2983
    -2.2982  -2.2952  -2.2947  -2.2724  -2.2718  -2.2674  -2.2600  -2.2590
    -2.2251  -2.1934  -2.1882  -2.1821  -2.1812  -2.1793  -2.1783  -2.1776
    -2.1772  -2.1583  -2.1442  -2.1437  -2.1419  -2.1399  -2.1384  -2.1272
    -2.1225  -2.1217  -2.0954  -2.0920  -2.0917  -2.0694  -2.0669  -2.0498
    -2.0497  -2.0243  -2.0231  -2.0220  -2.0210  -2.0147  -2.0142  -2.0140
    -2.0131  -1.9999  -1.9984  -1.9834  -1.9789  -1.9779  -1.8976  -1.8963
    -1.8824  -1.8811  -1.8630  -1.8625  -1.8421  -1.8294  -1.8288  -1.8096
    -1.7922  -1.7905  -1.7827  -1.7812  -1.7554  -1.7552  -1.7520  -1.7502
    -1.7442  -1.7333  -1.7049  -1.6766  -1.6576  -1.6555  -1.6356  -1.6310
    -1.6306  -1.5720  -1.5701  -1.5584  -1.5576  -1.4891  -1.4874  -1.4482
    -1.4300  -1.4279  -1.3963  -1.3952  -1.3690  -1.3677  -1.3493  -1.3480
    -1.3469  -1.3455  -1.3308  -1.2898  -1.2889  -1.2882  -1.2864  -1.2813
    -1.2798  -1.2520  -1.2495  -1.2490  -1.2145  -1.2044  -1.2024  -1.1981
    -1.1973  -1.1904  -1.1740  -1.1468  -1.1464  -1.1413  -1.1404  -1.1233
    -1.1195  -1.0753  -1.0636  -1.0614  -1.0610  -1.0379  -1.0373  -0.9928
    -0.9575  -0.9084  -0.9071  -0.9064  -0.9053  -0.9006  -0.8995  -0.8971
    -0.8859  -0.8845  -0.8355  -0.8343  -0.8199  -0.8178  -0.8035  -0.7992
    -0.7886  -0.7843  -0.7753  -0.7735  -0.7727  -0.7717  -0.7651  -0.7294
    -0.7244  -0.7150  -0.7148  -0.7128  -0.6987  -0.6978  -0.6684  -0.6594
    -0.6575  -0.6309  -0.6118  -0.6091  -0.5699  -0.5657  -0.5542  -0.5538
    -0.5449  -0.5443  -0.5381  -0.5365  -0.5330  -0.5317  -0.5039  -0.5032
    -0.4940  -0.4930  -0.4821  -0.4679  -0.4664  -0.4511  -0.4506  -0.4257
    -0.4175  -0.4154  -0.4033  -0.3522  -0.3504  -0.3498  -0.3458  -0.3396
    -0.3378  -0.3355  -0.3172  -0.3150  -0.3039  -0.3028  -0.3010  -0.3004
    -0.2593  -0.2577  -0.2567  -0.2506  -0.2489  -0.2422  -0.2413  -0.2365
    -0.2277  -0.2220  -0.2202  -0.1897  -0.1887  -0.1811  -0.1674  -0.1667
    -0.1141  -0.1132  -0.0855  -0.0850  -0.0766  -0.0759  -0.0431  -0.0330
    -0.0326  -0.0167  -0.0141  -0.0081   0.0647   0.0674   0.1774   0.5786
     0.5791   0.6043   0.6049   0.6659   0.6706   1.0171   1.0178   1.0307
     1.0315   1.2022   1.2688   1.3559   1.3648   1.6145   1.6282   2.2028
     2.2052   2.3327   2.3373   2.5421   2.5488   2.6151   2.6157   2.7036
     2.9786   2.9936   3.1601   3.3718   3.3799   3.4088   3.4101   3.4738
     3.5725   3.7308   3.7445   3.7808   4.0225   4.0240   4.0953   4.0992
     4.3392   4.3446   4.3725   4.5624   4.5633   4.6247   4.7085   4.9993
     5.0345   5.0390   5.2274   5.3178   5.3182   5.4080   5.4303   5.5989
     6.0471   6.1085   6.1149   6.1879   6.1880   6.1998   6.2643   6.3280
     6.3377   6.3426   6.3471   6.3888   6.4105   6.4114   6.4132   6.4216
     6.4714   6.6912   6.8089   6.8465   6.9976   7.0581   7.0622   7.0856
     7.1654   7.1983   7.2235

          k = 0.5000 0.0000 0.1111 (136853 PWs)   bands (ev):

   -18.8151  -6.6196  -6.2410  -5.8419  -5.8395  -5.1643  -4.8176  -4.8157
    -4.7903  -4.7886  -4.3695  -4.3679  -4.2870  -4.2478  -4.2430  -4.2427
    -4.2004  -4.0850  -4.0844  -4.0398  -3.9935  -3.9934  -3.9911  -3.9896
    -3.9423  -3.9418  -3.9152  -3.9115  -3.8922  -3.8736  -3.8714  -3.7960
    -3.7941  -3.7767  -3.7760  -3.7329  -3.7326  -3.7320  -3.7113  -3.7107
    -3.7079  -3.6335  -3.6331  -3.5726  -3.5705  -3.5548  -3.5543  -3.4931
    -3.4923  -3.4639  -3.4636  -3.4260  -3.4111  -3.4103  -3.3916  -3.3910
    -3.3891  -3.3871  -3.3823  -3.3621  -3.3014  -3.2953  -3.2946  -3.2739
    -3.2405  -3.2129  -3.2125  -3.1580  -3.1557  -3.1316  -3.1306  -3.1037
    -3.0781  -3.0420  -3.0398  -3.0045  -3.0034  -2.9672  -2.9635  -2.9614
    -2.9291  -2.9200  -2.8888  -2.8872  -2.8663  -2.8656  -2.8619  -2.8604
    -2.8591  -2.8559  -2.8512  -2.7969  -2.7390  -2.7380  -2.7374  -2.7364
    -2.7330  -2.7106  -2.7101  -2.6926  -2.6166  -2.6160  -2.6152  -2.6080
    -2.5600  -2.5551  -2.5535  -2.5335  -2.5327  -2.4816  -2.4642  -2.4634
    -2.4595  -2.4200  -2.4192  -2.4185  -2.3771  -2.3764  -2.3246  -2.2985
    -2.2981  -2.2952  -2.2947  -2.2725  -2.2718  -2.2673  -2.2600  -2.2589
    -2.2251  -2.1934  -2.1882  -2.1819  -2.1813  -2.1795  -2.1782  -2.1775
    -2.1772  -2.1585  -2.1442  -2.1432  -2.1424  -2.1400  -2.1383  -2.1274
    -2.1228  -2.1213  -2.0953  -2.0922  -2.0915  -2.0694  -2.0669  -2.0500
    -2.0495  -2.0237  -2.0232  -2.0225  -2.0205  -2.0154  -2.0142  -2.0135
    -2.0131  -1.9999  -1.9984  -1.9834  -1.9791  -1.9777  -1.8980  -1.8958
    -1.8826  -1.8810  -1.8632  -1.8624  -1.8421  -1.8295  -1.8288  -1.8096
    -1.7925  -1.7903  -1.7825  -1.7813  -1.7554  -1.7553  -1.7522  -1.7497
    -1.7445  -1.7333  -1.7048  -1.6766  -1.6582  -1.6550  -1.6358  -1.6311
    -1.6304  -1.5719  -1.5703  -1.5586  -1.5574  -1.4886  -1.4879  -1.4482
    -1.4300  -1.4277  -1.3961  -1.3954  -1.3690  -1.3679  -1.3492  -1.3479
    -1.3468  -1.3457  -1.3308  -1.2892  -1.2888  -1.2886  -1.2863  -1.2815
    -1.2790  -1.2519  -1.2498  -1.2493  -1.2144  -1.2044  -1.2027  -1.1980
    -1.1974  -1.1909  -1.1740  -1.1474  -1.1458  -1.1416  -1.1395  -1.1231
    -1.1196  -1.0752  -1.0630  -1.0622  -1.0611  -1.0380  -1.0377  -0.9930
    -0.9574  -0.9080  -0.9072  -0.9065  -0.9053  -0.9004  -0.8993  -0.8971
    -0.8853  -0.8849  -0.8352  -0.8349  -0.8218  -0.8182  -0.8032  -0.7949
    -0.7888  -0.7863  -0.7750  -0.7732  -0.7722  -0.7710  -0.7659  -0.7310
    -0.7211  -0.7152  -0.7149  -0.7138  -0.7000  -0.6984  -0.6678  -0.6596
    -0.6578  -0.6314  -0.6126  -0.6079  -0.5698  -0.5657  -0.5542  -0.5536
    -0.5457  -0.5439  -0.5385  -0.5361  -0.5334  -0.5309  -0.5040  -0.5032
    -0.4944  -0.4925  -0.4820  -0.4693  -0.4658  -0.4513  -0.4505  -0.4253
    -0.4176  -0.4150  -0.4034  -0.3521  -0.3505  -0.3497  -0.3457  -0.3393
    -0.3384  -0.3355  -0.3176  -0.3147  -0.3039  -0.3026  -0.3011  -0.3006
    -0.2593  -0.2576  -0.2567  -0.2505  -0.2489  -0.2420  -0.2414  -0.2368
    -0.2274  -0.2219  -0.2204  -0.1897  -0.1887  -0.1811  -0.1675  -0.1666
    -0.1143  -0.1129  -0.0856  -0.0848  -0.0767  -0.0758  -0.0431  -0.0332
    -0.0325  -0.0170  -0.0140  -0.0078   0.0640   0.0684   0.1776   0.5786
     0.5791   0.6042   0.6049   0.6644   0.6717   1.0170   1.0177   1.0300
     1.0321   1.2026   1.2690   1.3558   1.3653   1.6131   1.6292   2.2017
     2.2062   2.3315   2.3386   2.5401   2.5504   2.6148   2.6160   2.7036
     2.9790   2.9935   3.1602   3.3714   3.3803   3.4081   3.4111   3.4736
     3.5725   3.7282   3.7466   3.7808   4.0231   4.0234   4.0934   4.1016
     4.3375   4.3462   4.3725   4.5614   4.5644   4.6246   4.7086   4.9991
     5.0353   5.0383   5.2272   5.3172   5.3189   5.4233   5.4274   5.5777
     6.0472   6.1088   6.1148   6.1875   6.1893   6.2343   6.2646   6.3283
     6.3394   6.3416   6.3489   6.3557   6.4077   6.4096   6.4124   6.4296
     6.4834   6.7010   6.7833   6.8550   6.9974   7.0570   7.0654   7.0984
     7.1166   7.1983   7.2568

          k =-0.5000 0.0000 0.1111 (136853 PWs)   bands (ev):

   -18.8151  -6.6196  -6.2410  -5.8419  -5.8395  -5.1643  -4.8176  -4.8157
    -4.7903  -4.7886  -4.3695  -4.3679  -4.2870  -4.2478  -4.2430  -4.2427
    -4.2004  -4.0850  -4.0844  -4.0398  -3.9935  -3.9934  -3.9911  -3.9896
    -3.9423  -3.9418  -3.9152  -3.9115  -3.8922  -3.8736  -3.8714  -3.7960
    -3.7941  -3.7767  -3.7760  -3.7329  -3.7326  -3.7320  -3.7113  -3.7107
    -3.7079  -3.6335  -3.6331  -3.5726  -3.5705  -3.5548  -3.5543  -3.4931
    -3.4923  -3.4639  -3.4636  -3.4260  -3.4111  -3.4103  -3.3916  -3.3910
    -3.3891  -3.3871  -3.3823  -3.3621  -3.3014  -3.2953  -3.2946  -3.2739
    -3.2405  -3.2129  -3.2125  -3.1580  -3.1557  -3.1316  -3.1306  -3.1037
    -3.0781  -3.0420  -3.0398  -3.0045  -3.0034  -2.9672  -2.9635  -2.9614
    -2.9291  -2.9200  -2.8888  -2.8872  -2.8663  -2.8656  -2.8619  -2.8604
    -2.8591  -2.8559  -2.8512  -2.7969  -2.7390  -2.7380  -2.7374  -2.7364
    -2.7330  -2.7106  -2.7101  -2.6926  -2.6166  -2.6160  -2.6152  -2.6080
    -2.5600  -2.5551  -2.5535  -2.5335  -2.5327  -2.4816  -2.4642  -2.4634
    -2.4595  -2.4200  -2.4192  -2.4185  -2.3771  -2.3764  -2.3246  -2.2985
    -2.2981  -2.2952  -2.2947  -2.2725  -2.2718  -2.2673  -2.2600  -2.2589
    -2.2251  -2.1934  -2.1882  -2.1819  -2.1813  -2.1795  -2.1782  -2.1775
    -2.1772  -2.1585  -2.1442  -2.1432  -2.1424  -2.1400  -2.1383  -2.1274
    -2.1228  -2.1213  -2.0953  -2.0922  -2.0915  -2.0694  -2.0669  -2.0500
    -2.0495  -2.0237  -2.0232  -2.0225  -2.0205  -2.0154  -2.0142  -2.0135
    -2.0131  -1.9999  -1.9984  -1.9834  -1.9791  -1.9777  -1.8980  -1.8958
    -1.8826  -1.8810  -1.8632  -1.8624  -1.8421  -1.8295  -1.8288  -1.8096
    -1.7925  -1.7903  -1.7825  -1.7813  -1.7554  -1.7553  -1.7522  -1.7497
    -1.7445  -1.7333  -1.7048  -1.6766  -1.6582  -1.6550  -1.6358  -1.6311
    -1.6304  -1.5719  -1.5703  -1.5586  -1.5574  -1.4886  -1.4879  -1.4482
    -1.4300  -1.4277  -1.3961  -1.3954  -1.3690  -1.3679  -1.3492  -1.3479
    -1.3468  -1.3457  -1.3308  -1.2892  -1.2888  -1.2886  -1.2863  -1.2815
    -1.2790  -1.2519  -1.2498  -1.2493  -1.2144  -1.2044  -1.2027  -1.1980
    -1.1974  -1.1909  -1.1740  -1.1474  -1.1458  -1.1416  -1.1395  -1.1231
    -1.1196  -1.0752  -1.0630  -1.0622  -1.0611  -1.0380  -1.0377  -0.9930
    -0.9574  -0.9080  -0.9072  -0.9065  -0.9053  -0.9004  -0.8993  -0.8971
    -0.8853  -0.8849  -0.8352  -0.8349  -0.8218  -0.8182  -0.8032  -0.7949
    -0.7888  -0.7863  -0.7750  -0.7732  -0.7722  -0.7710  -0.7659  -0.7310
    -0.7211  -0.7152  -0.7149  -0.7138  -0.7000  -0.6984  -0.6678  -0.6596
    -0.6578  -0.6314  -0.6126  -0.6079  -0.5698  -0.5657  -0.5542  -0.5536
    -0.5457  -0.5439  -0.5385  -0.5361  -0.5334  -0.5309  -0.5040  -0.5032
    -0.4944  -0.4925  -0.4820  -0.4693  -0.4658  -0.4513  -0.4505  -0.4253
    -0.4176  -0.4150  -0.4034  -0.3521  -0.3505  -0.3497  -0.3457  -0.3393
    -0.3384  -0.3355  -0.3176  -0.3147  -0.3039  -0.3026  -0.3011  -0.3006
    -0.2593  -0.2576  -0.2567  -0.2505  -0.2489  -0.2420  -0.2414  -0.2368
    -0.2274  -0.2219  -0.2204  -0.1897  -0.1887  -0.1811  -0.1675  -0.1666
    -0.1143  -0.1129  -0.0856  -0.0848  -0.0767  -0.0758  -0.0431  -0.0332
    -0.0325  -0.0170  -0.0140  -0.0078   0.0640   0.0684   0.1776   0.5786
     0.5791   0.6042   0.6049   0.6644   0.6717   1.0170   1.0177   1.0300
     1.0321   1.2026   1.2690   1.3558   1.3653   1.6131   1.6292   2.2017
     2.2062   2.3315   2.3386   2.5401   2.5504   2.6148   2.6160   2.7036
     2.9790   2.9935   3.1602   3.3714   3.3803   3.4081   3.4111   3.4736
     3.5725   3.7282   3.7466   3.7808   4.0231   4.0234   4.0934   4.1016
     4.3375   4.3462   4.3725   4.5614   4.5644   4.6246   4.7086   4.9991
     5.0353   5.0383   5.2272   5.3172   5.3189   5.4233   5.4274   5.5777
     6.0472   6.1088   6.1148   6.1875   6.1893   6.2342   6.2646   6.3283
     6.3394   6.3416   6.3489   6.3558   6.4077   6.4095   6.4124   6.4296
     6.4835   6.7008   6.7831   6.8551   6.9975   7.0569   7.0654   7.0997
     7.1155   7.1983   7.2562

          k =-0.2500 0.1443 0.1111 (136898 PWs)   bands (ev):

   -18.8151  -6.6196  -6.4510  -5.6564  -5.3682  -5.3026  -5.3022  -4.7457
    -4.7454  -4.6330  -4.5961  -4.4464  -4.3755  -4.3436  -4.3431  -4.2962
    -4.2257  -4.2257  -4.0886  -4.0461  -4.0461  -4.0252  -4.0245  -4.0238
    -3.9028  -3.9027  -3.8238  -3.8123  -3.8107  -3.8106  -3.7901  -3.7901
    -3.7251  -3.6684  -3.6684  -3.6561  -3.6457  -3.6455  -3.6344  -3.6342
    -3.6262  -3.5788  -3.5787  -3.5692  -3.5690  -3.5572  -3.5570  -3.5259
    -3.5219  -3.5217  -3.4864  -3.4858  -3.4681  -3.4680  -3.4480  -3.4054
    -3.4054  -3.3442  -3.3442  -3.3230  -3.3221  -3.3055  -3.2320  -3.2318
    -3.2235  -3.2232  -3.2067  -3.2061  -3.1827  -3.1825  -3.0321  -3.0313
    -3.0141  -3.0128  -3.0085  -2.9745  -2.9696  -2.9662  -2.9646  -2.9288
    -2.9086  -2.9034  -2.8897  -2.8871  -2.8501  -2.8273  -2.8268  -2.8044
    -2.7972  -2.7958  -2.7523  -2.7514  -2.7333  -2.7316  -2.7279  -2.7258
    -2.7026  -2.7020  -2.6577  -2.6576  -2.6517  -2.6505  -2.6362  -2.5881
    -2.5874  -2.5638  -2.5562  -2.5548  -2.4766  -2.4764  -2.4464  -2.4458
    -2.4392  -2.4300  -2.4083  -2.3811  -2.3810  -2.3637  -2.3603  -2.3562
    -2.3561  -2.3435  -2.3351  -2.3339  -2.3260  -2.3256  -2.3179  -2.3171
    -2.2660  -2.2399  -2.2208  -2.2170  -2.2168  -2.2009  -2.2001  -2.1975
    -2.1974  -2.1866  -2.1565  -2.1561  -2.1447  -2.1385  -2.1261  -2.1259
    -2.1238  -2.0980  -2.0976  -2.0874  -2.0796  -2.0787  -2.0223  -2.0111
    -1.9994  -1.9988  -1.9975  -1.9779  -1.9777  -1.9643  -1.9437  -1.9436
    -1.9389  -1.9385  -1.9269  -1.9155  -1.9153  -1.9020  -1.8862  -1.8854
    -1.8385  -1.8380  -1.8294  -1.8286  -1.8278  -1.8254  -1.8158  -1.8153
    -1.8127  -1.8120  -1.7995  -1.7949  -1.7942  -1.6805  -1.6798  -1.6514
    -1.6512  -1.6487  -1.6276  -1.6232  -1.6219  -1.6133  -1.6129  -1.5929
    -1.5925  -1.5900  -1.5863  -1.5839  -1.5496  -1.5485  -1.5479  -1.5185
    -1.5180  -1.5125  -1.5124  -1.4989  -1.4987  -1.4412  -1.4385  -1.4149
    -1.4139  -1.4058  -1.3999  -1.3775  -1.3771  -1.3721  -1.3717  -1.3688
    -1.3686  -1.3561  -1.3560  -1.3373  -1.2998  -1.2975  -1.2681  -1.2678
    -1.2576  -1.2211  -1.2189  -1.1871  -1.1862  -1.1760  -1.1756  -1.1620
    -1.1460  -1.1437  -1.1253  -1.1239  -1.0941  -1.0936  -1.0752  -1.0743
    -1.0413  -1.0410  -1.0290  -0.9758  -0.9741  -0.9708  -0.9701  -0.9510
    -0.9506  -0.9342  -0.9340  -0.9031  -0.8916  -0.8721  -0.8697  -0.8692
    -0.8436  -0.8199  -0.8187  -0.8164  -0.8125  -0.8081  -0.8027  -0.8023
    -0.7832  -0.7720  -0.7650  -0.7636  -0.7525  -0.7478  -0.7446  -0.7404
    -0.7261  -0.7099  -0.7055  -0.6814  -0.6778  -0.5974  -0.5801  -0.5794
    -0.5790  -0.5767  -0.5723  -0.5712  -0.5599  -0.5413  -0.5208  -0.5188
    -0.5148  -0.5126  -0.4964  -0.4817  -0.4796  -0.4765  -0.4614  -0.3815
    -0.3811  -0.3541  -0.3513  -0.3443  -0.3416  -0.3358  -0.3345  -0.3344
    -0.3289  -0.3265  -0.3099  -0.2778  -0.2657  -0.2469  -0.2458  -0.2381
    -0.2369  -0.2305  -0.2286  -0.2222  -0.2192  -0.2184  -0.2010  -0.1986
    -0.1974  -0.1669  -0.1656  -0.1656  -0.1484  -0.1481  -0.1256  -0.0997
    -0.0991  -0.0897  -0.0889  -0.0217  -0.0210  -0.0034  -0.0031   0.0583
     0.0616   0.0620   0.0642   0.0901   0.2948   0.3026   0.6409   0.6410
     0.7135   0.7207   0.8670   0.8955   0.9214   1.0521   1.0537   1.4310
     1.4986   1.4986   1.7328   1.7329   1.7882   2.0941   2.1036   2.1316
     2.1325   2.1681   2.1749   2.3255   2.3257   2.5004   2.5009   2.5099
     2.6520   2.6623   2.7035   2.9135   3.2796   3.2799   3.3204   3.3226
     3.3280   3.3314   3.6564   3.6566   3.9879   3.9942   4.0594   4.3253
     4.4526   4.4573   4.6404   4.6536   4.7434   4.7457   4.8230   4.9828
     4.9865   5.0774   5.0792   5.3692   5.4279   5.4344   5.5019   5.6103
     5.6497   5.7707   5.7733   5.7756   5.7769   5.9195   5.9228   5.9797
     6.1874   6.4187   6.5073   6.6009   6.6011   6.6048   6.6083   6.6283
     6.7283   6.7783   6.8191   6.8229   6.9570   7.1226   7.1545   7.1741
     7.1991   7.3108   7.3652

          k =-0.2500-0.1443-0.1111 (136898 PWs)   bands (ev):

   -18.8151  -6.6196  -6.4510  -5.6564  -5.3682  -5.3026  -5.3022  -4.7457
    -4.7454  -4.6330  -4.5962  -4.4464  -4.3755  -4.3436  -4.3432  -4.2963
    -4.2258  -4.2255  -4.0885  -4.0463  -4.0460  -4.0251  -4.0246  -4.0238
    -3.9028  -3.9026  -3.8238  -3.8124  -3.8107  -3.8106  -3.7903  -3.7899
    -3.7251  -3.6686  -3.6683  -3.6561  -3.6458  -3.6455  -3.6344  -3.6343
    -3.6261  -3.5788  -3.5788  -3.5692  -3.5689  -3.5573  -3.5570  -3.5257
    -3.5219  -3.5216  -3.4865  -3.4859  -3.4681  -3.4679  -3.4482  -3.4055
    -3.4053  -3.3443  -3.3442  -3.3229  -3.3220  -3.3054  -3.2322  -3.2319
    -3.2234  -3.2231  -3.2069  -3.2060  -3.1828  -3.1826  -3.0322  -3.0313
    -3.0141  -3.0128  -3.0085  -2.9745  -2.9696  -2.9661  -2.9645  -2.9287
    -2.9086  -2.9035  -2.8897  -2.8870  -2.8500  -2.8273  -2.8266  -2.8045
    -2.7973  -2.7959  -2.7524  -2.7514  -2.7333  -2.7318  -2.7280  -2.7258
    -2.7025  -2.7018  -2.6578  -2.6574  -2.6516  -2.6504  -2.6361  -2.5881
    -2.5874  -2.5640  -2.5562  -2.5548  -2.4766  -2.4762  -2.4462  -2.4457
    -2.4393  -2.4298  -2.4084  -2.3812  -2.3809  -2.3636  -2.3603  -2.3563
    -2.3561  -2.3437  -2.3350  -2.3338  -2.3259  -2.3255  -2.3182  -2.3173
    -2.2660  -2.2399  -2.2208  -2.2170  -2.2168  -2.2010  -2.2002  -2.1975
    -2.1974  -2.1868  -2.1565  -2.1559  -2.1448  -2.1386  -2.1260  -2.1258
    -2.1236  -2.0979  -2.0974  -2.0878  -2.0796  -2.0786  -2.0225  -2.0113
    -1.9995  -1.9989  -1.9975  -1.9778  -1.9775  -1.9644  -1.9435  -1.9435
    -1.9388  -1.9384  -1.9269  -1.9155  -1.9154  -1.9021  -1.8861  -1.8854
    -1.8385  -1.8379  -1.8294  -1.8287  -1.8278  -1.8251  -1.8157  -1.8154
    -1.8133  -1.8117  -1.7994  -1.7950  -1.7943  -1.6805  -1.6798  -1.6514
    -1.6510  -1.6487  -1.6272  -1.6235  -1.6225  -1.6133  -1.6128  -1.5929
    -1.5923  -1.5899  -1.5862  -1.5837  -1.5495  -1.5482  -1.5479  -1.5188
    -1.5183  -1.5130  -1.5122  -1.4989  -1.4986  -1.4412  -1.4383  -1.4148
    -1.4139  -1.4055  -1.3999  -1.3777  -1.3772  -1.3723  -1.3718  -1.3692
    -1.3684  -1.3559  -1.3558  -1.3372  -1.3000  -1.2977  -1.2682  -1.2677
    -1.2580  -1.2210  -1.2188  -1.1870  -1.1860  -1.1762  -1.1755  -1.1619
    -1.1459  -1.1436  -1.1253  -1.1238  -1.0940  -1.0935  -1.0754  -1.0742
    -1.0412  -1.0410  -1.0291  -0.9758  -0.9742  -0.9710  -0.9704  -0.9511
    -0.9506  -0.9339  -0.9337  -0.9027  -0.8914  -0.8720  -0.8699  -0.8690
    -0.8426  -0.8209  -0.8190  -0.8164  -0.8126  -0.8080  -0.8029  -0.8025
    -0.7848  -0.7719  -0.7649  -0.7639  -0.7517  -0.7481  -0.7444  -0.7401
    -0.7260  -0.7094  -0.7058  -0.6812  -0.6778  -0.5973  -0.5802  -0.5794
    -0.5789  -0.5766  -0.5725  -0.5713  -0.5599  -0.5414  -0.5207  -0.5190
    -0.5148  -0.5127  -0.4965  -0.4814  -0.4796  -0.4767  -0.4615  -0.3814
    -0.3810  -0.3539  -0.3514  -0.3443  -0.3417  -0.3358  -0.3346  -0.3343
    -0.3289  -0.3262  -0.3100  -0.2780  -0.2656  -0.2469  -0.2459  -0.2381
    -0.2370  -0.2305  -0.2285  -0.2222  -0.2192  -0.2184  -0.2009  -0.1987
    -0.1975  -0.1669  -0.1656  -0.1654  -0.1484  -0.1480  -0.1256  -0.0997
    -0.0991  -0.0896  -0.0889  -0.0217  -0.0211  -0.0036  -0.0029   0.0583
     0.0615   0.0620   0.0640   0.0901   0.2953   0.3025   0.6409   0.6410
     0.7138   0.7206   0.8669   0.8950   0.9216   1.0521   1.0537   1.4311
     1.4985   1.4987   1.7328   1.7330   1.7883   2.0945   2.1032   2.1316
     2.1325   2.1684   2.1747   2.3254   2.3256   2.5004   2.5008   2.5099
     2.6524   2.6619   2.7032   2.9136   3.2795   3.2801   3.3204   3.3229
     3.3282   3.3313   3.6562   3.6569   3.9882   3.9940   4.0594   4.3254
     4.4526   4.4570   4.6415   4.6521   4.7438   4.7455   4.8231   4.9827
     4.9863   5.0778   5.0795   5.3694   5.4273   5.4344   5.5018   5.6119
     5.6511   5.7705   5.7731   5.7755   5.7767   5.9197   5.9230   5.9789
     6.1857   6.4112   6.5069   6.6009   6.6013   6.6050   6.6078   6.6232
     6.7418   6.7809   6.8193   6.8226   6.9557   7.1174   7.1572   7.1740
     7.2087   7.3126   7.3623

          k = 0.2500 0.1443-0.1111 (136898 PWs)   bands (ev):

   -18.8151  -6.6196  -6.4510  -5.6564  -5.3682  -5.3026  -5.3022  -4.7457
    -4.7454  -4.6330  -4.5962  -4.4464  -4.3755  -4.3436  -4.3432  -4.2963
    -4.2258  -4.2255  -4.0885  -4.0463  -4.0460  -4.0251  -4.0246  -4.0238
    -3.9028  -3.9026  -3.8238  -3.8124  -3.8107  -3.8106  -3.7903  -3.7899
    -3.7251  -3.6686  -3.6683  -3.6561  -3.6458  -3.6455  -3.6344  -3.6343
    -3.6261  -3.5788  -3.5788  -3.5692  -3.5689  -3.5573  -3.5570  -3.5257
    -3.5219  -3.5217  -3.4865  -3.4859  -3.4681  -3.4679  -3.4482  -3.4055
    -3.4053  -3.3443  -3.3442  -3.3229  -3.3220  -3.3054  -3.2322  -3.2319
    -3.2234  -3.2231  -3.2069  -3.2060  -3.1828  -3.1826  -3.0322  -3.0313
    -3.0141  -3.0128  -3.0085  -2.9745  -2.9696  -2.9661  -2.9645  -2.9287
    -2.9086  -2.9035  -2.8897  -2.8870  -2.8500  -2.8273  -2.8266  -2.8044
    -2.7973  -2.7959  -2.7524  -2.7514  -2.7333  -2.7318  -2.7280  -2.7258
    -2.7025  -2.7018  -2.6578  -2.6574  -2.6516  -2.6504  -2.6361  -2.5881
    -2.5874  -2.5640  -2.5562  -2.5548  -2.4766  -2.4762  -2.4462  -2.4457
    -2.4393  -2.4298  -2.4084  -2.3812  -2.3809  -2.3636  -2.3603  -2.3563
    -2.3561  -2.3437  -2.3350  -2.3338  -2.3259  -2.3255  -2.3182  -2.3173
    -2.2660  -2.2399  -2.2208  -2.2170  -2.2168  -2.2010  -2.2002  -2.1975
    -2.1974  -2.1868  -2.1565  -2.1559  -2.1448  -2.1386  -2.1260  -2.1258
    -2.1236  -2.0979  -2.0974  -2.0878  -2.0796  -2.0786  -2.0225  -2.0113
    -1.9995  -1.9989  -1.9975  -1.9778  -1.9775  -1.9644  -1.9435  -1.9435
    -1.9388  -1.9384  -1.9269  -1.9155  -1.9154  -1.9021  -1.8861  -1.8854
    -1.8385  -1.8379  -1.8294  -1.8287  -1.8278  -1.8251  -1.8157  -1.8154
    -1.8132  -1.8117  -1.7994  -1.7950  -1.7943  -1.6805  -1.6798  -1.6514
    -1.6510  -1.6487  -1.6272  -1.6235  -1.6225  -1.6133  -1.6128  -1.5929
    -1.5923  -1.5899  -1.5862  -1.5837  -1.5495  -1.5482  -1.5479  -1.5188
    -1.5183  -1.5130  -1.5122  -1.4989  -1.4986  -1.4412  -1.4383  -1.4148
    -1.4139  -1.4055  -1.3999  -1.3777  -1.3772  -1.3723  -1.3718  -1.3692
    -1.3684  -1.3559  -1.3558  -1.3372  -1.3000  -1.2977  -1.2682  -1.2677
    -1.2580  -1.2210  -1.2188  -1.1870  -1.1860  -1.1762  -1.1755  -1.1619
    -1.1459  -1.1436  -1.1252  -1.1238  -1.0940  -1.0935  -1.0754  -1.0743
    -1.0412  -1.0410  -1.0291  -0.9758  -0.9741  -0.9710  -0.9704  -0.9511
    -0.9506  -0.9339  -0.9337  -0.9027  -0.8914  -0.8720  -0.8699  -0.8690
    -0.8426  -0.8209  -0.8190  -0.8164  -0.8126  -0.8080  -0.8029  -0.8025
    -0.7848  -0.7719  -0.7649  -0.7639  -0.7517  -0.7481  -0.7444  -0.7401
    -0.7260  -0.7094  -0.7058  -0.6812  -0.6778  -0.5973  -0.5802  -0.5794
    -0.5789  -0.5766  -0.5725  -0.5713  -0.5599  -0.5414  -0.5207  -0.5190
    -0.5148  -0.5127  -0.4965  -0.4814  -0.4796  -0.4767  -0.4615  -0.3814
    -0.3810  -0.3539  -0.3515  -0.3443  -0.3417  -0.3358  -0.3346  -0.3343
    -0.3289  -0.3262  -0.3100  -0.2780  -0.2656  -0.2469  -0.2459  -0.2381
    -0.2370  -0.2306  -0.2285  -0.2222  -0.2192  -0.2184  -0.2009  -0.1987
    -0.1975  -0.1669  -0.1656  -0.1654  -0.1484  -0.1480  -0.1256  -0.0997
    -0.0991  -0.0896  -0.0889  -0.0217  -0.0211  -0.0036  -0.0029   0.0583
     0.0615   0.0620   0.0640   0.0901   0.2953   0.3025   0.6409   0.6410
     0.7138   0.7206   0.8669   0.8950   0.9216   1.0521   1.0537   1.4311
     1.4984   1.4987   1.7328   1.7330   1.7883   2.0945   2.1032   2.1316
     2.1325   2.1684   2.1747   2.3254   2.3256   2.5004   2.5008   2.5099
     2.6524   2.6619   2.7032   2.9136   3.2795   3.2801   3.3204   3.3229
     3.3282   3.3313   3.6562   3.6569   3.9882   3.9940   4.0594   4.3254
     4.4526   4.4570   4.6415   4.6521   4.7438   4.7455   4.8231   4.9827
     4.9863   5.0778   5.0795   5.3694   5.4273   5.4344   5.5018   5.6119
     5.6511   5.7705   5.7731   5.7755   5.7767   5.9197   5.9230   5.9789
     6.1854   6.4133   6.5069   6.6012   6.6014   6.6049   6.6072   6.6221
     6.7392   6.7808   6.8193   6.8226   6.9491   7.1189   7.1574   7.1767
     7.2148   7.3197   7.3743

          k = 0.0000-0.2887 0.1111 (136898 PWs)   bands (ev):

   -18.8151  -6.6196  -6.4510  -5.6564  -5.3682  -5.3025  -5.3023  -4.7456
    -4.7454  -4.6330  -4.5962  -4.4464  -4.3755  -4.3435  -4.3434  -4.2963
    -4.2257  -4.2255  -4.0885  -4.0462  -4.0461  -4.0251  -4.0246  -4.0237
    -3.9028  -3.9026  -3.8238  -3.8123  -3.8107  -3.8106  -3.7902  -3.7900
    -3.7250  -3.6685  -3.6684  -3.6561  -3.6458  -3.6456  -3.6344  -3.6343
    -3.6261  -3.5788  -3.5787  -3.5691  -3.5689  -3.5574  -3.5569  -3.5256
    -3.5219  -3.5217  -3.4867  -3.4857  -3.4683  -3.4677  -3.4481  -3.4055
    -3.4053  -3.3443  -3.3442  -3.3231  -3.3219  -3.3054  -3.2321  -3.2319
    -3.2235  -3.2230  -3.2068  -3.2061  -3.1828  -3.1826  -3.0323  -3.0312
    -3.0143  -3.0126  -3.0086  -2.9744  -2.9696  -2.9662  -2.9645  -2.9288
    -2.9086  -2.9035  -2.8896  -2.8871  -2.8499  -2.8273  -2.8267  -2.8045
    -2.7973  -2.7960  -2.7523  -2.7514  -2.7332  -2.7317  -2.7279  -2.7260
    -2.7024  -2.7018  -2.6579  -2.6574  -2.6516  -2.6505  -2.6361  -2.5880
    -2.5874  -2.5640  -2.5561  -2.5548  -2.4767  -2.4762  -2.4462  -2.4457
    -2.4393  -2.4298  -2.4084  -2.3811  -2.3809  -2.3635  -2.3603  -2.3564
    -2.3560  -2.3437  -2.3348  -2.3340  -2.3258  -2.3255  -2.3181  -2.3174
    -2.2660  -2.2399  -2.2207  -2.2170  -2.2168  -2.2009  -2.2004  -2.1975
    -2.1973  -2.1867  -2.1563  -2.1561  -2.1448  -2.1386  -2.1261  -2.1257
    -2.1236  -2.0979  -2.0976  -2.0876  -2.0796  -2.0788  -2.0224  -2.0113
    -1.9994  -1.9990  -1.9975  -1.9779  -1.9775  -1.9644  -1.9436  -1.9435
    -1.9387  -1.9385  -1.9269  -1.9155  -1.9154  -1.9021  -1.8859  -1.8855
    -1.8384  -1.8380  -1.8291  -1.8286  -1.8280  -1.8251  -1.8157  -1.8156
    -1.8131  -1.8118  -1.7994  -1.7949  -1.7944  -1.6804  -1.6799  -1.6512
    -1.6511  -1.6487  -1.6269  -1.6241  -1.6221  -1.6132  -1.6129  -1.5926
    -1.5924  -1.5900  -1.5862  -1.5840  -1.5495  -1.5482  -1.5479  -1.5188
    -1.5182  -1.5130  -1.5124  -1.4987  -1.4985  -1.4411  -1.4383  -1.4148
    -1.4139  -1.4056  -1.3999  -1.3776  -1.3772  -1.3722  -1.3718  -1.3694
    -1.3685  -1.3558  -1.3558  -1.3369  -1.3002  -1.2979  -1.2685  -1.2676
    -1.2577  -1.2210  -1.2188  -1.1873  -1.1858  -1.1762  -1.1755  -1.1620
    -1.1450  -1.1435  -1.1254  -1.1241  -1.0939  -1.0935  -1.0754  -1.0741
    -1.0412  -1.0410  -1.0291  -0.9760  -0.9744  -0.9708  -0.9708  -0.9511
    -0.9507  -0.9338  -0.9332  -0.9028  -0.8915  -0.8715  -0.8702  -0.8687
    -0.8374  -0.8259  -0.8188  -0.8167  -0.8124  -0.8069  -0.8035  -0.8023
    -0.7907  -0.7719  -0.7647  -0.7645  -0.7501  -0.7492  -0.7435  -0.7384
    -0.7257  -0.7074  -0.7045  -0.6805  -0.6787  -0.5976  -0.5801  -0.5794
    -0.5790  -0.5771  -0.5718  -0.5712  -0.5613  -0.5413  -0.5201  -0.5193
    -0.5143  -0.5134  -0.4966  -0.4810  -0.4801  -0.4765  -0.4614  -0.3814
    -0.3811  -0.3535  -0.3523  -0.3439  -0.3419  -0.3357  -0.3345  -0.3342
    -0.3290  -0.3259  -0.3102  -0.2781  -0.2656  -0.2467  -0.2461  -0.2380
    -0.2371  -0.2306  -0.2283  -0.2221  -0.2191  -0.2186  -0.2008  -0.1986
    -0.1976  -0.1670  -0.1656  -0.1653  -0.1483  -0.1481  -0.1256  -0.0996
    -0.0991  -0.0895  -0.0889  -0.0218  -0.0210  -0.0036  -0.0029   0.0583
     0.0616   0.0618   0.0638   0.0902   0.2966   0.3017   0.6409   0.6410
     0.7150   0.7196   0.8669   0.8940   0.9220   1.0524   1.0533   1.4310
     1.4986   1.4986   1.7328   1.7331   1.7881   2.0962   2.1017   2.1318
     2.1323   2.1694   2.1738   2.3249   2.3263   2.5005   2.5006   2.5100
     2.6538   2.6601   2.7032   2.9136   3.2794   3.2803   3.3207   3.3226
     3.3287   3.3309   3.6566   3.6566   3.9894   3.9932   4.0594   4.3253
     4.4533   4.4562   4.6451   4.6467   4.7436   4.7454   4.8234   4.9824
     4.9861   5.0780   5.0792   5.3694   5.4279   5.4337   5.5048   5.6163
     5.6526   5.7711   5.7726   5.7758   5.7768   5.9187   5.9241   5.9768
     6.1777   6.3901   6.5069   6.5997   6.6017   6.6044   6.6059   6.6126
     6.7581   6.8178   6.8210   6.8233   6.9445   7.1012   7.1620   7.1672
     7.2726   7.2968   7.3485

          k = 0.0000 0.2887 0.1111 (136898 PWs)   bands (ev):

   -18.8151  -6.6196  -6.4510  -5.6564  -5.3682  -5.3025  -5.3023  -4.7456
    -4.7454  -4.6330  -4.5962  -4.4464  -4.3755  -4.3435  -4.3434  -4.2963
    -4.2257  -4.2255  -4.0885  -4.0462  -4.0461  -4.0251  -4.0246  -4.0237
    -3.9028  -3.9026  -3.8238  -3.8123  -3.8107  -3.8106  -3.7902  -3.7900
    -3.7250  -3.6685  -3.6684  -3.6561  -3.6458  -3.6456  -3.6344  -3.6343
    -3.6261  -3.5788  -3.5787  -3.5691  -3.5689  -3.5574  -3.5569  -3.5256
    -3.5219  -3.5217  -3.4867  -3.4857  -3.4683  -3.4677  -3.4481  -3.4055
    -3.4053  -3.3443  -3.3442  -3.3231  -3.3219  -3.3054  -3.2321  -3.2319
    -3.2235  -3.2230  -3.2068  -3.2061  -3.1828  -3.1826  -3.0323  -3.0312
    -3.0143  -3.0126  -3.0086  -2.9744  -2.9696  -2.9662  -2.9645  -2.9288
    -2.9086  -2.9035  -2.8896  -2.8871  -2.8499  -2.8273  -2.8267  -2.8045
    -2.7973  -2.7960  -2.7523  -2.7514  -2.7332  -2.7317  -2.7279  -2.7260
    -2.7025  -2.7018  -2.6579  -2.6574  -2.6516  -2.6505  -2.6361  -2.5880
    -2.5874  -2.5640  -2.5561  -2.5549  -2.4767  -2.4762  -2.4462  -2.4457
    -2.4393  -2.4298  -2.4084  -2.3811  -2.3809  -2.3635  -2.3603  -2.3564
    -2.3560  -2.3437  -2.3348  -2.3340  -2.3258  -2.3255  -2.3181  -2.3174
    -2.2660  -2.2399  -2.2207  -2.2170  -2.2168  -2.2009  -2.2004  -2.1975
    -2.1973  -2.1867  -2.1563  -2.1561  -2.1448  -2.1385  -2.1261  -2.1257
    -2.1236  -2.0979  -2.0976  -2.0876  -2.0796  -2.0788  -2.0224  -2.0113
    -1.9994  -1.9990  -1.9975  -1.9779  -1.9775  -1.9644  -1.9436  -1.9435
    -1.9387  -1.9385  -1.9269  -1.9155  -1.9154  -1.9021  -1.8859  -1.8855
    -1.8384  -1.8380  -1.8291  -1.8286  -1.8280  -1.8251  -1.8157  -1.8156
    -1.8131  -1.8118  -1.7994  -1.7949  -1.7944  -1.6804  -1.6799  -1.6512
    -1.6511  -1.6487  -1.6269  -1.6241  -1.6221  -1.6132  -1.6129  -1.5926
    -1.5924  -1.5900  -1.5862  -1.5840  -1.5495  -1.5482  -1.5479  -1.5188
    -1.5182  -1.5130  -1.5124  -1.4987  -1.4985  -1.4411  -1.4383  -1.4148
    -1.4139  -1.4056  -1.3999  -1.3776  -1.3772  -1.3722  -1.3718  -1.3694
    -1.3685  -1.3558  -1.3558  -1.3369  -1.3003  -1.2979  -1.2685  -1.2676
    -1.2577  -1.2210  -1.2188  -1.1873  -1.1858  -1.1762  -1.1755  -1.1620
    -1.1450  -1.1435  -1.1254  -1.1240  -1.0939  -1.0935  -1.0754  -1.0741
    -1.0412  -1.0410  -1.0291  -0.9760  -0.9743  -0.9708  -0.9708  -0.9511
    -0.9507  -0.9338  -0.9332  -0.9028  -0.8915  -0.8715  -0.8702  -0.8687
    -0.8374  -0.8259  -0.8188  -0.8167  -0.8124  -0.8069  -0.8035  -0.8023
    -0.7907  -0.7719  -0.7647  -0.7645  -0.7501  -0.7492  -0.7435  -0.7384
    -0.7257  -0.7074  -0.7045  -0.6805  -0.6787  -0.5976  -0.5801  -0.5794
    -0.5790  -0.5771  -0.5718  -0.5712  -0.5613  -0.5413  -0.5201  -0.5193
    -0.5143  -0.5134  -0.4966  -0.4810  -0.4801  -0.4766  -0.4614  -0.3814
    -0.3811  -0.3535  -0.3523  -0.3439  -0.3419  -0.3357  -0.3345  -0.3342
    -0.3290  -0.3259  -0.3102  -0.2781  -0.2656  -0.2467  -0.2461  -0.2380
    -0.2371  -0.2307  -0.2283  -0.2220  -0.2191  -0.2186  -0.2008  -0.1986
    -0.1976  -0.1670  -0.1656  -0.1653  -0.1483  -0.1481  -0.1256  -0.0996
    -0.0991  -0.0895  -0.0889  -0.0218  -0.0210  -0.0036  -0.0029   0.0583
     0.0616   0.0618   0.0638   0.0902   0.2966   0.3017   0.6409   0.6410
     0.7150   0.7196   0.8669   0.8940   0.9220   1.0524   1.0533   1.4310
     1.4986   1.4986   1.7328   1.7331   1.7881   2.0962   2.1017   2.1318
     2.1323   2.1694   2.1738   2.3249   2.3263   2.5005   2.5006   2.5100
     2.6538   2.6601   2.7032   2.9136   3.2794   3.2803   3.3207   3.3226
     3.3287   3.3309   3.6566   3.6566   3.9894   3.9932   4.0594   4.3253
     4.4533   4.4562   4.6451   4.6467   4.7436   4.7454   4.8234   4.9824
     4.9861   5.0780   5.0792   5.3694   5.4279   5.4337   5.5048   5.6163
     5.6525   5.7711   5.7726   5.7758   5.7768   5.9187   5.9241   5.9768
     6.1784   6.3887   6.5071   6.5986   6.6017   6.6040   6.6058   6.6155
     6.7582   6.8171   6.8210   6.8226   6.9385   7.0997   7.1620   7.1666
     7.2813   7.3078   7.3555

     the Fermi energy is     1.6221 ev

!    total energy              =   -6564.20373357 Ry
     Harris-Foulkes estimate   =   -6564.20373357 Ry
     estimated scf accuracy    <          2.1E-09 Ry

     The total energy is the sum of the following terms:

     one-electron contribution =  -48540.45673852 Ry
     hartree contribution      =   24772.72428258 Ry
     xc contribution           =   -3162.27341294 Ry
     ewald contribution        =   20365.80001383 Ry
     smearing contrib. (-TS)   =       0.00212148 Ry

     convergence has been achieved in  25 iterations

     Writing output data file 7387632.save
