Setting SGE environment for SCC

     Program PWSCF v.5.1.2 starts on  9Aug2015 at 19:33:59 

     This program is part of the open-source Quantum ESPRESSO suite
     for quantum simulation of materials; please cite
         "P. Giannozzi et al., J. Phys.:Condens. Matter 21 395502 (2009);
          URL http://www.quantum-espresso.org", 
     in publications or presentations arising from this work. More details at
     http://www.quantum-espresso.org/quote

     Parallel version (MPI), running on    32 processors
     R & G space division:  proc/nbgrp/npool/nimage =      32
     Reading input from bridge.O1.Au5455.d.2.5.phi.0.psi.90.in
Warning: card &IONS ignored
Warning: card / ignored
Warning: card &CELL ignored
Warning: card / ignored

     Current dimensions of program PWSCF are:
     Max number of different atomic species (ntypx) = 10
     Max number of k-points (npk) =  40000
     Max angular momentum in pseudopotentials (lmaxx) =  3

     Subspace diagonalization in iterative solution of the eigenvalue problem:
     a serial algorithm will be used


     Parallelization info
     --------------------
     sticks:   dense  smooth     PW     G-vecs:    dense   smooth      PW
     Min         445     223     58                96775    34191    4534
     Max         446     224     59                96790    34246    4540
     Sum       14269    7147   1867              3097177  1095093  145167


     Title: 
     bridge.O1.Au5455.d.2.5.phi.0.psi.90                                        


     bravais-lattice index     =            4
     lattice parameter (alat)  =      22.7436  a.u.
     unit-cell volume          =   22924.1508 (a.u.)^3
     number of atoms/cell      =           67
     number of atomic types    =            3
     number of electrons       =       712.00
     number of Kohn-Sham states=          427
     kinetic-energy cutoff     =      50.0000  Ry
     charge density cutoff     =     400.0000  Ry
     convergence threshold     =      1.0E-08
     mixing beta               =       0.7000
     number of iterations used =            8  plain     mixing
     Exchange-correlation      =  SLA  PW   PBE  PBE ( 1  4  3  4 0 0)

     celldm(1)=  22.743643  celldm(2)=   0.000000  celldm(3)=   2.250000
     celldm(4)=   0.000000  celldm(5)=   0.000000  celldm(6)=   0.000000

     crystal axes: (cart. coord. in units of alat)
               a(1) = (   1.000000   0.000000   0.000000 )  
               a(2) = (  -0.500000   0.866025   0.000000 )  
               a(3) = (   0.000000   0.000000   2.250000 )  

     reciprocal axes: (cart. coord. in units 2 pi/alat)
               b(1) = (  1.000000  0.577350 -0.000000 )  
               b(2) = (  0.000000  1.154701  0.000000 )  
               b(3) = (  0.000000 -0.000000  0.444444 )  


     PseudoPot. # 1 for Au read from file:
     /home/scc/andrejb/qe/pseudo/Au.pbe-nd-van.UPF
     MD5 check sum: 458681b50f36d87ef23c61b04bba420a
     Pseudo is Ultrasoft + core correction, Zval = 11.0
     Generated by new atomic code, or converted to UPF format
     Using radial grid of  985 points,  3 beta functions with: 
                l(1) =   1
                l(2) =   2
                l(3) =   2
     Q(r) pseudized with  8 coefficients,  rinner =    1.100   1.100   1.100
                                                       1.100   1.100

     PseudoPot. # 2 for H  read from file:
     /home/scc/andrejb/qe/pseudo/H.pbe-van_ak.UPF
     MD5 check sum: 403db7282739603aa925980fa9b8608d
     Pseudo is Ultrasoft, Zval =  1.0
     Generated by new atomic code, or converted to UPF format
     Using radial grid of  615 points,  1 beta functions with: 
                l(1) =   0
     Q(r) pseudized with  8 coefficients,  rinner =    0.800

     PseudoPot. # 3 for O  read from file:
     /home/scc/andrejb/qe/pseudo/O.pbe-van_ak.UPF
     MD5 check sum: 4b8c549914a63cae506c6ff22b5af4fe
     Pseudo is Ultrasoft, Zval =  6.0
     Generated by new atomic code, or converted to UPF format
     Using radial grid of  737 points,  4 beta functions with: 
                l(1) =   0
                l(2) =   0
                l(3) =   1
                l(4) =   1
     Q(r) pseudized with  8 coefficients,  rinner =    0.800   0.800   0.800


     atomic species   valence    mass     pseudopotential
        Au            11.00   196.96657     Au( 1.00)
        H              1.00     1.01000     H ( 1.00)
        O              6.00    16.00000     O ( 1.00)

     No symmetry found



   Cartesian axes

     site n.     atom                  positions (alat units)
         1           O   tau(   1) = (   0.2915728   0.2885783   0.8207383  )
         2           H   tau(   2) = (   0.2416394   0.2403247   0.7791907  )
         3           H   tau(   3) = (   0.3399922   0.2378175   0.8610452  )
         4           Au  tau(   4) = (   0.3540481   0.6132292   0.0000000  )
         5           Au  tau(   5) = (   0.4790062   0.3967954   0.0000000  )
         6           Au  tau(   6) = (   0.6039644   0.1803616   0.0000000  )
         7           Au  tau(   7) = (   0.7289225  -0.0360723   0.0000000  )
         8           Au  tau(   8) = (   0.1041318   0.6132292   0.0000000  )
         9           Au  tau(   9) = (   0.2290899   0.3967954   0.0000000  )
        10           Au  tau(  10) = (   0.3540481   0.1803616   0.0000000  )
        11           Au  tau(  11) = (   0.4790062  -0.0360723   0.0000000  )
        12           Au  tau(  12) = (  -0.1457845   0.6132292   0.0000000  )
        13           Au  tau(  13) = (  -0.0208264   0.3967954   0.0000000  )
        14           Au  tau(  14) = (   0.1041318   0.1803616   0.0000000  )
        15           Au  tau(  15) = (   0.2290899  -0.0360723   0.0000000  )
        16           Au  tau(  16) = (  -0.3957008   0.6132292   0.0000000  )
        17           Au  tau(  17) = (  -0.2707426   0.3967954   0.0000000  )
        18           Au  tau(  18) = (  -0.1457845   0.1803616   0.0000000  )
        19           Au  tau(  19) = (  -0.0208264  -0.0360723   0.0000000  )
        20           Au  tau(  20) = (   0.4790062   0.6853738   0.2040557  )
        21           Au  tau(  21) = (   0.6039644   0.4689400   0.2040557  )
        22           Au  tau(  22) = (   0.7289225   0.2525061   0.2040557  )
        23           Au  tau(  23) = (   0.8538806   0.0360723   0.2040557  )
        24           Au  tau(  24) = (   0.2290899   0.6853738   0.2040557  )
        25           Au  tau(  25) = (   0.3540481   0.4689400   0.2040557  )
        26           Au  tau(  26) = (   0.4790062   0.2525061   0.2040557  )
        27           Au  tau(  27) = (   0.6039644   0.0360723   0.2040557  )
        28           Au  tau(  28) = (  -0.0208264   0.6853738   0.2040557  )
        29           Au  tau(  29) = (   0.1041318   0.4689400   0.2040557  )
        30           Au  tau(  30) = (   0.2290899   0.2525061   0.2040557  )
        31           Au  tau(  31) = (   0.3540481   0.0360723   0.2040557  )
        32           Au  tau(  32) = (  -0.2707426   0.6853738   0.2040557  )
        33           Au  tau(  33) = (  -0.1457845   0.4689400   0.2040557  )
        34           Au  tau(  34) = (  -0.0208264   0.2525061   0.2040557  )
        35           Au  tau(  35) = (   0.1041318   0.0360723   0.2040557  )
        36           Au  tau(  36) = (   0.3541162   0.7576593   0.4066483  )
        37           Au  tau(  37) = (   0.4791000   0.5411421   0.4066695  )
        38           Au  tau(  38) = (   0.6040570   0.3246862   0.4066617  )
        39           Au  tau(  39) = (   0.7290270   0.1081684   0.4066529  )
        40           Au  tau(  40) = (   0.1041162   0.7576236   0.4066247  )
        41           Au  tau(  41) = (   0.2291001   0.5411063   0.4066455  )
        42           Au  tau(  42) = (   0.3540567   0.3246505   0.4066380  )
        43           Au  tau(  43) = (   0.4790276   0.1081324   0.4066292  )
        44           Au  tau(  44) = (  -0.1458201   0.7576104   0.4066224  )
        45           Au  tau(  45) = (  -0.0208365   0.5410930   0.4066438  )
        46           Au  tau(  46) = (   0.1041202   0.3246372   0.4066359  )
        47           Au  tau(  47) = (   0.2290908   0.1081193   0.4066273  )
        48           Au  tau(  48) = (  -0.3958167   0.7575791   0.4065812  )
        49           Au  tau(  49) = (  -0.2708328   0.5410617   0.4066025  )
        50           Au  tau(  50) = (  -0.1458763   0.3246061   0.4065947  )
        51           Au  tau(  51) = (  -0.0209056   0.1080882   0.4065858  )
        52           Au  tau(  52) = (   0.3541085   0.6133344   0.6129762  )
        53           Au  tau(  53) = (   0.4790780   0.3968269   0.6129968  )
        54           Au  tau(  54) = (   0.6040356   0.1803811   0.6129859  )
        55           Au  tau(  55) = (   0.7290165  -0.0361221   0.6129385  )
        56           Au  tau(  56) = (   0.1041243   0.6133091   0.6130022  )
        57           Au  tau(  57) = (   0.2290941   0.3968013   0.6130241  )
        58           Au  tau(  58) = (   0.3540515   0.1803552   0.6130121  )
        59           Au  tau(  59) = (   0.4790323  -0.0361475   0.6129659  )
        60           Au  tau(  60) = (  -0.1458030   0.6133014   0.6129980  )
        61           Au  tau(  61) = (  -0.0208339   0.3967936   0.6130188  )
        62           Au  tau(  62) = (   0.1041239   0.1803477   0.6130083  )
        63           Au  tau(  63) = (   0.2291046  -0.0361554   0.6129607  )
        64           Au  tau(  64) = (  -0.3957908   0.6132739   0.6129471  )
        65           Au  tau(  65) = (  -0.2708208   0.3967658   0.6129688  )
        66           Au  tau(  66) = (  -0.1458636   0.1803200   0.6129569  )
        67           Au  tau(  67) = (  -0.0208823  -0.0361826   0.6129110  )

     number of k points=    12  Marzari-Vanderbilt smearing, width (Ry)=  0.0200
                       cart. coord. in units 2pi/alat
        k(    1) = (   0.2500000   0.4330127   0.1111111), wk =   0.1666667
        k(    2) = (   0.2500000  -0.1443376   0.1111111), wk =   0.1666667
        k(    3) = (  -0.2500000  -0.4330127   0.1111111), wk =   0.1666667
        k(    4) = (  -0.2500000   0.4330127  -0.1111111), wk =   0.1666667
        k(    5) = (   0.2500000  -0.4330127  -0.1111111), wk =   0.1666667
        k(    6) = (   0.5000000   0.0000000   0.1111111), wk =   0.1666667
        k(    7) = (  -0.5000000   0.0000000   0.1111111), wk =   0.1666667
        k(    8) = (  -0.2500000   0.1443376   0.1111111), wk =   0.1666667
        k(    9) = (  -0.2500000  -0.1443376  -0.1111111), wk =   0.1666667
        k(   10) = (   0.2500000   0.1443376  -0.1111111), wk =   0.1666667
        k(   11) = (   0.0000000  -0.2886751   0.1111111), wk =   0.1666667
        k(   12) = (   0.0000000   0.2886751   0.1111111), wk =   0.1666667

     Dense  grid:  3097177 G-vectors     FFT dimensions: ( 150, 150, 360)

     Smooth grid:  1095093 G-vectors     FFT dimensions: ( 108, 108, 240)

     Largest allocated arrays     est. size (Mb)     dimensions
        Kohn-Sham Wavefunctions        28.01 Mb     (    4299,  427)
        NL pseudopotentials            55.23 Mb     (    4299,  842)
        Each V/rho on FFT grid          4.12 Mb     (  270000)
        Each G-vector array             0.74 Mb     (   96788)
        G-vector shells                 0.16 Mb     (   21404)
     Largest temporary arrays     est. size (Mb)     dimensions
        Auxiliary wavefunctions       112.04 Mb     (    4299, 1708)
        Each subspace H/S matrix       44.51 Mb     (    1708, 1708)
        Each <psi_i|beta_j> matrix      5.49 Mb     (     842,  427)
        Arrays for rho mixing          32.96 Mb     (  270000,    8)

     Initial potential from superposition of free atoms
     Check: negative starting charge=   -1.730347

     starting charge  711.25682, renormalised to  712.00000

     negative rho (up, down):  1.732E+00 0.000E+00
     Starting wfc are  582 randomized atomic wfcs

     total cpu time spent up to now is      152.1 secs

     Self-consistent Calculation

     iteration #  1     ecut=    50.00 Ry     beta=0.70
     Davidson diagonalization with overlap
     ethr =  1.00E-02,  avg # of iterations =  3.0

     Threshold (ethr) on eigenvalues was too large:
     Diagonalizing with lowered threshold

     Davidson diagonalization with overlap
     ethr =  4.22E-04,  avg # of iterations =  3.0

     negative rho (up, down):  1.713E+00 0.000E+00

     total cpu time spent up to now is      744.4 secs

     total energy              =   -6562.25473650 Ry
     Harris-Foulkes estimate   =   -6564.96161973 Ry
     estimated scf accuracy    <       3.49116212 Ry

     iteration #  2     ecut=    50.00 Ry     beta=0.70
     Davidson diagonalization with overlap
     ethr =  4.90E-04,  avg # of iterations = 11.3

     negative rho (up, down):  1.714E+00 0.000E+00

     total cpu time spent up to now is     1723.4 secs

     total energy              =   -6555.21039967 Ry
     Harris-Foulkes estimate   =   -6570.74482352 Ry
     estimated scf accuracy    <      87.34152862 Ry

     iteration #  3     ecut=    50.00 Ry     beta=0.70
     Davidson diagonalization with overlap
     ethr =  4.90E-04,  avg # of iterations =  6.0

     negative rho (up, down):  1.730E+00 0.000E+00

     total cpu time spent up to now is     2333.4 secs

     total energy              =   -6562.80424214 Ry
     Harris-Foulkes estimate   =   -6564.90499842 Ry
     estimated scf accuracy    <       8.57519737 Ry

     iteration #  4     ecut=    50.00 Ry     beta=0.70
     Davidson diagonalization with overlap
     ethr =  4.90E-04,  avg # of iterations =  6.4

     negative rho (up, down):  1.733E+00 0.000E+00

     total cpu time spent up to now is     2725.2 secs

     total energy              =   -6562.51492268 Ry
     Harris-Foulkes estimate   =   -6565.55676795 Ry
     estimated scf accuracy    <      34.17187832 Ry

     iteration #  5     ecut=    50.00 Ry     beta=0.70
     Davidson diagonalization with overlap
     ethr =  4.90E-04,  avg # of iterations =  5.3

     negative rho (up, down):  1.744E+00 0.000E+00

     total cpu time spent up to now is     3079.7 secs

     total energy              =   -6564.08852066 Ry
     Harris-Foulkes estimate   =   -6564.38826877 Ry
     estimated scf accuracy    <       1.56332267 Ry

     iteration #  6     ecut=    50.00 Ry     beta=0.70
     Davidson diagonalization with overlap
     ethr =  2.20E-04,  avg # of iterations =  3.8

     negative rho (up, down):  1.748E+00 0.000E+00

     total cpu time spent up to now is     3378.8 secs

     total energy              =   -6564.17090623 Ry
     Harris-Foulkes estimate   =   -6564.23426724 Ry
     estimated scf accuracy    <       0.19634008 Ry

     iteration #  7     ecut=    50.00 Ry     beta=0.70
     Davidson diagonalization with overlap
     ethr =  2.76E-05,  avg # of iterations =  8.9

     negative rho (up, down):  1.751E+00 0.000E+00

     total cpu time spent up to now is     3801.1 secs

     total energy              =   -6564.18857629 Ry
     Harris-Foulkes estimate   =   -6564.21484330 Ry
     estimated scf accuracy    <       0.10629634 Ry

     iteration #  8     ecut=    50.00 Ry     beta=0.70
     Davidson diagonalization with overlap
     ethr =  1.49E-05,  avg # of iterations =  6.2

     negative rho (up, down):  1.752E+00 0.000E+00

     total cpu time spent up to now is     4150.8 secs

     total energy              =   -6564.19034885 Ry
     Harris-Foulkes estimate   =   -6564.20595010 Ry
     estimated scf accuracy    <       0.05345385 Ry

     iteration #  9     ecut=    50.00 Ry     beta=0.70
     Davidson diagonalization with overlap
     ethr =  7.51E-06,  avg # of iterations =  9.2

     negative rho (up, down):  1.753E+00 0.000E+00

     total cpu time spent up to now is     4564.8 secs

     total energy              =   -6564.19348685 Ry
     Harris-Foulkes estimate   =   -6564.19873307 Ry
     estimated scf accuracy    <       0.01411573 Ry

     iteration # 10     ecut=    50.00 Ry     beta=0.70
     Davidson diagonalization with overlap
     ethr =  1.98E-06,  avg # of iterations =  7.8

     negative rho (up, down):  1.753E+00 0.000E+00

     total cpu time spent up to now is     4988.0 secs

     total energy              =   -6564.19494215 Ry
     Harris-Foulkes estimate   =   -6564.19700627 Ry
     estimated scf accuracy    <       0.00679749 Ry

     iteration # 11     ecut=    50.00 Ry     beta=0.70
     Davidson diagonalization with overlap
     ethr =  9.55E-07,  avg # of iterations =  2.0

     negative rho (up, down):  1.754E+00 0.000E+00

     total cpu time spent up to now is     5262.6 secs

     total energy              =   -6564.19571616 Ry
     Harris-Foulkes estimate   =   -6564.19629928 Ry
     estimated scf accuracy    <       0.00199846 Ry

     iteration # 12     ecut=    50.00 Ry     beta=0.70
     Davidson diagonalization with overlap
     ethr =  2.81E-07,  avg # of iterations =  2.0

     negative rho (up, down):  1.754E+00 0.000E+00

     total cpu time spent up to now is     5531.7 secs

     total energy              =   -6564.19596551 Ry
     Harris-Foulkes estimate   =   -6564.19604713 Ry
     estimated scf accuracy    <       0.00021939 Ry

     iteration # 13     ecut=    50.00 Ry     beta=0.70
     Davidson diagonalization with overlap
     ethr =  3.08E-08,  avg # of iterations =  3.0

     negative rho (up, down):  1.754E+00 0.000E+00

     total cpu time spent up to now is     5900.9 secs

     total energy              =   -6564.19594715 Ry
     Harris-Foulkes estimate   =   -6564.19607443 Ry
     estimated scf accuracy    <       0.00056838 Ry

     iteration # 14     ecut=    50.00 Ry     beta=0.70
     Davidson diagonalization with overlap
     ethr =  3.08E-08,  avg # of iterations =  2.0

     negative rho (up, down):  1.754E+00 0.000E+00

     total cpu time spent up to now is     6195.4 secs

     total energy              =   -6564.19600002 Ry
     Harris-Foulkes estimate   =   -6564.19602890 Ry
     estimated scf accuracy    <       0.00019349 Ry

     iteration # 15     ecut=    50.00 Ry     beta=0.70
     Davidson diagonalization with overlap
     ethr =  2.72E-08,  avg # of iterations =  1.0

     negative rho (up, down):  1.754E+00 0.000E+00

     total cpu time spent up to now is     6450.7 secs

     total energy              =   -6564.19601399 Ry
     Harris-Foulkes estimate   =   -6564.19601742 Ry
     estimated scf accuracy    <       0.00001337 Ry

     iteration # 16     ecut=    50.00 Ry     beta=0.70
     Davidson diagonalization with overlap
     ethr =  1.88E-09,  avg # of iterations =  3.0

     negative rho (up, down):  1.754E+00 0.000E+00

     total cpu time spent up to now is     6782.3 secs

     total energy              =   -6564.19601322 Ry
     Harris-Foulkes estimate   =   -6564.19601941 Ry
     estimated scf accuracy    <       0.00003850 Ry

     iteration # 17     ecut=    50.00 Ry     beta=0.70
     Davidson diagonalization with overlap
     ethr =  1.88E-09,  avg # of iterations =  2.0

     negative rho (up, down):  1.754E+00 0.000E+00

     total cpu time spent up to now is     7048.4 secs

     total energy              =   -6564.19601609 Ry
     Harris-Foulkes estimate   =   -6564.19601645 Ry
     estimated scf accuracy    <       0.00000128 Ry

     iteration # 18     ecut=    50.00 Ry     beta=0.70
     Davidson diagonalization with overlap
     ethr =  1.80E-10,  avg # of iterations =  2.7

     negative rho (up, down):  1.754E+00 0.000E+00

     total cpu time spent up to now is     7375.0 secs

     total energy              =   -6564.19601617 Ry
     Harris-Foulkes estimate   =   -6564.19601660 Ry
     estimated scf accuracy    <       0.00000199 Ry

     iteration # 19     ecut=    50.00 Ry     beta=0.70
     Davidson diagonalization with overlap
     ethr =  1.80E-10,  avg # of iterations =  3.0

     negative rho (up, down):  1.754E+00 0.000E+00

     total cpu time spent up to now is     7658.5 secs

     total energy              =   -6564.19601637 Ry
     Harris-Foulkes estimate   =   -6564.19601640 Ry
     estimated scf accuracy    <       0.00000011 Ry

     iteration # 20     ecut=    50.00 Ry     beta=0.70
     Davidson diagonalization with overlap
     ethr =  1.48E-11,  avg # of iterations =  3.0

     negative rho (up, down):  1.754E+00 0.000E+00

     total cpu time spent up to now is     8005.1 secs

     total energy              =   -6564.19601638 Ry
     Harris-Foulkes estimate   =   -6564.19601640 Ry
     estimated scf accuracy    <       0.00000010 Ry

     iteration # 21     ecut=    50.00 Ry     beta=0.70
     Davidson diagonalization with overlap
     ethr =  1.36E-11,  avg # of iterations =  2.0

     negative rho (up, down):  1.754E+00 0.000E+00

     total cpu time spent up to now is     8276.4 secs

     total energy              =   -6564.19601639 Ry
     Harris-Foulkes estimate   =   -6564.19601640 Ry
     estimated scf accuracy    <       0.00000003 Ry

     iteration # 22     ecut=    50.00 Ry     beta=0.70
     Davidson diagonalization with overlap
     ethr =  3.73E-12,  avg # of iterations =  2.0

     negative rho (up, down):  1.754E+00 0.000E+00

     total cpu time spent up to now is     8550.4 secs

     End of self-consistent calculation

          k = 0.2500 0.4330 0.1111 (136853 PWs)   bands (ev):

   -19.1679  -7.0718  -6.3344  -5.9356  -5.9344  -5.2600  -4.9121  -4.9116
    -4.8878  -4.8842  -4.4646  -4.4634  -4.3824  -4.3452  -4.3384  -4.3377
    -4.2993  -4.1802  -4.1790  -4.1346  -4.0901  -4.0886  -4.0880  -4.0871
    -4.0389  -4.0372  -4.0095  -4.0078  -3.9874  -3.9777  -3.9693  -3.8912
    -3.8902  -3.8729  -3.8713  -3.8321  -3.8280  -3.8270  -3.8072  -3.8059
    -3.8030  -3.7325  -3.7292  -3.6698  -3.6659  -3.6618  -3.6533  -3.6013
    -3.5901  -3.5586  -3.5584  -3.5237  -3.5190  -3.5111  -3.4908  -3.4875
    -3.4853  -3.4842  -3.4774  -3.4594  -3.4151  -3.4024  -3.3940  -3.3764
    -3.3450  -3.3289  -3.3085  -3.3012  -3.2570  -3.2522  -3.2283  -3.2191
    -3.1983  -3.1698  -3.1385  -3.1312  -3.0995  -3.0988  -3.0650  -3.0598
    -3.0538  -3.0156  -2.9877  -2.9852  -2.9654  -2.9632  -2.9585  -2.9579
    -2.9572  -2.9545  -2.9488  -2.8941  -2.8361  -2.8350  -2.8336  -2.8331
    -2.8277  -2.8088  -2.8076  -2.7892  -2.7146  -2.7118  -2.7113  -2.7057
    -2.6564  -2.6506  -2.6501  -2.6341  -2.6297  -2.5773  -2.5657  -2.5610
    -2.5581  -2.5189  -2.5165  -2.5143  -2.4765  -2.4742  -2.4228  -2.4013
    -2.3955  -2.3927  -2.3896  -2.3712  -2.3683  -2.3651  -2.3597  -2.3576
    -2.3222  -2.2945  -2.2873  -2.2835  -2.2801  -2.2789  -2.2775  -2.2763
    -2.2755  -2.2676  -2.2415  -2.2410  -2.2387  -2.2376  -2.2359  -2.2247
    -2.2221  -2.2177  -2.1941  -2.1913  -2.1882  -2.1714  -2.1680  -2.1513
    -2.1474  -2.1305  -2.1211  -2.1201  -2.1185  -2.1170  -2.1114  -2.1105
    -2.1098  -2.0965  -2.0945  -2.0839  -2.0781  -2.0751  -1.9950  -1.9947
    -1.9812  -1.9778  -1.9690  -1.9602  -1.9486  -1.9315  -1.9269  -1.9116
    -1.9022  -1.8892  -1.8873  -1.8783  -1.8591  -1.8535  -1.8496  -1.8478
    -1.8418  -1.8334  -1.8079  -1.7842  -1.7651  -1.7542  -1.7441  -1.7356
    -1.7285  -1.6684  -1.6670  -1.6605  -1.6562  -1.5938  -1.5881  -1.5841
    -1.5396  -1.5259  -1.5205  -1.4941  -1.4868  -1.4667  -1.4649  -1.4468
    -1.4453  -1.4426  -1.4353  -1.4250  -1.3898  -1.3872  -1.3853  -1.3817
    -1.3779  -1.3574  -1.3483  -1.3464  -1.3208  -1.3125  -1.3015  -1.2991
    -1.2960  -1.2913  -1.2714  -1.2673  -1.2430  -1.2428  -1.2397  -1.2348
    -1.2227  -1.1810  -1.1700  -1.1628  -1.1564  -1.1487  -1.1380  -1.1082
    -1.0756  -1.0542  -1.0083  -1.0063  -1.0035  -1.0001  -0.9968  -0.9940
    -0.9904  -0.9831  -0.9612  -0.9342  -0.9304  -0.9172  -0.9122  -0.9008
    -0.8858  -0.8827  -0.8746  -0.8711  -0.8694  -0.8684  -0.8610  -0.8256
    -0.8208  -0.8118  -0.8107  -0.8035  -0.7987  -0.7919  -0.7639  -0.7558
    -0.7452  -0.7243  -0.7097  -0.6907  -0.6680  -0.6581  -0.6528  -0.6520
    -0.6447  -0.6414  -0.6338  -0.6324  -0.6296  -0.6142  -0.6022  -0.5995
    -0.5900  -0.5894  -0.5774  -0.5670  -0.5484  -0.5472  -0.5403  -0.5192
    -0.5134  -0.5009  -0.4887  -0.4496  -0.4478  -0.4472  -0.4423  -0.4367
    -0.4326  -0.4250  -0.4124  -0.4089  -0.4006  -0.3990  -0.3967  -0.3844
    -0.3568  -0.3541  -0.3534  -0.3461  -0.3449  -0.3396  -0.3368  -0.3250
    -0.3191  -0.3172  -0.3029  -0.2870  -0.2827  -0.2788  -0.2633  -0.2593
    -0.2133  -0.2074  -0.1823  -0.1811  -0.1729  -0.1712  -0.1400  -0.1307
    -0.1302  -0.1112  -0.1096  -0.0783  -0.0312  -0.0216   0.0825   0.4814
     0.4837   0.5087   0.5093   0.5699   0.5892   0.9172   0.9216   0.9325
     0.9393   1.1120   1.1785   1.2620   1.2784   1.5220   1.5439   2.1036
     2.1129   2.2329   2.2461   2.4457   2.4580   2.5192   2.5207   2.6083
     2.8814   2.8987   3.0669   3.2778   3.2835   3.3079   3.3140   3.3774
     3.4765   3.6380   3.6456   3.6843   3.9264   3.9283   3.9957   4.0038
     4.2402   4.2496   4.2757   4.4590   4.4690   4.5253   4.6105   4.8958
     4.9349   4.9376   5.1240   5.2208   5.2229   5.3267   5.3377   5.8920
     5.9469   6.0044   6.0121   6.0854   6.0901   6.1618   6.2162   6.2281
     6.2435   6.2489   6.2762   6.3069   6.3162   6.3227   6.3370   6.4013
     6.5485   6.8139   6.8951   6.9286   6.9305   6.9558   6.9634   7.0949
     7.1352   7.1551   7.1917

          k = 0.2500-0.1443 0.1111 (136898 PWs)   bands (ev):

   -19.1679  -7.0724  -6.5434  -5.7509  -5.4633  -5.3980  -5.3967  -4.8412
    -4.8404  -4.7297  -4.6911  -4.5438  -4.4734  -4.4430  -4.4396  -4.3909
    -4.3213  -4.3204  -4.1834  -4.1413  -4.1411  -4.1249  -4.1220  -4.1182
    -3.9983  -3.9978  -3.9202  -3.9080  -3.9066  -3.9054  -3.8861  -3.8851
    -3.8244  -3.7647  -3.7638  -3.7531  -3.7449  -3.7417  -3.7331  -3.7307
    -3.7241  -3.6811  -3.6754  -3.6650  -3.6639  -3.6584  -3.6545  -3.6274
    -3.6196  -3.6172  -3.6022  -3.5887  -3.5687  -3.5667  -3.5448  -3.5008
    -3.5002  -3.4534  -3.4401  -3.4302  -3.4195  -3.4048  -3.3581  -3.3272
    -3.3260  -3.3185  -3.3124  -3.3033  -3.2847  -3.2807  -3.2728  -3.1275
    -3.1235  -3.1114  -3.1088  -3.1016  -3.0661  -3.0653  -3.0625  -3.0558
    -3.0056  -3.0022  -2.9868  -2.9844  -2.9470  -2.9264  -2.9249  -2.9028
    -2.8944  -2.8933  -2.8501  -2.8489  -2.8313  -2.8290  -2.8232  -2.8209
    -2.8000  -2.7987  -2.7561  -2.7539  -2.7485  -2.7476  -2.7317  -2.6885
    -2.6851  -2.6607  -2.6526  -2.6505  -2.5787  -2.5727  -2.5442  -2.5430
    -2.5380  -2.5267  -2.5036  -2.4806  -2.4771  -2.4619  -2.4571  -2.4553
    -2.4521  -2.4436  -2.4346  -2.4321  -2.4255  -2.4225  -2.4165  -2.4132
    -2.3601  -2.3394  -2.3166  -2.3153  -2.3140  -2.3005  -2.2969  -2.2954
    -2.2942  -2.2850  -2.2532  -2.2517  -2.2400  -2.2373  -2.2257  -2.2229
    -2.2218  -2.1989  -2.1973  -2.1870  -2.1768  -2.1756  -2.1252  -2.1068
    -2.1025  -2.0954  -2.0944  -2.0861  -2.0772  -2.0591  -2.0454  -2.0395
    -2.0390  -2.0352  -2.0307  -2.0257  -2.0160  -1.9995  -1.9949  -1.9856
    -1.9534  -1.9364  -1.9357  -1.9322  -1.9290  -1.9247  -1.9181  -1.9138
    -1.9118  -1.9090  -1.8972  -1.8943  -1.8935  -1.8252  -1.7812  -1.7714
    -1.7520  -1.7480  -1.7397  -1.7216  -1.7197  -1.7162  -1.7101  -1.7028
    -1.6909  -1.6884  -1.6866  -1.6857  -1.6493  -1.6459  -1.6442  -1.6282
    -1.6163  -1.6130  -1.6098  -1.6068  -1.5987  -1.5478  -1.5375  -1.5181
    -1.5111  -1.5049  -1.5005  -1.4977  -1.4754  -1.4731  -1.4701  -1.4693
    -1.4672  -1.4578  -1.4534  -1.4451  -1.4150  -1.3964  -1.3735  -1.3678
    -1.3555  -1.3411  -1.3171  -1.2976  -1.2848  -1.2737  -1.2715  -1.2706
    -1.2607  -1.2456  -1.2272  -1.2238  -1.1958  -1.1899  -1.1855  -1.1732
    -1.1424  -1.1392  -1.1260  -1.1156  -1.0769  -1.0710  -1.0676  -1.0646
    -1.0495  -1.0433  -1.0314  -1.0209  -1.0004  -0.9887  -0.9685  -0.9673
    -0.9634  -0.9253  -0.9194  -0.9146  -0.9079  -0.9073  -0.9016  -0.8986
    -0.8920  -0.8672  -0.8649  -0.8629  -0.8497  -0.8438  -0.8407  -0.8282
    -0.8200  -0.8088  -0.7896  -0.7775  -0.7579  -0.6951  -0.6803  -0.6786
    -0.6758  -0.6718  -0.6691  -0.6663  -0.6433  -0.6335  -0.6218  -0.6162
    -0.6129  -0.5977  -0.5930  -0.5803  -0.5760  -0.5602  -0.5484  -0.4775
    -0.4754  -0.4520  -0.4438  -0.4401  -0.4344  -0.4320  -0.4301  -0.4284
    -0.4237  -0.4191  -0.3802  -0.3696  -0.3599  -0.3433  -0.3414  -0.3343
    -0.3319  -0.3262  -0.3205  -0.3200  -0.3155  -0.3087  -0.2981  -0.2945
    -0.2890  -0.2632  -0.2624  -0.2590  -0.2437  -0.2410  -0.2207  -0.1958
    -0.1951  -0.1856  -0.1841  -0.1179  -0.1153  -0.1017  -0.1013  -0.0389
    -0.0375  -0.0363  -0.0172  -0.0128   0.1984   0.2282   0.5446   0.5452
     0.6156   0.6388   0.7717   0.8023   0.8453   0.9523   0.9639   1.3349
     1.4026   1.4031   1.6356   1.6378   1.6958   1.9933   2.0137   2.0325
     2.0388   2.0668   2.0900   2.2254   2.2313   2.4037   2.4042   2.4177
     2.5516   2.5754   2.6101   2.8183   3.1760   3.1865   3.2188   3.2241
     3.2297   3.2434   3.5589   3.5618   3.8830   3.9031   3.9652   4.2300
     4.3477   4.3613   4.5288   4.5730   4.6434   4.6456   4.7245   4.8845
     4.8898   4.9771   4.9853   5.2666   5.3251   5.3330   5.4852   5.5411
     5.6681   5.6751   5.6784   5.6840   5.8051   5.8204   5.8449   5.9025
     6.2968   6.4036   6.4567   6.4929   6.5001   6.5065   6.5172   6.6640
     6.7109   6.7264   6.7899   6.7970   7.0360   7.0553   7.0893   7.2165
     7.3437   7.3654   7.3864

          k =-0.2500-0.4330 0.1111 (136853 PWs)   bands (ev):

   -19.1679  -7.0717  -6.3344  -5.9356  -5.9344  -5.2600  -4.9121  -4.9116
    -4.8878  -4.8842  -4.4646  -4.4634  -4.3824  -4.3452  -4.3384  -4.3377
    -4.2993  -4.1802  -4.1790  -4.1346  -4.0901  -4.0886  -4.0880  -4.0871
    -4.0389  -4.0372  -4.0095  -4.0078  -3.9874  -3.9777  -3.9693  -3.8912
    -3.8902  -3.8729  -3.8713  -3.8321  -3.8280  -3.8270  -3.8072  -3.8059
    -3.8030  -3.7325  -3.7292  -3.6698  -3.6659  -3.6618  -3.6533  -3.6013
    -3.5901  -3.5586  -3.5584  -3.5237  -3.5190  -3.5111  -3.4908  -3.4875
    -3.4853  -3.4842  -3.4774  -3.4594  -3.4151  -3.4024  -3.3940  -3.3764
    -3.3450  -3.3289  -3.3086  -3.3012  -3.2570  -3.2522  -3.2283  -3.2191
    -3.1983  -3.1698  -3.1385  -3.1312  -3.0995  -3.0988  -3.0650  -3.0598
    -3.0538  -3.0156  -2.9877  -2.9852  -2.9654  -2.9632  -2.9585  -2.9579
    -2.9572  -2.9545  -2.9488  -2.8941  -2.8361  -2.8350  -2.8336  -2.8331
    -2.8277  -2.8088  -2.8076  -2.7892  -2.7146  -2.7118  -2.7113  -2.7057
    -2.6564  -2.6506  -2.6501  -2.6341  -2.6297  -2.5773  -2.5657  -2.5610
    -2.5581  -2.5189  -2.5165  -2.5143  -2.4765  -2.4742  -2.4228  -2.4013
    -2.3955  -2.3927  -2.3896  -2.3712  -2.3683  -2.3651  -2.3597  -2.3576
    -2.3222  -2.2945  -2.2873  -2.2835  -2.2801  -2.2789  -2.2775  -2.2763
    -2.2755  -2.2676  -2.2415  -2.2410  -2.2387  -2.2376  -2.2359  -2.2247
    -2.2221  -2.2177  -2.1941  -2.1913  -2.1882  -2.1714  -2.1680  -2.1513
    -2.1474  -2.1305  -2.1211  -2.1201  -2.1185  -2.1170  -2.1114  -2.1105
    -2.1098  -2.0965  -2.0945  -2.0839  -2.0781  -2.0751  -1.9950  -1.9947
    -1.9812  -1.9778  -1.9690  -1.9602  -1.9486  -1.9315  -1.9269  -1.9116
    -1.9022  -1.8892  -1.8873  -1.8783  -1.8591  -1.8535  -1.8496  -1.8478
    -1.8418  -1.8334  -1.8079  -1.7842  -1.7651  -1.7542  -1.7441  -1.7356
    -1.7285  -1.6684  -1.6670  -1.6605  -1.6562  -1.5938  -1.5881  -1.5841
    -1.5396  -1.5259  -1.5205  -1.4941  -1.4868  -1.4667  -1.4649  -1.4468
    -1.4453  -1.4426  -1.4353  -1.4250  -1.3898  -1.3872  -1.3853  -1.3817
    -1.3779  -1.3574  -1.3483  -1.3464  -1.3208  -1.3125  -1.3015  -1.2991
    -1.2960  -1.2913  -1.2714  -1.2673  -1.2430  -1.2428  -1.2397  -1.2348
    -1.2227  -1.1810  -1.1700  -1.1628  -1.1564  -1.1487  -1.1380  -1.1082
    -1.0756  -1.0542  -1.0083  -1.0063  -1.0035  -1.0001  -0.9968  -0.9940
    -0.9904  -0.9831  -0.9612  -0.9342  -0.9304  -0.9172  -0.9122  -0.9008
    -0.8858  -0.8827  -0.8746  -0.8711  -0.8694  -0.8684  -0.8610  -0.8256
    -0.8208  -0.8118  -0.8107  -0.8035  -0.7987  -0.7919  -0.7639  -0.7558
    -0.7452  -0.7243  -0.7097  -0.6907  -0.6680  -0.6581  -0.6528  -0.6520
    -0.6447  -0.6414  -0.6338  -0.6324  -0.6296  -0.6142  -0.6022  -0.5995
    -0.5900  -0.5894  -0.5774  -0.5670  -0.5484  -0.5472  -0.5403  -0.5192
    -0.5134  -0.5009  -0.4887  -0.4496  -0.4478  -0.4472  -0.4423  -0.4367
    -0.4326  -0.4250  -0.4124  -0.4089  -0.4006  -0.3990  -0.3967  -0.3844
    -0.3568  -0.3541  -0.3534  -0.3461  -0.3449  -0.3396  -0.3368  -0.3250
    -0.3191  -0.3172  -0.3029  -0.2870  -0.2827  -0.2788  -0.2633  -0.2593
    -0.2133  -0.2074  -0.1823  -0.1811  -0.1729  -0.1712  -0.1400  -0.1307
    -0.1302  -0.1112  -0.1096  -0.0783  -0.0312  -0.0216   0.0825   0.4814
     0.4837   0.5087   0.5093   0.5699   0.5892   0.9172   0.9216   0.9325
     0.9393   1.1120   1.1785   1.2620   1.2784   1.5220   1.5439   2.1036
     2.1129   2.2329   2.2461   2.4457   2.4580   2.5192   2.5207   2.6083
     2.8814   2.8987   3.0669   3.2779   3.2835   3.3079   3.3140   3.3774
     3.4765   3.6380   3.6456   3.6843   3.9264   3.9283   3.9957   4.0038
     4.2402   4.2496   4.2757   4.4590   4.4690   4.5253   4.6105   4.8958
     4.9349   4.9376   5.1240   5.2208   5.2229   5.3267   5.3377   5.8921
     5.9469   6.0043   6.0121   6.0854   6.0901   6.1619   6.2155   6.2281
     6.2434   6.2489   6.2763   6.3069   6.3161   6.3226   6.3372   6.4009
     6.5524   6.8114   6.8952   6.9240   6.9351   6.9534   6.9631   7.0947
     7.1285   7.1561   7.1915

          k =-0.2500 0.4330-0.1111 (136853 PWs)   bands (ev):

   -19.1679  -7.0717  -6.3345  -5.9363  -5.9336  -5.2601  -4.9127  -4.9110
    -4.8881  -4.8840  -4.4651  -4.4628  -4.3825  -4.3450  -4.3384  -4.3375
    -4.2991  -4.1810  -4.1783  -4.1347  -4.0902  -4.0887  -4.0883  -4.0863
    -4.0394  -4.0371  -4.0100  -4.0077  -3.9877  -3.9765  -3.9705  -3.8917
    -3.8893  -3.8728  -3.8713  -3.8325  -3.8280  -3.8267  -3.8072  -3.8058
    -3.8028  -3.7324  -3.7291  -3.6686  -3.6667  -3.6620  -3.6531  -3.6011
    -3.5896  -3.5590  -3.5584  -3.5256  -3.5194  -3.5107  -3.4921  -3.4875
    -3.4855  -3.4841  -3.4774  -3.4600  -3.4131  -3.4022  -3.3939  -3.3765
    -3.3450  -3.3315  -3.3092  -3.2951  -3.2576  -3.2529  -3.2276  -3.2225
    -3.1981  -3.1696  -3.1381  -3.1307  -3.1004  -3.0989  -3.0626  -3.0611
    -3.0543  -3.0153  -2.9878  -2.9851  -2.9680  -2.9629  -2.9580  -2.9577
    -2.9568  -2.9540  -2.9487  -2.8938  -2.8369  -2.8350  -2.8336  -2.8329
    -2.8279  -2.8090  -2.8082  -2.7885  -2.7143  -2.7116  -2.7104  -2.7059
    -2.6562  -2.6508  -2.6495  -2.6319  -2.6304  -2.5774  -2.5652  -2.5623
    -2.5578  -2.5204  -2.5160  -2.5148  -2.4767  -2.4751  -2.4230  -2.3983
    -2.3963  -2.3918  -2.3895  -2.3709  -2.3681  -2.3652  -2.3606  -2.3564
    -2.3223  -2.2950  -2.2873  -2.2822  -2.2805  -2.2783  -2.2773  -2.2768
    -2.2750  -2.2725  -2.2441  -2.2412  -2.2388  -2.2380  -2.2351  -2.2223
    -2.2204  -2.2176  -2.1938  -2.1905  -2.1892  -2.1690  -2.1675  -2.1497
    -2.1466  -2.1328  -2.1217  -2.1205  -2.1184  -2.1167  -2.1121  -2.1099
    -2.1089  -2.0968  -2.0950  -2.0837  -2.0775  -2.0752  -1.9991  -1.9935
    -1.9812  -1.9769  -1.9694  -1.9592  -1.9421  -1.9299  -1.9270  -1.9127
    -1.9054  -1.8888  -1.8850  -1.8790  -1.8618  -1.8526  -1.8500  -1.8465
    -1.8429  -1.8350  -1.8092  -1.7926  -1.7653  -1.7536  -1.7464  -1.7305
    -1.7290  -1.6693  -1.6660  -1.6592  -1.6551  -1.5966  -1.5898  -1.5731
    -1.5425  -1.5266  -1.5146  -1.4926  -1.4883  -1.4650  -1.4630  -1.4482
    -1.4453  -1.4429  -1.4330  -1.4253  -1.3924  -1.3879  -1.3867  -1.3796
    -1.3773  -1.3625  -1.3499  -1.3465  -1.3229  -1.3114  -1.3002  -1.2975
    -1.2956  -1.2937  -1.2703  -1.2602  -1.2435  -1.2419  -1.2404  -1.2382
    -1.2230  -1.1888  -1.1751  -1.1613  -1.1566  -1.1493  -1.1371  -1.1108
    -1.0741  -1.0544  -1.0073  -1.0045  -1.0038  -1.0014  -0.9991  -0.9939
    -0.9899  -0.9813  -0.9612  -0.9324  -0.9302  -0.9167  -0.9083  -0.8997
    -0.8861  -0.8826  -0.8760  -0.8736  -0.8691  -0.8677  -0.8642  -0.8274
    -0.8169  -0.8119  -0.8106  -0.8031  -0.7982  -0.7923  -0.7618  -0.7563
    -0.7427  -0.7245  -0.7108  -0.6945  -0.6678  -0.6626  -0.6533  -0.6503
    -0.6448  -0.6433  -0.6346  -0.6314  -0.6294  -0.6134  -0.6017  -0.5987
    -0.5903  -0.5888  -0.5769  -0.5693  -0.5482  -0.5473  -0.5420  -0.5179
    -0.5126  -0.5029  -0.4964  -0.4498  -0.4484  -0.4462  -0.4414  -0.4351
    -0.4335  -0.4215  -0.4131  -0.4097  -0.4012  -0.3993  -0.3966  -0.3846
    -0.3559  -0.3548  -0.3523  -0.3474  -0.3442  -0.3402  -0.3368  -0.3283
    -0.3193  -0.3184  -0.2979  -0.2867  -0.2836  -0.2787  -0.2648  -0.2599
    -0.2118  -0.2072  -0.1824  -0.1800  -0.1736  -0.1700  -0.1399  -0.1306
    -0.1296  -0.1131  -0.1106  -0.0789  -0.0325  -0.0098   0.0882   0.4818
     0.4840   0.5079   0.5092   0.5654   0.5952   0.9137   0.9224   0.9318
     0.9407   1.1143   1.1766   1.2585   1.2791   1.5162   1.5473   2.1010
     2.1165   2.2303   2.2512   2.4413   2.4658   2.5193   2.5209   2.6075
     2.8801   2.8993   3.0629   3.2689   3.2849   3.3079   3.3187   3.3747
     3.4765   3.6250   3.6535   3.6872   3.9254   3.9293   3.9969   4.0097
     4.2354   4.2552   4.2736   4.4587   4.4728   4.5263   4.6088   4.8973
     4.9265   4.9421   5.1277   5.2209   5.2241   5.3186   5.3488   5.8947
     5.9507   5.9916   6.0174   6.0806   6.0918   6.1615   6.2018   6.2359
     6.2449   6.2532   6.2785   6.3092   6.3161   6.3211   6.3584   6.3802
     6.5536   6.8097   6.8895   6.9199   6.9358   6.9577   6.9662   7.0954
     7.1289   7.1776   7.1887

          k = 0.2500-0.4330-0.1111 (136853 PWs)   bands (ev):

   -19.1679  -7.0717  -6.3345  -5.9363  -5.9336  -5.2601  -4.9127  -4.9110
    -4.8881  -4.8840  -4.4651  -4.4628  -4.3825  -4.3450  -4.3384  -4.3375
    -4.2991  -4.1810  -4.1783  -4.1347  -4.0902  -4.0887  -4.0883  -4.0863
    -4.0394  -4.0371  -4.0100  -4.0077  -3.9877  -3.9765  -3.9705  -3.8917
    -3.8893  -3.8728  -3.8713  -3.8325  -3.8280  -3.8267  -3.8072  -3.8058
    -3.8028  -3.7324  -3.7291  -3.6686  -3.6667  -3.6620  -3.6531  -3.6011
    -3.5896  -3.5590  -3.5584  -3.5256  -3.5194  -3.5107  -3.4921  -3.4875
    -3.4855  -3.4841  -3.4774  -3.4600  -3.4131  -3.4022  -3.3939  -3.3765
    -3.3450  -3.3315  -3.3092  -3.2951  -3.2576  -3.2529  -3.2276  -3.2225
    -3.1981  -3.1696  -3.1381  -3.1307  -3.1004  -3.0989  -3.0626  -3.0611
    -3.0543  -3.0153  -2.9878  -2.9851  -2.9680  -2.9629  -2.9580  -2.9577
    -2.9568  -2.9540  -2.9487  -2.8938  -2.8369  -2.8350  -2.8336  -2.8329
    -2.8279  -2.8090  -2.8082  -2.7885  -2.7143  -2.7116  -2.7104  -2.7059
    -2.6562  -2.6508  -2.6495  -2.6319  -2.6304  -2.5774  -2.5652  -2.5623
    -2.5578  -2.5204  -2.5160  -2.5148  -2.4767  -2.4751  -2.4230  -2.3983
    -2.3963  -2.3918  -2.3895  -2.3709  -2.3681  -2.3652  -2.3606  -2.3564
    -2.3223  -2.2950  -2.2873  -2.2822  -2.2805  -2.2783  -2.2773  -2.2768
    -2.2750  -2.2725  -2.2441  -2.2412  -2.2388  -2.2380  -2.2351  -2.2223
    -2.2204  -2.2176  -2.1938  -2.1905  -2.1892  -2.1690  -2.1675  -2.1497
    -2.1466  -2.1328  -2.1217  -2.1205  -2.1184  -2.1167  -2.1121  -2.1099
    -2.1089  -2.0968  -2.0950  -2.0837  -2.0775  -2.0752  -1.9991  -1.9935
    -1.9812  -1.9769  -1.9694  -1.9592  -1.9421  -1.9299  -1.9270  -1.9127
    -1.9054  -1.8888  -1.8850  -1.8790  -1.8618  -1.8526  -1.8500  -1.8465
    -1.8429  -1.8350  -1.8092  -1.7926  -1.7653  -1.7536  -1.7464  -1.7305
    -1.7290  -1.6693  -1.6660  -1.6592  -1.6551  -1.5966  -1.5898  -1.5731
    -1.5425  -1.5266  -1.5146  -1.4926  -1.4883  -1.4650  -1.4630  -1.4482
    -1.4453  -1.4429  -1.4330  -1.4253  -1.3924  -1.3879  -1.3867  -1.3796
    -1.3773  -1.3625  -1.3499  -1.3465  -1.3229  -1.3114  -1.3002  -1.2975
    -1.2956  -1.2937  -1.2703  -1.2602  -1.2435  -1.2419  -1.2404  -1.2382
    -1.2230  -1.1888  -1.1751  -1.1613  -1.1566  -1.1493  -1.1371  -1.1108
    -1.0741  -1.0544  -1.0073  -1.0045  -1.0038  -1.0014  -0.9991  -0.9939
    -0.9899  -0.9813  -0.9612  -0.9324  -0.9302  -0.9167  -0.9083  -0.8997
    -0.8860  -0.8826  -0.8760  -0.8736  -0.8691  -0.8677  -0.8642  -0.8274
    -0.8169  -0.8119  -0.8106  -0.8031  -0.7982  -0.7923  -0.7618  -0.7563
    -0.7427  -0.7245  -0.7108  -0.6945  -0.6678  -0.6626  -0.6533  -0.6503
    -0.6448  -0.6433  -0.6346  -0.6314  -0.6294  -0.6134  -0.6017  -0.5987
    -0.5903  -0.5888  -0.5769  -0.5693  -0.5482  -0.5473  -0.5420  -0.5179
    -0.5126  -0.5029  -0.4964  -0.4498  -0.4484  -0.4462  -0.4414  -0.4351
    -0.4335  -0.4215  -0.4131  -0.4097  -0.4012  -0.3993  -0.3966  -0.3846
    -0.3559  -0.3548  -0.3523  -0.3474  -0.3442  -0.3402  -0.3368  -0.3283
    -0.3193  -0.3184  -0.2979  -0.2867  -0.2836  -0.2787  -0.2648  -0.2599
    -0.2118  -0.2072  -0.1824  -0.1800  -0.1736  -0.1700  -0.1399  -0.1306
    -0.1296  -0.1131  -0.1106  -0.0789  -0.0325  -0.0098   0.0882   0.4818
     0.4840   0.5079   0.5092   0.5654   0.5952   0.9137   0.9224   0.9318
     0.9407   1.1143   1.1766   1.2585   1.2791   1.5162   1.5473   2.1010
     2.1165   2.2303   2.2512   2.4413   2.4658   2.5193   2.5209   2.6075
     2.8801   2.8993   3.0629   3.2689   3.2849   3.3079   3.3187   3.3747
     3.4765   3.6250   3.6535   3.6872   3.9254   3.9293   3.9969   4.0097
     4.2354   4.2552   4.2736   4.4587   4.4728   4.5263   4.6088   4.8973
     4.9265   4.9421   5.1277   5.2209   5.2241   5.3186   5.3488   5.8948
     5.9506   5.9916   6.0174   6.0806   6.0918   6.1615   6.2012   6.2363
     6.2449   6.2534   6.2783   6.3093   6.3163   6.3211   6.3586   6.3805
     6.5503   6.8145   6.8884   6.9196   6.9356   6.9614   6.9665   7.0949
     7.1290   7.1838   7.1928

          k = 0.5000 0.0000 0.1111 (136853 PWs)   bands (ev):

   -19.1679  -7.0718  -6.3343  -5.9361  -5.9339  -5.2598  -4.9136  -4.9106
    -4.8888  -4.8835  -4.4652  -4.4620  -4.3823  -4.3447  -4.3379  -4.3371
    -4.2990  -4.1820  -4.1790  -4.1358  -4.0937  -4.0888  -4.0880  -4.0859
    -4.0388  -4.0364  -4.0105  -4.0072  -3.9876  -3.9779  -3.9687  -3.8922
    -3.8896  -3.8724  -3.8708  -3.8297  -3.8282  -3.8272  -3.8069  -3.8060
    -3.8029  -3.7303  -3.7288  -3.6682  -3.6654  -3.6540  -3.6528  -3.5912
    -3.5902  -3.5620  -3.5584  -3.5388  -3.5206  -3.5114  -3.5099  -3.4872
    -3.4860  -3.4841  -3.4780  -3.4606  -3.4239  -3.3948  -3.3941  -3.3696
    -3.3503  -3.3314  -3.3090  -3.2886  -3.2526  -3.2343  -3.2291  -3.2235
    -3.1980  -3.1721  -3.1385  -3.1361  -3.1004  -3.0979  -3.0644  -3.0608
    -3.0553  -3.0157  -2.9898  -2.9836  -2.9664  -2.9640  -2.9580  -2.9573
    -2.9563  -2.9522  -2.9492  -2.8941  -2.8361  -2.8351  -2.8340  -2.8317
    -2.8271  -2.8094  -2.8066  -2.7898  -2.7164  -2.7125  -2.7109  -2.7065
    -2.6565  -2.6510  -2.6500  -2.6348  -2.6285  -2.5772  -2.5637  -2.5619
    -2.5587  -2.5184  -2.5162  -2.5146  -2.4773  -2.4739  -2.4219  -2.4006
    -2.3957  -2.3929  -2.3915  -2.3709  -2.3671  -2.3644  -2.3604  -2.3576
    -2.3223  -2.2916  -2.2860  -2.2826  -2.2795  -2.2782  -2.2773  -2.2757
    -2.2753  -2.2671  -2.2475  -2.2415  -2.2387  -2.2380  -2.2363  -2.2224
    -2.2198  -2.2173  -2.1962  -2.1915  -2.1881  -2.1736  -2.1682  -2.1539
    -2.1462  -2.1357  -2.1207  -2.1198  -2.1185  -2.1163  -2.1129  -2.1095
    -2.1088  -2.0965  -2.0942  -2.0841  -2.0778  -2.0731  -1.9958  -1.9937
    -1.9806  -1.9776  -1.9676  -1.9589  -1.9580  -1.9353  -1.9265  -1.9133
    -1.9049  -1.8875  -1.8862  -1.8785  -1.8622  -1.8528  -1.8496  -1.8475
    -1.8409  -1.8330  -1.8078  -1.7784  -1.7587  -1.7549  -1.7443  -1.7354
    -1.7281  -1.6695  -1.6659  -1.6583  -1.6555  -1.5980  -1.5890  -1.5789
    -1.5443  -1.5244  -1.5162  -1.4941  -1.4844  -1.4650  -1.4615  -1.4464
    -1.4450  -1.4435  -1.4347  -1.4255  -1.3902  -1.3892  -1.3841  -1.3821
    -1.3775  -1.3611  -1.3492  -1.3476  -1.3281  -1.3099  -1.3031  -1.2985
    -1.2960  -1.2929  -1.2705  -1.2633  -1.2446  -1.2414  -1.2400  -1.2354
    -1.2217  -1.1834  -1.1727  -1.1635  -1.1562  -1.1497  -1.1383  -1.1058
    -1.0780  -1.0531  -1.0088  -1.0066  -1.0036  -1.0003  -0.9960  -0.9927
    -0.9896  -0.9850  -0.9544  -0.9352  -0.9295  -0.9185  -0.9115  -0.9000
    -0.8859  -0.8826  -0.8780  -0.8715  -0.8693  -0.8684  -0.8589  -0.8253
    -0.8206  -0.8121  -0.8108  -0.8061  -0.8000  -0.7862  -0.7626  -0.7567
    -0.7446  -0.7271  -0.7107  -0.6945  -0.6682  -0.6604  -0.6533  -0.6506
    -0.6446  -0.6420  -0.6348  -0.6322  -0.6290  -0.6124  -0.6023  -0.6008
    -0.5890  -0.5883  -0.5778  -0.5668  -0.5506  -0.5468  -0.5416  -0.5191
    -0.5132  -0.5004  -0.4828  -0.4500  -0.4476  -0.4462  -0.4422  -0.4355
    -0.4322  -0.4263  -0.4125  -0.4083  -0.4010  -0.3994  -0.3965  -0.3863
    -0.3560  -0.3545  -0.3527  -0.3462  -0.3455  -0.3397  -0.3373  -0.3233
    -0.3187  -0.3174  -0.3012  -0.2881  -0.2828  -0.2789  -0.2637  -0.2616
    -0.2137  -0.2069  -0.1822  -0.1807  -0.1734  -0.1702  -0.1400  -0.1310
    -0.1298  -0.1112  -0.1089  -0.0800  -0.0316  -0.0217   0.0823   0.4818
     0.4847   0.5081   0.5093   0.5710   0.5871   0.9184   0.9228   0.9307
     0.9387   1.1125   1.1784   1.2608   1.2794   1.5192   1.5462   2.1053
     2.1125   2.2303   2.2482   2.4424   2.4608   2.5195   2.5203   2.6082
     2.8820   2.9002   3.0666   3.2723   3.2866   3.3085   3.3159   3.3783
     3.4765   3.6220   3.6580   3.6862   3.9255   3.9292   3.9934   4.0079
     4.2362   4.2537   4.2756   4.4571   4.4700   4.5255   4.6100   4.8975
     4.9333   4.9383   5.1208   5.2189   5.2247   5.3020   5.3604   5.9080
     5.9421   6.0014   6.0163   6.0831   6.0916   6.1655   6.2061   6.2273
     6.2439   6.2545   6.2691   6.2968   6.3166   6.3226   6.3449   6.4060
     6.5485   6.8088   6.8968   6.9237   6.9334   6.9534   6.9694   7.0998
     7.1253   7.1698   7.1955

          k =-0.5000 0.0000 0.1111 (136853 PWs)   bands (ev):

   -19.1679  -7.0718  -6.3343  -5.9361  -5.9339  -5.2598  -4.9136  -4.9106
    -4.8888  -4.8835  -4.4652  -4.4620  -4.3823  -4.3447  -4.3379  -4.3371
    -4.2990  -4.1820  -4.1790  -4.1358  -4.0937  -4.0888  -4.0880  -4.0859
    -4.0388  -4.0364  -4.0105  -4.0072  -3.9876  -3.9779  -3.9687  -3.8922
    -3.8896  -3.8724  -3.8708  -3.8297  -3.8282  -3.8272  -3.8069  -3.8060
    -3.8029  -3.7303  -3.7288  -3.6682  -3.6654  -3.6540  -3.6528  -3.5912
    -3.5902  -3.5620  -3.5584  -3.5388  -3.5206  -3.5114  -3.5099  -3.4872
    -3.4860  -3.4841  -3.4780  -3.4606  -3.4239  -3.3948  -3.3941  -3.3696
    -3.3503  -3.3314  -3.3090  -3.2886  -3.2526  -3.2343  -3.2291  -3.2235
    -3.1980  -3.1721  -3.1385  -3.1361  -3.1004  -3.0979  -3.0644  -3.0608
    -3.0553  -3.0157  -2.9898  -2.9836  -2.9664  -2.9640  -2.9580  -2.9573
    -2.9563  -2.9522  -2.9492  -2.8941  -2.8361  -2.8351  -2.8340  -2.8317
    -2.8271  -2.8094  -2.8066  -2.7898  -2.7164  -2.7125  -2.7109  -2.7065
    -2.6565  -2.6510  -2.6500  -2.6348  -2.6285  -2.5772  -2.5637  -2.5619
    -2.5587  -2.5184  -2.5162  -2.5146  -2.4773  -2.4739  -2.4219  -2.4006
    -2.3957  -2.3929  -2.3915  -2.3709  -2.3671  -2.3644  -2.3604  -2.3576
    -2.3223  -2.2916  -2.2860  -2.2826  -2.2795  -2.2782  -2.2773  -2.2757
    -2.2753  -2.2671  -2.2475  -2.2415  -2.2387  -2.2380  -2.2363  -2.2224
    -2.2198  -2.2173  -2.1962  -2.1915  -2.1881  -2.1736  -2.1682  -2.1539
    -2.1462  -2.1357  -2.1207  -2.1198  -2.1185  -2.1163  -2.1129  -2.1095
    -2.1088  -2.0965  -2.0942  -2.0841  -2.0778  -2.0731  -1.9958  -1.9937
    -1.9806  -1.9776  -1.9676  -1.9589  -1.9580  -1.9353  -1.9265  -1.9133
    -1.9049  -1.8876  -1.8862  -1.8785  -1.8622  -1.8528  -1.8496  -1.8475
    -1.8409  -1.8330  -1.8078  -1.7784  -1.7587  -1.7549  -1.7443  -1.7354
    -1.7281  -1.6695  -1.6659  -1.6583  -1.6555  -1.5980  -1.5890  -1.5789
    -1.5443  -1.5244  -1.5162  -1.4941  -1.4844  -1.4650  -1.4615  -1.4464
    -1.4450  -1.4435  -1.4347  -1.4255  -1.3902  -1.3892  -1.3841  -1.3821
    -1.3775  -1.3611  -1.3492  -1.3476  -1.3281  -1.3099  -1.3031  -1.2985
    -1.2960  -1.2929  -1.2705  -1.2633  -1.2446  -1.2414  -1.2400  -1.2354
    -1.2217  -1.1834  -1.1727  -1.1635  -1.1562  -1.1497  -1.1383  -1.1058
    -1.0780  -1.0531  -1.0088  -1.0066  -1.0036  -1.0003  -0.9960  -0.9927
    -0.9896  -0.9850  -0.9544  -0.9352  -0.9295  -0.9185  -0.9115  -0.9000
    -0.8859  -0.8826  -0.8780  -0.8715  -0.8693  -0.8684  -0.8589  -0.8253
    -0.8206  -0.8121  -0.8108  -0.8061  -0.8000  -0.7862  -0.7626  -0.7567
    -0.7446  -0.7271  -0.7107  -0.6945  -0.6682  -0.6604  -0.6533  -0.6506
    -0.6446  -0.6420  -0.6348  -0.6322  -0.6290  -0.6124  -0.6022  -0.6008
    -0.5890  -0.5883  -0.5778  -0.5668  -0.5506  -0.5468  -0.5416  -0.5191
    -0.5132  -0.5004  -0.4828  -0.4500  -0.4476  -0.4462  -0.4422  -0.4355
    -0.4322  -0.4263  -0.4125  -0.4083  -0.4010  -0.3994  -0.3965  -0.3863
    -0.3560  -0.3545  -0.3527  -0.3462  -0.3455  -0.3397  -0.3373  -0.3233
    -0.3187  -0.3174  -0.3012  -0.2881  -0.2828  -0.2789  -0.2637  -0.2616
    -0.2137  -0.2069  -0.1822  -0.1807  -0.1734  -0.1702  -0.1400  -0.1310
    -0.1298  -0.1112  -0.1089  -0.0800  -0.0316  -0.0217   0.0823   0.4818
     0.4847   0.5081   0.5093   0.5710   0.5871   0.9184   0.9228   0.9307
     0.9387   1.1125   1.1784   1.2608   1.2794   1.5192   1.5462   2.1053
     2.1125   2.2303   2.2482   2.4424   2.4608   2.5195   2.5203   2.6082
     2.8820   2.9002   3.0666   3.2723   3.2866   3.3085   3.3159   3.3783
     3.4765   3.6220   3.6580   3.6862   3.9255   3.9292   3.9934   4.0079
     4.2362   4.2537   4.2756   4.4571   4.4700   4.5255   4.6100   4.8975
     4.9333   4.9383   5.1208   5.2189   5.2247   5.3020   5.3604   5.9082
     5.9421   6.0013   6.0163   6.0831   6.0916   6.1655   6.2052   6.2275
     6.2439   6.2546   6.2690   6.2968   6.3165   6.3226   6.3449   6.4063
     6.5486   6.8125   6.8967   6.9241   6.9285   6.9541   6.9698   7.1000
     7.1153   7.1769   7.1950

          k =-0.2500 0.1443 0.1111 (136898 PWs)   bands (ev):

   -19.1679  -7.0724  -6.5434  -5.7509  -5.4633  -5.3980  -5.3967  -4.8412
    -4.8404  -4.7297  -4.6911  -4.5438  -4.4734  -4.4430  -4.4396  -4.3909
    -4.3213  -4.3204  -4.1834  -4.1413  -4.1411  -4.1249  -4.1220  -4.1182
    -3.9983  -3.9978  -3.9202  -3.9080  -3.9066  -3.9054  -3.8861  -3.8851
    -3.8244  -3.7647  -3.7638  -3.7531  -3.7449  -3.7417  -3.7331  -3.7307
    -3.7241  -3.6811  -3.6754  -3.6650  -3.6639  -3.6584  -3.6545  -3.6274
    -3.6196  -3.6172  -3.6022  -3.5887  -3.5687  -3.5667  -3.5448  -3.5008
    -3.5002  -3.4534  -3.4401  -3.4302  -3.4194  -3.4048  -3.3581  -3.3272
    -3.3260  -3.3185  -3.3124  -3.3033  -3.2847  -3.2807  -3.2728  -3.1275
    -3.1235  -3.1114  -3.1088  -3.1016  -3.0661  -3.0653  -3.0625  -3.0558
    -3.0056  -3.0022  -2.9868  -2.9844  -2.9470  -2.9264  -2.9249  -2.9028
    -2.8944  -2.8933  -2.8501  -2.8489  -2.8313  -2.8290  -2.8232  -2.8209
    -2.8000  -2.7987  -2.7561  -2.7539  -2.7485  -2.7476  -2.7317  -2.6885
    -2.6850  -2.6607  -2.6526  -2.6505  -2.5787  -2.5727  -2.5442  -2.5430
    -2.5380  -2.5267  -2.5036  -2.4806  -2.4771  -2.4619  -2.4571  -2.4553
    -2.4521  -2.4436  -2.4346  -2.4321  -2.4255  -2.4225  -2.4165  -2.4132
    -2.3601  -2.3394  -2.3166  -2.3153  -2.3140  -2.3005  -2.2969  -2.2954
    -2.2942  -2.2850  -2.2532  -2.2517  -2.2400  -2.2373  -2.2257  -2.2229
    -2.2218  -2.1989  -2.1973  -2.1870  -2.1768  -2.1756  -2.1252  -2.1068
    -2.1025  -2.0954  -2.0944  -2.0861  -2.0772  -2.0592  -2.0454  -2.0395
    -2.0390  -2.0352  -2.0307  -2.0257  -2.0160  -1.9995  -1.9949  -1.9856
    -1.9534  -1.9364  -1.9357  -1.9322  -1.9290  -1.9247  -1.9181  -1.9138
    -1.9118  -1.9090  -1.8972  -1.8943  -1.8935  -1.8252  -1.7812  -1.7714
    -1.7520  -1.7480  -1.7397  -1.7216  -1.7197  -1.7162  -1.7101  -1.7028
    -1.6909  -1.6884  -1.6866  -1.6857  -1.6493  -1.6459  -1.6442  -1.6282
    -1.6163  -1.6130  -1.6098  -1.6068  -1.5987  -1.5478  -1.5375  -1.5181
    -1.5111  -1.5049  -1.5005  -1.4977  -1.4754  -1.4731  -1.4701  -1.4693
    -1.4672  -1.4578  -1.4534  -1.4451  -1.4150  -1.3964  -1.3735  -1.3678
    -1.3555  -1.3411  -1.3171  -1.2976  -1.2848  -1.2737  -1.2715  -1.2706
    -1.2607  -1.2456  -1.2272  -1.2238  -1.1958  -1.1899  -1.1855  -1.1731
    -1.1424  -1.1392  -1.1260  -1.1156  -1.0769  -1.0710  -1.0676  -1.0646
    -1.0495  -1.0433  -1.0314  -1.0209  -1.0004  -0.9887  -0.9685  -0.9673
    -0.9634  -0.9253  -0.9194  -0.9146  -0.9079  -0.9073  -0.9016  -0.8986
    -0.8920  -0.8672  -0.8649  -0.8629  -0.8497  -0.8438  -0.8406  -0.8282
    -0.8200  -0.8088  -0.7896  -0.7775  -0.7579  -0.6951  -0.6803  -0.6786
    -0.6758  -0.6718  -0.6691  -0.6663  -0.6433  -0.6335  -0.6218  -0.6162
    -0.6129  -0.5977  -0.5930  -0.5803  -0.5760  -0.5602  -0.5484  -0.4775
    -0.4755  -0.4520  -0.4438  -0.4401  -0.4344  -0.4320  -0.4301  -0.4284
    -0.4236  -0.4191  -0.3802  -0.3696  -0.3599  -0.3433  -0.3415  -0.3343
    -0.3319  -0.3262  -0.3205  -0.3200  -0.3155  -0.3087  -0.2981  -0.2945
    -0.2890  -0.2632  -0.2624  -0.2590  -0.2437  -0.2410  -0.2207  -0.1958
    -0.1951  -0.1856  -0.1841  -0.1179  -0.1153  -0.1017  -0.1013  -0.0389
    -0.0375  -0.0363  -0.0172  -0.0128   0.1984   0.2282   0.5446   0.5452
     0.6156   0.6388   0.7717   0.8024   0.8453   0.9523   0.9639   1.3349
     1.4026   1.4031   1.6356   1.6378   1.6958   1.9933   2.0137   2.0325
     2.0388   2.0668   2.0900   2.2254   2.2313   2.4037   2.4042   2.4177
     2.5516   2.5754   2.6101   2.8183   3.1760   3.1865   3.2188   3.2241
     3.2297   3.2434   3.5589   3.5618   3.8830   3.9031   3.9652   4.2300
     4.3477   4.3613   4.5288   4.5730   4.6434   4.6456   4.7245   4.8845
     4.8897   4.9771   4.9853   5.2666   5.3251   5.3330   5.4852   5.5411
     5.6681   5.6751   5.6784   5.6840   5.8050   5.8204   5.8453   5.9023
     6.2946   6.4033   6.4610   6.4917   6.4999   6.5061   6.5165   6.6655
     6.7109   6.7264   6.7775   6.8107   7.0344   7.0650   7.0915   7.2157
     7.3326   7.3625   7.3887

          k =-0.2500-0.1443-0.1111 (136898 PWs)   bands (ev):

   -19.1679  -7.0724  -6.5433  -5.7509  -5.4633  -5.3979  -5.3968  -4.8412
    -4.8404  -4.7296  -4.6911  -4.5439  -4.4734  -4.4433  -4.4393  -4.3910
    -4.3213  -4.3203  -4.1835  -4.1413  -4.1409  -4.1247  -4.1220  -4.1184
    -3.9982  -3.9978  -3.9206  -3.9080  -3.9066  -3.9055  -3.8862  -3.8850
    -3.8256  -3.7649  -3.7636  -3.7534  -3.7442  -3.7419  -3.7325  -3.7303
    -3.7244  -3.6814  -3.6752  -3.6648  -3.6640  -3.6579  -3.6544  -3.6273
    -3.6195  -3.6172  -3.6012  -3.5882  -3.5679  -3.5656  -3.5459  -3.5012
    -3.5001  -3.4530  -3.4400  -3.4313  -3.4188  -3.4042  -3.3636  -3.3275
    -3.3255  -3.3187  -3.3129  -3.3034  -3.2871  -3.2801  -3.2660  -3.1266
    -3.1247  -3.1129  -3.1096  -3.1008  -3.0659  -3.0656  -3.0624  -3.0557
    -3.0054  -3.0026  -2.9865  -2.9846  -2.9473  -2.9267  -2.9244  -2.9029
    -2.8942  -2.8936  -2.8497  -2.8489  -2.8319  -2.8274  -2.8234  -2.8212
    -2.8002  -2.7984  -2.7575  -2.7542  -2.7482  -2.7471  -2.7315  -2.6861
    -2.6851  -2.6612  -2.6528  -2.6502  -2.5796  -2.5747  -2.5450  -2.5426
    -2.5363  -2.5266  -2.5037  -2.4795  -2.4783  -2.4630  -2.4571  -2.4553
    -2.4526  -2.4413  -2.4361  -2.4319  -2.4242  -2.4227  -2.4157  -2.4127
    -2.3601  -2.3381  -2.3177  -2.3152  -2.3139  -2.2997  -2.2966  -2.2958
    -2.2952  -2.2849  -2.2536  -2.2519  -2.2402  -2.2375  -2.2272  -2.2228
    -2.2217  -2.1992  -2.1965  -2.1865  -2.1774  -2.1748  -2.1264  -2.1080
    -2.1032  -2.0961  -2.0949  -2.0902  -2.0769  -2.0592  -2.0462  -2.0391
    -2.0373  -2.0353  -2.0343  -2.0254  -2.0144  -1.9993  -1.9900  -1.9854
    -1.9614  -1.9370  -1.9349  -1.9318  -1.9279  -1.9241  -1.9170  -1.9145
    -1.9124  -1.9096  -1.8994  -1.8937  -1.8918  -1.8316  -1.7803  -1.7673
    -1.7502  -1.7475  -1.7383  -1.7237  -1.7183  -1.7137  -1.7109  -1.7052
    -1.6912  -1.6882  -1.6876  -1.6862  -1.6473  -1.6459  -1.6441  -1.6284
    -1.6169  -1.6125  -1.6099  -1.6014  -1.5997  -1.5429  -1.5363  -1.5192
    -1.5118  -1.5051  -1.5002  -1.4989  -1.4753  -1.4731  -1.4697  -1.4682
    -1.4680  -1.4552  -1.4532  -1.4416  -1.4190  -1.3969  -1.3730  -1.3676
    -1.3589  -1.3403  -1.3162  -1.3001  -1.2840  -1.2741  -1.2717  -1.2671
    -1.2604  -1.2474  -1.2334  -1.2227  -1.1965  -1.1898  -1.1879  -1.1729
    -1.1454  -1.1399  -1.1247  -1.1142  -1.0743  -1.0692  -1.0673  -1.0579
    -1.0501  -1.0390  -1.0310  -1.0288  -0.9997  -0.9885  -0.9685  -0.9660
    -0.9635  -0.9284  -0.9165  -0.9141  -0.9104  -0.9064  -0.8991  -0.8987
    -0.8888  -0.8671  -0.8661  -0.8647  -0.8483  -0.8457  -0.8395  -0.8315
    -0.8249  -0.8058  -0.7908  -0.7757  -0.7495  -0.6981  -0.6800  -0.6779
    -0.6761  -0.6728  -0.6680  -0.6649  -0.6429  -0.6323  -0.6195  -0.6180
    -0.6130  -0.5974  -0.5940  -0.5803  -0.5744  -0.5600  -0.5527  -0.4785
    -0.4777  -0.4486  -0.4450  -0.4396  -0.4385  -0.4319  -0.4297  -0.4283
    -0.4225  -0.4174  -0.3862  -0.3629  -0.3598  -0.3435  -0.3416  -0.3340
    -0.3317  -0.3254  -0.3211  -0.3183  -0.3151  -0.3116  -0.2977  -0.2942
    -0.2899  -0.2640  -0.2627  -0.2596  -0.2440  -0.2427  -0.2209  -0.1957
    -0.1946  -0.1850  -0.1825  -0.1197  -0.1157  -0.1016  -0.1012  -0.0388
    -0.0376  -0.0361  -0.0174  -0.0131   0.2049   0.2195   0.5446   0.5449
     0.6221   0.6330   0.7692   0.7987   0.8490   0.9531   0.9626   1.3328
     1.4028   1.4040   1.6360   1.6388   1.6994   1.9999   2.0049   2.0335
     2.0358   2.0728   2.0849   2.2261   2.2328   2.4023   2.4048   2.4188
     2.5591   2.5650   2.6113   2.8223   3.1774   3.1857   3.2172   3.2245
     3.2311   3.2400   3.5588   3.5627   3.8924   3.8978   3.9656   4.2290
     4.3527   4.3573   4.5342   4.5628   4.6392   4.6495   4.7273   4.8768
     4.8912   4.9802   4.9824   5.2686   5.3145   5.3386   5.4930   5.5357
     5.6671   5.6731   5.6802   5.6840   5.8083   5.8219   5.8421   5.9019
     6.2956   6.4020   6.4477   6.4981   6.5018   6.5076   6.5108   6.6675
     6.7090   6.7203   6.7907   6.8152   7.0344   7.0741   7.0826   7.2033
     7.3605   7.3641   7.3908

          k = 0.2500 0.1443-0.1111 (136898 PWs)   bands (ev):

   -19.1679  -7.0724  -6.5433  -5.7509  -5.4633  -5.3979  -5.3968  -4.8412
    -4.8404  -4.7296  -4.6911  -4.5439  -4.4734  -4.4433  -4.4393  -4.3910
    -4.3213  -4.3203  -4.1835  -4.1413  -4.1409  -4.1247  -4.1220  -4.1184
    -3.9982  -3.9978  -3.9206  -3.9080  -3.9066  -3.9055  -3.8862  -3.8850
    -3.8256  -3.7649  -3.7636  -3.7534  -3.7442  -3.7419  -3.7325  -3.7303
    -3.7244  -3.6814  -3.6752  -3.6648  -3.6640  -3.6579  -3.6544  -3.6273
    -3.6195  -3.6172  -3.6012  -3.5882  -3.5679  -3.5656  -3.5459  -3.5012
    -3.5001  -3.4530  -3.4400  -3.4313  -3.4188  -3.4042  -3.3636  -3.3275
    -3.3255  -3.3187  -3.3129  -3.3034  -3.2871  -3.2801  -3.2660  -3.1266
    -3.1247  -3.1129  -3.1096  -3.1008  -3.0659  -3.0656  -3.0624  -3.0557
    -3.0054  -3.0026  -2.9865  -2.9846  -2.9473  -2.9267  -2.9244  -2.9029
    -2.8942  -2.8936  -2.8497  -2.8489  -2.8319  -2.8274  -2.8234  -2.8212
    -2.8002  -2.7984  -2.7575  -2.7542  -2.7482  -2.7471  -2.7315  -2.6861
    -2.6851  -2.6612  -2.6528  -2.6502  -2.5796  -2.5747  -2.5450  -2.5426
    -2.5363  -2.5266  -2.5037  -2.4795  -2.4783  -2.4630  -2.4571  -2.4553
    -2.4526  -2.4413  -2.4361  -2.4319  -2.4242  -2.4227  -2.4157  -2.4127
    -2.3601  -2.3380  -2.3177  -2.3152  -2.3139  -2.2997  -2.2966  -2.2958
    -2.2952  -2.2849  -2.2536  -2.2519  -2.2402  -2.2375  -2.2272  -2.2228
    -2.2217  -2.1992  -2.1965  -2.1865  -2.1774  -2.1748  -2.1264  -2.1080
    -2.1032  -2.0961  -2.0949  -2.0902  -2.0769  -2.0591  -2.0462  -2.0391
    -2.0373  -2.0353  -2.0343  -2.0254  -2.0144  -1.9993  -1.9901  -1.9854
    -1.9614  -1.9370  -1.9349  -1.9318  -1.9279  -1.9241  -1.9170  -1.9145
    -1.9124  -1.9096  -1.8994  -1.8937  -1.8918  -1.8316  -1.7803  -1.7673
    -1.7502  -1.7475  -1.7383  -1.7237  -1.7183  -1.7137  -1.7109  -1.7052
    -1.6912  -1.6882  -1.6876  -1.6862  -1.6473  -1.6459  -1.6441  -1.6284
    -1.6169  -1.6125  -1.6099  -1.6014  -1.5997  -1.5429  -1.5363  -1.5192
    -1.5118  -1.5051  -1.5002  -1.4989  -1.4753  -1.4731  -1.4697  -1.4682
    -1.4680  -1.4552  -1.4532  -1.4416  -1.4190  -1.3969  -1.3730  -1.3676
    -1.3589  -1.3403  -1.3162  -1.3001  -1.2840  -1.2741  -1.2717  -1.2671
    -1.2604  -1.2474  -1.2334  -1.2227  -1.1966  -1.1898  -1.1879  -1.1729
    -1.1454  -1.1399  -1.1247  -1.1142  -1.0743  -1.0692  -1.0673  -1.0579
    -1.0501  -1.0390  -1.0310  -1.0288  -0.9997  -0.9885  -0.9685  -0.9660
    -0.9635  -0.9284  -0.9165  -0.9141  -0.9104  -0.9064  -0.8991  -0.8987
    -0.8888  -0.8672  -0.8661  -0.8647  -0.8483  -0.8457  -0.8395  -0.8315
    -0.8249  -0.8058  -0.7908  -0.7757  -0.7495  -0.6981  -0.6800  -0.6779
    -0.6761  -0.6728  -0.6680  -0.6649  -0.6429  -0.6323  -0.6195  -0.6180
    -0.6130  -0.5974  -0.5940  -0.5803  -0.5744  -0.5600  -0.5527  -0.4785
    -0.4777  -0.4486  -0.4450  -0.4396  -0.4385  -0.4319  -0.4297  -0.4283
    -0.4225  -0.4174  -0.3862  -0.3629  -0.3598  -0.3435  -0.3416  -0.3340
    -0.3317  -0.3254  -0.3210  -0.3183  -0.3151  -0.3116  -0.2977  -0.2942
    -0.2899  -0.2640  -0.2627  -0.2596  -0.2440  -0.2427  -0.2209  -0.1957
    -0.1946  -0.1850  -0.1825  -0.1197  -0.1157  -0.1016  -0.1012  -0.0388
    -0.0376  -0.0361  -0.0174  -0.0131   0.2049   0.2195   0.5446   0.5449
     0.6221   0.6330   0.7692   0.7986   0.8490   0.9531   0.9626   1.3328
     1.4028   1.4040   1.6360   1.6388   1.6994   1.9999   2.0049   2.0335
     2.0358   2.0728   2.0849   2.2261   2.2328   2.4023   2.4048   2.4188
     2.5591   2.5650   2.6113   2.8223   3.1774   3.1857   3.2172   3.2245
     3.2311   3.2400   3.5588   3.5627   3.8924   3.8978   3.9656   4.2290
     4.3527   4.3573   4.5342   4.5628   4.6392   4.6495   4.7273   4.8768
     4.8912   4.9802   4.9824   5.2686   5.3145   5.3386   5.4929   5.5357
     5.6671   5.6731   5.6802   5.6840   5.8083   5.8219   5.8420   5.9023
     6.2911   6.4014   6.4565   6.4984   6.5019   6.5075   6.5103   6.6680
     6.7101   6.7206   6.7822   6.8145   7.0256   7.0740   7.0843   7.2111
     7.3506   7.3686   7.3912

          k = 0.0000-0.2887 0.1111 (136898 PWs)   bands (ev):

   -19.1679  -7.0724  -6.5434  -5.7512  -5.4633  -5.3978  -5.3964  -4.8409
    -4.8403  -4.7308  -4.6917  -4.5438  -4.4733  -4.4415  -4.4388  -4.3919
    -4.3210  -4.3197  -4.1835  -4.1416  -4.1407  -4.1251  -4.1215  -4.1189
    -3.9980  -3.9977  -3.9214  -3.9083  -3.9061  -3.9055  -3.8855  -3.8851
    -3.8274  -3.7664  -3.7635  -3.7580  -3.7430  -3.7417  -3.7312  -3.7306
    -3.7276  -3.6761  -3.6751  -3.6649  -3.6641  -3.6552  -3.6543  -3.6363
    -3.6174  -3.6171  -3.5890  -3.5884  -3.5674  -3.5660  -3.5526  -3.5005
    -3.5001  -3.4446  -3.4402  -3.4289  -3.4188  -3.4080  -3.3660  -3.3275
    -3.3261  -3.3184  -3.3106  -3.3032  -3.2855  -3.2806  -3.2724  -3.1272
    -3.1250  -3.1123  -3.1082  -3.0997  -3.0665  -3.0649  -3.0625  -3.0617
    -3.0054  -3.0044  -2.9862  -2.9842  -2.9469  -2.9260  -2.9243  -2.9023
    -2.8944  -2.8927  -2.8511  -2.8491  -2.8297  -2.8269  -2.8234  -2.8223
    -2.7997  -2.7987  -2.7564  -2.7549  -2.7486  -2.7479  -2.7313  -2.6889
    -2.6861  -2.6605  -2.6523  -2.6512  -2.5759  -2.5731  -2.5438  -2.5424
    -2.5391  -2.5264  -2.5038  -2.4795  -2.4777  -2.4629  -2.4559  -2.4552
    -2.4536  -2.4449  -2.4333  -2.4313  -2.4243  -2.4227  -2.4149  -2.4143
    -2.3601  -2.3363  -2.3160  -2.3155  -2.3139  -2.3002  -2.2975  -2.2959
    -2.2948  -2.2843  -2.2554  -2.2518  -2.2402  -2.2371  -2.2265  -2.2228
    -2.2213  -2.2008  -2.1979  -2.1888  -2.1760  -2.1756  -2.1236  -2.1070
    -2.1019  -2.0957  -2.0947  -2.0881  -2.0775  -2.0594  -2.0429  -2.0397
    -2.0386  -2.0354  -2.0317  -2.0239  -2.0148  -1.9997  -1.9951  -1.9860
    -1.9527  -1.9371  -1.9360  -1.9311  -1.9283  -1.9243  -1.9165  -1.9142
    -1.9121  -1.9079  -1.9022  -1.8945  -1.8937  -1.8249  -1.7806  -1.7754
    -1.7507  -1.7473  -1.7347  -1.7241  -1.7196  -1.7154  -1.7111  -1.7014
    -1.6896  -1.6885  -1.6869  -1.6853  -1.6512  -1.6451  -1.6441  -1.6259
    -1.6160  -1.6137  -1.6103  -1.6069  -1.5997  -1.5522  -1.5380  -1.5238
    -1.5121  -1.5036  -1.5005  -1.4968  -1.4747  -1.4726  -1.4705  -1.4688
    -1.4672  -1.4558  -1.4535  -1.4436  -1.4153  -1.3975  -1.3773  -1.3666
    -1.3602  -1.3297  -1.3176  -1.2928  -1.2836  -1.2778  -1.2716  -1.2702
    -1.2606  -1.2457  -1.2281  -1.2237  -1.1949  -1.1901  -1.1821  -1.1729
    -1.1428  -1.1391  -1.1280  -1.1163  -1.0762  -1.0727  -1.0676  -1.0658
    -1.0490  -1.0446  -1.0316  -1.0257  -1.0007  -0.9882  -0.9686  -0.9657
    -0.9624  -0.9277  -0.9178  -0.9154  -0.9082  -0.9069  -0.8998  -0.8985
    -0.8875  -0.8672  -0.8658  -0.8632  -0.8509  -0.8449  -0.8407  -0.8288
    -0.8203  -0.8099  -0.7841  -0.7783  -0.7569  -0.6948  -0.6797  -0.6781
    -0.6763  -0.6737  -0.6688  -0.6656  -0.6433  -0.6333  -0.6207  -0.6155
    -0.6134  -0.6002  -0.5910  -0.5799  -0.5758  -0.5599  -0.5510  -0.4780
    -0.4760  -0.4524  -0.4440  -0.4405  -0.4366  -0.4319  -0.4306  -0.4283
    -0.4229  -0.4186  -0.3825  -0.3645  -0.3597  -0.3437  -0.3421  -0.3346
    -0.3319  -0.3258  -0.3227  -0.3205  -0.3157  -0.3064  -0.2977  -0.2945
    -0.2904  -0.2629  -0.2614  -0.2584  -0.2436  -0.2419  -0.2207  -0.1960
    -0.1940  -0.1858  -0.1822  -0.1191  -0.1159  -0.1022  -0.1007  -0.0393
    -0.0377  -0.0355  -0.0192  -0.0128   0.1977   0.2313   0.5447   0.5453
     0.6155   0.6394   0.7706   0.8008   0.8468   0.9525   0.9638   1.3360
     1.4024   1.4030   1.6354   1.6384   1.6961   1.9939   2.0126   2.0316
     2.0376   2.0683   2.0897   2.2238   2.2319   2.4031   2.4045   2.4183
     2.5526   2.5731   2.6116   2.8190   3.1719   3.1876   3.2200   3.2251
     3.2298   3.2431   3.5584   3.5623   3.8857   3.9018   3.9628   4.2303
     4.3482   4.3593   4.5426   4.5611   4.6417   4.6462   4.7255   4.8840
     4.8908   4.9793   4.9855   5.2663   5.3244   5.3361   5.5070   5.5204
     5.6686   5.6736   5.6779   5.6843   5.8000   5.8193   5.8317   5.9142
     6.2992   6.3987   6.4697   6.4876   6.5021   6.5090   6.5166   6.6712
     6.7182   6.7272   6.7677   6.7925   7.0367   7.0542   7.0897   7.2408
     7.3253   7.3630   7.3820

          k = 0.0000 0.2887 0.1111 (136898 PWs)   bands (ev):

   -19.1679  -7.0724  -6.5434  -5.7512  -5.4633  -5.3978  -5.3964  -4.8409
    -4.8403  -4.7308  -4.6917  -4.5438  -4.4733  -4.4415  -4.4388  -4.3919
    -4.3210  -4.3197  -4.1835  -4.1416  -4.1407  -4.1251  -4.1215  -4.1189
    -3.9980  -3.9977  -3.9214  -3.9083  -3.9061  -3.9055  -3.8855  -3.8851
    -3.8274  -3.7664  -3.7635  -3.7580  -3.7430  -3.7417  -3.7312  -3.7306
    -3.7276  -3.6761  -3.6751  -3.6649  -3.6641  -3.6552  -3.6543  -3.6363
    -3.6174  -3.6171  -3.5890  -3.5884  -3.5674  -3.5660  -3.5526  -3.5005
    -3.5001  -3.4446  -3.4402  -3.4289  -3.4188  -3.4080  -3.3660  -3.3275
    -3.3261  -3.3184  -3.3106  -3.3032  -3.2855  -3.2806  -3.2724  -3.1272
    -3.1250  -3.1123  -3.1082  -3.0997  -3.0665  -3.0649  -3.0625  -3.0617
    -3.0054  -3.0044  -2.9861  -2.9842  -2.9469  -2.9260  -2.9243  -2.9023
    -2.8944  -2.8927  -2.8511  -2.8491  -2.8297  -2.8269  -2.8234  -2.8223
    -2.7997  -2.7987  -2.7564  -2.7549  -2.7486  -2.7479  -2.7313  -2.6889
    -2.6861  -2.6605  -2.6523  -2.6512  -2.5759  -2.5730  -2.5438  -2.5424
    -2.5391  -2.5264  -2.5038  -2.4795  -2.4777  -2.4629  -2.4559  -2.4552
    -2.4536  -2.4449  -2.4333  -2.4313  -2.4243  -2.4227  -2.4149  -2.4143
    -2.3601  -2.3363  -2.3160  -2.3155  -2.3139  -2.3002  -2.2975  -2.2959
    -2.2948  -2.2843  -2.2554  -2.2518  -2.2402  -2.2371  -2.2265  -2.2228
    -2.2213  -2.2008  -2.1979  -2.1888  -2.1760  -2.1756  -2.1236  -2.1070
    -2.1019  -2.0957  -2.0947  -2.0881  -2.0775  -2.0594  -2.0429  -2.0397
    -2.0386  -2.0354  -2.0317  -2.0239  -2.0148  -1.9997  -1.9951  -1.9860
    -1.9527  -1.9371  -1.9360  -1.9311  -1.9283  -1.9243  -1.9165  -1.9142
    -1.9121  -1.9078  -1.9022  -1.8945  -1.8937  -1.8249  -1.7806  -1.7754
    -1.7507  -1.7473  -1.7347  -1.7241  -1.7196  -1.7154  -1.7111  -1.7014
    -1.6896  -1.6885  -1.6869  -1.6853  -1.6512  -1.6451  -1.6442  -1.6259
    -1.6160  -1.6137  -1.6103  -1.6069  -1.5997  -1.5522  -1.5380  -1.5238
    -1.5121  -1.5036  -1.5005  -1.4968  -1.4747  -1.4726  -1.4705  -1.4688
    -1.4672  -1.4558  -1.4535  -1.4436  -1.4153  -1.3975  -1.3773  -1.3666
    -1.3602  -1.3297  -1.3176  -1.2928  -1.2836  -1.2778  -1.2716  -1.2702
    -1.2606  -1.2457  -1.2281  -1.2237  -1.1949  -1.1901  -1.1821  -1.1729
    -1.1428  -1.1391  -1.1280  -1.1163  -1.0762  -1.0727  -1.0676  -1.0658
    -1.0490  -1.0446  -1.0316  -1.0257  -1.0007  -0.9882  -0.9686  -0.9657
    -0.9624  -0.9277  -0.9178  -0.9154  -0.9082  -0.9069  -0.8998  -0.8985
    -0.8875  -0.8672  -0.8658  -0.8632  -0.8509  -0.8449  -0.8407  -0.8288
    -0.8203  -0.8099  -0.7841  -0.7783  -0.7569  -0.6948  -0.6797  -0.6781
    -0.6763  -0.6737  -0.6688  -0.6656  -0.6433  -0.6333  -0.6207  -0.6155
    -0.6134  -0.6002  -0.5910  -0.5799  -0.5758  -0.5599  -0.5510  -0.4780
    -0.4760  -0.4524  -0.4440  -0.4405  -0.4366  -0.4319  -0.4306  -0.4283
    -0.4229  -0.4186  -0.3825  -0.3645  -0.3597  -0.3436  -0.3421  -0.3346
    -0.3319  -0.3258  -0.3227  -0.3204  -0.3157  -0.3064  -0.2977  -0.2945
    -0.2904  -0.2629  -0.2614  -0.2584  -0.2436  -0.2419  -0.2207  -0.1960
    -0.1940  -0.1858  -0.1822  -0.1191  -0.1159  -0.1022  -0.1007  -0.0393
    -0.0377  -0.0355  -0.0192  -0.0128   0.1977   0.2313   0.5447   0.5453
     0.6155   0.6394   0.7706   0.8008   0.8468   0.9525   0.9638   1.3360
     1.4024   1.4030   1.6354   1.6384   1.6961   1.9939   2.0126   2.0316
     2.0376   2.0683   2.0897   2.2238   2.2319   2.4031   2.4045   2.4183
     2.5526   2.5731   2.6116   2.8190   3.1719   3.1876   3.2200   3.2251
     3.2298   3.2431   3.5584   3.5623   3.8857   3.9018   3.9628   4.2303
     4.3482   4.3593   4.5426   4.5611   4.6417   4.6462   4.7255   4.8840
     4.8908   4.9793   4.9855   5.2663   5.3244   5.3361   5.5070   5.5204
     5.6686   5.6736   5.6779   5.6843   5.8000   5.8193   5.8319   5.9137
     6.3019   6.4004   6.4645   6.4864   6.5021   6.5077   6.5163   6.6724
     6.7176   6.7258   6.7696   6.7972   7.0378   7.0541   7.0847   7.2282
     7.3287   7.3695   7.3855

     the Fermi energy is     1.5292 ev

!    total energy              =   -6564.19601638 Ry
     Harris-Foulkes estimate   =   -6564.19601639 Ry
     estimated scf accuracy    <          8.3E-09 Ry

     The total energy is the sum of the following terms:

     one-electron contribution =  -48850.58258030 Ry
     hartree contribution      =   24925.18730503 Ry
     xc contribution           =   -3162.32715888 Ry
     ewald contribution        =   20523.52432591 Ry
     smearing contrib. (-TS)   =       0.00209186 Ry

     convergence has been achieved in  22 iterations

     Writing output data file 4487823.save

     init_run     :    142.93s CPU    151.42s WALL (       1 calls)
     electrons    :   7888.83s CPU   8398.68s WALL (       1 calls)

     Called by init_run:
     wfcinit      :    110.74s CPU    118.78s WALL (       1 calls)
     potinit      :      5.64s CPU      5.74s WALL (       1 calls)

     Called by electrons:
     c_bands      :   6541.75s CPU   6963.15s WALL (      23 calls)
     sum_band     :   1025.61s CPU   1108.75s WALL (      23 calls)
     v_of_rho     :     16.02s CPU     17.35s WALL (      23 calls)
     newd         :    316.11s CPU    319.59s WALL (      23 calls)
     mix_rho      :      2.61s CPU      2.93s WALL (      23 calls)

     Called by c_bands:
     init_us_2    :     13.04s CPU     13.50s WALL (     564 calls)
     cegterg      :   6470.76s CPU   6890.95s WALL (     276 calls)

     Called by *egterg:
     h_psi        :   2792.91s CPU   3172.66s WALL (    1469 calls)
     s_psi        :    407.75s CPU    410.21s WALL (    1469 calls)
     g_psi        :      5.73s CPU      5.73s WALL (    1181 calls)
     cdiaghg      :   2052.54s CPU   2059.03s WALL (    1445 calls)

     Called by h_psi:
     add_vuspsi   :    408.25s CPU    410.89s WALL (    1469 calls)

     General routines
     calbec       :    575.57s CPU    577.87s WALL (    1745 calls)
     fft          :    167.02s CPU    169.55s WALL (     368 calls)
     ffts         :      1.73s CPU      1.91s WALL (      46 calls)
     fftw         :   2245.86s CPU   2662.71s WALL (  679466 calls)
     interpolate  :      4.47s CPU      4.97s WALL (      46 calls)
     davcio       :      0.02s CPU      0.18s WALL (      12 calls)

     Parallel routines
     fft_scatter  :   1651.31s CPU   1980.50s WALL (  679880 calls)

     PWSCF        :     2h14m CPU        2h22m WALL


   This run was terminated on:  21:56:46   9Aug2015            

=------------------------------------------------------------------------------=
   JOB DONE.
=------------------------------------------------------------------------------=
