
     Program PWSCF v.5.1.2 starts on  9Aug2015 at 20:33:59 

     This program is part of the open-source Quantum ESPRESSO suite
     for quantum simulation of materials; please cite
         "P. Giannozzi et al., J. Phys.:Condens. Matter 21 395502 (2009);
          URL http://www.quantum-espresso.org", 
     in publications or presentations arising from this work. More details at
     http://www.quantum-espresso.org/quote

     Parallel version (MPI), running on    32 processors
     R & G space division:  proc/nbgrp/npool/nimage =      32
     Reading input from bridge.O1.Au5455.d.2.7.phi.0.psi.90.in
Warning: card &IONS ignored
Warning: card / ignored
Warning: card &CELL ignored
Warning: card / ignored

     Current dimensions of program PWSCF are:
     Max number of different atomic species (ntypx) = 10
     Max number of k-points (npk) =  40000
     Max angular momentum in pseudopotentials (lmaxx) =  3

     Subspace diagonalization in iterative solution of the eigenvalue problem:
     a serial algorithm will be used


     Parallelization info
     --------------------
     sticks:   dense  smooth     PW     G-vecs:    dense   smooth      PW
     Min         445     223     58                96775    34191    4534
     Max         446     224     59                96790    34246    4540
     Sum       14269    7147   1867              3097177  1095093  145167


     Title: 
     bridge.O1.Au5455.d.2.7.phi.0.psi.90                                        


     bravais-lattice index     =            4
     lattice parameter (alat)  =      22.7436  a.u.
     unit-cell volume          =   22924.1508 (a.u.)^3
     number of atoms/cell      =           67
     number of atomic types    =            3
     number of electrons       =       712.00
     number of Kohn-Sham states=          427
     kinetic-energy cutoff     =      50.0000  Ry
     charge density cutoff     =     400.0000  Ry
     convergence threshold     =      1.0E-08
     mixing beta               =       0.7000
     number of iterations used =            8  plain     mixing
     Exchange-correlation      =  SLA  PW   PBE  PBE ( 1  4  3  4 0 0)

     celldm(1)=  22.743643  celldm(2)=   0.000000  celldm(3)=   2.250000
     celldm(4)=   0.000000  celldm(5)=   0.000000  celldm(6)=   0.000000

     crystal axes: (cart. coord. in units of alat)
               a(1) = (   1.000000   0.000000   0.000000 )  
               a(2) = (  -0.500000   0.866025   0.000000 )  
               a(3) = (   0.000000   0.000000   2.250000 )  

     reciprocal axes: (cart. coord. in units 2 pi/alat)
               b(1) = (  1.000000  0.577350 -0.000000 )  
               b(2) = (  0.000000  1.154701  0.000000 )  
               b(3) = (  0.000000 -0.000000  0.444444 )  


     PseudoPot. # 1 for Au read from file:
     /home/scc/andrejb/qe/pseudo/Au.pbe-nd-van.UPF
     MD5 check sum: 458681b50f36d87ef23c61b04bba420a
     Pseudo is Ultrasoft + core correction, Zval = 11.0
     Generated by new atomic code, or converted to UPF format
     Using radial grid of  985 points,  3 beta functions with: 
                l(1) =   1
                l(2) =   2
                l(3) =   2
     Q(r) pseudized with  8 coefficients,  rinner =    1.100   1.100   1.100
                                                       1.100   1.100

     PseudoPot. # 2 for H  read from file:
     /home/scc/andrejb/qe/pseudo/H.pbe-van_ak.UPF
     MD5 check sum: 403db7282739603aa925980fa9b8608d
     Pseudo is Ultrasoft, Zval =  1.0
     Generated by new atomic code, or converted to UPF format
     Using radial grid of  615 points,  1 beta functions with: 
                l(1) =   0
     Q(r) pseudized with  8 coefficients,  rinner =    0.800

     PseudoPot. # 3 for O  read from file:
     /home/scc/andrejb/qe/pseudo/O.pbe-van_ak.UPF
     MD5 check sum: 4b8c549914a63cae506c6ff22b5af4fe
     Pseudo is Ultrasoft, Zval =  6.0
     Generated by new atomic code, or converted to UPF format
     Using radial grid of  737 points,  4 beta functions with: 
                l(1) =   0
                l(2) =   0
                l(3) =   1
                l(4) =   1
     Q(r) pseudized with  8 coefficients,  rinner =    0.800   0.800   0.800


     atomic species   valence    mass     pseudopotential
        Au            11.00   196.96657     Au( 1.00)
        H              1.00     1.01000     H ( 1.00)
        O              6.00    16.00000     O ( 1.00)

     No symmetry found



   Cartesian axes

     site n.     atom                  positions (alat units)
         1           O   tau(   1) = (   0.2915728   0.2885783   1.0450762  )
         2           H   tau(   2) = (   0.2416394   0.2403247   1.0035286  )
         3           H   tau(   3) = (   0.3399922   0.2378175   1.0853831  )
         4           Au  tau(   4) = (   0.3540481   0.6132292   0.0000000  )
         5           Au  tau(   5) = (   0.4790062   0.3967954   0.0000000  )
         6           Au  tau(   6) = (   0.6039644   0.1803616   0.0000000  )
         7           Au  tau(   7) = (   0.7289225  -0.0360723   0.0000000  )
         8           Au  tau(   8) = (   0.1041318   0.6132292   0.0000000  )
         9           Au  tau(   9) = (   0.2290899   0.3967954   0.0000000  )
        10           Au  tau(  10) = (   0.3540481   0.1803616   0.0000000  )
        11           Au  tau(  11) = (   0.4790062  -0.0360723   0.0000000  )
        12           Au  tau(  12) = (  -0.1457845   0.6132292   0.0000000  )
        13           Au  tau(  13) = (  -0.0208264   0.3967954   0.0000000  )
        14           Au  tau(  14) = (   0.1041318   0.1803616   0.0000000  )
        15           Au  tau(  15) = (   0.2290899  -0.0360723   0.0000000  )
        16           Au  tau(  16) = (  -0.3957008   0.6132292   0.0000000  )
        17           Au  tau(  17) = (  -0.2707426   0.3967954   0.0000000  )
        18           Au  tau(  18) = (  -0.1457845   0.1803616   0.0000000  )
        19           Au  tau(  19) = (  -0.0208264  -0.0360723   0.0000000  )
        20           Au  tau(  20) = (   0.4790062   0.6853738   0.2040557  )
        21           Au  tau(  21) = (   0.6039644   0.4689400   0.2040557  )
        22           Au  tau(  22) = (   0.7289225   0.2525061   0.2040557  )
        23           Au  tau(  23) = (   0.8538806   0.0360723   0.2040557  )
        24           Au  tau(  24) = (   0.2290899   0.6853738   0.2040557  )
        25           Au  tau(  25) = (   0.3540481   0.4689400   0.2040557  )
        26           Au  tau(  26) = (   0.4790062   0.2525061   0.2040557  )
        27           Au  tau(  27) = (   0.6039644   0.0360723   0.2040557  )
        28           Au  tau(  28) = (  -0.0208264   0.6853738   0.2040557  )
        29           Au  tau(  29) = (   0.1041318   0.4689400   0.2040557  )
        30           Au  tau(  30) = (   0.2290899   0.2525061   0.2040557  )
        31           Au  tau(  31) = (   0.3540481   0.0360723   0.2040557  )
        32           Au  tau(  32) = (  -0.2707426   0.6853738   0.2040557  )
        33           Au  tau(  33) = (  -0.1457845   0.4689400   0.2040557  )
        34           Au  tau(  34) = (  -0.0208264   0.2525061   0.2040557  )
        35           Au  tau(  35) = (   0.1041318   0.0360723   0.2040557  )
        36           Au  tau(  36) = (   0.3541162   0.7576593   0.4066483  )
        37           Au  tau(  37) = (   0.4791000   0.5411421   0.4066695  )
        38           Au  tau(  38) = (   0.6040570   0.3246862   0.4066617  )
        39           Au  tau(  39) = (   0.7290270   0.1081684   0.4066529  )
        40           Au  tau(  40) = (   0.1041162   0.7576236   0.4066247  )
        41           Au  tau(  41) = (   0.2291001   0.5411063   0.4066455  )
        42           Au  tau(  42) = (   0.3540567   0.3246505   0.4066380  )
        43           Au  tau(  43) = (   0.4790276   0.1081324   0.4066292  )
        44           Au  tau(  44) = (  -0.1458201   0.7576104   0.4066224  )
        45           Au  tau(  45) = (  -0.0208365   0.5410930   0.4066438  )
        46           Au  tau(  46) = (   0.1041202   0.3246372   0.4066359  )
        47           Au  tau(  47) = (   0.2290908   0.1081193   0.4066273  )
        48           Au  tau(  48) = (  -0.3958167   0.7575791   0.4065812  )
        49           Au  tau(  49) = (  -0.2708328   0.5410617   0.4066025  )
        50           Au  tau(  50) = (  -0.1458763   0.3246061   0.4065947  )
        51           Au  tau(  51) = (  -0.0209056   0.1080882   0.4065858  )
        52           Au  tau(  52) = (   0.3541085   0.6133344   0.6129762  )
        53           Au  tau(  53) = (   0.4790780   0.3968269   0.6129968  )
        54           Au  tau(  54) = (   0.6040356   0.1803811   0.6129859  )
        55           Au  tau(  55) = (   0.7290165  -0.0361221   0.6129385  )
        56           Au  tau(  56) = (   0.1041243   0.6133091   0.6130022  )
        57           Au  tau(  57) = (   0.2290941   0.3968013   0.6130241  )
        58           Au  tau(  58) = (   0.3540515   0.1803552   0.6130121  )
        59           Au  tau(  59) = (   0.4790323  -0.0361475   0.6129659  )
        60           Au  tau(  60) = (  -0.1458030   0.6133014   0.6129980  )
        61           Au  tau(  61) = (  -0.0208339   0.3967936   0.6130188  )
        62           Au  tau(  62) = (   0.1041239   0.1803477   0.6130083  )
        63           Au  tau(  63) = (   0.2291046  -0.0361554   0.6129607  )
        64           Au  tau(  64) = (  -0.3957908   0.6132739   0.6129471  )
        65           Au  tau(  65) = (  -0.2708208   0.3967658   0.6129688  )
        66           Au  tau(  66) = (  -0.1458636   0.1803200   0.6129569  )
        67           Au  tau(  67) = (  -0.0208823  -0.0361826   0.6129110  )

     number of k points=    12  Marzari-Vanderbilt smearing, width (Ry)=  0.0200
                       cart. coord. in units 2pi/alat
        k(    1) = (   0.2500000   0.4330127   0.1111111), wk =   0.1666667
        k(    2) = (   0.2500000  -0.1443376   0.1111111), wk =   0.1666667
        k(    3) = (  -0.2500000  -0.4330127   0.1111111), wk =   0.1666667
        k(    4) = (  -0.2500000   0.4330127  -0.1111111), wk =   0.1666667
        k(    5) = (   0.2500000  -0.4330127  -0.1111111), wk =   0.1666667
        k(    6) = (   0.5000000   0.0000000   0.1111111), wk =   0.1666667
        k(    7) = (  -0.5000000   0.0000000   0.1111111), wk =   0.1666667
        k(    8) = (  -0.2500000   0.1443376   0.1111111), wk =   0.1666667
        k(    9) = (  -0.2500000  -0.1443376  -0.1111111), wk =   0.1666667
        k(   10) = (   0.2500000   0.1443376  -0.1111111), wk =   0.1666667
        k(   11) = (   0.0000000  -0.2886751   0.1111111), wk =   0.1666667
        k(   12) = (   0.0000000   0.2886751   0.1111111), wk =   0.1666667

     Dense  grid:  3097177 G-vectors     FFT dimensions: ( 150, 150, 360)

     Smooth grid:  1095093 G-vectors     FFT dimensions: ( 108, 108, 240)

     Largest allocated arrays     est. size (Mb)     dimensions
        Kohn-Sham Wavefunctions        28.01 Mb     (    4299,  427)
        NL pseudopotentials            55.23 Mb     (    4299,  842)
        Each V/rho on FFT grid          4.12 Mb     (  270000)
        Each G-vector array             0.74 Mb     (   96788)
        G-vector shells                 0.16 Mb     (   21404)
     Largest temporary arrays     est. size (Mb)     dimensions
        Auxiliary wavefunctions       112.04 Mb     (    4299, 1708)
        Each subspace H/S matrix       44.51 Mb     (    1708, 1708)
        Each <psi_i|beta_j> matrix      5.49 Mb     (     842,  427)
        Arrays for rho mixing          32.96 Mb     (  270000,    8)

     Initial potential from superposition of free atoms
     Check: negative starting charge=   -1.729895

     starting charge  711.25682, renormalised to  712.00000

     negative rho (up, down):  1.732E+00 0.000E+00
     Starting wfc are  582 randomized atomic wfcs

     total cpu time spent up to now is      139.8 secs

     Self-consistent Calculation

     iteration #  1     ecut=    50.00 Ry     beta=0.70
     Davidson diagonalization with overlap
     ethr =  1.00E-02,  avg # of iterations =  3.0

     Threshold (ethr) on eigenvalues was too large:
     Diagonalizing with lowered threshold

     Davidson diagonalization with overlap
     ethr =  4.35E-04,  avg # of iterations =  2.8

     negative rho (up, down):  1.714E+00 0.000E+00

     total cpu time spent up to now is      722.7 secs

     total energy              =   -6562.22492624 Ry
     Harris-Foulkes estimate   =   -6564.99252745 Ry
     estimated scf accuracy    <       3.56324571 Ry

     iteration #  2     ecut=    50.00 Ry     beta=0.70
     Davidson diagonalization with overlap
     ethr =  5.00E-04,  avg # of iterations = 11.1

     negative rho (up, down):  1.714E+00 0.000E+00

     total cpu time spent up to now is     1524.0 secs

     total energy              =   -6555.00637347 Ry
     Harris-Foulkes estimate   =   -6570.87249468 Ry
     estimated scf accuracy    <      89.23734515 Ry

     iteration #  3     ecut=    50.00 Ry     beta=0.70
     Davidson diagonalization with overlap
     ethr =  5.00E-04,  avg # of iterations =  6.0

     negative rho (up, down):  1.731E+00 0.000E+00

     total cpu time spent up to now is     2069.9 secs

     total energy              =   -6562.65697683 Ry
     Harris-Foulkes estimate   =   -6564.94101988 Ry
     estimated scf accuracy    <       9.75223964 Ry

     iteration #  4     ecut=    50.00 Ry     beta=0.70
     Davidson diagonalization with overlap
     ethr =  5.00E-04,  avg # of iterations = 10.2

     negative rho (up, down):  1.732E+00 0.000E+00

     total cpu time spent up to now is     2458.5 secs

     total energy              =   -6563.04404800 Ry
     Harris-Foulkes estimate   =   -6565.02129080 Ry
     estimated scf accuracy    <      16.95116163 Ry

     iteration #  5     ecut=    50.00 Ry     beta=0.70
     Davidson diagonalization with overlap
     ethr =  5.00E-04,  avg # of iterations =  5.6

     negative rho (up, down):  1.745E+00 0.000E+00

     total cpu time spent up to now is     2778.7 secs

     total energy              =   -6563.99490722 Ry
     Harris-Foulkes estimate   =   -6564.53435056 Ry
     estimated scf accuracy    <       4.66356517 Ry

     iteration #  6     ecut=    50.00 Ry     beta=0.70
     Davidson diagonalization with overlap
     ethr =  5.00E-04,  avg # of iterations =  3.1

     negative rho (up, down):  1.750E+00 0.000E+00

     total cpu time spent up to now is     3038.2 secs

     total energy              =   -6564.20498737 Ry
     Harris-Foulkes estimate   =   -6564.24051883 Ry
     estimated scf accuracy    <       0.10536849 Ry

     iteration #  7     ecut=    50.00 Ry     beta=0.70
     Davidson diagonalization with overlap
     ethr =  1.48E-05,  avg # of iterations =  9.8

     negative rho (up, down):  1.752E+00 0.000E+00

     total cpu time spent up to now is     3496.6 secs

     total energy              =   -6564.20566294 Ry
     Harris-Foulkes estimate   =   -6564.22830288 Ry
     estimated scf accuracy    <       0.08778595 Ry

     iteration #  8     ecut=    50.00 Ry     beta=0.70
     Davidson diagonalization with overlap
     ethr =  1.23E-05,  avg # of iterations =  4.7

     negative rho (up, down):  1.752E+00 0.000E+00

     total cpu time spent up to now is     3788.0 secs

     total energy              =   -6564.20392093 Ry
     Harris-Foulkes estimate   =   -6564.21882112 Ry
     estimated scf accuracy    <       0.05490234 Ry

     iteration #  9     ecut=    50.00 Ry     beta=0.70
     Davidson diagonalization with overlap
     c_bands:  1 eigenvalues not converged
     ethr =  7.71E-06,  avg # of iterations =  9.1

     negative rho (up, down):  1.753E+00 0.000E+00

     total cpu time spent up to now is     4135.8 secs

     total energy              =   -6564.20287241 Ry
     Harris-Foulkes estimate   =   -6564.21005406 Ry
     estimated scf accuracy    <       0.02403677 Ry

     iteration # 10     ecut=    50.00 Ry     beta=0.70
     Davidson diagonalization with overlap
     c_bands:  1 eigenvalues not converged
     ethr =  3.38E-06,  avg # of iterations =  8.2

     negative rho (up, down):  1.755E+00 0.000E+00

     total cpu time spent up to now is     4472.9 secs

     total energy              =   -6564.20119099 Ry
     Harris-Foulkes estimate   =   -6564.20595788 Ry
     estimated scf accuracy    <       0.01455121 Ry

     iteration # 11     ecut=    50.00 Ry     beta=0.70
     Davidson diagonalization with overlap
     ethr =  2.04E-06,  avg # of iterations = 11.3

     negative rho (up, down):  1.755E+00 0.000E+00

     total cpu time spent up to now is     4855.0 secs

     total energy              =   -6564.20129029 Ry
     Harris-Foulkes estimate   =   -6564.20284583 Ry
     estimated scf accuracy    <       0.00562867 Ry

     iteration # 12     ecut=    50.00 Ry     beta=0.70
     Davidson diagonalization with overlap
     ethr =  7.91E-07,  avg # of iterations =  4.7

     negative rho (up, down):  1.755E+00 0.000E+00

     total cpu time spent up to now is     5135.2 secs

     total energy              =   -6564.20080099 Ry
     Harris-Foulkes estimate   =   -6564.20182464 Ry
     estimated scf accuracy    <       0.00147942 Ry

     iteration # 13     ecut=    50.00 Ry     beta=0.70
     Davidson diagonalization with overlap
     c_bands:  2 eigenvalues not converged
     c_bands:  2 eigenvalues not converged
     c_bands:  1 eigenvalues not converged
     c_bands:  2 eigenvalues not converged
     ethr =  2.08E-07,  avg # of iterations = 16.1

     negative rho (up, down):  1.755E+00 0.000E+00

     total cpu time spent up to now is     5606.0 secs

     total energy              =   -6564.20094331 Ry
     Harris-Foulkes estimate   =   -6564.20117406 Ry
     estimated scf accuracy    <       0.00073899 Ry

     iteration # 14     ecut=    50.00 Ry     beta=0.70
     Davidson diagonalization with overlap
     ethr =  1.04E-07,  avg # of iterations =  3.1

     negative rho (up, down):  1.755E+00 0.000E+00

     total cpu time spent up to now is     5868.3 secs

     total energy              =   -6564.20104495 Ry
     Harris-Foulkes estimate   =   -6564.20108978 Ry
     estimated scf accuracy    <       0.00016436 Ry

     iteration # 15     ecut=    50.00 Ry     beta=0.70
     Davidson diagonalization with overlap
     ethr =  2.31E-08,  avg # of iterations =  2.0

     negative rho (up, down):  1.755E+00 0.000E+00

     total cpu time spent up to now is     6122.8 secs

     total energy              =   -6564.20102270 Ry
     Harris-Foulkes estimate   =   -6564.20111481 Ry
     estimated scf accuracy    <       0.00077966 Ry

     iteration # 16     ecut=    50.00 Ry     beta=0.70
     Davidson diagonalization with overlap
     ethr =  2.31E-08,  avg # of iterations =  1.5

     negative rho (up, down):  1.755E+00 0.000E+00

     total cpu time spent up to now is     6364.1 secs

     total energy              =   -6564.20105911 Ry
     Harris-Foulkes estimate   =   -6564.20108462 Ry
     estimated scf accuracy    <       0.00016024 Ry

     iteration # 17     ecut=    50.00 Ry     beta=0.70
     Davidson diagonalization with overlap
     ethr =  2.25E-08,  avg # of iterations =  1.8

     negative rho (up, down):  1.755E+00 0.000E+00

     total cpu time spent up to now is     6606.9 secs

     total energy              =   -6564.20106948 Ry
     Harris-Foulkes estimate   =   -6564.20107976 Ry
     estimated scf accuracy    <       0.00004904 Ry

     iteration # 18     ecut=    50.00 Ry     beta=0.70
     Davidson diagonalization with overlap
     ethr =  6.89E-09,  avg # of iterations =  2.0

     negative rho (up, down):  1.755E+00 0.000E+00

     total cpu time spent up to now is     6852.5 secs

     total energy              =   -6564.20107379 Ry
     Harris-Foulkes estimate   =   -6564.20107511 Ry
     estimated scf accuracy    <       0.00000347 Ry

     iteration # 19     ecut=    50.00 Ry     beta=0.70
     Davidson diagonalization with overlap
     ethr =  4.88E-10,  avg # of iterations =  2.7

     negative rho (up, down):  1.755E+00 0.000E+00

     total cpu time spent up to now is     7146.5 secs

     total energy              =   -6564.20107432 Ry
     Harris-Foulkes estimate   =   -6564.20107510 Ry
     estimated scf accuracy    <       0.00000324 Ry

     iteration # 20     ecut=    50.00 Ry     beta=0.70
     Davidson diagonalization with overlap
     ethr =  4.56E-10,  avg # of iterations =  2.0

     negative rho (up, down):  1.755E+00 0.000E+00

     total cpu time spent up to now is     7388.6 secs

     total energy              =   -6564.20107466 Ry
     Harris-Foulkes estimate   =   -6564.20107489 Ry
     estimated scf accuracy    <       0.00000088 Ry

     iteration # 21     ecut=    50.00 Ry     beta=0.70
     Davidson diagonalization with overlap
     ethr =  1.24E-10,  avg # of iterations =  2.0

     negative rho (up, down):  1.755E+00 0.000E+00

     total cpu time spent up to now is     7634.2 secs

     total energy              =   -6564.20107476 Ry
     Harris-Foulkes estimate   =   -6564.20107480 Ry
     estimated scf accuracy    <       0.00000013 Ry

     iteration # 22     ecut=    50.00 Ry     beta=0.70
     Davidson diagonalization with overlap
     ethr =  1.90E-11,  avg # of iterations =  2.0

     negative rho (up, down):  1.755E+00 0.000E+00

     total cpu time spent up to now is     7885.2 secs

     total energy              =   -6564.20107478 Ry
     Harris-Foulkes estimate   =   -6564.20107479 Ry
     estimated scf accuracy    <       0.00000001 Ry

     iteration # 23     ecut=    50.00 Ry     beta=0.70
     Davidson diagonalization with overlap
     ethr =  1.79E-12,  avg # of iterations =  3.0

     negative rho (up, down):  1.755E+00 0.000E+00

     total cpu time spent up to now is     8226.5 secs

     total energy              =   -6564.20107478 Ry
     Harris-Foulkes estimate   =   -6564.20107479 Ry
     estimated scf accuracy    <       0.00000002 Ry

     iteration # 24     ecut=    50.00 Ry     beta=0.70
     Davidson diagonalization with overlap
     ethr =  1.79E-12,  avg # of iterations =  2.0

     negative rho (up, down):  1.755E+00 0.000E+00

     total cpu time spent up to now is     8497.7 secs

     End of self-consistent calculation

          k = 0.2500 0.4330 0.1111 (136853 PWs)   bands (ev):

   -18.5130  -6.3783  -6.3261  -5.9779  -5.9779  -5.3010  -4.9539  -4.9539
    -4.9263  -4.9262  -4.5060  -4.5060  -4.4242  -4.3842  -4.3802  -4.3802
    -4.3375  -4.2218  -4.2218  -4.1769  -4.1307  -4.1307  -4.1273  -4.1272
    -4.0792  -4.0792  -4.0500  -4.0500  -4.0296  -4.0093  -4.0092  -3.9325
    -3.9324  -3.9136  -3.9136  -3.8698  -3.8698  -3.8691  -3.8482  -3.8482
    -3.8452  -3.7704  -3.7704  -3.7088  -3.7088  -3.6913  -3.6913  -3.6294
    -3.6294  -3.6011  -3.6011  -3.5630  -3.5476  -3.5475  -3.5283  -3.5283
    -3.5250  -3.5249  -3.5194  -3.4990  -3.4383  -3.4318  -3.4318  -3.4110
    -3.3779  -3.3489  -3.3489  -3.2938  -3.2937  -3.2682  -3.2681  -3.2411
    -3.2142  -3.1770  -3.1770  -3.1406  -3.1406  -3.1029  -3.0986  -3.0985
    -3.0581  -3.0258  -3.0258  -3.0034  -3.0034  -2.9994  -2.9994  -2.9963
    -2.9963  -2.9892  -2.9346  -2.8759  -2.8758  -2.8742  -2.8742  -2.8699
    -2.8477  -2.8477  -2.8315  -2.7543  -2.7542  -2.7524  -2.7452  -2.6975
    -2.6919  -2.6919  -2.6702  -2.6702  -2.6191  -2.6011  -2.6010  -2.5969
    -2.5570  -2.5561  -2.5560  -2.5237  -2.5140  -2.5140  -2.4619  -2.4355
    -2.4354  -2.4318  -2.4318  -2.4096  -2.4095  -2.4045  -2.3963  -2.3962
    -2.3621  -2.3295  -2.3255  -2.3191  -2.3190  -2.3155  -2.3154  -2.3147
    -2.3147  -2.2961  -2.2813  -2.2801  -2.2800  -2.2765  -2.2765  -2.2647
    -2.2595  -2.2595  -2.2330  -2.2291  -2.2290  -2.2062  -2.2036  -2.1870
    -2.1869  -2.1602  -2.1602  -2.1593  -2.1593  -2.1514  -2.1514  -2.1513
    -2.1513  -2.1364  -2.1364  -2.1212  -2.1154  -2.1154  -2.0340  -2.0339
    -2.0192  -2.0191  -2.0002  -2.0002  -1.9785  -1.9663  -1.9662  -1.9469
    -1.9286  -1.9285  -1.9196  -1.9184  -1.8925  -1.8920  -1.8883  -1.8882
    -1.8825  -1.8711  -1.8422  -1.8127  -1.7936  -1.7936  -1.7728  -1.7678
    -1.7677  -1.7081  -1.7081  -1.6953  -1.6952  -1.6255  -1.6255  -1.5852
    -1.5665  -1.5664  -1.5327  -1.5327  -1.5054  -1.5054  -1.4854  -1.4854
    -1.4833  -1.4833  -1.4680  -1.4258  -1.4258  -1.4249  -1.4248  -1.4173
    -1.4172  -1.3887  -1.3860  -1.3859  -1.3514  -1.3400  -1.3399  -1.3345
    -1.3345  -1.3275  -1.3114  -1.2838  -1.2837  -1.2777  -1.2776  -1.2590
    -1.2590  -1.2125  -1.1990  -1.1989  -1.1979  -1.1742  -1.1742  -1.1298
    -1.0943  -1.0440  -1.0438  -1.0432  -1.0431  -1.0368  -1.0354  -1.0354
    -1.0220  -1.0220  -0.9716  -0.9716  -0.9547  -0.9546  -0.9379  -0.9259
    -0.9259  -0.9129  -0.9103  -0.9102  -0.9090  -0.9089  -0.8655  -0.8655
    -0.8526  -0.8517  -0.8517  -0.8367  -0.8367  -0.8061  -0.7963  -0.7963
    -0.7684  -0.7482  -0.7482  -0.7067  -0.7035  -0.6908  -0.6908  -0.6821
    -0.6820  -0.6745  -0.6744  -0.6701  -0.6701  -0.6410  -0.6409  -0.6307
    -0.6306  -0.6192  -0.6055  -0.6054  -0.5882  -0.5882  -0.5633  -0.5540
    -0.5539  -0.5408  -0.4892  -0.4873  -0.4872  -0.4847  -0.4830  -0.4760
    -0.4746  -0.4741  -0.4535  -0.4535  -0.4408  -0.4407  -0.4383  -0.4383
    -0.3964  -0.3944  -0.3943  -0.3869  -0.3869  -0.3791  -0.3789  -0.3751
    -0.3652  -0.3587  -0.3586  -0.3263  -0.3263  -0.3181  -0.3043  -0.3043
    -0.2507  -0.2507  -0.2225  -0.2225  -0.2136  -0.2136  -0.1804  -0.1700
    -0.1700  -0.1513  -0.1511  -0.1510  -0.0712  -0.0712   0.0402   0.4417
     0.4417   0.4674   0.4674   0.5301   0.5304   0.8805   0.8805   0.8939
     0.8940   1.0647   1.1311   1.2225   1.2225   1.4831   1.4832   2.0669
     2.0670   2.1976   2.1979   2.4077   2.4082   2.4782   2.4782   2.5666
     2.8439   2.8562   3.0230   3.2389   3.2391   3.2724   3.2724   3.3373
     3.4353   3.6027   3.6054   3.6436   3.8860   3.8861   3.9602   3.9604
     4.2049   4.2053   4.2356   4.4262   4.4263   4.4871   4.5716   4.8632
     4.9001   4.9001   5.0910   5.1809   5.1810   5.2952   5.3040   5.6554
     5.9105   5.9759   5.9760   6.0524   6.0524   6.1281   6.1767   6.1941
     6.2062   6.2067   6.2200   6.2768   6.2769   6.2855   6.2868   6.3516
     6.4276   6.6921   6.8615   6.8780   6.9201   6.9274   6.9278   7.0615
     7.1269   7.1559   7.1595

          k = 0.2500-0.1443 0.1111 (136898 PWs)   bands (ev):

   -18.5130  -6.5882  -6.3261  -5.7936  -5.5050  -5.4397  -5.4396  -4.8828
    -4.8828  -4.7697  -4.7334  -4.5828  -4.5126  -4.4803  -4.4801  -4.4335
    -4.3629  -4.3629  -4.2259  -4.1834  -4.1834  -4.1622  -4.1616  -4.1607
    -4.0400  -4.0400  -3.9606  -3.9496  -3.9479  -3.9479  -3.9273  -3.9273
    -3.8617  -3.8056  -3.8056  -3.7931  -3.7828  -3.7827  -3.7713  -3.7712
    -3.7629  -3.7158  -3.7158  -3.7064  -3.7064  -3.6938  -3.6938  -3.6628
    -3.6590  -3.6590  -3.6231  -3.6231  -3.6047  -3.6045  -3.5847  -3.5427
    -3.5427  -3.4814  -3.4813  -3.4591  -3.4589  -3.4425  -3.3692  -3.3691
    -3.3603  -3.3602  -3.3432  -3.3432  -3.3197  -3.3197  -3.1682  -3.1681
    -3.1499  -3.1499  -3.1452  -3.1066  -3.1066  -3.1017  -3.1016  -3.0457
    -3.0456  -3.0267  -3.0266  -2.9884  -2.9645  -2.9644  -2.9421  -2.9341
    -2.9341  -2.8893  -2.8893  -2.8701  -2.8699  -2.8650  -2.8650  -2.8397
    -2.8396  -2.7949  -2.7949  -2.7889  -2.7888  -2.7740  -2.7250  -2.7249
    -2.7015  -2.6933  -2.6932  -2.6136  -2.6135  -2.5834  -2.5833  -2.5763
    -2.5675  -2.5457  -2.5238  -2.5182  -2.5182  -2.5008  -2.4977  -2.4934
    -2.4934  -2.4806  -2.4717  -2.4715  -2.4629  -2.4629  -2.4549  -2.4547
    -2.4032  -2.3774  -2.3582  -2.3539  -2.3539  -2.3378  -2.3377  -2.3346
    -2.3346  -2.3237  -2.2936  -2.2936  -2.2819  -2.2761  -2.2631  -2.2631
    -2.2608  -2.2350  -2.2349  -2.2246  -2.2165  -2.2164  -2.1598  -2.1484
    -2.1364  -2.1362  -2.1343  -2.1147  -2.1147  -2.1016  -2.0809  -2.0809
    -2.0756  -2.0755  -2.0644  -2.0521  -2.0520  -2.0387  -2.0228  -2.0226
    -1.9754  -1.9753  -1.9658  -1.9657  -1.9654  -1.9624  -1.9527  -1.9525
    -1.9496  -1.9496  -1.9368  -1.9317  -1.9315  -1.8170  -1.8168  -1.7877
    -1.7873  -1.7867  -1.7645  -1.7599  -1.7598  -1.7498  -1.7496  -1.7296
    -1.7295  -1.7288  -1.7228  -1.7225  -1.6863  -1.6862  -1.6851  -1.6554
    -1.6553  -1.6494  -1.6494  -1.6356  -1.6354  -1.5781  -1.5755  -1.5517
    -1.5516  -1.5429  -1.5369  -1.5146  -1.5145  -1.5091  -1.5090  -1.5055
    -1.5054  -1.4932  -1.4932  -1.4736  -1.4362  -1.4360  -1.4049  -1.4048
    -1.3946  -1.3575  -1.3573  -1.3237  -1.3236  -1.3132  -1.3129  -1.2990
    -1.2819  -1.2813  -1.2617  -1.2615  -1.2310  -1.2309  -1.2118  -1.2117
    -1.1781  -1.1780  -1.1663  -1.1120  -1.1117  -1.1075  -1.1074  -1.0876
    -1.0876  -1.0708  -1.0707  -1.0401  -1.0288  -1.0086  -1.0065  -1.0064
    -0.9753  -0.9553  -0.9550  -0.9546  -0.9449  -0.9447  -0.9395  -0.9395
    -0.9093  -0.9017  -0.9017  -0.8889  -0.8883  -0.8822  -0.8822  -0.8631
    -0.8465  -0.8461  -0.8176  -0.8173  -0.7348  -0.7165  -0.7162  -0.7160
    -0.7142  -0.7091  -0.7090  -0.7002  -0.6785  -0.6570  -0.6567  -0.6517
    -0.6516  -0.6332  -0.6181  -0.6179  -0.6138  -0.5986  -0.5185  -0.5185
    -0.4911  -0.4900  -0.4840  -0.4803  -0.4798  -0.4729  -0.4717  -0.4717
    -0.4653  -0.4651  -0.4476  -0.4155  -0.4031  -0.3837  -0.3835  -0.3747
    -0.3746  -0.3671  -0.3670  -0.3590  -0.3562  -0.3561  -0.3381  -0.3354
    -0.3353  -0.3036  -0.3036  -0.3028  -0.2856  -0.2856  -0.2628  -0.2367
    -0.2367  -0.2267  -0.2267  -0.1587  -0.1586  -0.1401  -0.1401  -0.0781
    -0.0757  -0.0749  -0.0749  -0.0473   0.1600   0.1609   0.5037   0.5038
     0.5788   0.5798   0.7299   0.7590   0.7801   0.9156   0.9159   1.2939
     1.3614   1.3614   1.5957   1.5957   1.6507   1.9611   1.9628   1.9950
     1.9950   2.0334   2.0343   2.1887   2.1887   2.3634   2.3635   2.3746
     2.5187   2.5202   2.5662   2.7759   3.1431   3.1432   3.1848   3.1849
     3.1921   3.1926   3.5194   3.5194   3.8541   3.8555   3.9256   4.1882
     4.3178   4.3186   4.5116   4.5196   4.6075   4.6076   4.6863   4.8476
     4.8478   4.9411   4.9414   5.2330   5.2953   5.2956   5.4668   5.4918
     5.6274   5.6352   5.6357   5.6391   5.6413   5.7851   5.7853   5.8484
     6.1151   6.3717   6.4362   6.4650   6.4651   6.4703   6.4710   6.6059
     6.6843   6.6853   6.7623   6.7737   6.9372   7.0316   7.0383   7.1332
     7.2733   7.3355   7.3560

          k =-0.2500-0.4330 0.1111 (136853 PWs)   bands (ev):

   -18.5130  -6.3783  -6.3261  -5.9779  -5.9779  -5.3010  -4.9539  -4.9539
    -4.9263  -4.9262  -4.5060  -4.5060  -4.4242  -4.3842  -4.3802  -4.3802
    -4.3375  -4.2218  -4.2218  -4.1769  -4.1307  -4.1307  -4.1273  -4.1272
    -4.0792  -4.0792  -4.0500  -4.0500  -4.0296  -4.0093  -4.0092  -3.9325
    -3.9324  -3.9136  -3.9136  -3.8698  -3.8698  -3.8691  -3.8482  -3.8482
    -3.8452  -3.7704  -3.7704  -3.7088  -3.7088  -3.6913  -3.6913  -3.6294
    -3.6294  -3.6011  -3.6011  -3.5630  -3.5476  -3.5475  -3.5283  -3.5283
    -3.5251  -3.5249  -3.5194  -3.4990  -3.4383  -3.4318  -3.4318  -3.4110
    -3.3779  -3.3489  -3.3489  -3.2938  -3.2937  -3.2682  -3.2681  -3.2411
    -3.2142  -3.1770  -3.1770  -3.1406  -3.1406  -3.1029  -3.0986  -3.0985
    -3.0581  -3.0258  -3.0257  -3.0034  -3.0034  -2.9994  -2.9994  -2.9963
    -2.9963  -2.9892  -2.9346  -2.8759  -2.8758  -2.8742  -2.8742  -2.8699
    -2.8477  -2.8477  -2.8315  -2.7543  -2.7542  -2.7524  -2.7452  -2.6975
    -2.6919  -2.6919  -2.6702  -2.6702  -2.6191  -2.6011  -2.6010  -2.5969
    -2.5570  -2.5561  -2.5560  -2.5237  -2.5140  -2.5140  -2.4619  -2.4355
    -2.4355  -2.4318  -2.4318  -2.4096  -2.4095  -2.4045  -2.3963  -2.3962
    -2.3621  -2.3295  -2.3255  -2.3191  -2.3190  -2.3155  -2.3154  -2.3147
    -2.3147  -2.2961  -2.2813  -2.2801  -2.2800  -2.2765  -2.2765  -2.2647
    -2.2595  -2.2595  -2.2330  -2.2291  -2.2290  -2.2062  -2.2036  -2.1870
    -2.1869  -2.1602  -2.1602  -2.1593  -2.1592  -2.1514  -2.1514  -2.1513
    -2.1513  -2.1365  -2.1364  -2.1212  -2.1154  -2.1154  -2.0340  -2.0339
    -2.0192  -2.0191  -2.0002  -2.0002  -1.9785  -1.9663  -1.9662  -1.9469
    -1.9286  -1.9285  -1.9196  -1.9184  -1.8925  -1.8920  -1.8883  -1.8882
    -1.8825  -1.8711  -1.8422  -1.8127  -1.7936  -1.7936  -1.7728  -1.7678
    -1.7677  -1.7081  -1.7081  -1.6953  -1.6952  -1.6255  -1.6255  -1.5852
    -1.5665  -1.5664  -1.5327  -1.5327  -1.5054  -1.5054  -1.4854  -1.4854
    -1.4834  -1.4833  -1.4680  -1.4258  -1.4258  -1.4249  -1.4248  -1.4173
    -1.4172  -1.3887  -1.3860  -1.3859  -1.3514  -1.3400  -1.3399  -1.3345
    -1.3345  -1.3275  -1.3114  -1.2838  -1.2837  -1.2777  -1.2776  -1.2590
    -1.2590  -1.2125  -1.1990  -1.1989  -1.1979  -1.1742  -1.1742  -1.1298
    -1.0943  -1.0440  -1.0438  -1.0432  -1.0431  -1.0368  -1.0354  -1.0354
    -1.0220  -1.0220  -0.9716  -0.9716  -0.9547  -0.9546  -0.9379  -0.9259
    -0.9259  -0.9129  -0.9103  -0.9102  -0.9090  -0.9089  -0.8655  -0.8655
    -0.8526  -0.8517  -0.8517  -0.8367  -0.8367  -0.8061  -0.7963  -0.7963
    -0.7684  -0.7482  -0.7482  -0.7067  -0.7035  -0.6908  -0.6908  -0.6821
    -0.6820  -0.6745  -0.6744  -0.6701  -0.6701  -0.6410  -0.6409  -0.6307
    -0.6306  -0.6192  -0.6055  -0.6054  -0.5882  -0.5882  -0.5633  -0.5540
    -0.5539  -0.5408  -0.4892  -0.4873  -0.4872  -0.4847  -0.4830  -0.4760
    -0.4746  -0.4741  -0.4535  -0.4535  -0.4408  -0.4407  -0.4383  -0.4383
    -0.3964  -0.3944  -0.3943  -0.3869  -0.3869  -0.3791  -0.3789  -0.3751
    -0.3652  -0.3587  -0.3586  -0.3263  -0.3263  -0.3181  -0.3043  -0.3043
    -0.2507  -0.2507  -0.2225  -0.2225  -0.2136  -0.2136  -0.1804  -0.1700
    -0.1700  -0.1513  -0.1511  -0.1510  -0.0712  -0.0712   0.0402   0.4417
     0.4417   0.4674   0.4674   0.5301   0.5304   0.8805   0.8805   0.8939
     0.8940   1.0647   1.1311   1.2225   1.2225   1.4831   1.4832   2.0669
     2.0670   2.1976   2.1979   2.4077   2.4082   2.4782   2.4782   2.5666
     2.8439   2.8562   3.0230   3.2389   3.2391   3.2724   3.2724   3.3373
     3.4353   3.6027   3.6054   3.6436   3.8860   3.8861   3.9602   3.9604
     4.2049   4.2053   4.2356   4.4262   4.4263   4.4871   4.5716   4.8632
     4.9001   4.9001   5.0910   5.1809   5.1810   5.2952   5.3040   5.6556
     5.9105   5.9759   5.9760   6.0524   6.0524   6.1281   6.1733   6.1941
     6.2062   6.2067   6.2199   6.2768   6.2769   6.2854   6.2868   6.3524
     6.4353   6.7041   6.8421   6.8618   6.9190   6.9275   6.9281   7.0615
     7.1204   7.1567   7.1580

          k =-0.2500 0.4330-0.1111 (136853 PWs)   bands (ev):

   -18.5130  -6.3783  -6.3261  -5.9793  -5.9765  -5.3010  -4.9544  -4.9534
    -4.9276  -4.9249  -4.5067  -4.5053  -4.4242  -4.3842  -4.3803  -4.3799
    -4.3375  -4.2224  -4.2215  -4.1770  -4.1308  -4.1306  -4.1275  -4.1269
    -4.0794  -4.0791  -4.0517  -4.0484  -4.0295  -4.0100  -4.0085  -3.9331
    -3.9315  -3.9138  -3.9133  -3.8702  -3.8699  -3.8688  -3.8484  -3.8480
    -3.8452  -3.7707  -3.7702  -3.7098  -3.7078  -3.6913  -3.6912  -3.6297
    -3.6291  -3.6011  -3.6010  -3.5632  -3.5477  -3.5476  -3.5284  -3.5282
    -3.5253  -3.5246  -3.5194  -3.4990  -3.4382  -3.4320  -3.4316  -3.4108
    -3.3777  -3.3496  -3.3487  -3.2941  -3.2932  -3.2684  -3.2676  -3.2410
    -3.2143  -3.1772  -3.1770  -3.1409  -3.1399  -3.1029  -3.0987  -3.0985
    -3.0580  -3.0261  -3.0255  -3.0036  -3.0034  -3.0000  -2.9987  -2.9964
    -2.9961  -2.9893  -2.9346  -2.8766  -2.8752  -2.8744  -2.8738  -2.8700
    -2.8482  -2.8472  -2.8315  -2.7550  -2.7534  -2.7527  -2.7451  -2.6975
    -2.6926  -2.6911  -2.6707  -2.6701  -2.6192  -2.6010  -2.6007  -2.5968
    -2.5570  -2.5563  -2.5558  -2.5238  -2.5143  -2.5136  -2.4617  -2.4355
    -2.4353  -2.4323  -2.4319  -2.4098  -2.4091  -2.4046  -2.3968  -2.3959
    -2.3621  -2.3294  -2.3254  -2.3191  -2.3186  -2.3163  -2.3152  -2.3147
    -2.3144  -2.2961  -2.2814  -2.2807  -2.2792  -2.2768  -2.2764  -2.2646
    -2.2594  -2.2592  -2.2328  -2.2293  -2.2287  -2.2062  -2.2038  -2.1870
    -2.1868  -2.1610  -2.1599  -2.1595  -2.1589  -2.1521  -2.1511  -2.1510
    -2.1507  -2.1370  -2.1361  -2.1211  -2.1158  -2.1153  -2.0346  -2.0335
    -2.0198  -2.0184  -2.0001  -1.9998  -1.9784  -1.9666  -1.9659  -1.9468
    -1.9290  -1.9283  -1.9197  -1.9180  -1.8925  -1.8921  -1.8888  -1.8879
    -1.8821  -1.8710  -1.8422  -1.8127  -1.7941  -1.7936  -1.7728  -1.7682
    -1.7676  -1.7090  -1.7071  -1.6954  -1.6950  -1.6261  -1.6247  -1.5855
    -1.5666  -1.5662  -1.5331  -1.5323  -1.5057  -1.5051  -1.4859  -1.4850
    -1.4838  -1.4828  -1.4682  -1.4257  -1.4256  -1.4253  -1.4246  -1.4177
    -1.4166  -1.3891  -1.3860  -1.3860  -1.3514  -1.3407  -1.3393  -1.3348
    -1.3342  -1.3276  -1.3112  -1.2842  -1.2832  -1.2779  -1.2772  -1.2591
    -1.2586  -1.2123  -1.1998  -1.1982  -1.1979  -1.1744  -1.1742  -1.1300
    -1.0944  -1.0440  -1.0438  -1.0434  -1.0432  -1.0370  -1.0358  -1.0351
    -1.0225  -1.0213  -0.9719  -0.9711  -0.9548  -0.9546  -0.9379  -0.9263
    -0.9256  -0.9128  -0.9104  -0.9103  -0.9088  -0.9086  -0.8663  -0.8649
    -0.8523  -0.8520  -0.8513  -0.8369  -0.8365  -0.8064  -0.7967  -0.7955
    -0.7686  -0.7484  -0.7478  -0.7068  -0.7033  -0.6912  -0.6904  -0.6821
    -0.6817  -0.6747  -0.6742  -0.6703  -0.6700  -0.6413  -0.6407  -0.6309
    -0.6306  -0.6193  -0.6056  -0.6052  -0.5882  -0.5880  -0.5634  -0.5543
    -0.5537  -0.5406  -0.4891  -0.4875  -0.4870  -0.4849  -0.4829  -0.4758
    -0.4746  -0.4741  -0.4537  -0.4534  -0.4407  -0.4405  -0.4384  -0.4382
    -0.3965  -0.3946  -0.3940  -0.3874  -0.3865  -0.3791  -0.3790  -0.3749
    -0.3652  -0.3591  -0.3583  -0.3266  -0.3261  -0.3182  -0.3046  -0.3041
    -0.2509  -0.2506  -0.2226  -0.2224  -0.2137  -0.2134  -0.1803  -0.1702
    -0.1698  -0.1524  -0.1511  -0.1500  -0.0716  -0.0707   0.0402   0.4415
     0.4419   0.4672   0.4676   0.5297   0.5306   0.8803   0.8808   0.8938
     0.8940   1.0647   1.1312   1.2210   1.2242   1.4809   1.4854   2.0668
     2.0669   2.1977   2.1979   2.4077   2.4082   2.4779   2.4785   2.5664
     2.8440   2.8565   3.0229   3.2373   3.2405   3.2718   3.2731   3.3371
     3.4353   3.5990   3.6090   3.6438   3.8855   3.8867   3.9600   3.9608
     4.2046   4.2055   4.2353   4.4257   4.4267   4.4877   4.5713   4.8627
     4.8989   4.9012   5.0912   5.1807   5.1811   5.2932   5.3052   5.6579
     5.9106   5.9742   5.9777   6.0520   6.0526   6.1280   6.1728   6.1940
     6.2056   6.2075   6.2188   6.2766   6.2768   6.2821   6.2902   6.3531
     6.4316   6.6886   6.8612   6.8793   6.9192   6.9266   6.9293   7.0615
     7.1227   7.1548   7.1591

          k = 0.2500-0.4330-0.1111 (136853 PWs)   bands (ev):

   -18.5130  -6.3783  -6.3261  -5.9793  -5.9765  -5.3010  -4.9544  -4.9534
    -4.9276  -4.9249  -4.5067  -4.5053  -4.4242  -4.3842  -4.3803  -4.3799
    -4.3375  -4.2224  -4.2215  -4.1770  -4.1308  -4.1306  -4.1275  -4.1269
    -4.0794  -4.0791  -4.0517  -4.0484  -4.0295  -4.0100  -4.0085  -3.9331
    -3.9315  -3.9138  -3.9133  -3.8702  -3.8699  -3.8688  -3.8484  -3.8480
    -3.8452  -3.7707  -3.7702  -3.7098  -3.7078  -3.6913  -3.6912  -3.6297
    -3.6291  -3.6011  -3.6010  -3.5632  -3.5477  -3.5476  -3.5284  -3.5282
    -3.5253  -3.5246  -3.5194  -3.4990  -3.4382  -3.4320  -3.4316  -3.4108
    -3.3777  -3.3496  -3.3487  -3.2941  -3.2932  -3.2684  -3.2676  -3.2410
    -3.2143  -3.1772  -3.1770  -3.1409  -3.1399  -3.1029  -3.0987  -3.0985
    -3.0580  -3.0261  -3.0255  -3.0036  -3.0034  -3.0000  -2.9987  -2.9964
    -2.9961  -2.9893  -2.9346  -2.8766  -2.8752  -2.8744  -2.8738  -2.8700
    -2.8482  -2.8472  -2.8315  -2.7550  -2.7534  -2.7527  -2.7451  -2.6975
    -2.6926  -2.6911  -2.6707  -2.6701  -2.6192  -2.6010  -2.6007  -2.5968
    -2.5570  -2.5563  -2.5558  -2.5238  -2.5143  -2.5136  -2.4617  -2.4355
    -2.4353  -2.4323  -2.4319  -2.4098  -2.4091  -2.4046  -2.3968  -2.3959
    -2.3621  -2.3294  -2.3254  -2.3191  -2.3186  -2.3163  -2.3152  -2.3147
    -2.3144  -2.2961  -2.2814  -2.2807  -2.2792  -2.2768  -2.2764  -2.2646
    -2.2594  -2.2592  -2.2328  -2.2293  -2.2287  -2.2062  -2.2038  -2.1870
    -2.1868  -2.1610  -2.1599  -2.1595  -2.1589  -2.1521  -2.1511  -2.1510
    -2.1507  -2.1370  -2.1361  -2.1211  -2.1158  -2.1153  -2.0346  -2.0335
    -2.0198  -2.0184  -2.0001  -1.9998  -1.9784  -1.9666  -1.9659  -1.9468
    -1.9290  -1.9283  -1.9197  -1.9180  -1.8925  -1.8921  -1.8888  -1.8879
    -1.8821  -1.8710  -1.8422  -1.8127  -1.7941  -1.7936  -1.7728  -1.7682
    -1.7676  -1.7090  -1.7071  -1.6954  -1.6950  -1.6261  -1.6247  -1.5855
    -1.5666  -1.5662  -1.5331  -1.5323  -1.5057  -1.5051  -1.4859  -1.4850
    -1.4838  -1.4828  -1.4682  -1.4257  -1.4256  -1.4253  -1.4246  -1.4177
    -1.4166  -1.3891  -1.3860  -1.3860  -1.3514  -1.3407  -1.3393  -1.3348
    -1.3342  -1.3276  -1.3112  -1.2842  -1.2832  -1.2779  -1.2772  -1.2591
    -1.2586  -1.2123  -1.1998  -1.1982  -1.1979  -1.1744  -1.1742  -1.1300
    -1.0944  -1.0440  -1.0438  -1.0434  -1.0432  -1.0370  -1.0358  -1.0351
    -1.0225  -1.0213  -0.9719  -0.9711  -0.9548  -0.9546  -0.9379  -0.9263
    -0.9256  -0.9128  -0.9104  -0.9103  -0.9088  -0.9086  -0.8663  -0.8649
    -0.8523  -0.8520  -0.8513  -0.8369  -0.8365  -0.8064  -0.7967  -0.7955
    -0.7686  -0.7484  -0.7478  -0.7068  -0.7033  -0.6912  -0.6904  -0.6821
    -0.6817  -0.6747  -0.6742  -0.6703  -0.6700  -0.6413  -0.6407  -0.6309
    -0.6306  -0.6193  -0.6056  -0.6052  -0.5882  -0.5880  -0.5634  -0.5543
    -0.5537  -0.5406  -0.4891  -0.4875  -0.4870  -0.4849  -0.4829  -0.4758
    -0.4746  -0.4741  -0.4537  -0.4534  -0.4407  -0.4406  -0.4384  -0.4382
    -0.3965  -0.3946  -0.3940  -0.3874  -0.3865  -0.3791  -0.3790  -0.3749
    -0.3652  -0.3591  -0.3583  -0.3266  -0.3261  -0.3182  -0.3046  -0.3041
    -0.2509  -0.2506  -0.2226  -0.2224  -0.2137  -0.2134  -0.1803  -0.1702
    -0.1698  -0.1524  -0.1511  -0.1500  -0.0716  -0.0707   0.0402   0.4415
     0.4419   0.4672   0.4676   0.5297   0.5306   0.8803   0.8808   0.8938
     0.8940   1.0647   1.1312   1.2210   1.2242   1.4809   1.4854   2.0668
     2.0669   2.1977   2.1979   2.4077   2.4082   2.4779   2.4785   2.5664
     2.8440   2.8565   3.0229   3.2373   3.2405   3.2718   3.2731   3.3371
     3.4353   3.5990   3.6090   3.6438   3.8855   3.8867   3.9600   3.9608
     4.2046   4.2055   4.2353   4.4257   4.4267   4.4877   4.5713   4.8627
     4.8989   4.9012   5.0912   5.1807   5.1811   5.2932   5.3052   5.6580
     5.9106   5.9742   5.9777   6.0520   6.0526   6.1280   6.1705   6.1940
     6.2056   6.2075   6.2187   6.2766   6.2768   6.2823   6.2902   6.3546
     6.4323   6.7110   6.8408   6.8615   6.9150   6.9264   6.9295   7.0616
     7.1314   7.1579   7.1713

          k = 0.5000 0.0000 0.1111 (136853 PWs)   bands (ev):

   -18.5130  -6.3783  -6.3261  -5.9794  -5.9765  -5.3010  -4.9547  -4.9530
    -4.9276  -4.9249  -4.5068  -4.5052  -4.4242  -4.3842  -4.3803  -4.3799
    -4.3375  -4.2223  -4.2216  -4.1770  -4.1308  -4.1307  -4.1278  -4.1266
    -4.0796  -4.0790  -4.0516  -4.0485  -4.0295  -4.0101  -4.0084  -3.9332
    -3.9313  -3.9138  -3.9133  -3.8699  -3.8698  -3.8692  -3.8484  -3.8481
    -3.8452  -3.7706  -3.7702  -3.7098  -3.7078  -3.6914  -3.6912  -3.6296
    -3.6291  -3.6011  -3.6010  -3.5632  -3.5477  -3.5475  -3.5286  -3.5281
    -3.5255  -3.5243  -3.5195  -3.4990  -3.4382  -3.4319  -3.4317  -3.4108
    -3.3777  -3.3495  -3.3487  -3.2940  -3.2933  -3.2684  -3.2677  -3.2410
    -3.2143  -3.1774  -3.1768  -3.1407  -3.1401  -3.1029  -3.0987  -3.0985
    -3.0580  -3.0264  -3.0251  -3.0034  -3.0033  -2.9999  -2.9988  -2.9965
    -2.9962  -2.9893  -2.9346  -2.8765  -2.8754  -2.8744  -2.8739  -2.8700
    -2.8478  -2.8477  -2.8315  -2.7549  -2.7536  -2.7526  -2.7452  -2.6975
    -2.6926  -2.6911  -2.6704  -2.6703  -2.6192  -2.6011  -2.6006  -2.5968
    -2.5570  -2.5562  -2.5560  -2.5238  -2.5143  -2.5136  -2.4617  -2.4356
    -2.4353  -2.4323  -2.4320  -2.4097  -2.4092  -2.4045  -2.3967  -2.3959
    -2.3621  -2.3294  -2.3254  -2.3192  -2.3184  -2.3163  -2.3151  -2.3146
    -2.3145  -2.2961  -2.2814  -2.2804  -2.2794  -2.2768  -2.2764  -2.2648
    -2.2598  -2.2589  -2.2327  -2.2291  -2.2288  -2.2062  -2.2039  -2.1870
    -2.1868  -2.1604  -2.1601  -2.1600  -2.1587  -2.1518  -2.1514  -2.1511
    -2.1506  -2.1367  -2.1364  -2.1211  -2.1159  -2.1153  -2.0349  -2.0332
    -2.0200  -2.0184  -2.0002  -1.9998  -1.9785  -1.9664  -1.9660  -1.9468
    -1.9289  -1.9284  -1.9196  -1.9182  -1.8924  -1.8920  -1.8888  -1.8878
    -1.8822  -1.8711  -1.8422  -1.8127  -1.7944  -1.7932  -1.7728  -1.7682
    -1.7676  -1.7090  -1.7072  -1.6954  -1.6950  -1.6260  -1.6248  -1.5855
    -1.5666  -1.5662  -1.5330  -1.5324  -1.5056  -1.5053  -1.4857  -1.4853
    -1.4834  -1.4832  -1.4682  -1.4260  -1.4254  -1.4252  -1.4247  -1.4175
    -1.4169  -1.3890  -1.3863  -1.3857  -1.3514  -1.3400  -1.3399  -1.3348
    -1.3342  -1.3276  -1.3112  -1.2842  -1.2833  -1.2779  -1.2772  -1.2594
    -1.2584  -1.2123  -1.1992  -1.1988  -1.1979  -1.1745  -1.1740  -1.1300
    -1.0944  -1.0439  -1.0437  -1.0435  -1.0434  -1.0369  -1.0357  -1.0353
    -1.0223  -1.0216  -0.9718  -0.9712  -0.9548  -0.9546  -0.9378  -0.9263
    -0.9256  -0.9128  -0.9107  -0.9100  -0.9090  -0.9085  -0.8663  -0.8649
    -0.8523  -0.8519  -0.8514  -0.8369  -0.8366  -0.8064  -0.7964  -0.7958
    -0.7685  -0.7486  -0.7476  -0.7068  -0.7033  -0.6912  -0.6904  -0.6823
    -0.6816  -0.6749  -0.6741  -0.6703  -0.6700  -0.6413  -0.6406  -0.6310
    -0.6305  -0.6193  -0.6056  -0.6052  -0.5884  -0.5879  -0.5634  -0.5542
    -0.5538  -0.5407  -0.4891  -0.4874  -0.4872  -0.4845  -0.4829  -0.4758
    -0.4747  -0.4743  -0.4537  -0.4533  -0.4407  -0.4406  -0.4383  -0.4382
    -0.3965  -0.3944  -0.3942  -0.3870  -0.3868  -0.3791  -0.3790  -0.3750
    -0.3652  -0.3589  -0.3585  -0.3265  -0.3262  -0.3182  -0.3044  -0.3042
    -0.2510  -0.2505  -0.2226  -0.2224  -0.2137  -0.2135  -0.1803  -0.1701
    -0.1699  -0.1519  -0.1511  -0.1505  -0.0718  -0.0706   0.0402   0.4414
     0.4420   0.4673   0.4675   0.5296   0.5307   0.8802   0.8809   0.8934
     0.8944   1.0647   1.1312   1.2216   1.2235   1.4811   1.4852   2.0663
     2.0674   2.1971   2.1986   2.4072   2.4087   2.4775   2.4789   2.5664
     2.8440   2.8565   3.0230   3.2377   3.2402   3.2716   3.2733   3.3371
     3.4353   3.5991   3.6089   3.6438   3.8857   3.8865   3.9595   3.9612
     4.2043   4.2059   4.2353   4.4255   4.4268   4.4876   4.5713   4.8627
     4.8997   4.9004   5.0910   5.1805   5.1813   5.2918   5.3060   5.6626
     5.9106   5.9752   5.9766   6.0519   6.0527   6.1280   6.1632   6.1941
     6.2061   6.2070   6.2178   6.2757   6.2765   6.2816   6.2908   6.3716
     6.4135   6.6700   6.8613   6.9087   6.9238   6.9285   6.9319   7.0617
     7.1206   7.1549   7.1639

          k =-0.5000 0.0000 0.1111 (136853 PWs)   bands (ev):

   -18.5130  -6.3783  -6.3261  -5.9794  -5.9765  -5.3010  -4.9547  -4.9530
    -4.9276  -4.9249  -4.5068  -4.5052  -4.4242  -4.3842  -4.3803  -4.3799
    -4.3375  -4.2223  -4.2216  -4.1770  -4.1308  -4.1307  -4.1278  -4.1266
    -4.0796  -4.0790  -4.0516  -4.0485  -4.0295  -4.0101  -4.0084  -3.9332
    -3.9313  -3.9138  -3.9133  -3.8699  -3.8698  -3.8692  -3.8484  -3.8481
    -3.8452  -3.7706  -3.7702  -3.7098  -3.7078  -3.6914  -3.6912  -3.6296
    -3.6291  -3.6011  -3.6010  -3.5632  -3.5477  -3.5475  -3.5286  -3.5281
    -3.5255  -3.5243  -3.5195  -3.4990  -3.4382  -3.4319  -3.4317  -3.4108
    -3.3777  -3.3495  -3.3487  -3.2940  -3.2933  -3.2684  -3.2677  -3.2410
    -3.2143  -3.1774  -3.1768  -3.1407  -3.1401  -3.1029  -3.0987  -3.0985
    -3.0580  -3.0264  -3.0251  -3.0034  -3.0033  -2.9999  -2.9988  -2.9965
    -2.9962  -2.9893  -2.9346  -2.8765  -2.8754  -2.8744  -2.8739  -2.8700
    -2.8478  -2.8477  -2.8315  -2.7549  -2.7536  -2.7526  -2.7452  -2.6975
    -2.6926  -2.6911  -2.6704  -2.6703  -2.6192  -2.6011  -2.6006  -2.5968
    -2.5570  -2.5562  -2.5560  -2.5238  -2.5143  -2.5136  -2.4617  -2.4356
    -2.4353  -2.4323  -2.4320  -2.4097  -2.4092  -2.4045  -2.3967  -2.3959
    -2.3621  -2.3294  -2.3254  -2.3192  -2.3184  -2.3163  -2.3151  -2.3146
    -2.3145  -2.2961  -2.2814  -2.2804  -2.2794  -2.2768  -2.2764  -2.2648
    -2.2598  -2.2589  -2.2327  -2.2291  -2.2288  -2.2062  -2.2039  -2.1870
    -2.1868  -2.1604  -2.1601  -2.1600  -2.1587  -2.1518  -2.1514  -2.1511
    -2.1506  -2.1367  -2.1364  -2.1211  -2.1159  -2.1153  -2.0349  -2.0332
    -2.0200  -2.0184  -2.0002  -1.9998  -1.9785  -1.9664  -1.9660  -1.9468
    -1.9289  -1.9284  -1.9196  -1.9182  -1.8924  -1.8920  -1.8888  -1.8878
    -1.8822  -1.8711  -1.8422  -1.8127  -1.7944  -1.7932  -1.7728  -1.7682
    -1.7676  -1.7090  -1.7072  -1.6954  -1.6950  -1.6260  -1.6248  -1.5855
    -1.5666  -1.5662  -1.5330  -1.5324  -1.5056  -1.5053  -1.4857  -1.4853
    -1.4834  -1.4832  -1.4682  -1.4260  -1.4254  -1.4252  -1.4247  -1.4175
    -1.4169  -1.3890  -1.3863  -1.3857  -1.3514  -1.3400  -1.3399  -1.3348
    -1.3342  -1.3276  -1.3112  -1.2842  -1.2833  -1.2779  -1.2772  -1.2594
    -1.2584  -1.2123  -1.1992  -1.1988  -1.1979  -1.1745  -1.1740  -1.1300
    -1.0944  -1.0439  -1.0437  -1.0435  -1.0434  -1.0369  -1.0357  -1.0353
    -1.0223  -1.0216  -0.9718  -0.9712  -0.9548  -0.9546  -0.9378  -0.9263
    -0.9256  -0.9128  -0.9107  -0.9100  -0.9090  -0.9085  -0.8663  -0.8649
    -0.8523  -0.8519  -0.8514  -0.8369  -0.8366  -0.8064  -0.7964  -0.7958
    -0.7685  -0.7486  -0.7476  -0.7068  -0.7033  -0.6912  -0.6904  -0.6823
    -0.6816  -0.6749  -0.6741  -0.6703  -0.6700  -0.6413  -0.6406  -0.6310
    -0.6305  -0.6193  -0.6056  -0.6052  -0.5884  -0.5879  -0.5634  -0.5542
    -0.5538  -0.5407  -0.4891  -0.4874  -0.4872  -0.4845  -0.4829  -0.4758
    -0.4747  -0.4743  -0.4537  -0.4533  -0.4407  -0.4406  -0.4383  -0.4382
    -0.3965  -0.3944  -0.3942  -0.3870  -0.3868  -0.3791  -0.3790  -0.3750
    -0.3652  -0.3589  -0.3585  -0.3265  -0.3262  -0.3182  -0.3044  -0.3042
    -0.2510  -0.2505  -0.2226  -0.2224  -0.2137  -0.2135  -0.1803  -0.1701
    -0.1699  -0.1519  -0.1511  -0.1505  -0.0718  -0.0706   0.0402   0.4414
     0.4420   0.4673   0.4675   0.5296   0.5307   0.8802   0.8809   0.8934
     0.8944   1.0647   1.1312   1.2216   1.2235   1.4811   1.4852   2.0663
     2.0674   2.1971   2.1986   2.4072   2.4087   2.4775   2.4789   2.5664
     2.8440   2.8565   3.0230   3.2377   3.2402   3.2716   3.2733   3.3371
     3.4353   3.5991   3.6089   3.6438   3.8857   3.8865   3.9595   3.9612
     4.2043   4.2059   4.2353   4.4255   4.4268   4.4876   4.5713   4.8627
     4.8997   4.9004   5.0910   5.1805   5.1813   5.2918   5.3060   5.6628
     5.9106   5.9752   5.9766   6.0519   6.0527   6.1280   6.1582   6.1941
     6.2061   6.2070   6.2177   6.2758   6.2765   6.2818   6.2908   6.3716
     6.4236   6.6929   6.8451   6.8614   6.9210   6.9286   6.9300   7.0617
     7.1192   7.1564   7.1581

          k =-0.2500 0.1443 0.1111 (136898 PWs)   bands (ev):

   -18.5130  -6.5882  -6.3261  -5.7936  -5.5050  -5.4397  -5.4396  -4.8828
    -4.8828  -4.7697  -4.7334  -4.5828  -4.5126  -4.4803  -4.4801  -4.4335
    -4.3629  -4.3629  -4.2259  -4.1834  -4.1834  -4.1622  -4.1616  -4.1607
    -4.0400  -4.0400  -3.9606  -3.9496  -3.9479  -3.9479  -3.9273  -3.9273
    -3.8617  -3.8056  -3.8056  -3.7931  -3.7828  -3.7827  -3.7713  -3.7712
    -3.7629  -3.7158  -3.7158  -3.7064  -3.7064  -3.6938  -3.6938  -3.6628
    -3.6590  -3.6590  -3.6231  -3.6231  -3.6047  -3.6045  -3.5847  -3.5427
    -3.5427  -3.4814  -3.4813  -3.4591  -3.4589  -3.4425  -3.3692  -3.3691
    -3.3603  -3.3602  -3.3432  -3.3432  -3.3197  -3.3197  -3.1682  -3.1681
    -3.1499  -3.1499  -3.1452  -3.1066  -3.1066  -3.1017  -3.1016  -3.0457
    -3.0456  -3.0267  -3.0266  -2.9884  -2.9645  -2.9644  -2.9421  -2.9341
    -2.9341  -2.8893  -2.8893  -2.8701  -2.8699  -2.8650  -2.8650  -2.8397
    -2.8396  -2.7949  -2.7949  -2.7889  -2.7888  -2.7740  -2.7250  -2.7249
    -2.7015  -2.6933  -2.6932  -2.6136  -2.6135  -2.5834  -2.5833  -2.5763
    -2.5675  -2.5457  -2.5238  -2.5182  -2.5182  -2.5008  -2.4977  -2.4934
    -2.4934  -2.4806  -2.4717  -2.4715  -2.4629  -2.4629  -2.4549  -2.4547
    -2.4032  -2.3774  -2.3582  -2.3539  -2.3539  -2.3378  -2.3377  -2.3346
    -2.3346  -2.3237  -2.2936  -2.2936  -2.2819  -2.2761  -2.2631  -2.2631
    -2.2608  -2.2350  -2.2350  -2.2246  -2.2165  -2.2164  -2.1598  -2.1484
    -2.1364  -2.1362  -2.1343  -2.1147  -2.1147  -2.1016  -2.0809  -2.0809
    -2.0756  -2.0755  -2.0644  -2.0521  -2.0520  -2.0387  -2.0228  -2.0226
    -1.9754  -1.9753  -1.9658  -1.9657  -1.9654  -1.9624  -1.9527  -1.9525
    -1.9496  -1.9496  -1.9368  -1.9317  -1.9315  -1.8170  -1.8168  -1.7877
    -1.7873  -1.7867  -1.7644  -1.7599  -1.7598  -1.7498  -1.7496  -1.7296
    -1.7295  -1.7288  -1.7228  -1.7225  -1.6863  -1.6862  -1.6851  -1.6554
    -1.6553  -1.6494  -1.6494  -1.6356  -1.6354  -1.5781  -1.5755  -1.5517
    -1.5516  -1.5429  -1.5369  -1.5146  -1.5145  -1.5091  -1.5090  -1.5055
    -1.5054  -1.4932  -1.4931  -1.4736  -1.4362  -1.4360  -1.4049  -1.4048
    -1.3946  -1.3575  -1.3573  -1.3237  -1.3236  -1.3132  -1.3129  -1.2990
    -1.2819  -1.2813  -1.2617  -1.2615  -1.2310  -1.2309  -1.2118  -1.2117
    -1.1781  -1.1780  -1.1663  -1.1120  -1.1117  -1.1075  -1.1074  -1.0876
    -1.0876  -1.0708  -1.0707  -1.0401  -1.0288  -1.0086  -1.0065  -1.0064
    -0.9753  -0.9553  -0.9550  -0.9546  -0.9449  -0.9447  -0.9395  -0.9395
    -0.9093  -0.9017  -0.9017  -0.8889  -0.8883  -0.8822  -0.8822  -0.8631
    -0.8465  -0.8461  -0.8176  -0.8173  -0.7348  -0.7165  -0.7162  -0.7160
    -0.7142  -0.7091  -0.7090  -0.7002  -0.6785  -0.6570  -0.6567  -0.6517
    -0.6516  -0.6332  -0.6181  -0.6179  -0.6137  -0.5986  -0.5185  -0.5185
    -0.4911  -0.4900  -0.4840  -0.4803  -0.4798  -0.4729  -0.4717  -0.4717
    -0.4653  -0.4651  -0.4476  -0.4155  -0.4031  -0.3837  -0.3835  -0.3748
    -0.3746  -0.3671  -0.3670  -0.3590  -0.3562  -0.3561  -0.3381  -0.3354
    -0.3353  -0.3036  -0.3036  -0.3028  -0.2856  -0.2856  -0.2628  -0.2367
    -0.2367  -0.2267  -0.2267  -0.1587  -0.1586  -0.1401  -0.1401  -0.0781
    -0.0757  -0.0749  -0.0749  -0.0473   0.1600   0.1609   0.5037   0.5038
     0.5788   0.5798   0.7299   0.7590   0.7801   0.9156   0.9159   1.2939
     1.3614   1.3614   1.5957   1.5957   1.6507   1.9611   1.9628   1.9950
     1.9950   2.0334   2.0343   2.1887   2.1887   2.3634   2.3635   2.3746
     2.5187   2.5202   2.5662   2.7759   3.1431   3.1432   3.1848   3.1849
     3.1921   3.1926   3.5194   3.5194   3.8541   3.8555   3.9256   4.1882
     4.3178   4.3186   4.5116   4.5195   4.6075   4.6076   4.6863   4.8476
     4.8478   4.9411   4.9414   5.2330   5.2953   5.2956   5.4668   5.4918
     5.6276   5.6352   5.6357   5.6391   5.6413   5.7851   5.7853   5.8484
     6.1101   6.3718   6.4531   6.4650   6.4651   6.4703   6.4710   6.6154
     6.6843   6.6853   6.7306   6.7808   6.9110   7.0337   7.0383   7.1635
     7.2846   7.3376   7.3617

          k =-0.2500-0.1443-0.1111 (136898 PWs)   bands (ev):

   -18.5130  -6.5882  -6.3261  -5.7936  -5.5050  -5.4396  -5.4396  -4.8828
    -4.8827  -4.7697  -4.7335  -4.5828  -4.5125  -4.4802  -4.4801  -4.4336
    -4.3630  -4.3628  -4.2258  -4.1836  -4.1833  -4.1622  -4.1616  -4.1607
    -4.0400  -4.0399  -3.9606  -3.9496  -3.9479  -3.9479  -3.9275  -3.9271
    -3.8617  -3.8058  -3.8055  -3.7930  -3.7829  -3.7827  -3.7713  -3.7713
    -3.7629  -3.7158  -3.7158  -3.7064  -3.7062  -3.6940  -3.6937  -3.6627
    -3.6590  -3.6589  -3.6233  -3.6230  -3.6046  -3.6045  -3.5849  -3.5428
    -3.5426  -3.4815  -3.4813  -3.4590  -3.4588  -3.4424  -3.3694  -3.3692
    -3.3602  -3.3601  -3.3435  -3.3431  -3.3198  -3.3197  -3.1682  -3.1681
    -3.1500  -3.1499  -3.1451  -3.1067  -3.1066  -3.1017  -3.1014  -3.0457
    -3.0457  -3.0267  -3.0266  -2.9883  -2.9645  -2.9642  -2.9421  -2.9342
    -2.9342  -2.8894  -2.8893  -2.8701  -2.8700  -2.8651  -2.8650  -2.8395
    -2.8394  -2.7949  -2.7948  -2.7888  -2.7887  -2.7739  -2.7250  -2.7249
    -2.7017  -2.6933  -2.6932  -2.6136  -2.6132  -2.5832  -2.5831  -2.5764
    -2.5674  -2.5458  -2.5238  -2.5184  -2.5180  -2.5008  -2.4977  -2.4936
    -2.4933  -2.4808  -2.4716  -2.4715  -2.4629  -2.4629  -2.4551  -2.4550
    -2.4033  -2.3773  -2.3582  -2.3540  -2.3539  -2.3379  -2.3378  -2.3346
    -2.3346  -2.3240  -2.2936  -2.2934  -2.2820  -2.2762  -2.2632  -2.2628
    -2.2606  -2.2349  -2.2348  -2.2249  -2.2167  -2.2163  -2.1600  -2.1485
    -2.1365  -2.1363  -2.1342  -2.1150  -2.1142  -2.1017  -2.0807  -2.0807
    -2.0755  -2.0754  -2.0643  -2.0522  -2.0521  -2.0388  -2.0227  -2.0227
    -1.9754  -1.9752  -1.9659  -1.9656  -1.9654  -1.9621  -1.9527  -1.9525
    -1.9501  -1.9494  -1.9368  -1.9318  -1.9317  -1.8170  -1.8169  -1.7874
    -1.7872  -1.7869  -1.7639  -1.7606  -1.7600  -1.7497  -1.7496  -1.7296
    -1.7294  -1.7288  -1.7226  -1.7225  -1.6862  -1.6859  -1.6851  -1.6556
    -1.6555  -1.6499  -1.6491  -1.6355  -1.6355  -1.5781  -1.5753  -1.5517
    -1.5515  -1.5426  -1.5369  -1.5147  -1.5147  -1.5092  -1.5090  -1.5059
    -1.5051  -1.4930  -1.4929  -1.4737  -1.4363  -1.4362  -1.4052  -1.4046
    -1.3950  -1.3573  -1.3572  -1.3237  -1.3233  -1.3134  -1.3128  -1.2990
    -1.2818  -1.2813  -1.2615  -1.2615  -1.2310  -1.2308  -1.2119  -1.2117
    -1.1780  -1.1780  -1.1663  -1.1119  -1.1118  -1.1077  -1.1076  -1.0878
    -1.0876  -1.0706  -1.0705  -1.0397  -1.0285  -1.0086  -1.0066  -1.0063
    -0.9750  -0.9556  -0.9550  -0.9547  -0.9450  -0.9449  -0.9397  -0.9396
    -0.9092  -0.9019  -0.9016  -0.8888  -0.8884  -0.8826  -0.8818  -0.8632
    -0.8467  -0.8465  -0.8174  -0.8173  -0.7346  -0.7165  -0.7162  -0.7160
    -0.7139  -0.7094  -0.7091  -0.7000  -0.6785  -0.6570  -0.6568  -0.6517
    -0.6516  -0.6334  -0.6179  -0.6178  -0.6139  -0.5987  -0.5186  -0.5184
    -0.4911  -0.4899  -0.4842  -0.4802  -0.4798  -0.4729  -0.4718  -0.4717
    -0.4654  -0.4650  -0.4476  -0.4156  -0.4030  -0.3836  -0.3836  -0.3748
    -0.3747  -0.3671  -0.3669  -0.3591  -0.3562  -0.3561  -0.3380  -0.3356
    -0.3354  -0.3035  -0.3035  -0.3027  -0.2856  -0.2855  -0.2629  -0.2367
    -0.2367  -0.2267  -0.2266  -0.1589  -0.1586  -0.1404  -0.1398  -0.0781
    -0.0758  -0.0751  -0.0748  -0.0473   0.1604   0.1607   0.5037   0.5038
     0.5792   0.5796   0.7298   0.7586   0.7803   0.9157   0.9158   1.2941
     1.3613   1.3615   1.5957   1.5958   1.6508   1.9616   1.9622   1.9948
     1.9950   2.0337   2.0340   2.1884   2.1887   2.3635   2.3635   2.3747
     2.5191   2.5197   2.5660   2.7760   3.1429   3.1435   3.1848   3.1850
     3.1923   3.1925   3.5191   3.5197   3.8545   3.8551   3.9256   4.1882
     4.3178   4.3182   4.5130   4.5181   4.6071   4.6082   4.6863   4.8473
     4.8480   4.9414   4.9417   5.2330   5.2947   5.2960   5.4691   5.4902
     5.6256   5.6352   5.6357   5.6390   5.6401   5.7852   5.7856   5.8497
     6.1165   6.3713   6.4355   6.4650   6.4652   6.4706   6.4710   6.6107
     6.6845   6.6850   6.7553   6.7789   6.9315   7.0328   7.0372   7.1386
     7.2694   7.3252   7.3552

          k = 0.2500 0.1443-0.1111 (136898 PWs)   bands (ev):

   -18.5130  -6.5882  -6.3261  -5.7936  -5.5050  -5.4396  -5.4396  -4.8828
    -4.8827  -4.7697  -4.7335  -4.5828  -4.5125  -4.4802  -4.4801  -4.4336
    -4.3630  -4.3628  -4.2258  -4.1836  -4.1833  -4.1622  -4.1616  -4.1607
    -4.0400  -4.0399  -3.9606  -3.9496  -3.9479  -3.9479  -3.9275  -3.9271
    -3.8617  -3.8058  -3.8055  -3.7930  -3.7829  -3.7827  -3.7713  -3.7713
    -3.7629  -3.7158  -3.7158  -3.7064  -3.7062  -3.6940  -3.6937  -3.6627
    -3.6590  -3.6589  -3.6233  -3.6230  -3.6046  -3.6045  -3.5849  -3.5428
    -3.5426  -3.4815  -3.4813  -3.4590  -3.4588  -3.4424  -3.3694  -3.3692
    -3.3602  -3.3601  -3.3435  -3.3431  -3.3198  -3.3197  -3.1682  -3.1681
    -3.1500  -3.1499  -3.1452  -3.1067  -3.1066  -3.1017  -3.1014  -3.0457
    -3.0457  -3.0267  -3.0266  -2.9883  -2.9645  -2.9642  -2.9421  -2.9343
    -2.9342  -2.8894  -2.8893  -2.8701  -2.8700  -2.8651  -2.8650  -2.8395
    -2.8394  -2.7949  -2.7948  -2.7888  -2.7887  -2.7739  -2.7250  -2.7249
    -2.7017  -2.6933  -2.6932  -2.6136  -2.6132  -2.5832  -2.5831  -2.5764
    -2.5674  -2.5458  -2.5238  -2.5184  -2.5180  -2.5008  -2.4977  -2.4936
    -2.4933  -2.4808  -2.4716  -2.4715  -2.4629  -2.4629  -2.4551  -2.4550
    -2.4033  -2.3773  -2.3582  -2.3540  -2.3539  -2.3379  -2.3378  -2.3346
    -2.3345  -2.3240  -2.2936  -2.2934  -2.2820  -2.2762  -2.2632  -2.2628
    -2.2606  -2.2349  -2.2348  -2.2249  -2.2167  -2.2163  -2.1600  -2.1485
    -2.1365  -2.1363  -2.1342  -2.1150  -2.1142  -2.1017  -2.0807  -2.0807
    -2.0755  -2.0754  -2.0643  -2.0522  -2.0521  -2.0388  -2.0227  -2.0227
    -1.9754  -1.9752  -1.9659  -1.9656  -1.9654  -1.9621  -1.9527  -1.9525
    -1.9501  -1.9494  -1.9368  -1.9318  -1.9317  -1.8170  -1.8169  -1.7874
    -1.7872  -1.7869  -1.7639  -1.7606  -1.7600  -1.7497  -1.7496  -1.7296
    -1.7294  -1.7288  -1.7226  -1.7225  -1.6862  -1.6859  -1.6851  -1.6556
    -1.6555  -1.6499  -1.6491  -1.6355  -1.6355  -1.5781  -1.5753  -1.5517
    -1.5515  -1.5426  -1.5369  -1.5147  -1.5147  -1.5092  -1.5090  -1.5058
    -1.5051  -1.4930  -1.4930  -1.4737  -1.4363  -1.4362  -1.4052  -1.4046
    -1.3950  -1.3573  -1.3572  -1.3237  -1.3233  -1.3134  -1.3128  -1.2990
    -1.2818  -1.2813  -1.2615  -1.2615  -1.2310  -1.2308  -1.2119  -1.2117
    -1.1780  -1.1780  -1.1663  -1.1119  -1.1118  -1.1077  -1.1076  -1.0878
    -1.0876  -1.0706  -1.0705  -1.0397  -1.0285  -1.0086  -1.0066  -1.0063
    -0.9750  -0.9556  -0.9550  -0.9547  -0.9450  -0.9449  -0.9397  -0.9396
    -0.9092  -0.9019  -0.9016  -0.8888  -0.8884  -0.8826  -0.8818  -0.8632
    -0.8467  -0.8464  -0.8174  -0.8173  -0.7346  -0.7165  -0.7162  -0.7160
    -0.7139  -0.7094  -0.7091  -0.7000  -0.6785  -0.6570  -0.6568  -0.6517
    -0.6516  -0.6334  -0.6179  -0.6178  -0.6140  -0.5987  -0.5186  -0.5184
    -0.4911  -0.4899  -0.4842  -0.4802  -0.4798  -0.4729  -0.4718  -0.4716
    -0.4654  -0.4650  -0.4476  -0.4156  -0.4030  -0.3836  -0.3836  -0.3748
    -0.3747  -0.3671  -0.3669  -0.3590  -0.3562  -0.3561  -0.3380  -0.3356
    -0.3354  -0.3035  -0.3035  -0.3027  -0.2856  -0.2855  -0.2629  -0.2367
    -0.2367  -0.2267  -0.2266  -0.1589  -0.1586  -0.1404  -0.1398  -0.0781
    -0.0758  -0.0751  -0.0748  -0.0473   0.1604   0.1607   0.5037   0.5038
     0.5792   0.5796   0.7298   0.7586   0.7803   0.9157   0.9158   1.2941
     1.3613   1.3615   1.5957   1.5958   1.6508   1.9616   1.9622   1.9948
     1.9950   2.0337   2.0340   2.1884   2.1887   2.3635   2.3635   2.3747
     2.5191   2.5197   2.5660   2.7760   3.1429   3.1435   3.1848   3.1850
     3.1923   3.1925   3.5191   3.5197   3.8545   3.8551   3.9256   4.1882
     4.3178   4.3182   4.5130   4.5181   4.6071   4.6082   4.6863   4.8473
     4.8480   4.9414   4.9417   5.2330   5.2947   5.2960   5.4691   5.4902
     5.6258   5.6352   5.6357   5.6390   5.6402   5.7852   5.7856   5.8498
     6.1107   6.3713   6.4592   6.4651   6.4654   6.4706   6.4710   6.6137
     6.6845   6.6850   6.7313   6.7700   6.9055   7.0353   7.0372   7.1667
     7.2919   7.3252   7.3744

          k = 0.0000-0.2887 0.1111 (136898 PWs)   bands (ev):

   -18.5130  -6.5882  -6.3261  -5.7937  -5.5050  -5.4397  -5.4396  -4.8828
    -4.8827  -4.7697  -4.7335  -4.5828  -4.5125  -4.4803  -4.4801  -4.4336
    -4.3629  -4.3628  -4.2258  -4.1835  -4.1834  -4.1621  -4.1616  -4.1608
    -4.0400  -4.0399  -3.9606  -3.9496  -3.9479  -3.9479  -3.9274  -3.9272
    -3.8617  -3.8057  -3.8056  -3.7931  -3.7829  -3.7827  -3.7713  -3.7713
    -3.7629  -3.7158  -3.7158  -3.7064  -3.7062  -3.6940  -3.6937  -3.6626
    -3.6590  -3.6589  -3.6233  -3.6230  -3.6047  -3.6045  -3.5849  -3.5427
    -3.5426  -3.4815  -3.4813  -3.4590  -3.4588  -3.4424  -3.3694  -3.3692
    -3.3602  -3.3601  -3.3434  -3.3432  -3.3198  -3.3197  -3.1682  -3.1681
    -3.1501  -3.1498  -3.1452  -3.1067  -3.1066  -3.1018  -3.1014  -3.0457
    -3.0457  -3.0267  -3.0266  -2.9882  -2.9646  -2.9641  -2.9421  -2.9342
    -2.9342  -2.8894  -2.8893  -2.8702  -2.8700  -2.8651  -2.8650  -2.8395
    -2.8395  -2.7950  -2.7947  -2.7888  -2.7887  -2.7739  -2.7250  -2.7249
    -2.7017  -2.6933  -2.6932  -2.6137  -2.6132  -2.5832  -2.5831  -2.5764
    -2.5674  -2.5458  -2.5238  -2.5182  -2.5181  -2.5007  -2.4977  -2.4936
    -2.4933  -2.4808  -2.4717  -2.4715  -2.4629  -2.4628  -2.4551  -2.4549
    -2.4033  -2.3773  -2.3582  -2.3540  -2.3539  -2.3379  -2.3378  -2.3346
    -2.3346  -2.3239  -2.2937  -2.2933  -2.2821  -2.2762  -2.2631  -2.2629
    -2.2606  -2.2349  -2.2348  -2.2249  -2.2167  -2.2163  -2.1600  -2.1486
    -2.1364  -2.1363  -2.1342  -2.1148  -2.1144  -2.1017  -2.0808  -2.0807
    -2.0755  -2.0754  -2.0643  -2.0521  -2.0521  -2.0388  -2.0228  -2.0226
    -1.9754  -1.9751  -1.9659  -1.9656  -1.9654  -1.9621  -1.9527  -1.9525
    -1.9499  -1.9495  -1.9368  -1.9318  -1.9317  -1.8170  -1.8168  -1.7876
    -1.7872  -1.7867  -1.7640  -1.7605  -1.7600  -1.7497  -1.7496  -1.7294
    -1.7294  -1.7289  -1.7227  -1.7224  -1.6862  -1.6860  -1.6851  -1.6556
    -1.6555  -1.6498  -1.6492  -1.6356  -1.6354  -1.5781  -1.5753  -1.5517
    -1.5515  -1.5427  -1.5369  -1.5147  -1.5146  -1.5092  -1.5090  -1.5058
    -1.5052  -1.4930  -1.4930  -1.4737  -1.4363  -1.4361  -1.4051  -1.4047
    -1.3950  -1.3574  -1.3572  -1.3237  -1.3234  -1.3134  -1.3127  -1.2990
    -1.2818  -1.2813  -1.2616  -1.2614  -1.2310  -1.2308  -1.2119  -1.2117
    -1.1780  -1.1780  -1.1663  -1.1120  -1.1118  -1.1077  -1.1076  -1.0880
    -1.0874  -1.0706  -1.0706  -1.0397  -1.0286  -1.0086  -1.0067  -1.0062
    -0.9750  -0.9554  -0.9550  -0.9548  -0.9450  -0.9449  -0.9397  -0.9396
    -0.9092  -0.9018  -0.9016  -0.8888  -0.8883  -0.8824  -0.8821  -0.8632
    -0.8467  -0.8463  -0.8175  -0.8172  -0.7347  -0.7166  -0.7162  -0.7159
    -0.7139  -0.7094  -0.7090  -0.7000  -0.6785  -0.6571  -0.6568  -0.6517
    -0.6516  -0.6334  -0.6179  -0.6178  -0.6139  -0.5987  -0.5185  -0.5184
    -0.4909  -0.4900  -0.4841  -0.4803  -0.4800  -0.4729  -0.4717  -0.4717
    -0.4654  -0.4649  -0.4477  -0.4156  -0.4030  -0.3837  -0.3836  -0.3748
    -0.3747  -0.3671  -0.3669  -0.3590  -0.3562  -0.3561  -0.3380  -0.3356
    -0.3354  -0.3035  -0.3035  -0.3027  -0.2856  -0.2855  -0.2629  -0.2367
    -0.2367  -0.2267  -0.2266  -0.1588  -0.1587  -0.1404  -0.1398  -0.0781
    -0.0759  -0.0750  -0.0748  -0.0473   0.1602   0.1609   0.5037   0.5038
     0.5790   0.5797   0.7298   0.7587   0.7802   0.9157   0.9158   1.2941
     1.3614   1.3614   1.5957   1.5958   1.6507   1.9614   1.9625   1.9948
     1.9951   2.0335   2.0341   2.1884   2.1888   2.3635   2.3635   2.3747
     2.5189   2.5199   2.5660   2.7760   3.1431   3.1433   3.1848   3.1850
     3.1922   3.1926   3.5194   3.5194   3.8544   3.8553   3.9255   4.1883
     4.3177   4.3183   4.5129   4.5184   4.6075   4.6078   4.6863   4.8474
     4.8479   4.9414   4.9417   5.2329   5.2953   5.2957   5.4697   5.4901
     5.6219   5.6352   5.6357   5.6390   5.6399   5.7848   5.7859   5.8507
     6.1149   6.3713   6.4642   6.4649   6.4687   6.4710   6.4719   6.6110
     6.6844   6.6852   6.7223   6.7691   6.9377   7.0329   7.0383   7.1849
     7.2136   7.3367   7.3625

          k = 0.0000 0.2887 0.1111 (136898 PWs)   bands (ev):

   -18.5130  -6.5882  -6.3261  -5.7937  -5.5050  -5.4396  -5.4396  -4.8828
    -4.8827  -4.7697  -4.7335  -4.5828  -4.5125  -4.4803  -4.4801  -4.4336
    -4.3629  -4.3628  -4.2258  -4.1835  -4.1834  -4.1621  -4.1616  -4.1608
    -4.0400  -4.0399  -3.9606  -3.9496  -3.9479  -3.9479  -3.9274  -3.9272
    -3.8617  -3.8057  -3.8056  -3.7931  -3.7829  -3.7827  -3.7713  -3.7712
    -3.7629  -3.7158  -3.7158  -3.7064  -3.7062  -3.6940  -3.6937  -3.6626
    -3.6590  -3.6589  -3.6233  -3.6230  -3.6047  -3.6045  -3.5849  -3.5427
    -3.5426  -3.4815  -3.4813  -3.4590  -3.4588  -3.4424  -3.3694  -3.3692
    -3.3602  -3.3601  -3.3434  -3.3432  -3.3198  -3.3197  -3.1682  -3.1681
    -3.1501  -3.1498  -3.1452  -3.1067  -3.1066  -3.1018  -3.1014  -3.0457
    -3.0457  -3.0267  -3.0266  -2.9882  -2.9646  -2.9641  -2.9421  -2.9342
    -2.9342  -2.8894  -2.8893  -2.8702  -2.8700  -2.8651  -2.8650  -2.8396
    -2.8395  -2.7950  -2.7947  -2.7888  -2.7887  -2.7739  -2.7250  -2.7249
    -2.7017  -2.6933  -2.6932  -2.6137  -2.6132  -2.5832  -2.5831  -2.5764
    -2.5674  -2.5458  -2.5238  -2.5182  -2.5181  -2.5007  -2.4977  -2.4936
    -2.4933  -2.4808  -2.4717  -2.4715  -2.4629  -2.4628  -2.4551  -2.4549
    -2.4033  -2.3773  -2.3582  -2.3540  -2.3539  -2.3379  -2.3378  -2.3346
    -2.3346  -2.3239  -2.2937  -2.2933  -2.2821  -2.2762  -2.2631  -2.2629
    -2.2606  -2.2349  -2.2348  -2.2249  -2.2167  -2.2163  -2.1599  -2.1486
    -2.1364  -2.1363  -2.1342  -2.1148  -2.1144  -2.1017  -2.0808  -2.0807
    -2.0755  -2.0754  -2.0643  -2.0521  -2.0521  -2.0388  -2.0228  -2.0226
    -1.9754  -1.9751  -1.9659  -1.9656  -1.9654  -1.9621  -1.9527  -1.9526
    -1.9499  -1.9495  -1.9368  -1.9318  -1.9317  -1.8170  -1.8168  -1.7876
    -1.7872  -1.7867  -1.7640  -1.7605  -1.7600  -1.7497  -1.7496  -1.7294
    -1.7294  -1.7289  -1.7227  -1.7224  -1.6862  -1.6860  -1.6851  -1.6556
    -1.6555  -1.6498  -1.6492  -1.6356  -1.6354  -1.5781  -1.5753  -1.5517
    -1.5515  -1.5427  -1.5369  -1.5147  -1.5146  -1.5092  -1.5090  -1.5058
    -1.5052  -1.4930  -1.4930  -1.4737  -1.4363  -1.4361  -1.4051  -1.4047
    -1.3950  -1.3574  -1.3572  -1.3237  -1.3234  -1.3134  -1.3127  -1.2990
    -1.2818  -1.2813  -1.2616  -1.2614  -1.2310  -1.2308  -1.2119  -1.2117
    -1.1780  -1.1780  -1.1663  -1.1120  -1.1117  -1.1077  -1.1076  -1.0880
    -1.0874  -1.0706  -1.0706  -1.0397  -1.0286  -1.0086  -1.0067  -1.0062
    -0.9750  -0.9554  -0.9550  -0.9548  -0.9450  -0.9449  -0.9397  -0.9396
    -0.9092  -0.9018  -0.9016  -0.8888  -0.8883  -0.8824  -0.8821  -0.8632
    -0.8467  -0.8463  -0.8175  -0.8172  -0.7347  -0.7166  -0.7162  -0.7159
    -0.7140  -0.7094  -0.7091  -0.7000  -0.6785  -0.6571  -0.6567  -0.6517
    -0.6516  -0.6334  -0.6179  -0.6178  -0.6139  -0.5987  -0.5185  -0.5184
    -0.4909  -0.4900  -0.4841  -0.4803  -0.4800  -0.4729  -0.4717  -0.4717
    -0.4654  -0.4649  -0.4477  -0.4156  -0.4030  -0.3837  -0.3836  -0.3748
    -0.3747  -0.3672  -0.3669  -0.3590  -0.3562  -0.3561  -0.3380  -0.3356
    -0.3354  -0.3035  -0.3035  -0.3027  -0.2856  -0.2855  -0.2629  -0.2367
    -0.2367  -0.2267  -0.2266  -0.1588  -0.1587  -0.1404  -0.1398  -0.0781
    -0.0759  -0.0750  -0.0748  -0.0473   0.1602   0.1609   0.5037   0.5038
     0.5790   0.5797   0.7298   0.7587   0.7802   0.9157   0.9158   1.2941
     1.3614   1.3614   1.5957   1.5958   1.6507   1.9614   1.9625   1.9948
     1.9951   2.0335   2.0341   2.1884   2.1888   2.3635   2.3635   2.3747
     2.5189   2.5199   2.5660   2.7760   3.1431   3.1433   3.1848   3.1850
     3.1922   3.1926   3.5194   3.5194   3.8544   3.8553   3.9255   4.1883
     4.3177   4.3183   4.5129   4.5185   4.6075   4.6078   4.6862   4.8474
     4.8479   4.9414   4.9417   5.2329   5.2953   5.2957   5.4697   5.4901
     5.6219   5.6352   5.6357   5.6390   5.6399   5.7848   5.7859   5.8507
     6.1159   6.3713   6.4620   6.4649   6.4662   6.4707   6.4711   6.6144
     6.6844   6.6852   6.7214   6.7795   6.9249   7.0330   7.0378   7.1800
     7.2211   7.3454   7.3579

     the Fermi energy is     1.4846 ev

!    total energy              =   -6564.20107478 Ry
     Harris-Foulkes estimate   =   -6564.20107479 Ry
     estimated scf accuracy    <          6.5E-09 Ry

     The total energy is the sum of the following terms:

     one-electron contribution =  -48135.43145849 Ry
     hartree contribution      =   24566.75463890 Ry
     xc contribution           =   -3162.26986778 Ry
     ewald contribution        =   20166.74348456 Ry
     smearing contrib. (-TS)   =       0.00212803 Ry

     convergence has been achieved in  24 iterations

     Writing output data file 4479826.save

     init_run     :    129.23s CPU    139.21s WALL (       1 calls)
     electrons    :   7910.70s CPU   8358.27s WALL (       1 calls)

     Called by init_run:
     wfcinit      :    103.62s CPU    113.32s WALL (       1 calls)
     potinit      :      6.02s CPU      6.10s WALL (       1 calls)

     Called by electrons:
     c_bands      :   6836.18s CPU   7197.44s WALL (      25 calls)
     sum_band     :    844.36s CPU    926.57s WALL (      25 calls)
     v_of_rho     :     14.02s CPU     15.17s WALL (      25 calls)
     newd         :    220.06s CPU    222.53s WALL (      25 calls)
     mix_rho      :      2.49s CPU      2.75s WALL (      25 calls)

     Called by c_bands:
     init_us_2    :     13.10s CPU     13.53s WALL (     612 calls)
     cegterg      :   6687.50s CPU   7044.42s WALL (     300 calls)

     Called by *egterg:
     h_psi        :   2583.48s CPU   2911.67s WALL (    1867 calls)
     s_psi        :    265.69s CPU    267.37s WALL (    1867 calls)
     g_psi        :      6.32s CPU      6.37s WALL (    1555 calls)
     cdiaghg      :   1814.56s CPU   1818.69s WALL (    1843 calls)

     Called by h_psi:
     add_vuspsi   :    266.36s CPU    268.07s WALL (    1867 calls)

     General routines
     calbec       :    594.16s CPU    596.17s WALL (    2167 calls)
     fft          :     57.75s CPU     59.54s WALL (     400 calls)
     ffts         :      1.12s CPU      1.28s WALL (      50 calls)
     fftw         :   2057.04s CPU   2412.77s WALL (  729956 calls)
     interpolate  :      3.14s CPU      3.54s WALL (      50 calls)
     davcio       :      0.00s CPU      0.18s WALL (      12 calls)

     Parallel routines
     fft_scatter  :   1440.58s CPU   1703.14s WALL (  730406 calls)

     PWSCF        :     2h14m CPU        2h21m WALL


   This run was terminated on:  22:55:48   9Aug2015            

=------------------------------------------------------------------------------=
   JOB DONE.
=------------------------------------------------------------------------------=
