
     Program PWSCF v.5.1.2 starts on  9Aug2015 at 17:33:59 

     This program is part of the open-source Quantum ESPRESSO suite
     for quantum simulation of materials; please cite
         "P. Giannozzi et al., J. Phys.:Condens. Matter 21 395502 (2009);
          URL http://www.quantum-espresso.org", 
     in publications or presentations arising from this work. More details at
     http://www.quantum-espresso.org/quote

     Parallel version (MPI), running on    32 processors
     R & G space division:  proc/nbgrp/npool/nimage =      32
     Reading input from bridge.O1.Au5455.d.2.5.phi.0.psi.0.in
Warning: card &IONS ignored
Warning: card / ignored
Warning: card &CELL ignored
Warning: card / ignored

     Current dimensions of program PWSCF are:
     Max number of different atomic species (ntypx) = 10
     Max number of k-points (npk) =  40000
     Max angular momentum in pseudopotentials (lmaxx) =  3

     Subspace diagonalization in iterative solution of the eigenvalue problem:
     a serial algorithm will be used


     Parallelization info
     --------------------
     sticks:   dense  smooth     PW     G-vecs:    dense   smooth      PW
     Min         445     223     58                96775    34191    4534
     Max         446     224     59                96790    34246    4540
     Sum       14269    7147   1867              3097177  1095093  145167


     Title: 
     bridge.O1.Au5455.d.2.5.phi.0.psi.0                                         


     bravais-lattice index     =            4
     lattice parameter (alat)  =      22.7436  a.u.
     unit-cell volume          =   22924.1508 (a.u.)^3
     number of atoms/cell      =           67
     number of atomic types    =            3
     number of electrons       =       712.00
     number of Kohn-Sham states=          427
     kinetic-energy cutoff     =      50.0000  Ry
     charge density cutoff     =     400.0000  Ry
     convergence threshold     =      1.0E-08
     mixing beta               =       0.7000
     number of iterations used =            8  plain     mixing
     Exchange-correlation      =  SLA  PW   PBE  PBE ( 1  4  3  4 0 0)

     celldm(1)=  22.743643  celldm(2)=   0.000000  celldm(3)=   2.250000
     celldm(4)=   0.000000  celldm(5)=   0.000000  celldm(6)=   0.000000

     crystal axes: (cart. coord. in units of alat)
               a(1) = (   1.000000   0.000000   0.000000 )  
               a(2) = (  -0.500000   0.866025   0.000000 )  
               a(3) = (   0.000000   0.000000   2.250000 )  

     reciprocal axes: (cart. coord. in units 2 pi/alat)
               b(1) = (  1.000000  0.577350 -0.000000 )  
               b(2) = (  0.000000  1.154701  0.000000 )  
               b(3) = (  0.000000 -0.000000  0.444444 )  


     PseudoPot. # 1 for Au read from file:
     /home/scc/andrejb/qe/pseudo/Au.pbe-nd-van.UPF
     MD5 check sum: 458681b50f36d87ef23c61b04bba420a
     Pseudo is Ultrasoft + core correction, Zval = 11.0
     Generated by new atomic code, or converted to UPF format
     Using radial grid of  985 points,  3 beta functions with: 
                l(1) =   1
                l(2) =   2
                l(3) =   2
     Q(r) pseudized with  8 coefficients,  rinner =    1.100   1.100   1.100
                                                       1.100   1.100

     PseudoPot. # 2 for H  read from file:
     /home/scc/andrejb/qe/pseudo/H.pbe-van_ak.UPF
     MD5 check sum: 403db7282739603aa925980fa9b8608d
     Pseudo is Ultrasoft, Zval =  1.0
     Generated by new atomic code, or converted to UPF format
     Using radial grid of  615 points,  1 beta functions with: 
                l(1) =   0
     Q(r) pseudized with  8 coefficients,  rinner =    0.800

     PseudoPot. # 3 for O  read from file:
     /home/scc/andrejb/qe/pseudo/O.pbe-van_ak.UPF
     MD5 check sum: 4b8c549914a63cae506c6ff22b5af4fe
     Pseudo is Ultrasoft, Zval =  6.0
     Generated by new atomic code, or converted to UPF format
     Using radial grid of  737 points,  4 beta functions with: 
                l(1) =   0
                l(2) =   0
                l(3) =   1
                l(4) =   1
     Q(r) pseudized with  8 coefficients,  rinner =    0.800   0.800   0.800


     atomic species   valence    mass     pseudopotential
        Au            11.00   196.96657     Au( 1.00)
        H              1.00     1.01000     H ( 1.00)
        O              6.00    16.00000     O ( 1.00)

     No symmetry found



   Cartesian axes

     site n.     atom                  positions (alat units)
         1           O   tau(   1) = (   0.2915728   0.2885783   0.8207383  )
         2           H   tau(   2) = (   0.2416394   0.2470306   0.8689919  )
         3           H   tau(   3) = (   0.3399922   0.3288851   0.8714990  )
         4           Au  tau(   4) = (   0.3540481   0.6132292   0.0000000  )
         5           Au  tau(   5) = (   0.4790062   0.3967954   0.0000000  )
         6           Au  tau(   6) = (   0.6039644   0.1803616   0.0000000  )
         7           Au  tau(   7) = (   0.7289225  -0.0360723   0.0000000  )
         8           Au  tau(   8) = (   0.1041318   0.6132292   0.0000000  )
         9           Au  tau(   9) = (   0.2290899   0.3967954   0.0000000  )
        10           Au  tau(  10) = (   0.3540481   0.1803616   0.0000000  )
        11           Au  tau(  11) = (   0.4790062  -0.0360723   0.0000000  )
        12           Au  tau(  12) = (  -0.1457845   0.6132292   0.0000000  )
        13           Au  tau(  13) = (  -0.0208264   0.3967954   0.0000000  )
        14           Au  tau(  14) = (   0.1041318   0.1803616   0.0000000  )
        15           Au  tau(  15) = (   0.2290899  -0.0360723   0.0000000  )
        16           Au  tau(  16) = (  -0.3957008   0.6132292   0.0000000  )
        17           Au  tau(  17) = (  -0.2707426   0.3967954   0.0000000  )
        18           Au  tau(  18) = (  -0.1457845   0.1803616   0.0000000  )
        19           Au  tau(  19) = (  -0.0208264  -0.0360723   0.0000000  )
        20           Au  tau(  20) = (   0.4790062   0.6853738   0.2040557  )
        21           Au  tau(  21) = (   0.6039644   0.4689400   0.2040557  )
        22           Au  tau(  22) = (   0.7289225   0.2525061   0.2040557  )
        23           Au  tau(  23) = (   0.8538806   0.0360723   0.2040557  )
        24           Au  tau(  24) = (   0.2290899   0.6853738   0.2040557  )
        25           Au  tau(  25) = (   0.3540481   0.4689400   0.2040557  )
        26           Au  tau(  26) = (   0.4790062   0.2525061   0.2040557  )
        27           Au  tau(  27) = (   0.6039644   0.0360723   0.2040557  )
        28           Au  tau(  28) = (  -0.0208264   0.6853738   0.2040557  )
        29           Au  tau(  29) = (   0.1041318   0.4689400   0.2040557  )
        30           Au  tau(  30) = (   0.2290899   0.2525061   0.2040557  )
        31           Au  tau(  31) = (   0.3540481   0.0360723   0.2040557  )
        32           Au  tau(  32) = (  -0.2707426   0.6853738   0.2040557  )
        33           Au  tau(  33) = (  -0.1457845   0.4689400   0.2040557  )
        34           Au  tau(  34) = (  -0.0208264   0.2525061   0.2040557  )
        35           Au  tau(  35) = (   0.1041318   0.0360723   0.2040557  )
        36           Au  tau(  36) = (   0.3541162   0.7576593   0.4066483  )
        37           Au  tau(  37) = (   0.4791000   0.5411421   0.4066695  )
        38           Au  tau(  38) = (   0.6040570   0.3246862   0.4066617  )
        39           Au  tau(  39) = (   0.7290270   0.1081684   0.4066529  )
        40           Au  tau(  40) = (   0.1041162   0.7576236   0.4066247  )
        41           Au  tau(  41) = (   0.2291001   0.5411063   0.4066455  )
        42           Au  tau(  42) = (   0.3540567   0.3246505   0.4066380  )
        43           Au  tau(  43) = (   0.4790276   0.1081324   0.4066292  )
        44           Au  tau(  44) = (  -0.1458201   0.7576104   0.4066224  )
        45           Au  tau(  45) = (  -0.0208365   0.5410930   0.4066438  )
        46           Au  tau(  46) = (   0.1041202   0.3246372   0.4066359  )
        47           Au  tau(  47) = (   0.2290908   0.1081193   0.4066273  )
        48           Au  tau(  48) = (  -0.3958167   0.7575791   0.4065812  )
        49           Au  tau(  49) = (  -0.2708328   0.5410617   0.4066025  )
        50           Au  tau(  50) = (  -0.1458763   0.3246061   0.4065947  )
        51           Au  tau(  51) = (  -0.0209056   0.1080882   0.4065858  )
        52           Au  tau(  52) = (   0.3541085   0.6133344   0.6129762  )
        53           Au  tau(  53) = (   0.4790780   0.3968269   0.6129968  )
        54           Au  tau(  54) = (   0.6040356   0.1803811   0.6129859  )
        55           Au  tau(  55) = (   0.7290165  -0.0361221   0.6129385  )
        56           Au  tau(  56) = (   0.1041243   0.6133091   0.6130022  )
        57           Au  tau(  57) = (   0.2290941   0.3968013   0.6130241  )
        58           Au  tau(  58) = (   0.3540515   0.1803552   0.6130121  )
        59           Au  tau(  59) = (   0.4790323  -0.0361475   0.6129659  )
        60           Au  tau(  60) = (  -0.1458030   0.6133014   0.6129980  )
        61           Au  tau(  61) = (  -0.0208339   0.3967936   0.6130188  )
        62           Au  tau(  62) = (   0.1041239   0.1803477   0.6130083  )
        63           Au  tau(  63) = (   0.2291046  -0.0361554   0.6129607  )
        64           Au  tau(  64) = (  -0.3957908   0.6132739   0.6129471  )
        65           Au  tau(  65) = (  -0.2708208   0.3967658   0.6129688  )
        66           Au  tau(  66) = (  -0.1458636   0.1803200   0.6129569  )
        67           Au  tau(  67) = (  -0.0208823  -0.0361826   0.6129110  )

     number of k points=    12  Marzari-Vanderbilt smearing, width (Ry)=  0.0200
                       cart. coord. in units 2pi/alat
        k(    1) = (   0.2500000   0.4330127   0.1111111), wk =   0.1666667
        k(    2) = (   0.2500000  -0.1443376   0.1111111), wk =   0.1666667
        k(    3) = (  -0.2500000  -0.4330127   0.1111111), wk =   0.1666667
        k(    4) = (  -0.2500000   0.4330127  -0.1111111), wk =   0.1666667
        k(    5) = (   0.2500000  -0.4330127  -0.1111111), wk =   0.1666667
        k(    6) = (   0.5000000   0.0000000   0.1111111), wk =   0.1666667
        k(    7) = (  -0.5000000   0.0000000   0.1111111), wk =   0.1666667
        k(    8) = (  -0.2500000   0.1443376   0.1111111), wk =   0.1666667
        k(    9) = (  -0.2500000  -0.1443376  -0.1111111), wk =   0.1666667
        k(   10) = (   0.2500000   0.1443376  -0.1111111), wk =   0.1666667
        k(   11) = (   0.0000000  -0.2886751   0.1111111), wk =   0.1666667
        k(   12) = (   0.0000000   0.2886751   0.1111111), wk =   0.1666667

     Dense  grid:  3097177 G-vectors     FFT dimensions: ( 150, 150, 360)

     Smooth grid:  1095093 G-vectors     FFT dimensions: ( 108, 108, 240)

     Largest allocated arrays     est. size (Mb)     dimensions
        Kohn-Sham Wavefunctions        28.01 Mb     (    4299,  427)
        NL pseudopotentials            55.23 Mb     (    4299,  842)
        Each V/rho on FFT grid          4.12 Mb     (  270000)
        Each G-vector array             0.74 Mb     (   96788)
        G-vector shells                 0.16 Mb     (   21404)
     Largest temporary arrays     est. size (Mb)     dimensions
        Auxiliary wavefunctions       112.04 Mb     (    4299, 1708)
        Each subspace H/S matrix       44.51 Mb     (    1708, 1708)
        Each <psi_i|beta_j> matrix      5.49 Mb     (     842,  427)
        Arrays for rho mixing          32.96 Mb     (  270000,    8)

     Initial potential from superposition of free atoms
     Check: negative starting charge=   -1.730294

     starting charge  711.25682, renormalised to  712.00000

     negative rho (up, down):  1.732E+00 0.000E+00
     Starting wfc are  582 randomized atomic wfcs

     total cpu time spent up to now is      145.2 secs

     Self-consistent Calculation

     iteration #  1     ecut=    50.00 Ry     beta=0.70
     Davidson diagonalization with overlap
     ethr =  1.00E-02,  avg # of iterations =  3.0

     Threshold (ethr) on eigenvalues was too large:
     Diagonalizing with lowered threshold

     Davidson diagonalization with overlap
     ethr =  4.37E-04,  avg # of iterations =  2.7

     negative rho (up, down):  1.714E+00 0.000E+00

     total cpu time spent up to now is      799.8 secs

     total energy              =   -6562.20599844 Ry
     Harris-Foulkes estimate   =   -6564.99019418 Ry
     estimated scf accuracy    <       3.58241556 Ry

     iteration #  2     ecut=    50.00 Ry     beta=0.70
     Davidson diagonalization with overlap
     ethr =  5.03E-04,  avg # of iterations = 11.3

     negative rho (up, down):  1.713E+00 0.000E+00

     total cpu time spent up to now is     1762.3 secs

     total energy              =   -6554.33561500 Ry
     Harris-Foulkes estimate   =   -6571.08000287 Ry
     estimated scf accuracy    <      97.44698221 Ry

     iteration #  3     ecut=    50.00 Ry     beta=0.70
     Davidson diagonalization with overlap
     ethr =  5.03E-04,  avg # of iterations =  6.0

     negative rho (up, down):  1.726E+00 0.000E+00

     total cpu time spent up to now is     2399.3 secs

     total energy              =   -6562.60889936 Ry
     Harris-Foulkes estimate   =   -6564.92709489 Ry
     estimated scf accuracy    <       9.88040275 Ry

     iteration #  4     ecut=    50.00 Ry     beta=0.70
     Davidson diagonalization with overlap
     ethr =  5.03E-04,  avg # of iterations =  6.6

     negative rho (up, down):  1.731E+00 0.000E+00

     total cpu time spent up to now is     2817.0 secs

     total energy              =   -6561.78670585 Ry
     Harris-Foulkes estimate   =   -6566.05793950 Ry
     estimated scf accuracy    <      54.60326969 Ry

     iteration #  5     ecut=    50.00 Ry     beta=0.70
     Davidson diagonalization with overlap
     ethr =  5.03E-04,  avg # of iterations =  5.5

     negative rho (up, down):  1.743E+00 0.000E+00

     total cpu time spent up to now is     3227.4 secs

     total energy              =   -6564.11199020 Ry
     Harris-Foulkes estimate   =   -6564.36778141 Ry
     estimated scf accuracy    <       1.07111945 Ry

     iteration #  6     ecut=    50.00 Ry     beta=0.70
     Davidson diagonalization with overlap
     ethr =  1.50E-04,  avg # of iterations =  4.8

     negative rho (up, down):  1.747E+00 0.000E+00

     total cpu time spent up to now is     3554.7 secs

     total energy              =   -6564.16916525 Ry
     Harris-Foulkes estimate   =   -6564.24434805 Ry
     estimated scf accuracy    <       0.24467419 Ry

     iteration #  7     ecut=    50.00 Ry     beta=0.70
     Davidson diagonalization with overlap
     ethr =  3.44E-05,  avg # of iterations =  8.6

     negative rho (up, down):  1.749E+00 0.000E+00

     total cpu time spent up to now is     3981.7 secs

     total energy              =   -6564.19346848 Ry
     Harris-Foulkes estimate   =   -6564.21860600 Ry
     estimated scf accuracy    <       0.09979947 Ry

     iteration #  8     ecut=    50.00 Ry     beta=0.70
     Davidson diagonalization with overlap
     ethr =  1.40E-05,  avg # of iterations = 12.4

     negative rho (up, down):  1.751E+00 0.000E+00

     total cpu time spent up to now is     4432.1 secs

     total energy              =   -6564.19439488 Ry
     Harris-Foulkes estimate   =   -6564.21142497 Ry
     estimated scf accuracy    <       0.05848488 Ry

     iteration #  9     ecut=    50.00 Ry     beta=0.70
     Davidson diagonalization with overlap
     ethr =  8.21E-06,  avg # of iterations =  5.6

     negative rho (up, down):  1.752E+00 0.000E+00

     total cpu time spent up to now is     4806.1 secs

     total energy              =   -6564.19871262 Ry
     Harris-Foulkes estimate   =   -6564.20367288 Ry
     estimated scf accuracy    <       0.01265957 Ry

     iteration # 10     ecut=    50.00 Ry     beta=0.70
     Davidson diagonalization with overlap
     ethr =  1.78E-06,  avg # of iterations = 11.3

     negative rho (up, down):  1.753E+00 0.000E+00

     total cpu time spent up to now is     5337.8 secs

     total energy              =   -6564.20018392 Ry
     Harris-Foulkes estimate   =   -6564.20260871 Ry
     estimated scf accuracy    <       0.00826921 Ry

     iteration # 11     ecut=    50.00 Ry     beta=0.70
     Davidson diagonalization with overlap
     ethr =  1.16E-06,  avg # of iterations =  2.2

     negative rho (up, down):  1.754E+00 0.000E+00

     total cpu time spent up to now is     5624.0 secs

     total energy              =   -6564.20119702 Ry
     Harris-Foulkes estimate   =   -6564.20159850 Ry
     estimated scf accuracy    <       0.00157609 Ry

     iteration # 12     ecut=    50.00 Ry     beta=0.70
     Davidson diagonalization with overlap
     ethr =  2.21E-07,  avg # of iterations =  2.0

     negative rho (up, down):  1.754E+00 0.000E+00

     total cpu time spent up to now is     5956.6 secs

     total energy              =   -6564.20138334 Ry
     Harris-Foulkes estimate   =   -6564.20145735 Ry
     estimated scf accuracy    <       0.00025735 Ry

     iteration # 13     ecut=    50.00 Ry     beta=0.70
     Davidson diagonalization with overlap
     ethr =  3.61E-08,  avg # of iterations =  3.0

     negative rho (up, down):  1.754E+00 0.000E+00

     total cpu time spent up to now is     6256.2 secs

     total energy              =   -6564.20138605 Ry
     Harris-Foulkes estimate   =   -6564.20143671 Ry
     estimated scf accuracy    <       0.00012957 Ry

     iteration # 14     ecut=    50.00 Ry     beta=0.70
     Davidson diagonalization with overlap
     ethr =  1.82E-08,  avg # of iterations =  2.5

     negative rho (up, down):  1.754E+00 0.000E+00

     total cpu time spent up to now is     6636.7 secs

     total energy              =   -6564.20137026 Ry
     Harris-Foulkes estimate   =   -6564.20147185 Ry
     estimated scf accuracy    <       0.00079787 Ry

     iteration # 15     ecut=    50.00 Ry     beta=0.70
     Davidson diagonalization with overlap
     ethr =  1.82E-08,  avg # of iterations =  2.0

     negative rho (up, down):  1.754E+00 0.000E+00

     total cpu time spent up to now is     6924.3 secs

     total energy              =   -6564.20141956 Ry
     Harris-Foulkes estimate   =   -6564.20142159 Ry
     estimated scf accuracy    <       0.00000879 Ry

     iteration # 16     ecut=    50.00 Ry     beta=0.70
     Davidson diagonalization with overlap
     ethr =  1.23E-09,  avg # of iterations =  2.0

     negative rho (up, down):  1.754E+00 0.000E+00

     total cpu time spent up to now is     7293.5 secs

     total energy              =   -6564.20141951 Ry
     Harris-Foulkes estimate   =   -6564.20142248 Ry
     estimated scf accuracy    <       0.00001304 Ry

     iteration # 17     ecut=    50.00 Ry     beta=0.70
     Davidson diagonalization with overlap
     ethr =  1.23E-09,  avg # of iterations =  2.0

     negative rho (up, down):  1.754E+00 0.000E+00

     total cpu time spent up to now is     7570.4 secs

     total energy              =   -6564.20142077 Ry
     Harris-Foulkes estimate   =   -6564.20142135 Ry
     estimated scf accuracy    <       0.00000247 Ry

     iteration # 18     ecut=    50.00 Ry     beta=0.70
     Davidson diagonalization with overlap
     ethr =  3.47E-10,  avg # of iterations =  2.0

     negative rho (up, down):  1.754E+00 0.000E+00

     total cpu time spent up to now is     7893.3 secs

     total energy              =   -6564.20142099 Ry
     Harris-Foulkes estimate   =   -6564.20142127 Ry
     estimated scf accuracy    <       0.00000114 Ry

     iteration # 19     ecut=    50.00 Ry     beta=0.70
     Davidson diagonalization with overlap
     ethr =  1.60E-10,  avg # of iterations =  2.0

     negative rho (up, down):  1.754E+00 0.000E+00

     total cpu time spent up to now is     8197.1 secs

     total energy              =   -6564.20142108 Ry
     Harris-Foulkes estimate   =   -6564.20142117 Ry
     estimated scf accuracy    <       0.00000036 Ry

     iteration # 20     ecut=    50.00 Ry     beta=0.70
     Davidson diagonalization with overlap
     ethr =  5.01E-11,  avg # of iterations =  2.0

     negative rho (up, down):  1.754E+00 0.000E+00

     total cpu time spent up to now is     8483.0 secs

     total energy              =   -6564.20142112 Ry
     Harris-Foulkes estimate   =   -6564.20142114 Ry
     estimated scf accuracy    <       0.00000006 Ry

     iteration # 21     ecut=    50.00 Ry     beta=0.70
     Davidson diagonalization with overlap
     ethr =  7.97E-12,  avg # of iterations =  3.0

     negative rho (up, down):  1.754E+00 0.000E+00

     total cpu time spent up to now is     8846.5 secs

     total energy              =   -6564.20142113 Ry
     Harris-Foulkes estimate   =   -6564.20142113 Ry
     estimated scf accuracy    <       0.00000002 Ry

     iteration # 22     ecut=    50.00 Ry     beta=0.70
     Davidson diagonalization with overlap
     ethr =  2.80E-12,  avg # of iterations =  2.0

     negative rho (up, down):  1.754E+00 0.000E+00

     total cpu time spent up to now is     9160.8 secs

     End of self-consistent calculation

          k = 0.2500 0.4330 0.1111 (136853 PWs)   bands (ev):

   -19.4851  -7.2504  -6.2014  -5.8020  -5.8001  -5.1321  -4.7794  -4.7760
    -4.7661  -4.7503  -4.3321  -4.3282  -4.2567  -4.2405  -4.2031  -4.2024
    -4.1770  -4.0582  -4.0443  -4.0363  -3.9984  -3.9530  -3.9523  -3.9514
    -3.9316  -3.9016  -3.8989  -3.8731  -3.8658  -3.8511  -3.8344  -3.7670
    -3.7546  -3.7516  -3.7359  -3.7309  -3.6923  -3.6918  -3.6841  -3.6704
    -3.6678  -3.6646  -3.5931  -3.5901  -3.5311  -3.5302  -3.5159  -3.5082
    -3.4533  -3.4424  -3.4230  -3.4229  -3.3850  -3.3729  -3.3652  -3.3515
    -3.3496  -3.3491  -3.3469  -3.3415  -3.3218  -3.2646  -3.2563  -3.2512
    -3.2316  -3.2001  -3.1727  -3.1650  -3.1187  -3.1176  -3.0917  -3.0895
    -3.0628  -3.0355  -3.0015  -2.9978  -2.9636  -2.9634  -2.9267  -2.9230
    -2.9171  -2.8805  -2.8501  -2.8478  -2.8278  -2.8264  -2.8224  -2.8216
    -2.8208  -2.8162  -2.8107  -2.7576  -2.6988  -2.6985  -2.6976  -2.6966
    -2.6923  -2.6716  -2.6701  -2.6558  -2.5767  -2.5763  -2.5723  -2.5674
    -2.5202  -2.5145  -2.5136  -2.4946  -2.4899  -2.4404  -2.4253  -2.4226
    -2.4196  -2.3803  -2.3790  -2.3771  -2.3384  -2.3363  -2.2848  -2.2592
    -2.2584  -2.2564  -2.2529  -2.2342  -2.2314  -2.2279  -2.2213  -2.2180
    -2.1852  -2.1525  -2.1500  -2.1429  -2.1421  -2.1401  -2.1399  -2.1397
    -2.1381  -2.1201  -2.1049  -2.1040  -2.1031  -2.1008  -2.0980  -2.0866
    -2.0828  -2.0813  -2.0566  -2.0528  -2.0507  -2.0307  -2.0262  -2.0113
    -2.0073  -1.9906  -1.9842  -1.9836  -1.9820  -1.9770  -1.9754  -1.9748
    -1.9686  -1.9606  -1.9583  -1.9456  -1.9426  -1.9374  -1.8579  -1.8571
    -1.8455  -1.8415  -1.8386  -1.8239  -1.8036  -1.7914  -1.7885  -1.7805
    -1.7699  -1.7524  -1.7458  -1.7402  -1.7357  -1.7172  -1.7150  -1.7124
    -1.7066  -1.6921  -1.6683  -1.6408  -1.6289  -1.6173  -1.6042  -1.5933
    -1.5858  -1.5719  -1.5312  -1.5309  -1.5181  -1.5056  -1.4505  -1.4497
    -1.4071  -1.3888  -1.3788  -1.3565  -1.3537  -1.3294  -1.3263  -1.3096
    -1.3092  -1.3071  -1.3037  -1.2893  -1.2518  -1.2507  -1.2483  -1.2436
    -1.2417  -1.2267  -1.2117  -1.2108  -1.2047  -1.1747  -1.1649  -1.1636
    -1.1589  -1.1571  -1.1474  -1.1340  -1.1069  -1.1060  -1.1032  -1.1003
    -1.0859  -1.0689  -1.0355  -1.0244  -1.0218  -1.0191  -0.9999  -0.9942
    -0.9524  -0.9175  -0.8696  -0.8680  -0.8675  -0.8641  -0.8613  -0.8580
    -0.8523  -0.8455  -0.8416  -0.7958  -0.7950  -0.7793  -0.7781  -0.7629
    -0.7494  -0.7477  -0.7375  -0.7344  -0.7341  -0.7328  -0.7291  -0.6899
    -0.6865  -0.6755  -0.6741  -0.6727  -0.6605  -0.6571  -0.6286  -0.6181
    -0.6157  -0.5915  -0.5741  -0.5645  -0.5315  -0.5243  -0.5153  -0.5148
    -0.5083  -0.5055  -0.4983  -0.4972  -0.4907  -0.4871  -0.4651  -0.4636
    -0.4544  -0.4522  -0.4418  -0.4277  -0.4190  -0.4111  -0.4103  -0.3847
    -0.3778  -0.3699  -0.3633  -0.3127  -0.3114  -0.3108  -0.3063  -0.3010
    -0.2964  -0.2923  -0.2766  -0.2727  -0.2649  -0.2631  -0.2577  -0.2554
    -0.2194  -0.2184  -0.2170  -0.2107  -0.2087  -0.2033  -0.2017  -0.1877
    -0.1863  -0.1820  -0.1726  -0.1499  -0.1488  -0.1418  -0.1274  -0.1255
    -0.0749  -0.0735  -0.0459  -0.0446  -0.0367  -0.0331  -0.0032   0.0060
     0.0070   0.0246   0.0274   0.0429   0.1036   0.1093   0.2170   0.6181
     0.6195   0.6444   0.6451   0.7107   0.7162   1.0562   1.0576   1.0685
     1.0745   1.2418   1.3116   1.3947   1.4129   1.6536   1.6774   2.2453
     2.2462   2.3704   2.3814   2.5851   2.5900   2.6554   2.6564   2.7442
     3.0087   3.0351   3.2014   3.4098   3.4208   3.4467   3.4518   3.5150
     3.6126   3.7646   3.7688   3.8210   4.0631   4.0638   4.1348   4.1389
     4.3766   4.3867   4.4128   4.5990   4.6040   4.6632   4.7479   5.0373
     5.0726   5.0771   5.2645   5.3510   5.3575   5.3599   5.4636   5.6332
     6.0830   6.1404   6.1456   6.1692   6.2239   6.2284   6.3012   6.3590
     6.3634   6.3802   6.3858   6.3991   6.4307   6.4437   6.4479   6.4558
     6.5032   6.7486   6.8127   6.8428   7.0333   7.0537   7.0958   7.1073
     7.1321   7.2102   7.2365

          k = 0.2500-0.1443 0.1111 (136898 PWs)   bands (ev):

   -19.4851  -7.2504  -6.4113  -5.6168  -5.3351  -5.2635  -5.2622  -4.7072
    -4.7052  -4.6047  -4.5559  -4.4300  -4.3535  -4.3192  -4.3048  -4.2560
    -4.1881  -4.1852  -4.0572  -4.0396  -4.0056  -4.0035  -3.9853  -3.9839
    -3.9282  -3.8622  -3.8605  -3.7784  -3.7712  -3.7700  -3.7665  -3.7496
    -3.7474  -3.6730  -3.6282  -3.6272  -3.6158  -3.6055  -3.6048  -3.5947
    -3.5876  -3.5848  -3.5389  -3.5347  -3.5286  -3.5277  -3.5177  -3.5127
    -3.4883  -3.4815  -3.4807  -3.4493  -3.4439  -3.4295  -3.4138  -3.3954
    -3.3646  -3.3641  -3.3040  -3.3030  -3.2828  -3.2709  -3.2641  -3.1915
    -3.1907  -3.1831  -3.1815  -3.1669  -3.1651  -3.1435  -3.1407  -2.9911
    -2.9906  -2.9744  -2.9735  -2.9637  -2.9297  -2.9283  -2.9256  -2.9218
    -2.8689  -2.8670  -2.8500  -2.8485  -2.8107  -2.7892  -2.7870  -2.7652
    -2.7580  -2.7564  -2.7132  -2.7112  -2.6942  -2.6922  -2.6873  -2.6838
    -2.6633  -2.6632  -2.6186  -2.6169  -2.6122  -2.6105  -2.5951  -2.5494
    -2.5451  -2.5242  -2.5164  -2.5150  -2.4381  -2.4356  -2.4073  -2.4069
    -2.3982  -2.3900  -2.3674  -2.3413  -2.3406  -2.3241  -2.3197  -2.3178
    -2.3154  -2.3030  -2.2977  -2.2961  -2.2868  -2.2847  -2.2791  -2.2705
    -2.2248  -2.2008  -2.1799  -2.1782  -2.1767  -2.1625  -2.1612  -2.1585
    -2.1574  -2.1479  -2.1186  -2.1163  -2.1041  -2.0996  -2.0868  -2.0857
    -2.0837  -2.0605  -2.0597  -2.0487  -2.0405  -2.0397  -1.9863  -1.9706
    -1.9598  -1.9585  -1.9579  -1.9406  -1.9372  -1.9236  -1.9044  -1.9035
    -1.8998  -1.8981  -1.8899  -1.8805  -1.8760  -1.8624  -1.8494  -1.8454
    -1.8104  -1.7994  -1.7968  -1.7922  -1.7914  -1.7868  -1.7788  -1.7770
    -1.7747  -1.7722  -1.7589  -1.7584  -1.7515  -1.7054  -1.6431  -1.6364
    -1.6140  -1.6124  -1.6035  -1.5877  -1.5844  -1.5756  -1.5712  -1.5575
    -1.5542  -1.5524  -1.5510  -1.5425  -1.5291  -1.5083  -1.5078  -1.4944
    -1.4795  -1.4777  -1.4735  -1.4693  -1.4616  -1.4467  -1.4008  -1.3982
    -1.3750  -1.3716  -1.3663  -1.3614  -1.3381  -1.3369  -1.3327  -1.3318
    -1.3309  -1.3272  -1.3172  -1.3115  -1.2941  -1.2619  -1.2526  -1.2301
    -1.2271  -1.2073  -1.1822  -1.1730  -1.1476  -1.1429  -1.1354  -1.1347
    -1.1234  -1.1073  -1.0962  -1.0873  -1.0798  -1.0541  -1.0524  -1.0368
    -1.0269  -1.0019  -1.0006  -0.9888  -0.9384  -0.9359  -0.9317  -0.9296
    -0.9121  -0.9107  -0.8956  -0.8917  -0.8638  -0.8525  -0.8318  -0.8302
    -0.8272  -0.7956  -0.7804  -0.7794  -0.7757  -0.7710  -0.7630  -0.7625
    -0.7572  -0.7314  -0.7272  -0.7255  -0.7157  -0.7102  -0.7062  -0.6945
    -0.6871  -0.6738  -0.6595  -0.6436  -0.6284  -0.5588  -0.5414  -0.5409
    -0.5401  -0.5374  -0.5340  -0.5286  -0.5087  -0.5035  -0.4835  -0.4791
    -0.4758  -0.4677  -0.4581  -0.4433  -0.4392  -0.4344  -0.4230  -0.3417
    -0.3405  -0.3169  -0.3095  -0.3057  -0.2984  -0.2960  -0.2945  -0.2937
    -0.2871  -0.2827  -0.2632  -0.2341  -0.2246  -0.2080  -0.2053  -0.1989
    -0.1962  -0.1888  -0.1858  -0.1829  -0.1793  -0.1760  -0.1617  -0.1585
    -0.1546  -0.1269  -0.1259  -0.1235  -0.1078  -0.1066  -0.0851  -0.0600
    -0.0577  -0.0499  -0.0460   0.0180   0.0205   0.0355   0.0358   0.0982
     0.0993   0.1005   0.1127   0.1265   0.3318   0.3553   0.6808   0.6812
     0.7490   0.7709   0.9071   0.9353   0.9771   1.0892   1.0986   1.4718
     1.5385   1.5391   1.7722   1.7733   1.8294   2.1269   2.1462   2.1690
     2.1747   2.2025   2.2287   2.3631   2.3669   2.5373   2.5402   2.5477
     2.6851   2.7121   2.7478   2.9551   3.3150   3.3213   3.3569   3.3613
     3.3644   3.3820   3.6955   3.6975   4.0204   4.0373   4.0893   4.3657
     4.4863   4.4999   4.6623   4.6772   4.7805   4.7871   4.8622   5.0213
     5.0275   5.1153   5.1211   5.4054   5.4374   5.4700   5.4744   5.6275
     5.7055   5.8064   5.8122   5.8158   5.8194   5.9542   5.9588   6.0182
     6.2313   6.3856   6.5442   6.6110   6.6320   6.6387   6.6414   6.6540
     6.6747   6.7715   6.8536   6.8618   6.9797   7.1291   7.1681   7.1954
     7.2459   7.3246   7.3713

          k =-0.2500-0.4330 0.1111 (136853 PWs)   bands (ev):

   -19.4851  -7.2504  -6.2014  -5.8020  -5.8001  -5.1321  -4.7794  -4.7760
    -4.7661  -4.7503  -4.3321  -4.3282  -4.2567  -4.2405  -4.2031  -4.2024
    -4.1770  -4.0582  -4.0443  -4.0363  -3.9984  -3.9530  -3.9523  -3.9514
    -3.9316  -3.9016  -3.8989  -3.8731  -3.8658  -3.8511  -3.8344  -3.7670
    -3.7546  -3.7516  -3.7359  -3.7309  -3.6923  -3.6918  -3.6841  -3.6704
    -3.6678  -3.6646  -3.5931  -3.5901  -3.5311  -3.5302  -3.5159  -3.5082
    -3.4533  -3.4424  -3.4230  -3.4229  -3.3850  -3.3729  -3.3652  -3.3515
    -3.3496  -3.3491  -3.3469  -3.3415  -3.3218  -3.2646  -3.2563  -3.2512
    -3.2316  -3.2001  -3.1727  -3.1650  -3.1187  -3.1176  -3.0917  -3.0895
    -3.0628  -3.0355  -3.0015  -2.9978  -2.9636  -2.9634  -2.9267  -2.9230
    -2.9171  -2.8805  -2.8501  -2.8478  -2.8278  -2.8264  -2.8224  -2.8216
    -2.8208  -2.8162  -2.8107  -2.7576  -2.6988  -2.6985  -2.6976  -2.6966
    -2.6923  -2.6716  -2.6701  -2.6558  -2.5767  -2.5763  -2.5723  -2.5674
    -2.5202  -2.5145  -2.5136  -2.4946  -2.4899  -2.4404  -2.4253  -2.4226
    -2.4196  -2.3803  -2.3790  -2.3771  -2.3384  -2.3363  -2.2848  -2.2592
    -2.2584  -2.2564  -2.2529  -2.2342  -2.2314  -2.2279  -2.2213  -2.2180
    -2.1852  -2.1525  -2.1500  -2.1429  -2.1421  -2.1401  -2.1399  -2.1397
    -2.1381  -2.1201  -2.1049  -2.1040  -2.1031  -2.1008  -2.0980  -2.0866
    -2.0828  -2.0813  -2.0566  -2.0528  -2.0507  -2.0307  -2.0262  -2.0113
    -2.0073  -1.9906  -1.9842  -1.9836  -1.9820  -1.9770  -1.9754  -1.9748
    -1.9686  -1.9606  -1.9583  -1.9456  -1.9426  -1.9374  -1.8579  -1.8571
    -1.8455  -1.8415  -1.8386  -1.8239  -1.8036  -1.7914  -1.7885  -1.7805
    -1.7699  -1.7524  -1.7458  -1.7402  -1.7357  -1.7172  -1.7150  -1.7124
    -1.7066  -1.6921  -1.6683  -1.6408  -1.6289  -1.6173  -1.6042  -1.5933
    -1.5858  -1.5719  -1.5312  -1.5309  -1.5181  -1.5055  -1.4505  -1.4497
    -1.4071  -1.3888  -1.3788  -1.3565  -1.3537  -1.3294  -1.3263  -1.3096
    -1.3092  -1.3071  -1.3037  -1.2893  -1.2517  -1.2507  -1.2483  -1.2436
    -1.2418  -1.2267  -1.2117  -1.2108  -1.2047  -1.1747  -1.1649  -1.1636
    -1.1589  -1.1571  -1.1474  -1.1340  -1.1069  -1.1060  -1.1032  -1.1003
    -1.0859  -1.0689  -1.0355  -1.0244  -1.0218  -1.0191  -0.9999  -0.9942
    -0.9524  -0.9175  -0.8696  -0.8680  -0.8675  -0.8641  -0.8613  -0.8580
    -0.8523  -0.8455  -0.8416  -0.7959  -0.7950  -0.7793  -0.7781  -0.7629
    -0.7494  -0.7477  -0.7375  -0.7344  -0.7341  -0.7328  -0.7291  -0.6899
    -0.6865  -0.6755  -0.6741  -0.6727  -0.6605  -0.6571  -0.6286  -0.6181
    -0.6157  -0.5915  -0.5741  -0.5645  -0.5315  -0.5243  -0.5153  -0.5148
    -0.5083  -0.5055  -0.4983  -0.4972  -0.4907  -0.4871  -0.4651  -0.4636
    -0.4544  -0.4522  -0.4418  -0.4277  -0.4190  -0.4111  -0.4103  -0.3847
    -0.3778  -0.3699  -0.3633  -0.3127  -0.3114  -0.3108  -0.3063  -0.3010
    -0.2964  -0.2923  -0.2766  -0.2727  -0.2649  -0.2631  -0.2577  -0.2554
    -0.2194  -0.2184  -0.2170  -0.2107  -0.2087  -0.2033  -0.2017  -0.1877
    -0.1863  -0.1820  -0.1726  -0.1499  -0.1488  -0.1418  -0.1274  -0.1255
    -0.0749  -0.0735  -0.0459  -0.0446  -0.0367  -0.0331  -0.0032   0.0060
     0.0070   0.0246   0.0274   0.0429   0.1036   0.1093   0.2170   0.6181
     0.6195   0.6444   0.6451   0.7107   0.7162   1.0562   1.0576   1.0685
     1.0745   1.2418   1.3116   1.3947   1.4129   1.6536   1.6774   2.2453
     2.2462   2.3704   2.3814   2.5851   2.5900   2.6554   2.6564   2.7442
     3.0087   3.0351   3.2014   3.4098   3.4208   3.4467   3.4518   3.5150
     3.6126   3.7646   3.7688   3.8210   4.0631   4.0638   4.1348   4.1389
     4.3766   4.3867   4.4128   4.5990   4.6040   4.6632   4.7479   5.0373
     5.0726   5.0771   5.2645   5.3510   5.3575   5.3599   5.4636   5.6332
     6.0830   6.1402   6.1456   6.1694   6.2239   6.2285   6.3011   6.3590
     6.3634   6.3802   6.3858   6.3993   6.4306   6.4433   6.4478   6.4565
     6.5034   6.7489   6.8089   6.8440   7.0341   7.0550   7.0952   7.1053
     7.1384   7.2066   7.2365

          k =-0.2500 0.4330-0.1111 (136853 PWs)   bands (ev):

   -19.4851  -7.2504  -6.2014  -5.8032  -5.7989  -5.1320  -4.7807  -4.7771
    -4.7653  -4.7497  -4.3290  -4.3284  -4.2514  -4.2447  -4.2028  -4.2021
    -4.1785  -4.0738  -4.0444  -4.0314  -3.9959  -3.9530  -3.9525  -3.9520
    -3.9196  -3.9018  -3.9016  -3.8750  -3.8635  -3.8513  -3.8349  -3.7654
    -3.7551  -3.7447  -3.7357  -3.7312  -3.6934  -3.6920  -3.6867  -3.6709
    -3.6675  -3.6640  -3.5936  -3.5926  -3.5320  -3.5293  -3.5164  -3.5155
    -3.4532  -3.4508  -3.4231  -3.4226  -3.3853  -3.3734  -3.3722  -3.3510
    -3.3501  -3.3493  -3.3427  -3.3353  -3.3195  -3.2593  -3.2559  -3.2522
    -3.2330  -3.1997  -3.1726  -3.1633  -3.1190  -3.1094  -3.0911  -3.0899
    -3.0628  -3.0363  -3.0020  -3.0008  -2.9638  -2.9619  -2.9274  -2.9238
    -2.9171  -2.8803  -2.8510  -2.8481  -2.8283  -2.8260  -2.8223  -2.8213
    -2.8209  -2.8145  -2.8091  -2.7574  -2.6993  -2.6982  -2.6978  -2.6956
    -2.6914  -2.6724  -2.6674  -2.6565  -2.5762  -2.5757  -2.5742  -2.5685
    -2.5202  -2.5150  -2.5133  -2.4944  -2.4917  -2.4405  -2.4254  -2.4219
    -2.4205  -2.3806  -2.3791  -2.3751  -2.3382  -2.3354  -2.2842  -2.2599
    -2.2581  -2.2564  -2.2558  -2.2326  -2.2315  -2.2280  -2.2215  -2.2187
    -2.1858  -2.1527  -2.1491  -2.1448  -2.1414  -2.1410  -2.1402  -2.1397
    -2.1384  -2.1190  -2.1049  -2.1042  -2.1032  -2.1017  -2.0934  -2.0865
    -2.0828  -2.0814  -2.0572  -2.0528  -2.0490  -2.0310  -2.0285  -2.0113
    -2.0098  -1.9899  -1.9849  -1.9835  -1.9822  -1.9780  -1.9765  -1.9755
    -1.9666  -1.9604  -1.9595  -1.9449  -1.9408  -1.9390  -1.8583  -1.8557
    -1.8464  -1.8420  -1.8374  -1.8205  -1.8045  -1.7935  -1.7901  -1.7783
    -1.7687  -1.7538  -1.7469  -1.7404  -1.7245  -1.7168  -1.7148  -1.7124
    -1.7057  -1.6922  -1.6675  -1.6609  -1.6352  -1.6169  -1.6014  -1.5942
    -1.5867  -1.5701  -1.5319  -1.5304  -1.5184  -1.4907  -1.4501  -1.4487
    -1.4017  -1.3903  -1.3838  -1.3567  -1.3540  -1.3294  -1.3259  -1.3098
    -1.3089  -1.3080  -1.3034  -1.2890  -1.2518  -1.2513  -1.2479  -1.2439
    -1.2410  -1.2382  -1.2120  -1.2115  -1.2032  -1.1738  -1.1660  -1.1611
    -1.1592  -1.1580  -1.1411  -1.1330  -1.1080  -1.1047  -1.1037  -1.1008
    -1.0861  -1.0744  -1.0370  -1.0255  -1.0218  -1.0173  -0.9992  -0.9927
    -0.9509  -0.9179  -0.8692  -0.8682  -0.8669  -0.8653  -0.8613  -0.8601
    -0.8517  -0.8457  -0.8426  -0.7960  -0.7943  -0.7802  -0.7738  -0.7621
    -0.7492  -0.7484  -0.7372  -0.7350  -0.7336  -0.7322  -0.7303  -0.6938
    -0.6803  -0.6764  -0.6752  -0.6738  -0.6617  -0.6572  -0.6274  -0.6205
    -0.6140  -0.5926  -0.5745  -0.5645  -0.5299  -0.5274  -0.5160  -0.5142
    -0.5086  -0.5053  -0.4998  -0.4960  -0.4901  -0.4834  -0.4647  -0.4641
    -0.4555  -0.4496  -0.4412  -0.4325  -0.4198  -0.4115  -0.4104  -0.3830
    -0.3770  -0.3717  -0.3622  -0.3126  -0.3117  -0.3094  -0.3056  -0.3001
    -0.2988  -0.2918  -0.2791  -0.2710  -0.2652  -0.2626  -0.2591  -0.2544
    -0.2193  -0.2184  -0.2166  -0.2114  -0.2069  -0.2034  -0.1986  -0.1951
    -0.1845  -0.1820  -0.1735  -0.1504  -0.1480  -0.1421  -0.1279  -0.1254
    -0.0739  -0.0735  -0.0461  -0.0429  -0.0365  -0.0353  -0.0034   0.0055
     0.0080   0.0203   0.0260   0.0477   0.1023   0.1172   0.2209   0.6186
     0.6195   0.6441   0.6448   0.6988   0.7244   1.0548   1.0566   1.0671
     1.0759   1.2451   1.3129   1.3915   1.4204   1.6461   1.6812   2.2370
     2.2511   2.3653   2.3904   2.5717   2.6026   2.6554   2.6570   2.7435
     3.0113   3.0331   3.1999   3.4068   3.4214   3.4446   3.4580   3.5104
     3.6129   3.7564   3.7729   3.8200   4.0628   4.0642   4.1284   4.1503
     4.3699   4.3937   4.4118   4.5965   4.6084   4.6643   4.7471   5.0359
     5.0723   5.0767   5.2635   5.3561   5.3593   5.4012   5.4393   5.5941
     6.0865   6.1439   6.1496   6.2181   6.2245   6.2368   6.3017   6.3261
     6.3546   6.3725   6.3790   6.3912   6.4348   6.4371   6.4483   6.4752
     6.5072   6.7566   6.8009   6.8470   7.0267   7.0447   7.0831   7.1029
     7.1124   7.2359   7.2423

          k = 0.2500-0.4330-0.1111 (136853 PWs)   bands (ev):

   -19.4851  -7.2504  -6.2014  -5.8032  -5.7989  -5.1320  -4.7807  -4.7771
    -4.7653  -4.7497  -4.3290  -4.3284  -4.2514  -4.2447  -4.2028  -4.2021
    -4.1785  -4.0738  -4.0444  -4.0314  -3.9959  -3.9530  -3.9525  -3.9520
    -3.9196  -3.9018  -3.9016  -3.8750  -3.8635  -3.8513  -3.8349  -3.7654
    -3.7551  -3.7447  -3.7357  -3.7312  -3.6934  -3.6920  -3.6867  -3.6709
    -3.6675  -3.6640  -3.5936  -3.5926  -3.5320  -3.5293  -3.5164  -3.5155
    -3.4532  -3.4508  -3.4231  -3.4226  -3.3853  -3.3734  -3.3722  -3.3510
    -3.3501  -3.3493  -3.3427  -3.3353  -3.3195  -3.2593  -3.2559  -3.2522
    -3.2330  -3.1997  -3.1726  -3.1633  -3.1190  -3.1094  -3.0911  -3.0899
    -3.0628  -3.0363  -3.0020  -3.0008  -2.9638  -2.9619  -2.9274  -2.9238
    -2.9171  -2.8803  -2.8510  -2.8481  -2.8283  -2.8260  -2.8223  -2.8213
    -2.8209  -2.8145  -2.8091  -2.7574  -2.6993  -2.6982  -2.6978  -2.6956
    -2.6914  -2.6724  -2.6674  -2.6565  -2.5762  -2.5757  -2.5742  -2.5685
    -2.5202  -2.5150  -2.5133  -2.4944  -2.4917  -2.4405  -2.4254  -2.4219
    -2.4205  -2.3806  -2.3791  -2.3751  -2.3382  -2.3354  -2.2842  -2.2599
    -2.2581  -2.2564  -2.2558  -2.2326  -2.2315  -2.2280  -2.2215  -2.2187
    -2.1858  -2.1527  -2.1491  -2.1448  -2.1414  -2.1410  -2.1402  -2.1397
    -2.1384  -2.1190  -2.1049  -2.1042  -2.1032  -2.1017  -2.0934  -2.0865
    -2.0828  -2.0814  -2.0572  -2.0528  -2.0490  -2.0310  -2.0285  -2.0113
    -2.0098  -1.9899  -1.9849  -1.9835  -1.9822  -1.9780  -1.9765  -1.9755
    -1.9666  -1.9604  -1.9595  -1.9449  -1.9408  -1.9390  -1.8583  -1.8557
    -1.8464  -1.8420  -1.8374  -1.8205  -1.8045  -1.7935  -1.7901  -1.7783
    -1.7687  -1.7538  -1.7469  -1.7404  -1.7245  -1.7168  -1.7148  -1.7124
    -1.7057  -1.6922  -1.6675  -1.6609  -1.6352  -1.6169  -1.6014  -1.5942
    -1.5867  -1.5701  -1.5319  -1.5304  -1.5184  -1.4907  -1.4501  -1.4487
    -1.4017  -1.3903  -1.3838  -1.3567  -1.3540  -1.3294  -1.3259  -1.3098
    -1.3089  -1.3080  -1.3034  -1.2890  -1.2518  -1.2513  -1.2479  -1.2439
    -1.2410  -1.2382  -1.2120  -1.2115  -1.2032  -1.1738  -1.1660  -1.1611
    -1.1592  -1.1580  -1.1411  -1.1330  -1.1080  -1.1047  -1.1037  -1.1008
    -1.0861  -1.0744  -1.0370  -1.0255  -1.0218  -1.0173  -0.9992  -0.9927
    -0.9509  -0.9179  -0.8692  -0.8682  -0.8669  -0.8653  -0.8613  -0.8601
    -0.8517  -0.8457  -0.8426  -0.7960  -0.7943  -0.7802  -0.7738  -0.7621
    -0.7492  -0.7484  -0.7372  -0.7350  -0.7336  -0.7322  -0.7303  -0.6938
    -0.6803  -0.6764  -0.6752  -0.6738  -0.6617  -0.6572  -0.6274  -0.6205
    -0.6140  -0.5926  -0.5745  -0.5645  -0.5299  -0.5274  -0.5160  -0.5142
    -0.5086  -0.5053  -0.4998  -0.4960  -0.4901  -0.4834  -0.4647  -0.4641
    -0.4555  -0.4496  -0.4412  -0.4325  -0.4198  -0.4115  -0.4104  -0.3830
    -0.3770  -0.3717  -0.3622  -0.3126  -0.3117  -0.3094  -0.3056  -0.3001
    -0.2988  -0.2918  -0.2791  -0.2710  -0.2652  -0.2626  -0.2591  -0.2544
    -0.2193  -0.2184  -0.2166  -0.2114  -0.2069  -0.2034  -0.1986  -0.1951
    -0.1845  -0.1820  -0.1735  -0.1504  -0.1480  -0.1421  -0.1279  -0.1254
    -0.0739  -0.0735  -0.0461  -0.0429  -0.0365  -0.0353  -0.0034   0.0055
     0.0080   0.0203   0.0260   0.0477   0.1023   0.1172   0.2209   0.6186
     0.6195   0.6441   0.6448   0.6988   0.7244   1.0548   1.0566   1.0671
     1.0759   1.2451   1.3129   1.3915   1.4204   1.6461   1.6812   2.2370
     2.2511   2.3653   2.3904   2.5717   2.6026   2.6554   2.6570   2.7435
     3.0113   3.0331   3.1999   3.4068   3.4214   3.4446   3.4580   3.5104
     3.6129   3.7564   3.7729   3.8200   4.0628   4.0642   4.1284   4.1503
     4.3699   4.3937   4.4118   4.5965   4.6084   4.6643   4.7471   5.0359
     5.0723   5.0767   5.2635   5.3561   5.3593   5.4012   5.4393   5.5941
     6.0865   6.1439   6.1496   6.2182   6.2245   6.2368   6.3017   6.3261
     6.3545   6.3725   6.3790   6.3912   6.4349   6.4371   6.4483   6.4750
     6.5071   6.7564   6.8009   6.8476   7.0264   7.0442   7.0831   7.1036
     7.1123   7.2353   7.2413

          k = 0.5000 0.0000 0.1111 (136853 PWs)   bands (ev):

   -19.4851  -7.2504  -6.2014  -5.8035  -5.7986  -5.1321  -4.7795  -4.7765
    -4.7670  -4.7490  -4.3322  -4.3281  -4.2566  -4.2404  -4.2032  -4.2022
    -4.1771  -4.0582  -4.0448  -4.0362  -3.9985  -3.9531  -3.9523  -3.9516
    -3.9316  -3.9018  -3.8989  -3.8746  -3.8639  -3.8510  -3.8343  -3.7671
    -3.7541  -3.7517  -3.7359  -3.7307  -3.6926  -3.6918  -3.6838  -3.6705
    -3.6680  -3.6649  -3.5932  -3.5902  -3.5321  -3.5292  -3.5161  -3.5081
    -3.4534  -3.4426  -3.4230  -3.4228  -3.3852  -3.3732  -3.3652  -3.3510
    -3.3497  -3.3489  -3.3470  -3.3416  -3.3218  -3.2642  -3.2565  -3.2513
    -3.2315  -3.1999  -3.1725  -3.1652  -3.1183  -3.1176  -3.0912  -3.0900
    -3.0627  -3.0358  -3.0017  -2.9981  -2.9637  -2.9629  -2.9268  -2.9230
    -2.9171  -2.8803  -2.8502  -2.8478  -2.8279  -2.8263  -2.8227  -2.8212
    -2.8208  -2.8159  -2.8108  -2.7576  -2.6995  -2.6981  -2.6973  -2.6964
    -2.6923  -2.6716  -2.6701  -2.6559  -2.5772  -2.5759  -2.5725  -2.5674
    -2.5202  -2.5152  -2.5129  -2.4946  -2.4900  -2.4405  -2.4254  -2.4225
    -2.4195  -2.3803  -2.3792  -2.3771  -2.3382  -2.3365  -2.2846  -2.2592
    -2.2583  -2.2575  -2.2532  -2.2338  -2.2313  -2.2280  -2.2215  -2.2179
    -2.1853  -2.1526  -2.1497  -2.1431  -2.1417  -2.1407  -2.1399  -2.1390
    -2.1383  -2.1206  -2.1047  -2.1037  -2.1030  -2.1007  -2.0987  -2.0867
    -2.0829  -2.0808  -2.0564  -2.0530  -2.0506  -2.0308  -2.0263  -2.0116
    -2.0072  -1.9898  -1.9845  -1.9834  -1.9819  -1.9764  -1.9757  -1.9745
    -1.9702  -1.9607  -1.9585  -1.9453  -1.9424  -1.9377  -1.8582  -1.8565
    -1.8451  -1.8417  -1.8377  -1.8239  -1.8061  -1.7913  -1.7885  -1.7797
    -1.7691  -1.7526  -1.7473  -1.7406  -1.7330  -1.7174  -1.7150  -1.7125
    -1.7062  -1.6922  -1.6684  -1.6395  -1.6306  -1.6188  -1.6002  -1.5930
    -1.5891  -1.5723  -1.5317  -1.5303  -1.5186  -1.5028  -1.4505  -1.4496
    -1.4064  -1.3885  -1.3801  -1.3571  -1.3538  -1.3297  -1.3264  -1.3098
    -1.3089  -1.3070  -1.3034  -1.2895  -1.2519  -1.2505  -1.2487  -1.2436
    -1.2422  -1.2282  -1.2121  -1.2100  -1.2045  -1.1745  -1.1656  -1.1628
    -1.1588  -1.1567  -1.1465  -1.1337  -1.1067  -1.1063  -1.1033  -1.1003
    -1.0865  -1.0678  -1.0348  -1.0246  -1.0218  -1.0193  -1.0000  -0.9942
    -0.9527  -0.9175  -0.8696  -0.8682  -0.8673  -0.8640  -0.8613  -0.8584
    -0.8538  -0.8455  -0.8413  -0.7960  -0.7952  -0.7796  -0.7779  -0.7629
    -0.7495  -0.7477  -0.7371  -0.7345  -0.7340  -0.7323  -0.7284  -0.6907
    -0.6863  -0.6754  -0.6739  -0.6728  -0.6607  -0.6573  -0.6291  -0.6182
    -0.6158  -0.5917  -0.5744  -0.5632  -0.5315  -0.5237  -0.5155  -0.5147
    -0.5083  -0.5052  -0.4983  -0.4968  -0.4913  -0.4865  -0.4653  -0.4637
    -0.4544  -0.4517  -0.4420  -0.4295  -0.4183  -0.4110  -0.4100  -0.3840
    -0.3780  -0.3691  -0.3631  -0.3123  -0.3115  -0.3107  -0.3062  -0.3009
    -0.2963  -0.2936  -0.2768  -0.2725  -0.2649  -0.2628  -0.2582  -0.2554
    -0.2194  -0.2186  -0.2167  -0.2109  -0.2083  -0.2032  -0.2010  -0.1875
    -0.1864  -0.1821  -0.1739  -0.1502  -0.1486  -0.1419  -0.1275  -0.1250
    -0.0750  -0.0732  -0.0460  -0.0444  -0.0368  -0.0336  -0.0033   0.0060
     0.0071   0.0242   0.0265   0.0442   0.1031   0.1095   0.2171   0.6181
     0.6195   0.6443   0.6452   0.7080   0.7173   1.0558   1.0577   1.0677
     1.0754   1.2427   1.3125   1.3943   1.4148   1.6525   1.6778   2.2441
     2.2462   2.3688   2.3836   2.5825   2.5912   2.6551   2.6566   2.7441
     3.0086   3.0361   3.2019   3.4096   3.4209   3.4468   3.4523   3.5157
     3.6128   3.7631   3.7696   3.8218   4.0629   4.0640   4.1352   4.1378
     4.3754   4.3885   4.4126   4.5981   4.6041   4.6636   4.7479   5.0374
     5.0722   5.0777   5.2631   5.3528   5.3580   5.3693   5.4575   5.6211
     6.0823   6.1440   6.1487   6.1832   6.2232   6.2298   6.3016   6.3508
     6.3604   6.3776   6.3826   6.3942   6.4348   6.4437   6.4478   6.4589
     6.5038   6.7513   6.8134   6.8417   7.0348   7.0584   7.0912   7.1064
     7.1110   7.2157   7.2372

          k =-0.5000 0.0000 0.1111 (136853 PWs)   bands (ev):

   -19.4851  -7.2504  -6.2014  -5.8035  -5.7986  -5.1321  -4.7795  -4.7765
    -4.7670  -4.7490  -4.3322  -4.3281  -4.2566  -4.2404  -4.2032  -4.2022
    -4.1771  -4.0582  -4.0448  -4.0362  -3.9985  -3.9531  -3.9523  -3.9516
    -3.9316  -3.9018  -3.8989  -3.8746  -3.8639  -3.8510  -3.8343  -3.7671
    -3.7540  -3.7517  -3.7359  -3.7307  -3.6926  -3.6918  -3.6838  -3.6705
    -3.6680  -3.6649  -3.5932  -3.5902  -3.5321  -3.5292  -3.5161  -3.5081
    -3.4534  -3.4426  -3.4230  -3.4228  -3.3852  -3.3732  -3.3652  -3.3510
    -3.3497  -3.3489  -3.3470  -3.3416  -3.3218  -3.2642  -3.2565  -3.2513
    -3.2315  -3.1999  -3.1725  -3.1652  -3.1183  -3.1176  -3.0912  -3.0900
    -3.0627  -3.0358  -3.0017  -2.9981  -2.9637  -2.9629  -2.9268  -2.9230
    -2.9171  -2.8803  -2.8502  -2.8478  -2.8279  -2.8263  -2.8227  -2.8212
    -2.8208  -2.8159  -2.8108  -2.7576  -2.6995  -2.6981  -2.6973  -2.6964
    -2.6923  -2.6716  -2.6701  -2.6559  -2.5772  -2.5759  -2.5725  -2.5674
    -2.5202  -2.5152  -2.5129  -2.4946  -2.4900  -2.4405  -2.4254  -2.4225
    -2.4195  -2.3803  -2.3792  -2.3771  -2.3382  -2.3365  -2.2846  -2.2592
    -2.2583  -2.2575  -2.2532  -2.2338  -2.2313  -2.2280  -2.2215  -2.2179
    -2.1853  -2.1526  -2.1497  -2.1431  -2.1417  -2.1407  -2.1399  -2.1390
    -2.1383  -2.1206  -2.1047  -2.1037  -2.1030  -2.1007  -2.0987  -2.0867
    -2.0829  -2.0808  -2.0564  -2.0530  -2.0506  -2.0308  -2.0263  -2.0116
    -2.0072  -1.9898  -1.9845  -1.9834  -1.9819  -1.9764  -1.9757  -1.9745
    -1.9702  -1.9607  -1.9585  -1.9453  -1.9424  -1.9377  -1.8582  -1.8565
    -1.8451  -1.8417  -1.8377  -1.8239  -1.8061  -1.7913  -1.7885  -1.7796
    -1.7691  -1.7526  -1.7473  -1.7406  -1.7330  -1.7174  -1.7150  -1.7125
    -1.7062  -1.6922  -1.6684  -1.6395  -1.6306  -1.6188  -1.6002  -1.5930
    -1.5891  -1.5723  -1.5317  -1.5303  -1.5186  -1.5028  -1.4505  -1.4496
    -1.4064  -1.3885  -1.3801  -1.3571  -1.3538  -1.3297  -1.3264  -1.3098
    -1.3089  -1.3071  -1.3034  -1.2895  -1.2519  -1.2505  -1.2487  -1.2436
    -1.2422  -1.2282  -1.2121  -1.2100  -1.2045  -1.1745  -1.1656  -1.1628
    -1.1588  -1.1567  -1.1465  -1.1337  -1.1067  -1.1063  -1.1033  -1.1003
    -1.0865  -1.0678  -1.0348  -1.0246  -1.0218  -1.0193  -1.0000  -0.9942
    -0.9527  -0.9175  -0.8696  -0.8682  -0.8673  -0.8640  -0.8613  -0.8584
    -0.8538  -0.8455  -0.8413  -0.7960  -0.7952  -0.7796  -0.7779  -0.7629
    -0.7495  -0.7477  -0.7371  -0.7345  -0.7340  -0.7323  -0.7284  -0.6907
    -0.6863  -0.6754  -0.6739  -0.6728  -0.6607  -0.6573  -0.6291  -0.6182
    -0.6158  -0.5917  -0.5744  -0.5632  -0.5315  -0.5237  -0.5155  -0.5147
    -0.5083  -0.5052  -0.4983  -0.4968  -0.4913  -0.4865  -0.4653  -0.4637
    -0.4544  -0.4517  -0.4420  -0.4295  -0.4183  -0.4110  -0.4100  -0.3840
    -0.3780  -0.3691  -0.3631  -0.3123  -0.3115  -0.3107  -0.3062  -0.3009
    -0.2963  -0.2936  -0.2768  -0.2725  -0.2649  -0.2628  -0.2582  -0.2554
    -0.2194  -0.2186  -0.2167  -0.2109  -0.2083  -0.2032  -0.2010  -0.1875
    -0.1864  -0.1821  -0.1739  -0.1502  -0.1486  -0.1419  -0.1275  -0.1250
    -0.0750  -0.0732  -0.0460  -0.0444  -0.0368  -0.0336  -0.0033   0.0060
     0.0071   0.0242   0.0265   0.0442   0.1031   0.1095   0.2171   0.6181
     0.6195   0.6443   0.6452   0.7080   0.7173   1.0558   1.0577   1.0677
     1.0754   1.2427   1.3125   1.3943   1.4148   1.6525   1.6778   2.2441
     2.2462   2.3688   2.3836   2.5825   2.5912   2.6551   2.6566   2.7441
     3.0086   3.0361   3.2019   3.4096   3.4209   3.4468   3.4523   3.5157
     3.6128   3.7631   3.7696   3.8218   4.0629   4.0640   4.1353   4.1378
     4.3754   4.3885   4.4126   4.5981   4.6041   4.6636   4.7479   5.0374
     5.0722   5.0777   5.2631   5.3528   5.3580   5.3693   5.4575   5.6211
     6.0823   6.1440   6.1485   6.1833   6.2232   6.2299   6.3015   6.3508
     6.3605   6.3776   6.3826   6.3945   6.4354   6.4423   6.4473   6.4600
     6.5041   6.7515   6.8098   6.8437   7.0354   7.0605   7.0914   7.1031
     7.1146   7.2130   7.2371

          k =-0.2500 0.1443 0.1111 (136898 PWs)   bands (ev):

   -19.4851  -7.2504  -6.4113  -5.6168  -5.3351  -5.2635  -5.2622  -4.7072
    -4.7052  -4.6047  -4.5559  -4.4299  -4.3535  -4.3192  -4.3048  -4.2560
    -4.1881  -4.1852  -4.0572  -4.0396  -4.0056  -4.0035  -3.9853  -3.9839
    -3.9282  -3.8622  -3.8605  -3.7784  -3.7712  -3.7700  -3.7664  -3.7496
    -3.7474  -3.6730  -3.6282  -3.6272  -3.6158  -3.6055  -3.6048  -3.5947
    -3.5876  -3.5848  -3.5389  -3.5347  -3.5286  -3.5277  -3.5177  -3.5127
    -3.4883  -3.4815  -3.4807  -3.4493  -3.4439  -3.4295  -3.4138  -3.3954
    -3.3646  -3.3641  -3.3040  -3.3030  -3.2828  -3.2709  -3.2641  -3.1915
    -3.1907  -3.1831  -3.1815  -3.1669  -3.1651  -3.1435  -3.1407  -2.9911
    -2.9906  -2.9744  -2.9735  -2.9637  -2.9297  -2.9283  -2.9256  -2.9218
    -2.8689  -2.8670  -2.8500  -2.8485  -2.8107  -2.7892  -2.7870  -2.7652
    -2.7580  -2.7564  -2.7132  -2.7112  -2.6942  -2.6923  -2.6873  -2.6838
    -2.6633  -2.6632  -2.6186  -2.6169  -2.6122  -2.6105  -2.5951  -2.5494
    -2.5451  -2.5242  -2.5164  -2.5150  -2.4381  -2.4356  -2.4073  -2.4069
    -2.3982  -2.3900  -2.3674  -2.3413  -2.3406  -2.3241  -2.3197  -2.3178
    -2.3154  -2.3030  -2.2977  -2.2961  -2.2868  -2.2847  -2.2791  -2.2705
    -2.2248  -2.2008  -2.1799  -2.1782  -2.1767  -2.1625  -2.1612  -2.1585
    -2.1574  -2.1479  -2.1186  -2.1163  -2.1041  -2.0996  -2.0868  -2.0857
    -2.0837  -2.0605  -2.0597  -2.0487  -2.0405  -2.0397  -1.9863  -1.9706
    -1.9598  -1.9585  -1.9579  -1.9406  -1.9372  -1.9236  -1.9044  -1.9035
    -1.8998  -1.8981  -1.8899  -1.8805  -1.8760  -1.8624  -1.8494  -1.8454
    -1.8104  -1.7994  -1.7968  -1.7922  -1.7914  -1.7868  -1.7788  -1.7770
    -1.7747  -1.7723  -1.7589  -1.7584  -1.7515  -1.7054  -1.6431  -1.6364
    -1.6140  -1.6124  -1.6035  -1.5877  -1.5844  -1.5756  -1.5712  -1.5575
    -1.5542  -1.5524  -1.5510  -1.5425  -1.5291  -1.5083  -1.5078  -1.4944
    -1.4794  -1.4777  -1.4735  -1.4693  -1.4616  -1.4467  -1.4008  -1.3982
    -1.3750  -1.3716  -1.3663  -1.3614  -1.3381  -1.3369  -1.3327  -1.3318
    -1.3309  -1.3272  -1.3172  -1.3115  -1.2941  -1.2619  -1.2526  -1.2301
    -1.2271  -1.2073  -1.1821  -1.1730  -1.1476  -1.1429  -1.1354  -1.1347
    -1.1234  -1.1073  -1.0962  -1.0873  -1.0798  -1.0541  -1.0524  -1.0368
    -1.0269  -1.0019  -1.0006  -0.9888  -0.9384  -0.9359  -0.9317  -0.9296
    -0.9121  -0.9107  -0.8956  -0.8917  -0.8638  -0.8525  -0.8318  -0.8302
    -0.8272  -0.7956  -0.7804  -0.7794  -0.7757  -0.7710  -0.7630  -0.7625
    -0.7572  -0.7314  -0.7272  -0.7255  -0.7157  -0.7102  -0.7062  -0.6945
    -0.6871  -0.6738  -0.6595  -0.6436  -0.6284  -0.5588  -0.5414  -0.5409
    -0.5401  -0.5374  -0.5340  -0.5286  -0.5087  -0.5035  -0.4835  -0.4791
    -0.4758  -0.4677  -0.4581  -0.4433  -0.4392  -0.4344  -0.4230  -0.3417
    -0.3405  -0.3169  -0.3095  -0.3057  -0.2984  -0.2960  -0.2945  -0.2937
    -0.2871  -0.2827  -0.2632  -0.2341  -0.2246  -0.2080  -0.2053  -0.1989
    -0.1962  -0.1888  -0.1858  -0.1829  -0.1793  -0.1760  -0.1617  -0.1585
    -0.1546  -0.1269  -0.1259  -0.1235  -0.1078  -0.1066  -0.0851  -0.0600
    -0.0577  -0.0499  -0.0460   0.0180   0.0205   0.0355   0.0358   0.0982
     0.0993   0.1005   0.1127   0.1265   0.3318   0.3553   0.6808   0.6812
     0.7490   0.7709   0.9071   0.9353   0.9771   1.0892   1.0986   1.4718
     1.5385   1.5391   1.7722   1.7733   1.8294   2.1269   2.1462   2.1690
     2.1747   2.2025   2.2287   2.3631   2.3669   2.5373   2.5402   2.5477
     2.6851   2.7121   2.7478   2.9551   3.3150   3.3213   3.3569   3.3613
     3.3644   3.3820   3.6955   3.6975   4.0204   4.0373   4.0893   4.3657
     4.4863   4.4999   4.6623   4.6772   4.7805   4.7871   4.8622   5.0213
     5.0275   5.1153   5.1211   5.4054   5.4374   5.4700   5.4744   5.6275
     5.7055   5.8064   5.8122   5.8158   5.8194   5.9542   5.9588   6.0182
     6.2308   6.3863   6.5442   6.6102   6.6335   6.6387   6.6416   6.6498
     6.6771   6.7727   6.8536   6.8618   6.9875   7.1292   7.1673   7.1942
     7.2442   7.3153   7.3616

          k =-0.2500-0.1443-0.1111 (136898 PWs)   bands (ev):

   -19.4851  -7.2504  -6.4113  -5.6169  -5.3352  -5.2636  -5.2618  -4.7067
    -4.7049  -4.6067  -4.5571  -4.4291  -4.3520  -4.3168  -4.3044  -4.2574
    -4.1860  -4.1851  -4.0585  -4.0439  -4.0051  -4.0034  -3.9851  -3.9838
    -3.9306  -3.8620  -3.8615  -3.7773  -3.7711  -3.7699  -3.7662  -3.7499
    -3.7481  -3.6726  -3.6277  -3.6274  -3.6128  -3.6054  -3.6050  -3.5945
    -3.5913  -3.5737  -3.5388  -3.5358  -3.5283  -3.5279  -3.5183  -3.5167
    -3.4819  -3.4813  -3.4790  -3.4509  -3.4475  -3.4292  -3.4193  -3.3910
    -3.3646  -3.3641  -3.3039  -3.3038  -3.2829  -3.2759  -3.2599  -3.1916
    -3.1914  -3.1829  -3.1809  -3.1671  -3.1655  -3.1434  -3.1430  -2.9910
    -2.9905  -2.9754  -2.9698  -2.9654  -2.9298  -2.9277  -2.9263  -2.9244
    -2.8688  -2.8682  -2.8496  -2.8488  -2.8104  -2.7901  -2.7852  -2.7654
    -2.7579  -2.7565  -2.7132  -2.7118  -2.6942  -2.6930  -2.6877  -2.6849
    -2.6630  -2.6628  -2.6200  -2.6151  -2.6123  -2.6102  -2.5946  -2.5492
    -2.5487  -2.5238  -2.5166  -2.5151  -2.4394  -2.4311  -2.4068  -2.4058
    -2.3998  -2.3900  -2.3675  -2.3421  -2.3396  -2.3237  -2.3209  -2.3196
    -2.3137  -2.3053  -2.2962  -2.2921  -2.2867  -2.2838  -2.2798  -2.2755
    -2.2249  -2.2001  -2.1799  -2.1783  -2.1761  -2.1627  -2.1611  -2.1590
    -2.1571  -2.1478  -2.1194  -2.1161  -2.1045  -2.0993  -2.0871  -2.0848
    -2.0826  -2.0621  -2.0596  -2.0488  -2.0409  -2.0394  -1.9840  -1.9711
    -1.9599  -1.9589  -1.9580  -1.9428  -1.9345  -1.9239  -1.9045  -1.9030
    -1.8994  -1.8991  -1.8897  -1.8830  -1.8727  -1.8626  -1.8489  -1.8476
    -1.8103  -1.7996  -1.7928  -1.7915  -1.7899  -1.7869  -1.7852  -1.7776
    -1.7756  -1.7707  -1.7633  -1.7584  -1.7531  -1.6892  -1.6415  -1.6380
    -1.6131  -1.6123  -1.6052  -1.5888  -1.5838  -1.5754  -1.5741  -1.5597
    -1.5549  -1.5523  -1.5510  -1.5460  -1.5240  -1.5095  -1.5080  -1.4940
    -1.4784  -1.4780  -1.4696  -1.4637  -1.4613  -1.4547  -1.4024  -1.3970
    -1.3756  -1.3704  -1.3627  -1.3605  -1.3378  -1.3370  -1.3329  -1.3323
    -1.3269  -1.3240  -1.3169  -1.3144  -1.2989  -1.2579  -1.2531  -1.2300
    -1.2286  -1.2173  -1.1784  -1.1771  -1.1459  -1.1391  -1.1352  -1.1349
    -1.1228  -1.1082  -1.1043  -1.0864  -1.0769  -1.0537  -1.0536  -1.0351
    -1.0307  -1.0020  -0.9991  -0.9884  -0.9372  -0.9344  -0.9297  -0.9281
    -0.9112  -0.9109  -0.8955  -0.8922  -0.8630  -0.8515  -0.8320  -0.8305
    -0.8275  -0.7973  -0.7805  -0.7780  -0.7776  -0.7698  -0.7647  -0.7625
    -0.7601  -0.7313  -0.7274  -0.7266  -0.7128  -0.7106  -0.7040  -0.6982
    -0.6864  -0.6667  -0.6607  -0.6370  -0.6333  -0.5598  -0.5412  -0.5409
    -0.5403  -0.5389  -0.5330  -0.5260  -0.5134  -0.5038  -0.4822  -0.4807
    -0.4751  -0.4710  -0.4581  -0.4420  -0.4386  -0.4369  -0.4225  -0.3418
    -0.3415  -0.3134  -0.3126  -0.3037  -0.3036  -0.2959  -0.2943  -0.2936
    -0.2886  -0.2755  -0.2663  -0.2353  -0.2245  -0.2073  -0.2062  -0.1979
    -0.1975  -0.1902  -0.1855  -0.1823  -0.1786  -0.1765  -0.1614  -0.1585
    -0.1542  -0.1284  -0.1265  -0.1200  -0.1081  -0.1056  -0.0849  -0.0596
    -0.0581  -0.0482  -0.0473   0.0176   0.0212   0.0352   0.0363   0.0983
     0.0992   0.1022   0.1078   0.1264   0.3442   0.3469   0.6809   0.6809
     0.7594   0.7638   0.9059   0.9290   0.9759   1.0900   1.0971   1.4691
     1.5386   1.5399   1.7724   1.7741   1.8303   2.1366   2.1380   2.1719
     2.1722   2.2097   2.2207   2.3624   2.3700   2.5375   2.5405   2.5477
     2.6956   2.6994   2.7462   2.9571   3.3152   3.3239   3.3551   3.3627
     3.3699   3.3760   3.6957   3.6981   4.0289   4.0327   4.0899   4.3653
     4.4916   4.4945   4.6506   4.6805   4.7804   4.7863   4.8650   5.0128
     5.0300   5.1180   5.1184   5.4054   5.4397   5.4661   5.4790   5.6493
     5.7033   5.8083   5.8086   5.8173   5.8190   5.9531   5.9667   6.0069
     6.2055   6.3542   6.5405   6.5985   6.6362   6.6397   6.6447   6.6529
     6.7574   6.7958   6.8537   6.8571   6.9723   7.0841   7.1749   7.1893
     7.2892   7.3089   7.3394

          k = 0.2500 0.1443-0.1111 (136898 PWs)   bands (ev):

   -19.4851  -7.2504  -6.4113  -5.6169  -5.3352  -5.2635  -5.2618  -4.7067
    -4.7049  -4.6067  -4.5571  -4.4291  -4.3520  -4.3168  -4.3044  -4.2574
    -4.1860  -4.1851  -4.0585  -4.0439  -4.0051  -4.0034  -3.9851  -3.9838
    -3.9306  -3.8620  -3.8615  -3.7774  -3.7711  -3.7699  -3.7662  -3.7499
    -3.7481  -3.6726  -3.6277  -3.6274  -3.6128  -3.6054  -3.6050  -3.5944
    -3.5913  -3.5737  -3.5388  -3.5358  -3.5283  -3.5279  -3.5183  -3.5167
    -3.4819  -3.4813  -3.4790  -3.4509  -3.4475  -3.4292  -3.4192  -3.3910
    -3.3646  -3.3641  -3.3039  -3.3038  -3.2829  -3.2759  -3.2599  -3.1916
    -3.1914  -3.1829  -3.1809  -3.1671  -3.1655  -3.1434  -3.1430  -2.9910
    -2.9905  -2.9754  -2.9698  -2.9654  -2.9298  -2.9277  -2.9263  -2.9244
    -2.8688  -2.8682  -2.8496  -2.8488  -2.8104  -2.7901  -2.7852  -2.7654
    -2.7579  -2.7565  -2.7132  -2.7118  -2.6942  -2.6930  -2.6877  -2.6849
    -2.6630  -2.6628  -2.6200  -2.6151  -2.6123  -2.6102  -2.5946  -2.5492
    -2.5487  -2.5238  -2.5166  -2.5151  -2.4394  -2.4311  -2.4068  -2.4058
    -2.3998  -2.3900  -2.3675  -2.3421  -2.3396  -2.3237  -2.3208  -2.3196
    -2.3137  -2.3053  -2.2962  -2.2921  -2.2867  -2.2838  -2.2798  -2.2755
    -2.2249  -2.2001  -2.1799  -2.1783  -2.1761  -2.1627  -2.1611  -2.1590
    -2.1571  -2.1478  -2.1194  -2.1161  -2.1045  -2.0993  -2.0871  -2.0848
    -2.0826  -2.0621  -2.0596  -2.0488  -2.0409  -2.0394  -1.9840  -1.9711
    -1.9599  -1.9589  -1.9580  -1.9428  -1.9345  -1.9239  -1.9045  -1.9031
    -1.8994  -1.8991  -1.8897  -1.8830  -1.8727  -1.8626  -1.8489  -1.8476
    -1.8103  -1.7996  -1.7928  -1.7915  -1.7899  -1.7869  -1.7852  -1.7776
    -1.7756  -1.7707  -1.7633  -1.7584  -1.7531  -1.6892  -1.6415  -1.6380
    -1.6131  -1.6123  -1.6052  -1.5888  -1.5838  -1.5754  -1.5741  -1.5597
    -1.5549  -1.5523  -1.5510  -1.5460  -1.5240  -1.5095  -1.5080  -1.4940
    -1.4784  -1.4780  -1.4696  -1.4637  -1.4613  -1.4547  -1.4024  -1.3970
    -1.3756  -1.3704  -1.3627  -1.3605  -1.3378  -1.3370  -1.3329  -1.3323
    -1.3269  -1.3240  -1.3169  -1.3144  -1.2989  -1.2579  -1.2531  -1.2300
    -1.2286  -1.2173  -1.1784  -1.1771  -1.1459  -1.1391  -1.1352  -1.1349
    -1.1228  -1.1082  -1.1043  -1.0863  -1.0769  -1.0537  -1.0536  -1.0351
    -1.0307  -1.0020  -0.9991  -0.9884  -0.9372  -0.9344  -0.9297  -0.9281
    -0.9112  -0.9109  -0.8955  -0.8922  -0.8630  -0.8515  -0.8320  -0.8305
    -0.8275  -0.7973  -0.7805  -0.7780  -0.7776  -0.7698  -0.7647  -0.7625
    -0.7601  -0.7313  -0.7274  -0.7266  -0.7128  -0.7106  -0.7040  -0.6982
    -0.6864  -0.6667  -0.6607  -0.6370  -0.6333  -0.5598  -0.5412  -0.5409
    -0.5403  -0.5389  -0.5330  -0.5260  -0.5134  -0.5038  -0.4822  -0.4807
    -0.4751  -0.4710  -0.4581  -0.4420  -0.4386  -0.4369  -0.4225  -0.3418
    -0.3415  -0.3134  -0.3126  -0.3037  -0.3036  -0.2959  -0.2943  -0.2936
    -0.2886  -0.2755  -0.2663  -0.2353  -0.2245  -0.2073  -0.2062  -0.1979
    -0.1975  -0.1902  -0.1855  -0.1823  -0.1786  -0.1765  -0.1614  -0.1585
    -0.1542  -0.1284  -0.1265  -0.1200  -0.1081  -0.1056  -0.0849  -0.0596
    -0.0581  -0.0482  -0.0473   0.0176   0.0212   0.0352   0.0363   0.0983
     0.0992   0.1022   0.1078   0.1264   0.3442   0.3469   0.6809   0.6809
     0.7594   0.7638   0.9059   0.9290   0.9759   1.0900   1.0971   1.4691
     1.5386   1.5399   1.7724   1.7741   1.8303   2.1366   2.1380   2.1719
     2.1722   2.2097   2.2207   2.3624   2.3700   2.5375   2.5405   2.5477
     2.6956   2.6994   2.7462   2.9571   3.3152   3.3239   3.3551   3.3627
     3.3699   3.3760   3.6957   3.6981   4.0289   4.0327   4.0899   4.3653
     4.4916   4.4945   4.6506   4.6805   4.7804   4.7863   4.8650   5.0128
     5.0300   5.1180   5.1184   5.4054   5.4397   5.4661   5.4790   5.6493
     5.7033   5.8083   5.8086   5.8173   5.8190   5.9531   5.9667   6.0069
     6.2046   6.3567   6.5407   6.5998   6.6362   6.6387   6.6448   6.6497
     6.7567   6.7948   6.8537   6.8573   6.9644   7.0876   7.1759   7.1892
     7.3000   7.3204   7.3407

          k = 0.0000-0.2887 0.1111 (136898 PWs)   bands (ev):

   -19.4851  -7.2504  -6.4113  -5.6167  -5.3352  -5.2635  -5.2623  -4.7071
    -4.7052  -4.6044  -4.5560  -4.4302  -4.3535  -4.3193  -4.3050  -4.2560
    -4.1881  -4.1852  -4.0569  -4.0394  -4.0057  -4.0033  -3.9856  -3.9839
    -3.9282  -3.8621  -3.8604  -3.7784  -3.7711  -3.7700  -3.7665  -3.7496
    -3.7474  -3.6730  -3.6283  -3.6272  -3.6157  -3.6057  -3.6047  -3.5947
    -3.5875  -3.5849  -3.5390  -3.5346  -3.5286  -3.5275  -3.5179  -3.5128
    -3.4880  -3.4815  -3.4806  -3.4499  -3.4438  -3.4295  -3.4138  -3.3954
    -3.3647  -3.3640  -3.3040  -3.3031  -3.2828  -3.2709  -3.2640  -3.1917
    -3.1907  -3.1831  -3.1814  -3.1671  -3.1651  -3.1436  -3.1407  -2.9911
    -2.9907  -2.9744  -2.9736  -2.9637  -2.9298  -2.9284  -2.9257  -2.9217
    -2.8690  -2.8670  -2.8501  -2.8484  -2.8105  -2.7895  -2.7866  -2.7652
    -2.7581  -2.7564  -2.7132  -2.7112  -2.6942  -2.6923  -2.6874  -2.6840
    -2.6631  -2.6631  -2.6188  -2.6168  -2.6121  -2.6105  -2.5948  -2.5495
    -2.5452  -2.5243  -2.5165  -2.5149  -2.4381  -2.4353  -2.4070  -2.4067
    -2.3982  -2.3899  -2.3675  -2.3414  -2.3404  -2.3241  -2.3197  -2.3184
    -2.3155  -2.3033  -2.2971  -2.2955  -2.2868  -2.2847  -2.2794  -2.2709
    -2.2249  -2.2006  -2.1799  -2.1780  -2.1767  -2.1630  -2.1612  -2.1586
    -2.1573  -2.1481  -2.1184  -2.1162  -2.1042  -2.0997  -2.0867  -2.0856
    -2.0836  -2.0603  -2.0597  -2.0488  -2.0403  -2.0398  -1.9864  -1.9707
    -1.9601  -1.9586  -1.9582  -1.9402  -1.9377  -1.9237  -1.9039  -1.9033
    -1.9000  -1.8981  -1.8898  -1.8787  -1.8760  -1.8625  -1.8511  -1.8450
    -1.8097  -1.7993  -1.7954  -1.7917  -1.7909  -1.7867  -1.7805  -1.7770
    -1.7758  -1.7730  -1.7589  -1.7584  -1.7523  -1.7001  -1.6428  -1.6400
    -1.6138  -1.6121  -1.6042  -1.5879  -1.5847  -1.5758  -1.5715  -1.5578
    -1.5541  -1.5522  -1.5501  -1.5433  -1.5321  -1.5081  -1.5077  -1.4947
    -1.4797  -1.4776  -1.4743  -1.4704  -1.4590  -1.4466  -1.4006  -1.3981
    -1.3748  -1.3707  -1.3661  -1.3613  -1.3381  -1.3369  -1.3329  -1.3322
    -1.3314  -1.3259  -1.3170  -1.3120  -1.2941  -1.2607  -1.2531  -1.2297
    -1.2269  -1.2092  -1.1808  -1.1734  -1.1479  -1.1413  -1.1357  -1.1343
    -1.1233  -1.1084  -1.0957  -1.0869  -1.0799  -1.0539  -1.0524  -1.0366
    -1.0283  -1.0020  -1.0013  -0.9889  -0.9380  -0.9362  -0.9319  -0.9300
    -0.9116  -0.9108  -0.8953  -0.8911  -0.8634  -0.8524  -0.8318  -0.8304
    -0.8273  -0.7958  -0.7805  -0.7791  -0.7762  -0.7707  -0.7638  -0.7626
    -0.7582  -0.7313  -0.7270  -0.7260  -0.7143  -0.7103  -0.7055  -0.6942
    -0.6875  -0.6726  -0.6603  -0.6431  -0.6291  -0.5585  -0.5415  -0.5409
    -0.5400  -0.5373  -0.5341  -0.5286  -0.5100  -0.5036  -0.4831  -0.4794
    -0.4749  -0.4679  -0.4584  -0.4428  -0.4394  -0.4351  -0.4231  -0.3417
    -0.3403  -0.3164  -0.3100  -0.3057  -0.2996  -0.2961  -0.2944  -0.2939
    -0.2870  -0.2809  -0.2635  -0.2351  -0.2245  -0.2079  -0.2054  -0.1989
    -0.1966  -0.1889  -0.1851  -0.1829  -0.1789  -0.1762  -0.1617  -0.1586
    -0.1546  -0.1267  -0.1258  -0.1230  -0.1078  -0.1063  -0.0852  -0.0600
    -0.0577  -0.0498  -0.0464   0.0177   0.0210   0.0353   0.0359   0.0982
     0.0993   0.1007   0.1116   0.1265   0.3343   0.3546   0.6808   0.6812
     0.7508   0.7701   0.9069   0.9336   0.9767   1.0897   1.0984   1.4722
     1.5384   1.5391   1.7721   1.7735   1.8289   2.1292   2.1453   2.1696
     2.1737   2.2036   2.2273   2.3632   2.3663   2.5367   2.5403   2.5479
     2.6868   2.7098   2.7485   2.9545   3.3157   3.3206   3.3577   3.3613
     3.3653   3.3813   3.6955   3.6975   4.0212   4.0367   4.0891   4.3658
     4.4865   4.4983   4.6657   4.6717   4.7803   4.7875   4.8621   5.0221
     5.0271   5.1158   5.1216   5.4053   5.4350   5.4718   5.4760   5.6330
     5.7076   5.8065   5.8120   5.8160   5.8189   5.9543   5.9603   6.0160
     6.2225   6.3723   6.5430   6.6044   6.6335   6.6391   6.6429   6.6509
     6.7117   6.7709   6.8550   6.8618   6.9851   7.1173   7.1763   7.1904
     7.2522   7.3175   7.3516

          k = 0.0000 0.2887 0.1111 (136898 PWs)   bands (ev):

   -19.4851  -7.2504  -6.4113  -5.6167  -5.3352  -5.2635  -5.2623  -4.7071
    -4.7052  -4.6044  -4.5560  -4.4302  -4.3535  -4.3193  -4.3050  -4.2560
    -4.1881  -4.1852  -4.0569  -4.0394  -4.0057  -4.0033  -3.9856  -3.9839
    -3.9282  -3.8621  -3.8604  -3.7784  -3.7711  -3.7700  -3.7665  -3.7496
    -3.7474  -3.6730  -3.6283  -3.6272  -3.6157  -3.6057  -3.6047  -3.5947
    -3.5875  -3.5849  -3.5390  -3.5346  -3.5286  -3.5275  -3.5179  -3.5128
    -3.4880  -3.4815  -3.4806  -3.4499  -3.4438  -3.4295  -3.4138  -3.3954
    -3.3647  -3.3640  -3.3040  -3.3031  -3.2828  -3.2709  -3.2640  -3.1917
    -3.1907  -3.1831  -3.1814  -3.1671  -3.1651  -3.1436  -3.1407  -2.9911
    -2.9907  -2.9744  -2.9736  -2.9637  -2.9298  -2.9284  -2.9257  -2.9217
    -2.8690  -2.8670  -2.8501  -2.8484  -2.8105  -2.7895  -2.7866  -2.7652
    -2.7581  -2.7564  -2.7132  -2.7112  -2.6942  -2.6923  -2.6874  -2.6840
    -2.6631  -2.6631  -2.6188  -2.6168  -2.6121  -2.6105  -2.5948  -2.5495
    -2.5452  -2.5243  -2.5165  -2.5149  -2.4381  -2.4353  -2.4070  -2.4067
    -2.3982  -2.3899  -2.3675  -2.3414  -2.3404  -2.3241  -2.3197  -2.3184
    -2.3155  -2.3033  -2.2971  -2.2955  -2.2868  -2.2847  -2.2794  -2.2709
    -2.2249  -2.2006  -2.1799  -2.1780  -2.1767  -2.1630  -2.1612  -2.1585
    -2.1573  -2.1481  -2.1184  -2.1162  -2.1042  -2.0997  -2.0867  -2.0856
    -2.0836  -2.0603  -2.0597  -2.0488  -2.0403  -2.0399  -1.9864  -1.9707
    -1.9600  -1.9586  -1.9582  -1.9402  -1.9377  -1.9237  -1.9039  -1.9033
    -1.9000  -1.8981  -1.8898  -1.8787  -1.8760  -1.8625  -1.8511  -1.8450
    -1.8097  -1.7993  -1.7954  -1.7917  -1.7909  -1.7867  -1.7805  -1.7770
    -1.7758  -1.7730  -1.7589  -1.7584  -1.7523  -1.7002  -1.6428  -1.6400
    -1.6138  -1.6121  -1.6042  -1.5880  -1.5847  -1.5758  -1.5715  -1.5578
    -1.5541  -1.5522  -1.5501  -1.5433  -1.5321  -1.5081  -1.5077  -1.4947
    -1.4797  -1.4776  -1.4742  -1.4704  -1.4590  -1.4466  -1.4007  -1.3981
    -1.3748  -1.3707  -1.3661  -1.3613  -1.3381  -1.3369  -1.3329  -1.3322
    -1.3314  -1.3259  -1.3170  -1.3120  -1.2941  -1.2607  -1.2531  -1.2297
    -1.2269  -1.2092  -1.1808  -1.1734  -1.1479  -1.1413  -1.1357  -1.1343
    -1.1233  -1.1084  -1.0957  -1.0869  -1.0799  -1.0539  -1.0524  -1.0366
    -1.0283  -1.0020  -1.0013  -0.9889  -0.9380  -0.9362  -0.9319  -0.9300
    -0.9116  -0.9108  -0.8953  -0.8911  -0.8634  -0.8524  -0.8318  -0.8304
    -0.8273  -0.7958  -0.7805  -0.7791  -0.7762  -0.7707  -0.7638  -0.7626
    -0.7582  -0.7313  -0.7270  -0.7260  -0.7143  -0.7103  -0.7055  -0.6942
    -0.6875  -0.6726  -0.6603  -0.6431  -0.6291  -0.5585  -0.5415  -0.5409
    -0.5400  -0.5373  -0.5341  -0.5286  -0.5100  -0.5036  -0.4831  -0.4794
    -0.4749  -0.4679  -0.4584  -0.4428  -0.4394  -0.4351  -0.4231  -0.3416
    -0.3403  -0.3164  -0.3100  -0.3057  -0.2996  -0.2961  -0.2944  -0.2939
    -0.2870  -0.2809  -0.2635  -0.2351  -0.2245  -0.2079  -0.2054  -0.1989
    -0.1966  -0.1889  -0.1851  -0.1828  -0.1789  -0.1762  -0.1617  -0.1586
    -0.1546  -0.1267  -0.1258  -0.1230  -0.1078  -0.1063  -0.0852  -0.0600
    -0.0577  -0.0497  -0.0464   0.0177   0.0210   0.0353   0.0359   0.0982
     0.0993   0.1007   0.1116   0.1265   0.3343   0.3546   0.6808   0.6812
     0.7508   0.7701   0.9069   0.9336   0.9767   1.0897   1.0984   1.4722
     1.5384   1.5391   1.7721   1.7735   1.8289   2.1292   2.1453   2.1696
     2.1737   2.2036   2.2273   2.3632   2.3663   2.5367   2.5403   2.5479
     2.6868   2.7098   2.7485   2.9545   3.3157   3.3206   3.3577   3.3613
     3.3653   3.3813   3.6955   3.6975   4.0212   4.0367   4.0891   4.3658
     4.4865   4.4983   4.6657   4.6717   4.7803   4.7875   4.8621   5.0221
     5.0271   5.1158   5.1216   5.4053   5.4350   5.4717   5.4760   5.6330
     5.7076   5.8065   5.8120   5.8160   5.8189   5.9543   5.9602   6.0160
     6.2233   6.3711   6.5429   6.6039   6.6338   6.6394   6.6435   6.6530
     6.7108   6.7692   6.8550   6.8617   6.9774   7.1166   7.1765   7.1912
     7.2557   7.3270   7.3620

     the Fermi energy is     1.6639 ev

!    total energy              =   -6564.20142112 Ry
     Harris-Foulkes estimate   =   -6564.20142113 Ry
     estimated scf accuracy    <          5.4E-09 Ry

     The total energy is the sum of the following terms:

     one-electron contribution =  -48809.39352674 Ry
     hartree contribution      =   24908.01737015 Ry
     xc contribution           =   -3162.30049162 Ry
     ewald contribution        =   20499.47322456 Ry
     smearing contrib. (-TS)   =       0.00200252 Ry

     convergence has been achieved in  22 iterations

     Writing output data file 1872378.save

     init_run     :    135.52s CPU    144.42s WALL (       1 calls)
     electrons    :   8594.90s CPU   9015.95s WALL (       1 calls)

     Called by init_run:
     wfcinit      :    108.54s CPU    117.11s WALL (       1 calls)
     potinit      :      6.30s CPU      6.38s WALL (       1 calls)

     Called by electrons:
     c_bands      :   7449.07s CPU   7795.41s WALL (      23 calls)
     sum_band     :    903.04s CPU    974.01s WALL (      23 calls)
     v_of_rho     :     12.41s CPU     13.44s WALL (      23 calls)
     newd         :    236.43s CPU    238.67s WALL (      23 calls)
     mix_rho      :      1.95s CPU      2.16s WALL (      23 calls)

     Called by c_bands:
     init_us_2    :     13.70s CPU     14.02s WALL (     564 calls)
     cegterg      :   7197.67s CPU   7542.59s WALL (     276 calls)

     Called by *egterg:
     h_psi        :   2954.46s CPU   3269.41s WALL (    1540 calls)
     s_psi        :    245.41s CPU    247.03s WALL (    1540 calls)
     g_psi        :      5.85s CPU      5.91s WALL (    1252 calls)
     cdiaghg      :   1551.10s CPU   1555.46s WALL (    1516 calls)

     Called by h_psi:
     add_vuspsi   :    244.60s CPU    246.29s WALL (    1540 calls)

     General routines
     calbec       :    885.04s CPU    887.47s WALL (    1816 calls)
     fft          :     82.95s CPU     84.67s WALL (     368 calls)
     ffts         :      1.26s CPU      1.43s WALL (      46 calls)
     fftw         :   2235.48s CPU   2573.67s WALL (  676336 calls)
     interpolate  :      2.95s CPU      3.42s WALL (      46 calls)
     davcio       :      0.02s CPU      0.19s WALL (      12 calls)

     Parallel routines
     fft_scatter  :   1694.08s CPU   1950.26s WALL (  676750 calls)

     PWSCF        :     2h25m CPU        2h32m WALL


   This run was terminated on:  20: 6:54   9Aug2015            

=------------------------------------------------------------------------------=
   JOB DONE.
=------------------------------------------------------------------------------=
