
     Program PWSCF v.5.1.2 starts on 10Aug2015 at 15:43: 9 

     This program is part of the open-source Quantum ESPRESSO suite
     for quantum simulation of materials; please cite
         "P. Giannozzi et al., J. Phys.:Condens. Matter 21 395502 (2009);
          URL http://www.quantum-espresso.org", 
     in publications or presentations arising from this work. More details at
     http://www.quantum-espresso.org/quote

     Parallel version (MPI), running on    32 processors
     R & G space division:  proc/nbgrp/npool/nimage =      32
     Reading input from hollow.O1.Au535758.d.2.5.phi.0.psi.90.in
Warning: card &IONS ignored
Warning: card / ignored
Warning: card &CELL ignored
Warning: card / ignored

     Current dimensions of program PWSCF are:
     Max number of different atomic species (ntypx) = 10
     Max number of k-points (npk) =  40000
     Max angular momentum in pseudopotentials (lmaxx) =  3

     Subspace diagonalization in iterative solution of the eigenvalue problem:
     a serial algorithm will be used


     Parallelization info
     --------------------
     sticks:   dense  smooth     PW     G-vecs:    dense   smooth      PW
     Min         445     223     58                96775    34191    4534
     Max         446     224     59                96790    34246    4540
     Sum       14269    7147   1867              3097177  1095093  145167


     Title: 
     hollow.O1.Au535758.d.2.5.phi.0.psi.90                                      


     bravais-lattice index     =            4
     lattice parameter (alat)  =      22.7436  a.u.
     unit-cell volume          =   22924.1508 (a.u.)^3
     number of atoms/cell      =           67
     number of atomic types    =            3
     number of electrons       =       712.00
     number of Kohn-Sham states=          427
     kinetic-energy cutoff     =      50.0000  Ry
     charge density cutoff     =     400.0000  Ry
     convergence threshold     =      1.0E-08
     mixing beta               =       0.7000
     number of iterations used =            8  plain     mixing
     Exchange-correlation      =  SLA  PW   PBE  PBE ( 1  4  3  4 0 0)

     celldm(1)=  22.743643  celldm(2)=   0.000000  celldm(3)=   2.250000
     celldm(4)=   0.000000  celldm(5)=   0.000000  celldm(6)=   0.000000

     crystal axes: (cart. coord. in units of alat)
               a(1) = (   1.000000   0.000000   0.000000 )  
               a(2) = (  -0.500000   0.866025   0.000000 )  
               a(3) = (   0.000000   0.000000   2.250000 )  

     reciprocal axes: (cart. coord. in units 2 pi/alat)
               b(1) = (  1.000000  0.577350 -0.000000 )  
               b(2) = (  0.000000  1.154701  0.000000 )  
               b(3) = (  0.000000 -0.000000  0.444444 )  


     PseudoPot. # 1 for Au read from file:
     /home/scc/andrejb/qe/pseudo/Au.pbe-nd-van.UPF
     MD5 check sum: 458681b50f36d87ef23c61b04bba420a
     Pseudo is Ultrasoft + core correction, Zval = 11.0
     Generated by new atomic code, or converted to UPF format
     Using radial grid of  985 points,  3 beta functions with: 
                l(1) =   1
                l(2) =   2
                l(3) =   2
     Q(r) pseudized with  8 coefficients,  rinner =    1.100   1.100   1.100
                                                       1.100   1.100

     PseudoPot. # 2 for H  read from file:
     /home/scc/andrejb/qe/pseudo/H.pbe-van_ak.UPF
     MD5 check sum: 403db7282739603aa925980fa9b8608d
     Pseudo is Ultrasoft, Zval =  1.0
     Generated by new atomic code, or converted to UPF format
     Using radial grid of  615 points,  1 beta functions with: 
                l(1) =   0
     Q(r) pseudized with  8 coefficients,  rinner =    0.800

     PseudoPot. # 3 for O  read from file:
     /home/scc/andrejb/qe/pseudo/O.pbe-van_ak.UPF
     MD5 check sum: 4b8c549914a63cae506c6ff22b5af4fe
     Pseudo is Ultrasoft, Zval =  6.0
     Generated by new atomic code, or converted to UPF format
     Using radial grid of  737 points,  4 beta functions with: 
                l(1) =   0
                l(2) =   0
                l(3) =   1
                l(4) =   1
     Q(r) pseudized with  8 coefficients,  rinner =    0.800   0.800   0.800


     atomic species   valence    mass     pseudopotential
        Au            11.00   196.96657     Au( 1.00)
        H              1.00     1.01000     H ( 1.00)
        O              6.00    16.00000     O ( 1.00)

     No symmetry found



   Cartesian axes

     site n.     atom                  positions (alat units)
         1           O   tau(   1) = (  -0.0208375   0.5411347   0.8207265  )
         2           H   tau(   2) = (  -0.0707709   0.4928811   0.7791789  )
         3           H   tau(   3) = (   0.0275819   0.4903739   0.8610334  )
         4           Au  tau(   4) = (   0.3540481   0.6132292   0.0000000  )
         5           Au  tau(   5) = (   0.4790062   0.3967954   0.0000000  )
         6           Au  tau(   6) = (   0.6039644   0.1803616   0.0000000  )
         7           Au  tau(   7) = (   0.7289225  -0.0360723   0.0000000  )
         8           Au  tau(   8) = (   0.1041318   0.6132292   0.0000000  )
         9           Au  tau(   9) = (   0.2290899   0.3967954   0.0000000  )
        10           Au  tau(  10) = (   0.3540481   0.1803616   0.0000000  )
        11           Au  tau(  11) = (   0.4790062  -0.0360723   0.0000000  )
        12           Au  tau(  12) = (  -0.1457845   0.6132292   0.0000000  )
        13           Au  tau(  13) = (  -0.0208264   0.3967954   0.0000000  )
        14           Au  tau(  14) = (   0.1041318   0.1803616   0.0000000  )
        15           Au  tau(  15) = (   0.2290899  -0.0360723   0.0000000  )
        16           Au  tau(  16) = (  -0.3957008   0.6132292   0.0000000  )
        17           Au  tau(  17) = (  -0.2707426   0.3967954   0.0000000  )
        18           Au  tau(  18) = (  -0.1457845   0.1803616   0.0000000  )
        19           Au  tau(  19) = (  -0.0208264  -0.0360723   0.0000000  )
        20           Au  tau(  20) = (   0.4790062   0.6853738   0.2040557  )
        21           Au  tau(  21) = (   0.6039644   0.4689400   0.2040557  )
        22           Au  tau(  22) = (   0.7289225   0.2525061   0.2040557  )
        23           Au  tau(  23) = (   0.8538806   0.0360723   0.2040557  )
        24           Au  tau(  24) = (   0.2290899   0.6853738   0.2040557  )
        25           Au  tau(  25) = (   0.3540481   0.4689400   0.2040557  )
        26           Au  tau(  26) = (   0.4790062   0.2525061   0.2040557  )
        27           Au  tau(  27) = (   0.6039644   0.0360723   0.2040557  )
        28           Au  tau(  28) = (  -0.0208264   0.6853738   0.2040557  )
        29           Au  tau(  29) = (   0.1041318   0.4689400   0.2040557  )
        30           Au  tau(  30) = (   0.2290899   0.2525061   0.2040557  )
        31           Au  tau(  31) = (   0.3540481   0.0360723   0.2040557  )
        32           Au  tau(  32) = (  -0.2707426   0.6853738   0.2040557  )
        33           Au  tau(  33) = (  -0.1457845   0.4689400   0.2040557  )
        34           Au  tau(  34) = (  -0.0208264   0.2525061   0.2040557  )
        35           Au  tau(  35) = (   0.1041318   0.0360723   0.2040557  )
        36           Au  tau(  36) = (   0.3541162   0.7576593   0.4066483  )
        37           Au  tau(  37) = (   0.4791000   0.5411421   0.4066695  )
        38           Au  tau(  38) = (   0.6040570   0.3246862   0.4066617  )
        39           Au  tau(  39) = (   0.7290270   0.1081684   0.4066529  )
        40           Au  tau(  40) = (   0.1041162   0.7576236   0.4066247  )
        41           Au  tau(  41) = (   0.2291001   0.5411063   0.4066455  )
        42           Au  tau(  42) = (   0.3540567   0.3246505   0.4066380  )
        43           Au  tau(  43) = (   0.4790276   0.1081324   0.4066292  )
        44           Au  tau(  44) = (  -0.1458201   0.7576104   0.4066224  )
        45           Au  tau(  45) = (  -0.0208365   0.5410930   0.4066438  )
        46           Au  tau(  46) = (   0.1041202   0.3246372   0.4066359  )
        47           Au  tau(  47) = (   0.2290908   0.1081193   0.4066273  )
        48           Au  tau(  48) = (  -0.3958167   0.7575791   0.4065812  )
        49           Au  tau(  49) = (  -0.2708328   0.5410617   0.4066025  )
        50           Au  tau(  50) = (  -0.1458763   0.3246061   0.4065947  )
        51           Au  tau(  51) = (  -0.0209056   0.1080882   0.4065858  )
        52           Au  tau(  52) = (   0.3541085   0.6133344   0.6129762  )
        53           Au  tau(  53) = (   0.4790780   0.3968269   0.6129968  )
        54           Au  tau(  54) = (   0.6040356   0.1803811   0.6129859  )
        55           Au  tau(  55) = (   0.7290165  -0.0361221   0.6129385  )
        56           Au  tau(  56) = (   0.1041243   0.6133091   0.6130022  )
        57           Au  tau(  57) = (   0.2290941   0.3968013   0.6130241  )
        58           Au  tau(  58) = (   0.3540515   0.1803552   0.6130121  )
        59           Au  tau(  59) = (   0.4790323  -0.0361475   0.6129659  )
        60           Au  tau(  60) = (  -0.1458030   0.6133014   0.6129980  )
        61           Au  tau(  61) = (  -0.0208339   0.3967936   0.6130188  )
        62           Au  tau(  62) = (   0.1041239   0.1803477   0.6130083  )
        63           Au  tau(  63) = (   0.2291046  -0.0361554   0.6129607  )
        64           Au  tau(  64) = (  -0.3957908   0.6132739   0.6129471  )
        65           Au  tau(  65) = (  -0.2708208   0.3967658   0.6129688  )
        66           Au  tau(  66) = (  -0.1458636   0.1803200   0.6129569  )
        67           Au  tau(  67) = (  -0.0208823  -0.0361826   0.6129110  )

     number of k points=    12  Marzari-Vanderbilt smearing, width (Ry)=  0.0200
                       cart. coord. in units 2pi/alat
        k(    1) = (   0.2500000   0.4330127   0.1111111), wk =   0.1666667
        k(    2) = (   0.2500000  -0.1443376   0.1111111), wk =   0.1666667
        k(    3) = (  -0.2500000  -0.4330127   0.1111111), wk =   0.1666667
        k(    4) = (  -0.2500000   0.4330127  -0.1111111), wk =   0.1666667
        k(    5) = (   0.2500000  -0.4330127  -0.1111111), wk =   0.1666667
        k(    6) = (   0.5000000   0.0000000   0.1111111), wk =   0.1666667
        k(    7) = (  -0.5000000   0.0000000   0.1111111), wk =   0.1666667
        k(    8) = (  -0.2500000   0.1443376   0.1111111), wk =   0.1666667
        k(    9) = (  -0.2500000  -0.1443376  -0.1111111), wk =   0.1666667
        k(   10) = (   0.2500000   0.1443376  -0.1111111), wk =   0.1666667
        k(   11) = (   0.0000000  -0.2886751   0.1111111), wk =   0.1666667
        k(   12) = (   0.0000000   0.2886751   0.1111111), wk =   0.1666667

     Dense  grid:  3097177 G-vectors     FFT dimensions: ( 150, 150, 360)

     Smooth grid:  1095093 G-vectors     FFT dimensions: ( 108, 108, 240)

     Largest allocated arrays     est. size (Mb)     dimensions
        Kohn-Sham Wavefunctions        28.01 Mb     (    4299,  427)
        NL pseudopotentials            55.23 Mb     (    4299,  842)
        Each V/rho on FFT grid          4.12 Mb     (  270000)
        Each G-vector array             0.74 Mb     (   96788)
        G-vector shells                 0.16 Mb     (   21404)
     Largest temporary arrays     est. size (Mb)     dimensions
        Auxiliary wavefunctions       112.04 Mb     (    4299, 1708)
        Each subspace H/S matrix       44.51 Mb     (    1708, 1708)
        Each <psi_i|beta_j> matrix      5.49 Mb     (     842,  427)
        Arrays for rho mixing          32.96 Mb     (  270000,    8)

     Initial potential from superposition of free atoms
     Check: negative starting charge=   -1.730345

     starting charge  711.25682, renormalised to  712.00000

     negative rho (up, down):  1.732E+00 0.000E+00
     Starting wfc are  582 randomized atomic wfcs

     total cpu time spent up to now is      173.7 secs

     Self-consistent Calculation

     iteration #  1     ecut=    50.00 Ry     beta=0.70
     Davidson diagonalization with overlap
     ethr =  1.00E-02,  avg # of iterations =  3.0

     Threshold (ethr) on eigenvalues was too large:
     Diagonalizing with lowered threshold

     Davidson diagonalization with overlap
     ethr =  4.22E-04,  avg # of iterations =  3.1

     negative rho (up, down):  1.713E+00 0.000E+00

     total cpu time spent up to now is      900.0 secs

     total energy              =   -6562.25887822 Ry
     Harris-Foulkes estimate   =   -6564.96088472 Ry
     estimated scf accuracy    <       3.48495239 Ry

     iteration #  2     ecut=    50.00 Ry     beta=0.70
     Davidson diagonalization with overlap
     ethr =  4.89E-04,  avg # of iterations = 11.3

     negative rho (up, down):  1.714E+00 0.000E+00

     total cpu time spent up to now is     1822.2 secs

     total energy              =   -6555.26235285 Ry
     Harris-Foulkes estimate   =   -6570.71061385 Ry
     estimated scf accuracy    <      86.62735597 Ry

     iteration #  3     ecut=    50.00 Ry     beta=0.70
     Davidson diagonalization with overlap
     ethr =  4.89E-04,  avg # of iterations =  6.0

     negative rho (up, down):  1.730E+00 0.000E+00

     total cpu time spent up to now is     2456.9 secs

     total energy              =   -6562.80399737 Ry
     Harris-Foulkes estimate   =   -6564.90344094 Ry
     estimated scf accuracy    <       8.58303017 Ry

     iteration #  4     ecut=    50.00 Ry     beta=0.70
     Davidson diagonalization with overlap
     ethr =  4.89E-04,  avg # of iterations =  6.8

     negative rho (up, down):  1.733E+00 0.000E+00

     total cpu time spent up to now is     2873.2 secs

     total energy              =   -6562.64522252 Ry
     Harris-Foulkes estimate   =   -6565.44830128 Ry
     estimated scf accuracy    <      30.28558071 Ry

     iteration #  5     ecut=    50.00 Ry     beta=0.70
     Davidson diagonalization with overlap
     ethr =  4.89E-04,  avg # of iterations =  5.7

     negative rho (up, down):  1.744E+00 0.000E+00

     total cpu time spent up to now is     3269.4 secs

     total energy              =   -6564.07385748 Ry
     Harris-Foulkes estimate   =   -6564.40607214 Ry
     estimated scf accuracy    <       1.87797259 Ry

     iteration #  6     ecut=    50.00 Ry     beta=0.70
     Davidson diagonalization with overlap
     ethr =  2.64E-04,  avg # of iterations =  3.5

     negative rho (up, down):  1.748E+00 0.000E+00

     total cpu time spent up to now is     3628.4 secs

     total energy              =   -6564.17040786 Ry
     Harris-Foulkes estimate   =   -6564.23536526 Ry
     estimated scf accuracy    <       0.20221060 Ry

     iteration #  7     ecut=    50.00 Ry     beta=0.70
     Davidson diagonalization with overlap
     ethr =  2.84E-05,  avg # of iterations =  9.1

     negative rho (up, down):  1.751E+00 0.000E+00

     total cpu time spent up to now is     4105.6 secs

     total energy              =   -6564.18828633 Ry
     Harris-Foulkes estimate   =   -6564.21564580 Ry
     estimated scf accuracy    <       0.11255123 Ry

     iteration #  8     ecut=    50.00 Ry     beta=0.70
     Davidson diagonalization with overlap
     ethr =  1.58E-05,  avg # of iterations =  4.5

     negative rho (up, down):  1.752E+00 0.000E+00

     total cpu time spent up to now is     4474.0 secs

     total energy              =   -6564.19016267 Ry
     Harris-Foulkes estimate   =   -6564.20606580 Ry
     estimated scf accuracy    <       0.05537228 Ry

     iteration #  9     ecut=    50.00 Ry     beta=0.70
     Davidson diagonalization with overlap
     ethr =  7.78E-06,  avg # of iterations =  9.9

     negative rho (up, down):  1.753E+00 0.000E+00

     total cpu time spent up to now is     4918.4 secs

     total energy              =   -6564.19289708 Ry
     Harris-Foulkes estimate   =   -6564.19857234 Ry
     estimated scf accuracy    <       0.01570394 Ry

     iteration # 10     ecut=    50.00 Ry     beta=0.70
     Davidson diagonalization with overlap
     ethr =  2.21E-06,  avg # of iterations =  7.4

     negative rho (up, down):  1.753E+00 0.000E+00

     total cpu time spent up to now is     5400.8 secs

     total energy              =   -6564.19432758 Ry
     Harris-Foulkes estimate   =   -6564.19643579 Ry
     estimated scf accuracy    <       0.00681638 Ry

     iteration # 11     ecut=    50.00 Ry     beta=0.70
     Davidson diagonalization with overlap
     ethr =  9.57E-07,  avg # of iterations =  2.0

     negative rho (up, down):  1.754E+00 0.000E+00

     total cpu time spent up to now is     5722.8 secs

     total energy              =   -6564.19505070 Ry
     Harris-Foulkes estimate   =   -6564.19572792 Ry
     estimated scf accuracy    <       0.00228375 Ry

     iteration # 12     ecut=    50.00 Ry     beta=0.70
     Davidson diagonalization with overlap
     ethr =  3.21E-07,  avg # of iterations =  2.0

     negative rho (up, down):  1.754E+00 0.000E+00

     total cpu time spent up to now is     6042.7 secs

     total energy              =   -6564.19532283 Ry
     Harris-Foulkes estimate   =   -6564.19542349 Ry
     estimated scf accuracy    <       0.00025124 Ry

     iteration # 13     ecut=    50.00 Ry     beta=0.70
     Davidson diagonalization with overlap
     ethr =  3.53E-08,  avg # of iterations =  3.0

     negative rho (up, down):  1.754E+00 0.000E+00

     total cpu time spent up to now is     6450.1 secs

     total energy              =   -6564.19528910 Ry
     Harris-Foulkes estimate   =   -6564.19547588 Ry
     estimated scf accuracy    <       0.00088473 Ry

     iteration # 14     ecut=    50.00 Ry     beta=0.70
     Davidson diagonalization with overlap
     ethr =  3.53E-08,  avg # of iterations =  2.0

     negative rho (up, down):  1.754E+00 0.000E+00

     total cpu time spent up to now is     6790.1 secs

     total energy              =   -6564.19537295 Ry
     Harris-Foulkes estimate   =   -6564.19539606 Ry
     estimated scf accuracy    <       0.00014009 Ry

     iteration # 15     ecut=    50.00 Ry     beta=0.70
     Davidson diagonalization with overlap
     ethr =  1.97E-08,  avg # of iterations =  1.5

     negative rho (up, down):  1.754E+00 0.000E+00

     total cpu time spent up to now is     7093.0 secs

     total energy              =   -6564.19538452 Ry
     Harris-Foulkes estimate   =   -6564.19538797 Ry
     estimated scf accuracy    <       0.00001735 Ry

     iteration # 16     ecut=    50.00 Ry     beta=0.70
     Davidson diagonalization with overlap
     ethr =  2.44E-09,  avg # of iterations =  3.0

     negative rho (up, down):  1.754E+00 0.000E+00

     total cpu time spent up to now is     7463.9 secs

     total energy              =   -6564.19538423 Ry
     Harris-Foulkes estimate   =   -6564.19538895 Ry
     estimated scf accuracy    <       0.00002676 Ry

     iteration # 17     ecut=    50.00 Ry     beta=0.70
     Davidson diagonalization with overlap
     ethr =  2.44E-09,  avg # of iterations =  1.8

     negative rho (up, down):  1.754E+00 0.000E+00

     total cpu time spent up to now is     7776.5 secs

     total energy              =   -6564.19538623 Ry
     Harris-Foulkes estimate   =   -6564.19538701 Ry
     estimated scf accuracy    <       0.00000358 Ry

     iteration # 18     ecut=    50.00 Ry     beta=0.70
     Davidson diagonalization with overlap
     ethr =  5.02E-10,  avg # of iterations =  2.0

     negative rho (up, down):  1.754E+00 0.000E+00

     total cpu time spent up to now is     8101.3 secs

     total energy              =   -6564.19538648 Ry
     Harris-Foulkes estimate   =   -6564.19538701 Ry
     estimated scf accuracy    <       0.00000226 Ry

     iteration # 19     ecut=    50.00 Ry     beta=0.70
     Davidson diagonalization with overlap
     ethr =  3.17E-10,  avg # of iterations =  3.0

     negative rho (up, down):  1.754E+00 0.000E+00

     total cpu time spent up to now is     8443.8 secs

     total energy              =   -6564.19538671 Ry
     Harris-Foulkes estimate   =   -6564.19538680 Ry
     estimated scf accuracy    <       0.00000034 Ry

     iteration # 20     ecut=    50.00 Ry     beta=0.70
     Davidson diagonalization with overlap
     ethr =  4.71E-11,  avg # of iterations =  2.0

     negative rho (up, down):  1.754E+00 0.000E+00

     total cpu time spent up to now is     8768.9 secs

     total energy              =   -6564.19538675 Ry
     Harris-Foulkes estimate   =   -6564.19538677 Ry
     estimated scf accuracy    <       0.00000007 Ry

     iteration # 21     ecut=    50.00 Ry     beta=0.70
     Davidson diagonalization with overlap
     ethr =  1.00E-11,  avg # of iterations =  3.0

     negative rho (up, down):  1.754E+00 0.000E+00

     total cpu time spent up to now is     9168.4 secs

     total energy              =   -6564.19538675 Ry
     Harris-Foulkes estimate   =   -6564.19538677 Ry
     estimated scf accuracy    <       0.00000006 Ry

     iteration # 22     ecut=    50.00 Ry     beta=0.70
     Davidson diagonalization with overlap
     ethr =  8.36E-12,  avg # of iterations =  2.0

     negative rho (up, down):  1.754E+00 0.000E+00

     total cpu time spent up to now is     9498.9 secs

     End of self-consistent calculation

          k = 0.2500 0.4330 0.1111 (136853 PWs)   bands (ev):

   -19.1065  -7.0346  -6.3383  -5.9398  -5.9382  -5.2638  -4.9163  -4.9156
    -4.8917  -4.8880  -4.4689  -4.4676  -4.3865  -4.3489  -4.3432  -4.3418
    -4.3032  -4.1846  -4.1831  -4.1390  -4.0945  -4.0924  -4.0922  -4.0906
    -4.0432  -4.0409  -4.0133  -4.0119  -3.9914  -3.9809  -3.9733  -3.8953
    -3.8942  -3.8776  -3.8756  -3.8348  -3.8316  -3.8312  -3.8105  -3.8100
    -3.8069  -3.7348  -3.7331  -3.6727  -3.6699  -3.6646  -3.6563  -3.6035
    -3.5928  -3.5629  -3.5626  -3.5258  -3.5231  -3.5144  -3.4976  -3.4909
    -3.4897  -3.4879  -3.4817  -3.4625  -3.4091  -3.4082  -3.3978  -3.3790
    -3.3441  -3.3222  -3.3123  -3.2916  -3.2624  -3.2568  -3.2322  -3.2202
    -3.2020  -3.1714  -3.1419  -3.1267  -3.1043  -3.1024  -3.0681  -3.0646
    -3.0623  -3.0189  -2.9911  -2.9900  -2.9707  -2.9692  -2.9632  -2.9617
    -2.9608  -2.9586  -2.9506  -2.8976  -2.8410  -2.8393  -2.8378  -2.8372
    -2.8318  -2.8135  -2.8118  -2.7924  -2.7177  -2.7160  -2.7150  -2.7106
    -2.6604  -2.6543  -2.6541  -2.6365  -2.6341  -2.5816  -2.5718  -2.5643
    -2.5621  -2.5248  -2.5204  -2.5181  -2.4803  -2.4784  -2.4267  -2.4032
    -2.3986  -2.3963  -2.3934  -2.3745  -2.3731  -2.3691  -2.3628  -2.3624
    -2.3257  -2.2982  -2.2912  -2.2871  -2.2842  -2.2822  -2.2817  -2.2798
    -2.2794  -2.2741  -2.2456  -2.2440  -2.2435  -2.2422  -2.2401  -2.2268
    -2.2251  -2.2219  -2.1972  -2.1961  -2.1924  -2.1727  -2.1708  -2.1538
    -2.1515  -2.1335  -2.1259  -2.1234  -2.1226  -2.1212  -2.1153  -2.1147
    -2.1136  -2.1008  -2.0991  -2.0870  -2.0805  -2.0792  -2.0007  -1.9981
    -1.9835  -1.9820  -1.9748  -1.9624  -1.9453  -1.9328  -1.9310  -1.9142
    -1.9059  -1.8935  -1.8919  -1.8829  -1.8655  -1.8572  -1.8514  -1.8509
    -1.8484  -1.8377  -1.8123  -1.7932  -1.7669  -1.7562  -1.7496  -1.7352
    -1.7325  -1.6722  -1.6710  -1.6630  -1.6566  -1.5946  -1.5920  -1.5668
    -1.5470  -1.5296  -1.5181  -1.4976  -1.4919  -1.4711  -1.4671  -1.4508
    -1.4489  -1.4462  -1.4359  -1.4294  -1.3952  -1.3910  -1.3892  -1.3845
    -1.3817  -1.3646  -1.3523  -1.3512  -1.3231  -1.3162  -1.3051  -1.3020
    -1.2989  -1.2959  -1.2743  -1.2642  -1.2474  -1.2464  -1.2438  -1.2406
    -1.2265  -1.1893  -1.1781  -1.1656  -1.1604  -1.1527  -1.1418  -1.1099
    -1.0680  -1.0576  -1.0133  -1.0075  -1.0068  -1.0048  -1.0023  -0.9979
    -0.9916  -0.9875  -0.9612  -0.9367  -0.9329  -0.9208  -0.9138  -0.9027
    -0.8905  -0.8866  -0.8779  -0.8760  -0.8743  -0.8730  -0.8670  -0.8293
    -0.8223  -0.8159  -0.8147  -0.8083  -0.8010  -0.7927  -0.7657  -0.7600
    -0.7482  -0.7268  -0.7136  -0.6986  -0.6723  -0.6639  -0.6565  -0.6557
    -0.6484  -0.6467  -0.6397  -0.6372  -0.6339  -0.6184  -0.6064  -0.6024
    -0.5949  -0.5940  -0.5809  -0.5710  -0.5520  -0.5516  -0.5445  -0.5238
    -0.5169  -0.5052  -0.5004  -0.4546  -0.4525  -0.4511  -0.4459  -0.4402
    -0.4378  -0.4273  -0.4176  -0.4150  -0.4047  -0.4032  -0.4009  -0.3887
    -0.3606  -0.3578  -0.3577  -0.3506  -0.3501  -0.3441  -0.3411  -0.3318
    -0.3239  -0.3223  -0.3033  -0.2906  -0.2870  -0.2828  -0.2676  -0.2651
    -0.2169  -0.2113  -0.1861  -0.1852  -0.1772  -0.1744  -0.1437  -0.1346
    -0.1342  -0.1151  -0.1144  -0.0870  -0.0351  -0.0174   0.0826   0.4773
     0.4802   0.5044   0.5048   0.5657   0.5851   0.9116   0.9173   0.9288
     0.9369   1.1079   1.1736   1.2580   1.2724   1.5179   1.5389   2.1000
     2.1079   2.2296   2.2424   2.4421   2.4552   2.5151   2.5169   2.6037
     2.8782   2.8930   3.0611   3.2735   3.2781   3.3042   3.3104   3.3713
     3.4725   3.6342   3.6432   3.6794   3.9230   3.9240   3.9948   3.9992
     4.2379   4.2442   4.2713   4.4563   4.4663   4.5214   4.6051   4.8936
     4.9257   4.9356   5.1224   5.2167   5.2196   5.3272   5.3354   5.8953
     5.9451   5.9961   6.0106   6.0811   6.0866   6.1606   6.2062   6.2306
     6.2387   6.2447   6.2782   6.3057   6.3127   6.3198   6.3390   6.3977
     6.5486   6.8170   6.8828   6.9289   6.9374   6.9587   6.9609   7.0916
     7.1318   7.1681   7.1913

          k = 0.2500-0.1443 0.1111 (136898 PWs)   bands (ev):

   -19.1065  -7.0353  -6.5472  -5.7550  -5.4670  -5.4018  -5.4008  -4.8454
    -4.8443  -4.7337  -4.6954  -4.5475  -4.4772  -4.4467  -4.4434  -4.3953
    -4.3261  -4.3245  -4.1874  -4.1452  -4.1450  -4.1294  -4.1251  -4.1226
    -4.0029  -4.0017  -3.9243  -3.9119  -3.9098  -3.9094  -3.8907  -3.8891
    -3.8284  -3.7681  -3.7676  -3.7575  -3.7484  -3.7449  -3.7362  -3.7348
    -3.7287  -3.6826  -3.6792  -3.6692  -3.6679  -3.6611  -3.6579  -3.6321
    -3.6243  -3.6209  -3.6060  -3.5916  -3.5714  -3.5705  -3.5492  -3.5045
    -3.5043  -3.4508  -3.4437  -3.4313  -3.4229  -3.4083  -3.3516  -3.3314
    -3.3298  -3.3221  -3.3145  -3.3072  -3.2858  -3.2847  -3.2475  -3.1301
    -3.1292  -3.1166  -3.1133  -3.1103  -3.0700  -3.0685  -3.0662  -3.0610
    -3.0090  -3.0079  -2.9910  -2.9883  -2.9515  -2.9311  -2.9273  -2.9078
    -2.8991  -2.8967  -2.8540  -2.8529  -2.8350  -2.8302  -2.8274  -2.8247
    -2.8041  -2.8030  -2.7626  -2.7579  -2.7527  -2.7509  -2.7358  -2.6910
    -2.6891  -2.6652  -2.6566  -2.6550  -2.5866  -2.5753  -2.5494  -2.5472
    -2.5403  -2.5308  -2.5077  -2.4853  -2.4811  -2.4656  -2.4605  -2.4594
    -2.4545  -2.4458  -2.4421  -2.4354  -2.4285  -2.4264  -2.4200  -2.4144
    -2.3642  -2.3427  -2.3212  -2.3200  -2.3185  -2.3037  -2.3011  -2.2998
    -2.2983  -2.2887  -2.2574  -2.2565  -2.2437  -2.2411  -2.2318  -2.2264
    -2.2259  -2.2025  -2.2014  -2.1894  -2.1812  -2.1793  -2.1274  -2.1106
    -2.1070  -2.1008  -2.0981  -2.0941  -2.0804  -2.0633  -2.0472  -2.0437
    -2.0416  -2.0392  -2.0361  -2.0313  -2.0182  -2.0031  -1.9953  -1.9887
    -1.9596  -1.9412  -1.9390  -1.9359  -1.9319  -1.9281  -1.9210  -1.9172
    -1.9142  -1.9113  -1.9015  -1.8979  -1.8967  -1.8283  -1.7839  -1.7716
    -1.7554  -1.7502  -1.7393  -1.7279  -1.7247  -1.7182  -1.7135  -1.7090
    -1.6953  -1.6925  -1.6914  -1.6885  -1.6518  -1.6498  -1.6481  -1.6303
    -1.6199  -1.6168  -1.6141  -1.6064  -1.6025  -1.5461  -1.5400  -1.5173
    -1.5148  -1.5081  -1.5064  -1.5028  -1.4795  -1.4765  -1.4745  -1.4730
    -1.4719  -1.4591  -1.4572  -1.4440  -1.4190  -1.4003  -1.3771  -1.3726
    -1.3597  -1.3374  -1.3212  -1.3005  -1.2871  -1.2782  -1.2754  -1.2702
    -1.2646  -1.2497  -1.2350  -1.2275  -1.1952  -1.1940  -1.1912  -1.1776
    -1.1488  -1.1435  -1.1291  -1.1070  -1.0796  -1.0726  -1.0715  -1.0575
    -1.0537  -1.0428  -1.0362  -1.0294  -1.0043  -0.9928  -0.9729  -0.9706
    -0.9669  -0.9302  -0.9227  -0.9184  -0.9138  -0.9099  -0.9035  -0.9025
    -0.8898  -0.8713  -0.8696  -0.8670  -0.8534  -0.8479  -0.8450  -0.8319
    -0.8272  -0.8117  -0.7933  -0.7824  -0.7562  -0.6985  -0.6846  -0.6824
    -0.6796  -0.6783  -0.6745  -0.6687  -0.6470  -0.6364  -0.6246  -0.6198
    -0.6170  -0.6016  -0.5973  -0.5843  -0.5801  -0.5640  -0.5530  -0.4820
    -0.4810  -0.4560  -0.4487  -0.4464  -0.4397  -0.4359  -0.4343  -0.4317
    -0.4287  -0.4225  -0.3903  -0.3687  -0.3641  -0.3490  -0.3437  -0.3395
    -0.3355  -0.3298  -0.3267  -0.3218  -0.3197  -0.3146  -0.3016  -0.2992
    -0.2939  -0.2679  -0.2670  -0.2656  -0.2479  -0.2471  -0.2249  -0.1998
    -0.1987  -0.1897  -0.1874  -0.1219  -0.1216  -0.1056  -0.1051  -0.0427
    -0.0420  -0.0403  -0.0214  -0.0167   0.1954   0.2196   0.5404   0.5409
     0.6117   0.6328   0.7668   0.7983   0.8404   0.9481   0.9591   1.3290
     1.3984   1.4000   1.6315   1.6349   1.6930   1.9889   2.0083   2.0292
     2.0354   2.0631   2.0852   2.2215   2.2301   2.3992   2.4007   2.4145
     2.5481   2.5701   2.6040   2.8158   3.1731   3.1854   3.2149   3.2190
     3.2256   3.2386   3.5550   3.5585   3.8802   3.8985   3.9631   4.2250
     4.3435   4.3581   4.5211   4.5679   4.6410   4.6429   4.7223   4.8791
     4.8835   4.9754   4.9787   5.2645   5.3169   5.3269   5.4851   5.5409
     5.6607   5.6722   5.6744   5.6806   5.8063   5.8198   5.8499   5.8984
     6.3000   6.4002   6.4574   6.4935   6.5017   6.5025   6.5092   6.6645
     6.7005   6.7227   6.7900   6.7968   7.0369   7.0553   7.0899   7.2212
     7.3451   7.3665   7.3846

          k =-0.2500-0.4330 0.1111 (136853 PWs)   bands (ev):

   -19.1065  -7.0346  -6.3383  -5.9398  -5.9382  -5.2638  -4.9163  -4.9156
    -4.8917  -4.8880  -4.4689  -4.4676  -4.3865  -4.3489  -4.3432  -4.3418
    -4.3032  -4.1846  -4.1831  -4.1390  -4.0945  -4.0924  -4.0922  -4.0906
    -4.0432  -4.0409  -4.0133  -4.0119  -3.9914  -3.9809  -3.9733  -3.8953
    -3.8942  -3.8776  -3.8756  -3.8348  -3.8316  -3.8312  -3.8105  -3.8100
    -3.8069  -3.7348  -3.7331  -3.6727  -3.6699  -3.6646  -3.6563  -3.6035
    -3.5928  -3.5629  -3.5626  -3.5258  -3.5231  -3.5144  -3.4976  -3.4909
    -3.4897  -3.4879  -3.4817  -3.4625  -3.4091  -3.4082  -3.3978  -3.3790
    -3.3441  -3.3222  -3.3123  -3.2916  -3.2624  -3.2568  -3.2322  -3.2202
    -3.2020  -3.1714  -3.1419  -3.1267  -3.1043  -3.1024  -3.0681  -3.0646
    -3.0623  -3.0189  -2.9911  -2.9900  -2.9707  -2.9692  -2.9632  -2.9617
    -2.9608  -2.9586  -2.9506  -2.8976  -2.8410  -2.8393  -2.8378  -2.8372
    -2.8318  -2.8135  -2.8118  -2.7924  -2.7177  -2.7160  -2.7150  -2.7106
    -2.6604  -2.6543  -2.6541  -2.6365  -2.6341  -2.5816  -2.5718  -2.5643
    -2.5621  -2.5248  -2.5204  -2.5181  -2.4803  -2.4784  -2.4267  -2.4032
    -2.3986  -2.3963  -2.3934  -2.3745  -2.3731  -2.3691  -2.3628  -2.3624
    -2.3257  -2.2982  -2.2912  -2.2871  -2.2842  -2.2822  -2.2817  -2.2798
    -2.2794  -2.2741  -2.2456  -2.2440  -2.2435  -2.2422  -2.2401  -2.2268
    -2.2251  -2.2219  -2.1972  -2.1961  -2.1924  -2.1727  -2.1708  -2.1538
    -2.1515  -2.1335  -2.1259  -2.1234  -2.1226  -2.1212  -2.1153  -2.1147
    -2.1136  -2.1008  -2.0991  -2.0870  -2.0805  -2.0792  -2.0007  -1.9981
    -1.9835  -1.9819  -1.9748  -1.9624  -1.9453  -1.9328  -1.9310  -1.9142
    -1.9059  -1.8935  -1.8919  -1.8829  -1.8655  -1.8572  -1.8514  -1.8509
    -1.8484  -1.8377  -1.8123  -1.7932  -1.7669  -1.7562  -1.7496  -1.7352
    -1.7325  -1.6722  -1.6710  -1.6630  -1.6566  -1.5946  -1.5920  -1.5668
    -1.5470  -1.5296  -1.5181  -1.4976  -1.4919  -1.4711  -1.4671  -1.4508
    -1.4489  -1.4462  -1.4359  -1.4294  -1.3952  -1.3910  -1.3892  -1.3845
    -1.3817  -1.3646  -1.3523  -1.3512  -1.3231  -1.3162  -1.3051  -1.3020
    -1.2989  -1.2959  -1.2743  -1.2642  -1.2474  -1.2464  -1.2438  -1.2406
    -1.2265  -1.1893  -1.1781  -1.1656  -1.1604  -1.1527  -1.1418  -1.1099
    -1.0680  -1.0576  -1.0133  -1.0075  -1.0068  -1.0048  -1.0023  -0.9979
    -0.9916  -0.9875  -0.9612  -0.9367  -0.9329  -0.9208  -0.9138  -0.9027
    -0.8905  -0.8866  -0.8779  -0.8760  -0.8743  -0.8731  -0.8670  -0.8293
    -0.8223  -0.8159  -0.8147  -0.8083  -0.8010  -0.7927  -0.7657  -0.7600
    -0.7483  -0.7268  -0.7136  -0.6986  -0.6723  -0.6639  -0.6565  -0.6557
    -0.6484  -0.6467  -0.6396  -0.6372  -0.6339  -0.6184  -0.6064  -0.6024
    -0.5949  -0.5940  -0.5809  -0.5710  -0.5520  -0.5516  -0.5445  -0.5238
    -0.5169  -0.5052  -0.5004  -0.4546  -0.4525  -0.4511  -0.4459  -0.4402
    -0.4378  -0.4273  -0.4176  -0.4150  -0.4047  -0.4032  -0.4009  -0.3887
    -0.3606  -0.3578  -0.3577  -0.3506  -0.3501  -0.3441  -0.3411  -0.3318
    -0.3239  -0.3223  -0.3033  -0.2906  -0.2870  -0.2828  -0.2676  -0.2651
    -0.2169  -0.2113  -0.1861  -0.1852  -0.1772  -0.1744  -0.1437  -0.1346
    -0.1342  -0.1151  -0.1144  -0.0870  -0.0351  -0.0174   0.0826   0.4773
     0.4802   0.5044   0.5048   0.5657   0.5851   0.9116   0.9173   0.9288
     0.9369   1.1079   1.1736   1.2580   1.2724   1.5179   1.5389   2.1000
     2.1079   2.2296   2.2424   2.4421   2.4552   2.5151   2.5169   2.6037
     2.8782   2.8930   3.0611   3.2735   3.2781   3.3042   3.3104   3.3713
     3.4725   3.6342   3.6432   3.6794   3.9230   3.9240   3.9948   3.9992
     4.2379   4.2442   4.2713   4.4563   4.4663   4.5214   4.6051   4.8936
     4.9257   4.9356   5.1224   5.2167   5.2196   5.3272   5.3354   5.8954
     5.9451   5.9960   6.0106   6.0811   6.0866   6.1607   6.2058   6.2302
     6.2387   6.2447   6.2783   6.3057   6.3127   6.3198   6.3390   6.3973
     6.5526   6.8139   6.8849   6.9258   6.9363   6.9586   6.9604   7.0909
     7.1254   7.1722   7.1901

          k =-0.2500 0.4330-0.1111 (136853 PWs)   bands (ev):

   -19.1065  -7.0345  -6.3385  -5.9406  -5.9374  -5.2639  -4.9170  -4.9146
    -4.8919  -4.8879  -4.4690  -4.4675  -4.3866  -4.3487  -4.3430  -4.3418
    -4.3030  -4.1859  -4.1823  -4.1392  -4.0938  -4.0929  -4.0916  -4.0909
    -4.0433  -4.0412  -4.0145  -4.0112  -3.9914  -3.9805  -3.9736  -3.8955
    -3.8934  -3.8771  -3.8755  -3.8361  -3.8316  -3.8303  -3.8109  -3.8099
    -3.8067  -3.7351  -3.7330  -3.6722  -3.6693  -3.6638  -3.6579  -3.6019
    -3.5941  -3.5630  -3.5624  -3.5270  -3.5236  -3.5150  -3.4985  -3.4908
    -3.4902  -3.4873  -3.4819  -3.4626  -3.4175  -3.4010  -3.3978  -3.3774
    -3.3430  -3.3272  -3.3128  -3.2841  -3.2615  -3.2516  -3.2317  -3.2212
    -3.2021  -3.1729  -3.1432  -3.1301  -3.1045  -3.1016  -3.0682  -3.0654
    -3.0618  -3.0189  -2.9917  -2.9900  -2.9719  -2.9698  -2.9636  -2.9606
    -2.9600  -2.9571  -2.9509  -2.8975  -2.8404  -2.8391  -2.8375  -2.8370
    -2.8315  -2.8142  -2.8108  -2.7927  -2.7199  -2.7160  -2.7147  -2.7103
    -2.6604  -2.6554  -2.6533  -2.6400  -2.6328  -2.5813  -2.5699  -2.5648
    -2.5616  -2.5227  -2.5200  -2.5187  -2.4818  -2.4779  -2.4267  -2.4048
    -2.3987  -2.3972  -2.3933  -2.3746  -2.3714  -2.3686  -2.3638  -2.3622
    -2.3263  -2.2948  -2.2911  -2.2864  -2.2835  -2.2830  -2.2817  -2.2801
    -2.2797  -2.2719  -2.2461  -2.2452  -2.2428  -2.2423  -2.2399  -2.2273
    -2.2256  -2.2216  -2.1980  -2.1957  -2.1920  -2.1761  -2.1723  -2.1548
    -2.1525  -2.1342  -2.1283  -2.1228  -2.1221  -2.1205  -2.1154  -2.1138
    -2.1127  -2.1010  -2.0983  -2.0874  -2.0814  -2.0789  -2.0005  -1.9972
    -1.9840  -1.9817  -1.9695  -1.9639  -1.9545  -1.9372  -1.9313  -1.9143
    -1.9051  -1.8953  -1.8908  -1.8817  -1.8638  -1.8575  -1.8537  -1.8520
    -1.8457  -1.8371  -1.8117  -1.7815  -1.7644  -1.7575  -1.7474  -1.7373
    -1.7325  -1.6726  -1.6704  -1.6622  -1.6579  -1.5945  -1.5913  -1.5741
    -1.5443  -1.5309  -1.5203  -1.4987  -1.4856  -1.4706  -1.4682  -1.4514
    -1.4484  -1.4456  -1.4372  -1.4294  -1.3931  -1.3903  -1.3888  -1.3867
    -1.3810  -1.3644  -1.3523  -1.3509  -1.3256  -1.3143  -1.3063  -1.3018
    -1.2995  -1.2954  -1.2748  -1.2677  -1.2490  -1.2454  -1.2427  -1.2395
    -1.2277  -1.1844  -1.1754  -1.1654  -1.1604  -1.1499  -1.1417  -1.1051
    -1.0752  -1.0585  -1.0126  -1.0083  -1.0071  -1.0029  -1.0011  -0.9993
    -0.9960  -0.9861  -0.9579  -0.9390  -0.9333  -0.9200  -0.9178  -0.9051
    -0.8898  -0.8852  -0.8785  -0.8757  -0.8737  -0.8730  -0.8634  -0.8309
    -0.8222  -0.8166  -0.8140  -0.8080  -0.8017  -0.7999  -0.7658  -0.7595
    -0.7448  -0.7269  -0.7135  -0.6950  -0.6723  -0.6641  -0.6576  -0.6550
    -0.6489  -0.6447  -0.6408  -0.6365  -0.6341  -0.6166  -0.6069  -0.6046
    -0.5966  -0.5901  -0.5816  -0.5703  -0.5537  -0.5519  -0.5452  -0.5233
    -0.5177  -0.5044  -0.4886  -0.4549  -0.4516  -0.4501  -0.4466  -0.4417
    -0.4379  -0.4292  -0.4190  -0.4113  -0.4047  -0.4030  -0.4012  -0.3910
    -0.3607  -0.3593  -0.3550  -0.3512  -0.3489  -0.3435  -0.3407  -0.3299
    -0.3233  -0.3224  -0.3055  -0.2901  -0.2881  -0.2828  -0.2678  -0.2659
    -0.2182  -0.2100  -0.1862  -0.1847  -0.1776  -0.1755  -0.1441  -0.1355
    -0.1336  -0.1161  -0.1147  -0.0818  -0.0376  -0.0264   0.0778   0.4776
     0.4801   0.5041   0.5056   0.5644   0.5846   0.9127   0.9190   0.9290
     0.9359   1.1098   1.1730   1.2543   1.2754   1.5140   1.5411   2.0992
     2.1108   2.2260   2.2460   2.4376   2.4573   2.5148   2.5168   2.6042
     2.8747   2.8997   3.0613   3.2666   3.2823   3.3046   3.3128   3.3760
     3.4724   3.6241   3.6514   3.6816   3.9212   3.9251   3.9898   4.0029
     4.2314   4.2505   4.2726   4.4530   4.4668   4.5218   4.6056   4.8941
     4.9267   4.9354   5.1175   5.2163   5.2197   5.3101   5.3481   5.9040
     5.9427   5.9958   6.0128   6.0777   6.0889   6.1605   6.2100   6.2275
     6.2412   6.2511   6.2789   6.3003   6.3143   6.3168   6.3521   6.3812
     6.5546   6.8124   6.8898   6.9213   6.9332   6.9507   6.9641   7.0940
     7.1277   7.1640   7.1971

          k = 0.2500-0.4330-0.1111 (136853 PWs)   bands (ev):

   -19.1065  -7.0345  -6.3385  -5.9406  -5.9374  -5.2639  -4.9170  -4.9146
    -4.8919  -4.8879  -4.4690  -4.4675  -4.3866  -4.3487  -4.3430  -4.3418
    -4.3030  -4.1859  -4.1823  -4.1392  -4.0938  -4.0929  -4.0916  -4.0909
    -4.0433  -4.0412  -4.0145  -4.0112  -3.9914  -3.9805  -3.9736  -3.8955
    -3.8934  -3.8771  -3.8755  -3.8361  -3.8316  -3.8303  -3.8109  -3.8099
    -3.8067  -3.7351  -3.7330  -3.6722  -3.6693  -3.6638  -3.6579  -3.6019
    -3.5941  -3.5630  -3.5624  -3.5270  -3.5236  -3.5150  -3.4985  -3.4908
    -3.4902  -3.4873  -3.4819  -3.4626  -3.4175  -3.4010  -3.3978  -3.3774
    -3.3430  -3.3272  -3.3128  -3.2841  -3.2615  -3.2516  -3.2317  -3.2212
    -3.2021  -3.1729  -3.1432  -3.1301  -3.1045  -3.1016  -3.0682  -3.0654
    -3.0618  -3.0189  -2.9917  -2.9900  -2.9719  -2.9698  -2.9636  -2.9606
    -2.9600  -2.9571  -2.9509  -2.8975  -2.8404  -2.8391  -2.8375  -2.8370
    -2.8315  -2.8142  -2.8108  -2.7927  -2.7199  -2.7160  -2.7147  -2.7103
    -2.6604  -2.6554  -2.6533  -2.6400  -2.6328  -2.5813  -2.5699  -2.5648
    -2.5616  -2.5227  -2.5200  -2.5187  -2.4818  -2.4779  -2.4267  -2.4048
    -2.3987  -2.3972  -2.3933  -2.3746  -2.3714  -2.3686  -2.3638  -2.3622
    -2.3263  -2.2948  -2.2911  -2.2864  -2.2835  -2.2830  -2.2817  -2.2801
    -2.2797  -2.2719  -2.2461  -2.2452  -2.2428  -2.2423  -2.2399  -2.2273
    -2.2256  -2.2216  -2.1980  -2.1957  -2.1920  -2.1761  -2.1723  -2.1548
    -2.1525  -2.1342  -2.1283  -2.1228  -2.1221  -2.1205  -2.1154  -2.1138
    -2.1127  -2.1010  -2.0983  -2.0874  -2.0814  -2.0789  -2.0005  -1.9972
    -1.9840  -1.9817  -1.9695  -1.9639  -1.9545  -1.9372  -1.9313  -1.9143
    -1.9051  -1.8953  -1.8908  -1.8817  -1.8638  -1.8575  -1.8537  -1.8520
    -1.8457  -1.8371  -1.8117  -1.7815  -1.7644  -1.7575  -1.7474  -1.7373
    -1.7325  -1.6726  -1.6704  -1.6622  -1.6579  -1.5945  -1.5913  -1.5741
    -1.5443  -1.5309  -1.5203  -1.4987  -1.4856  -1.4706  -1.4682  -1.4514
    -1.4484  -1.4456  -1.4372  -1.4294  -1.3931  -1.3903  -1.3888  -1.3867
    -1.3810  -1.3644  -1.3523  -1.3509  -1.3256  -1.3143  -1.3063  -1.3018
    -1.2995  -1.2954  -1.2748  -1.2677  -1.2490  -1.2454  -1.2427  -1.2395
    -1.2277  -1.1844  -1.1754  -1.1654  -1.1604  -1.1499  -1.1417  -1.1051
    -1.0752  -1.0585  -1.0126  -1.0083  -1.0071  -1.0029  -1.0011  -0.9993
    -0.9960  -0.9861  -0.9579  -0.9390  -0.9333  -0.9200  -0.9178  -0.9051
    -0.8898  -0.8852  -0.8785  -0.8757  -0.8737  -0.8730  -0.8634  -0.8309
    -0.8222  -0.8166  -0.8140  -0.8080  -0.8017  -0.7999  -0.7658  -0.7595
    -0.7449  -0.7269  -0.7135  -0.6950  -0.6723  -0.6641  -0.6576  -0.6550
    -0.6489  -0.6447  -0.6408  -0.6365  -0.6341  -0.6166  -0.6069  -0.6046
    -0.5966  -0.5901  -0.5816  -0.5703  -0.5537  -0.5519  -0.5452  -0.5233
    -0.5177  -0.5044  -0.4886  -0.4549  -0.4516  -0.4501  -0.4466  -0.4417
    -0.4379  -0.4292  -0.4190  -0.4113  -0.4047  -0.4030  -0.4012  -0.3910
    -0.3607  -0.3593  -0.3550  -0.3512  -0.3489  -0.3435  -0.3407  -0.3299
    -0.3233  -0.3224  -0.3055  -0.2901  -0.2881  -0.2828  -0.2678  -0.2659
    -0.2182  -0.2100  -0.1862  -0.1847  -0.1776  -0.1755  -0.1441  -0.1355
    -0.1336  -0.1161  -0.1147  -0.0818  -0.0376  -0.0264   0.0778   0.4776
     0.4801   0.5041   0.5056   0.5644   0.5846   0.9127   0.9190   0.9290
     0.9359   1.1098   1.1730   1.2543   1.2754   1.5140   1.5411   2.0992
     2.1108   2.2260   2.2460   2.4376   2.4573   2.5148   2.5168   2.6042
     2.8747   2.8997   3.0613   3.2666   3.2823   3.3046   3.3128   3.3760
     3.4724   3.6241   3.6514   3.6816   3.9212   3.9251   3.9898   4.0029
     4.2314   4.2505   4.2726   4.4530   4.4668   4.5218   4.6056   4.8941
     4.9267   4.9354   5.1175   5.2163   5.2197   5.3101   5.3481   5.9040
     5.9428   5.9958   6.0127   6.0777   6.0889   6.1605   6.2098   6.2274
     6.2413   6.2511   6.2786   6.3005   6.3143   6.3169   6.3522   6.3816
     6.5518   6.8170   6.8890   6.9204   6.9304   6.9541   6.9657   7.0957
     7.1274   7.1677   7.1992

          k = 0.5000 0.0000 0.1111 (136853 PWs)   bands (ev):

   -19.1065  -7.0346  -6.3382  -5.9411  -5.9369  -5.2635  -4.9163  -4.9161
    -4.8935  -4.8863  -4.4690  -4.4668  -4.3863  -4.3486  -4.3424  -4.3416
    -4.3030  -4.1869  -4.1828  -4.1402  -4.0955  -4.0926  -4.0923  -4.0909
    -4.0429  -4.0406  -4.0136  -4.0121  -3.9913  -3.9808  -3.9731  -3.8958
    -3.8939  -3.8764  -3.8754  -3.8338  -3.8316  -3.8311  -3.8107  -3.8100
    -3.8069  -3.7340  -3.7333  -3.6719  -3.6692  -3.6586  -3.6578  -3.5969
    -3.5934  -3.5638  -3.5625  -3.5317  -3.5221  -3.5154  -3.5101  -3.4914
    -3.4898  -3.4883  -3.4821  -3.4628  -3.4249  -3.3991  -3.3979  -3.3743
    -3.3430  -3.3300  -3.3128  -3.2827  -3.2562  -3.2355  -3.2323  -3.2228
    -3.2021  -3.1758  -3.1436  -3.1360  -3.1043  -3.1002  -3.0683  -3.0642
    -3.0631  -3.0197  -2.9938  -2.9882  -2.9722  -2.9698  -2.9627  -2.9608
    -2.9597  -2.9565  -2.9518  -2.8983  -2.8410  -2.8388  -2.8378  -2.8365
    -2.8311  -2.8131  -2.8113  -2.7927  -2.7194  -2.7164  -2.7137  -2.7107
    -2.6605  -2.6550  -2.6536  -2.6399  -2.6314  -2.5814  -2.5701  -2.5652
    -2.5623  -2.5235  -2.5202  -2.5183  -2.4812  -2.4783  -2.4265  -2.4044
    -2.3992  -2.3965  -2.3942  -2.3751  -2.3707  -2.3685  -2.3637  -2.3614
    -2.3270  -2.2958  -2.2913  -2.2880  -2.2838  -2.2822  -2.2807  -2.2804
    -2.2793  -2.2726  -2.2489  -2.2452  -2.2429  -2.2420  -2.2403  -2.2269
    -2.2254  -2.2217  -2.1982  -2.1962  -2.1924  -2.1745  -2.1722  -2.1569
    -2.1502  -2.1353  -2.1256  -2.1240  -2.1217  -2.1191  -2.1161  -2.1136
    -2.1129  -2.1007  -2.0986  -2.0881  -2.0824  -2.0784  -1.9990  -1.9983
    -1.9833  -1.9821  -1.9723  -1.9632  -1.9521  -1.9363  -1.9308  -1.9144
    -1.9057  -1.8928  -1.8903  -1.8828  -1.8636  -1.8555  -1.8522  -1.8507
    -1.8453  -1.8369  -1.8113  -1.7859  -1.7668  -1.7584  -1.7476  -1.7379
    -1.7324  -1.6732  -1.6704  -1.6626  -1.6595  -1.5948  -1.5912  -1.5717
    -1.5445  -1.5269  -1.5214  -1.4978  -1.4881  -1.4694  -1.4676  -1.4512
    -1.4483  -1.4460  -1.4375  -1.4295  -1.3936  -1.3927  -1.3901  -1.3845
    -1.3809  -1.3634  -1.3534  -1.3523  -1.3285  -1.3118  -1.3073  -1.3014
    -1.2995  -1.2967  -1.2741  -1.2654  -1.2481  -1.2458  -1.2438  -1.2383
    -1.2255  -1.1864  -1.1754  -1.1681  -1.1600  -1.1519  -1.1425  -1.1079
    -1.0692  -1.0583  -1.0136  -1.0081  -1.0075  -1.0044  -0.9991  -0.9975
    -0.9937  -0.9888  -0.9598  -0.9392  -0.9330  -0.9225  -0.9142  -0.9023
    -0.8900  -0.8876  -0.8815  -0.8753  -0.8736  -0.8722  -0.8622  -0.8304
    -0.8237  -0.8156  -0.8145  -0.8084  -0.8014  -0.7907  -0.7660  -0.7595
    -0.7509  -0.7304  -0.7142  -0.6952  -0.6728  -0.6646  -0.6572  -0.6546
    -0.6482  -0.6452  -0.6395  -0.6361  -0.6341  -0.6161  -0.6060  -0.6037
    -0.5952  -0.5924  -0.5816  -0.5702  -0.5534  -0.5511  -0.5451  -0.5225
    -0.5171  -0.5048  -0.4931  -0.4541  -0.4522  -0.4503  -0.4462  -0.4398
    -0.4382  -0.4310  -0.4191  -0.4131  -0.4051  -0.4035  -0.4006  -0.3896
    -0.3599  -0.3589  -0.3570  -0.3512  -0.3490  -0.3440  -0.3415  -0.3295
    -0.3234  -0.3217  -0.3075  -0.2919  -0.2866  -0.2825  -0.2671  -0.2649
    -0.2176  -0.2108  -0.1859  -0.1850  -0.1773  -0.1759  -0.1441  -0.1349
    -0.1339  -0.1148  -0.1146  -0.0868  -0.0362  -0.0200   0.0810   0.4772
     0.4807   0.5041   0.5051   0.5652   0.5841   0.9144   0.9176   0.9277
     0.9350   1.1097   1.1735   1.2553   1.2756   1.5126   1.5428   2.1003
     2.1090   2.2270   2.2444   2.4365   2.4590   2.5149   2.5170   2.6037
     2.8803   2.8941   3.0613   3.2672   3.2826   3.3055   3.3120   3.3725
     3.4724   3.6169   3.6566   3.6810   3.9210   3.9256   3.9902   4.0053
     4.2325   4.2489   4.2709   4.4535   4.4661   4.5221   4.6057   4.8918
     4.9268   4.9360   5.1188   5.2157   5.2205   5.3011   5.3586   5.9143
     5.9406   6.0001   6.0135   6.0795   6.0876   6.1611   6.2081   6.2236
     6.2396   6.2518   6.2658   6.2913   6.3129   6.3193   6.3462   6.4038
     6.5482   6.8110   6.8878   6.9261   6.9352   6.9510   6.9671   7.0946
     7.1258   7.1758   7.1943

          k =-0.5000 0.0000 0.1111 (136853 PWs)   bands (ev):

   -19.1065  -7.0346  -6.3382  -5.9411  -5.9369  -5.2635  -4.9163  -4.9161
    -4.8935  -4.8863  -4.4690  -4.4668  -4.3863  -4.3486  -4.3424  -4.3416
    -4.3030  -4.1869  -4.1828  -4.1402  -4.0955  -4.0926  -4.0923  -4.0909
    -4.0429  -4.0406  -4.0136  -4.0121  -3.9913  -3.9808  -3.9731  -3.8958
    -3.8939  -3.8764  -3.8754  -3.8338  -3.8316  -3.8311  -3.8107  -3.8100
    -3.8069  -3.7340  -3.7333  -3.6719  -3.6692  -3.6586  -3.6578  -3.5969
    -3.5934  -3.5638  -3.5625  -3.5317  -3.5221  -3.5154  -3.5101  -3.4914
    -3.4898  -3.4883  -3.4821  -3.4628  -3.4249  -3.3991  -3.3979  -3.3743
    -3.3430  -3.3300  -3.3128  -3.2827  -3.2562  -3.2355  -3.2323  -3.2228
    -3.2021  -3.1758  -3.1436  -3.1360  -3.1043  -3.1002  -3.0683  -3.0642
    -3.0631  -3.0197  -2.9938  -2.9882  -2.9722  -2.9698  -2.9627  -2.9608
    -2.9597  -2.9565  -2.9518  -2.8983  -2.8410  -2.8388  -2.8378  -2.8365
    -2.8311  -2.8131  -2.8113  -2.7927  -2.7194  -2.7164  -2.7137  -2.7107
    -2.6605  -2.6550  -2.6536  -2.6399  -2.6314  -2.5814  -2.5701  -2.5652
    -2.5623  -2.5235  -2.5202  -2.5183  -2.4812  -2.4783  -2.4265  -2.4044
    -2.3992  -2.3965  -2.3942  -2.3751  -2.3707  -2.3685  -2.3637  -2.3614
    -2.3270  -2.2958  -2.2913  -2.2880  -2.2838  -2.2822  -2.2807  -2.2804
    -2.2793  -2.2726  -2.2489  -2.2452  -2.2429  -2.2420  -2.2403  -2.2269
    -2.2254  -2.2217  -2.1982  -2.1962  -2.1924  -2.1745  -2.1722  -2.1569
    -2.1502  -2.1353  -2.1256  -2.1240  -2.1217  -2.1191  -2.1161  -2.1136
    -2.1129  -2.1007  -2.0986  -2.0881  -2.0824  -2.0784  -1.9990  -1.9983
    -1.9833  -1.9821  -1.9723  -1.9632  -1.9521  -1.9363  -1.9308  -1.9144
    -1.9057  -1.8928  -1.8903  -1.8828  -1.8636  -1.8555  -1.8522  -1.8507
    -1.8453  -1.8369  -1.8113  -1.7859  -1.7668  -1.7584  -1.7476  -1.7379
    -1.7324  -1.6732  -1.6704  -1.6626  -1.6595  -1.5948  -1.5912  -1.5717
    -1.5445  -1.5269  -1.5214  -1.4978  -1.4881  -1.4694  -1.4676  -1.4512
    -1.4483  -1.4460  -1.4375  -1.4295  -1.3936  -1.3927  -1.3901  -1.3845
    -1.3809  -1.3634  -1.3534  -1.3523  -1.3285  -1.3118  -1.3073  -1.3014
    -1.2995  -1.2967  -1.2741  -1.2654  -1.2481  -1.2458  -1.2438  -1.2383
    -1.2255  -1.1864  -1.1754  -1.1681  -1.1600  -1.1519  -1.1425  -1.1079
    -1.0692  -1.0583  -1.0136  -1.0081  -1.0075  -1.0044  -0.9991  -0.9975
    -0.9937  -0.9888  -0.9598  -0.9392  -0.9330  -0.9225  -0.9142  -0.9023
    -0.8900  -0.8876  -0.8815  -0.8753  -0.8736  -0.8722  -0.8622  -0.8304
    -0.8237  -0.8156  -0.8145  -0.8084  -0.8014  -0.7907  -0.7660  -0.7595
    -0.7509  -0.7304  -0.7142  -0.6952  -0.6728  -0.6646  -0.6572  -0.6546
    -0.6482  -0.6452  -0.6395  -0.6361  -0.6341  -0.6161  -0.6060  -0.6037
    -0.5952  -0.5924  -0.5816  -0.5702  -0.5534  -0.5511  -0.5451  -0.5225
    -0.5171  -0.5048  -0.4931  -0.4541  -0.4522  -0.4503  -0.4462  -0.4398
    -0.4382  -0.4310  -0.4191  -0.4131  -0.4051  -0.4035  -0.4006  -0.3896
    -0.3599  -0.3589  -0.3570  -0.3512  -0.3490  -0.3440  -0.3415  -0.3295
    -0.3234  -0.3217  -0.3075  -0.2919  -0.2866  -0.2825  -0.2671  -0.2649
    -0.2176  -0.2108  -0.1859  -0.1850  -0.1773  -0.1759  -0.1441  -0.1349
    -0.1339  -0.1148  -0.1146  -0.0868  -0.0362  -0.0200   0.0810   0.4772
     0.4807   0.5041   0.5051   0.5652   0.5841   0.9144   0.9176   0.9277
     0.9350   1.1097   1.1735   1.2553   1.2756   1.5126   1.5428   2.1003
     2.1090   2.2270   2.2444   2.4365   2.4590   2.5149   2.5170   2.6037
     2.8803   2.8941   3.0613   3.2672   3.2826   3.3055   3.3120   3.3725
     3.4724   3.6169   3.6566   3.6810   3.9210   3.9256   3.9902   4.0053
     4.2325   4.2489   4.2709   4.4535   4.4661   4.5221   4.6057   4.8918
     4.9268   4.9360   5.1188   5.2157   5.2205   5.3011   5.3586   5.9145
     5.9406   6.0001   6.0135   6.0795   6.0875   6.1612   6.2073   6.2239
     6.2396   6.2519   6.2657   6.2913   6.3129   6.3193   6.3461   6.4040
     6.5486   6.8150   6.8889   6.9245   6.9294   6.9528   6.9678   7.0942
     7.1176   7.1751   7.1931

          k =-0.2500 0.1443 0.1111 (136898 PWs)   bands (ev):

   -19.1065  -7.0353  -6.5472  -5.7550  -5.4670  -5.4018  -5.4008  -4.8455
    -4.8443  -4.7337  -4.6954  -4.5475  -4.4772  -4.4467  -4.4434  -4.3953
    -4.3261  -4.3245  -4.1874  -4.1452  -4.1450  -4.1294  -4.1251  -4.1226
    -4.0029  -4.0017  -3.9243  -3.9119  -3.9098  -3.9094  -3.8907  -3.8891
    -3.8284  -3.7681  -3.7676  -3.7575  -3.7484  -3.7449  -3.7362  -3.7348
    -3.7287  -3.6826  -3.6792  -3.6692  -3.6679  -3.6611  -3.6579  -3.6321
    -3.6243  -3.6209  -3.6060  -3.5916  -3.5714  -3.5705  -3.5492  -3.5045
    -3.5043  -3.4508  -3.4437  -3.4313  -3.4229  -3.4083  -3.3516  -3.3314
    -3.3298  -3.3221  -3.3145  -3.3072  -3.2858  -3.2846  -3.2475  -3.1301
    -3.1292  -3.1166  -3.1133  -3.1103  -3.0700  -3.0685  -3.0662  -3.0610
    -3.0090  -3.0079  -2.9910  -2.9883  -2.9515  -2.9311  -2.9273  -2.9078
    -2.8991  -2.8967  -2.8540  -2.8529  -2.8350  -2.8302  -2.8274  -2.8247
    -2.8041  -2.8030  -2.7626  -2.7579  -2.7527  -2.7509  -2.7358  -2.6910
    -2.6891  -2.6652  -2.6566  -2.6550  -2.5866  -2.5753  -2.5494  -2.5472
    -2.5403  -2.5308  -2.5077  -2.4853  -2.4811  -2.4656  -2.4605  -2.4594
    -2.4545  -2.4458  -2.4421  -2.4354  -2.4285  -2.4264  -2.4200  -2.4144
    -2.3642  -2.3427  -2.3212  -2.3200  -2.3185  -2.3037  -2.3011  -2.2998
    -2.2983  -2.2887  -2.2574  -2.2565  -2.2437  -2.2411  -2.2317  -2.2264
    -2.2259  -2.2025  -2.2014  -2.1894  -2.1812  -2.1793  -2.1274  -2.1105
    -2.1070  -2.1008  -2.0981  -2.0941  -2.0804  -2.0633  -2.0472  -2.0437
    -2.0417  -2.0392  -2.0361  -2.0313  -2.0182  -2.0031  -1.9953  -1.9887
    -1.9596  -1.9412  -1.9390  -1.9359  -1.9319  -1.9281  -1.9210  -1.9172
    -1.9142  -1.9113  -1.9015  -1.8979  -1.8967  -1.8283  -1.7839  -1.7716
    -1.7554  -1.7502  -1.7393  -1.7279  -1.7247  -1.7182  -1.7135  -1.7090
    -1.6953  -1.6925  -1.6914  -1.6885  -1.6518  -1.6498  -1.6481  -1.6303
    -1.6199  -1.6168  -1.6141  -1.6064  -1.6025  -1.5461  -1.5400  -1.5173
    -1.5148  -1.5081  -1.5064  -1.5028  -1.4795  -1.4765  -1.4745  -1.4730
    -1.4719  -1.4591  -1.4572  -1.4440  -1.4190  -1.4003  -1.3771  -1.3726
    -1.3597  -1.3374  -1.3211  -1.3005  -1.2871  -1.2782  -1.2754  -1.2702
    -1.2646  -1.2497  -1.2350  -1.2275  -1.1952  -1.1940  -1.1912  -1.1776
    -1.1488  -1.1435  -1.1291  -1.1070  -1.0796  -1.0726  -1.0715  -1.0575
    -1.0537  -1.0428  -1.0362  -1.0294  -1.0043  -0.9928  -0.9729  -0.9706
    -0.9669  -0.9302  -0.9227  -0.9184  -0.9138  -0.9099  -0.9035  -0.9025
    -0.8898  -0.8713  -0.8696  -0.8670  -0.8534  -0.8479  -0.8450  -0.8319
    -0.8272  -0.8117  -0.7933  -0.7824  -0.7562  -0.6985  -0.6846  -0.6824
    -0.6796  -0.6783  -0.6745  -0.6687  -0.6470  -0.6364  -0.6246  -0.6198
    -0.6170  -0.6016  -0.5973  -0.5843  -0.5801  -0.5640  -0.5530  -0.4820
    -0.4810  -0.4560  -0.4487  -0.4464  -0.4397  -0.4359  -0.4343  -0.4317
    -0.4287  -0.4225  -0.3903  -0.3687  -0.3641  -0.3490  -0.3438  -0.3395
    -0.3355  -0.3298  -0.3267  -0.3218  -0.3197  -0.3146  -0.3016  -0.2992
    -0.2939  -0.2679  -0.2670  -0.2656  -0.2479  -0.2471  -0.2249  -0.1998
    -0.1987  -0.1897  -0.1874  -0.1219  -0.1216  -0.1056  -0.1051  -0.0427
    -0.0420  -0.0403  -0.0214  -0.0167   0.1954   0.2196   0.5404   0.5409
     0.6117   0.6328   0.7668   0.7983   0.8404   0.9481   0.9591   1.3290
     1.3984   1.4000   1.6315   1.6349   1.6930   1.9889   2.0083   2.0292
     2.0354   2.0631   2.0852   2.2215   2.2301   2.3992   2.4007   2.4145
     2.5481   2.5701   2.6040   2.8158   3.1731   3.1854   3.2149   3.2190
     3.2256   3.2386   3.5550   3.5585   3.8802   3.8985   3.9631   4.2250
     4.3435   4.3581   4.5211   4.5679   4.6410   4.6429   4.7223   4.8791
     4.8835   4.9754   4.9787   5.2645   5.3169   5.3269   5.4851   5.5409
     5.6607   5.6722   5.6744   5.6806   5.8063   5.8198   5.8502   5.8983
     6.2982   6.3995   6.4610   6.4923   6.5006   6.5025   6.5100   6.6653
     6.7009   6.7224   6.7775   6.8114   7.0356   7.0646   7.0910   7.2184
     7.3362   7.3690   7.3850

          k =-0.2500-0.1443-0.1111 (136898 PWs)   bands (ev):

   -19.1065  -7.0354  -6.5471  -5.7548  -5.4670  -5.4023  -5.4007  -4.8455
    -4.8443  -4.7334  -4.6952  -4.5476  -4.4773  -4.4472  -4.4432  -4.3955
    -4.3257  -4.3247  -4.1875  -4.1457  -4.1444  -4.1294  -4.1252  -4.1225
    -4.0025  -4.0016  -3.9245  -3.9115  -3.9104  -3.9094  -3.8904  -3.8892
    -3.8293  -3.7688  -3.7674  -3.7578  -3.7482  -3.7451  -3.7357  -3.7345
    -3.7285  -3.6820  -3.6795  -3.6689  -3.6679  -3.6609  -3.6582  -3.6339
    -3.6228  -3.6208  -3.6022  -3.5935  -3.5714  -3.5696  -3.5495  -3.5047
    -3.5042  -3.4502  -3.4439  -3.4315  -3.4231  -3.4086  -3.3533  -3.3316
    -3.3297  -3.3220  -3.3147  -3.3072  -3.2865  -3.2842  -3.2488  -3.1306
    -3.1267  -3.1157  -3.1147  -3.1097  -3.0703  -3.0691  -3.0668  -3.0610
    -3.0094  -3.0080  -2.9907  -2.9879  -2.9512  -2.9316  -2.9267  -2.9076
    -2.8986  -2.8966  -2.8544  -2.8536  -2.8355  -2.8308  -2.8274  -2.8254
    -2.8037  -2.8029  -2.7619  -2.7570  -2.7527  -2.7515  -2.7358  -2.6933
    -2.6893  -2.6647  -2.6564  -2.6551  -2.5811  -2.5762  -2.5477  -2.5469
    -2.5431  -2.5306  -2.5079  -2.4851  -2.4806  -2.4679  -2.4611  -2.4593
    -2.4558  -2.4475  -2.4380  -2.4344  -2.4290  -2.4266  -2.4212  -2.4151
    -2.3642  -2.3417  -2.3202  -2.3199  -2.3184  -2.3025  -2.3015  -2.2997
    -2.2988  -2.2889  -2.2574  -2.2556  -2.2442  -2.2408  -2.2305  -2.2261
    -2.2253  -2.2026  -2.2015  -2.1932  -2.1806  -2.1794  -2.1275  -2.1109
    -2.1044  -2.0999  -2.0985  -2.0922  -2.0794  -2.0635  -2.0485  -2.0438
    -2.0429  -2.0388  -2.0345  -2.0297  -2.0187  -2.0034  -1.9990  -1.9890
    -1.9562  -1.9408  -1.9393  -1.9349  -1.9311  -1.9283  -1.9208  -1.9174
    -1.9151  -1.9130  -1.9031  -1.8980  -1.8973  -1.8209  -1.7838  -1.7733
    -1.7538  -1.7513  -1.7414  -1.7278  -1.7249  -1.7209  -1.7135  -1.7060
    -1.6944  -1.6922  -1.6911  -1.6884  -1.6533  -1.6493  -1.6482  -1.6298
    -1.6207  -1.6172  -1.6150  -1.6107  -1.6016  -1.5524  -1.5411  -1.5222
    -1.5157  -1.5074  -1.5031  -1.4998  -1.4796  -1.4771  -1.4739  -1.4725
    -1.4715  -1.4617  -1.4571  -1.4483  -1.4148  -1.4003  -1.3774  -1.3722
    -1.3625  -1.3360  -1.3204  -1.2961  -1.2876  -1.2768  -1.2759  -1.2737
    -1.2642  -1.2512  -1.2315  -1.2265  -1.1975  -1.1937  -1.1835  -1.1777
    -1.1442  -1.1432  -1.1296  -1.1079  -1.0781  -1.0753  -1.0722  -1.0691
    -1.0534  -1.0468  -1.0344  -1.0257  -1.0046  -0.9925  -0.9730  -0.9716
    -0.9662  -0.9318  -0.9204  -0.9188  -0.9145  -0.9103  -0.9041  -0.9027
    -0.8891  -0.8712  -0.8690  -0.8666  -0.8515  -0.8474  -0.8442  -0.8336
    -0.8290  -0.8103  -0.7890  -0.7813  -0.7599  -0.6976  -0.6844  -0.6820
    -0.6802  -0.6776  -0.6761  -0.6691  -0.6467  -0.6393  -0.6236  -0.6205
    -0.6164  -0.6030  -0.5955  -0.5846  -0.5791  -0.5639  -0.5542  -0.4815
    -0.4803  -0.4549  -0.4493  -0.4457  -0.4420  -0.4362  -0.4346  -0.4332
    -0.4295  -0.4206  -0.3912  -0.3664  -0.3640  -0.3475  -0.3463  -0.3395
    -0.3372  -0.3298  -0.3268  -0.3251  -0.3193  -0.3116  -0.3021  -0.2992
    -0.2953  -0.2680  -0.2666  -0.2619  -0.2474  -0.2459  -0.2251  -0.2001
    -0.1986  -0.1897  -0.1872  -0.1221  -0.1209  -0.1061  -0.1047  -0.0426
    -0.0416  -0.0400  -0.0235  -0.0167   0.1973   0.2203   0.5406   0.5411
     0.6147   0.6315   0.7670   0.7954   0.8418   0.9498   0.9598   1.3330
     1.3984   1.3989   1.6318   1.6341   1.6924   1.9940   2.0062   2.0281
     2.0313   2.0668   2.0823   2.2231   2.2247   2.3979   2.4007   2.4149
     2.5514   2.5644   2.6110   2.8152   3.1750   3.1777   3.2156   3.2184
     3.2268   3.2386   3.5553   3.5572   3.8839   3.8953   3.9603   4.2261
     4.3468   4.3533   4.5319   4.5612   4.6402   4.6419   4.7217   4.8795
     4.8850   4.9756   4.9812   5.2629   5.3214   5.3279   5.4928   5.5357
     5.6662   5.6698   5.6745   5.6780   5.8061   5.8193   5.8393   5.9028
     6.2989   6.3988   6.4467   6.4883   6.4952   6.5026   6.5124   6.6710
     6.7087   6.7182   6.7923   6.8173   7.0349   7.0693   7.0794   7.2054
     7.3579   7.3659   7.3832

          k = 0.2500 0.1443-0.1111 (136898 PWs)   bands (ev):

   -19.1065  -7.0354  -6.5471  -5.7548  -5.4670  -5.4023  -5.4007  -4.8455
    -4.8443  -4.7334  -4.6952  -4.5476  -4.4773  -4.4472  -4.4432  -4.3955
    -4.3257  -4.3247  -4.1875  -4.1457  -4.1444  -4.1294  -4.1252  -4.1225
    -4.0025  -4.0016  -3.9245  -3.9115  -3.9104  -3.9094  -3.8904  -3.8892
    -3.8293  -3.7688  -3.7674  -3.7578  -3.7482  -3.7451  -3.7357  -3.7345
    -3.7285  -3.6820  -3.6795  -3.6689  -3.6679  -3.6609  -3.6582  -3.6339
    -3.6228  -3.6208  -3.6022  -3.5935  -3.5714  -3.5696  -3.5495  -3.5047
    -3.5042  -3.4502  -3.4439  -3.4315  -3.4231  -3.4086  -3.3533  -3.3316
    -3.3297  -3.3220  -3.3147  -3.3072  -3.2865  -3.2842  -3.2488  -3.1306
    -3.1267  -3.1157  -3.1147  -3.1097  -3.0703  -3.0691  -3.0668  -3.0610
    -3.0094  -3.0080  -2.9907  -2.9879  -2.9512  -2.9316  -2.9267  -2.9076
    -2.8986  -2.8966  -2.8544  -2.8536  -2.8355  -2.8307  -2.8274  -2.8254
    -2.8038  -2.8029  -2.7619  -2.7570  -2.7527  -2.7515  -2.7358  -2.6933
    -2.6893  -2.6647  -2.6564  -2.6551  -2.5811  -2.5762  -2.5477  -2.5469
    -2.5431  -2.5306  -2.5079  -2.4850  -2.4806  -2.4679  -2.4611  -2.4593
    -2.4558  -2.4475  -2.4380  -2.4344  -2.4290  -2.4266  -2.4212  -2.4151
    -2.3642  -2.3417  -2.3202  -2.3199  -2.3184  -2.3025  -2.3015  -2.2997
    -2.2988  -2.2889  -2.2574  -2.2556  -2.2442  -2.2407  -2.2305  -2.2261
    -2.2253  -2.2026  -2.2015  -2.1932  -2.1806  -2.1795  -2.1275  -2.1109
    -2.1044  -2.0999  -2.0985  -2.0922  -2.0794  -2.0635  -2.0485  -2.0438
    -2.0429  -2.0388  -2.0345  -2.0297  -2.0187  -2.0034  -1.9990  -1.9890
    -1.9562  -1.9408  -1.9393  -1.9349  -1.9311  -1.9283  -1.9208  -1.9174
    -1.9151  -1.9130  -1.9031  -1.8980  -1.8973  -1.8209  -1.7838  -1.7733
    -1.7538  -1.7513  -1.7414  -1.7278  -1.7249  -1.7209  -1.7135  -1.7060
    -1.6944  -1.6922  -1.6911  -1.6884  -1.6533  -1.6493  -1.6482  -1.6298
    -1.6207  -1.6172  -1.6150  -1.6107  -1.6016  -1.5524  -1.5411  -1.5222
    -1.5157  -1.5074  -1.5031  -1.4998  -1.4796  -1.4771  -1.4739  -1.4725
    -1.4715  -1.4617  -1.4571  -1.4483  -1.4148  -1.4003  -1.3774  -1.3722
    -1.3625  -1.3360  -1.3204  -1.2961  -1.2876  -1.2768  -1.2759  -1.2737
    -1.2642  -1.2512  -1.2315  -1.2265  -1.1975  -1.1937  -1.1836  -1.1778
    -1.1442  -1.1432  -1.1296  -1.1079  -1.0781  -1.0753  -1.0722  -1.0691
    -1.0534  -1.0468  -1.0344  -1.0257  -1.0046  -0.9925  -0.9730  -0.9716
    -0.9662  -0.9318  -0.9204  -0.9188  -0.9145  -0.9103  -0.9041  -0.9027
    -0.8891  -0.8712  -0.8690  -0.8666  -0.8515  -0.8474  -0.8442  -0.8336
    -0.8290  -0.8103  -0.7890  -0.7813  -0.7599  -0.6976  -0.6844  -0.6820
    -0.6802  -0.6776  -0.6761  -0.6691  -0.6467  -0.6393  -0.6236  -0.6205
    -0.6164  -0.6030  -0.5955  -0.5846  -0.5791  -0.5639  -0.5542  -0.4815
    -0.4802  -0.4549  -0.4493  -0.4457  -0.4420  -0.4362  -0.4346  -0.4332
    -0.4295  -0.4205  -0.3912  -0.3664  -0.3640  -0.3475  -0.3463  -0.3395
    -0.3372  -0.3298  -0.3268  -0.3251  -0.3193  -0.3116  -0.3021  -0.2992
    -0.2953  -0.2680  -0.2666  -0.2619  -0.2474  -0.2459  -0.2251  -0.2001
    -0.1986  -0.1897  -0.1872  -0.1221  -0.1209  -0.1061  -0.1047  -0.0426
    -0.0416  -0.0400  -0.0235  -0.0167   0.1973   0.2203   0.5406   0.5411
     0.6147   0.6315   0.7670   0.7954   0.8418   0.9498   0.9598   1.3331
     1.3984   1.3989   1.6318   1.6341   1.6924   1.9940   2.0062   2.0281
     2.0312   2.0668   2.0823   2.2231   2.2247   2.3979   2.4007   2.4149
     2.5514   2.5644   2.6110   2.8152   3.1750   3.1777   3.2156   3.2184
     3.2268   3.2386   3.5553   3.5572   3.8839   3.8953   3.9603   4.2261
     4.3468   4.3533   4.5319   4.5612   4.6402   4.6419   4.7217   4.8795
     4.8850   4.9756   4.9812   5.2629   5.3214   5.3279   5.4928   5.5357
     5.6662   5.6698   5.6745   5.6780   5.8061   5.8193   5.8392   5.9033
     6.2950   6.3975   6.4546   6.4881   6.4951   6.5026   6.5138   6.6714
     6.7101   6.7181   6.7849   6.8159   7.0262   7.0684   7.0815   7.2125
     7.3526   7.3673   7.3851

          k = 0.0000-0.2887 0.1111 (136898 PWs)   bands (ev):

   -19.1065  -7.0353  -6.5472  -5.7552  -5.4671  -5.4015  -5.4008  -4.8451
    -4.8443  -4.7345  -4.6958  -4.5476  -4.4772  -4.4452  -4.4430  -4.3963
    -4.3252  -4.3245  -4.1875  -4.1453  -4.1450  -4.1296  -4.1245  -4.1233
    -4.0023  -4.0017  -3.9249  -3.9118  -3.9100  -3.9092  -3.8898  -3.8892
    -3.8300  -3.7694  -3.7677  -3.7596  -3.7476  -3.7449  -3.7354  -3.7346
    -3.7307  -3.6806  -3.6791  -3.6688  -3.6679  -3.6593  -3.6580  -3.6388
    -3.6219  -3.6208  -3.5955  -3.5933  -3.5713  -3.5692  -3.5533  -3.5044
    -3.5042  -3.4484  -3.4437  -3.4306  -3.4226  -3.4095  -3.3537  -3.3312
    -3.3302  -3.3220  -3.3141  -3.3073  -3.2855  -3.2846  -3.2545  -3.1301
    -3.1250  -3.1161  -3.1125  -3.1089  -3.0703  -3.0697  -3.0666  -3.0650
    -3.0090  -3.0085  -2.9895  -2.9875  -2.9506  -2.9319  -2.9279  -2.9072
    -2.8982  -2.8957  -2.8545  -2.8534  -2.8344  -2.8333  -2.8273  -2.8266
    -2.8031  -2.8023  -2.7606  -2.7586  -2.7529  -2.7521  -2.7355  -2.6925
    -2.6898  -2.6645  -2.6560  -2.6555  -2.5818  -2.5772  -2.5479  -2.5470
    -2.5416  -2.5304  -2.5079  -2.4848  -2.4815  -2.4670  -2.4614  -2.4594
    -2.4572  -2.4474  -2.4370  -2.4333  -2.4292  -2.4271  -2.4193  -2.4170
    -2.3642  -2.3414  -2.3202  -2.3198  -2.3184  -2.3031  -2.3009  -2.3003
    -2.2988  -2.2886  -2.2569  -2.2559  -2.2441  -2.2408  -2.2313  -2.2267
    -2.2250  -2.2029  -2.2016  -2.1914  -2.1804  -2.1797  -2.1270  -2.1107
    -2.1062  -2.1000  -2.0986  -2.0905  -2.0813  -2.0635  -2.0452  -2.0438
    -2.0423  -2.0399  -2.0352  -2.0281  -2.0192  -2.0033  -1.9984  -1.9886
    -1.9562  -1.9412  -1.9393  -1.9359  -1.9323  -1.9281  -1.9202  -1.9182
    -1.9160  -1.9132  -1.9036  -1.8979  -1.8972  -1.8202  -1.7847  -1.7763
    -1.7542  -1.7496  -1.7364  -1.7298  -1.7260  -1.7192  -1.7152  -1.7042
    -1.6941  -1.6925  -1.6909  -1.6902  -1.6520  -1.6501  -1.6482  -1.6308
    -1.6211  -1.6172  -1.6155  -1.6070  -1.6041  -1.5494  -1.5410  -1.5223
    -1.5151  -1.5073  -1.5032  -1.5008  -1.4800  -1.4765  -1.4745  -1.4730
    -1.4716  -1.4584  -1.4572  -1.4453  -1.4167  -1.4020  -1.3777  -1.3716
    -1.3595  -1.3346  -1.3216  -1.2990  -1.2881  -1.2789  -1.2759  -1.2723
    -1.2646  -1.2487  -1.2316  -1.2279  -1.1955  -1.1942  -1.1852  -1.1780
    -1.1468  -1.1423  -1.1295  -1.1112  -1.0795  -1.0747  -1.0719  -1.0647
    -1.0537  -1.0452  -1.0361  -1.0237  -1.0039  -0.9923  -0.9719  -0.9699
    -0.9673  -0.9310  -0.9214  -0.9195  -0.9123  -0.9097  -0.9033  -0.9026
    -0.8927  -0.8713  -0.8697  -0.8671  -0.8551  -0.8486  -0.8468  -0.8309
    -0.8213  -0.8128  -0.7888  -0.7821  -0.7617  -0.6974  -0.6844  -0.6827
    -0.6804  -0.6790  -0.6738  -0.6682  -0.6476  -0.6382  -0.6235  -0.6199
    -0.6181  -0.6027  -0.5973  -0.5842  -0.5798  -0.5643  -0.5527  -0.4820
    -0.4799  -0.4554  -0.4508  -0.4450  -0.4415  -0.4362  -0.4345  -0.4320
    -0.4290  -0.4212  -0.3838  -0.3746  -0.3639  -0.3486  -0.3440  -0.3394
    -0.3375  -0.3316  -0.3266  -0.3221  -0.3196  -0.3128  -0.3015  -0.2994
    -0.2941  -0.2682  -0.2667  -0.2626  -0.2481  -0.2455  -0.2247  -0.1995
    -0.1992  -0.1896  -0.1884  -0.1228  -0.1199  -0.1058  -0.1048  -0.0428
    -0.0417  -0.0401  -0.0233  -0.0168   0.1957   0.2217   0.5405   0.5411
     0.6128   0.6328   0.7669   0.7960   0.8416   0.9481   0.9593   1.3309
     1.3985   1.3994   1.6314   1.6346   1.6927   1.9927   2.0052   2.0279
     2.0345   2.0651   2.0837   2.2202   2.2297   2.3993   2.4008   2.4149
     2.5511   2.5661   2.6060   2.8160   3.1692   3.1853   3.2155   3.2210
     3.2258   3.2383   3.5547   3.5581   3.8842   3.8957   3.9602   4.2261
     4.3456   4.3550   4.5373   4.5555   4.6403   4.6432   4.7223   4.8779
     4.8866   4.9761   4.9784   5.2633   5.3189   5.3297   5.5045   5.5220
     5.6646   5.6701   5.6746   5.6800   5.8048   5.8184   5.8245   5.9140
     6.3022   6.3992   6.4669   6.4870   6.5017   6.5042   6.5111   6.6739
     6.7069   6.7229   6.7681   6.7925   7.0355   7.0562   7.0898   7.2435
     7.3276   7.3652   7.3816

          k = 0.0000 0.2887 0.1111 (136898 PWs)   bands (ev):

   -19.1065  -7.0353  -6.5472  -5.7552  -5.4671  -5.4015  -5.4008  -4.8451
    -4.8443  -4.7345  -4.6958  -4.5476  -4.4772  -4.4452  -4.4430  -4.3963
    -4.3252  -4.3245  -4.1875  -4.1453  -4.1450  -4.1296  -4.1245  -4.1233
    -4.0023  -4.0017  -3.9249  -3.9118  -3.9100  -3.9092  -3.8898  -3.8892
    -3.8300  -3.7694  -3.7677  -3.7596  -3.7476  -3.7449  -3.7353  -3.7346
    -3.7307  -3.6806  -3.6791  -3.6688  -3.6679  -3.6593  -3.6580  -3.6388
    -3.6219  -3.6208  -3.5955  -3.5933  -3.5713  -3.5692  -3.5533  -3.5044
    -3.5042  -3.4484  -3.4437  -3.4306  -3.4226  -3.4095  -3.3537  -3.3312
    -3.3302  -3.3220  -3.3141  -3.3073  -3.2855  -3.2846  -3.2545  -3.1301
    -3.1250  -3.1161  -3.1125  -3.1089  -3.0703  -3.0697  -3.0666  -3.0650
    -3.0090  -3.0085  -2.9895  -2.9875  -2.9506  -2.9319  -2.9279  -2.9072
    -2.8982  -2.8957  -2.8545  -2.8534  -2.8344  -2.8333  -2.8273  -2.8266
    -2.8031  -2.8023  -2.7606  -2.7586  -2.7529  -2.7521  -2.7355  -2.6925
    -2.6898  -2.6645  -2.6560  -2.6555  -2.5818  -2.5772  -2.5479  -2.5470
    -2.5416  -2.5304  -2.5079  -2.4848  -2.4815  -2.4670  -2.4614  -2.4594
    -2.4572  -2.4474  -2.4370  -2.4333  -2.4292  -2.4271  -2.4193  -2.4170
    -2.3642  -2.3414  -2.3202  -2.3198  -2.3184  -2.3031  -2.3009  -2.3003
    -2.2988  -2.2886  -2.2569  -2.2559  -2.2441  -2.2408  -2.2313  -2.2267
    -2.2250  -2.2029  -2.2016  -2.1914  -2.1804  -2.1797  -2.1270  -2.1107
    -2.1062  -2.1000  -2.0986  -2.0905  -2.0813  -2.0635  -2.0452  -2.0438
    -2.0423  -2.0399  -2.0352  -2.0281  -2.0192  -2.0033  -1.9984  -1.9886
    -1.9562  -1.9412  -1.9393  -1.9359  -1.9323  -1.9281  -1.9202  -1.9182
    -1.9160  -1.9132  -1.9036  -1.8980  -1.8972  -1.8202  -1.7847  -1.7763
    -1.7542  -1.7496  -1.7364  -1.7298  -1.7260  -1.7192  -1.7152  -1.7042
    -1.6941  -1.6925  -1.6909  -1.6902  -1.6520  -1.6501  -1.6482  -1.6308
    -1.6211  -1.6172  -1.6155  -1.6070  -1.6041  -1.5494  -1.5410  -1.5223
    -1.5151  -1.5073  -1.5032  -1.5008  -1.4800  -1.4765  -1.4745  -1.4730
    -1.4716  -1.4584  -1.4572  -1.4453  -1.4167  -1.4020  -1.3777  -1.3716
    -1.3595  -1.3346  -1.3216  -1.2990  -1.2881  -1.2789  -1.2759  -1.2723
    -1.2646  -1.2487  -1.2316  -1.2279  -1.1955  -1.1942  -1.1852  -1.1780
    -1.1468  -1.1423  -1.1295  -1.1112  -1.0795  -1.0747  -1.0719  -1.0647
    -1.0537  -1.0452  -1.0361  -1.0237  -1.0039  -0.9923  -0.9719  -0.9699
    -0.9673  -0.9310  -0.9214  -0.9195  -0.9123  -0.9097  -0.9033  -0.9026
    -0.8927  -0.8713  -0.8697  -0.8671  -0.8551  -0.8486  -0.8468  -0.8309
    -0.8213  -0.8128  -0.7888  -0.7821  -0.7617  -0.6974  -0.6844  -0.6827
    -0.6804  -0.6791  -0.6738  -0.6682  -0.6476  -0.6382  -0.6235  -0.6199
    -0.6181  -0.6027  -0.5973  -0.5842  -0.5798  -0.5642  -0.5527  -0.4820
    -0.4799  -0.4554  -0.4508  -0.4450  -0.4415  -0.4362  -0.4345  -0.4320
    -0.4290  -0.4212  -0.3838  -0.3746  -0.3639  -0.3486  -0.3440  -0.3394
    -0.3375  -0.3316  -0.3266  -0.3221  -0.3196  -0.3128  -0.3015  -0.2994
    -0.2941  -0.2682  -0.2667  -0.2626  -0.2481  -0.2455  -0.2247  -0.1995
    -0.1992  -0.1896  -0.1884  -0.1228  -0.1199  -0.1058  -0.1048  -0.0428
    -0.0417  -0.0401  -0.0233  -0.0168   0.1957   0.2217   0.5405   0.5411
     0.6128   0.6328   0.7669   0.7960   0.8416   0.9481   0.9593   1.3309
     1.3985   1.3994   1.6314   1.6346   1.6927   1.9927   2.0052   2.0279
     2.0345   2.0651   2.0837   2.2202   2.2297   2.3993   2.4008   2.4149
     2.5511   2.5661   2.6060   2.8160   3.1692   3.1853   3.2155   3.2210
     3.2258   3.2383   3.5547   3.5581   3.8842   3.8957   3.9602   4.2261
     4.3456   4.3550   4.5373   4.5555   4.6403   4.6432   4.7223   4.8779
     4.8866   4.9761   4.9784   5.2633   5.3189   5.3297   5.5045   5.5220
     5.6646   5.6701   5.6746   5.6800   5.8049   5.8184   5.8246   5.9135
     6.3052   6.4003   6.4637   6.4857   6.5015   6.5042   6.5083   6.6743
     6.7063   6.7225   6.7700   6.7972   7.0397   7.0539   7.0836   7.2300
     7.3297   7.3755   7.3819

     the Fermi energy is     1.5250 ev

!    total energy              =   -6564.19538676 Ry
     Harris-Foulkes estimate   =   -6564.19538676 Ry
     estimated scf accuracy    <          7.4E-09 Ry

     The total energy is the sum of the following terms:

     one-electron contribution =  -48850.35985081 Ry
     hartree contribution      =   24924.98831799 Ry
     xc contribution           =   -3162.32831450 Ry
     ewald contribution        =   20523.50235215 Ry
     smearing contrib. (-TS)   =       0.00210842 Ry

     convergence has been achieved in  22 iterations

     Writing output data file 2838431.save

     init_run     :    165.20s CPU    172.07s WALL (       1 calls)
     electrons    :   8794.47s CPU   9326.94s WALL (       1 calls)

     Called by init_run:
     wfcinit      :    135.46s CPU    141.98s WALL (       1 calls)
     potinit      :      6.98s CPU      7.06s WALL (       1 calls)

     Called by electrons:
     c_bands      :   7443.32s CPU   7888.31s WALL (      23 calls)
     sum_band     :   1066.09s CPU   1119.59s WALL (      23 calls)
     v_of_rho     :     17.58s CPU     18.58s WALL (      23 calls)
     newd         :    273.80s CPU    275.95s WALL (      23 calls)
     mix_rho      :      3.01s CPU      3.30s WALL (      23 calls)

     Called by c_bands:
     init_us_2    :     11.76s CPU     12.04s WALL (     564 calls)
     cegterg      :   7270.15s CPU   7526.52s WALL (     276 calls)

     Called by *egterg:
     h_psi        :   3519.61s CPU   3744.66s WALL (    1459 calls)
     s_psi        :    250.34s CPU    251.76s WALL (    1459 calls)
     g_psi        :      6.02s CPU      6.02s WALL (    1171 calls)
     cdiaghg      :   1486.00s CPU   1489.39s WALL (    1435 calls)

     Called by h_psi:
     add_vuspsi   :    251.57s CPU    253.08s WALL (    1459 calls)

     General routines
     calbec       :    619.34s CPU    620.82s WALL (    1735 calls)
     fft          :    136.76s CPU    138.83s WALL (     368 calls)
     ffts         :      1.78s CPU      1.92s WALL (      46 calls)
     fftw         :   3245.02s CPU   3500.49s WALL (  670936 calls)
     interpolate  :      4.51s CPU      4.92s WALL (      46 calls)
     davcio       :      0.01s CPU      0.16s WALL (      12 calls)

     Parallel routines
     fft_scatter  :   2745.61s CPU   2973.15s WALL (  671350 calls)

     PWSCF        :     2h29m CPU        2h39m WALL


   This run was terminated on:  18:22:15  10Aug2015            

=------------------------------------------------------------------------------=
   JOB DONE.
=------------------------------------------------------------------------------=
