Setting SGE environment for SCC

     Program PWSCF v.5.1.2 starts on 10Aug2015 at 14:43: 4 

     This program is part of the open-source Quantum ESPRESSO suite
     for quantum simulation of materials; please cite
         "P. Giannozzi et al., J. Phys.:Condens. Matter 21 395502 (2009);
          URL http://www.quantum-espresso.org", 
     in publications or presentations arising from this work. More details at
     http://www.quantum-espresso.org/quote

     Parallel version (MPI), running on    32 processors
     R & G space division:  proc/nbgrp/npool/nimage =      32
     Reading input from hollow.O1.Au535758.d.2.7.phi.0.psi.0.in
Warning: card &IONS ignored
Warning: card / ignored
Warning: card &CELL ignored
Warning: card / ignored

     Current dimensions of program PWSCF are:
     Max number of different atomic species (ntypx) = 10
     Max number of k-points (npk) =  40000
     Max angular momentum in pseudopotentials (lmaxx) =  3

     Subspace diagonalization in iterative solution of the eigenvalue problem:
     a serial algorithm will be used


     Parallelization info
     --------------------
     sticks:   dense  smooth     PW     G-vecs:    dense   smooth      PW
     Min         445     223     58                96775    34191    4534
     Max         446     224     59                96790    34246    4540
     Sum       14269    7147   1867              3097177  1095093  145167


     Title: 
     hollow.O1.Au535758.d.2.7.phi.0.psi.0                                       


     bravais-lattice index     =            4
     lattice parameter (alat)  =      22.7436  a.u.
     unit-cell volume          =   22924.1508 (a.u.)^3
     number of atoms/cell      =           67
     number of atomic types    =            3
     number of electrons       =       712.00
     number of Kohn-Sham states=          427
     kinetic-energy cutoff     =      50.0000  Ry
     charge density cutoff     =     400.0000  Ry
     convergence threshold     =      1.0E-08
     mixing beta               =       0.7000
     number of iterations used =            8  plain     mixing
     Exchange-correlation      =  SLA  PW   PBE  PBE ( 1  4  3  4 0 0)

     celldm(1)=  22.743643  celldm(2)=   0.000000  celldm(3)=   2.250000
     celldm(4)=   0.000000  celldm(5)=   0.000000  celldm(6)=   0.000000

     crystal axes: (cart. coord. in units of alat)
               a(1) = (   1.000000   0.000000   0.000000 )  
               a(2) = (  -0.500000   0.866025   0.000000 )  
               a(3) = (   0.000000   0.000000   2.250000 )  

     reciprocal axes: (cart. coord. in units 2 pi/alat)
               b(1) = (  1.000000  0.577350 -0.000000 )  
               b(2) = (  0.000000  1.154701  0.000000 )  
               b(3) = (  0.000000 -0.000000  0.444444 )  


     PseudoPot. # 1 for Au read from file:
     /home/scc/andrejb/qe/pseudo/Au.pbe-nd-van.UPF
     MD5 check sum: 458681b50f36d87ef23c61b04bba420a
     Pseudo is Ultrasoft + core correction, Zval = 11.0
     Generated by new atomic code, or converted to UPF format
     Using radial grid of  985 points,  3 beta functions with: 
                l(1) =   1
                l(2) =   2
                l(3) =   2
     Q(r) pseudized with  8 coefficients,  rinner =    1.100   1.100   1.100
                                                       1.100   1.100

     PseudoPot. # 2 for H  read from file:
     /home/scc/andrejb/qe/pseudo/H.pbe-van_ak.UPF
     MD5 check sum: 403db7282739603aa925980fa9b8608d
     Pseudo is Ultrasoft, Zval =  1.0
     Generated by new atomic code, or converted to UPF format
     Using radial grid of  615 points,  1 beta functions with: 
                l(1) =   0
     Q(r) pseudized with  8 coefficients,  rinner =    0.800

     PseudoPot. # 3 for O  read from file:
     /home/scc/andrejb/qe/pseudo/O.pbe-van_ak.UPF
     MD5 check sum: 4b8c549914a63cae506c6ff22b5af4fe
     Pseudo is Ultrasoft, Zval =  6.0
     Generated by new atomic code, or converted to UPF format
     Using radial grid of  737 points,  4 beta functions with: 
                l(1) =   0
                l(2) =   0
                l(3) =   1
                l(4) =   1
     Q(r) pseudized with  8 coefficients,  rinner =    0.800   0.800   0.800


     atomic species   valence    mass     pseudopotential
        Au            11.00   196.96657     Au( 1.00)
        H              1.00     1.01000     H ( 1.00)
        O              6.00    16.00000     O ( 1.00)

     No symmetry found



   Cartesian axes

     site n.     atom                  positions (alat units)
         1           O   tau(   1) = (  -0.0208375   0.5411347   1.0450644  )
         2           H   tau(   2) = (  -0.0707709   0.4995870   1.0933180  )
         3           H   tau(   3) = (   0.0275819   0.5814415   1.0958251  )
         4           Au  tau(   4) = (   0.3540481   0.6132292   0.0000000  )
         5           Au  tau(   5) = (   0.4790062   0.3967954   0.0000000  )
         6           Au  tau(   6) = (   0.6039644   0.1803616   0.0000000  )
         7           Au  tau(   7) = (   0.7289225  -0.0360723   0.0000000  )
         8           Au  tau(   8) = (   0.1041318   0.6132292   0.0000000  )
         9           Au  tau(   9) = (   0.2290899   0.3967954   0.0000000  )
        10           Au  tau(  10) = (   0.3540481   0.1803616   0.0000000  )
        11           Au  tau(  11) = (   0.4790062  -0.0360723   0.0000000  )
        12           Au  tau(  12) = (  -0.1457845   0.6132292   0.0000000  )
        13           Au  tau(  13) = (  -0.0208264   0.3967954   0.0000000  )
        14           Au  tau(  14) = (   0.1041318   0.1803616   0.0000000  )
        15           Au  tau(  15) = (   0.2290899  -0.0360723   0.0000000  )
        16           Au  tau(  16) = (  -0.3957008   0.6132292   0.0000000  )
        17           Au  tau(  17) = (  -0.2707426   0.3967954   0.0000000  )
        18           Au  tau(  18) = (  -0.1457845   0.1803616   0.0000000  )
        19           Au  tau(  19) = (  -0.0208264  -0.0360723   0.0000000  )
        20           Au  tau(  20) = (   0.4790062   0.6853738   0.2040557  )
        21           Au  tau(  21) = (   0.6039644   0.4689400   0.2040557  )
        22           Au  tau(  22) = (   0.7289225   0.2525061   0.2040557  )
        23           Au  tau(  23) = (   0.8538806   0.0360723   0.2040557  )
        24           Au  tau(  24) = (   0.2290899   0.6853738   0.2040557  )
        25           Au  tau(  25) = (   0.3540481   0.4689400   0.2040557  )
        26           Au  tau(  26) = (   0.4790062   0.2525061   0.2040557  )
        27           Au  tau(  27) = (   0.6039644   0.0360723   0.2040557  )
        28           Au  tau(  28) = (  -0.0208264   0.6853738   0.2040557  )
        29           Au  tau(  29) = (   0.1041318   0.4689400   0.2040557  )
        30           Au  tau(  30) = (   0.2290899   0.2525061   0.2040557  )
        31           Au  tau(  31) = (   0.3540481   0.0360723   0.2040557  )
        32           Au  tau(  32) = (  -0.2707426   0.6853738   0.2040557  )
        33           Au  tau(  33) = (  -0.1457845   0.4689400   0.2040557  )
        34           Au  tau(  34) = (  -0.0208264   0.2525061   0.2040557  )
        35           Au  tau(  35) = (   0.1041318   0.0360723   0.2040557  )
        36           Au  tau(  36) = (   0.3541162   0.7576593   0.4066483  )
        37           Au  tau(  37) = (   0.4791000   0.5411421   0.4066695  )
        38           Au  tau(  38) = (   0.6040570   0.3246862   0.4066617  )
        39           Au  tau(  39) = (   0.7290270   0.1081684   0.4066529  )
        40           Au  tau(  40) = (   0.1041162   0.7576236   0.4066247  )
        41           Au  tau(  41) = (   0.2291001   0.5411063   0.4066455  )
        42           Au  tau(  42) = (   0.3540567   0.3246505   0.4066380  )
        43           Au  tau(  43) = (   0.4790276   0.1081324   0.4066292  )
        44           Au  tau(  44) = (  -0.1458201   0.7576104   0.4066224  )
        45           Au  tau(  45) = (  -0.0208365   0.5410930   0.4066438  )
        46           Au  tau(  46) = (   0.1041202   0.3246372   0.4066359  )
        47           Au  tau(  47) = (   0.2290908   0.1081193   0.4066273  )
        48           Au  tau(  48) = (  -0.3958167   0.7575791   0.4065812  )
        49           Au  tau(  49) = (  -0.2708328   0.5410617   0.4066025  )
        50           Au  tau(  50) = (  -0.1458763   0.3246061   0.4065947  )
        51           Au  tau(  51) = (  -0.0209056   0.1080882   0.4065858  )
        52           Au  tau(  52) = (   0.3541085   0.6133344   0.6129762  )
        53           Au  tau(  53) = (   0.4790780   0.3968269   0.6129968  )
        54           Au  tau(  54) = (   0.6040356   0.1803811   0.6129859  )
        55           Au  tau(  55) = (   0.7290165  -0.0361221   0.6129385  )
        56           Au  tau(  56) = (   0.1041243   0.6133091   0.6130022  )
        57           Au  tau(  57) = (   0.2290941   0.3968013   0.6130241  )
        58           Au  tau(  58) = (   0.3540515   0.1803552   0.6130121  )
        59           Au  tau(  59) = (   0.4790323  -0.0361475   0.6129659  )
        60           Au  tau(  60) = (  -0.1458030   0.6133014   0.6129980  )
        61           Au  tau(  61) = (  -0.0208339   0.3967936   0.6130188  )
        62           Au  tau(  62) = (   0.1041239   0.1803477   0.6130083  )
        63           Au  tau(  63) = (   0.2291046  -0.0361554   0.6129607  )
        64           Au  tau(  64) = (  -0.3957908   0.6132739   0.6129471  )
        65           Au  tau(  65) = (  -0.2708208   0.3967658   0.6129688  )
        66           Au  tau(  66) = (  -0.1458636   0.1803200   0.6129569  )
        67           Au  tau(  67) = (  -0.0208823  -0.0361826   0.6129110  )

     number of k points=    12  Marzari-Vanderbilt smearing, width (Ry)=  0.0200
                       cart. coord. in units 2pi/alat
        k(    1) = (   0.2500000   0.4330127   0.1111111), wk =   0.1666667
        k(    2) = (   0.2500000  -0.1443376   0.1111111), wk =   0.1666667
        k(    3) = (  -0.2500000  -0.4330127   0.1111111), wk =   0.1666667
        k(    4) = (  -0.2500000   0.4330127  -0.1111111), wk =   0.1666667
        k(    5) = (   0.2500000  -0.4330127  -0.1111111), wk =   0.1666667
        k(    6) = (   0.5000000   0.0000000   0.1111111), wk =   0.1666667
        k(    7) = (  -0.5000000   0.0000000   0.1111111), wk =   0.1666667
        k(    8) = (  -0.2500000   0.1443376   0.1111111), wk =   0.1666667
        k(    9) = (  -0.2500000  -0.1443376  -0.1111111), wk =   0.1666667
        k(   10) = (   0.2500000   0.1443376  -0.1111111), wk =   0.1666667
        k(   11) = (   0.0000000  -0.2886751   0.1111111), wk =   0.1666667
        k(   12) = (   0.0000000   0.2886751   0.1111111), wk =   0.1666667

     Dense  grid:  3097177 G-vectors     FFT dimensions: ( 150, 150, 360)

     Smooth grid:  1095093 G-vectors     FFT dimensions: ( 108, 108, 240)

     Largest allocated arrays     est. size (Mb)     dimensions
        Kohn-Sham Wavefunctions        28.01 Mb     (    4299,  427)
        NL pseudopotentials            55.23 Mb     (    4299,  842)
        Each V/rho on FFT grid          4.12 Mb     (  270000)
        Each G-vector array             0.74 Mb     (   96788)
        G-vector shells                 0.16 Mb     (   21404)
     Largest temporary arrays     est. size (Mb)     dimensions
        Auxiliary wavefunctions       112.04 Mb     (    4299, 1708)
        Each subspace H/S matrix       44.51 Mb     (    1708, 1708)
        Each <psi_i|beta_j> matrix      5.49 Mb     (     842,  427)
        Arrays for rho mixing          32.96 Mb     (  270000,    8)

     Initial potential from superposition of free atoms
     Check: negative starting charge=   -1.729756

     starting charge  711.25682, renormalised to  712.00000

     negative rho (up, down):  1.732E+00 0.000E+00
     Starting wfc are  582 randomized atomic wfcs

     total cpu time spent up to now is      162.5 secs

     Self-consistent Calculation

     iteration #  1     ecut=    50.00 Ry     beta=0.70
     Davidson diagonalization with overlap
     ethr =  1.00E-02,  avg # of iterations =  3.0

     Threshold (ethr) on eigenvalues was too large:
     Diagonalizing with lowered threshold

     Davidson diagonalization with overlap
     ethr =  4.35E-04,  avg # of iterations =  2.8

     negative rho (up, down):  1.714E+00 0.000E+00

     total cpu time spent up to now is      807.1 secs

     total energy              =   -6562.22462319 Ry
     Harris-Foulkes estimate   =   -6564.99370378 Ry
     estimated scf accuracy    <       3.56434240 Ry

     iteration #  2     ecut=    50.00 Ry     beta=0.70
     Davidson diagonalization with overlap
     ethr =  5.01E-04,  avg # of iterations = 11.0

     negative rho (up, down):  1.713E+00 0.000E+00

     total cpu time spent up to now is     1768.3 secs

     total energy              =   -6554.98685775 Ry
     Harris-Foulkes estimate   =   -6570.86775418 Ry
     estimated scf accuracy    <      89.28593319 Ry

     iteration #  3     ecut=    50.00 Ry     beta=0.70
     Davidson diagonalization with overlap
     ethr =  5.01E-04,  avg # of iterations =  6.0

     negative rho (up, down):  1.730E+00 0.000E+00

     total cpu time spent up to now is     2401.2 secs

     total energy              =   -6562.77070137 Ry
     Harris-Foulkes estimate   =   -6564.88654028 Ry
     estimated scf accuracy    <       8.79784717 Ry

     iteration #  4     ecut=    50.00 Ry     beta=0.70
     Davidson diagonalization with overlap
     ethr =  5.01E-04,  avg # of iterations =  8.2

     negative rho (up, down):  1.734E+00 0.000E+00

     total cpu time spent up to now is     2821.9 secs

     total energy              =   -6563.62057107 Ry
     Harris-Foulkes estimate   =   -6564.55520994 Ry
     estimated scf accuracy    <       4.45342529 Ry

     iteration #  5     ecut=    50.00 Ry     beta=0.70
     Davidson diagonalization with overlap
     ethr =  5.01E-04,  avg # of iterations =  5.9

     negative rho (up, down):  1.744E+00 0.000E+00

     total cpu time spent up to now is     3195.0 secs

     total energy              =   -6563.60542314 Ry
     Harris-Foulkes estimate   =   -6564.86145709 Ry
     estimated scf accuracy    <      14.06537653 Ry

     iteration #  6     ecut=    50.00 Ry     beta=0.70
     Davidson diagonalization with overlap
     ethr =  5.01E-04,  avg # of iterations =  4.0

     negative rho (up, down):  1.749E+00 0.000E+00

     total cpu time spent up to now is     3531.0 secs

     total energy              =   -6564.20095794 Ry
     Harris-Foulkes estimate   =   -6564.24149699 Ry
     estimated scf accuracy    <       0.12685463 Ry

     iteration #  7     ecut=    50.00 Ry     beta=0.70
     Davidson diagonalization with overlap
     ethr =  1.78E-05,  avg # of iterations =  9.5

     negative rho (up, down):  1.751E+00 0.000E+00

     total cpu time spent up to now is     4067.5 secs

     total energy              =   -6564.20523102 Ry
     Harris-Foulkes estimate   =   -6564.22920713 Ry
     estimated scf accuracy    <       0.09664661 Ry

     iteration #  8     ecut=    50.00 Ry     beta=0.70
     Davidson diagonalization with overlap
     ethr =  1.36E-05,  avg # of iterations =  4.6

     negative rho (up, down):  1.752E+00 0.000E+00

     total cpu time spent up to now is     4408.1 secs

     total energy              =   -6564.20391255 Ry
     Harris-Foulkes estimate   =   -6564.21898317 Ry
     estimated scf accuracy    <       0.05813492 Ry

     iteration #  9     ecut=    50.00 Ry     beta=0.70
     Davidson diagonalization with overlap
     ethr =  8.17E-06,  avg # of iterations =  9.7

     negative rho (up, down):  1.753E+00 0.000E+00

     total cpu time spent up to now is     4830.4 secs

     total energy              =   -6564.20256170 Ry
     Harris-Foulkes estimate   =   -6564.21038754 Ry
     estimated scf accuracy    <       0.02515677 Ry

     iteration # 10     ecut=    50.00 Ry     beta=0.70
     Davidson diagonalization with overlap
     ethr =  3.53E-06,  avg # of iterations =  6.8

     negative rho (up, down):  1.755E+00 0.000E+00

     total cpu time spent up to now is     5216.2 secs

     total energy              =   -6564.20080630 Ry
     Harris-Foulkes estimate   =   -6564.20567474 Ry
     estimated scf accuracy    <       0.01316678 Ry

     iteration # 11     ecut=    50.00 Ry     beta=0.70
     Davidson diagonalization with overlap
     ethr =  1.85E-06,  avg # of iterations =  8.9

     negative rho (up, down):  1.755E+00 0.000E+00

     total cpu time spent up to now is     5638.5 secs

     total energy              =   -6564.20091492 Ry
     Harris-Foulkes estimate   =   -6564.20248040 Ry
     estimated scf accuracy    <       0.00591768 Ry

     iteration # 12     ecut=    50.00 Ry     beta=0.70
     Davidson diagonalization with overlap
     ethr =  8.31E-07,  avg # of iterations =  2.2

     negative rho (up, down):  1.755E+00 0.000E+00

     total cpu time spent up to now is     5941.5 secs

     total energy              =   -6564.20035801 Ry
     Harris-Foulkes estimate   =   -6564.20148831 Ry
     estimated scf accuracy    <       0.00156159 Ry

     iteration # 13     ecut=    50.00 Ry     beta=0.70
     Davidson diagonalization with overlap
     ethr =  2.19E-07,  avg # of iterations =  8.1

     negative rho (up, down):  1.755E+00 0.000E+00

     total cpu time spent up to now is     6349.1 secs

     total energy              =   -6564.20056890 Ry
     Harris-Foulkes estimate   =   -6564.20068960 Ry
     estimated scf accuracy    <       0.00026782 Ry

     iteration # 14     ecut=    50.00 Ry     beta=0.70
     Davidson diagonalization with overlap
     ethr =  3.76E-08,  avg # of iterations =  3.0

     negative rho (up, down):  1.755E+00 0.000E+00

     total cpu time spent up to now is     6696.8 secs

     total energy              =   -6564.20060681 Ry
     Harris-Foulkes estimate   =   -6564.20066642 Ry
     estimated scf accuracy    <       0.00019037 Ry

     iteration # 15     ecut=    50.00 Ry     beta=0.70
     Davidson diagonalization with overlap
     ethr =  2.67E-08,  avg # of iterations =  2.0

     negative rho (up, down):  1.755E+00 0.000E+00

     total cpu time spent up to now is     7009.4 secs

     total energy              =   -6564.20060944 Ry
     Harris-Foulkes estimate   =   -6564.20066509 Ry
     estimated scf accuracy    <       0.00023929 Ry

     iteration # 16     ecut=    50.00 Ry     beta=0.70
     Davidson diagonalization with overlap
     ethr =  2.67E-08,  avg # of iterations =  2.0

     negative rho (up, down):  1.755E+00 0.000E+00

     total cpu time spent up to now is     7312.1 secs

     total energy              =   -6564.20062609 Ry
     Harris-Foulkes estimate   =   -6564.20065063 Ry
     estimated scf accuracy    <       0.00017013 Ry

     iteration # 17     ecut=    50.00 Ry     beta=0.70
     Davidson diagonalization with overlap
     ethr =  2.39E-08,  avg # of iterations =  1.0

     negative rho (up, down):  1.755E+00 0.000E+00

     total cpu time spent up to now is     7596.9 secs

     total energy              =   -6564.20063168 Ry
     Harris-Foulkes estimate   =   -6564.20065139 Ry
     estimated scf accuracy    <       0.00016531 Ry

     iteration # 18     ecut=    50.00 Ry     beta=0.70
     Davidson diagonalization with overlap
     ethr =  2.32E-08,  avg # of iterations =  1.0

     negative rho (up, down):  1.755E+00 0.000E+00

     total cpu time spent up to now is     7871.8 secs

     total energy              =   -6564.20064090 Ry
     Harris-Foulkes estimate   =   -6564.20064199 Ry
     estimated scf accuracy    <       0.00000303 Ry

     iteration # 19     ecut=    50.00 Ry     beta=0.70
     Davidson diagonalization with overlap
     ethr =  4.26E-10,  avg # of iterations =  3.0

     negative rho (up, down):  1.755E+00 0.000E+00

     total cpu time spent up to now is     8247.4 secs

     total energy              =   -6564.20064148 Ry
     Harris-Foulkes estimate   =   -6564.20064192 Ry
     estimated scf accuracy    <       0.00000146 Ry

     iteration # 20     ecut=    50.00 Ry     beta=0.70
     Davidson diagonalization with overlap
     ethr =  2.05E-10,  avg # of iterations =  2.0

     negative rho (up, down):  1.755E+00 0.000E+00

     total cpu time spent up to now is     8549.7 secs

     total energy              =   -6564.20064165 Ry
     Harris-Foulkes estimate   =   -6564.20064186 Ry
     estimated scf accuracy    <       0.00000085 Ry

     iteration # 21     ecut=    50.00 Ry     beta=0.70
     Davidson diagonalization with overlap
     ethr =  1.20E-10,  avg # of iterations =  2.0

     negative rho (up, down):  1.755E+00 0.000E+00

     total cpu time spent up to now is     8838.7 secs

     total energy              =   -6564.20064174 Ry
     Harris-Foulkes estimate   =   -6564.20064178 Ry
     estimated scf accuracy    <       0.00000013 Ry

     iteration # 22     ecut=    50.00 Ry     beta=0.70
     Davidson diagonalization with overlap
     ethr =  1.89E-11,  avg # of iterations =  2.0

     negative rho (up, down):  1.755E+00 0.000E+00

     total cpu time spent up to now is     9140.6 secs

     total energy              =   -6564.20064176 Ry
     Harris-Foulkes estimate   =   -6564.20064177 Ry
     estimated scf accuracy    <       0.00000002 Ry

     iteration # 23     ecut=    50.00 Ry     beta=0.70
     Davidson diagonalization with overlap
     ethr =  3.50E-12,  avg # of iterations =  3.0

     negative rho (up, down):  1.755E+00 0.000E+00

     total cpu time spent up to now is     9564.2 secs

     total energy              =   -6564.20064175 Ry
     Harris-Foulkes estimate   =   -6564.20064177 Ry
     estimated scf accuracy    <       0.00000009 Ry

     iteration # 24     ecut=    50.00 Ry     beta=0.70
     Davidson diagonalization with overlap
     ethr =  3.50E-12,  avg # of iterations =  2.0

     negative rho (up, down):  1.755E+00 0.000E+00

     total cpu time spent up to now is     9894.0 secs

     End of self-consistent calculation

          k = 0.2500 0.4330 0.1111 (136853 PWs)   bands (ev):

   -18.5879  -6.4008  -6.2852  -5.8850  -5.8848  -5.2080  -4.8609  -4.8608
    -4.8334  -4.8329  -4.4130  -4.4130  -4.3312  -4.2915  -4.2872  -4.2872
    -4.2440  -4.1289  -4.1287  -4.0839  -4.0376  -4.0376  -4.0342  -4.0342
    -3.9862  -3.9861  -3.9575  -3.9573  -3.9365  -3.9162  -3.9153  -3.8394
    -3.8394  -3.8206  -3.8205  -3.7768  -3.7768  -3.7761  -3.7552  -3.7552
    -3.7521  -3.6774  -3.6774  -3.6158  -3.6158  -3.5984  -3.5983  -3.5364
    -3.5363  -3.5081  -3.5080  -3.4700  -3.4543  -3.4543  -3.4353  -3.4352
    -3.4321  -3.4318  -3.4263  -3.4063  -3.3449  -3.3387  -3.3386  -3.3179
    -3.2849  -3.2558  -3.2558  -3.2009  -3.2003  -3.1752  -3.1750  -3.1481
    -3.1212  -3.0840  -3.0838  -3.0476  -3.0476  -3.0098  -3.0055  -3.0054
    -2.9654  -2.9329  -2.9324  -2.9104  -2.9103  -2.9063  -2.9063  -2.9033
    -2.9031  -2.8958  -2.8415  -2.7829  -2.7828  -2.7812  -2.7810  -2.7771
    -2.7546  -2.7546  -2.7381  -2.6613  -2.6612  -2.6593  -2.6522  -2.6046
    -2.5993  -2.5989  -2.5973  -2.5773  -2.5769  -2.5261  -2.5080  -2.5080
    -2.5037  -2.4639  -2.4632  -2.4628  -2.4209  -2.4209  -2.3688  -2.3425
    -2.3424  -2.3389  -2.3386  -2.3166  -2.3164  -2.3114  -2.3033  -2.3033
    -2.2691  -2.2376  -2.2323  -2.2262  -2.2261  -2.2225  -2.2223  -2.2216
    -2.2215  -2.2018  -2.1884  -2.1871  -2.1868  -2.1835  -2.1832  -2.1716
    -2.1666  -2.1663  -2.1399  -2.1360  -2.1360  -2.1132  -2.1105  -2.0938
    -2.0937  -2.0673  -2.0670  -2.0664  -2.0660  -2.0584  -2.0583  -2.0583
    -2.0579  -2.0435  -2.0432  -2.0279  -2.0225  -2.0222  -1.9410  -1.9408
    -1.9260  -1.9259  -1.9072  -1.9071  -1.8859  -1.8732  -1.8732  -1.8540
    -1.8355  -1.8355  -1.8260  -1.8256  -1.7992  -1.7989  -1.7954  -1.7950
    -1.7894  -1.7783  -1.7485  -1.7205  -1.7008  -1.7003  -1.6787  -1.6748
    -1.6747  -1.6153  -1.6151  -1.6022  -1.6021  -1.5323  -1.5321  -1.4921
    -1.4734  -1.4733  -1.4397  -1.4397  -1.4125  -1.4122  -1.3925  -1.3921
    -1.3905  -1.3901  -1.3750  -1.3327  -1.3326  -1.3318  -1.3318  -1.3246
    -1.3239  -1.2957  -1.2930  -1.2928  -1.2583  -1.2473  -1.2467  -1.2417
    -1.2415  -1.2345  -1.2184  -1.1908  -1.1907  -1.1847  -1.1842  -1.1659
    -1.1654  -1.1191  -1.1060  -1.1055  -1.1051  -1.0812  -1.0810  -1.0367
    -1.0013  -0.9508  -0.9507  -0.9501  -0.9500  -0.9437  -0.9425  -0.9420
    -0.9291  -0.9287  -0.8787  -0.8783  -0.8616  -0.8615  -0.8449  -0.8329
    -0.8328  -0.8198  -0.8173  -0.8171  -0.8158  -0.8158  -0.7729  -0.7717
    -0.7596  -0.7587  -0.7585  -0.7436  -0.7435  -0.7127  -0.7034  -0.7029
    -0.6752  -0.6554  -0.6548  -0.6136  -0.6103  -0.5980  -0.5979  -0.5890
    -0.5887  -0.5816  -0.5812  -0.5771  -0.5770  -0.5556  -0.5477  -0.5476
    -0.5376  -0.5375  -0.5261  -0.5122  -0.5121  -0.4952  -0.4951  -0.4701
    -0.4611  -0.4606  -0.4477  -0.3962  -0.3941  -0.3941  -0.3898  -0.3829
    -0.3817  -0.3813  -0.3607  -0.3602  -0.3477  -0.3477  -0.3453  -0.3453
    -0.3034  -0.3014  -0.3011  -0.2940  -0.2936  -0.2860  -0.2858  -0.2823
    -0.2721  -0.2657  -0.2655  -0.2333  -0.2332  -0.2250  -0.2113  -0.2111
    -0.1579  -0.1575  -0.1295  -0.1294  -0.1205  -0.1204  -0.0873  -0.0769
    -0.0769  -0.0589  -0.0581  -0.0575   0.0215   0.0224   0.1333   0.5347
     0.5347   0.5604   0.5605   0.6232   0.6234   0.9734   0.9738   0.9870
     0.9871   1.1577   1.2242   1.3146   1.3166   1.5747   1.5777   2.1599
     2.1602   2.2907   2.2910   2.5009   2.5011   2.5712   2.5713   2.6596
     2.9374   2.9492   3.1160   3.3310   3.3331   3.3654   3.3656   3.4303
     3.5283   3.6955   3.6999   3.7367   3.9789   3.9792   4.0529   4.0539
     4.2981   4.2983   4.3287   4.5193   4.5194   4.5800   4.6648   4.9564
     4.9927   4.9937   5.1840   5.2740   5.2740   5.3944   5.3967   5.6182
     6.0036   6.0681   6.0698   6.1454   6.1455   6.1880   6.2211   6.2872
     6.2995   6.2996   6.3071   6.3696   6.3701   6.3769   6.3794   6.4092
     6.4251   6.5962   6.8085   6.8361   6.9547   7.0195   7.0212   7.0899
     7.2108   7.2366   7.2667

          k = 0.2500-0.1443 0.1111 (136898 PWs)   bands (ev):

   -18.5879  -6.4952  -6.4008  -5.7006  -5.4119  -5.3466  -5.3466  -4.7898
    -4.7898  -4.6767  -4.6403  -4.4900  -4.4192  -4.3872  -4.3870  -4.3404
    -4.2699  -4.2699  -4.1328  -4.0904  -4.0904  -4.0692  -4.0685  -4.0676
    -3.9470  -3.9470  -3.8677  -3.8565  -3.8549  -3.8549  -3.8343  -3.8343
    -3.7684  -3.7126  -3.7126  -3.7001  -3.6897  -3.6897  -3.6783  -3.6782
    -3.6701  -3.6228  -3.6228  -3.6133  -3.6133  -3.6011  -3.6010  -3.5695
    -3.5660  -3.5660  -3.5296  -3.5296  -3.5115  -3.5113  -3.4916  -3.4497
    -3.4497  -3.3883  -3.3883  -3.3660  -3.3659  -3.3494  -3.2761  -3.2761
    -3.2672  -3.2671  -3.2502  -3.2501  -3.2266  -3.2266  -3.0752  -3.0751
    -3.0568  -3.0568  -3.0521  -3.0136  -3.0136  -3.0086  -3.0086  -2.9526
    -2.9526  -2.9336  -2.9335  -2.8954  -2.8714  -2.8713  -2.8490  -2.8411
    -2.8410  -2.7963  -2.7962  -2.7770  -2.7768  -2.7721  -2.7721  -2.7466
    -2.7465  -2.7018  -2.7018  -2.6957  -2.6956  -2.6811  -2.6319  -2.6318
    -2.6084  -2.6003  -2.6001  -2.5975  -2.5205  -2.5205  -2.4903  -2.4902
    -2.4833  -2.4745  -2.4528  -2.4252  -2.4251  -2.4078  -2.4046  -2.4003
    -2.4003  -2.3874  -2.3786  -2.3784  -2.3699  -2.3698  -2.3618  -2.3617
    -2.3103  -2.2843  -2.2651  -2.2609  -2.2609  -2.2447  -2.2446  -2.2417
    -2.2416  -2.2307  -2.2005  -2.2005  -2.1889  -2.1830  -2.1701  -2.1700
    -2.1677  -2.1418  -2.1417  -2.1316  -2.1235  -2.1234  -2.0666  -2.0554
    -2.0433  -2.0432  -2.0416  -2.0217  -2.0216  -2.0086  -1.9878  -1.9878
    -1.9828  -1.9827  -1.9709  -1.9592  -1.9591  -1.9461  -1.9296  -1.9294
    -1.8823  -1.8822  -1.8725  -1.8723  -1.8722  -1.8692  -1.8596  -1.8595
    -1.8565  -1.8565  -1.8438  -1.8385  -1.8383  -1.7239  -1.7236  -1.6946
    -1.6945  -1.6938  -1.6714  -1.6668  -1.6668  -1.6569  -1.6568  -1.6366
    -1.6365  -1.6357  -1.6294  -1.6291  -1.5932  -1.5931  -1.5921  -1.5623
    -1.5623  -1.5564  -1.5564  -1.5423  -1.5421  -1.4851  -1.4824  -1.4586
    -1.4585  -1.4498  -1.4438  -1.4214  -1.4214  -1.4160  -1.4160  -1.4124
    -1.4123  -1.4000  -1.4000  -1.3807  -1.3430  -1.3428  -1.3116  -1.3116
    -1.3015  -1.2644  -1.2641  -1.2306  -1.2305  -1.2202  -1.2199  -1.2059
    -1.1886  -1.1881  -1.1687  -1.1685  -1.1380  -1.1379  -1.1187  -1.1186
    -1.0850  -1.0849  -1.0732  -1.0188  -1.0185  -1.0144  -1.0143  -0.9945
    -0.9945  -0.9777  -0.9777  -0.9471  -0.9357  -0.9155  -0.9133  -0.9133
    -0.8821  -0.8624  -0.8619  -0.8614  -0.8518  -0.8515  -0.8465  -0.8465
    -0.8162  -0.8086  -0.8086  -0.7957  -0.7952  -0.7892  -0.7891  -0.7700
    -0.7534  -0.7530  -0.7245  -0.7242  -0.6416  -0.6238  -0.6233  -0.6231
    -0.6211  -0.6160  -0.6159  -0.6072  -0.5850  -0.5639  -0.5636  -0.5585
    -0.5583  -0.5552  -0.5401  -0.5250  -0.5248  -0.5206  -0.5054  -0.4255
    -0.4254  -0.3971  -0.3968  -0.3873  -0.3870  -0.3798  -0.3787  -0.3787
    -0.3722  -0.3722  -0.3552  -0.3224  -0.3100  -0.2906  -0.2905  -0.2817
    -0.2815  -0.2740  -0.2740  -0.2659  -0.2632  -0.2631  -0.2450  -0.2424
    -0.2423  -0.2106  -0.2105  -0.2097  -0.1925  -0.1925  -0.1698  -0.1437
    -0.1436  -0.1336  -0.1336  -0.0656  -0.0655  -0.0472  -0.0472   0.0143
     0.0174   0.0184   0.0184   0.0465   0.2531   0.2538   0.5968   0.5968
     0.6720   0.6727   0.8229   0.8520   0.8732   1.0088   1.0090   1.3870
     1.4544   1.4544   1.6888   1.6888   1.7438   2.0545   2.0556   2.0880
     2.0881   2.1266   2.1273   2.2818   2.2818   2.4565   2.4566   2.4680
     2.6120   2.6131   2.6593   2.8690   3.2362   3.2363   3.2779   3.2780
     3.2853   3.2856   3.6125   3.6125   3.9475   3.9482   4.0195   4.2813
     4.4110   4.4116   4.6088   4.6111   4.7006   4.7007   4.7794   4.9407
     4.9409   5.0342   5.0344   5.3260   5.3884   5.3887   5.5569   5.5807
     5.5953   5.7282   5.7286   5.7321   5.7323   5.8783   5.8783   5.9400
     6.1050   6.4649   6.4706   6.5581   6.5581   6.5634   6.5640   6.6060
     6.7708   6.7777   6.7783   6.7996   6.8876   7.0907   7.1262   7.1297
     7.1444   7.3032   7.3816

          k =-0.2500-0.4330 0.1111 (136853 PWs)   bands (ev):

   -18.5879  -6.4008  -6.2852  -5.8850  -5.8848  -5.2080  -4.8609  -4.8608
    -4.8334  -4.8329  -4.4130  -4.4130  -4.3312  -4.2915  -4.2872  -4.2872
    -4.2440  -4.1289  -4.1287  -4.0839  -4.0376  -4.0376  -4.0342  -4.0342
    -3.9862  -3.9861  -3.9575  -3.9573  -3.9365  -3.9162  -3.9153  -3.8394
    -3.8394  -3.8206  -3.8205  -3.7768  -3.7768  -3.7761  -3.7552  -3.7552
    -3.7521  -3.6774  -3.6774  -3.6158  -3.6158  -3.5984  -3.5983  -3.5364
    -3.5363  -3.5081  -3.5080  -3.4700  -3.4543  -3.4543  -3.4353  -3.4352
    -3.4321  -3.4318  -3.4263  -3.4063  -3.3449  -3.3387  -3.3386  -3.3179
    -3.2849  -3.2558  -3.2558  -3.2009  -3.2003  -3.1752  -3.1750  -3.1481
    -3.1212  -3.0840  -3.0838  -3.0476  -3.0476  -3.0098  -3.0055  -3.0054
    -2.9654  -2.9329  -2.9324  -2.9104  -2.9103  -2.9063  -2.9063  -2.9033
    -2.9031  -2.8958  -2.8415  -2.7829  -2.7828  -2.7812  -2.7810  -2.7771
    -2.7546  -2.7546  -2.7381  -2.6613  -2.6612  -2.6593  -2.6522  -2.6046
    -2.5993  -2.5989  -2.5973  -2.5773  -2.5769  -2.5261  -2.5080  -2.5080
    -2.5037  -2.4639  -2.4632  -2.4628  -2.4209  -2.4209  -2.3688  -2.3425
    -2.3424  -2.3389  -2.3386  -2.3166  -2.3164  -2.3114  -2.3033  -2.3033
    -2.2691  -2.2376  -2.2323  -2.2262  -2.2261  -2.2225  -2.2223  -2.2216
    -2.2215  -2.2018  -2.1884  -2.1871  -2.1868  -2.1835  -2.1832  -2.1716
    -2.1666  -2.1663  -2.1399  -2.1360  -2.1360  -2.1132  -2.1105  -2.0938
    -2.0937  -2.0673  -2.0670  -2.0664  -2.0660  -2.0584  -2.0583  -2.0583
    -2.0579  -2.0435  -2.0432  -2.0279  -2.0225  -2.0222  -1.9410  -1.9408
    -1.9260  -1.9259  -1.9072  -1.9071  -1.8859  -1.8732  -1.8732  -1.8540
    -1.8355  -1.8355  -1.8260  -1.8256  -1.7992  -1.7989  -1.7954  -1.7950
    -1.7894  -1.7783  -1.7485  -1.7205  -1.7008  -1.7003  -1.6787  -1.6748
    -1.6747  -1.6153  -1.6151  -1.6022  -1.6021  -1.5323  -1.5321  -1.4921
    -1.4734  -1.4733  -1.4397  -1.4397  -1.4125  -1.4122  -1.3925  -1.3921
    -1.3905  -1.3901  -1.3750  -1.3327  -1.3326  -1.3318  -1.3318  -1.3246
    -1.3239  -1.2957  -1.2930  -1.2928  -1.2583  -1.2473  -1.2467  -1.2417
    -1.2415  -1.2345  -1.2184  -1.1908  -1.1907  -1.1847  -1.1842  -1.1659
    -1.1654  -1.1191  -1.1060  -1.1055  -1.1051  -1.0812  -1.0810  -1.0367
    -1.0013  -0.9508  -0.9507  -0.9501  -0.9500  -0.9437  -0.9425  -0.9420
    -0.9291  -0.9287  -0.8787  -0.8783  -0.8616  -0.8615  -0.8449  -0.8329
    -0.8328  -0.8198  -0.8173  -0.8171  -0.8158  -0.8158  -0.7729  -0.7717
    -0.7596  -0.7587  -0.7585  -0.7436  -0.7435  -0.7127  -0.7034  -0.7029
    -0.6752  -0.6554  -0.6548  -0.6136  -0.6103  -0.5980  -0.5979  -0.5890
    -0.5887  -0.5816  -0.5812  -0.5771  -0.5770  -0.5556  -0.5477  -0.5476
    -0.5376  -0.5375  -0.5261  -0.5122  -0.5121  -0.4952  -0.4951  -0.4701
    -0.4611  -0.4606  -0.4477  -0.3962  -0.3941  -0.3941  -0.3898  -0.3829
    -0.3817  -0.3813  -0.3607  -0.3602  -0.3477  -0.3477  -0.3453  -0.3453
    -0.3034  -0.3014  -0.3011  -0.2940  -0.2936  -0.2860  -0.2858  -0.2823
    -0.2721  -0.2657  -0.2655  -0.2333  -0.2332  -0.2250  -0.2113  -0.2111
    -0.1579  -0.1575  -0.1295  -0.1294  -0.1205  -0.1204  -0.0873  -0.0769
    -0.0768  -0.0589  -0.0581  -0.0575   0.0215   0.0224   0.1333   0.5347
     0.5347   0.5604   0.5605   0.6232   0.6234   0.9734   0.9738   0.9870
     0.9871   1.1577   1.2242   1.3146   1.3166   1.5747   1.5777   2.1599
     2.1602   2.2907   2.2910   2.5009   2.5011   2.5712   2.5713   2.6596
     2.9374   2.9492   3.1160   3.3310   3.3331   3.3654   3.3656   3.4303
     3.5283   3.6955   3.6999   3.7367   3.9789   3.9792   4.0529   4.0539
     4.2981   4.2983   4.3287   4.5193   4.5194   4.5800   4.6648   4.9564
     4.9927   4.9937   5.1840   5.2740   5.2740   5.3944   5.3967   5.6182
     6.0036   6.0681   6.0698   6.1454   6.1455   6.1876   6.2211   6.2872
     6.2995   6.2996   6.3071   6.3696   6.3701   6.3769   6.3795   6.4103
     6.4252   6.5961   6.8051   6.8371   6.9547   7.0195   7.0212   7.0902
     7.2137   7.2358   7.2671

          k =-0.2500 0.4330-0.1111 (136853 PWs)   bands (ev):

   -18.5879  -6.4008  -6.2852  -5.8862  -5.8836  -5.2080  -4.8614  -4.8603
    -4.8342  -4.8321  -4.4137  -4.4122  -4.3312  -4.2915  -4.2873  -4.2869
    -4.2440  -4.1292  -4.1287  -4.0840  -4.0378  -4.0375  -4.0344  -4.0339
    -3.9864  -3.9861  -3.9592  -3.9557  -3.9364  -3.9161  -3.9153  -3.8401
    -3.8384  -3.8209  -3.8202  -3.7771  -3.7768  -3.7759  -3.7554  -3.7550
    -3.7521  -3.6777  -3.6772  -3.6167  -3.6148  -3.5984  -3.5983  -3.5365
    -3.5361  -3.5081  -3.5079  -3.4702  -3.4545  -3.4543  -3.4354  -3.4352
    -3.4326  -3.4312  -3.4264  -3.4062  -3.3448  -3.3388  -3.3385  -3.3178
    -3.2846  -3.2565  -3.2555  -3.2011  -3.2000  -3.1751  -3.1748  -3.1480
    -3.1213  -3.0842  -3.0839  -3.0479  -3.0469  -3.0098  -3.0056  -3.0054
    -2.9653  -2.9336  -2.9319  -2.9103  -2.9102  -2.9070  -2.9056  -2.9033
    -2.9032  -2.8959  -2.8415  -2.7835  -2.7823  -2.7813  -2.7807  -2.7772
    -2.7551  -2.7541  -2.7381  -2.6619  -2.6604  -2.6596  -2.6521  -2.6046
    -2.5998  -2.5982  -2.5974  -2.5775  -2.5771  -2.5261  -2.5080  -2.5076
    -2.5037  -2.4640  -2.4632  -2.4628  -2.4212  -2.4206  -2.3687  -2.3424
    -2.3423  -2.3392  -2.3390  -2.3166  -2.3162  -2.3114  -2.3038  -2.3030
    -2.2691  -2.2376  -2.2322  -2.2262  -2.2256  -2.2233  -2.2220  -2.2215
    -2.2213  -2.2018  -2.1885  -2.1874  -2.1863  -2.1836  -2.1832  -2.1715
    -2.1666  -2.1659  -2.1397  -2.1362  -2.1357  -2.1133  -2.1108  -2.0939
    -2.0936  -2.0676  -2.0670  -2.0666  -2.0659  -2.0586  -2.0583  -2.0581
    -2.0576  -2.0439  -2.0431  -2.0279  -2.0226  -2.0224  -1.9416  -1.9406
    -1.9265  -1.9253  -1.9069  -1.9068  -1.8859  -1.8735  -1.8729  -1.8538
    -1.8359  -1.8353  -1.8262  -1.8251  -1.7991  -1.7991  -1.7955  -1.7951
    -1.7890  -1.7782  -1.7486  -1.7205  -1.7012  -1.7002  -1.6788  -1.6751
    -1.6746  -1.6161  -1.6142  -1.6022  -1.6021  -1.5326  -1.5317  -1.4924
    -1.4735  -1.4731  -1.4401  -1.4393  -1.4126  -1.4122  -1.3926  -1.3922
    -1.3907  -1.3899  -1.3751  -1.3327  -1.3322  -1.3321  -1.3317  -1.3247
    -1.3236  -1.2960  -1.2933  -1.2927  -1.2583  -1.2476  -1.2465  -1.2420
    -1.2412  -1.2345  -1.2182  -1.1911  -1.1902  -1.1849  -1.1838  -1.1660
    -1.1651  -1.1190  -1.1061  -1.1055  -1.1051  -1.0814  -1.0808  -1.0369
    -1.0014  -0.9509  -0.9505  -0.9503  -0.9502  -0.9439  -0.9424  -0.9423
    -0.9290  -0.9286  -0.8786  -0.8783  -0.8617  -0.8615  -0.8448  -0.8332
    -0.8326  -0.8196  -0.8176  -0.8171  -0.8157  -0.8155  -0.7734  -0.7715
    -0.7593  -0.7589  -0.7582  -0.7438  -0.7434  -0.7131  -0.7032  -0.7028
    -0.6754  -0.6556  -0.6545  -0.6137  -0.6101  -0.5982  -0.5976  -0.5891
    -0.5884  -0.5819  -0.5809  -0.5772  -0.5769  -0.5555  -0.5479  -0.5474
    -0.5378  -0.5375  -0.5262  -0.5122  -0.5122  -0.4951  -0.4949  -0.4702
    -0.4612  -0.4606  -0.4475  -0.3961  -0.3944  -0.3940  -0.3897  -0.3828
    -0.3819  -0.3812  -0.3609  -0.3600  -0.3477  -0.3475  -0.3454  -0.3452
    -0.3034  -0.3014  -0.3011  -0.2941  -0.2935  -0.2860  -0.2859  -0.2822
    -0.2721  -0.2660  -0.2653  -0.2336  -0.2330  -0.2251  -0.2115  -0.2110
    -0.1581  -0.1574  -0.1296  -0.1292  -0.1205  -0.1204  -0.0872  -0.0770
    -0.0767  -0.0588  -0.0581  -0.0576   0.0213   0.0227   0.1334   0.5345
     0.5350   0.5603   0.5606   0.6231   0.6234   0.9734   0.9739   0.9868
     0.9872   1.1577   1.2243   1.3147   1.3167   1.5743   1.5781   2.1597
     2.1602   2.2904   2.2915   2.5006   2.5015   2.5709   2.5716   2.6594
     2.9374   2.9496   3.1160   3.3308   3.3333   3.3649   3.3661   3.4301
     3.5283   3.6945   3.7009   3.7369   3.9789   3.9794   4.0522   4.0547
     4.2979   4.2984   4.3284   4.5187   4.5199   4.5806   4.6645   4.9559
     4.9928   4.9935   5.1842   5.2739   5.2741   5.3957   5.3966   5.6099
     6.0037   6.0680   6.0700   6.1452   6.1456   6.2035   6.2211   6.2871
     6.2984   6.3003   6.3077   6.3695   6.3700   6.3757   6.3827   6.3921
     6.4471   6.6301   6.7464   6.8531   6.9544   7.0196   7.0214   7.1097
     7.1531   7.2594   7.2642

          k = 0.2500-0.4330-0.1111 (136853 PWs)   bands (ev):

   -18.5879  -6.4008  -6.2852  -5.8862  -5.8836  -5.2080  -4.8614  -4.8603
    -4.8342  -4.8321  -4.4137  -4.4122  -4.3312  -4.2915  -4.2873  -4.2869
    -4.2440  -4.1292  -4.1287  -4.0840  -4.0378  -4.0375  -4.0344  -4.0339
    -3.9864  -3.9861  -3.9592  -3.9557  -3.9364  -3.9161  -3.9153  -3.8401
    -3.8384  -3.8209  -3.8202  -3.7771  -3.7768  -3.7759  -3.7554  -3.7550
    -3.7521  -3.6777  -3.6772  -3.6167  -3.6148  -3.5984  -3.5983  -3.5365
    -3.5361  -3.5081  -3.5079  -3.4702  -3.4545  -3.4543  -3.4354  -3.4352
    -3.4326  -3.4312  -3.4264  -3.4062  -3.3448  -3.3388  -3.3385  -3.3178
    -3.2846  -3.2565  -3.2555  -3.2011  -3.2000  -3.1751  -3.1748  -3.1480
    -3.1213  -3.0842  -3.0839  -3.0479  -3.0469  -3.0098  -3.0056  -3.0054
    -2.9653  -2.9336  -2.9319  -2.9103  -2.9102  -2.9070  -2.9056  -2.9033
    -2.9032  -2.8959  -2.8415  -2.7835  -2.7823  -2.7813  -2.7807  -2.7772
    -2.7551  -2.7541  -2.7381  -2.6619  -2.6604  -2.6596  -2.6521  -2.6046
    -2.5998  -2.5982  -2.5974  -2.5775  -2.5771  -2.5261  -2.5080  -2.5076
    -2.5037  -2.4640  -2.4632  -2.4628  -2.4212  -2.4206  -2.3687  -2.3424
    -2.3423  -2.3392  -2.3390  -2.3166  -2.3162  -2.3114  -2.3038  -2.3030
    -2.2691  -2.2376  -2.2322  -2.2262  -2.2256  -2.2233  -2.2220  -2.2215
    -2.2213  -2.2018  -2.1885  -2.1874  -2.1863  -2.1836  -2.1832  -2.1715
    -2.1666  -2.1659  -2.1397  -2.1362  -2.1357  -2.1133  -2.1108  -2.0939
    -2.0936  -2.0676  -2.0670  -2.0666  -2.0659  -2.0586  -2.0583  -2.0581
    -2.0576  -2.0439  -2.0431  -2.0279  -2.0226  -2.0224  -1.9416  -1.9406
    -1.9265  -1.9253  -1.9069  -1.9068  -1.8859  -1.8735  -1.8729  -1.8538
    -1.8359  -1.8353  -1.8262  -1.8251  -1.7991  -1.7991  -1.7955  -1.7951
    -1.7890  -1.7782  -1.7486  -1.7205  -1.7012  -1.7002  -1.6788  -1.6751
    -1.6746  -1.6161  -1.6142  -1.6022  -1.6021  -1.5326  -1.5317  -1.4924
    -1.4735  -1.4731  -1.4401  -1.4393  -1.4126  -1.4122  -1.3926  -1.3922
    -1.3907  -1.3899  -1.3751  -1.3327  -1.3322  -1.3321  -1.3317  -1.3247
    -1.3236  -1.2960  -1.2933  -1.2927  -1.2583  -1.2476  -1.2465  -1.2420
    -1.2412  -1.2345  -1.2182  -1.1911  -1.1902  -1.1849  -1.1838  -1.1660
    -1.1651  -1.1190  -1.1061  -1.1055  -1.1051  -1.0814  -1.0808  -1.0369
    -1.0014  -0.9509  -0.9505  -0.9503  -0.9502  -0.9439  -0.9424  -0.9423
    -0.9290  -0.9286  -0.8786  -0.8783  -0.8617  -0.8615  -0.8448  -0.8332
    -0.8326  -0.8196  -0.8176  -0.8170  -0.8157  -0.8155  -0.7734  -0.7715
    -0.7593  -0.7589  -0.7582  -0.7438  -0.7434  -0.7131  -0.7032  -0.7028
    -0.6754  -0.6556  -0.6545  -0.6137  -0.6101  -0.5982  -0.5976  -0.5891
    -0.5884  -0.5819  -0.5809  -0.5772  -0.5769  -0.5555  -0.5479  -0.5474
    -0.5378  -0.5375  -0.5262  -0.5122  -0.5122  -0.4951  -0.4949  -0.4702
    -0.4612  -0.4606  -0.4475  -0.3961  -0.3944  -0.3940  -0.3897  -0.3828
    -0.3819  -0.3812  -0.3609  -0.3600  -0.3477  -0.3475  -0.3454  -0.3452
    -0.3034  -0.3014  -0.3011  -0.2941  -0.2935  -0.2860  -0.2859  -0.2822
    -0.2721  -0.2660  -0.2653  -0.2336  -0.2330  -0.2251  -0.2115  -0.2110
    -0.1581  -0.1574  -0.1296  -0.1292  -0.1205  -0.1204  -0.0872  -0.0770
    -0.0767  -0.0588  -0.0581  -0.0576   0.0213   0.0227   0.1334   0.5345
     0.5350   0.5603   0.5606   0.6231   0.6234   0.9734   0.9739   0.9868
     0.9872   1.1577   1.2243   1.3147   1.3167   1.5743   1.5781   2.1597
     2.1602   2.2904   2.2915   2.5006   2.5015   2.5709   2.5716   2.6594
     2.9374   2.9496   3.1160   3.3308   3.3333   3.3649   3.3661   3.4301
     3.5283   3.6945   3.7009   3.7369   3.9789   3.9794   4.0522   4.0547
     4.2979   4.2984   4.3284   4.5187   4.5199   4.5806   4.6645   4.9559
     4.9928   4.9935   5.1842   5.2739   5.2741   5.3957   5.3966   5.6099
     6.0037   6.0680   6.0700   6.1452   6.1456   6.2036   6.2211   6.2871
     6.2984   6.3003   6.3077   6.3695   6.3700   6.3757   6.3827   6.3921
     6.4468   6.6298   6.7468   6.8536   6.9544   7.0196   7.0214   7.1105
     7.1524   7.2585   7.2651

          k = 0.5000 0.0000 0.1111 (136853 PWs)   bands (ev):

   -18.5879  -6.4008  -6.2852  -5.8864  -5.8834  -5.2080  -4.8617  -4.8600
    -4.8346  -4.8317  -4.4137  -4.4122  -4.3312  -4.2915  -4.2873  -4.2869
    -4.2440  -4.1293  -4.1286  -4.0840  -4.0378  -4.0376  -4.0347  -4.0335
    -3.9865  -3.9859  -3.9590  -3.9559  -3.9364  -3.9165  -3.9148  -3.8402
    -3.8383  -3.8207  -3.8203  -3.7768  -3.7768  -3.7761  -3.7554  -3.7551
    -3.7521  -3.6776  -3.6772  -3.6168  -3.6148  -3.5984  -3.5982  -3.5366
    -3.5360  -3.5081  -3.5079  -3.4701  -3.4545  -3.4543  -3.4355  -3.4350
    -3.4324  -3.4314  -3.4265  -3.4063  -3.3448  -3.3388  -3.3386  -3.3178
    -3.2846  -3.2564  -3.2556  -3.2008  -3.2003  -3.1754  -3.1746  -3.1480
    -3.1213  -3.0843  -3.0837  -3.0478  -3.0470  -3.0098  -3.0056  -3.0054
    -2.9653  -2.9333  -2.9321  -2.9104  -2.9103  -2.9069  -2.9057  -2.9034
    -2.9030  -2.8959  -2.8415  -2.7836  -2.7823  -2.7812  -2.7808  -2.7772
    -2.7547  -2.7545  -2.7381  -2.6619  -2.6605  -2.6596  -2.6522  -2.6046
    -2.5998  -2.5981  -2.5974  -2.5773  -2.5772  -2.5261  -2.5080  -2.5075
    -2.5037  -2.4640  -2.4632  -2.4630  -2.4212  -2.4206  -2.3687  -2.3426
    -2.3422  -2.3392  -2.3390  -2.3166  -2.3162  -2.3114  -2.3038  -2.3030
    -2.2692  -2.2376  -2.2322  -2.2263  -2.2255  -2.2232  -2.2219  -2.2216
    -2.2213  -2.2018  -2.1884  -2.1874  -2.1863  -2.1836  -2.1833  -2.1716
    -2.1667  -2.1658  -2.1396  -2.1360  -2.1358  -2.1133  -2.1108  -2.0939
    -2.0936  -2.0674  -2.0670  -2.0669  -2.0657  -2.0586  -2.0584  -2.0581
    -2.0574  -2.0436  -2.0434  -2.0279  -2.0228  -2.0223  -1.9418  -1.9402
    -1.9268  -1.9252  -1.9071  -1.9067  -1.8859  -1.8734  -1.8730  -1.8538
    -1.8358  -1.8353  -1.8261  -1.8253  -1.7991  -1.7989  -1.7957  -1.7948
    -1.7891  -1.7783  -1.7485  -1.7205  -1.7012  -1.7002  -1.6788  -1.6752
    -1.6745  -1.6161  -1.6143  -1.6023  -1.6019  -1.5328  -1.5315  -1.4924
    -1.4735  -1.4731  -1.4400  -1.4394  -1.4125  -1.4122  -1.3926  -1.3922
    -1.3903  -1.3903  -1.3751  -1.3329  -1.3322  -1.3320  -1.3317  -1.3245
    -1.3238  -1.2960  -1.2932  -1.2927  -1.2583  -1.2471  -1.2469  -1.2419
    -1.2413  -1.2345  -1.2182  -1.1911  -1.1903  -1.1847  -1.1840  -1.1660
    -1.1651  -1.1190  -1.1061  -1.1055  -1.1051  -1.0814  -1.0809  -1.0369
    -1.0014  -0.9508  -0.9506  -0.9504  -0.9502  -0.9440  -0.9424  -0.9422
    -0.9292  -0.9284  -0.8788  -0.8781  -0.8617  -0.8615  -0.8448  -0.8332
    -0.8325  -0.8196  -0.8176  -0.8169  -0.8158  -0.8154  -0.7731  -0.7718
    -0.7594  -0.7588  -0.7583  -0.7437  -0.7434  -0.7131  -0.7034  -0.7027
    -0.6753  -0.6555  -0.6546  -0.6137  -0.6102  -0.5984  -0.5975  -0.5891
    -0.5885  -0.5818  -0.5811  -0.5771  -0.5770  -0.5556  -0.5479  -0.5473
    -0.5378  -0.5375  -0.5263  -0.5123  -0.5121  -0.4953  -0.4948  -0.4702
    -0.4611  -0.4607  -0.4476  -0.3961  -0.3943  -0.3941  -0.3898  -0.3829
    -0.3817  -0.3813  -0.3606  -0.3603  -0.3478  -0.3474  -0.3453  -0.3452
    -0.3034  -0.3013  -0.3012  -0.2939  -0.2938  -0.2860  -0.2859  -0.2822
    -0.2721  -0.2658  -0.2655  -0.2334  -0.2332  -0.2251  -0.2113  -0.2112
    -0.1579  -0.1576  -0.1295  -0.1293  -0.1205  -0.1204  -0.0872  -0.0770
    -0.0767  -0.0589  -0.0581  -0.0575   0.0215   0.0225   0.1334   0.5344
     0.5350   0.5604   0.5605   0.6230   0.6235   0.9732   0.9740   0.9866
     0.9874   1.1577   1.2243   1.3147   1.3166   1.5745   1.5780   2.1595
     2.1604   2.2906   2.2913   2.5009   2.5012   2.5706   2.5719   2.6594
     2.9374   2.9495   3.1160   3.3309   3.3332   3.3646   3.3664   3.4302
     3.5283   3.6948   3.7006   3.7369   3.9787   3.9796   4.0528   4.0540
     4.2979   4.2984   4.3284   4.5186   4.5200   4.5805   4.6646   4.9559
     4.9926   4.9937   5.1842   5.2737   5.2743   5.3944   5.3971   5.6150
     6.0037   6.0683   6.0696   6.1451   6.1457   6.1937   6.2211   6.2871
     6.2989   6.2999   6.3072   6.3694   6.3703   6.3764   6.3808   6.4031
     6.4335   6.6055   6.7878   6.8441   6.9544   7.0196   7.0214   7.0947
     7.1913   7.2451   7.2662

          k =-0.5000 0.0000 0.1111 (136853 PWs)   bands (ev):

   -18.5879  -6.4008  -6.2852  -5.8864  -5.8834  -5.2080  -4.8617  -4.8600
    -4.8346  -4.8317  -4.4137  -4.4122  -4.3312  -4.2915  -4.2873  -4.2869
    -4.2440  -4.1293  -4.1286  -4.0840  -4.0378  -4.0376  -4.0347  -4.0335
    -3.9865  -3.9859  -3.9590  -3.9559  -3.9364  -3.9165  -3.9148  -3.8402
    -3.8383  -3.8207  -3.8203  -3.7768  -3.7768  -3.7761  -3.7554  -3.7551
    -3.7521  -3.6776  -3.6772  -3.6168  -3.6148  -3.5984  -3.5982  -3.5366
    -3.5360  -3.5081  -3.5079  -3.4701  -3.4545  -3.4543  -3.4355  -3.4350
    -3.4324  -3.4314  -3.4265  -3.4063  -3.3448  -3.3388  -3.3386  -3.3178
    -3.2846  -3.2564  -3.2556  -3.2008  -3.2003  -3.1754  -3.1746  -3.1480
    -3.1213  -3.0843  -3.0837  -3.0478  -3.0470  -3.0098  -3.0056  -3.0054
    -2.9653  -2.9333  -2.9321  -2.9104  -2.9103  -2.9069  -2.9057  -2.9034
    -2.9030  -2.8959  -2.8415  -2.7836  -2.7823  -2.7812  -2.7808  -2.7772
    -2.7547  -2.7545  -2.7381  -2.6619  -2.6605  -2.6596  -2.6522  -2.6046
    -2.5998  -2.5981  -2.5974  -2.5773  -2.5772  -2.5261  -2.5080  -2.5075
    -2.5037  -2.4640  -2.4632  -2.4630  -2.4212  -2.4206  -2.3687  -2.3426
    -2.3422  -2.3392  -2.3390  -2.3166  -2.3162  -2.3114  -2.3038  -2.3030
    -2.2692  -2.2376  -2.2322  -2.2263  -2.2255  -2.2232  -2.2219  -2.2216
    -2.2213  -2.2018  -2.1884  -2.1874  -2.1863  -2.1836  -2.1833  -2.1716
    -2.1667  -2.1658  -2.1396  -2.1360  -2.1358  -2.1133  -2.1108  -2.0939
    -2.0936  -2.0674  -2.0670  -2.0669  -2.0657  -2.0586  -2.0584  -2.0581
    -2.0574  -2.0436  -2.0434  -2.0279  -2.0228  -2.0223  -1.9418  -1.9402
    -1.9268  -1.9252  -1.9071  -1.9067  -1.8859  -1.8734  -1.8730  -1.8538
    -1.8358  -1.8353  -1.8261  -1.8253  -1.7991  -1.7989  -1.7957  -1.7948
    -1.7891  -1.7783  -1.7485  -1.7205  -1.7012  -1.7002  -1.6788  -1.6752
    -1.6745  -1.6161  -1.6143  -1.6023  -1.6019  -1.5328  -1.5315  -1.4924
    -1.4735  -1.4731  -1.4400  -1.4394  -1.4125  -1.4122  -1.3926  -1.3922
    -1.3903  -1.3903  -1.3751  -1.3329  -1.3322  -1.3320  -1.3317  -1.3245
    -1.3238  -1.2960  -1.2932  -1.2927  -1.2583  -1.2471  -1.2469  -1.2419
    -1.2413  -1.2345  -1.2182  -1.1911  -1.1903  -1.1847  -1.1840  -1.1660
    -1.1651  -1.1190  -1.1061  -1.1055  -1.1051  -1.0814  -1.0809  -1.0369
    -1.0014  -0.9508  -0.9506  -0.9504  -0.9502  -0.9440  -0.9424  -0.9422
    -0.9292  -0.9284  -0.8788  -0.8781  -0.8617  -0.8615  -0.8448  -0.8332
    -0.8325  -0.8196  -0.8176  -0.8169  -0.8158  -0.8154  -0.7731  -0.7718
    -0.7594  -0.7588  -0.7583  -0.7437  -0.7434  -0.7131  -0.7034  -0.7027
    -0.6753  -0.6555  -0.6546  -0.6137  -0.6102  -0.5984  -0.5975  -0.5891
    -0.5885  -0.5818  -0.5811  -0.5771  -0.5770  -0.5556  -0.5479  -0.5473
    -0.5378  -0.5375  -0.5263  -0.5123  -0.5121  -0.4953  -0.4948  -0.4702
    -0.4611  -0.4607  -0.4476  -0.3961  -0.3943  -0.3941  -0.3898  -0.3829
    -0.3817  -0.3813  -0.3606  -0.3603  -0.3478  -0.3474  -0.3453  -0.3452
    -0.3034  -0.3013  -0.3012  -0.2939  -0.2938  -0.2860  -0.2859  -0.2822
    -0.2721  -0.2658  -0.2655  -0.2334  -0.2332  -0.2251  -0.2113  -0.2112
    -0.1579  -0.1576  -0.1295  -0.1293  -0.1205  -0.1204  -0.0872  -0.0770
    -0.0767  -0.0589  -0.0581  -0.0575   0.0215   0.0225   0.1334   0.5344
     0.5350   0.5604   0.5605   0.6230   0.6235   0.9732   0.9740   0.9866
     0.9874   1.1577   1.2243   1.3147   1.3166   1.5745   1.5780   2.1595
     2.1604   2.2906   2.2913   2.5009   2.5012   2.5706   2.5719   2.6594
     2.9374   2.9495   3.1160   3.3309   3.3332   3.3646   3.3664   3.4302
     3.5283   3.6948   3.7006   3.7369   3.9787   3.9796   4.0528   4.0540
     4.2979   4.2984   4.3284   4.5186   4.5200   4.5805   4.6646   4.9559
     4.9926   4.9937   5.1842   5.2737   5.2743   5.3944   5.3971   5.6150
     6.0037   6.0683   6.0696   6.1451   6.1457   6.1934   6.2211   6.2871
     6.2989   6.2999   6.3072   6.3694   6.3703   6.3764   6.3809   6.4039
     6.4336   6.6054   6.7853   6.8447   6.9544   7.0196   7.0214   7.0957
     7.1922   7.2452   7.2664

          k =-0.2500 0.1443 0.1111 (136898 PWs)   bands (ev):

   -18.5879  -6.4952  -6.4008  -5.7006  -5.4119  -5.3466  -5.3466  -4.7898
    -4.7898  -4.6767  -4.6403  -4.4900  -4.4192  -4.3872  -4.3870  -4.3404
    -4.2699  -4.2699  -4.1328  -4.0904  -4.0904  -4.0692  -4.0685  -4.0676
    -3.9470  -3.9470  -3.8677  -3.8565  -3.8549  -3.8549  -3.8343  -3.8343
    -3.7684  -3.7126  -3.7126  -3.7001  -3.6897  -3.6897  -3.6783  -3.6782
    -3.6701  -3.6228  -3.6228  -3.6133  -3.6133  -3.6011  -3.6010  -3.5695
    -3.5660  -3.5660  -3.5296  -3.5296  -3.5115  -3.5113  -3.4916  -3.4497
    -3.4497  -3.3883  -3.3883  -3.3660  -3.3659  -3.3494  -3.2761  -3.2761
    -3.2672  -3.2671  -3.2502  -3.2501  -3.2266  -3.2266  -3.0752  -3.0751
    -3.0568  -3.0568  -3.0521  -3.0136  -3.0136  -3.0086  -3.0086  -2.9526
    -2.9526  -2.9336  -2.9335  -2.8954  -2.8714  -2.8713  -2.8490  -2.8411
    -2.8410  -2.7963  -2.7962  -2.7770  -2.7768  -2.7721  -2.7721  -2.7466
    -2.7465  -2.7018  -2.7018  -2.6957  -2.6956  -2.6811  -2.6319  -2.6318
    -2.6084  -2.6003  -2.6001  -2.5975  -2.5205  -2.5205  -2.4903  -2.4902
    -2.4833  -2.4745  -2.4527  -2.4252  -2.4251  -2.4078  -2.4046  -2.4003
    -2.4003  -2.3874  -2.3786  -2.3784  -2.3699  -2.3698  -2.3618  -2.3617
    -2.3103  -2.2843  -2.2651  -2.2609  -2.2609  -2.2447  -2.2446  -2.2417
    -2.2416  -2.2307  -2.2005  -2.2005  -2.1889  -2.1830  -2.1701  -2.1700
    -2.1677  -2.1418  -2.1417  -2.1316  -2.1235  -2.1234  -2.0666  -2.0554
    -2.0433  -2.0432  -2.0416  -2.0217  -2.0216  -2.0086  -1.9878  -1.9878
    -1.9828  -1.9827  -1.9709  -1.9592  -1.9591  -1.9461  -1.9296  -1.9294
    -1.8823  -1.8822  -1.8725  -1.8723  -1.8722  -1.8692  -1.8596  -1.8595
    -1.8565  -1.8565  -1.8438  -1.8385  -1.8383  -1.7239  -1.7236  -1.6946
    -1.6945  -1.6938  -1.6714  -1.6668  -1.6668  -1.6569  -1.6568  -1.6366
    -1.6365  -1.6357  -1.6294  -1.6291  -1.5932  -1.5931  -1.5920  -1.5623
    -1.5623  -1.5564  -1.5564  -1.5423  -1.5421  -1.4851  -1.4824  -1.4586
    -1.4585  -1.4498  -1.4438  -1.4214  -1.4214  -1.4160  -1.4160  -1.4124
    -1.4123  -1.4000  -1.4000  -1.3807  -1.3430  -1.3428  -1.3116  -1.3116
    -1.3015  -1.2644  -1.2641  -1.2306  -1.2305  -1.2202  -1.2199  -1.2059
    -1.1886  -1.1881  -1.1687  -1.1685  -1.1380  -1.1379  -1.1187  -1.1186
    -1.0850  -1.0849  -1.0732  -1.0188  -1.0186  -1.0144  -1.0143  -0.9945
    -0.9945  -0.9777  -0.9777  -0.9471  -0.9357  -0.9155  -0.9133  -0.9133
    -0.8821  -0.8624  -0.8619  -0.8614  -0.8518  -0.8515  -0.8465  -0.8465
    -0.8162  -0.8086  -0.8086  -0.7957  -0.7952  -0.7892  -0.7891  -0.7700
    -0.7534  -0.7530  -0.7245  -0.7242  -0.6416  -0.6238  -0.6233  -0.6231
    -0.6211  -0.6160  -0.6159  -0.6071  -0.5850  -0.5639  -0.5636  -0.5585
    -0.5583  -0.5552  -0.5401  -0.5250  -0.5248  -0.5206  -0.5054  -0.4255
    -0.4254  -0.3971  -0.3968  -0.3873  -0.3870  -0.3798  -0.3787  -0.3787
    -0.3722  -0.3722  -0.3552  -0.3224  -0.3100  -0.2906  -0.2905  -0.2817
    -0.2816  -0.2740  -0.2740  -0.2659  -0.2632  -0.2631  -0.2450  -0.2424
    -0.2423  -0.2106  -0.2105  -0.2097  -0.1925  -0.1925  -0.1698  -0.1437
    -0.1436  -0.1336  -0.1336  -0.0656  -0.0655  -0.0472  -0.0472   0.0143
     0.0174   0.0184   0.0184   0.0465   0.2532   0.2538   0.5968   0.5968
     0.6720   0.6727   0.8229   0.8520   0.8732   1.0088   1.0090   1.3870
     1.4544   1.4544   1.6888   1.6888   1.7438   2.0545   2.0556   2.0881
     2.0881   2.1266   2.1273   2.2818   2.2818   2.4565   2.4566   2.4680
     2.6120   2.6131   2.6593   2.8690   3.2362   3.2363   3.2779   3.2780
     3.2853   3.2856   3.6125   3.6125   3.9475   3.9482   4.0195   4.2813
     4.4110   4.4116   4.6087   4.6111   4.7006   4.7007   4.7794   4.9407
     4.9408   5.0342   5.0344   5.3260   5.3884   5.3887   5.5570   5.5807
     5.5953   5.7282   5.7286   5.7321   5.7323   5.8783   5.8783   5.9400
     6.1047   6.4649   6.4707   6.5581   6.5581   6.5634   6.5640   6.6058
     6.7706   6.7777   6.7783   6.8034   6.8904   7.0881   7.1260   7.1294
     7.1413   7.2963   7.3654

          k =-0.2500-0.1443-0.1111 (136898 PWs)   bands (ev):

   -18.5879  -6.4952  -6.4008  -5.7006  -5.4119  -5.3466  -5.3466  -4.7898
    -4.7897  -4.6767  -4.6404  -4.4900  -4.4192  -4.3872  -4.3871  -4.3406
    -4.2700  -4.2697  -4.1328  -4.0906  -4.0903  -4.0692  -4.0685  -4.0676
    -3.9470  -3.9469  -3.8677  -3.8566  -3.8549  -3.8548  -3.8345  -3.8341
    -3.7684  -3.7128  -3.7125  -3.7001  -3.6899  -3.6897  -3.6784  -3.6783
    -3.6700  -3.6228  -3.6228  -3.6133  -3.6132  -3.6013  -3.6010  -3.5693
    -3.5660  -3.5659  -3.5298  -3.5295  -3.5114  -3.5113  -3.4918  -3.4498
    -3.4496  -3.3884  -3.3882  -3.3659  -3.3657  -3.3493  -3.2763  -3.2762
    -3.2671  -3.2670  -3.2504  -3.2500  -3.2268  -3.2266  -3.0752  -3.0752
    -3.0569  -3.0568  -3.0521  -3.0137  -3.0136  -3.0087  -3.0084  -2.9527
    -2.9526  -2.9336  -2.9335  -2.8953  -2.8714  -2.8711  -2.8491  -2.8412
    -2.8412  -2.7963  -2.7963  -2.7770  -2.7769  -2.7722  -2.7721  -2.7464
    -2.7463  -2.7019  -2.7016  -2.6956  -2.6955  -2.6810  -2.6319  -2.6318
    -2.6086  -2.6004  -2.6001  -2.5975  -2.5205  -2.5202  -2.4901  -2.4900
    -2.4834  -2.4743  -2.4528  -2.4253  -2.4249  -2.4077  -2.4047  -2.4004
    -2.4003  -2.3876  -2.3785  -2.3784  -2.3698  -2.3698  -2.3620  -2.3619
    -2.3103  -2.2842  -2.2650  -2.2610  -2.2609  -2.2448  -2.2447  -2.2416
    -2.2416  -2.2309  -2.2006  -2.2003  -2.1890  -2.1831  -2.1701  -2.1698
    -2.1675  -2.1417  -2.1416  -2.1318  -2.1236  -2.1232  -2.0668  -2.0555
    -2.0434  -2.0433  -2.0415  -2.0218  -2.0213  -2.0086  -1.9877  -1.9877
    -1.9827  -1.9826  -1.9708  -1.9593  -1.9592  -1.9461  -1.9295  -1.9294
    -1.8823  -1.8821  -1.8725  -1.8723  -1.8722  -1.8689  -1.8596  -1.8595
    -1.8571  -1.8562  -1.8438  -1.8385  -1.8384  -1.7238  -1.7237  -1.6945
    -1.6944  -1.6938  -1.6709  -1.6675  -1.6670  -1.6569  -1.6567  -1.6365
    -1.6364  -1.6357  -1.6292  -1.6290  -1.5932  -1.5928  -1.5920  -1.5625
    -1.5625  -1.5569  -1.5561  -1.5422  -1.5421  -1.4851  -1.4822  -1.4586
    -1.4584  -1.4496  -1.4438  -1.4216  -1.4215  -1.4162  -1.4160  -1.4128
    -1.4121  -1.3998  -1.3998  -1.3807  -1.3432  -1.3430  -1.3119  -1.3114
    -1.3020  -1.2642  -1.2641  -1.2305  -1.2303  -1.2203  -1.2197  -1.2059
    -1.1887  -1.1880  -1.1686  -1.1685  -1.1379  -1.1378  -1.1188  -1.1187
    -1.0849  -1.0849  -1.0733  -1.0188  -1.0186  -1.0146  -1.0145  -0.9947
    -0.9945  -0.9775  -0.9774  -0.9467  -0.9354  -0.9155  -0.9135  -0.9131
    -0.8818  -0.8626  -0.8619  -0.8615  -0.8519  -0.8518  -0.8466  -0.8466
    -0.8161  -0.8087  -0.8085  -0.7956  -0.7953  -0.7894  -0.7889  -0.7700
    -0.7536  -0.7533  -0.7244  -0.7242  -0.6414  -0.6238  -0.6233  -0.6231
    -0.6208  -0.6163  -0.6160  -0.6069  -0.5850  -0.5639  -0.5637  -0.5587
    -0.5583  -0.5551  -0.5403  -0.5247  -0.5247  -0.5208  -0.5055  -0.4255
    -0.4253  -0.3970  -0.3968  -0.3872  -0.3871  -0.3799  -0.3788  -0.3786
    -0.3723  -0.3720  -0.3552  -0.3226  -0.3099  -0.2906  -0.2905  -0.2817
    -0.2816  -0.2741  -0.2738  -0.2660  -0.2631  -0.2631  -0.2450  -0.2425
    -0.2424  -0.2105  -0.2103  -0.2097  -0.1925  -0.1924  -0.1698  -0.1437
    -0.1436  -0.1336  -0.1335  -0.0657  -0.0656  -0.0475  -0.0469   0.0143
     0.0171   0.0183   0.0185   0.0465   0.2535   0.2538   0.5968   0.5968
     0.6723   0.6727   0.8229   0.8517   0.8733   1.0088   1.0089   1.3872
     1.4543   1.4545   1.6887   1.6889   1.7438   2.0548   2.0552   2.0879
     2.0881   2.1268   2.1271   2.2815   2.2818   2.4565   2.4566   2.4680
     2.6122   2.6127   2.6591   2.8691   3.2361   3.2365   3.2778   3.2782
     3.2854   3.2856   3.6123   3.6127   3.9477   3.9481   4.0194   4.2813
     4.4110   4.4113   4.6098   4.6100   4.7005   4.7010   4.7794   4.9405
     4.9409   5.0345   5.0347   5.3261   5.3884   5.3887   5.5583   5.5818
     5.5988   5.7281   5.7284   5.7320   5.7321   5.8782   5.8787   5.9394
     6.1028   6.4424   6.4646   6.5580   6.5584   6.5637   6.5640   6.5976
     6.7558   6.7778   6.7782   6.8332   6.8804   7.0824   7.1285   7.1295
     7.2492   7.2817   7.3576

          k = 0.2500 0.1443-0.1111 (136898 PWs)   bands (ev):

   -18.5879  -6.4952  -6.4008  -5.7006  -5.4119  -5.3466  -5.3466  -4.7898
    -4.7897  -4.6767  -4.6404  -4.4900  -4.4192  -4.3872  -4.3871  -4.3406
    -4.2700  -4.2697  -4.1327  -4.0906  -4.0903  -4.0692  -4.0685  -4.0676
    -3.9470  -3.9469  -3.8677  -3.8566  -3.8549  -3.8548  -3.8345  -3.8341
    -3.7684  -3.7128  -3.7125  -3.7000  -3.6899  -3.6896  -3.6784  -3.6783
    -3.6700  -3.6228  -3.6228  -3.6133  -3.6132  -3.6013  -3.6010  -3.5693
    -3.5660  -3.5659  -3.5298  -3.5295  -3.5114  -3.5113  -3.4918  -3.4498
    -3.4496  -3.3884  -3.3882  -3.3659  -3.3657  -3.3493  -3.2763  -3.2762
    -3.2671  -3.2670  -3.2504  -3.2500  -3.2268  -3.2266  -3.0752  -3.0752
    -3.0569  -3.0568  -3.0521  -3.0137  -3.0136  -3.0087  -3.0084  -2.9527
    -2.9526  -2.9336  -2.9335  -2.8952  -2.8714  -2.8711  -2.8491  -2.8412
    -2.8412  -2.7963  -2.7963  -2.7770  -2.7769  -2.7722  -2.7721  -2.7464
    -2.7463  -2.7019  -2.7016  -2.6956  -2.6955  -2.6810  -2.6319  -2.6318
    -2.6086  -2.6004  -2.6001  -2.5975  -2.5205  -2.5202  -2.4901  -2.4900
    -2.4834  -2.4743  -2.4528  -2.4253  -2.4249  -2.4077  -2.4047  -2.4004
    -2.4003  -2.3876  -2.3785  -2.3784  -2.3698  -2.3698  -2.3620  -2.3619
    -2.3103  -2.2842  -2.2650  -2.2610  -2.2609  -2.2448  -2.2447  -2.2416
    -2.2416  -2.2309  -2.2006  -2.2003  -2.1890  -2.1831  -2.1701  -2.1698
    -2.1675  -2.1417  -2.1416  -2.1319  -2.1236  -2.1232  -2.0668  -2.0555
    -2.0434  -2.0433  -2.0415  -2.0218  -2.0213  -2.0086  -1.9877  -1.9877
    -1.9826  -1.9826  -1.9708  -1.9593  -1.9592  -1.9461  -1.9295  -1.9294
    -1.8823  -1.8821  -1.8725  -1.8723  -1.8722  -1.8689  -1.8596  -1.8595
    -1.8571  -1.8562  -1.8438  -1.8385  -1.8384  -1.7238  -1.7237  -1.6945
    -1.6944  -1.6938  -1.6709  -1.6675  -1.6670  -1.6569  -1.6567  -1.6365
    -1.6364  -1.6357  -1.6292  -1.6290  -1.5932  -1.5928  -1.5920  -1.5625
    -1.5625  -1.5569  -1.5561  -1.5422  -1.5421  -1.4851  -1.4822  -1.4586
    -1.4584  -1.4496  -1.4438  -1.4216  -1.4215  -1.4162  -1.4160  -1.4128
    -1.4121  -1.3998  -1.3998  -1.3807  -1.3432  -1.3430  -1.3119  -1.3114
    -1.3019  -1.2642  -1.2641  -1.2305  -1.2303  -1.2203  -1.2197  -1.2059
    -1.1887  -1.1880  -1.1686  -1.1685  -1.1379  -1.1378  -1.1188  -1.1187
    -1.0849  -1.0849  -1.0733  -1.0188  -1.0186  -1.0146  -1.0145  -0.9947
    -0.9945  -0.9775  -0.9774  -0.9467  -0.9354  -0.9155  -0.9135  -0.9131
    -0.8818  -0.8626  -0.8619  -0.8615  -0.8519  -0.8518  -0.8466  -0.8466
    -0.8161  -0.8087  -0.8085  -0.7956  -0.7953  -0.7894  -0.7889  -0.7701
    -0.7535  -0.7533  -0.7244  -0.7242  -0.6414  -0.6238  -0.6233  -0.6231
    -0.6208  -0.6163  -0.6160  -0.6069  -0.5850  -0.5639  -0.5637  -0.5587
    -0.5583  -0.5551  -0.5403  -0.5247  -0.5247  -0.5208  -0.5055  -0.4255
    -0.4253  -0.3970  -0.3968  -0.3872  -0.3871  -0.3799  -0.3787  -0.3786
    -0.3723  -0.3720  -0.3552  -0.3226  -0.3099  -0.2906  -0.2905  -0.2817
    -0.2816  -0.2741  -0.2738  -0.2659  -0.2631  -0.2631  -0.2450  -0.2425
    -0.2424  -0.2105  -0.2103  -0.2097  -0.1925  -0.1924  -0.1698  -0.1437
    -0.1436  -0.1336  -0.1335  -0.0657  -0.0656  -0.0475  -0.0469   0.0143
     0.0171   0.0183   0.0185   0.0465   0.2535   0.2538   0.5968   0.5968
     0.6723   0.6727   0.8229   0.8517   0.8733   1.0088   1.0089   1.3872
     1.4543   1.4545   1.6887   1.6889   1.7438   2.0548   2.0552   2.0879
     2.0881   2.1268   2.1271   2.2815   2.2818   2.4565   2.4566   2.4680
     2.6122   2.6127   2.6591   2.8691   3.2361   3.2365   3.2778   3.2782
     3.2854   3.2856   3.6123   3.6127   3.9477   3.9481   4.0194   4.2813
     4.4110   4.4113   4.6098   4.6100   4.7005   4.7010   4.7794   4.9405
     4.9409   5.0345   5.0347   5.3261   5.3884   5.3887   5.5582   5.5818
     5.5989   5.7281   5.7284   5.7320   5.7321   5.8782   5.8787   5.9394
     6.1025   6.4453   6.4645   6.5580   6.5584   6.5637   6.5640   6.5969
     6.7502   6.7778   6.7782   6.8316   6.8773   7.0840   7.1286   7.1296
     7.2610   7.2928   7.3692

          k = 0.0000-0.2887 0.1111 (136898 PWs)   bands (ev):

   -18.5879  -6.4952  -6.4008  -5.7006  -5.4119  -5.3466  -5.3466  -4.7898
    -4.7897  -4.6767  -4.6405  -4.4900  -4.4192  -4.3872  -4.3870  -4.3406
    -4.2699  -4.2698  -4.1328  -4.0905  -4.0904  -4.0690  -4.0685  -4.0678
    -3.9470  -3.9469  -3.8677  -3.8565  -3.8549  -3.8548  -3.8344  -3.8342
    -3.7684  -3.7127  -3.7126  -3.7001  -3.6899  -3.6897  -3.6783  -3.6783
    -3.6701  -3.6228  -3.6228  -3.6133  -3.6132  -3.6012  -3.6010  -3.5693
    -3.5660  -3.5659  -3.5298  -3.5295  -3.5115  -3.5113  -3.4918  -3.4497
    -3.4496  -3.3884  -3.3883  -3.3659  -3.3657  -3.3493  -3.2763  -3.2762
    -3.2671  -3.2670  -3.2503  -3.2501  -3.2268  -3.2266  -3.0753  -3.0752
    -3.0569  -3.0568  -3.0521  -3.0137  -3.0136  -3.0088  -3.0083  -2.9527
    -2.9526  -2.9336  -2.9335  -2.8952  -2.8715  -2.8710  -2.8491  -2.8412
    -2.8411  -2.7963  -2.7962  -2.7770  -2.7769  -2.7722  -2.7721  -2.7464
    -2.7464  -2.7019  -2.7016  -2.6956  -2.6955  -2.6810  -2.6319  -2.6318
    -2.6086  -2.6003  -2.6001  -2.5975  -2.5207  -2.5201  -2.4901  -2.4900
    -2.4833  -2.4743  -2.4528  -2.4251  -2.4250  -2.4077  -2.4047  -2.4004
    -2.4002  -2.3876  -2.3785  -2.3784  -2.3698  -2.3698  -2.3620  -2.3619
    -2.3103  -2.2842  -2.2651  -2.2610  -2.2609  -2.2448  -2.2447  -2.2416
    -2.2416  -2.2309  -2.2007  -2.2002  -2.1890  -2.1831  -2.1701  -2.1698
    -2.1676  -2.1417  -2.1416  -2.1318  -2.1237  -2.1233  -2.0668  -2.0555
    -2.0434  -2.0433  -2.0415  -2.0218  -2.0213  -2.0087  -1.9877  -1.9877
    -1.9827  -1.9826  -1.9708  -1.9592  -1.9592  -1.9461  -1.9296  -1.9294
    -1.8823  -1.8821  -1.8725  -1.8723  -1.8722  -1.8690  -1.8596  -1.8594
    -1.8568  -1.8564  -1.8437  -1.8386  -1.8384  -1.7238  -1.7237  -1.6946
    -1.6945  -1.6937  -1.6709  -1.6674  -1.6670  -1.6569  -1.6567  -1.6366
    -1.6364  -1.6356  -1.6293  -1.6290  -1.5932  -1.5928  -1.5920  -1.5625
    -1.5625  -1.5568  -1.5562  -1.5423  -1.5421  -1.4851  -1.4822  -1.4586
    -1.4584  -1.4496  -1.4438  -1.4215  -1.4215  -1.4161  -1.4159  -1.4128
    -1.4121  -1.3999  -1.3998  -1.3807  -1.3432  -1.3430  -1.3118  -1.3115
    -1.3019  -1.2642  -1.2641  -1.2306  -1.2303  -1.2203  -1.2197  -1.2059
    -1.1886  -1.1881  -1.1686  -1.1685  -1.1379  -1.1377  -1.1188  -1.1186
    -1.0849  -1.0849  -1.0732  -1.0188  -1.0186  -1.0146  -1.0145  -0.9950
    -0.9942  -0.9775  -0.9775  -0.9467  -0.9355  -0.9155  -0.9135  -0.9131
    -0.8819  -0.8625  -0.8619  -0.8615  -0.8519  -0.8517  -0.8466  -0.8466
    -0.8161  -0.8088  -0.8084  -0.7957  -0.7952  -0.7894  -0.7890  -0.7700
    -0.7536  -0.7532  -0.7244  -0.7242  -0.6415  -0.6239  -0.6233  -0.6230
    -0.6208  -0.6163  -0.6160  -0.6069  -0.5850  -0.5639  -0.5636  -0.5586
    -0.5583  -0.5552  -0.5403  -0.5248  -0.5247  -0.5207  -0.5055  -0.4255
    -0.4253  -0.3970  -0.3968  -0.3873  -0.3871  -0.3799  -0.3787  -0.3787
    -0.3723  -0.3720  -0.3552  -0.3226  -0.3099  -0.2906  -0.2905  -0.2817
    -0.2816  -0.2741  -0.2739  -0.2659  -0.2632  -0.2631  -0.2449  -0.2425
    -0.2423  -0.2106  -0.2103  -0.2096  -0.1926  -0.1924  -0.1698  -0.1437
    -0.1436  -0.1336  -0.1335  -0.0657  -0.0656  -0.0474  -0.0470   0.0143
     0.0172   0.0183   0.0185   0.0465   0.2533   0.2539   0.5968   0.5968
     0.6722   0.6728   0.8229   0.8518   0.8732   1.0088   1.0089   1.3872
     1.4544   1.4544   1.6888   1.6888   1.7438   2.0546   2.0555   2.0879
     2.0882   2.1266   2.1272   2.2815   2.2818   2.4565   2.4566   2.4680
     2.6121   2.6129   2.6591   2.8691   3.2360   3.2365   3.2780   3.2781
     3.2853   3.2856   3.6124   3.6126   3.9476   3.9482   4.0194   4.2813
     4.4109   4.4114   4.6091   4.6107   4.7004   4.7010   4.7794   4.9405
     4.9409   5.0345   5.0347   5.3261   5.3881   5.3889   5.5570   5.5812
     5.5971   5.7281   5.7285   5.7319   5.7322   5.8781   5.8788   5.9397
     6.1039   6.4608   6.4646   6.5579   6.5584   6.5636   6.5641   6.6020
     6.7604   6.7777   6.7783   6.8165   6.8869   7.0860   7.1277   7.1302
     7.1717   7.3011   7.3641

          k = 0.0000 0.2887 0.1111 (136898 PWs)   bands (ev):

   -18.5879  -6.4952  -6.4008  -5.7006  -5.4119  -5.3466  -5.3466  -4.7898
    -4.7897  -4.6767  -4.6405  -4.4900  -4.4192  -4.3872  -4.3870  -4.3406
    -4.2699  -4.2698  -4.1328  -4.0905  -4.0904  -4.0690  -4.0685  -4.0678
    -3.9470  -3.9469  -3.8677  -3.8566  -3.8549  -3.8548  -3.8344  -3.8342
    -3.7684  -3.7127  -3.7126  -3.7001  -3.6899  -3.6897  -3.6783  -3.6783
    -3.6701  -3.6228  -3.6228  -3.6133  -3.6132  -3.6012  -3.6010  -3.5693
    -3.5660  -3.5659  -3.5298  -3.5295  -3.5115  -3.5113  -3.4918  -3.4497
    -3.4496  -3.3884  -3.3882  -3.3659  -3.3657  -3.3493  -3.2763  -3.2762
    -3.2671  -3.2670  -3.2503  -3.2501  -3.2268  -3.2266  -3.0753  -3.0752
    -3.0569  -3.0568  -3.0521  -3.0137  -3.0136  -3.0088  -3.0083  -2.9527
    -2.9526  -2.9336  -2.9335  -2.8952  -2.8715  -2.8710  -2.8491  -2.8412
    -2.8411  -2.7963  -2.7962  -2.7770  -2.7769  -2.7722  -2.7721  -2.7465
    -2.7464  -2.7019  -2.7016  -2.6956  -2.6955  -2.6810  -2.6319  -2.6318
    -2.6086  -2.6004  -2.6001  -2.5975  -2.5207  -2.5201  -2.4901  -2.4900
    -2.4833  -2.4743  -2.4529  -2.4251  -2.4250  -2.4077  -2.4047  -2.4004
    -2.4002  -2.3876  -2.3785  -2.3784  -2.3698  -2.3698  -2.3620  -2.3619
    -2.3103  -2.2842  -2.2651  -2.2610  -2.2609  -2.2449  -2.2447  -2.2416
    -2.2416  -2.2309  -2.2007  -2.2002  -2.1890  -2.1831  -2.1701  -2.1698
    -2.1676  -2.1417  -2.1416  -2.1318  -2.1237  -2.1233  -2.0668  -2.0556
    -2.0434  -2.0433  -2.0415  -2.0218  -2.0213  -2.0087  -1.9877  -1.9877
    -1.9827  -1.9826  -1.9708  -1.9592  -1.9592  -1.9461  -1.9296  -1.9294
    -1.8823  -1.8821  -1.8725  -1.8723  -1.8722  -1.8690  -1.8596  -1.8594
    -1.8568  -1.8564  -1.8438  -1.8386  -1.8384  -1.7238  -1.7237  -1.6946
    -1.6945  -1.6937  -1.6709  -1.6674  -1.6670  -1.6569  -1.6567  -1.6366
    -1.6364  -1.6356  -1.6293  -1.6290  -1.5932  -1.5928  -1.5920  -1.5625
    -1.5625  -1.5568  -1.5562  -1.5423  -1.5421  -1.4851  -1.4822  -1.4586
    -1.4584  -1.4496  -1.4438  -1.4215  -1.4215  -1.4161  -1.4159  -1.4128
    -1.4121  -1.3999  -1.3998  -1.3807  -1.3432  -1.3430  -1.3118  -1.3115
    -1.3019  -1.2643  -1.2641  -1.2306  -1.2303  -1.2204  -1.2197  -1.2059
    -1.1886  -1.1881  -1.1686  -1.1685  -1.1379  -1.1377  -1.1188  -1.1186
    -1.0849  -1.0849  -1.0732  -1.0188  -1.0186  -1.0146  -1.0145  -0.9950
    -0.9942  -0.9775  -0.9775  -0.9467  -0.9355  -0.9155  -0.9135  -0.9131
    -0.8819  -0.8625  -0.8619  -0.8615  -0.8519  -0.8517  -0.8466  -0.8466
    -0.8162  -0.8088  -0.8084  -0.7957  -0.7952  -0.7894  -0.7890  -0.7700
    -0.7536  -0.7532  -0.7244  -0.7242  -0.6415  -0.6239  -0.6233  -0.6230
    -0.6209  -0.6163  -0.6160  -0.6069  -0.5850  -0.5639  -0.5636  -0.5586
    -0.5583  -0.5552  -0.5403  -0.5248  -0.5247  -0.5208  -0.5055  -0.4255
    -0.4253  -0.3970  -0.3968  -0.3873  -0.3871  -0.3799  -0.3787  -0.3787
    -0.3723  -0.3720  -0.3552  -0.3226  -0.3099  -0.2906  -0.2905  -0.2817
    -0.2816  -0.2741  -0.2739  -0.2659  -0.2632  -0.2631  -0.2449  -0.2425
    -0.2423  -0.2106  -0.2103  -0.2096  -0.1926  -0.1924  -0.1698  -0.1437
    -0.1436  -0.1336  -0.1335  -0.0657  -0.0656  -0.0475  -0.0470   0.0143
     0.0172   0.0183   0.0185   0.0465   0.2533   0.2539   0.5968   0.5968
     0.6722   0.6728   0.8229   0.8518   0.8732   1.0088   1.0089   1.3872
     1.4544   1.4544   1.6888   1.6888   1.7438   2.0546   2.0555   2.0879
     2.0882   2.1266   2.1272   2.2815   2.2818   2.4565   2.4566   2.4680
     2.6121   2.6129   2.6591   2.8691   3.2360   3.2365   3.2780   3.2781
     3.2853   3.2856   3.6124   3.6126   3.9476   3.9482   4.0194   4.2813
     4.4109   4.4114   4.6091   4.6107   4.7004   4.7010   4.7794   4.9405
     4.9409   5.0345   5.0347   5.3261   5.3881   5.3889   5.5570   5.5811
     5.5972   5.7281   5.7285   5.7319   5.7322   5.8781   5.8788   5.9397
     6.1043   6.4600   6.4646   6.5579   6.5584   6.5636   6.5641   6.6028
     6.7602   6.7777   6.7783   6.8137   6.8845   7.0861   7.1277   7.1303
     7.1770   7.3080   7.3793

     the Fermi energy is     1.5777 ev

!    total energy              =   -6564.20064176 Ry
     Harris-Foulkes estimate   =   -6564.20064176 Ry
     estimated scf accuracy    <          4.8E-09 Ry

     The total energy is the sum of the following terms:

     one-electron contribution =  -48109.96516726 Ry
     hartree contribution      =   24556.41240155 Ry
     xc contribution           =   -3162.26973808 Ry
     ewald contribution        =   20151.61973361 Ry
     smearing contrib. (-TS)   =       0.00212841 Ry

     convergence has been achieved in  24 iterations

     Writing output data file 9177673.save

     init_run     :    150.64s CPU    162.05s WALL (       1 calls)
     electrons    :   9100.80s CPU   9735.50s WALL (       1 calls)

     Called by init_run:
     wfcinit      :    119.00s CPU    129.91s WALL (       1 calls)
     potinit      :      5.90s CPU      6.01s WALL (       1 calls)

     Called by electrons:
     c_bands      :   7578.60s CPU   8082.97s WALL (      25 calls)
     sum_band     :   1167.86s CPU   1286.68s WALL (      25 calls)
     v_of_rho     :     19.90s CPU     21.68s WALL (      25 calls)
     newd         :    341.66s CPU    347.23s WALL (      25 calls)
     mix_rho      :      3.53s CPU      3.83s WALL (      25 calls)

     Called by c_bands:
     init_us_2    :     23.01s CPU     23.66s WALL (     612 calls)
     cegterg      :   7473.66s CPU   7976.40s WALL (     300 calls)

     Called by *egterg:
     h_psi        :   3476.51s CPU   3934.41s WALL (    1676 calls)
     s_psi        :    443.95s CPU    446.67s WALL (    1676 calls)
     g_psi        :      6.05s CPU      6.14s WALL (    1364 calls)
     cdiaghg      :   2070.66s CPU   2076.62s WALL (    1652 calls)

     Called by h_psi:
     add_vuspsi   :    448.90s CPU    451.88s WALL (    1676 calls)

     General routines
     calbec       :    655.15s CPU    658.22s WALL (    1976 calls)
     fft          :     57.93s CPU     60.42s WALL (     400 calls)
     ffts         :      1.82s CPU      2.10s WALL (      50 calls)
     fftw         :   2447.42s CPU   2897.56s WALL (  734322 calls)
     interpolate  :      5.49s CPU      6.22s WALL (      50 calls)
     davcio       :      0.01s CPU      0.32s WALL (      12 calls)

     Parallel routines
     fft_scatter  :   1679.41s CPU   1988.65s WALL (  734772 calls)

     PWSCF        :     2h34m CPU        2h45m WALL


   This run was terminated on:  17:28:34  10Aug2015            

=------------------------------------------------------------------------------=
   JOB DONE.
=------------------------------------------------------------------------------=
