Setting SGE environment for SCC

     Program PWSCF v.5.1.2 starts on 10Aug2015 at 13:43: 1 

     This program is part of the open-source Quantum ESPRESSO suite
     for quantum simulation of materials; please cite
         "P. Giannozzi et al., J. Phys.:Condens. Matter 21 395502 (2009);
          URL http://www.quantum-espresso.org", 
     in publications or presentations arising from this work. More details at
     http://www.quantum-espresso.org/quote

     Parallel version (MPI), running on    32 processors
     R & G space division:  proc/nbgrp/npool/nimage =      32
     Reading input from hollow.O1.Au535758.d.2.5.phi.0.psi.0.in
Warning: card &IONS ignored
Warning: card / ignored
Warning: card &CELL ignored
Warning: card / ignored

     Current dimensions of program PWSCF are:
     Max number of different atomic species (ntypx) = 10
     Max number of k-points (npk) =  40000
     Max angular momentum in pseudopotentials (lmaxx) =  3

     Subspace diagonalization in iterative solution of the eigenvalue problem:
     a serial algorithm will be used


     Parallelization info
     --------------------
     sticks:   dense  smooth     PW     G-vecs:    dense   smooth      PW
     Min         445     223     58                96775    34191    4534
     Max         446     224     59                96790    34246    4540
     Sum       14269    7147   1867              3097177  1095093  145167


     Title: 
     hollow.O1.Au535758.d.2.5.phi.0.psi.0                                       


     bravais-lattice index     =            4
     lattice parameter (alat)  =      22.7436  a.u.
     unit-cell volume          =   22924.1508 (a.u.)^3
     number of atoms/cell      =           67
     number of atomic types    =            3
     number of electrons       =       712.00
     number of Kohn-Sham states=          427
     kinetic-energy cutoff     =      50.0000  Ry
     charge density cutoff     =     400.0000  Ry
     convergence threshold     =      1.0E-08
     mixing beta               =       0.7000
     number of iterations used =            8  plain     mixing
     Exchange-correlation      =  SLA  PW   PBE  PBE ( 1  4  3  4 0 0)

     celldm(1)=  22.743643  celldm(2)=   0.000000  celldm(3)=   2.250000
     celldm(4)=   0.000000  celldm(5)=   0.000000  celldm(6)=   0.000000

     crystal axes: (cart. coord. in units of alat)
               a(1) = (   1.000000   0.000000   0.000000 )  
               a(2) = (  -0.500000   0.866025   0.000000 )  
               a(3) = (   0.000000   0.000000   2.250000 )  

     reciprocal axes: (cart. coord. in units 2 pi/alat)
               b(1) = (  1.000000  0.577350 -0.000000 )  
               b(2) = (  0.000000  1.154701  0.000000 )  
               b(3) = (  0.000000 -0.000000  0.444444 )  


     PseudoPot. # 1 for Au read from file:
     /home/scc/andrejb/qe/pseudo/Au.pbe-nd-van.UPF
     MD5 check sum: 458681b50f36d87ef23c61b04bba420a
     Pseudo is Ultrasoft + core correction, Zval = 11.0
     Generated by new atomic code, or converted to UPF format
     Using radial grid of  985 points,  3 beta functions with: 
                l(1) =   1
                l(2) =   2
                l(3) =   2
     Q(r) pseudized with  8 coefficients,  rinner =    1.100   1.100   1.100
                                                       1.100   1.100

     PseudoPot. # 2 for H  read from file:
     /home/scc/andrejb/qe/pseudo/H.pbe-van_ak.UPF
     MD5 check sum: 403db7282739603aa925980fa9b8608d
     Pseudo is Ultrasoft, Zval =  1.0
     Generated by new atomic code, or converted to UPF format
     Using radial grid of  615 points,  1 beta functions with: 
                l(1) =   0
     Q(r) pseudized with  8 coefficients,  rinner =    0.800

     PseudoPot. # 3 for O  read from file:
     /home/scc/andrejb/qe/pseudo/O.pbe-van_ak.UPF
     MD5 check sum: 4b8c549914a63cae506c6ff22b5af4fe
     Pseudo is Ultrasoft, Zval =  6.0
     Generated by new atomic code, or converted to UPF format
     Using radial grid of  737 points,  4 beta functions with: 
                l(1) =   0
                l(2) =   0
                l(3) =   1
                l(4) =   1
     Q(r) pseudized with  8 coefficients,  rinner =    0.800   0.800   0.800


     atomic species   valence    mass     pseudopotential
        Au            11.00   196.96657     Au( 1.00)
        H              1.00     1.01000     H ( 1.00)
        O              6.00    16.00000     O ( 1.00)

     No symmetry found



   Cartesian axes

     site n.     atom                  positions (alat units)
         1           O   tau(   1) = (  -0.0208375   0.5411347   0.8207265  )
         2           H   tau(   2) = (  -0.0707709   0.4995870   0.8689801  )
         3           H   tau(   3) = (   0.0275819   0.5814415   0.8714872  )
         4           Au  tau(   4) = (   0.3540481   0.6132292   0.0000000  )
         5           Au  tau(   5) = (   0.4790062   0.3967954   0.0000000  )
         6           Au  tau(   6) = (   0.6039644   0.1803616   0.0000000  )
         7           Au  tau(   7) = (   0.7289225  -0.0360723   0.0000000  )
         8           Au  tau(   8) = (   0.1041318   0.6132292   0.0000000  )
         9           Au  tau(   9) = (   0.2290899   0.3967954   0.0000000  )
        10           Au  tau(  10) = (   0.3540481   0.1803616   0.0000000  )
        11           Au  tau(  11) = (   0.4790062  -0.0360723   0.0000000  )
        12           Au  tau(  12) = (  -0.1457845   0.6132292   0.0000000  )
        13           Au  tau(  13) = (  -0.0208264   0.3967954   0.0000000  )
        14           Au  tau(  14) = (   0.1041318   0.1803616   0.0000000  )
        15           Au  tau(  15) = (   0.2290899  -0.0360723   0.0000000  )
        16           Au  tau(  16) = (  -0.3957008   0.6132292   0.0000000  )
        17           Au  tau(  17) = (  -0.2707426   0.3967954   0.0000000  )
        18           Au  tau(  18) = (  -0.1457845   0.1803616   0.0000000  )
        19           Au  tau(  19) = (  -0.0208264  -0.0360723   0.0000000  )
        20           Au  tau(  20) = (   0.4790062   0.6853738   0.2040557  )
        21           Au  tau(  21) = (   0.6039644   0.4689400   0.2040557  )
        22           Au  tau(  22) = (   0.7289225   0.2525061   0.2040557  )
        23           Au  tau(  23) = (   0.8538806   0.0360723   0.2040557  )
        24           Au  tau(  24) = (   0.2290899   0.6853738   0.2040557  )
        25           Au  tau(  25) = (   0.3540481   0.4689400   0.2040557  )
        26           Au  tau(  26) = (   0.4790062   0.2525061   0.2040557  )
        27           Au  tau(  27) = (   0.6039644   0.0360723   0.2040557  )
        28           Au  tau(  28) = (  -0.0208264   0.6853738   0.2040557  )
        29           Au  tau(  29) = (   0.1041318   0.4689400   0.2040557  )
        30           Au  tau(  30) = (   0.2290899   0.2525061   0.2040557  )
        31           Au  tau(  31) = (   0.3540481   0.0360723   0.2040557  )
        32           Au  tau(  32) = (  -0.2707426   0.6853738   0.2040557  )
        33           Au  tau(  33) = (  -0.1457845   0.4689400   0.2040557  )
        34           Au  tau(  34) = (  -0.0208264   0.2525061   0.2040557  )
        35           Au  tau(  35) = (   0.1041318   0.0360723   0.2040557  )
        36           Au  tau(  36) = (   0.3541162   0.7576593   0.4066483  )
        37           Au  tau(  37) = (   0.4791000   0.5411421   0.4066695  )
        38           Au  tau(  38) = (   0.6040570   0.3246862   0.4066617  )
        39           Au  tau(  39) = (   0.7290270   0.1081684   0.4066529  )
        40           Au  tau(  40) = (   0.1041162   0.7576236   0.4066247  )
        41           Au  tau(  41) = (   0.2291001   0.5411063   0.4066455  )
        42           Au  tau(  42) = (   0.3540567   0.3246505   0.4066380  )
        43           Au  tau(  43) = (   0.4790276   0.1081324   0.4066292  )
        44           Au  tau(  44) = (  -0.1458201   0.7576104   0.4066224  )
        45           Au  tau(  45) = (  -0.0208365   0.5410930   0.4066438  )
        46           Au  tau(  46) = (   0.1041202   0.3246372   0.4066359  )
        47           Au  tau(  47) = (   0.2290908   0.1081193   0.4066273  )
        48           Au  tau(  48) = (  -0.3958167   0.7575791   0.4065812  )
        49           Au  tau(  49) = (  -0.2708328   0.5410617   0.4066025  )
        50           Au  tau(  50) = (  -0.1458763   0.3246061   0.4065947  )
        51           Au  tau(  51) = (  -0.0209056   0.1080882   0.4065858  )
        52           Au  tau(  52) = (   0.3541085   0.6133344   0.6129762  )
        53           Au  tau(  53) = (   0.4790780   0.3968269   0.6129968  )
        54           Au  tau(  54) = (   0.6040356   0.1803811   0.6129859  )
        55           Au  tau(  55) = (   0.7290165  -0.0361221   0.6129385  )
        56           Au  tau(  56) = (   0.1041243   0.6133091   0.6130022  )
        57           Au  tau(  57) = (   0.2290941   0.3968013   0.6130241  )
        58           Au  tau(  58) = (   0.3540515   0.1803552   0.6130121  )
        59           Au  tau(  59) = (   0.4790323  -0.0361475   0.6129659  )
        60           Au  tau(  60) = (  -0.1458030   0.6133014   0.6129980  )
        61           Au  tau(  61) = (  -0.0208339   0.3967936   0.6130188  )
        62           Au  tau(  62) = (   0.1041239   0.1803477   0.6130083  )
        63           Au  tau(  63) = (   0.2291046  -0.0361554   0.6129607  )
        64           Au  tau(  64) = (  -0.3957908   0.6132739   0.6129471  )
        65           Au  tau(  65) = (  -0.2708208   0.3967658   0.6129688  )
        66           Au  tau(  66) = (  -0.1458636   0.1803200   0.6129569  )
        67           Au  tau(  67) = (  -0.0208823  -0.0361826   0.6129110  )

     number of k points=    12  Marzari-Vanderbilt smearing, width (Ry)=  0.0200
                       cart. coord. in units 2pi/alat
        k(    1) = (   0.2500000   0.4330127   0.1111111), wk =   0.1666667
        k(    2) = (   0.2500000  -0.1443376   0.1111111), wk =   0.1666667
        k(    3) = (  -0.2500000  -0.4330127   0.1111111), wk =   0.1666667
        k(    4) = (  -0.2500000   0.4330127  -0.1111111), wk =   0.1666667
        k(    5) = (   0.2500000  -0.4330127  -0.1111111), wk =   0.1666667
        k(    6) = (   0.5000000   0.0000000   0.1111111), wk =   0.1666667
        k(    7) = (  -0.5000000   0.0000000   0.1111111), wk =   0.1666667
        k(    8) = (  -0.2500000   0.1443376   0.1111111), wk =   0.1666667
        k(    9) = (  -0.2500000  -0.1443376  -0.1111111), wk =   0.1666667
        k(   10) = (   0.2500000   0.1443376  -0.1111111), wk =   0.1666667
        k(   11) = (   0.0000000  -0.2886751   0.1111111), wk =   0.1666667
        k(   12) = (   0.0000000   0.2886751   0.1111111), wk =   0.1666667

     Dense  grid:  3097177 G-vectors     FFT dimensions: ( 150, 150, 360)

     Smooth grid:  1095093 G-vectors     FFT dimensions: ( 108, 108, 240)

     Largest allocated arrays     est. size (Mb)     dimensions
        Kohn-Sham Wavefunctions        28.01 Mb     (    4299,  427)
        NL pseudopotentials            55.23 Mb     (    4299,  842)
        Each V/rho on FFT grid          4.12 Mb     (  270000)
        Each G-vector array             0.74 Mb     (   96788)
        G-vector shells                 0.16 Mb     (   21404)
     Largest temporary arrays     est. size (Mb)     dimensions
        Auxiliary wavefunctions       112.04 Mb     (    4299, 1708)
        Each subspace H/S matrix       44.51 Mb     (    1708, 1708)
        Each <psi_i|beta_j> matrix      5.49 Mb     (     842,  427)
        Arrays for rho mixing          32.96 Mb     (  270000,    8)

     Initial potential from superposition of free atoms
     Check: negative starting charge=   -1.730296

     starting charge  711.25682, renormalised to  712.00000

     negative rho (up, down):  1.732E+00 0.000E+00
     Starting wfc are  582 randomized atomic wfcs

     total cpu time spent up to now is      162.4 secs

     Self-consistent Calculation

     iteration #  1     ecut=    50.00 Ry     beta=0.70
     Davidson diagonalization with overlap
     ethr =  1.00E-02,  avg # of iterations =  3.0

     Threshold (ethr) on eigenvalues was too large:
     Diagonalizing with lowered threshold

     Davidson diagonalization with overlap
     ethr =  4.37E-04,  avg # of iterations =  2.5

     negative rho (up, down):  1.714E+00 0.000E+00

     total cpu time spent up to now is      851.1 secs

     total energy              =   -6562.20422161 Ry
     Harris-Foulkes estimate   =   -6564.98804748 Ry
     estimated scf accuracy    <       3.58220811 Ry

     iteration #  2     ecut=    50.00 Ry     beta=0.70
     Davidson diagonalization with overlap
     ethr =  5.03E-04,  avg # of iterations = 11.4

     negative rho (up, down):  1.713E+00 0.000E+00

     total cpu time spent up to now is     1972.4 secs

     total energy              =   -6554.40357467 Ry
     Harris-Foulkes estimate   =   -6571.05363329 Ry
     estimated scf accuracy    <      96.50847212 Ry

     iteration #  3     ecut=    50.00 Ry     beta=0.70
     Davidson diagonalization with overlap
     ethr =  5.03E-04,  avg # of iterations =  6.0

     negative rho (up, down):  1.726E+00 0.000E+00

     total cpu time spent up to now is     2701.1 secs

     total energy              =   -6562.55407587 Ry
     Harris-Foulkes estimate   =   -6564.91948524 Ry
     estimated scf accuracy    <      10.21758625 Ry

     iteration #  4     ecut=    50.00 Ry     beta=0.70
     Davidson diagonalization with overlap
     ethr =  5.03E-04,  avg # of iterations =  6.6

     negative rho (up, down):  1.731E+00 0.000E+00

     total cpu time spent up to now is     3156.9 secs

     total energy              =   -6561.94989205 Ry
     Harris-Foulkes estimate   =   -6565.92683354 Ry
     estimated scf accuracy    <      48.87936373 Ry

     iteration #  5     ecut=    50.00 Ry     beta=0.70
     Davidson diagonalization with overlap
     ethr =  5.03E-04,  avg # of iterations =  5.5

     negative rho (up, down):  1.743E+00 0.000E+00

     total cpu time spent up to now is     3562.2 secs

     total energy              =   -6564.09555057 Ry
     Harris-Foulkes estimate   =   -6564.39017458 Ry
     estimated scf accuracy    <       1.37315596 Ry

     iteration #  6     ecut=    50.00 Ry     beta=0.70
     Davidson diagonalization with overlap
     ethr =  1.93E-04,  avg # of iterations =  4.2

     negative rho (up, down):  1.747E+00 0.000E+00

     total cpu time spent up to now is     3954.2 secs

     total energy              =   -6564.16601283 Ry
     Harris-Foulkes estimate   =   -6564.24639077 Ry
     estimated scf accuracy    <       0.25902120 Ry

     iteration #  7     ecut=    50.00 Ry     beta=0.70
     Davidson diagonalization with overlap
     ethr =  3.64E-05,  avg # of iterations = 11.8

     negative rho (up, down):  1.749E+00 0.000E+00

     total cpu time spent up to now is     4456.4 secs

     total energy              =   -6564.19111383 Ry
     Harris-Foulkes estimate   =   -6564.21868719 Ry
     estimated scf accuracy    <       0.11143024 Ry

     iteration #  8     ecut=    50.00 Ry     beta=0.70
     Davidson diagonalization with overlap
     ethr =  1.57E-05,  avg # of iterations =  9.8

     negative rho (up, down):  1.751E+00 0.000E+00

     total cpu time spent up to now is     4925.9 secs

     total energy              =   -6564.19220257 Ry
     Harris-Foulkes estimate   =   -6564.20997806 Ry
     estimated scf accuracy    <       0.06189060 Ry

     iteration #  9     ecut=    50.00 Ry     beta=0.70
     Davidson diagonalization with overlap
     ethr =  8.69E-06,  avg # of iterations =  5.8

     negative rho (up, down):  1.752E+00 0.000E+00

     total cpu time spent up to now is     5339.5 secs

     total energy              =   -6564.19558467 Ry
     Harris-Foulkes estimate   =   -6564.20153728 Ry
     estimated scf accuracy    <       0.01587922 Ry

     iteration # 10     ecut=    50.00 Ry     beta=0.70
     Davidson diagonalization with overlap
     ethr =  2.23E-06,  avg # of iterations = 11.0

     negative rho (up, down):  1.753E+00 0.000E+00

     total cpu time spent up to now is     5892.7 secs

     total energy              =   -6564.19698741 Ry
     Harris-Foulkes estimate   =   -6564.19955013 Ry
     estimated scf accuracy    <       0.00878659 Ry

     iteration # 11     ecut=    50.00 Ry     beta=0.70
     Davidson diagonalization with overlap
     ethr =  1.23E-06,  avg # of iterations =  2.9

     negative rho (up, down):  1.754E+00 0.000E+00

     total cpu time spent up to now is     6218.0 secs

     total energy              =   -6564.19791043 Ry
     Harris-Foulkes estimate   =   -6564.19850783 Ry
     estimated scf accuracy    <       0.00257156 Ry

     iteration # 12     ecut=    50.00 Ry     beta=0.70
     Davidson diagonalization with overlap
     ethr =  3.61E-07,  avg # of iterations =  2.0

     negative rho (up, down):  1.754E+00 0.000E+00

     total cpu time spent up to now is     6560.2 secs

     total energy              =   -6564.19813421 Ry
     Harris-Foulkes estimate   =   -6564.19825342 Ry
     estimated scf accuracy    <       0.00035348 Ry

     iteration # 13     ecut=    50.00 Ry     beta=0.70
     Davidson diagonalization with overlap
     ethr =  4.96E-08,  avg # of iterations =  3.2

     negative rho (up, down):  1.754E+00 0.000E+00

     total cpu time spent up to now is     6933.0 secs

     total energy              =   -6564.19813270 Ry
     Harris-Foulkes estimate   =   -6564.19822756 Ry
     estimated scf accuracy    <       0.00028019 Ry

     iteration # 14     ecut=    50.00 Ry     beta=0.70
     Davidson diagonalization with overlap
     ethr =  3.94E-08,  avg # of iterations =  3.0

     negative rho (up, down):  1.754E+00 0.000E+00

     total cpu time spent up to now is     7311.7 secs

     total energy              =   -6564.19813384 Ry
     Harris-Foulkes estimate   =   -6564.19824995 Ry
     estimated scf accuracy    <       0.00088610 Ry

     iteration # 15     ecut=    50.00 Ry     beta=0.70
     Davidson diagonalization with overlap
     ethr =  3.94E-08,  avg # of iterations =  2.0

     negative rho (up, down):  1.754E+00 0.000E+00

     total cpu time spent up to now is     7594.3 secs

     total energy              =   -6564.19819106 Ry
     Harris-Foulkes estimate   =   -6564.19819393 Ry
     estimated scf accuracy    <       0.00001167 Ry

     iteration # 16     ecut=    50.00 Ry     beta=0.70
     Davidson diagonalization with overlap
     ethr =  1.64E-09,  avg # of iterations =  3.0

     negative rho (up, down):  1.754E+00 0.000E+00

     total cpu time spent up to now is     8023.0 secs

     total energy              =   -6564.19819159 Ry
     Harris-Foulkes estimate   =   -6564.19819472 Ry
     estimated scf accuracy    <       0.00001294 Ry

     iteration # 17     ecut=    50.00 Ry     beta=0.70
     Davidson diagonalization with overlap
     ethr =  1.64E-09,  avg # of iterations =  2.0

     negative rho (up, down):  1.754E+00 0.000E+00

     total cpu time spent up to now is     8318.4 secs

     total energy              =   -6564.19819288 Ry
     Harris-Foulkes estimate   =   -6564.19819375 Ry
     estimated scf accuracy    <       0.00000365 Ry

     iteration # 18     ecut=    50.00 Ry     beta=0.70
     Davidson diagonalization with overlap
     ethr =  5.12E-10,  avg # of iterations =  2.0

     negative rho (up, down):  1.754E+00 0.000E+00

     total cpu time spent up to now is     8648.7 secs

     total energy              =   -6564.19819323 Ry
     Harris-Foulkes estimate   =   -6564.19819357 Ry
     estimated scf accuracy    <       0.00000145 Ry

     iteration # 19     ecut=    50.00 Ry     beta=0.70
     Davidson diagonalization with overlap
     ethr =  2.04E-10,  avg # of iterations =  2.0

     negative rho (up, down):  1.754E+00 0.000E+00

     total cpu time spent up to now is     8985.8 secs

     total energy              =   -6564.19819337 Ry
     Harris-Foulkes estimate   =   -6564.19819342 Ry
     estimated scf accuracy    <       0.00000013 Ry

     iteration # 20     ecut=    50.00 Ry     beta=0.70
     Davidson diagonalization with overlap
     ethr =  1.82E-11,  avg # of iterations =  2.0

     negative rho (up, down):  1.754E+00 0.000E+00

     total cpu time spent up to now is     9380.8 secs

     total energy              =   -6564.19819339 Ry
     Harris-Foulkes estimate   =   -6564.19819342 Ry
     estimated scf accuracy    <       0.00000017 Ry

     iteration # 21     ecut=    50.00 Ry     beta=0.70
     Davidson diagonalization with overlap
     ethr =  1.82E-11,  avg # of iterations =  2.0

     negative rho (up, down):  1.754E+00 0.000E+00

     total cpu time spent up to now is     9661.7 secs

     total energy              =   -6564.19819340 Ry
     Harris-Foulkes estimate   =   -6564.19819341 Ry
     estimated scf accuracy    <       0.00000004 Ry

     iteration # 22     ecut=    50.00 Ry     beta=0.70
     Davidson diagonalization with overlap
     ethr =  6.20E-12,  avg # of iterations =  2.0

     negative rho (up, down):  1.754E+00 0.000E+00

     total cpu time spent up to now is     9934.3 secs

     End of self-consistent calculation

          k = 0.2500 0.4330 0.1111 (136853 PWs)   bands (ev):

   -19.3950  -7.1879  -6.2077  -5.8083  -5.8066  -5.1374  -4.7856  -4.7824
    -4.7697  -4.7567  -4.3355  -4.3345  -4.2547  -4.2392  -4.2090  -4.2086
    -4.1816  -4.0523  -4.0503  -4.0204  -4.0055  -3.9594  -3.9590  -3.9576
    -3.9284  -3.9079  -3.9061  -3.8796  -3.8711  -3.8574  -3.8408  -3.7641
    -3.7611  -3.7425  -3.7422  -3.7315  -3.6988  -3.6984  -3.6880  -3.6770
    -3.6738  -3.6644  -3.5994  -3.5952  -3.5376  -3.5365  -3.5218  -3.5151
    -3.4595  -3.4499  -3.4295  -3.4293  -3.3916  -3.3789  -3.3748  -3.3574
    -3.3562  -3.3554  -3.3497  -3.3457  -3.3255  -3.2699  -3.2626  -3.2560
    -3.2385  -3.2066  -3.1791  -3.1700  -3.1248  -3.1203  -3.0980  -3.0940
    -3.0693  -3.0421  -3.0076  -3.0058  -2.9703  -2.9695  -2.9333  -2.9296
    -2.9236  -2.8869  -2.8565  -2.8551  -2.8340  -2.8326  -2.8291  -2.8276
    -2.8273  -2.8227  -2.8183  -2.7641  -2.7052  -2.7050  -2.7039  -2.7015
    -2.6986  -2.6780  -2.6750  -2.6618  -2.5834  -2.5828  -2.5797  -2.5724
    -2.5267  -2.5211  -2.5205  -2.5014  -2.4954  -2.4470  -2.4319  -2.4287
    -2.4242  -2.3865  -2.3855  -2.3817  -2.3444  -2.3407  -2.2902  -2.2663
    -2.2646  -2.2623  -2.2591  -2.2404  -2.2386  -2.2342  -2.2280  -2.2256
    -2.1920  -2.1588  -2.1558  -2.1491  -2.1483  -2.1464  -2.1463  -2.1459
    -2.1443  -2.1273  -2.1105  -2.1102  -2.1095  -2.1069  -2.1025  -2.0931
    -2.0890  -2.0863  -2.0627  -2.0591  -2.0559  -2.0369  -2.0321  -2.0184
    -2.0150  -1.9938  -1.9903  -1.9901  -1.9888  -1.9827  -1.9818  -1.9812
    -1.9694  -1.9663  -1.9643  -1.9512  -1.9471  -1.9435  -1.8639  -1.8634
    -1.8483  -1.8478  -1.8391  -1.8304  -1.8100  -1.7982  -1.7962  -1.7773
    -1.7691  -1.7580  -1.7519  -1.7454  -1.7400  -1.7214  -1.7203  -1.7187
    -1.7125  -1.6975  -1.6744  -1.6424  -1.6319  -1.6234  -1.6116  -1.5988
    -1.5873  -1.5472  -1.5376  -1.5373  -1.5257  -1.4838  -1.4567  -1.4531
    -1.4146  -1.3958  -1.3801  -1.3622  -1.3542  -1.3348  -1.3306  -1.3156
    -1.3147  -1.3132  -1.3096  -1.2963  -1.2580  -1.2566  -1.2549  -1.2495
    -1.2424  -1.2374  -1.2184  -1.2169  -1.2077  -1.1796  -1.1712  -1.1657
    -1.1649  -1.1618  -1.1523  -1.1403  -1.1132  -1.1117  -1.1095  -1.1059
    -1.0897  -1.0755  -1.0417  -1.0290  -1.0271  -1.0231  -1.0062  -0.9979
    -0.9572  -0.9236  -0.8752  -0.8745  -0.8736  -0.8693  -0.8676  -0.8643
    -0.8568  -0.8520  -0.8462  -0.8022  -0.8003  -0.7861  -0.7835  -0.7689
    -0.7555  -0.7539  -0.7439  -0.7408  -0.7404  -0.7391  -0.7357  -0.6962
    -0.6900  -0.6822  -0.6802  -0.6798  -0.6665  -0.6629  -0.6328  -0.6254
    -0.6225  -0.5969  -0.5805  -0.5740  -0.5377  -0.5331  -0.5217  -0.5210
    -0.5143  -0.5121  -0.5053  -0.5036  -0.4981  -0.4938  -0.4712  -0.4704
    -0.4612  -0.4585  -0.4480  -0.4338  -0.4261  -0.4178  -0.4168  -0.3911
    -0.3831  -0.3772  -0.3702  -0.3198  -0.3177  -0.3168  -0.3127  -0.3069
    -0.3023  -0.2987  -0.2839  -0.2811  -0.2712  -0.2700  -0.2662  -0.2632
    -0.2261  -0.2242  -0.2236  -0.2171  -0.2160  -0.2095  -0.2085  -0.1972
    -0.1936  -0.1883  -0.1827  -0.1564  -0.1555  -0.1482  -0.1339  -0.1332
    -0.0813  -0.0797  -0.0525  -0.0516  -0.0433  -0.0404  -0.0098  -0.0003
     0.0009   0.0175   0.0203   0.0327   0.0974   0.1051   0.2120   0.6117
     0.6136   0.6379   0.6386   0.7020   0.7103   1.0502   1.0515   1.0626
     1.0686   1.2361   1.3045   1.3883   1.4045   1.6468   1.6700   2.2379
     2.2403   2.3640   2.3751   2.5770   2.5845   2.6491   2.6503   2.7377
     3.0043   3.0284   3.1934   3.4034   3.4125   3.4407   3.4458   3.5084
     3.6062   3.7595   3.7635   3.8147   4.0567   4.0576   4.1289   4.1317
     4.3700   4.3782   4.4059   4.5922   4.6014   4.6558   4.7399   5.0321
     5.0654   5.0680   5.2568   5.3485   5.3527   5.3637   5.4577   5.6460
     6.0782   6.1288   6.1404   6.1744   6.2189   6.2201   6.2956   6.3534
     6.3607   6.3754   6.3797   6.3957   6.4308   6.4388   6.4427   6.4460
     6.4994   6.7497   6.8156   6.8464   7.0252   7.0582   7.0927   7.0991
     7.1339   7.2158   7.2301

          k = 0.2500-0.1443 0.1111 (136898 PWs)   bands (ev):

   -19.3950  -7.1879  -6.4177  -5.6232  -5.3408  -5.2698  -5.2684  -4.7129
    -4.7114  -4.6091  -4.5625  -4.4306  -4.3554  -4.3221  -4.3106  -4.2622
    -4.1918  -4.1913  -4.0571  -4.0281  -4.0121  -4.0066  -3.9913  -3.9902
    -3.8949  -3.8686  -3.8678  -3.7832  -3.7774  -3.7764  -3.7678  -3.7558
    -3.7555  -3.6740  -3.6345  -3.6336  -3.6203  -3.6117  -3.6114  -3.6010
    -3.5957  -3.5831  -3.5452  -3.5400  -3.5350  -3.5342  -3.5241  -3.5170
    -3.4916  -3.4879  -3.4875  -3.4552  -3.4524  -3.4357  -3.4207  -3.3939
    -3.3712  -3.3699  -3.3102  -3.3098  -3.2890  -3.2784  -3.2653  -3.1979
    -3.1976  -3.1893  -3.1886  -3.1732  -3.1721  -3.1498  -3.1468  -2.9975
    -2.9972  -2.9810  -2.9787  -2.9704  -2.9361  -2.9349  -2.9318  -2.9281
    -2.8752  -2.8727  -2.8562  -2.8545  -2.8172  -2.7952  -2.7945  -2.7715
    -2.7644  -2.7641  -2.7195  -2.7180  -2.7003  -2.6988  -2.6939  -2.6907
    -2.6697  -2.6694  -2.6251  -2.6217  -2.6185  -2.6166  -2.6013  -2.5556
    -2.5520  -2.5305  -2.5226  -2.5214  -2.4447  -2.4399  -2.4134  -2.4130
    -2.4044  -2.3966  -2.3739  -2.3478  -2.3456  -2.3301  -2.3262  -2.3244
    -2.3226  -2.3111  -2.3036  -2.3027  -2.2932  -2.2905  -2.2852  -2.2809
    -2.2314  -2.2063  -2.1865  -2.1841  -2.1829  -2.1682  -2.1676  -2.1646
    -2.1632  -2.1538  -2.1245  -2.1229  -2.1106  -2.1060  -2.0929  -2.0921
    -2.0895  -2.0662  -2.0658  -2.0554  -2.0464  -2.0458  -1.9906  -1.9770
    -1.9662  -1.9651  -1.9645  -1.9461  -1.9409  -1.9301  -1.9102  -1.9099
    -1.9065  -1.9057  -1.8971  -1.8844  -1.8797  -1.8688  -1.8550  -1.8503
    -1.8075  -1.8056  -1.8036  -1.7984  -1.7974  -1.7917  -1.7839  -1.7828
    -1.7808  -1.7779  -1.7650  -1.7638  -1.7542  -1.6716  -1.6497  -1.6363
    -1.6201  -1.6140  -1.6034  -1.5920  -1.5900  -1.5855  -1.5813  -1.5643
    -1.5602  -1.5589  -1.5573  -1.5435  -1.5252  -1.5167  -1.5143  -1.4969
    -1.4856  -1.4842  -1.4799  -1.4693  -1.4605  -1.4309  -1.4060  -1.4039
    -1.3821  -1.3739  -1.3713  -1.3676  -1.3444  -1.3437  -1.3393  -1.3387
    -1.3378  -1.3293  -1.3235  -1.3158  -1.2962  -1.2674  -1.2570  -1.2363
    -1.2330  -1.2077  -1.1881  -1.1783  -1.1545  -1.1476  -1.1419  -1.1408
    -1.1296  -1.1129  -1.1012  -1.0935  -1.0821  -1.0606  -1.0581  -1.0435
    -1.0324  -1.0086  -1.0035  -0.9953  -0.9444  -0.9408  -0.9370  -0.9351
    -0.9185  -0.9159  -0.9014  -0.8994  -0.8701  -0.8588  -0.8382  -0.8368
    -0.8329  -0.8017  -0.7866  -0.7857  -0.7810  -0.7772  -0.7689  -0.7681
    -0.7613  -0.7379  -0.7336  -0.7297  -0.7215  -0.7156  -0.7122  -0.7040
    -0.6943  -0.6799  -0.6664  -0.6498  -0.6360  -0.5654  -0.5474  -0.5469
    -0.5465  -0.5440  -0.5411  -0.5376  -0.5122  -0.5099  -0.4898  -0.4857
    -0.4824  -0.4752  -0.4647  -0.4498  -0.4455  -0.4423  -0.4292  -0.3479
    -0.3476  -0.3227  -0.3150  -0.3126  -0.3064  -0.3024  -0.3010  -0.2993
    -0.2955  -0.2925  -0.2685  -0.2415  -0.2312  -0.2141  -0.2120  -0.2055
    -0.2034  -0.1979  -0.1933  -0.1893  -0.1864  -0.1831  -0.1681  -0.1657
    -0.1632  -0.1340  -0.1328  -0.1316  -0.1146  -0.1140  -0.0916  -0.0666
    -0.0652  -0.0564  -0.0528   0.0114   0.0124   0.0294   0.0294   0.0920
     0.0933   0.0943   0.1035   0.1204   0.3255   0.3457   0.6744   0.6748
     0.7431   0.7621   0.9006   0.9285   0.9688   1.0831   1.0923   1.4654
     1.5323   1.5328   1.7655   1.7679   1.8238   2.1220   2.1376   2.1633
     2.1685   2.1968   2.2202   2.3566   2.3629   2.5319   2.5339   2.5427
     2.6800   2.7028   2.7404   2.9487   3.3088   3.3177   3.3508   3.3545
     3.3584   3.3748   3.6889   3.6925   4.0156   4.0295   4.0843   4.3592
     4.4810   4.4918   4.6595   4.6730   4.7744   4.7761   4.8564   5.0144
     5.0165   5.1092   5.1142   5.4005   5.4518   5.4600   5.4678   5.6260
     5.6988   5.8011   5.8036   5.8074   5.8158   5.9466   5.9535   6.0115
     6.2329   6.3901   6.5376   6.6106   6.6287   6.6327   6.6381   6.6477
     6.6763   6.7726   6.8474   6.8557   6.9814   7.1294   7.1696   7.1945
     7.2387   7.3269   7.3745

          k =-0.2500-0.4330 0.1111 (136853 PWs)   bands (ev):

   -19.3950  -7.1879  -6.2077  -5.8083  -5.8066  -5.1374  -4.7856  -4.7824
    -4.7697  -4.7567  -4.3355  -4.3345  -4.2547  -4.2392  -4.2090  -4.2086
    -4.1816  -4.0523  -4.0503  -4.0204  -4.0055  -3.9594  -3.9590  -3.9576
    -3.9284  -3.9079  -3.9061  -3.8796  -3.8711  -3.8574  -3.8408  -3.7641
    -3.7611  -3.7425  -3.7422  -3.7315  -3.6988  -3.6984  -3.6880  -3.6770
    -3.6738  -3.6644  -3.5994  -3.5952  -3.5376  -3.5365  -3.5218  -3.5151
    -3.4595  -3.4499  -3.4295  -3.4293  -3.3916  -3.3789  -3.3748  -3.3574
    -3.3562  -3.3554  -3.3497  -3.3457  -3.3255  -3.2699  -3.2626  -3.2560
    -3.2385  -3.2066  -3.1791  -3.1700  -3.1248  -3.1203  -3.0980  -3.0940
    -3.0693  -3.0421  -3.0076  -3.0058  -2.9703  -2.9695  -2.9333  -2.9296
    -2.9236  -2.8869  -2.8565  -2.8551  -2.8340  -2.8326  -2.8291  -2.8276
    -2.8273  -2.8227  -2.8183  -2.7641  -2.7052  -2.7050  -2.7039  -2.7015
    -2.6986  -2.6780  -2.6750  -2.6618  -2.5834  -2.5828  -2.5797  -2.5724
    -2.5267  -2.5211  -2.5205  -2.5014  -2.4954  -2.4470  -2.4319  -2.4287
    -2.4242  -2.3865  -2.3855  -2.3817  -2.3444  -2.3407  -2.2902  -2.2663
    -2.2646  -2.2623  -2.2591  -2.2404  -2.2386  -2.2342  -2.2280  -2.2256
    -2.1920  -2.1588  -2.1558  -2.1491  -2.1483  -2.1464  -2.1463  -2.1459
    -2.1443  -2.1273  -2.1105  -2.1102  -2.1095  -2.1069  -2.1025  -2.0931
    -2.0890  -2.0863  -2.0627  -2.0591  -2.0559  -2.0369  -2.0321  -2.0184
    -2.0150  -1.9938  -1.9903  -1.9901  -1.9888  -1.9827  -1.9818  -1.9812
    -1.9694  -1.9663  -1.9643  -1.9512  -1.9471  -1.9435  -1.8639  -1.8634
    -1.8483  -1.8478  -1.8391  -1.8304  -1.8100  -1.7982  -1.7962  -1.7773
    -1.7691  -1.7580  -1.7519  -1.7454  -1.7400  -1.7214  -1.7203  -1.7187
    -1.7125  -1.6975  -1.6744  -1.6424  -1.6319  -1.6234  -1.6116  -1.5988
    -1.5873  -1.5472  -1.5376  -1.5373  -1.5257  -1.4838  -1.4567  -1.4531
    -1.4146  -1.3958  -1.3801  -1.3622  -1.3542  -1.3348  -1.3306  -1.3156
    -1.3147  -1.3132  -1.3096  -1.2963  -1.2580  -1.2566  -1.2549  -1.2495
    -1.2424  -1.2374  -1.2184  -1.2169  -1.2077  -1.1796  -1.1712  -1.1657
    -1.1649  -1.1618  -1.1523  -1.1403  -1.1132  -1.1117  -1.1095  -1.1059
    -1.0897  -1.0755  -1.0417  -1.0290  -1.0271  -1.0231  -1.0062  -0.9979
    -0.9572  -0.9236  -0.8752  -0.8745  -0.8736  -0.8693  -0.8676  -0.8643
    -0.8568  -0.8520  -0.8462  -0.8022  -0.8003  -0.7861  -0.7835  -0.7689
    -0.7555  -0.7539  -0.7439  -0.7408  -0.7404  -0.7391  -0.7357  -0.6962
    -0.6900  -0.6822  -0.6802  -0.6798  -0.6665  -0.6629  -0.6328  -0.6254
    -0.6225  -0.5969  -0.5805  -0.5740  -0.5377  -0.5331  -0.5217  -0.5210
    -0.5143  -0.5121  -0.5053  -0.5036  -0.4981  -0.4938  -0.4712  -0.4704
    -0.4612  -0.4585  -0.4480  -0.4338  -0.4261  -0.4178  -0.4168  -0.3911
    -0.3831  -0.3772  -0.3702  -0.3198  -0.3177  -0.3168  -0.3127  -0.3069
    -0.3023  -0.2987  -0.2839  -0.2811  -0.2712  -0.2701  -0.2662  -0.2632
    -0.2261  -0.2242  -0.2236  -0.2171  -0.2160  -0.2095  -0.2085  -0.1972
    -0.1936  -0.1883  -0.1827  -0.1564  -0.1555  -0.1482  -0.1339  -0.1332
    -0.0813  -0.0797  -0.0525  -0.0516  -0.0433  -0.0404  -0.0098  -0.0003
     0.0009   0.0175   0.0203   0.0327   0.0974   0.1051   0.2120   0.6117
     0.6136   0.6379   0.6386   0.7020   0.7103   1.0502   1.0515   1.0626
     1.0686   1.2361   1.3045   1.3883   1.4045   1.6468   1.6700   2.2379
     2.2403   2.3640   2.3751   2.5770   2.5845   2.6491   2.6503   2.7377
     3.0043   3.0284   3.1934   3.4034   3.4125   3.4407   3.4458   3.5084
     3.6062   3.7595   3.7635   3.8147   4.0567   4.0576   4.1289   4.1317
     4.3700   4.3782   4.4059   4.5922   4.6014   4.6558   4.7399   5.0321
     5.0654   5.0680   5.2568   5.3485   5.3527   5.3637   5.4577   5.6460
     6.0783   6.1287   6.1404   6.1743   6.2189   6.2201   6.2957   6.3535
     6.3607   6.3754   6.3797   6.3961   6.4309   6.4388   6.4425   6.4463
     6.4994   6.7499   6.8118   6.8476   7.0251   7.0577   7.0932   7.0988
     7.1418   7.2102   7.2304

          k =-0.2500 0.4330-0.1111 (136853 PWs)   bands (ev):

   -19.3950  -7.1879  -6.2078  -5.8094  -5.8054  -5.1375  -4.7862  -4.7818
    -4.7703  -4.7558  -4.3358  -4.3343  -4.2547  -4.2391  -4.2093  -4.2083
    -4.1817  -4.0524  -4.0501  -4.0206  -4.0055  -3.9598  -3.9586  -3.9570
    -3.9286  -3.9081  -3.9062  -3.8808  -3.8697  -3.8573  -3.8410  -3.7639
    -3.7611  -3.7431  -3.7418  -3.7305  -3.6994  -3.6980  -3.6879  -3.6769
    -3.6739  -3.6650  -3.5993  -3.5955  -3.5384  -3.5357  -3.5225  -3.5148
    -3.4597  -3.4504  -3.4295  -3.4292  -3.3917  -3.3794  -3.3745  -3.3573
    -3.3564  -3.3554  -3.3492  -3.3456  -3.3252  -3.2689  -3.2626  -3.2565
    -3.2387  -3.2063  -3.1792  -3.1695  -3.1250  -3.1193  -3.0979  -3.0946
    -3.0692  -3.0428  -3.0081  -3.0061  -2.9700  -2.9692  -2.9332  -2.9297
    -2.9236  -2.8870  -2.8563  -2.8552  -2.8341  -2.8325  -2.8281  -2.8274
    -2.8273  -2.8231  -2.8189  -2.7641  -2.7058  -2.7046  -2.7036  -2.7016
    -2.6986  -2.6777  -2.6751  -2.6619  -2.5834  -2.5822  -2.5797  -2.5724
    -2.5267  -2.5215  -2.5198  -2.5012  -2.4951  -2.4471  -2.4327  -2.4285
    -2.4242  -2.3868  -2.3856  -2.3819  -2.3442  -2.3408  -2.2901  -2.2665
    -2.2644  -2.2634  -2.2593  -2.2397  -2.2382  -2.2343  -2.2281  -2.2254
    -2.1925  -2.1592  -2.1554  -2.1505  -2.1479  -2.1471  -2.1461  -2.1455
    -2.1450  -2.1294  -2.1106  -2.1098  -2.1096  -2.1074  -2.1028  -2.0930
    -2.0893  -2.0858  -2.0628  -2.0599  -2.0556  -2.0372  -2.0322  -2.0182
    -2.0142  -1.9915  -1.9902  -1.9897  -1.9881  -1.9831  -1.9821  -1.9809
    -1.9694  -1.9661  -1.9658  -1.9518  -1.9462  -1.9452  -1.8638  -1.8633
    -1.8494  -1.8472  -1.8383  -1.8291  -1.8109  -1.7976  -1.7930  -1.7767
    -1.7618  -1.7591  -1.7525  -1.7451  -1.7278  -1.7207  -1.7201  -1.7169
    -1.7124  -1.6971  -1.6744  -1.6622  -1.6413  -1.6246  -1.6094  -1.5991
    -1.5895  -1.5527  -1.5383  -1.5365  -1.5261  -1.4695  -1.4564  -1.4536
    -1.4036  -1.3964  -1.3853  -1.3619  -1.3607  -1.3357  -1.3338  -1.3161
    -1.3149  -1.3132  -1.3085  -1.2955  -1.2592  -1.2570  -1.2532  -1.2509
    -1.2440  -1.2379  -1.2185  -1.2152  -1.2042  -1.1811  -1.1707  -1.1663
    -1.1643  -1.1623  -1.1475  -1.1401  -1.1132  -1.1120  -1.1099  -1.1064
    -1.0908  -1.0710  -1.0405  -1.0298  -1.0273  -1.0228  -1.0060  -0.9981
    -0.9577  -0.9243  -0.8757  -0.8744  -0.8731  -0.8695  -0.8674  -0.8659
    -0.8632  -0.8510  -0.8479  -0.8020  -0.8010  -0.7864  -0.7819  -0.7688
    -0.7561  -0.7530  -0.7431  -0.7410  -0.7399  -0.7381  -0.7330  -0.6994
    -0.6882  -0.6822  -0.6809  -0.6794  -0.6688  -0.6638  -0.6330  -0.6273
    -0.6217  -0.5966  -0.5813  -0.5672  -0.5368  -0.5311  -0.5220  -0.5204
    -0.5147  -0.5109  -0.5057  -0.5017  -0.4987  -0.4932  -0.4711  -0.4705
    -0.4607  -0.4592  -0.4479  -0.4387  -0.4239  -0.4177  -0.4168  -0.3885
    -0.3847  -0.3775  -0.3697  -0.3195  -0.3179  -0.3165  -0.3124  -0.3064
    -0.3058  -0.3010  -0.2845  -0.2809  -0.2719  -0.2689  -0.2662  -0.2631
    -0.2258  -0.2249  -0.2236  -0.2174  -0.2143  -0.2096  -0.2040  -0.1982
    -0.1940  -0.1885  -0.1875  -0.1570  -0.1541  -0.1484  -0.1344  -0.1313
    -0.0807  -0.0798  -0.0524  -0.0512  -0.0435  -0.0426  -0.0102  -0.0005
     0.0006   0.0146   0.0192   0.0369   0.0966   0.1060   0.2125   0.6115
     0.6137   0.6378   0.6389   0.6946   0.7134   1.0484   1.0518   1.0619
     1.0700   1.2389   1.3066   1.3863   1.4111   1.6415   1.6729   2.2321
     2.2430   2.3599   2.3815   2.5691   2.5887   2.6487   2.6505   2.7375
     3.0035   3.0306   3.1944   3.4012   3.4137   3.4398   3.4492   3.5097
     3.6066   3.7522   3.7675   3.8181   4.0569   4.0574   4.1248   4.1350
     4.3661   4.3842   4.4051   4.5906   4.6005   4.6564   4.7407   5.0289
     5.0653   5.0705   5.2534   5.3503   5.3523   5.4018   5.4420   5.6033
     6.0768   6.1373   6.1437   6.2171   6.2186   6.2349   6.2960   6.3221
     6.3557   6.3638   6.3751   6.3853   6.4304   6.4379   6.4430   6.4613
     6.5029   6.7579   6.8039   6.8517   7.0276   7.0565   7.0796   7.0931
     7.1015   7.2272   7.2454

          k = 0.2500-0.4330-0.1111 (136853 PWs)   bands (ev):

   -19.3950  -7.1879  -6.2078  -5.8094  -5.8054  -5.1375  -4.7862  -4.7818
    -4.7703  -4.7558  -4.3358  -4.3343  -4.2547  -4.2391  -4.2093  -4.2083
    -4.1817  -4.0524  -4.0501  -4.0206  -4.0055  -3.9598  -3.9586  -3.9570
    -3.9286  -3.9081  -3.9062  -3.8808  -3.8697  -3.8573  -3.8410  -3.7639
    -3.7611  -3.7431  -3.7418  -3.7305  -3.6994  -3.6980  -3.6879  -3.6769
    -3.6739  -3.6650  -3.5993  -3.5955  -3.5384  -3.5357  -3.5225  -3.5148
    -3.4597  -3.4504  -3.4295  -3.4292  -3.3917  -3.3794  -3.3745  -3.3573
    -3.3564  -3.3554  -3.3492  -3.3456  -3.3252  -3.2689  -3.2626  -3.2565
    -3.2387  -3.2063  -3.1792  -3.1695  -3.1250  -3.1193  -3.0979  -3.0946
    -3.0692  -3.0428  -3.0081  -3.0061  -2.9700  -2.9692  -2.9332  -2.9297
    -2.9236  -2.8870  -2.8563  -2.8552  -2.8341  -2.8325  -2.8281  -2.8274
    -2.8273  -2.8231  -2.8189  -2.7641  -2.7058  -2.7046  -2.7036  -2.7016
    -2.6986  -2.6777  -2.6751  -2.6619  -2.5834  -2.5822  -2.5797  -2.5724
    -2.5267  -2.5215  -2.5198  -2.5012  -2.4951  -2.4471  -2.4327  -2.4285
    -2.4242  -2.3868  -2.3856  -2.3819  -2.3442  -2.3408  -2.2901  -2.2665
    -2.2644  -2.2634  -2.2593  -2.2397  -2.2382  -2.2343  -2.2281  -2.2254
    -2.1925  -2.1592  -2.1554  -2.1505  -2.1479  -2.1471  -2.1461  -2.1455
    -2.1450  -2.1294  -2.1106  -2.1098  -2.1096  -2.1074  -2.1028  -2.0930
    -2.0893  -2.0858  -2.0628  -2.0599  -2.0556  -2.0372  -2.0322  -2.0182
    -2.0142  -1.9915  -1.9902  -1.9897  -1.9881  -1.9831  -1.9821  -1.9809
    -1.9694  -1.9661  -1.9658  -1.9518  -1.9462  -1.9452  -1.8638  -1.8633
    -1.8494  -1.8472  -1.8383  -1.8291  -1.8109  -1.7976  -1.7930  -1.7767
    -1.7618  -1.7591  -1.7525  -1.7451  -1.7278  -1.7207  -1.7201  -1.7169
    -1.7124  -1.6971  -1.6744  -1.6622  -1.6413  -1.6246  -1.6094  -1.5991
    -1.5895  -1.5527  -1.5383  -1.5365  -1.5261  -1.4695  -1.4564  -1.4536
    -1.4036  -1.3964  -1.3853  -1.3619  -1.3607  -1.3357  -1.3338  -1.3161
    -1.3149  -1.3132  -1.3085  -1.2955  -1.2592  -1.2570  -1.2532  -1.2509
    -1.2440  -1.2379  -1.2185  -1.2152  -1.2042  -1.1811  -1.1707  -1.1663
    -1.1643  -1.1623  -1.1475  -1.1401  -1.1132  -1.1120  -1.1099  -1.1064
    -1.0908  -1.0710  -1.0405  -1.0298  -1.0273  -1.0228  -1.0060  -0.9981
    -0.9577  -0.9243  -0.8757  -0.8744  -0.8731  -0.8695  -0.8674  -0.8659
    -0.8632  -0.8510  -0.8479  -0.8020  -0.8010  -0.7864  -0.7819  -0.7688
    -0.7561  -0.7530  -0.7431  -0.7410  -0.7399  -0.7381  -0.7330  -0.6994
    -0.6882  -0.6822  -0.6809  -0.6794  -0.6688  -0.6638  -0.6330  -0.6273
    -0.6217  -0.5966  -0.5813  -0.5672  -0.5368  -0.5311  -0.5220  -0.5204
    -0.5147  -0.5109  -0.5057  -0.5017  -0.4987  -0.4932  -0.4711  -0.4705
    -0.4607  -0.4592  -0.4479  -0.4387  -0.4239  -0.4177  -0.4168  -0.3885
    -0.3847  -0.3775  -0.3697  -0.3195  -0.3179  -0.3165  -0.3124  -0.3064
    -0.3058  -0.3010  -0.2845  -0.2809  -0.2719  -0.2689  -0.2662  -0.2631
    -0.2258  -0.2249  -0.2236  -0.2174  -0.2143  -0.2096  -0.2040  -0.1982
    -0.1940  -0.1885  -0.1875  -0.1570  -0.1541  -0.1484  -0.1344  -0.1313
    -0.0807  -0.0798  -0.0524  -0.0512  -0.0435  -0.0426  -0.0102  -0.0005
     0.0006   0.0146   0.0192   0.0369   0.0966   0.1060   0.2125   0.6115
     0.6137   0.6378   0.6389   0.6946   0.7134   1.0484   1.0518   1.0619
     1.0700   1.2389   1.3066   1.3863   1.4111   1.6415   1.6729   2.2321
     2.2430   2.3599   2.3815   2.5691   2.5887   2.6487   2.6505   2.7375
     3.0035   3.0306   3.1944   3.4012   3.4137   3.4398   3.4492   3.5097
     3.6066   3.7522   3.7675   3.8181   4.0569   4.0574   4.1248   4.1350
     4.3661   4.3842   4.4051   4.5906   4.6005   4.6564   4.7407   5.0289
     5.0653   5.0705   5.2534   5.3503   5.3523   5.4018   5.4420   5.6033
     6.0768   6.1373   6.1437   6.2171   6.2186   6.2349   6.2961   6.3216
     6.3561   6.3638   6.3751   6.3853   6.4305   6.4380   6.4431   6.4609
     6.5029   6.7578   6.8039   6.8519   7.0278   7.0563   7.0794   7.0931
     7.1014   7.2268   7.2463

          k = 0.5000 0.0000 0.1111 (136853 PWs)   bands (ev):

   -19.3950  -7.1879  -6.2077  -5.8092  -5.8056  -5.1374  -4.7863  -4.7816
    -4.7699  -4.7565  -4.3355  -4.3345  -4.2547  -4.2393  -4.2091  -4.2084
    -4.1815  -4.0520  -4.0508  -4.0206  -4.0056  -3.9596  -3.9589  -3.9569
    -3.9286  -3.9078  -3.9064  -3.8795  -3.8710  -3.8573  -3.8412  -3.7633
    -3.7617  -3.7427  -3.7420  -3.7309  -3.6988  -3.6982  -3.6883  -3.6769
    -3.6738  -3.6646  -3.5995  -3.5953  -3.5382  -3.5359  -3.5221  -3.5150
    -3.4593  -3.4503  -3.4295  -3.4292  -3.3917  -3.3791  -3.3748  -3.3573
    -3.3562  -3.3553  -3.3494  -3.3461  -3.3253  -3.2694  -3.2627  -3.2561
    -3.2385  -3.2063  -3.1790  -3.1700  -3.1244  -3.1204  -3.0981  -3.0940
    -3.0692  -3.0425  -3.0081  -3.0058  -2.9701  -2.9692  -2.9333  -2.9296
    -2.9236  -2.8868  -2.8563  -2.8552  -2.8340  -2.8326  -2.8284  -2.8279
    -2.8273  -2.8227  -2.8186  -2.7641  -2.7058  -2.7046  -2.7037  -2.7016
    -2.6987  -2.6781  -2.6749  -2.6618  -2.5834  -2.5826  -2.5798  -2.5725
    -2.5267  -2.5213  -2.5201  -2.5012  -2.4957  -2.4471  -2.4318  -2.4285
    -2.4246  -2.3866  -2.3856  -2.3819  -2.3447  -2.3403  -2.2901  -2.2663
    -2.2647  -2.2627  -2.2594  -2.2401  -2.2383  -2.2343  -2.2276  -2.2259
    -2.1922  -2.1590  -2.1556  -2.1496  -2.1480  -2.1469  -2.1462  -2.1454
    -2.1445  -2.1282  -2.1108  -2.1098  -2.1095  -2.1071  -2.1025  -2.0932
    -2.0892  -2.0859  -2.0625  -2.0594  -2.0557  -2.0371  -2.0323  -2.0181
    -2.0146  -1.9926  -1.9906  -1.9902  -1.9885  -1.9828  -1.9820  -1.9813
    -1.9693  -1.9663  -1.9648  -1.9515  -1.9472  -1.9438  -1.8643  -1.8629
    -1.8494  -1.8471  -1.8386  -1.8298  -1.8103  -1.7977  -1.7952  -1.7771
    -1.7669  -1.7582  -1.7525  -1.7448  -1.7362  -1.7214  -1.7203  -1.7188
    -1.7123  -1.6974  -1.6744  -1.6436  -1.6395  -1.6240  -1.6105  -1.5994
    -1.5880  -1.5498  -1.5384  -1.5364  -1.5258  -1.4779  -1.4566  -1.4532
    -1.4121  -1.3957  -1.3812  -1.3623  -1.3563  -1.3349  -1.3322  -1.3157
    -1.3147  -1.3134  -1.3089  -1.2961  -1.2581  -1.2568  -1.2541  -1.2498
    -1.2428  -1.2381  -1.2184  -1.2161  -1.2066  -1.1802  -1.1709  -1.1660
    -1.1647  -1.1622  -1.1507  -1.1401  -1.1131  -1.1119  -1.1095  -1.1061
    -1.0901  -1.0737  -1.0413  -1.0295  -1.0270  -1.0230  -1.0061  -0.9981
    -0.9575  -0.9239  -0.8756  -0.8746  -0.8735  -0.8695  -0.8677  -0.8640
    -0.8598  -0.8518  -0.8467  -0.8024  -0.8003  -0.7864  -0.7827  -0.7687
    -0.7560  -0.7531  -0.7433  -0.7410  -0.7400  -0.7387  -0.7352  -0.6972
    -0.6895  -0.6822  -0.6803  -0.6796  -0.6670  -0.6635  -0.6332  -0.6259
    -0.6223  -0.5968  -0.5807  -0.5714  -0.5375  -0.5322  -0.5222  -0.5204
    -0.5145  -0.5117  -0.5052  -0.5032  -0.4983  -0.4938  -0.4711  -0.4705
    -0.4612  -0.4586  -0.4481  -0.4354  -0.4254  -0.4178  -0.4166  -0.3903
    -0.3834  -0.3774  -0.3699  -0.3196  -0.3180  -0.3167  -0.3126  -0.3068
    -0.3026  -0.3001  -0.2839  -0.2812  -0.2715  -0.2693  -0.2662  -0.2633
    -0.2260  -0.2243  -0.2237  -0.2171  -0.2154  -0.2095  -0.2074  -0.1975
    -0.1936  -0.1884  -0.1842  -0.1565  -0.1551  -0.1484  -0.1340  -0.1326
    -0.0812  -0.0796  -0.0525  -0.0515  -0.0434  -0.0411  -0.0100  -0.0004
     0.0009   0.0166   0.0196   0.0343   0.0972   0.1054   0.2122   0.6113
     0.6139   0.6379   0.6387   0.6995   0.7112   1.0495   1.0517   1.0626
     1.0688   1.2371   1.3053   1.3878   1.4066   1.6450   1.6710   2.2361
     2.2409   2.3630   2.3769   2.5745   2.5858   2.6488   2.6504   2.7376
     3.0042   3.0292   3.1938   3.4028   3.4129   3.4404   3.4467   3.5088
     3.6064   3.7568   3.7652   3.8159   4.0566   4.0577   4.1285   4.1319
     4.3688   4.3797   4.4055   4.5910   4.6012   4.6563   4.7400   5.0306
     5.0655   5.0689   5.2562   5.3483   5.3526   5.3755   5.4528   5.6330
     6.0776   6.1345   6.1404   6.1887   6.2189   6.2219   6.2957   6.3497
     6.3579   6.3727   6.3787   6.3851   6.4337   6.4375   6.4434   6.4500
     6.5006   6.7524   6.8157   6.8462   7.0265   7.0613   7.0915   7.0988
     7.1107   7.2197   7.2306

          k =-0.5000 0.0000 0.1111 (136853 PWs)   bands (ev):

   -19.3950  -7.1879  -6.2077  -5.8092  -5.8056  -5.1374  -4.7863  -4.7816
    -4.7699  -4.7565  -4.3355  -4.3345  -4.2547  -4.2393  -4.2091  -4.2084
    -4.1815  -4.0520  -4.0508  -4.0206  -4.0056  -3.9596  -3.9589  -3.9569
    -3.9286  -3.9078  -3.9064  -3.8795  -3.8710  -3.8573  -3.8412  -3.7633
    -3.7617  -3.7427  -3.7420  -3.7309  -3.6988  -3.6982  -3.6883  -3.6769
    -3.6738  -3.6646  -3.5995  -3.5953  -3.5382  -3.5359  -3.5221  -3.5150
    -3.4593  -3.4503  -3.4295  -3.4292  -3.3917  -3.3791  -3.3748  -3.3573
    -3.3562  -3.3553  -3.3494  -3.3461  -3.3253  -3.2694  -3.2627  -3.2561
    -3.2385  -3.2063  -3.1790  -3.1700  -3.1244  -3.1204  -3.0981  -3.0940
    -3.0692  -3.0425  -3.0081  -3.0058  -2.9701  -2.9692  -2.9333  -2.9296
    -2.9236  -2.8868  -2.8563  -2.8552  -2.8340  -2.8326  -2.8284  -2.8279
    -2.8273  -2.8227  -2.8186  -2.7641  -2.7058  -2.7046  -2.7037  -2.7016
    -2.6987  -2.6781  -2.6749  -2.6618  -2.5834  -2.5826  -2.5798  -2.5725
    -2.5267  -2.5213  -2.5201  -2.5012  -2.4957  -2.4471  -2.4318  -2.4285
    -2.4246  -2.3866  -2.3856  -2.3819  -2.3447  -2.3403  -2.2901  -2.2663
    -2.2647  -2.2627  -2.2594  -2.2401  -2.2383  -2.2343  -2.2276  -2.2259
    -2.1922  -2.1590  -2.1556  -2.1496  -2.1480  -2.1469  -2.1462  -2.1454
    -2.1445  -2.1282  -2.1108  -2.1098  -2.1095  -2.1071  -2.1025  -2.0932
    -2.0892  -2.0859  -2.0625  -2.0594  -2.0557  -2.0371  -2.0323  -2.0181
    -2.0146  -1.9926  -1.9906  -1.9902  -1.9885  -1.9828  -1.9820  -1.9813
    -1.9693  -1.9663  -1.9648  -1.9515  -1.9472  -1.9438  -1.8643  -1.8629
    -1.8494  -1.8471  -1.8386  -1.8298  -1.8103  -1.7977  -1.7952  -1.7771
    -1.7669  -1.7582  -1.7525  -1.7448  -1.7362  -1.7214  -1.7203  -1.7188
    -1.7123  -1.6974  -1.6744  -1.6436  -1.6395  -1.6240  -1.6105  -1.5994
    -1.5880  -1.5498  -1.5384  -1.5364  -1.5258  -1.4779  -1.4566  -1.4532
    -1.4121  -1.3957  -1.3812  -1.3623  -1.3563  -1.3349  -1.3322  -1.3157
    -1.3147  -1.3134  -1.3089  -1.2961  -1.2581  -1.2568  -1.2541  -1.2498
    -1.2428  -1.2381  -1.2184  -1.2161  -1.2066  -1.1802  -1.1709  -1.1660
    -1.1647  -1.1622  -1.1507  -1.1401  -1.1131  -1.1119  -1.1095  -1.1061
    -1.0901  -1.0737  -1.0413  -1.0295  -1.0270  -1.0230  -1.0061  -0.9981
    -0.9575  -0.9239  -0.8756  -0.8746  -0.8735  -0.8695  -0.8677  -0.8640
    -0.8598  -0.8518  -0.8467  -0.8024  -0.8003  -0.7864  -0.7827  -0.7687
    -0.7560  -0.7531  -0.7433  -0.7410  -0.7400  -0.7387  -0.7352  -0.6972
    -0.6895  -0.6822  -0.6803  -0.6796  -0.6670  -0.6635  -0.6332  -0.6259
    -0.6223  -0.5968  -0.5807  -0.5714  -0.5375  -0.5322  -0.5222  -0.5204
    -0.5145  -0.5117  -0.5052  -0.5032  -0.4983  -0.4938  -0.4711  -0.4705
    -0.4612  -0.4587  -0.4481  -0.4354  -0.4254  -0.4178  -0.4166  -0.3903
    -0.3834  -0.3774  -0.3699  -0.3196  -0.3180  -0.3167  -0.3126  -0.3068
    -0.3026  -0.3001  -0.2839  -0.2812  -0.2715  -0.2693  -0.2662  -0.2633
    -0.2260  -0.2243  -0.2237  -0.2171  -0.2154  -0.2095  -0.2074  -0.1975
    -0.1936  -0.1884  -0.1842  -0.1565  -0.1551  -0.1484  -0.1340  -0.1326
    -0.0812  -0.0796  -0.0525  -0.0515  -0.0434  -0.0411  -0.0100  -0.0004
     0.0009   0.0166   0.0196   0.0343   0.0972   0.1054   0.2122   0.6113
     0.6139   0.6379   0.6387   0.6995   0.7112   1.0495   1.0517   1.0626
     1.0688   1.2371   1.3053   1.3878   1.4066   1.6450   1.6710   2.2361
     2.2409   2.3630   2.3769   2.5745   2.5858   2.6488   2.6504   2.7376
     3.0042   3.0292   3.1938   3.4028   3.4129   3.4404   3.4467   3.5088
     3.6064   3.7568   3.7652   3.8159   4.0566   4.0577   4.1285   4.1319
     4.3688   4.3797   4.4055   4.5910   4.6012   4.6563   4.7400   5.0306
     5.0655   5.0689   5.2562   5.3483   5.3526   5.3755   5.4528   5.6330
     6.0776   6.1344   6.1404   6.1886   6.2188   6.2220   6.2957   6.3494
     6.3581   6.3730   6.3788   6.3853   6.4342   6.4376   6.4437   6.4492
     6.5008   6.7525   6.8119   6.8475   7.0265   7.0613   7.0924   7.1003
     7.1130   7.2170   7.2317

          k =-0.2500 0.1443 0.1111 (136898 PWs)   bands (ev):

   -19.3950  -7.1879  -6.4177  -5.6232  -5.3408  -5.2698  -5.2684  -4.7129
    -4.7114  -4.6091  -4.5625  -4.4306  -4.3554  -4.3221  -4.3106  -4.2622
    -4.1918  -4.1913  -4.0571  -4.0281  -4.0121  -4.0067  -3.9913  -3.9902
    -3.8949  -3.8686  -3.8678  -3.7831  -3.7774  -3.7764  -3.7678  -3.7558
    -3.7555  -3.6740  -3.6345  -3.6336  -3.6203  -3.6117  -3.6114  -3.6010
    -3.5957  -3.5831  -3.5452  -3.5400  -3.5350  -3.5342  -3.5241  -3.5170
    -3.4916  -3.4879  -3.4875  -3.4552  -3.4524  -3.4357  -3.4207  -3.3939
    -3.3712  -3.3699  -3.3102  -3.3098  -3.2890  -3.2784  -3.2653  -3.1979
    -3.1976  -3.1893  -3.1886  -3.1732  -3.1721  -3.1498  -3.1468  -2.9975
    -2.9972  -2.9810  -2.9787  -2.9704  -2.9361  -2.9349  -2.9318  -2.9281
    -2.8752  -2.8727  -2.8562  -2.8545  -2.8172  -2.7952  -2.7945  -2.7715
    -2.7644  -2.7641  -2.7195  -2.7180  -2.7003  -2.6988  -2.6939  -2.6907
    -2.6697  -2.6694  -2.6251  -2.6217  -2.6185  -2.6166  -2.6013  -2.5556
    -2.5520  -2.5305  -2.5226  -2.5214  -2.4447  -2.4399  -2.4134  -2.4130
    -2.4044  -2.3966  -2.3739  -2.3478  -2.3456  -2.3301  -2.3262  -2.3244
    -2.3226  -2.3111  -2.3036  -2.3027  -2.2932  -2.2905  -2.2852  -2.2809
    -2.2314  -2.2063  -2.1865  -2.1841  -2.1829  -2.1682  -2.1676  -2.1646
    -2.1632  -2.1538  -2.1245  -2.1229  -2.1106  -2.1060  -2.0929  -2.0921
    -2.0895  -2.0662  -2.0658  -2.0554  -2.0464  -2.0458  -1.9906  -1.9770
    -1.9662  -1.9651  -1.9645  -1.9461  -1.9409  -1.9301  -1.9102  -1.9099
    -1.9065  -1.9057  -1.8971  -1.8844  -1.8797  -1.8688  -1.8550  -1.8503
    -1.8075  -1.8056  -1.8036  -1.7984  -1.7974  -1.7917  -1.7839  -1.7828
    -1.7808  -1.7779  -1.7650  -1.7638  -1.7542  -1.6716  -1.6497  -1.6363
    -1.6201  -1.6140  -1.6034  -1.5920  -1.5900  -1.5855  -1.5813  -1.5643
    -1.5602  -1.5589  -1.5573  -1.5435  -1.5252  -1.5167  -1.5143  -1.4969
    -1.4856  -1.4842  -1.4799  -1.4693  -1.4605  -1.4309  -1.4060  -1.4039
    -1.3821  -1.3739  -1.3713  -1.3676  -1.3444  -1.3437  -1.3393  -1.3387
    -1.3378  -1.3293  -1.3235  -1.3158  -1.2962  -1.2674  -1.2570  -1.2363
    -1.2330  -1.2077  -1.1881  -1.1783  -1.1544  -1.1476  -1.1419  -1.1408
    -1.1296  -1.1129  -1.1012  -1.0935  -1.0821  -1.0606  -1.0581  -1.0434
    -1.0324  -1.0086  -1.0035  -0.9953  -0.9444  -0.9408  -0.9370  -0.9351
    -0.9185  -0.9159  -0.9014  -0.8994  -0.8701  -0.8588  -0.8382  -0.8368
    -0.8329  -0.8017  -0.7866  -0.7857  -0.7810  -0.7772  -0.7689  -0.7681
    -0.7613  -0.7379  -0.7336  -0.7297  -0.7215  -0.7156  -0.7122  -0.7040
    -0.6943  -0.6799  -0.6664  -0.6498  -0.6360  -0.5654  -0.5474  -0.5469
    -0.5465  -0.5440  -0.5411  -0.5376  -0.5122  -0.5099  -0.4898  -0.4857
    -0.4824  -0.4752  -0.4647  -0.4498  -0.4455  -0.4423  -0.4292  -0.3479
    -0.3476  -0.3227  -0.3150  -0.3126  -0.3064  -0.3024  -0.3010  -0.2993
    -0.2955  -0.2925  -0.2685  -0.2415  -0.2312  -0.2141  -0.2120  -0.2055
    -0.2034  -0.1979  -0.1933  -0.1893  -0.1864  -0.1831  -0.1681  -0.1657
    -0.1632  -0.1340  -0.1328  -0.1316  -0.1146  -0.1140  -0.0916  -0.0666
    -0.0652  -0.0564  -0.0528   0.0114   0.0124   0.0294   0.0294   0.0920
     0.0933   0.0943   0.1035   0.1204   0.3255   0.3457   0.6744   0.6748
     0.7431   0.7621   0.9005   0.9285   0.9688   1.0831   1.0923   1.4654
     1.5323   1.5328   1.7655   1.7679   1.8238   2.1220   2.1376   2.1633
     2.1685   2.1968   2.2202   2.3566   2.3629   2.5319   2.5339   2.5427
     2.6800   2.7028   2.7404   2.9487   3.3088   3.3177   3.3508   3.3545
     3.3584   3.3748   3.6889   3.6925   4.0156   4.0295   4.0843   4.3592
     4.4810   4.4918   4.6595   4.6730   4.7744   4.7761   4.8564   5.0144
     5.0165   5.1092   5.1142   5.4005   5.4518   5.4600   5.4678   5.6260
     5.6987   5.8011   5.8036   5.8074   5.8159   5.9466   5.9536   6.0114
     6.2325   6.3909   6.5377   6.6086   6.6304   6.6326   6.6379   6.6461
     6.6770   6.7737   6.8475   6.8562   6.9891   7.1303   7.1690   7.1919
     7.2370   7.3184   7.3651

          k =-0.2500-0.1443-0.1111 (136898 PWs)   bands (ev):

   -19.3950  -7.1879  -6.4177  -5.6231  -5.3408  -5.2699  -5.2684  -4.7129
    -4.7114  -4.6087  -4.5624  -4.4309  -4.3554  -4.3224  -4.3108  -4.2621
    -4.1920  -4.1912  -4.0571  -4.0279  -4.0126  -4.0061  -3.9916  -3.9901
    -3.8950  -3.8685  -3.8679  -3.7831  -3.7774  -3.7764  -3.7678  -3.7557
    -3.7556  -3.6739  -3.6349  -3.6331  -3.6202  -3.6119  -3.6115  -3.6010
    -3.5956  -3.5830  -3.5453  -3.5397  -3.5348  -3.5341  -3.5246  -3.5170
    -3.4910  -3.4878  -3.4874  -3.4561  -3.4523  -3.4356  -3.4210  -3.3939
    -3.3712  -3.3699  -3.3104  -3.3097  -3.2892  -3.2784  -3.2650  -3.1980
    -3.1977  -3.1892  -3.1884  -3.1740  -3.1715  -3.1498  -3.1470  -2.9973
    -2.9969  -2.9813  -2.9785  -2.9703  -2.9362  -2.9351  -2.9321  -2.9279
    -2.8752  -2.8726  -2.8561  -2.8542  -2.8169  -2.7956  -2.7946  -2.7713
    -2.7642  -2.7641  -2.7195  -2.7181  -2.7007  -2.6991  -2.6941  -2.6906
    -2.6693  -2.6691  -2.6259  -2.6213  -2.6186  -2.6167  -2.6011  -2.5557
    -2.5514  -2.5305  -2.5225  -2.5215  -2.4465  -2.4389  -2.4130  -2.4126
    -2.4041  -2.3964  -2.3739  -2.3481  -2.3456  -2.3297  -2.3272  -2.3262
    -2.3227  -2.3094  -2.3029  -2.3015  -2.2934  -2.2903  -2.2868  -2.2808
    -2.2315  -2.2059  -2.1864  -2.1841  -2.1830  -2.1684  -2.1677  -2.1650
    -2.1630  -2.1539  -2.1235  -2.1227  -2.1109  -2.1059  -2.0930  -2.0914
    -2.0895  -2.0660  -2.0657  -2.0541  -2.0466  -2.0457  -1.9903  -1.9773
    -1.9670  -1.9653  -1.9644  -1.9465  -1.9401  -1.9302  -1.9098  -1.9095
    -1.9064  -1.9052  -1.8960  -1.8861  -1.8793  -1.8692  -1.8550  -1.8498
    -1.8115  -1.8056  -1.8029  -1.7978  -1.7942  -1.7919  -1.7898  -1.7832
    -1.7824  -1.7781  -1.7652  -1.7646  -1.7538  -1.6646  -1.6449  -1.6371
    -1.6189  -1.6124  -1.6094  -1.5947  -1.5902  -1.5853  -1.5790  -1.5692
    -1.5605  -1.5586  -1.5583  -1.5363  -1.5312  -1.5169  -1.5144  -1.5005
    -1.4848  -1.4842  -1.4777  -1.4722  -1.4558  -1.4307  -1.4065  -1.4003
    -1.3808  -1.3765  -1.3698  -1.3652  -1.3440  -1.3438  -1.3393  -1.3389
    -1.3346  -1.3296  -1.3222  -1.3203  -1.3000  -1.2598  -1.2577  -1.2339
    -1.2318  -1.2245  -1.1837  -1.1821  -1.1543  -1.1428  -1.1417  -1.1368
    -1.1270  -1.1166  -1.1030  -1.0915  -1.0828  -1.0600  -1.0597  -1.0423
    -1.0353  -1.0083  -1.0066  -0.9948  -0.9430  -0.9414  -0.9373  -0.9353
    -0.9179  -0.9152  -0.9009  -0.8949  -0.8693  -0.8577  -0.8388  -0.8364
    -0.8356  -0.8021  -0.7865  -0.7847  -0.7818  -0.7759  -0.7735  -0.7689
    -0.7672  -0.7378  -0.7337  -0.7323  -0.7190  -0.7156  -0.7110  -0.7008
    -0.6910  -0.6724  -0.6700  -0.6462  -0.6436  -0.5655  -0.5472  -0.5470
    -0.5463  -0.5449  -0.5392  -0.5381  -0.5194  -0.5096  -0.4886  -0.4873
    -0.4795  -0.4767  -0.4644  -0.4483  -0.4449  -0.4431  -0.4290  -0.3482
    -0.3464  -0.3201  -0.3181  -0.3109  -0.3101  -0.3021  -0.3007  -0.3002
    -0.2935  -0.2884  -0.2695  -0.2459  -0.2311  -0.2131  -0.2125  -0.2053
    -0.2044  -0.1986  -0.1918  -0.1891  -0.1853  -0.1843  -0.1679  -0.1656
    -0.1628  -0.1344  -0.1328  -0.1299  -0.1150  -0.1121  -0.0914  -0.0664
    -0.0656  -0.0561  -0.0551   0.0103   0.0154   0.0290   0.0300   0.0921
     0.0930   0.0958   0.1000   0.1204   0.3339   0.3416   0.6746   0.6746
     0.7504   0.7576   0.8998   0.9237   0.9680   1.0845   1.0916   1.4653
     1.5324   1.5327   1.7656   1.7679   1.8224   2.1298   2.1335   2.1656
     2.1660   2.2017   2.2143   2.3576   2.3618   2.5305   2.5342   2.5431
     2.6870   2.6941   2.7421   2.9474   3.3106   3.3158   3.3506   3.3553
     3.3625   3.3715   3.6893   3.6917   4.0207   4.0259   4.0837   4.3597
     4.4840   4.4867   4.6510   4.6734   4.7727   4.7814   4.8546   5.0091
     5.0219   5.1105   5.1121   5.3980   5.4447   5.4681   5.4754   5.6420
     5.7021   5.8019   5.8034   5.8086   5.8152   5.9499   5.9534   6.0041
     6.2108   6.3575   6.5347   6.6024   6.6320   6.6343   6.6361   6.6414
     6.7564   6.7950   6.8526   6.8544   6.9750   7.0852   7.1778   7.1831
     7.2867   7.3119   7.3429

          k = 0.2500 0.1443-0.1111 (136898 PWs)   bands (ev):

   -19.3950  -7.1879  -6.4177  -5.6231  -5.3408  -5.2699  -5.2684  -4.7129
    -4.7114  -4.6087  -4.5624  -4.4309  -4.3554  -4.3224  -4.3108  -4.2621
    -4.1920  -4.1912  -4.0571  -4.0279  -4.0126  -4.0061  -3.9916  -3.9901
    -3.8950  -3.8685  -3.8679  -3.7831  -3.7774  -3.7764  -3.7678  -3.7557
    -3.7556  -3.6739  -3.6349  -3.6331  -3.6202  -3.6119  -3.6115  -3.6010
    -3.5956  -3.5830  -3.5453  -3.5397  -3.5348  -3.5341  -3.5246  -3.5170
    -3.4910  -3.4878  -3.4874  -3.4561  -3.4523  -3.4356  -3.4210  -3.3939
    -3.3712  -3.3699  -3.3104  -3.3097  -3.2892  -3.2784  -3.2650  -3.1980
    -3.1977  -3.1892  -3.1884  -3.1740  -3.1715  -3.1498  -3.1470  -2.9973
    -2.9969  -2.9813  -2.9785  -2.9703  -2.9362  -2.9351  -2.9321  -2.9279
    -2.8752  -2.8726  -2.8561  -2.8542  -2.8169  -2.7956  -2.7946  -2.7713
    -2.7642  -2.7641  -2.7195  -2.7181  -2.7007  -2.6991  -2.6941  -2.6906
    -2.6693  -2.6691  -2.6259  -2.6213  -2.6186  -2.6167  -2.6011  -2.5557
    -2.5514  -2.5305  -2.5225  -2.5215  -2.4465  -2.4389  -2.4130  -2.4126
    -2.4041  -2.3964  -2.3740  -2.3481  -2.3456  -2.3297  -2.3272  -2.3262
    -2.3227  -2.3094  -2.3029  -2.3015  -2.2934  -2.2903  -2.2868  -2.2808
    -2.2315  -2.2059  -2.1864  -2.1841  -2.1830  -2.1684  -2.1677  -2.1650
    -2.1630  -2.1539  -2.1235  -2.1227  -2.1109  -2.1059  -2.0930  -2.0914
    -2.0895  -2.0660  -2.0657  -2.0541  -2.0466  -2.0457  -1.9903  -1.9774
    -1.9670  -1.9653  -1.9644  -1.9465  -1.9401  -1.9302  -1.9098  -1.9095
    -1.9064  -1.9052  -1.8960  -1.8861  -1.8793  -1.8692  -1.8550  -1.8498
    -1.8115  -1.8056  -1.8029  -1.7978  -1.7942  -1.7919  -1.7898  -1.7831
    -1.7824  -1.7781  -1.7652  -1.7646  -1.7538  -1.6646  -1.6449  -1.6371
    -1.6189  -1.6124  -1.6094  -1.5947  -1.5902  -1.5853  -1.5790  -1.5692
    -1.5605  -1.5586  -1.5583  -1.5363  -1.5312  -1.5169  -1.5144  -1.5005
    -1.4848  -1.4842  -1.4777  -1.4722  -1.4558  -1.4307  -1.4065  -1.4003
    -1.3808  -1.3765  -1.3697  -1.3652  -1.3440  -1.3438  -1.3393  -1.3389
    -1.3346  -1.3296  -1.3222  -1.3203  -1.3000  -1.2598  -1.2577  -1.2339
    -1.2318  -1.2245  -1.1837  -1.1821  -1.1543  -1.1428  -1.1417  -1.1368
    -1.1270  -1.1166  -1.1030  -1.0915  -1.0828  -1.0600  -1.0597  -1.0423
    -1.0353  -1.0083  -1.0066  -0.9949  -0.9430  -0.9414  -0.9373  -0.9353
    -0.9179  -0.9152  -0.9009  -0.8949  -0.8693  -0.8577  -0.8388  -0.8364
    -0.8356  -0.8021  -0.7865  -0.7847  -0.7818  -0.7759  -0.7735  -0.7689
    -0.7672  -0.7378  -0.7337  -0.7323  -0.7190  -0.7156  -0.7110  -0.7008
    -0.6910  -0.6724  -0.6700  -0.6462  -0.6436  -0.5655  -0.5472  -0.5470
    -0.5463  -0.5449  -0.5393  -0.5381  -0.5194  -0.5096  -0.4886  -0.4873
    -0.4795  -0.4767  -0.4644  -0.4483  -0.4450  -0.4431  -0.4290  -0.3481
    -0.3463  -0.3201  -0.3181  -0.3109  -0.3101  -0.3021  -0.3007  -0.3002
    -0.2935  -0.2884  -0.2695  -0.2459  -0.2311  -0.2131  -0.2125  -0.2053
    -0.2044  -0.1986  -0.1918  -0.1891  -0.1853  -0.1843  -0.1679  -0.1656
    -0.1628  -0.1344  -0.1328  -0.1299  -0.1150  -0.1121  -0.0914  -0.0664
    -0.0656  -0.0561  -0.0551   0.0103   0.0154   0.0290   0.0300   0.0921
     0.0930   0.0958   0.1000   0.1204   0.3339   0.3416   0.6746   0.6746
     0.7504   0.7576   0.8998   0.9237   0.9680   1.0845   1.0916   1.4653
     1.5324   1.5327   1.7656   1.7679   1.8224   2.1298   2.1335   2.1656
     2.1660   2.2017   2.2143   2.3576   2.3618   2.5305   2.5342   2.5431
     2.6870   2.6941   2.7421   2.9474   3.3106   3.3158   3.3506   3.3553
     3.3625   3.3715   3.6893   3.6917   4.0207   4.0259   4.0837   4.3597
     4.4840   4.4867   4.6510   4.6734   4.7727   4.7814   4.8546   5.0091
     5.0219   5.1105   5.1121   5.3980   5.4447   5.4681   5.4754   5.6420
     5.7021   5.8019   5.8034   5.8086   5.8152   5.9499   5.9533   6.0041
     6.2102   6.3601   6.5333   6.6050   6.6319   6.6331   6.6360   6.6391
     6.7559   6.7943   6.8526   6.8533   6.9667   7.0909   7.1779   7.1830
     7.2966   7.3228   7.3429

          k = 0.0000-0.2887 0.1111 (136898 PWs)   bands (ev):

   -19.3950  -7.1879  -6.4177  -5.6232  -5.3408  -5.2698  -5.2684  -4.7129
    -4.7114  -4.6090  -4.5626  -4.4306  -4.3557  -4.3220  -4.3107  -4.2623
    -4.1918  -4.1913  -4.0570  -4.0282  -4.0123  -4.0064  -3.9914  -3.9902
    -3.8950  -3.8685  -3.8678  -3.7831  -3.7775  -3.7764  -3.7679  -3.7559
    -3.7555  -3.6740  -3.6347  -3.6334  -3.6202  -3.6118  -3.6113  -3.6010
    -3.5957  -3.5831  -3.5452  -3.5399  -3.5349  -3.5340  -3.5243  -3.5169
    -3.4913  -3.4878  -3.4874  -3.4557  -3.4522  -3.4357  -3.4210  -3.3940
    -3.3712  -3.3699  -3.3103  -3.3098  -3.2890  -3.2783  -3.2652  -3.1980
    -3.1977  -3.1893  -3.1884  -3.1734  -3.1720  -3.1499  -3.1469  -2.9975
    -2.9972  -2.9811  -2.9787  -2.9703  -2.9362  -2.9350  -2.9320  -2.9279
    -2.8752  -2.8728  -2.8562  -2.8543  -2.8170  -2.7956  -2.7941  -2.7714
    -2.7645  -2.7641  -2.7195  -2.7180  -2.7005  -2.6989  -2.6940  -2.6907
    -2.6695  -2.6692  -2.6254  -2.6215  -2.6185  -2.6166  -2.6011  -2.5557
    -2.5517  -2.5306  -2.5226  -2.5214  -2.4455  -2.4393  -2.4132  -2.4128
    -2.4044  -2.3964  -2.3740  -2.3480  -2.3455  -2.3298  -2.3262  -2.3254
    -2.3225  -2.3104  -2.3034  -2.3022  -2.2931  -2.2906  -2.2859  -2.2811
    -2.2314  -2.2061  -2.1864  -2.1841  -2.1830  -2.1686  -2.1675  -2.1647
    -2.1631  -2.1539  -2.1245  -2.1225  -2.1108  -2.1060  -2.0930  -2.0917
    -2.0893  -2.0660  -2.0657  -2.0551  -2.0465  -2.0458  -1.9906  -1.9772
    -1.9665  -1.9651  -1.9645  -1.9465  -1.9403  -1.9302  -1.9100  -1.9098
    -1.9065  -1.9054  -1.8967  -1.8848  -1.8794  -1.8689  -1.8550  -1.8503
    -1.8089  -1.8055  -1.8034  -1.7981  -1.7967  -1.7921  -1.7855  -1.7830
    -1.7817  -1.7777  -1.7651  -1.7642  -1.7538  -1.6688  -1.6486  -1.6368
    -1.6197  -1.6137  -1.6049  -1.5933  -1.5900  -1.5856  -1.5803  -1.5658
    -1.5608  -1.5587  -1.5578  -1.5411  -1.5267  -1.5163  -1.5143  -1.4986
    -1.4852  -1.4843  -1.4787  -1.4706  -1.4585  -1.4307  -1.4063  -1.4026
    -1.3815  -1.3750  -1.3702  -1.3669  -1.3443  -1.3438  -1.3393  -1.3389
    -1.3371  -1.3294  -1.3232  -1.3168  -1.2978  -1.2651  -1.2573  -1.2356
    -1.2331  -1.2135  -1.1864  -1.1794  -1.1540  -1.1449  -1.1418  -1.1402
    -1.1291  -1.1138  -1.1019  -1.0928  -1.0822  -1.0604  -1.0585  -1.0430
    -1.0334  -1.0086  -1.0045  -0.9952  -0.9440  -0.9410  -0.9373  -0.9353
    -0.9182  -0.9157  -0.9010  -0.8981  -0.8696  -0.8585  -0.8384  -0.8368
    -0.8336  -0.8018  -0.7865  -0.7855  -0.7814  -0.7770  -0.7692  -0.7685
    -0.7646  -0.7378  -0.7335  -0.7313  -0.7201  -0.7156  -0.7106  -0.7034
    -0.6933  -0.6782  -0.6674  -0.6490  -0.6380  -0.5653  -0.5476  -0.5467
    -0.5464  -0.5441  -0.5407  -0.5378  -0.5148  -0.5098  -0.4894  -0.4864
    -0.4810  -0.4758  -0.4647  -0.4492  -0.4455  -0.4424  -0.4292  -0.3478
    -0.3472  -0.3219  -0.3158  -0.3121  -0.3079  -0.3024  -0.3009  -0.2997
    -0.2940  -0.2916  -0.2689  -0.2431  -0.2310  -0.2138  -0.2122  -0.2055
    -0.2038  -0.1979  -0.1927  -0.1892  -0.1860  -0.1836  -0.1680  -0.1658
    -0.1630  -0.1337  -0.1329  -0.1311  -0.1147  -0.1133  -0.0916  -0.0665
    -0.0652  -0.0563  -0.0534   0.0109   0.0135   0.0291   0.0297   0.0919
     0.0931   0.0948   0.1023   0.1204   0.3283   0.3445   0.6745   0.6747
     0.7453   0.7608   0.9003   0.9269   0.9684   1.0836   1.0920   1.4655
     1.5324   1.5327   1.7656   1.7679   1.8233   2.1246   2.1364   2.1639
     2.1677   2.1981   2.2183   2.3568   2.3625   2.5314   2.5340   2.5429
     2.6821   2.7001   2.7408   2.9483   3.3091   3.3172   3.3517   3.3544
     3.3592   3.3741   3.6889   3.6924   4.0168   4.0285   4.0841   4.3595
     4.4815   4.4903   4.6629   4.6671   4.7737   4.7781   4.8560   5.0143
     5.0170   5.1096   5.1137   5.3998   5.4488   5.4582   5.4736   5.6318
     5.7014   5.8013   5.8033   5.8076   5.8154   5.9474   5.9537   6.0089
     6.2247   6.3767   6.5367   6.6054   6.6301   6.6334   6.6362   6.6449
     6.7141   6.7717   6.8488   6.8558   6.9868   7.1200   7.1765   7.1878
     7.2462   7.3202   7.3567

          k = 0.0000 0.2887 0.1111 (136898 PWs)   bands (ev):

   -19.3950  -7.1879  -6.4177  -5.6232  -5.3408  -5.2698  -5.2684  -4.7129
    -4.7114  -4.6090  -4.5626  -4.4306  -4.3557  -4.3220  -4.3107  -4.2623
    -4.1918  -4.1913  -4.0570  -4.0281  -4.0123  -4.0064  -3.9914  -3.9902
    -3.8950  -3.8685  -3.8678  -3.7831  -3.7775  -3.7764  -3.7679  -3.7559
    -3.7555  -3.6740  -3.6347  -3.6335  -3.6202  -3.6118  -3.6113  -3.6010
    -3.5957  -3.5831  -3.5452  -3.5399  -3.5349  -3.5340  -3.5243  -3.5169
    -3.4913  -3.4878  -3.4874  -3.4557  -3.4522  -3.4357  -3.4210  -3.3940
    -3.3712  -3.3700  -3.3103  -3.3098  -3.2890  -3.2783  -3.2652  -3.1980
    -3.1977  -3.1893  -3.1884  -3.1734  -3.1720  -3.1499  -3.1469  -2.9975
    -2.9972  -2.9811  -2.9787  -2.9703  -2.9362  -2.9350  -2.9320  -2.9279
    -2.8752  -2.8728  -2.8562  -2.8543  -2.8170  -2.7956  -2.7941  -2.7714
    -2.7645  -2.7641  -2.7195  -2.7180  -2.7005  -2.6989  -2.6940  -2.6907
    -2.6695  -2.6692  -2.6254  -2.6215  -2.6185  -2.6166  -2.6011  -2.5557
    -2.5517  -2.5306  -2.5226  -2.5214  -2.4455  -2.4393  -2.4132  -2.4128
    -2.4044  -2.3964  -2.3740  -2.3480  -2.3455  -2.3298  -2.3262  -2.3254
    -2.3225  -2.3104  -2.3034  -2.3022  -2.2931  -2.2906  -2.2859  -2.2811
    -2.2314  -2.2061  -2.1864  -2.1841  -2.1830  -2.1686  -2.1675  -2.1647
    -2.1631  -2.1539  -2.1245  -2.1225  -2.1108  -2.1060  -2.0930  -2.0917
    -2.0893  -2.0660  -2.0657  -2.0551  -2.0465  -2.0458  -1.9906  -1.9772
    -1.9665  -1.9651  -1.9645  -1.9465  -1.9403  -1.9302  -1.9100  -1.9098
    -1.9065  -1.9054  -1.8967  -1.8848  -1.8794  -1.8689  -1.8550  -1.8503
    -1.8089  -1.8055  -1.8034  -1.7981  -1.7967  -1.7921  -1.7855  -1.7830
    -1.7817  -1.7777  -1.7651  -1.7642  -1.7538  -1.6688  -1.6486  -1.6368
    -1.6197  -1.6137  -1.6049  -1.5933  -1.5900  -1.5856  -1.5803  -1.5658
    -1.5608  -1.5587  -1.5578  -1.5411  -1.5267  -1.5163  -1.5143  -1.4986
    -1.4852  -1.4843  -1.4787  -1.4706  -1.4585  -1.4307  -1.4063  -1.4026
    -1.3815  -1.3750  -1.3702  -1.3669  -1.3443  -1.3438  -1.3393  -1.3389
    -1.3371  -1.3294  -1.3232  -1.3168  -1.2978  -1.2651  -1.2573  -1.2356
    -1.2331  -1.2135  -1.1864  -1.1794  -1.1540  -1.1449  -1.1418  -1.1402
    -1.1291  -1.1138  -1.1019  -1.0928  -1.0822  -1.0604  -1.0585  -1.0430
    -1.0334  -1.0086  -1.0045  -0.9952  -0.9440  -0.9410  -0.9373  -0.9352
    -0.9182  -0.9157  -0.9010  -0.8981  -0.8696  -0.8585  -0.8384  -0.8368
    -0.8336  -0.8018  -0.7865  -0.7855  -0.7814  -0.7770  -0.7692  -0.7685
    -0.7646  -0.7378  -0.7335  -0.7313  -0.7201  -0.7156  -0.7106  -0.7034
    -0.6934  -0.6782  -0.6674  -0.6490  -0.6380  -0.5653  -0.5476  -0.5467
    -0.5464  -0.5441  -0.5407  -0.5378  -0.5148  -0.5098  -0.4894  -0.4864
    -0.4810  -0.4758  -0.4647  -0.4492  -0.4455  -0.4424  -0.4292  -0.3478
    -0.3472  -0.3219  -0.3158  -0.3121  -0.3079  -0.3024  -0.3009  -0.2997
    -0.2940  -0.2916  -0.2689  -0.2431  -0.2310  -0.2138  -0.2122  -0.2055
    -0.2038  -0.1979  -0.1927  -0.1892  -0.1860  -0.1836  -0.1680  -0.1658
    -0.1630  -0.1337  -0.1329  -0.1311  -0.1147  -0.1133  -0.0916  -0.0665
    -0.0653  -0.0563  -0.0534   0.0109   0.0135   0.0291   0.0297   0.0919
     0.0931   0.0948   0.1023   0.1204   0.3283   0.3445   0.6745   0.6747
     0.7453   0.7608   0.9003   0.9269   0.9684   1.0836   1.0920   1.4655
     1.5324   1.5327   1.7656   1.7679   1.8233   2.1246   2.1364   2.1639
     2.1677   2.1981   2.2183   2.3568   2.3625   2.5314   2.5340   2.5429
     2.6821   2.7001   2.7408   2.9483   3.3091   3.3172   3.3517   3.3544
     3.3592   3.3741   3.6889   3.6924   4.0168   4.0285   4.0841   4.3595
     4.4815   4.4903   4.6629   4.6671   4.7737   4.7781   4.8560   5.0143
     5.0170   5.1096   5.1137   5.3998   5.4488   5.4581   5.4735   5.6317
     5.7014   5.8013   5.8033   5.8076   5.8154   5.9474   5.9537   6.0088
     6.2255   6.3756   6.5365   6.6086   6.6291   6.6339   6.6359   6.6446
     6.7134   6.7712   6.8487   6.8552   6.9791   7.1188   7.1765   7.1902
     7.2491   7.3295   7.3664

     the Fermi energy is     1.6573 ev

!    total energy              =   -6564.19819340 Ry
     Harris-Foulkes estimate   =   -6564.19819341 Ry
     estimated scf accuracy    <          7.8E-09 Ry

     The total energy is the sum of the following terms:

     one-electron contribution =  -48809.04665450 Ry
     hartree contribution      =   24907.71183266 Ry
     xc contribution           =   -3162.30340747 Ry
     ewald contribution        =   20499.43797927 Ry
     smearing contrib. (-TS)   =       0.00205663 Ry

     convergence has been achieved in  22 iterations

     Writing output data file 2719347.save

     init_run     :    152.27s CPU    161.79s WALL (       1 calls)
     electrons    :   9300.74s CPU   9772.29s WALL (       1 calls)

     Called by init_run:
     wfcinit      :    117.94s CPU    126.95s WALL (       1 calls)
     potinit      :      6.70s CPU      6.79s WALL (       1 calls)

     Called by electrons:
     c_bands      :   7826.99s CPU   8210.78s WALL (      23 calls)
     sum_band     :   1147.46s CPU   1230.05s WALL (      23 calls)
     v_of_rho     :     16.64s CPU     17.85s WALL (      23 calls)
     newd         :    316.33s CPU    319.65s WALL (      23 calls)
     mix_rho      :      3.23s CPU      3.47s WALL (      23 calls)

     Called by c_bands:
     init_us_2    :     17.25s CPU     17.66s WALL (     564 calls)
     cegterg      :   7662.25s CPU   8044.55s WALL (     276 calls)

     Called by *egterg:
     h_psi        :   3251.66s CPU   3601.29s WALL (    1557 calls)
     s_psi        :    393.02s CPU    395.15s WALL (    1557 calls)
     g_psi        :      5.52s CPU      5.53s WALL (    1269 calls)
     cdiaghg      :   1972.40s CPU   1977.74s WALL (    1533 calls)

     Called by h_psi:
     add_vuspsi   :    392.03s CPU    394.25s WALL (    1557 calls)

     General routines
     calbec       :    854.79s CPU    857.79s WALL (    1833 calls)
     fft          :    164.09s CPU    166.32s WALL (     368 calls)
     ffts         :      2.05s CPU      2.22s WALL (      46 calls)
     fftw         :   2452.13s CPU   2828.75s WALL (  673688 calls)
     interpolate  :      5.07s CPU      5.57s WALL (      46 calls)
     davcio       :      0.00s CPU      0.31s WALL (      12 calls)

     Parallel routines
     fft_scatter  :   1910.94s CPU   2221.20s WALL (  674102 calls)

     PWSCF        :     2h37m CPU        2h46m WALL


   This run was terminated on:  16:29:23  10Aug2015            

=------------------------------------------------------------------------------=
   JOB DONE.
=------------------------------------------------------------------------------=
