Setting SGE environment for SCC

     Program PWSCF v.5.1.2 starts on  8Aug2015 at 17:21:44 

     This program is part of the open-source Quantum ESPRESSO suite
     for quantum simulation of materials; please cite
         "P. Giannozzi et al., J. Phys.:Condens. Matter 21 395502 (2009);
          URL http://www.quantum-espresso.org", 
     in publications or presentations arising from this work. More details at
     http://www.quantum-espresso.org/quote

     Parallel version (MPI), running on    32 processors
     R & G space division:  proc/nbgrp/npool/nimage =      32
     Reading input from top.O1.Au50.d.3.4.phi.0.psi.0.in
Warning: card &IONS ignored
Warning: card / ignored
Warning: card &CELL ignored
Warning: card / ignored

     Current dimensions of program PWSCF are:
     Max number of different atomic species (ntypx) = 10
     Max number of k-points (npk) =  40000
     Max angular momentum in pseudopotentials (lmaxx) =  3

     Subspace diagonalization in iterative solution of the eigenvalue problem:
     a serial algorithm will be used


     Parallelization info
     --------------------
     sticks:   dense  smooth     PW     G-vecs:    dense   smooth      PW
     Min         445     223     58                96775    34191    4534
     Max         446     224     59                96790    34246    4540
     Sum       14269    7147   1867              3097177  1095093  145167


     Title: 
     top.O1.Au50.d.3.4.phi.0.psi.0                                              


     bravais-lattice index     =            4
     lattice parameter (alat)  =      22.7436  a.u.
     unit-cell volume          =   22924.1508 (a.u.)^3
     number of atoms/cell      =           67
     number of atomic types    =            3
     number of electrons       =       712.00
     number of Kohn-Sham states=          427
     kinetic-energy cutoff     =      50.0000  Ry
     charge density cutoff     =     400.0000  Ry
     convergence threshold     =      1.0E-08
     mixing beta               =       0.7000
     number of iterations used =            8  plain     mixing
     Exchange-correlation      =  SLA  PW   PBE  PBE ( 1  4  3  4 0 0)

     celldm(1)=  22.743643  celldm(2)=   0.000000  celldm(3)=   2.250000
     celldm(4)=   0.000000  celldm(5)=   0.000000  celldm(6)=   0.000000

     crystal axes: (cart. coord. in units of alat)
               a(1) = (   1.000000   0.000000   0.000000 )  
               a(2) = (  -0.500000   0.866025   0.000000 )  
               a(3) = (   0.000000   0.000000   2.250000 )  

     reciprocal axes: (cart. coord. in units 2 pi/alat)
               b(1) = (  1.000000  0.577350 -0.000000 )  
               b(2) = (  0.000000  1.154701  0.000000 )  
               b(3) = (  0.000000 -0.000000  0.444444 )  


     PseudoPot. # 1 for Au read from file:
     /home/scc/andrejb/qe/pseudo/Au.pbe-nd-van.UPF
     MD5 check sum: 458681b50f36d87ef23c61b04bba420a
     Pseudo is Ultrasoft + core correction, Zval = 11.0
     Generated by new atomic code, or converted to UPF format
     Using radial grid of  985 points,  3 beta functions with: 
                l(1) =   1
                l(2) =   2
                l(3) =   2
     Q(r) pseudized with  8 coefficients,  rinner =    1.100   1.100   1.100
                                                       1.100   1.100

     PseudoPot. # 2 for H  read from file:
     /home/scc/andrejb/qe/pseudo/H.pbe-van_ak.UPF
     MD5 check sum: 403db7282739603aa925980fa9b8608d
     Pseudo is Ultrasoft, Zval =  1.0
     Generated by new atomic code, or converted to UPF format
     Using radial grid of  615 points,  1 beta functions with: 
                l(1) =   0
     Q(r) pseudized with  8 coefficients,  rinner =    0.800

     PseudoPot. # 3 for O  read from file:
     /home/scc/andrejb/qe/pseudo/O.pbe-van_ak.UPF
     MD5 check sum: 4b8c549914a63cae506c6ff22b5af4fe
     Pseudo is Ultrasoft, Zval =  6.0
     Generated by new atomic code, or converted to UPF format
     Using radial grid of  737 points,  4 beta functions with: 
                l(1) =   0
                l(2) =   0
                l(3) =   1
                l(4) =   1
     Q(r) pseudized with  8 coefficients,  rinner =    0.800   0.800   0.800


     atomic species   valence    mass     pseudopotential
        Au            11.00   196.96657     Au( 1.00)
        H              1.00     1.01000     H ( 1.00)
        O              6.00    16.00000     O ( 1.00)

     No symmetry found



   Cartesian axes

     site n.     atom                  positions (alat units)
         1           O   tau(   1) = (   0.4790780   0.3968269   1.1115254  )
         2           H   tau(   2) = (   0.4291446   0.3552792   1.1597790  )
         3           H   tau(   3) = (   0.5274974   0.4371337   1.1622861  )
         4           Au  tau(   4) = (   0.3540481   0.6132292   0.0000000  )
         5           Au  tau(   5) = (   0.4790062   0.3967954   0.0000000  )
         6           Au  tau(   6) = (   0.6039644   0.1803616   0.0000000  )
         7           Au  tau(   7) = (   0.7289225  -0.0360723   0.0000000  )
         8           Au  tau(   8) = (   0.1041318   0.6132292   0.0000000  )
         9           Au  tau(   9) = (   0.2290899   0.3967954   0.0000000  )
        10           Au  tau(  10) = (   0.3540481   0.1803616   0.0000000  )
        11           Au  tau(  11) = (   0.4790062  -0.0360723   0.0000000  )
        12           Au  tau(  12) = (  -0.1457845   0.6132292   0.0000000  )
        13           Au  tau(  13) = (  -0.0208264   0.3967954   0.0000000  )
        14           Au  tau(  14) = (   0.1041318   0.1803616   0.0000000  )
        15           Au  tau(  15) = (   0.2290899  -0.0360723   0.0000000  )
        16           Au  tau(  16) = (  -0.3957008   0.6132292   0.0000000  )
        17           Au  tau(  17) = (  -0.2707426   0.3967954   0.0000000  )
        18           Au  tau(  18) = (  -0.1457845   0.1803616   0.0000000  )
        19           Au  tau(  19) = (  -0.0208264  -0.0360723   0.0000000  )
        20           Au  tau(  20) = (   0.4790062   0.6853738   0.2040557  )
        21           Au  tau(  21) = (   0.6039644   0.4689400   0.2040557  )
        22           Au  tau(  22) = (   0.7289225   0.2525061   0.2040557  )
        23           Au  tau(  23) = (   0.8538806   0.0360723   0.2040557  )
        24           Au  tau(  24) = (   0.2290899   0.6853738   0.2040557  )
        25           Au  tau(  25) = (   0.3540481   0.4689400   0.2040557  )
        26           Au  tau(  26) = (   0.4790062   0.2525061   0.2040557  )
        27           Au  tau(  27) = (   0.6039644   0.0360723   0.2040557  )
        28           Au  tau(  28) = (  -0.0208264   0.6853738   0.2040557  )
        29           Au  tau(  29) = (   0.1041318   0.4689400   0.2040557  )
        30           Au  tau(  30) = (   0.2290899   0.2525061   0.2040557  )
        31           Au  tau(  31) = (   0.3540481   0.0360723   0.2040557  )
        32           Au  tau(  32) = (  -0.2707426   0.6853738   0.2040557  )
        33           Au  tau(  33) = (  -0.1457845   0.4689400   0.2040557  )
        34           Au  tau(  34) = (  -0.0208264   0.2525061   0.2040557  )
        35           Au  tau(  35) = (   0.1041318   0.0360723   0.2040557  )
        36           Au  tau(  36) = (   0.3541162   0.7576593   0.4066483  )
        37           Au  tau(  37) = (   0.4791000   0.5411421   0.4066695  )
        38           Au  tau(  38) = (   0.6040570   0.3246862   0.4066617  )
        39           Au  tau(  39) = (   0.7290270   0.1081684   0.4066529  )
        40           Au  tau(  40) = (   0.1041162   0.7576236   0.4066247  )
        41           Au  tau(  41) = (   0.2291001   0.5411063   0.4066455  )
        42           Au  tau(  42) = (   0.3540567   0.3246505   0.4066380  )
        43           Au  tau(  43) = (   0.4790276   0.1081324   0.4066292  )
        44           Au  tau(  44) = (  -0.1458201   0.7576104   0.4066224  )
        45           Au  tau(  45) = (  -0.0208365   0.5410930   0.4066438  )
        46           Au  tau(  46) = (   0.1041202   0.3246372   0.4066359  )
        47           Au  tau(  47) = (   0.2290908   0.1081193   0.4066273  )
        48           Au  tau(  48) = (  -0.3958167   0.7575791   0.4065812  )
        49           Au  tau(  49) = (  -0.2708328   0.5410617   0.4066025  )
        50           Au  tau(  50) = (  -0.1458763   0.3246061   0.4065947  )
        51           Au  tau(  51) = (  -0.0209056   0.1080882   0.4065858  )
        52           Au  tau(  52) = (   0.3541085   0.6133344   0.6129762  )
        53           Au  tau(  53) = (   0.4790780   0.3968269   0.6129968  )
        54           Au  tau(  54) = (   0.6040356   0.1803811   0.6129859  )
        55           Au  tau(  55) = (   0.7290165  -0.0361221   0.6129385  )
        56           Au  tau(  56) = (   0.1041243   0.6133091   0.6130022  )
        57           Au  tau(  57) = (   0.2290941   0.3968013   0.6130241  )
        58           Au  tau(  58) = (   0.3540515   0.1803552   0.6130121  )
        59           Au  tau(  59) = (   0.4790323  -0.0361475   0.6129659  )
        60           Au  tau(  60) = (  -0.1458030   0.6133014   0.6129980  )
        61           Au  tau(  61) = (  -0.0208339   0.3967936   0.6130188  )
        62           Au  tau(  62) = (   0.1041239   0.1803477   0.6130083  )
        63           Au  tau(  63) = (   0.2291046  -0.0361554   0.6129607  )
        64           Au  tau(  64) = (  -0.3957908   0.6132739   0.6129471  )
        65           Au  tau(  65) = (  -0.2708208   0.3967658   0.6129688  )
        66           Au  tau(  66) = (  -0.1458636   0.1803200   0.6129569  )
        67           Au  tau(  67) = (  -0.0208823  -0.0361826   0.6129110  )

     number of k points=    12  Marzari-Vanderbilt smearing, width (Ry)=  0.0200
                       cart. coord. in units 2pi/alat
        k(    1) = (   0.2500000   0.4330127   0.1111111), wk =   0.1666667
        k(    2) = (   0.2500000  -0.1443376   0.1111111), wk =   0.1666667
        k(    3) = (  -0.2500000  -0.4330127   0.1111111), wk =   0.1666667
        k(    4) = (  -0.2500000   0.4330127  -0.1111111), wk =   0.1666667
        k(    5) = (   0.2500000  -0.4330127  -0.1111111), wk =   0.1666667
        k(    6) = (   0.5000000   0.0000000   0.1111111), wk =   0.1666667
        k(    7) = (  -0.5000000   0.0000000   0.1111111), wk =   0.1666667
        k(    8) = (  -0.2500000   0.1443376   0.1111111), wk =   0.1666667
        k(    9) = (  -0.2500000  -0.1443376  -0.1111111), wk =   0.1666667
        k(   10) = (   0.2500000   0.1443376  -0.1111111), wk =   0.1666667
        k(   11) = (   0.0000000  -0.2886751   0.1111111), wk =   0.1666667
        k(   12) = (   0.0000000   0.2886751   0.1111111), wk =   0.1666667

     Dense  grid:  3097177 G-vectors     FFT dimensions: ( 150, 150, 360)

     Smooth grid:  1095093 G-vectors     FFT dimensions: ( 108, 108, 240)

     Largest allocated arrays     est. size (Mb)     dimensions
        Kohn-Sham Wavefunctions        28.01 Mb     (    4299,  427)
        NL pseudopotentials            55.23 Mb     (    4299,  842)
        Each V/rho on FFT grid          4.12 Mb     (  270000)
        Each G-vector array             0.74 Mb     (   96788)
        G-vector shells                 0.16 Mb     (   21404)
     Largest temporary arrays     est. size (Mb)     dimensions
        Auxiliary wavefunctions       112.04 Mb     (    4299, 1708)
        Each subspace H/S matrix       44.51 Mb     (    1708, 1708)
        Each <psi_i|beta_j> matrix      5.49 Mb     (     842,  427)
        Arrays for rho mixing          32.96 Mb     (  270000,    8)

     Initial potential from superposition of free atoms
     Check: negative starting charge=   -1.729604

     starting charge  711.25682, renormalised to  712.00000

     negative rho (up, down):  1.731E+00 0.000E+00
     Starting wfc are  582 randomized atomic wfcs

     total cpu time spent up to now is      177.9 secs

     Self-consistent Calculation

     iteration #  1     ecut=    50.00 Ry     beta=0.70
     Davidson diagonalization with overlap
     ethr =  1.00E-02,  avg # of iterations =  3.0

     Threshold (ethr) on eigenvalues was too large:
     Diagonalizing with lowered threshold

     Davidson diagonalization with overlap
     ethr =  4.35E-04,  avg # of iterations =  2.8

     negative rho (up, down):  1.714E+00 0.000E+00

     total cpu time spent up to now is      855.1 secs

     total energy              =   -6562.22457059 Ry
     Harris-Foulkes estimate   =   -6564.99359667 Ry
     estimated scf accuracy    <       3.56409179 Ry

     iteration #  2     ecut=    50.00 Ry     beta=0.70
     Davidson diagonalization with overlap
     ethr =  5.01E-04,  avg # of iterations = 11.0

     negative rho (up, down):  1.714E+00 0.000E+00

     total cpu time spent up to now is     1928.2 secs

     total energy              =   -6555.02169377 Ry
     Harris-Foulkes estimate   =   -6570.86409178 Ry
     estimated scf accuracy    <      88.91882989 Ry

     iteration #  3     ecut=    50.00 Ry     beta=0.70
     Davidson diagonalization with overlap
     ethr =  5.01E-04,  avg # of iterations =  6.0

     negative rho (up, down):  1.731E+00 0.000E+00

     total cpu time spent up to now is     2675.6 secs

     total energy              =   -6562.77956744 Ry
     Harris-Foulkes estimate   =   -6564.88149180 Ry
     estimated scf accuracy    <       8.71181890 Ry

     iteration #  4     ecut=    50.00 Ry     beta=0.70
     Davidson diagonalization with overlap
     ethr =  5.01E-04,  avg # of iterations =  8.7

     negative rho (up, down):  1.737E+00 0.000E+00

     total cpu time spent up to now is     3162.0 secs

     total energy              =   -6563.87003658 Ry
     Harris-Foulkes estimate   =   -6564.44918145 Ry
     estimated scf accuracy    <       1.83878685 Ry

     iteration #  5     ecut=    50.00 Ry     beta=0.70
     Davidson diagonalization with overlap
     ethr =  2.58E-04,  avg # of iterations =  7.3

     negative rho (up, down):  1.744E+00 0.000E+00

     total cpu time spent up to now is     3648.1 secs

     total energy              =   -6563.43455304 Ry
     Harris-Foulkes estimate   =   -6564.99572614 Ry
     estimated scf accuracy    <      18.44501577 Ry

     iteration #  6     ecut=    50.00 Ry     beta=0.70
     Davidson diagonalization with overlap
     ethr =  2.58E-04,  avg # of iterations =  5.2

     negative rho (up, down):  1.750E+00 0.000E+00

     total cpu time spent up to now is     4080.6 secs

     total energy              =   -6564.20424485 Ry
     Harris-Foulkes estimate   =   -6564.24210667 Ry
     estimated scf accuracy    <       0.13419822 Ry

     iteration #  7     ecut=    50.00 Ry     beta=0.70
     Davidson diagonalization with overlap
     ethr =  1.88E-05,  avg # of iterations =  8.5

     negative rho (up, down):  1.751E+00 0.000E+00

     total cpu time spent up to now is     4622.0 secs

     total energy              =   -6564.20740885 Ry
     Harris-Foulkes estimate   =   -6564.22799247 Ry
     estimated scf accuracy    <       0.07954807 Ry

     iteration #  8     ecut=    50.00 Ry     beta=0.70
     Davidson diagonalization with overlap
     ethr =  1.12E-05,  avg # of iterations =  4.7

     negative rho (up, down):  1.752E+00 0.000E+00

     total cpu time spent up to now is     5022.7 secs

     total energy              =   -6564.20458208 Ry
     Harris-Foulkes estimate   =   -6564.21760214 Ry
     estimated scf accuracy    <       0.04784706 Ry

     iteration #  9     ecut=    50.00 Ry     beta=0.70
     Davidson diagonalization with overlap
     c_bands:  1 eigenvalues not converged
     ethr =  6.72E-06,  avg # of iterations =  9.9

     negative rho (up, down):  1.754E+00 0.000E+00

     total cpu time spent up to now is     5492.1 secs

     total energy              =   -6564.20222476 Ry
     Harris-Foulkes estimate   =   -6564.21025593 Ry
     estimated scf accuracy    <       0.02624796 Ry

     iteration # 10     ecut=    50.00 Ry     beta=0.70
     Davidson diagonalization with overlap
     ethr =  3.69E-06,  avg # of iterations = 10.0

     negative rho (up, down):  1.755E+00 0.000E+00

     total cpu time spent up to now is     5965.0 secs

     total energy              =   -6564.20040758 Ry
     Harris-Foulkes estimate   =   -6564.20555222 Ry
     estimated scf accuracy    <       0.01374105 Ry

     iteration # 11     ecut=    50.00 Ry     beta=0.70
     Davidson diagonalization with overlap
     ethr =  1.93E-06,  avg # of iterations =  9.3

     negative rho (up, down):  1.755E+00 0.000E+00

     total cpu time spent up to now is     6443.8 secs

     total energy              =   -6564.20096083 Ry
     Harris-Foulkes estimate   =   -6564.20182073 Ry
     estimated scf accuracy    <       0.00397478 Ry

     iteration # 12     ecut=    50.00 Ry     beta=0.70
     Davidson diagonalization with overlap
     ethr =  5.58E-07,  avg # of iterations =  2.0

     negative rho (up, down):  1.756E+00 0.000E+00

     total cpu time spent up to now is     6784.8 secs

     total energy              =   -6564.20007028 Ry
     Harris-Foulkes estimate   =   -6564.20132480 Ry
     estimated scf accuracy    <       0.00173909 Ry

     iteration # 13     ecut=    50.00 Ry     beta=0.70
     Davidson diagonalization with overlap
     ethr =  2.44E-07,  avg # of iterations =  8.3

     negative rho (up, down):  1.755E+00 0.000E+00

     total cpu time spent up to now is     7250.8 secs

     total energy              =   -6564.20031520 Ry
     Harris-Foulkes estimate   =   -6564.20036925 Ry
     estimated scf accuracy    <       0.00009569 Ry

     iteration # 14     ecut=    50.00 Ry     beta=0.70
     Davidson diagonalization with overlap
     ethr =  1.34E-08,  avg # of iterations =  3.0

     negative rho (up, down):  1.755E+00 0.000E+00

     total cpu time spent up to now is     7741.6 secs

     total energy              =   -6564.20032368 Ry
     Harris-Foulkes estimate   =   -6564.20037166 Ry
     estimated scf accuracy    <       0.00012495 Ry

     iteration # 15     ecut=    50.00 Ry     beta=0.70
     Davidson diagonalization with overlap
     ethr =  1.34E-08,  avg # of iterations =  2.0

     negative rho (up, down):  1.755E+00 0.000E+00

     total cpu time spent up to now is     8123.5 secs

     total energy              =   -6564.20033101 Ry
     Harris-Foulkes estimate   =   -6564.20036022 Ry
     estimated scf accuracy    <       0.00016470 Ry

     iteration # 16     ecut=    50.00 Ry     beta=0.70
     Davidson diagonalization with overlap
     ethr =  1.34E-08,  avg # of iterations =  2.0

     negative rho (up, down):  1.755E+00 0.000E+00

     total cpu time spent up to now is     8464.4 secs

     total energy              =   -6564.20033774 Ry
     Harris-Foulkes estimate   =   -6564.20036190 Ry
     estimated scf accuracy    <       0.00021656 Ry

     iteration # 17     ecut=    50.00 Ry     beta=0.70
     Davidson diagonalization with overlap
     ethr =  1.34E-08,  avg # of iterations =  1.0

     negative rho (up, down):  1.755E+00 0.000E+00

     total cpu time spent up to now is     8792.6 secs

     total energy              =   -6564.20034795 Ry
     Harris-Foulkes estimate   =   -6564.20035173 Ry
     estimated scf accuracy    <       0.00001462 Ry

     iteration # 18     ecut=    50.00 Ry     beta=0.70
     Davidson diagonalization with overlap
     ethr =  2.05E-09,  avg # of iterations =  2.0

     negative rho (up, down):  1.755E+00 0.000E+00

     total cpu time spent up to now is     9139.6 secs

     total energy              =   -6564.20034975 Ry
     Harris-Foulkes estimate   =   -6564.20035070 Ry
     estimated scf accuracy    <       0.00000357 Ry

     iteration # 19     ecut=    50.00 Ry     beta=0.70
     Davidson diagonalization with overlap
     ethr =  5.02E-10,  avg # of iterations =  2.0

     negative rho (up, down):  1.755E+00 0.000E+00

     total cpu time spent up to now is     9416.3 secs

     total energy              =   -6564.20035016 Ry
     Harris-Foulkes estimate   =   -6564.20035046 Ry
     estimated scf accuracy    <       0.00000096 Ry

     iteration # 20     ecut=    50.00 Ry     beta=0.70
     Davidson diagonalization with overlap
     ethr =  1.34E-10,  avg # of iterations =  2.0

     negative rho (up, down):  1.755E+00 0.000E+00

     total cpu time spent up to now is     9706.8 secs

     total energy              =   -6564.20035025 Ry
     Harris-Foulkes estimate   =   -6564.20035045 Ry
     estimated scf accuracy    <       0.00000095 Ry

     iteration # 21     ecut=    50.00 Ry     beta=0.70
     Davidson diagonalization with overlap
     ethr =  1.33E-10,  avg # of iterations =  2.0

     negative rho (up, down):  1.755E+00 0.000E+00

     total cpu time spent up to now is     9977.4 secs

     total energy              =   -6564.20035034 Ry
     Harris-Foulkes estimate   =   -6564.20035036 Ry
     estimated scf accuracy    <       0.00000006 Ry

     iteration # 22     ecut=    50.00 Ry     beta=0.70
     Davidson diagonalization with overlap
     ethr =  9.13E-12,  avg # of iterations =  3.0

     negative rho (up, down):  1.755E+00 0.000E+00

     total cpu time spent up to now is    10294.2 secs

     total energy              =   -6564.20035035 Ry
     Harris-Foulkes estimate   =   -6564.20035036 Ry
     estimated scf accuracy    <       0.00000003 Ry

     iteration # 23     ecut=    50.00 Ry     beta=0.70
     Davidson diagonalization with overlap
     ethr =  3.93E-12,  avg # of iterations =  2.0

     negative rho (up, down):  1.755E+00 0.000E+00

     total cpu time spent up to now is    10577.5 secs

     total energy              =   -6564.20035036 Ry
     Harris-Foulkes estimate   =   -6564.20035036 Ry
     estimated scf accuracy    <       0.00000002 Ry

     iteration # 24     ecut=    50.00 Ry     beta=0.70
     Davidson diagonalization with overlap
     ethr =  3.49E-12,  avg # of iterations =  2.0

     negative rho (up, down):  1.755E+00 0.000E+00

     total cpu time spent up to now is    10849.5 secs

     End of self-consistent calculation

          k = 0.2500 0.4330 0.1111 (136853 PWs)   bands (ev):

   -18.5686  -6.3817  -6.3012  -5.9009  -5.9008  -5.2239  -4.8768  -4.8768
    -4.8493  -4.8490  -4.4290  -4.4290  -4.3472  -4.3075  -4.3031  -4.3031
    -4.2600  -4.1448  -4.1447  -4.0999  -4.0536  -4.0536  -4.0502  -4.0502
    -4.0021  -4.0021  -3.9734  -3.9733  -3.9525  -3.9320  -3.9314  -3.8554
    -3.8554  -3.8366  -3.8365  -3.7928  -3.7927  -3.7921  -3.7712  -3.7711
    -3.7681  -3.6933  -3.6933  -3.6318  -3.6317  -3.6143  -3.6143  -3.5524
    -3.5523  -3.5240  -3.5240  -3.4859  -3.4703  -3.4703  -3.4513  -3.4512
    -3.4481  -3.4477  -3.4423  -3.4223  -3.3609  -3.3547  -3.3546  -3.3339
    -3.3008  -3.2718  -3.2718  -3.2168  -3.2164  -3.1912  -3.1910  -3.1640
    -3.1371  -3.0999  -3.0999  -3.0636  -3.0635  -3.0258  -3.0215  -3.0214
    -2.9814  -2.9488  -2.9485  -2.9264  -2.9263  -2.9223  -2.9223  -2.9192
    -2.9191  -2.9118  -2.8575  -2.7989  -2.7988  -2.7971  -2.7970  -2.7931
    -2.7706  -2.7706  -2.7541  -2.6772  -2.6772  -2.6753  -2.6682  -2.6205
    -2.6149  -2.6148  -2.5932  -2.5930  -2.5766  -2.5420  -2.5240  -2.5240
    -2.5197  -2.4800  -2.4790  -2.4789  -2.4369  -2.4369  -2.3848  -2.3584
    -2.3583  -2.3548  -2.3547  -2.3325  -2.3324  -2.3273  -2.3193  -2.3193
    -2.2851  -2.2536  -2.2483  -2.2422  -2.2420  -2.2384  -2.2383  -2.2375
    -2.2375  -2.2179  -2.2043  -2.2030  -2.2029  -2.1994  -2.1992  -2.1875
    -2.1825  -2.1823  -2.1559  -2.1520  -2.1520  -2.1292  -2.1265  -2.1098
    -2.1097  -2.0832  -2.0830  -2.0823  -2.0821  -2.0744  -2.0743  -2.0742
    -2.0740  -2.0594  -2.0593  -2.0439  -2.0384  -2.0383  -1.9570  -1.9568
    -1.9420  -1.9419  -1.9231  -1.9231  -1.9019  -1.8892  -1.8892  -1.8700
    -1.8515  -1.8515  -1.8420  -1.8415  -1.8152  -1.8150  -1.8112  -1.8111
    -1.8053  -1.7943  -1.7646  -1.7365  -1.7167  -1.7164  -1.6948  -1.6908
    -1.6907  -1.6312  -1.6312  -1.6182  -1.6181  -1.5483  -1.5481  -1.5081
    -1.4894  -1.4893  -1.4557  -1.4557  -1.4285  -1.4282  -1.4084  -1.4082
    -1.4064  -1.4062  -1.3909  -1.3486  -1.3486  -1.3478  -1.3478  -1.3405
    -1.3400  -1.3117  -1.3090  -1.3089  -1.2743  -1.2632  -1.2628  -1.2576
    -1.2576  -1.2504  -1.2344  -1.2067  -1.2067  -1.2006  -1.2003  -1.1819
    -1.1815  -1.1351  -1.1219  -1.1216  -1.1211  -1.0971  -1.0971  -1.0527
    -1.0173  -0.9668  -0.9667  -0.9661  -0.9660  -0.9597  -0.9584  -0.9581
    -0.9450  -0.9448  -0.8946  -0.8944  -0.8776  -0.8775  -0.8609  -0.8489
    -0.8488  -0.8358  -0.8332  -0.8331  -0.8319  -0.8318  -0.7887  -0.7879
    -0.7756  -0.7746  -0.7745  -0.7596  -0.7596  -0.7287  -0.7193  -0.7190
    -0.6912  -0.6713  -0.6709  -0.6296  -0.6263  -0.6140  -0.6139  -0.6050
    -0.6048  -0.5975  -0.5972  -0.5931  -0.5930  -0.5637  -0.5636  -0.5536
    -0.5535  -0.5421  -0.5355  -0.5282  -0.5282  -0.5112  -0.5111  -0.4861
    -0.4770  -0.4767  -0.4637  -0.4121  -0.4101  -0.4101  -0.4058  -0.3989
    -0.3977  -0.3973  -0.3766  -0.3763  -0.3637  -0.3637  -0.3613  -0.3612
    -0.3193  -0.3173  -0.3172  -0.3099  -0.3097  -0.3019  -0.3018  -0.2984
    -0.2881  -0.2816  -0.2816  -0.2493  -0.2492  -0.2410  -0.2273  -0.2271
    -0.1738  -0.1736  -0.1455  -0.1454  -0.1365  -0.1364  -0.1033  -0.0929
    -0.0929  -0.0746  -0.0740  -0.0738   0.0057   0.0062   0.1173   0.5187
     0.5188   0.5444   0.5445   0.6073   0.6074   0.9575   0.9577   0.9710
     0.9711   1.1418   1.2082   1.2990   1.3002   1.5594   1.5612   2.1440
     2.1442   2.2748   2.2749   2.4850   2.4852   2.5553   2.5553   2.6436
     2.9219   2.9332   3.1001   3.3155   3.3168   3.3494   3.3495   3.4143
     3.5123   3.6808   3.6838   3.7207   3.9630   3.9632   4.0372   4.0378
     4.2822   4.2823   4.3127   4.5034   4.5034   4.5641   4.6488   4.9404
     4.9769   4.9775   5.1681   5.2580   5.2581   5.3813   5.3820   5.6369
     5.9876   6.0525   6.0536   6.1295   6.1295   6.1768   6.2052   6.2714
     6.2835   6.2837   6.2927   6.3538   6.3541   6.3623   6.3650   6.4069
     6.4203   6.5718   6.8082   6.8379   6.9388   7.0042   7.0052   7.0947
     7.2189   7.2461   7.2656

          k = 0.2500-0.1443 0.1111 (136898 PWs)   bands (ev):

   -18.5686  -6.5112  -6.3817  -5.7166  -5.4279  -5.3626  -5.3626  -4.8058
    -4.8057  -4.6927  -4.6563  -4.5060  -4.4352  -4.4031  -4.4030  -4.3564
    -4.2859  -4.2859  -4.1488  -4.1064  -4.1064  -4.0851  -4.0845  -4.0837
    -3.9630  -3.9629  -3.8837  -3.8725  -3.8708  -3.8708  -3.8503  -3.8503
    -3.7844  -3.7286  -3.7286  -3.7161  -3.7057  -3.7057  -3.6943  -3.6942
    -3.6861  -3.6388  -3.6387  -3.6293  -3.6293  -3.6171  -3.6171  -3.5854
    -3.5820  -3.5820  -3.5456  -3.5456  -3.5274  -3.5274  -3.5076  -3.4657
    -3.4657  -3.4043  -3.4043  -3.3819  -3.3819  -3.3654  -3.2921  -3.2921
    -3.2832  -3.2831  -3.2661  -3.2661  -3.2426  -3.2426  -3.0911  -3.0911
    -3.0728  -3.0728  -3.0681  -3.0296  -3.0295  -3.0246  -3.0246  -2.9686
    -2.9686  -2.9495  -2.9495  -2.9113  -2.8873  -2.8873  -2.8650  -2.8571
    -2.8571  -2.8122  -2.8122  -2.7929  -2.7928  -2.7881  -2.7880  -2.7626
    -2.7625  -2.7178  -2.7178  -2.7116  -2.7116  -2.6970  -2.6478  -2.6478
    -2.6243  -2.6161  -2.6161  -2.5766  -2.5365  -2.5365  -2.5062  -2.5062
    -2.4993  -2.4904  -2.4687  -2.4411  -2.4411  -2.4238  -2.4206  -2.4163
    -2.4163  -2.4034  -2.3945  -2.3945  -2.3858  -2.3858  -2.3777  -2.3777
    -2.3262  -2.3003  -2.2811  -2.2769  -2.2769  -2.2607  -2.2606  -2.2576
    -2.2576  -2.2467  -2.2165  -2.2165  -2.2049  -2.1990  -2.1860  -2.1860
    -2.1837  -2.1578  -2.1577  -2.1475  -2.1394  -2.1394  -2.0826  -2.0714
    -2.0593  -2.0592  -2.0576  -2.0377  -2.0376  -2.0245  -2.0038  -2.0038
    -1.9987  -1.9987  -1.9869  -1.9752  -1.9752  -1.9621  -1.9456  -1.9454
    -1.8983  -1.8982  -1.8885  -1.8883  -1.8883  -1.8853  -1.8756  -1.8754
    -1.8725  -1.8725  -1.8597  -1.8544  -1.8544  -1.7398  -1.7397  -1.7106
    -1.7105  -1.7098  -1.6874  -1.6828  -1.6828  -1.6729  -1.6728  -1.6526
    -1.6525  -1.6517  -1.6454  -1.6452  -1.6092  -1.6091  -1.6080  -1.5783
    -1.5782  -1.5724  -1.5724  -1.5583  -1.5582  -1.5011  -1.4984  -1.4745
    -1.4745  -1.4658  -1.4598  -1.4374  -1.4374  -1.4319  -1.4319  -1.4285
    -1.4284  -1.4160  -1.4160  -1.3967  -1.3590  -1.3589  -1.3276  -1.3276
    -1.3175  -1.2803  -1.2802  -1.2466  -1.2465  -1.2362  -1.2358  -1.2219
    -1.2046  -1.2041  -1.1847  -1.1846  -1.1539  -1.1539  -1.1347  -1.1346
    -1.1009  -1.1009  -1.0892  -1.0347  -1.0346  -1.0304  -1.0303  -1.0106
    -1.0105  -0.9937  -0.9937  -0.9631  -0.9517  -0.9315  -0.9293  -0.9293
    -0.8981  -0.8781  -0.8778  -0.8777  -0.8677  -0.8676  -0.8625  -0.8625
    -0.8322  -0.8246  -0.8246  -0.8116  -0.8113  -0.8052  -0.8051  -0.7860
    -0.7693  -0.7691  -0.7404  -0.7403  -0.6576  -0.6397  -0.6393  -0.6391
    -0.6371  -0.6320  -0.6320  -0.6231  -0.6010  -0.5798  -0.5797  -0.5743
    -0.5743  -0.5561  -0.5409  -0.5408  -0.5367  -0.5355  -0.5214  -0.4414
    -0.4414  -0.4130  -0.4128  -0.4032  -0.4031  -0.3958  -0.3947  -0.3946
    -0.3882  -0.3882  -0.3712  -0.3384  -0.3260  -0.3065  -0.3065  -0.2976
    -0.2975  -0.2901  -0.2900  -0.2819  -0.2791  -0.2791  -0.2610  -0.2584
    -0.2583  -0.2266  -0.2265  -0.2257  -0.2085  -0.2085  -0.1857  -0.1596
    -0.1596  -0.1496  -0.1496  -0.0816  -0.0815  -0.0632  -0.0632  -0.0017
     0.0014   0.0024   0.0024   0.0305   0.2373   0.2377   0.5808   0.5808
     0.6562   0.6566   0.8069   0.8361   0.8572   0.9928   0.9929   1.3710
     1.4384   1.4384   1.6728   1.6728   1.7279   2.0389   2.0394   2.0720
     2.0721   2.1108   2.1111   2.2658   2.2658   2.4405   2.4406   2.4524
     2.5963   2.5968   2.6433   2.8531   3.2202   3.2203   3.2619   3.2620
     3.2694   3.2695   3.5965   3.5965   3.9318   3.9322   4.0041   4.2653
     4.3952   4.3955   4.5944   4.5954   4.6847   4.6847   4.7634   4.9248
     4.9249   5.0183   5.0184   5.3101   5.3725   5.3727   5.5636   5.5667
     5.5954   5.7124   5.7126   5.7161   5.7162   5.8623   5.8624   5.9249
     6.0755   6.4491   6.4875   6.5421   6.5422   6.5476   6.5479   6.5926
     6.7619   6.7622   6.7800   6.8124   6.8668   7.0764   7.1134   7.1144
     7.1378   7.3008   7.3829

          k =-0.2500-0.4330 0.1111 (136853 PWs)   bands (ev):

   -18.5686  -6.3817  -6.3012  -5.9009  -5.9008  -5.2239  -4.8768  -4.8768
    -4.8493  -4.8490  -4.4290  -4.4290  -4.3472  -4.3075  -4.3031  -4.3031
    -4.2600  -4.1448  -4.1447  -4.0999  -4.0536  -4.0536  -4.0502  -4.0502
    -4.0021  -4.0021  -3.9734  -3.9733  -3.9525  -3.9320  -3.9314  -3.8554
    -3.8554  -3.8366  -3.8365  -3.7928  -3.7927  -3.7921  -3.7712  -3.7711
    -3.7681  -3.6933  -3.6933  -3.6317  -3.6317  -3.6143  -3.6143  -3.5524
    -3.5523  -3.5240  -3.5240  -3.4859  -3.4703  -3.4703  -3.4513  -3.4512
    -3.4481  -3.4477  -3.4423  -3.4223  -3.3609  -3.3547  -3.3546  -3.3339
    -3.3008  -3.2718  -3.2718  -3.2168  -3.2164  -3.1912  -3.1910  -3.1640
    -3.1371  -3.0999  -3.0999  -3.0635  -3.0635  -3.0258  -3.0215  -3.0214
    -2.9814  -2.9488  -2.9485  -2.9264  -2.9263  -2.9223  -2.9223  -2.9192
    -2.9191  -2.9118  -2.8575  -2.7989  -2.7988  -2.7971  -2.7970  -2.7931
    -2.7706  -2.7706  -2.7541  -2.6772  -2.6772  -2.6753  -2.6682  -2.6205
    -2.6149  -2.6148  -2.5932  -2.5930  -2.5766  -2.5420  -2.5240  -2.5240
    -2.5197  -2.4800  -2.4790  -2.4789  -2.4369  -2.4369  -2.3848  -2.3584
    -2.3584  -2.3548  -2.3547  -2.3325  -2.3324  -2.3273  -2.3193  -2.3193
    -2.2851  -2.2536  -2.2483  -2.2422  -2.2420  -2.2384  -2.2383  -2.2375
    -2.2375  -2.2179  -2.2043  -2.2030  -2.2029  -2.1994  -2.1992  -2.1875
    -2.1825  -2.1823  -2.1559  -2.1520  -2.1520  -2.1292  -2.1265  -2.1098
    -2.1097  -2.0832  -2.0830  -2.0823  -2.0821  -2.0744  -2.0743  -2.0742
    -2.0740  -2.0594  -2.0593  -2.0439  -2.0384  -2.0383  -1.9570  -1.9568
    -1.9420  -1.9419  -1.9231  -1.9231  -1.9019  -1.8892  -1.8892  -1.8700
    -1.8515  -1.8515  -1.8420  -1.8415  -1.8152  -1.8150  -1.8112  -1.8111
    -1.8053  -1.7943  -1.7646  -1.7365  -1.7167  -1.7164  -1.6948  -1.6908
    -1.6907  -1.6312  -1.6312  -1.6182  -1.6181  -1.5483  -1.5481  -1.5081
    -1.4894  -1.4893  -1.4557  -1.4557  -1.4285  -1.4282  -1.4084  -1.4082
    -1.4064  -1.4062  -1.3909  -1.3486  -1.3486  -1.3478  -1.3478  -1.3405
    -1.3400  -1.3117  -1.3090  -1.3089  -1.2743  -1.2632  -1.2628  -1.2576
    -1.2576  -1.2504  -1.2344  -1.2067  -1.2067  -1.2006  -1.2003  -1.1819
    -1.1815  -1.1351  -1.1219  -1.1216  -1.1211  -1.0971  -1.0971  -1.0527
    -1.0173  -0.9668  -0.9667  -0.9661  -0.9660  -0.9597  -0.9584  -0.9581
    -0.9450  -0.9448  -0.8946  -0.8944  -0.8776  -0.8775  -0.8609  -0.8489
    -0.8488  -0.8358  -0.8332  -0.8331  -0.8319  -0.8318  -0.7887  -0.7879
    -0.7756  -0.7746  -0.7745  -0.7596  -0.7596  -0.7287  -0.7193  -0.7190
    -0.6912  -0.6713  -0.6709  -0.6296  -0.6263  -0.6140  -0.6139  -0.6050
    -0.6048  -0.5975  -0.5972  -0.5931  -0.5930  -0.5637  -0.5636  -0.5536
    -0.5535  -0.5421  -0.5355  -0.5282  -0.5282  -0.5112  -0.5111  -0.4861
    -0.4770  -0.4767  -0.4637  -0.4121  -0.4101  -0.4101  -0.4058  -0.3989
    -0.3977  -0.3973  -0.3766  -0.3763  -0.3637  -0.3637  -0.3613  -0.3612
    -0.3193  -0.3173  -0.3172  -0.3099  -0.3097  -0.3019  -0.3018  -0.2984
    -0.2881  -0.2816  -0.2816  -0.2493  -0.2492  -0.2410  -0.2273  -0.2271
    -0.1738  -0.1736  -0.1455  -0.1454  -0.1365  -0.1364  -0.1033  -0.0929
    -0.0928  -0.0746  -0.0740  -0.0738   0.0057   0.0062   0.1173   0.5187
     0.5187   0.5444   0.5445   0.6073   0.6074   0.9575   0.9577   0.9710
     0.9711   1.1418   1.2082   1.2990   1.3002   1.5594   1.5612   2.1440
     2.1442   2.2748   2.2749   2.4850   2.4852   2.5553   2.5553   2.6436
     2.9219   2.9332   3.1001   3.3155   3.3168   3.3494   3.3495   3.4143
     3.5123   3.6808   3.6838   3.7207   3.9630   3.9632   4.0372   4.0378
     4.2822   4.2823   4.3127   4.5034   4.5034   4.5641   4.6488   4.9404
     4.9769   4.9775   5.1681   5.2580   5.2581   5.3813   5.3820   5.6369
     5.9876   6.0525   6.0536   6.1295   6.1295   6.1764   6.2052   6.2714
     6.2835   6.2837   6.2927   6.3538   6.3541   6.3624   6.3650   6.4084
     6.4200   6.5716   6.8049   6.8389   6.9388   7.0042   7.0052   7.0955
     7.2198   7.2465   7.2660

          k =-0.2500 0.4330-0.1111 (136853 PWs)   bands (ev):

   -18.5686  -6.3817  -6.3012  -5.9023  -5.8995  -5.2239  -4.8774  -4.8763
    -4.8506  -4.8477  -4.4296  -4.4282  -4.3472  -4.3075  -4.3033  -4.3028
    -4.2600  -4.1453  -4.1445  -4.1000  -4.0538  -4.0535  -4.0504  -4.0499
    -4.0023  -4.0020  -3.9750  -3.9718  -3.9524  -3.9324  -3.9309  -3.8560
    -3.8544  -3.8368  -3.8362  -3.7931  -3.7928  -3.7917  -3.7714  -3.7710
    -3.7681  -3.6937  -3.6931  -3.6327  -3.6308  -3.6144  -3.6143  -3.5526
    -3.5520  -3.5241  -3.5239  -3.4861  -3.4705  -3.4703  -3.4513  -3.4512
    -3.4482  -3.4476  -3.4424  -3.4222  -3.3608  -3.3549  -3.3545  -3.3337
    -3.3006  -3.2725  -3.2715  -3.2168  -3.2162  -3.1913  -3.1906  -3.1639
    -3.1373  -3.1002  -3.0999  -3.0639  -3.0629  -3.0258  -3.0216  -3.0214
    -2.9813  -2.9490  -2.9484  -2.9265  -2.9263  -2.9229  -2.9216  -2.9192
    -2.9190  -2.9118  -2.8574  -2.7996  -2.7982  -2.7972  -2.7967  -2.7932
    -2.7711  -2.7701  -2.7541  -2.6779  -2.6763  -2.6756  -2.6681  -2.6204
    -2.6155  -2.6141  -2.5935  -2.5931  -2.5766  -2.5421  -2.5240  -2.5236
    -2.5197  -2.4800  -2.4792  -2.4788  -2.4373  -2.4365  -2.3847  -2.3584
    -2.3583  -2.3553  -2.3549  -2.3327  -2.3320  -2.3274  -2.3198  -2.3190
    -2.2851  -2.2535  -2.2482  -2.2422  -2.2416  -2.2392  -2.2380  -2.2376
    -2.2373  -2.2178  -2.2044  -2.2036  -2.2021  -2.1996  -2.1992  -2.1875
    -2.1823  -2.1821  -2.1557  -2.1522  -2.1516  -2.1293  -2.1267  -2.1098
    -2.1096  -2.0839  -2.0828  -2.0825  -2.0818  -2.0749  -2.0741  -2.0740
    -2.0736  -2.0598  -2.0591  -2.0439  -2.0387  -2.0383  -1.9576  -1.9565
    -1.9426  -1.9413  -1.9230  -1.9228  -1.9019  -1.8894  -1.8889  -1.8698
    -1.8519  -1.8512  -1.8422  -1.8411  -1.8152  -1.8151  -1.8116  -1.8109
    -1.8049  -1.7942  -1.7646  -1.7365  -1.7169  -1.7166  -1.6948  -1.6912
    -1.6906  -1.6321  -1.6302  -1.6182  -1.6180  -1.5488  -1.5475  -1.5084
    -1.4895  -1.4890  -1.4561  -1.4553  -1.4286  -1.4280  -1.4088  -1.4079
    -1.4067  -1.4058  -1.3911  -1.3486  -1.3483  -1.3481  -1.3476  -1.3406
    -1.3398  -1.3120  -1.3090  -1.3090  -1.2743  -1.2636  -1.2625  -1.2580
    -1.2572  -1.2505  -1.2341  -1.2071  -1.2062  -1.2006  -1.2001  -1.1818
    -1.1814  -1.1350  -1.1226  -1.1211  -1.1211  -1.0973  -1.0970  -1.0529
    -1.0174  -0.9669  -0.9666  -0.9663  -0.9661  -0.9599  -0.9587  -0.9580
    -0.9453  -0.9442  -0.8948  -0.8940  -0.8777  -0.8775  -0.8608  -0.8492
    -0.8486  -0.8356  -0.8333  -0.8332  -0.8317  -0.8315  -0.7890  -0.7879
    -0.7753  -0.7748  -0.7743  -0.7598  -0.7594  -0.7291  -0.7196  -0.7185
    -0.6914  -0.6712  -0.6708  -0.6297  -0.6261  -0.6143  -0.6136  -0.6050
    -0.6046  -0.5976  -0.5972  -0.5932  -0.5929  -0.5639  -0.5634  -0.5538
    -0.5535  -0.5422  -0.5355  -0.5283  -0.5281  -0.5111  -0.5109  -0.4863
    -0.4771  -0.4767  -0.4635  -0.4121  -0.4104  -0.4100  -0.4057  -0.3988
    -0.3977  -0.3974  -0.3766  -0.3763  -0.3636  -0.3635  -0.3614  -0.3612
    -0.3194  -0.3174  -0.3170  -0.3102  -0.3094  -0.3020  -0.3019  -0.2982
    -0.2881  -0.2820  -0.2813  -0.2495  -0.2490  -0.2411  -0.2274  -0.2271
    -0.1738  -0.1736  -0.1455  -0.1453  -0.1366  -0.1363  -0.1032  -0.0930
    -0.0927  -0.0752  -0.0741  -0.0732   0.0056   0.0063   0.1173   0.5185
     0.5190   0.5443   0.5446   0.6072   0.6074   0.9575   0.9578   0.9708
     0.9711   1.1418   1.2083   1.2984   1.3010   1.5587   1.5619   2.1439
     2.1440   2.2745   2.2754   2.4848   2.4854   2.5549   2.5556   2.6435
     2.9219   2.9336   3.1001   3.3149   3.3173   3.3489   3.3501   3.4141
     3.5124   3.6795   3.6852   3.7209   3.9626   3.9637   4.0373   4.0377
     4.2821   4.2823   4.3124   4.5028   4.5038   4.5646   4.6485   4.9399
     4.9762   4.9781   5.1682   5.2580   5.2582   5.3816   5.3820   5.6301
     5.9877   6.0517   6.0544   6.1293   6.1296   6.1853   6.2051   6.2713
     6.2825   6.2846   6.2929   6.3539   6.3545   6.3615   6.3662   6.3993
     6.4352   6.6190   6.7380   6.8545   6.9385   7.0036   7.0060   7.1167
     7.1613   7.2622   7.2647

          k = 0.2500-0.4330-0.1111 (136853 PWs)   bands (ev):

   -18.5686  -6.3817  -6.3012  -5.9023  -5.8995  -5.2239  -4.8774  -4.8763
    -4.8506  -4.8477  -4.4296  -4.4282  -4.3472  -4.3075  -4.3033  -4.3028
    -4.2600  -4.1453  -4.1445  -4.1000  -4.0538  -4.0535  -4.0504  -4.0499
    -4.0023  -4.0020  -3.9750  -3.9718  -3.9524  -3.9324  -3.9309  -3.8560
    -3.8544  -3.8368  -3.8362  -3.7931  -3.7928  -3.7917  -3.7714  -3.7710
    -3.7681  -3.6937  -3.6931  -3.6327  -3.6308  -3.6144  -3.6143  -3.5526
    -3.5520  -3.5241  -3.5239  -3.4861  -3.4705  -3.4703  -3.4513  -3.4512
    -3.4482  -3.4476  -3.4424  -3.4222  -3.3608  -3.3549  -3.3545  -3.3337
    -3.3006  -3.2725  -3.2715  -3.2168  -3.2162  -3.1913  -3.1906  -3.1639
    -3.1373  -3.1002  -3.0999  -3.0639  -3.0629  -3.0258  -3.0216  -3.0214
    -2.9813  -2.9490  -2.9484  -2.9265  -2.9263  -2.9229  -2.9216  -2.9192
    -2.9190  -2.9118  -2.8574  -2.7996  -2.7982  -2.7972  -2.7967  -2.7932
    -2.7711  -2.7701  -2.7541  -2.6779  -2.6763  -2.6756  -2.6681  -2.6204
    -2.6155  -2.6141  -2.5935  -2.5931  -2.5766  -2.5421  -2.5240  -2.5236
    -2.5197  -2.4800  -2.4792  -2.4788  -2.4373  -2.4365  -2.3847  -2.3584
    -2.3583  -2.3553  -2.3549  -2.3327  -2.3320  -2.3274  -2.3198  -2.3190
    -2.2851  -2.2535  -2.2482  -2.2422  -2.2416  -2.2392  -2.2380  -2.2376
    -2.2373  -2.2178  -2.2044  -2.2036  -2.2021  -2.1996  -2.1992  -2.1875
    -2.1823  -2.1821  -2.1557  -2.1522  -2.1516  -2.1293  -2.1267  -2.1098
    -2.1096  -2.0839  -2.0828  -2.0825  -2.0818  -2.0749  -2.0741  -2.0740
    -2.0736  -2.0598  -2.0591  -2.0439  -2.0387  -2.0383  -1.9576  -1.9565
    -1.9426  -1.9413  -1.9230  -1.9228  -1.9019  -1.8894  -1.8889  -1.8698
    -1.8519  -1.8512  -1.8422  -1.8411  -1.8152  -1.8151  -1.8116  -1.8109
    -1.8049  -1.7942  -1.7646  -1.7365  -1.7169  -1.7166  -1.6948  -1.6912
    -1.6906  -1.6321  -1.6302  -1.6182  -1.6180  -1.5488  -1.5475  -1.5084
    -1.4895  -1.4890  -1.4561  -1.4553  -1.4286  -1.4280  -1.4088  -1.4079
    -1.4067  -1.4058  -1.3911  -1.3486  -1.3483  -1.3481  -1.3476  -1.3406
    -1.3398  -1.3120  -1.3090  -1.3090  -1.2743  -1.2636  -1.2625  -1.2580
    -1.2572  -1.2505  -1.2341  -1.2071  -1.2062  -1.2006  -1.2001  -1.1818
    -1.1814  -1.1350  -1.1226  -1.1211  -1.1211  -1.0973  -1.0970  -1.0529
    -1.0174  -0.9669  -0.9666  -0.9663  -0.9661  -0.9599  -0.9587  -0.9580
    -0.9453  -0.9442  -0.8948  -0.8940  -0.8777  -0.8775  -0.8608  -0.8492
    -0.8486  -0.8356  -0.8333  -0.8332  -0.8317  -0.8315  -0.7890  -0.7879
    -0.7753  -0.7748  -0.7743  -0.7598  -0.7594  -0.7291  -0.7196  -0.7185
    -0.6914  -0.6712  -0.6708  -0.6297  -0.6261  -0.6143  -0.6136  -0.6050
    -0.6046  -0.5976  -0.5972  -0.5932  -0.5929  -0.5639  -0.5634  -0.5538
    -0.5535  -0.5422  -0.5355  -0.5283  -0.5281  -0.5111  -0.5109  -0.4863
    -0.4771  -0.4767  -0.4635  -0.4121  -0.4104  -0.4100  -0.4057  -0.3988
    -0.3977  -0.3974  -0.3766  -0.3763  -0.3636  -0.3635  -0.3614  -0.3612
    -0.3194  -0.3174  -0.3170  -0.3102  -0.3094  -0.3020  -0.3019  -0.2982
    -0.2881  -0.2820  -0.2813  -0.2495  -0.2490  -0.2411  -0.2274  -0.2271
    -0.1738  -0.1736  -0.1455  -0.1453  -0.1366  -0.1363  -0.1032  -0.0930
    -0.0927  -0.0752  -0.0741  -0.0732   0.0056   0.0063   0.1173   0.5185
     0.5190   0.5443   0.5446   0.6072   0.6074   0.9575   0.9578   0.9708
     0.9711   1.1418   1.2083   1.2984   1.3010   1.5587   1.5619   2.1439
     2.1440   2.2745   2.2754   2.4848   2.4854   2.5549   2.5556   2.6435
     2.9219   2.9336   3.1001   3.3149   3.3173   3.3489   3.3501   3.4141
     3.5124   3.6795   3.6852   3.7209   3.9626   3.9637   4.0373   4.0377
     4.2821   4.2823   4.3124   4.5028   4.5038   4.5646   4.6485   4.9399
     4.9762   4.9781   5.1682   5.2580   5.2582   5.3816   5.3820   5.6301
     5.9877   6.0517   6.0544   6.1293   6.1296   6.1854   6.2051   6.2713
     6.2825   6.2846   6.2929   6.3539   6.3545   6.3615   6.3662   6.3994
     6.4350   6.6184   6.7385   6.8549   6.9385   7.0036   7.0061   7.1176
     7.1604   7.2617   7.2651

          k = 0.5000 0.0000 0.1111 (136853 PWs)   bands (ev):

   -18.5686  -6.3817  -6.3012  -5.9023  -5.8994  -5.2239  -4.8777  -4.8760
    -4.8504  -4.8479  -4.4297  -4.4282  -4.3472  -4.3075  -4.3032  -4.3029
    -4.2600  -4.1453  -4.1445  -4.1000  -4.0537  -4.0536  -4.0507  -4.0495
    -4.0024  -4.0019  -3.9750  -3.9718  -3.9524  -3.9321  -3.9312  -3.8561
    -3.8543  -3.8367  -3.8363  -3.7929  -3.7928  -3.7920  -3.7714  -3.7710
    -3.7681  -3.6936  -3.6932  -3.6328  -3.6307  -3.6144  -3.6142  -3.5526
    -3.5521  -3.5241  -3.5239  -3.4861  -3.4705  -3.4703  -3.4516  -3.4510
    -3.4484  -3.4473  -3.4425  -3.4223  -3.3608  -3.3548  -3.3546  -3.3337
    -3.3006  -3.2723  -3.2716  -3.2170  -3.2160  -3.1914  -3.1906  -3.1639
    -3.1373  -3.1003  -3.0998  -3.0637  -3.0630  -3.0258  -3.0216  -3.0214
    -2.9813  -2.9492  -2.9482  -2.9264  -2.9263  -2.9228  -2.9217  -2.9193
    -2.9191  -2.9119  -2.8574  -2.7995  -2.7983  -2.7972  -2.7967  -2.7932
    -2.7707  -2.7705  -2.7541  -2.6778  -2.6765  -2.6755  -2.6682  -2.6204
    -2.6155  -2.6140  -2.5935  -2.5931  -2.5766  -2.5421  -2.5241  -2.5235
    -2.5197  -2.4800  -2.4791  -2.4790  -2.4372  -2.4366  -2.3847  -2.3585
    -2.3582  -2.3552  -2.3550  -2.3326  -2.3321  -2.3274  -2.3198  -2.3190
    -2.2851  -2.2536  -2.2481  -2.2422  -2.2415  -2.2393  -2.2379  -2.2375
    -2.2373  -2.2178  -2.2044  -2.2034  -2.2022  -2.1995  -2.1993  -2.1876
    -2.1826  -2.1819  -2.1556  -2.1520  -2.1518  -2.1293  -2.1268  -2.1098
    -2.1096  -2.0834  -2.0829  -2.0827  -2.0818  -2.0746  -2.0743  -2.0740
    -2.0736  -2.0597  -2.0592  -2.0439  -2.0388  -2.0383  -1.9579  -1.9561
    -1.9428  -1.9412  -1.9231  -1.9227  -1.9019  -1.8894  -1.8890  -1.8698
    -1.8518  -1.8513  -1.8421  -1.8413  -1.8151  -1.8150  -1.8115  -1.8109
    -1.8051  -1.7943  -1.7646  -1.7365  -1.7171  -1.7162  -1.6948  -1.6912
    -1.6905  -1.6320  -1.6303  -1.6183  -1.6179  -1.5487  -1.5476  -1.5084
    -1.4895  -1.4891  -1.4560  -1.4554  -1.4284  -1.4283  -1.4085  -1.4083
    -1.4065  -1.4061  -1.3911  -1.3488  -1.3482  -1.3481  -1.3477  -1.3403
    -1.3401  -1.3120  -1.3092  -1.3087  -1.2743  -1.2633  -1.2627  -1.2579
    -1.2573  -1.2505  -1.2341  -1.2071  -1.2063  -1.2006  -1.2001  -1.1819
    -1.1813  -1.1350  -1.1222  -1.1215  -1.1211  -1.0973  -1.0969  -1.0529
    -1.0174  -0.9668  -0.9665  -0.9664  -0.9661  -0.9598  -0.9585  -0.9582
    -0.9451  -0.9445  -0.8946  -0.8943  -0.8777  -0.8775  -0.8608  -0.8492
    -0.8485  -0.8356  -0.8335  -0.8330  -0.8319  -0.8314  -0.7887  -0.7881
    -0.7753  -0.7748  -0.7743  -0.7598  -0.7594  -0.7291  -0.7192  -0.7189
    -0.6913  -0.6714  -0.6707  -0.6297  -0.6262  -0.6143  -0.6135  -0.6051
    -0.6045  -0.5976  -0.5972  -0.5932  -0.5930  -0.5640  -0.5633  -0.5538
    -0.5535  -0.5422  -0.5355  -0.5284  -0.5280  -0.5112  -0.5108  -0.4862
    -0.4770  -0.4768  -0.4636  -0.4120  -0.4103  -0.4101  -0.4058  -0.3987
    -0.3977  -0.3974  -0.3767  -0.3763  -0.3637  -0.3635  -0.3613  -0.3612
    -0.3194  -0.3174  -0.3170  -0.3100  -0.3097  -0.3020  -0.3019  -0.2982
    -0.2881  -0.2818  -0.2815  -0.2494  -0.2491  -0.2411  -0.2273  -0.2272
    -0.1739  -0.1736  -0.1455  -0.1453  -0.1366  -0.1363  -0.1032  -0.0930
    -0.0927  -0.0744  -0.0741  -0.0740   0.0056   0.0063   0.1173   0.5184
     0.5190   0.5444   0.5446   0.6069   0.6076   0.9574   0.9579   0.9705
     0.9715   1.1418   1.2083   1.2994   1.2999   1.5596   1.5610   2.1433
     2.1446   2.2744   2.2755   2.4847   2.4855   2.5546   2.5560   2.6435
     2.9219   2.9335   3.1001   3.3159   3.3163   3.3485   3.3504   3.4142
     3.5124   3.6812   3.6835   3.7209   3.9627   3.9636   4.0367   4.0383
     4.2817   4.2827   4.3124   4.5026   4.5041   4.5645   4.6486   4.9399
     4.9769   4.9774   5.1682   5.2577   5.2584   5.3811   5.3823   5.6342
     5.9877   6.0528   6.0533   6.1291   6.1298   6.1800   6.2051   6.2713
     6.2830   6.2841   6.2928   6.3536   6.3546   6.3624   6.3653   6.4052
     6.4251   6.5849   6.7855   6.8456   6.9385   7.0044   7.0052   7.1003
     7.1993   7.2522   7.2655

          k =-0.5000 0.0000 0.1111 (136853 PWs)   bands (ev):

   -18.5686  -6.3817  -6.3012  -5.9023  -5.8994  -5.2239  -4.8777  -4.8760
    -4.8504  -4.8479  -4.4297  -4.4282  -4.3472  -4.3075  -4.3032  -4.3029
    -4.2600  -4.1453  -4.1445  -4.1000  -4.0537  -4.0536  -4.0507  -4.0495
    -4.0024  -4.0019  -3.9750  -3.9718  -3.9524  -3.9321  -3.9312  -3.8561
    -3.8543  -3.8367  -3.8363  -3.7929  -3.7928  -3.7920  -3.7714  -3.7710
    -3.7681  -3.6936  -3.6932  -3.6328  -3.6307  -3.6144  -3.6142  -3.5526
    -3.5521  -3.5241  -3.5239  -3.4861  -3.4705  -3.4703  -3.4516  -3.4510
    -3.4484  -3.4473  -3.4425  -3.4223  -3.3608  -3.3548  -3.3546  -3.3337
    -3.3006  -3.2723  -3.2716  -3.2170  -3.2160  -3.1914  -3.1906  -3.1639
    -3.1373  -3.1003  -3.0998  -3.0637  -3.0630  -3.0258  -3.0216  -3.0214
    -2.9813  -2.9492  -2.9482  -2.9264  -2.9263  -2.9228  -2.9217  -2.9193
    -2.9191  -2.9119  -2.8574  -2.7995  -2.7983  -2.7972  -2.7967  -2.7932
    -2.7707  -2.7705  -2.7541  -2.6778  -2.6765  -2.6755  -2.6682  -2.6204
    -2.6155  -2.6140  -2.5935  -2.5931  -2.5766  -2.5421  -2.5241  -2.5235
    -2.5197  -2.4800  -2.4791  -2.4790  -2.4372  -2.4366  -2.3847  -2.3585
    -2.3582  -2.3552  -2.3550  -2.3326  -2.3321  -2.3274  -2.3198  -2.3190
    -2.2851  -2.2536  -2.2481  -2.2422  -2.2415  -2.2393  -2.2379  -2.2375
    -2.2373  -2.2178  -2.2044  -2.2034  -2.2022  -2.1995  -2.1993  -2.1876
    -2.1826  -2.1819  -2.1556  -2.1520  -2.1518  -2.1293  -2.1268  -2.1098
    -2.1096  -2.0834  -2.0829  -2.0827  -2.0818  -2.0746  -2.0743  -2.0740
    -2.0736  -2.0597  -2.0592  -2.0439  -2.0388  -2.0383  -1.9579  -1.9561
    -1.9428  -1.9412  -1.9231  -1.9227  -1.9019  -1.8894  -1.8890  -1.8698
    -1.8518  -1.8513  -1.8421  -1.8413  -1.8151  -1.8150  -1.8115  -1.8109
    -1.8051  -1.7943  -1.7646  -1.7365  -1.7171  -1.7162  -1.6948  -1.6912
    -1.6905  -1.6320  -1.6303  -1.6183  -1.6179  -1.5487  -1.5476  -1.5084
    -1.4895  -1.4891  -1.4560  -1.4554  -1.4284  -1.4283  -1.4085  -1.4083
    -1.4065  -1.4061  -1.3911  -1.3488  -1.3482  -1.3481  -1.3477  -1.3403
    -1.3401  -1.3120  -1.3092  -1.3087  -1.2743  -1.2633  -1.2627  -1.2579
    -1.2573  -1.2505  -1.2341  -1.2071  -1.2063  -1.2006  -1.2001  -1.1819
    -1.1813  -1.1350  -1.1222  -1.1215  -1.1211  -1.0973  -1.0969  -1.0529
    -1.0174  -0.9668  -0.9665  -0.9664  -0.9661  -0.9598  -0.9585  -0.9582
    -0.9451  -0.9445  -0.8946  -0.8943  -0.8777  -0.8775  -0.8608  -0.8492
    -0.8485  -0.8356  -0.8335  -0.8330  -0.8319  -0.8314  -0.7887  -0.7881
    -0.7753  -0.7748  -0.7743  -0.7598  -0.7594  -0.7291  -0.7192  -0.7189
    -0.6913  -0.6714  -0.6707  -0.6297  -0.6262  -0.6143  -0.6135  -0.6051
    -0.6045  -0.5976  -0.5972  -0.5932  -0.5930  -0.5640  -0.5633  -0.5538
    -0.5535  -0.5422  -0.5355  -0.5284  -0.5280  -0.5112  -0.5108  -0.4862
    -0.4770  -0.4768  -0.4636  -0.4120  -0.4103  -0.4101  -0.4058  -0.3987
    -0.3977  -0.3974  -0.3767  -0.3763  -0.3637  -0.3635  -0.3613  -0.3612
    -0.3194  -0.3174  -0.3170  -0.3100  -0.3097  -0.3020  -0.3019  -0.2982
    -0.2881  -0.2818  -0.2815  -0.2494  -0.2491  -0.2411  -0.2273  -0.2272
    -0.1739  -0.1736  -0.1455  -0.1453  -0.1366  -0.1363  -0.1032  -0.0930
    -0.0927  -0.0744  -0.0741  -0.0740   0.0056   0.0063   0.1173   0.5184
     0.5190   0.5444   0.5446   0.6069   0.6076   0.9574   0.9579   0.9705
     0.9715   1.1418   1.2083   1.2994   1.2999   1.5596   1.5610   2.1433
     2.1446   2.2744   2.2755   2.4847   2.4855   2.5546   2.5560   2.6435
     2.9219   2.9335   3.1001   3.3159   3.3163   3.3485   3.3504   3.4142
     3.5124   3.6812   3.6835   3.7209   3.9627   3.9636   4.0367   4.0383
     4.2817   4.2827   4.3124   4.5026   4.5041   4.5645   4.6486   4.9399
     4.9769   4.9774   5.1682   5.2577   5.2584   5.3811   5.3823   5.6342
     5.9877   6.0528   6.0533   6.1291   6.1298   6.1796   6.2051   6.2713
     6.2830   6.2841   6.2928   6.3536   6.3546   6.3624   6.3653   6.4063
     6.4251   6.5847   6.7832   6.8461   6.9385   7.0044   7.0052   7.1017
     7.1992   7.2530   7.2655

          k =-0.2500 0.1443 0.1111 (136898 PWs)   bands (ev):

   -18.5686  -6.5112  -6.3817  -5.7166  -5.4279  -5.3626  -5.3626  -4.8058
    -4.8057  -4.6927  -4.6563  -4.5060  -4.4352  -4.4031  -4.4030  -4.3564
    -4.2859  -4.2859  -4.1488  -4.1064  -4.1064  -4.0851  -4.0845  -4.0837
    -3.9630  -3.9629  -3.8837  -3.8725  -3.8708  -3.8708  -3.8503  -3.8503
    -3.7844  -3.7286  -3.7286  -3.7161  -3.7057  -3.7057  -3.6943  -3.6942
    -3.6861  -3.6388  -3.6387  -3.6293  -3.6293  -3.6171  -3.6171  -3.5854
    -3.5820  -3.5820  -3.5456  -3.5456  -3.5274  -3.5274  -3.5076  -3.4657
    -3.4656  -3.4043  -3.4043  -3.3819  -3.3819  -3.3654  -3.2921  -3.2921
    -3.2832  -3.2831  -3.2661  -3.2661  -3.2426  -3.2426  -3.0911  -3.0911
    -3.0728  -3.0728  -3.0681  -3.0296  -3.0295  -3.0246  -3.0246  -2.9686
    -2.9686  -2.9495  -2.9495  -2.9113  -2.8873  -2.8873  -2.8650  -2.8571
    -2.8571  -2.8122  -2.8122  -2.7929  -2.7929  -2.7881  -2.7880  -2.7625
    -2.7625  -2.7178  -2.7178  -2.7116  -2.7116  -2.6970  -2.6478  -2.6478
    -2.6243  -2.6161  -2.6161  -2.5766  -2.5365  -2.5365  -2.5062  -2.5062
    -2.4993  -2.4904  -2.4687  -2.4411  -2.4411  -2.4238  -2.4206  -2.4163
    -2.4163  -2.4034  -2.3945  -2.3945  -2.3858  -2.3858  -2.3777  -2.3777
    -2.3262  -2.3003  -2.2811  -2.2769  -2.2768  -2.2606  -2.2606  -2.2576
    -2.2576  -2.2467  -2.2165  -2.2165  -2.2049  -2.1990  -2.1860  -2.1860
    -2.1837  -2.1578  -2.1578  -2.1475  -2.1394  -2.1394  -2.0826  -2.0714
    -2.0593  -2.0592  -2.0576  -2.0377  -2.0376  -2.0245  -2.0038  -2.0038
    -1.9988  -1.9987  -1.9869  -1.9752  -1.9752  -1.9621  -1.9456  -1.9454
    -1.8983  -1.8982  -1.8885  -1.8883  -1.8883  -1.8853  -1.8756  -1.8754
    -1.8725  -1.8725  -1.8597  -1.8544  -1.8544  -1.7398  -1.7397  -1.7106
    -1.7105  -1.7098  -1.6874  -1.6828  -1.6828  -1.6729  -1.6728  -1.6526
    -1.6525  -1.6517  -1.6454  -1.6452  -1.6092  -1.6091  -1.6080  -1.5783
    -1.5782  -1.5724  -1.5724  -1.5583  -1.5582  -1.5011  -1.4984  -1.4745
    -1.4745  -1.4658  -1.4598  -1.4374  -1.4374  -1.4320  -1.4319  -1.4285
    -1.4284  -1.4160  -1.4160  -1.3967  -1.3590  -1.3589  -1.3276  -1.3276
    -1.3175  -1.2803  -1.2802  -1.2466  -1.2465  -1.2362  -1.2358  -1.2219
    -1.2046  -1.2041  -1.1847  -1.1846  -1.1539  -1.1539  -1.1347  -1.1346
    -1.1009  -1.1009  -1.0892  -1.0347  -1.0346  -1.0304  -1.0303  -1.0105
    -1.0105  -0.9937  -0.9937  -0.9631  -0.9517  -0.9314  -0.9293  -0.9293
    -0.8981  -0.8781  -0.8778  -0.8777  -0.8677  -0.8676  -0.8625  -0.8625
    -0.8322  -0.8246  -0.8246  -0.8116  -0.8113  -0.8052  -0.8051  -0.7860
    -0.7693  -0.7691  -0.7404  -0.7403  -0.6576  -0.6397  -0.6393  -0.6391
    -0.6371  -0.6320  -0.6320  -0.6231  -0.6010  -0.5798  -0.5797  -0.5743
    -0.5743  -0.5561  -0.5409  -0.5408  -0.5367  -0.5355  -0.5214  -0.4414
    -0.4414  -0.4130  -0.4128  -0.4032  -0.4031  -0.3958  -0.3947  -0.3947
    -0.3882  -0.3882  -0.3712  -0.3384  -0.3260  -0.3065  -0.3065  -0.2976
    -0.2976  -0.2900  -0.2900  -0.2819  -0.2791  -0.2791  -0.2610  -0.2584
    -0.2583  -0.2266  -0.2265  -0.2257  -0.2085  -0.2085  -0.1857  -0.1596
    -0.1596  -0.1496  -0.1496  -0.0816  -0.0815  -0.0632  -0.0632  -0.0017
     0.0014   0.0024   0.0024   0.0305   0.2373   0.2377   0.5808   0.5808
     0.6562   0.6566   0.8069   0.8361   0.8572   0.9928   0.9929   1.3710
     1.4384   1.4384   1.6728   1.6728   1.7279   2.0389   2.0394   2.0720
     2.0721   2.1108   2.1111   2.2658   2.2658   2.4405   2.4406   2.4524
     2.5963   2.5968   2.6433   2.8531   3.2202   3.2203   3.2619   3.2620
     3.2694   3.2695   3.5965   3.5965   3.9318   3.9322   4.0041   4.2653
     4.3952   4.3955   4.5944   4.5954   4.6847   4.6847   4.7634   4.9248
     4.9249   5.0183   5.0184   5.3101   5.3725   5.3727   5.5637   5.5667
     5.5953   5.7125   5.7126   5.7161   5.7162   5.8623   5.8624   5.9249
     6.0752   6.4491   6.4874   6.5421   6.5422   6.5476   6.5479   6.5929
     6.7619   6.7622   6.7804   6.8159   6.8682   7.0729   7.1135   7.1143
     7.1358   7.2941   7.3668

          k =-0.2500-0.1443-0.1111 (136898 PWs)   bands (ev):

   -18.5686  -6.5112  -6.3817  -5.7166  -5.4279  -5.3626  -5.3626  -4.8057
    -4.8057  -4.6926  -4.6564  -4.5060  -4.4352  -4.4031  -4.4031  -4.3565
    -4.2860  -4.2857  -4.1487  -4.1065  -4.1062  -4.0851  -4.0845  -4.0836
    -3.9629  -3.9629  -3.8837  -3.8725  -3.8708  -3.8708  -3.8505  -3.8500
    -3.7844  -3.7288  -3.7285  -3.7160  -3.7059  -3.7056  -3.6943  -3.6943
    -3.6860  -3.6388  -3.6387  -3.6293  -3.6292  -3.6173  -3.6170  -3.5853
    -3.5819  -3.5819  -3.5458  -3.5455  -3.5274  -3.5273  -3.5078  -3.4657
    -3.4655  -3.4044  -3.4042  -3.3818  -3.3817  -3.3653  -3.2923  -3.2922
    -3.2831  -3.2830  -3.2664  -3.2660  -3.2428  -3.2426  -3.0912  -3.0911
    -3.0729  -3.0728  -3.0681  -3.0296  -3.0295  -3.0247  -3.0244  -2.9687
    -2.9686  -2.9496  -2.9495  -2.9112  -2.8874  -2.8871  -2.8651  -2.8572
    -2.8572  -2.8123  -2.8122  -2.7930  -2.7929  -2.7881  -2.7880  -2.7624
    -2.7623  -2.7179  -2.7176  -2.7116  -2.7115  -2.6969  -2.6479  -2.6478
    -2.6245  -2.6162  -2.6160  -2.5766  -2.5365  -2.5362  -2.5061  -2.5060
    -2.4994  -2.4903  -2.4688  -2.4413  -2.4409  -2.4237  -2.4206  -2.4164
    -2.4162  -2.4036  -2.3945  -2.3944  -2.3858  -2.3858  -2.3780  -2.3779
    -2.3263  -2.3002  -2.2810  -2.2770  -2.2768  -2.2608  -2.2607  -2.2576
    -2.2576  -2.2469  -2.2165  -2.2163  -2.2050  -2.1991  -2.1861  -2.1858
    -2.1835  -2.1577  -2.1576  -2.1478  -2.1396  -2.1392  -2.0828  -2.0715
    -2.0594  -2.0593  -2.0575  -2.0378  -2.0372  -2.0246  -2.0037  -2.0036
    -1.9986  -1.9986  -1.9868  -1.9752  -1.9752  -1.9621  -1.9455  -1.9455
    -1.8983  -1.8981  -1.8885  -1.8883  -1.8883  -1.8849  -1.8756  -1.8755
    -1.8730  -1.8722  -1.8597  -1.8545  -1.8545  -1.7398  -1.7397  -1.7105
    -1.7104  -1.7099  -1.6868  -1.6835  -1.6830  -1.6729  -1.6727  -1.6524
    -1.6523  -1.6518  -1.6452  -1.6452  -1.6091  -1.6088  -1.6080  -1.5785
    -1.5785  -1.5729  -1.5721  -1.5583  -1.5582  -1.5011  -1.4982  -1.4745
    -1.4744  -1.4656  -1.4598  -1.4375  -1.4375  -1.4321  -1.4319  -1.4288
    -1.4281  -1.4158  -1.4158  -1.3967  -1.3592  -1.3590  -1.3279  -1.3274
    -1.3179  -1.2802  -1.2801  -1.2465  -1.2463  -1.2363  -1.2357  -1.2219
    -1.2046  -1.2041  -1.1846  -1.1845  -1.1539  -1.1537  -1.1348  -1.1347
    -1.1009  -1.1009  -1.0892  -1.0347  -1.0347  -1.0306  -1.0305  -1.0107
    -1.0105  -0.9935  -0.9934  -0.9626  -0.9515  -0.9315  -0.9295  -0.9291
    -0.8978  -0.8785  -0.8778  -0.8776  -0.8679  -0.8678  -0.8626  -0.8626
    -0.8321  -0.8247  -0.8245  -0.8116  -0.8113  -0.8055  -0.8049  -0.7861
    -0.7695  -0.7694  -0.7403  -0.7402  -0.6574  -0.6399  -0.6393  -0.6390
    -0.6368  -0.6323  -0.6320  -0.6228  -0.6011  -0.5799  -0.5797  -0.5744
    -0.5743  -0.5563  -0.5407  -0.5407  -0.5369  -0.5355  -0.5215  -0.4415
    -0.4413  -0.4129  -0.4128  -0.4032  -0.4031  -0.3959  -0.3947  -0.3946
    -0.3883  -0.3880  -0.3712  -0.3386  -0.3259  -0.3066  -0.3065  -0.2977
    -0.2976  -0.2901  -0.2899  -0.2819  -0.2791  -0.2791  -0.2609  -0.2585
    -0.2584  -0.2265  -0.2263  -0.2256  -0.2085  -0.2084  -0.1858  -0.1596
    -0.1596  -0.1496  -0.1495  -0.0817  -0.0816  -0.0635  -0.0629  -0.0017
     0.0012   0.0023   0.0025   0.0305   0.2375   0.2377   0.5808   0.5808
     0.6564   0.6566   0.8069   0.8358   0.8573   0.9928   0.9929   1.3712
     1.4383   1.4386   1.6728   1.6729   1.7279   2.0390   2.0392   2.0719
     2.0721   2.1108   2.1110   2.2655   2.2658   2.4406   2.4406   2.4524
     2.5964   2.5967   2.6431   2.8531   3.2201   3.2205   3.2619   3.2623
     3.2694   3.2695   3.5963   3.5968   3.9319   3.9321   4.0041   4.2653
     4.3950   4.3952   4.5948   4.5950   4.6844   4.6851   4.7634   4.9246
     4.9250   5.0185   5.0188   5.3101   5.3725   5.3727   5.5632   5.5671
     5.6006   5.7122   5.7124   5.7160   5.7162   5.8623   5.8628   5.9246
     6.0742   6.4486   6.4626   6.5421   6.5424   6.5478   6.5480   6.5879
     6.7536   6.7619   6.7622   6.8339   6.8596   7.0833   7.1139   7.1143
     7.2476   7.2813   7.3625

          k = 0.2500 0.1443-0.1111 (136898 PWs)   bands (ev):

   -18.5686  -6.5112  -6.3817  -5.7166  -5.4279  -5.3626  -5.3626  -4.8057
    -4.8057  -4.6926  -4.6564  -4.5060  -4.4352  -4.4031  -4.4031  -4.3565
    -4.2860  -4.2857  -4.1487  -4.1065  -4.1062  -4.0851  -4.0845  -4.0836
    -3.9629  -3.9629  -3.8837  -3.8725  -3.8708  -3.8708  -3.8505  -3.8500
    -3.7844  -3.7288  -3.7285  -3.7160  -3.7059  -3.7056  -3.6943  -3.6943
    -3.6860  -3.6388  -3.6388  -3.6293  -3.6292  -3.6173  -3.6170  -3.5853
    -3.5819  -3.5819  -3.5458  -3.5455  -3.5274  -3.5273  -3.5078  -3.4657
    -3.4655  -3.4044  -3.4042  -3.3818  -3.3817  -3.3653  -3.2923  -3.2922
    -3.2831  -3.2830  -3.2664  -3.2660  -3.2428  -3.2426  -3.0912  -3.0911
    -3.0729  -3.0728  -3.0681  -3.0296  -3.0295  -3.0247  -3.0244  -2.9687
    -2.9686  -2.9496  -2.9495  -2.9112  -2.8874  -2.8871  -2.8650  -2.8572
    -2.8572  -2.8123  -2.8122  -2.7930  -2.7929  -2.7881  -2.7880  -2.7624
    -2.7623  -2.7179  -2.7176  -2.7116  -2.7115  -2.6969  -2.6479  -2.6478
    -2.6245  -2.6162  -2.6160  -2.5766  -2.5365  -2.5362  -2.5061  -2.5060
    -2.4994  -2.4903  -2.4688  -2.4413  -2.4409  -2.4237  -2.4206  -2.4164
    -2.4162  -2.4036  -2.3945  -2.3944  -2.3858  -2.3858  -2.3780  -2.3779
    -2.3263  -2.3002  -2.2810  -2.2770  -2.2768  -2.2608  -2.2607  -2.2576
    -2.2576  -2.2469  -2.2165  -2.2163  -2.2050  -2.1991  -2.1861  -2.1858
    -2.1835  -2.1577  -2.1576  -2.1478  -2.1396  -2.1392  -2.0828  -2.0715
    -2.0594  -2.0593  -2.0575  -2.0378  -2.0372  -2.0246  -2.0037  -2.0036
    -1.9986  -1.9985  -1.9868  -1.9752  -1.9752  -1.9621  -1.9455  -1.9455
    -1.8983  -1.8981  -1.8885  -1.8883  -1.8883  -1.8849  -1.8756  -1.8755
    -1.8730  -1.8722  -1.8597  -1.8545  -1.8545  -1.7398  -1.7397  -1.7105
    -1.7104  -1.7099  -1.6868  -1.6835  -1.6830  -1.6729  -1.6727  -1.6524
    -1.6523  -1.6518  -1.6452  -1.6452  -1.6091  -1.6088  -1.6080  -1.5785
    -1.5785  -1.5729  -1.5721  -1.5583  -1.5582  -1.5011  -1.4982  -1.4745
    -1.4744  -1.4656  -1.4598  -1.4375  -1.4375  -1.4321  -1.4319  -1.4288
    -1.4281  -1.4158  -1.4158  -1.3968  -1.3592  -1.3590  -1.3279  -1.3274
    -1.3179  -1.2802  -1.2801  -1.2465  -1.2463  -1.2363  -1.2357  -1.2219
    -1.2046  -1.2041  -1.1846  -1.1845  -1.1539  -1.1537  -1.1348  -1.1347
    -1.1009  -1.1009  -1.0892  -1.0347  -1.0347  -1.0306  -1.0305  -1.0107
    -1.0105  -0.9935  -0.9934  -0.9626  -0.9515  -0.9315  -0.9295  -0.9291
    -0.8978  -0.8785  -0.8778  -0.8776  -0.8679  -0.8678  -0.8626  -0.8626
    -0.8321  -0.8247  -0.8245  -0.8116  -0.8113  -0.8055  -0.8049  -0.7861
    -0.7695  -0.7694  -0.7403  -0.7402  -0.6574  -0.6398  -0.6393  -0.6390
    -0.6368  -0.6323  -0.6320  -0.6228  -0.6011  -0.5799  -0.5797  -0.5744
    -0.5743  -0.5563  -0.5407  -0.5407  -0.5369  -0.5355  -0.5215  -0.4415
    -0.4413  -0.4129  -0.4128  -0.4032  -0.4031  -0.3959  -0.3947  -0.3946
    -0.3883  -0.3880  -0.3712  -0.3386  -0.3259  -0.3066  -0.3065  -0.2977
    -0.2976  -0.2901  -0.2899  -0.2819  -0.2791  -0.2791  -0.2609  -0.2585
    -0.2584  -0.2265  -0.2263  -0.2256  -0.2085  -0.2084  -0.1858  -0.1596
    -0.1596  -0.1496  -0.1495  -0.0817  -0.0816  -0.0635  -0.0629  -0.0017
     0.0012   0.0023   0.0025   0.0305   0.2375   0.2377   0.5808   0.5808
     0.6564   0.6566   0.8069   0.8358   0.8573   0.9928   0.9929   1.3712
     1.4383   1.4386   1.6728   1.6729   1.7279   2.0390   2.0392   2.0719
     2.0721   2.1108   2.1110   2.2655   2.2658   2.4406   2.4406   2.4524
     2.5964   2.5967   2.6431   2.8531   3.2201   3.2205   3.2619   3.2623
     3.2694   3.2695   3.5963   3.5968   3.9319   3.9321   4.0041   4.2653
     4.3950   4.3952   4.5948   4.5950   4.6844   4.6851   4.7634   4.9246
     4.9250   5.0185   5.0188   5.3101   5.3725   5.3727   5.5631   5.5671
     5.6007   5.7122   5.7124   5.7160   5.7162   5.8623   5.8628   5.9247
     6.0741   6.4486   6.4659   6.5421   6.5424   6.5478   6.5480   6.5869
     6.7472   6.7619   6.7622   6.8323   6.8580   7.0844   7.1139   7.1143
     7.2588   7.2919   7.3765

          k = 0.0000-0.2887 0.1111 (136898 PWs)   bands (ev):

   -18.5686  -6.5112  -6.3817  -5.7166  -5.4279  -5.3626  -5.3626  -4.8057
    -4.8057  -4.6926  -4.6564  -4.5060  -4.4352  -4.4031  -4.4031  -4.3565
    -4.2859  -4.2857  -4.1487  -4.1064  -4.1064  -4.0850  -4.0845  -4.0837
    -3.9629  -3.9629  -3.8837  -3.8725  -3.8709  -3.8708  -3.8504  -3.8502
    -3.7844  -3.7287  -3.7285  -3.7160  -3.7059  -3.7056  -3.6943  -3.6943
    -3.6861  -3.6388  -3.6387  -3.6293  -3.6292  -3.6172  -3.6170  -3.5853
    -3.5820  -3.5819  -3.5458  -3.5455  -3.5274  -3.5273  -3.5078  -3.4657
    -3.4656  -3.4044  -3.4042  -3.3819  -3.3817  -3.3653  -3.2923  -3.2921
    -3.2831  -3.2830  -3.2663  -3.2661  -3.2427  -3.2426  -3.0912  -3.0911
    -3.0730  -3.0727  -3.0681  -3.0296  -3.0296  -3.0247  -3.0243  -2.9687
    -2.9686  -2.9496  -2.9495  -2.9112  -2.8875  -2.8870  -2.8651  -2.8572
    -2.8571  -2.8123  -2.8122  -2.7930  -2.7928  -2.7881  -2.7881  -2.7624
    -2.7623  -2.7179  -2.7176  -2.7116  -2.7115  -2.6969  -2.6479  -2.6478
    -2.6245  -2.6162  -2.6160  -2.5766  -2.5367  -2.5361  -2.5061  -2.5060
    -2.4993  -2.4903  -2.4688  -2.4411  -2.4410  -2.4237  -2.4206  -2.4164
    -2.4162  -2.4036  -2.3945  -2.3944  -2.3858  -2.3858  -2.3780  -2.3778
    -2.3263  -2.3002  -2.2810  -2.2770  -2.2769  -2.2608  -2.2606  -2.2576
    -2.2576  -2.2468  -2.2167  -2.2162  -2.2050  -2.1991  -2.1861  -2.1858
    -2.1836  -2.1577  -2.1576  -2.1478  -2.1397  -2.1393  -2.0828  -2.0715
    -2.0594  -2.0592  -2.0575  -2.0378  -2.0373  -2.0246  -2.0037  -2.0036
    -1.9987  -1.9986  -1.9868  -1.9752  -1.9752  -1.9621  -1.9455  -1.9454
    -1.8983  -1.8981  -1.8885  -1.8883  -1.8883  -1.8850  -1.8756  -1.8755
    -1.8728  -1.8724  -1.8597  -1.8545  -1.8545  -1.7398  -1.7397  -1.7105
    -1.7104  -1.7098  -1.6869  -1.6835  -1.6830  -1.6729  -1.6727  -1.6524
    -1.6524  -1.6518  -1.6452  -1.6451  -1.6091  -1.6088  -1.6080  -1.5785
    -1.5784  -1.5728  -1.5722  -1.5583  -1.5582  -1.5011  -1.4982  -1.4746
    -1.4744  -1.4656  -1.4598  -1.4375  -1.4375  -1.4321  -1.4319  -1.4288
    -1.4281  -1.4158  -1.4158  -1.3967  -1.3592  -1.3590  -1.3278  -1.3275
    -1.3179  -1.2802  -1.2801  -1.2466  -1.2463  -1.2363  -1.2357  -1.2219
    -1.2046  -1.2041  -1.1846  -1.1845  -1.1539  -1.1537  -1.1348  -1.1346
    -1.1009  -1.1009  -1.0892  -1.0347  -1.0346  -1.0306  -1.0305  -1.0109
    -1.0102  -0.9935  -0.9935  -0.9627  -0.9515  -0.9315  -0.9295  -0.9291
    -0.8978  -0.8784  -0.8778  -0.8777  -0.8679  -0.8678  -0.8626  -0.8625
    -0.8321  -0.8247  -0.8244  -0.8116  -0.8113  -0.8053  -0.8050  -0.7860
    -0.7695  -0.7693  -0.7403  -0.7402  -0.6575  -0.6398  -0.6393  -0.6391
    -0.6368  -0.6323  -0.6320  -0.6229  -0.6010  -0.5799  -0.5796  -0.5744
    -0.5743  -0.5563  -0.5408  -0.5407  -0.5368  -0.5355  -0.5215  -0.4415
    -0.4413  -0.4129  -0.4128  -0.4032  -0.4031  -0.3958  -0.3947  -0.3947
    -0.3884  -0.3880  -0.3712  -0.3386  -0.3259  -0.3066  -0.3065  -0.2977
    -0.2976  -0.2901  -0.2899  -0.2819  -0.2791  -0.2791  -0.2609  -0.2585
    -0.2583  -0.2265  -0.2264  -0.2256  -0.2085  -0.2084  -0.1858  -0.1596
    -0.1596  -0.1496  -0.1495  -0.0817  -0.0816  -0.0635  -0.0630  -0.0017
     0.0012   0.0023   0.0025   0.0305   0.2375   0.2378   0.5808   0.5808
     0.6563   0.6566   0.8069   0.8359   0.8572   0.9928   0.9929   1.3712
     1.4384   1.4385   1.6728   1.6729   1.7279   2.0389   2.0393   2.0719
     2.0722   2.1108   2.1111   2.2655   2.2658   2.4405   2.4406   2.4524
     2.5963   2.5967   2.6432   2.8531   3.2201   3.2205   3.2620   3.2621
     3.2694   3.2696   3.5965   3.5966   3.9318   3.9321   4.0041   4.2654
     4.3950   4.3953   4.5946   4.5953   4.6846   4.6849   4.7634   4.9246
     4.9250   5.0185   5.0187   5.3101   5.3725   5.3727   5.5633   5.5669
     5.5976   5.7122   5.7125   5.7160   5.7161   5.8621   5.8629   5.9248
     6.0748   6.4487   6.4792   6.5420   6.5424   6.5478   6.5481   6.5906
     6.7619   6.7622   6.7646   6.8248   6.8647   7.0794   7.1137   7.1146
     7.1667   7.2993   7.3666

          k = 0.0000 0.2887 0.1111 (136898 PWs)   bands (ev):

   -18.5686  -6.5112  -6.3817  -5.7166  -5.4279  -5.3626  -5.3626  -4.8057
    -4.8057  -4.6926  -4.6564  -4.5060  -4.4352  -4.4031  -4.4031  -4.3565
    -4.2859  -4.2857  -4.1487  -4.1064  -4.1064  -4.0850  -4.0845  -4.0837
    -3.9629  -3.9629  -3.8837  -3.8725  -3.8709  -3.8708  -3.8504  -3.8502
    -3.7844  -3.7287  -3.7286  -3.7160  -3.7059  -3.7056  -3.6943  -3.6943
    -3.6861  -3.6388  -3.6387  -3.6293  -3.6292  -3.6172  -3.6170  -3.5853
    -3.5820  -3.5819  -3.5458  -3.5455  -3.5274  -3.5273  -3.5078  -3.4657
    -3.4656  -3.4044  -3.4042  -3.3819  -3.3817  -3.3653  -3.2923  -3.2921
    -3.2831  -3.2830  -3.2663  -3.2660  -3.2427  -3.2426  -3.0912  -3.0911
    -3.0730  -3.0727  -3.0681  -3.0296  -3.0296  -3.0247  -3.0243  -2.9687
    -2.9686  -2.9496  -2.9495  -2.9112  -2.8875  -2.8870  -2.8651  -2.8572
    -2.8571  -2.8123  -2.8122  -2.7930  -2.7928  -2.7881  -2.7881  -2.7624
    -2.7623  -2.7179  -2.7176  -2.7116  -2.7115  -2.6969  -2.6479  -2.6478
    -2.6245  -2.6162  -2.6160  -2.5766  -2.5367  -2.5361  -2.5061  -2.5060
    -2.4993  -2.4903  -2.4688  -2.4411  -2.4410  -2.4237  -2.4206  -2.4164
    -2.4162  -2.4036  -2.3945  -2.3944  -2.3858  -2.3858  -2.3780  -2.3778
    -2.3263  -2.3002  -2.2810  -2.2770  -2.2769  -2.2608  -2.2607  -2.2576
    -2.2576  -2.2468  -2.2167  -2.2162  -2.2050  -2.1991  -2.1861  -2.1858
    -2.1836  -2.1577  -2.1576  -2.1478  -2.1397  -2.1393  -2.0828  -2.0715
    -2.0594  -2.0592  -2.0575  -2.0378  -2.0373  -2.0246  -2.0037  -2.0036
    -1.9987  -1.9986  -1.9868  -1.9752  -1.9752  -1.9621  -1.9455  -1.9454
    -1.8983  -1.8981  -1.8885  -1.8883  -1.8883  -1.8850  -1.8756  -1.8755
    -1.8728  -1.8724  -1.8597  -1.8545  -1.8545  -1.7398  -1.7397  -1.7105
    -1.7104  -1.7098  -1.6869  -1.6835  -1.6830  -1.6729  -1.6727  -1.6524
    -1.6524  -1.6518  -1.6452  -1.6451  -1.6091  -1.6089  -1.6080  -1.5785
    -1.5784  -1.5728  -1.5722  -1.5583  -1.5582  -1.5011  -1.4982  -1.4746
    -1.4744  -1.4656  -1.4598  -1.4375  -1.4375  -1.4321  -1.4319  -1.4288
    -1.4281  -1.4158  -1.4158  -1.3967  -1.3592  -1.3590  -1.3278  -1.3275
    -1.3179  -1.2802  -1.2801  -1.2466  -1.2463  -1.2363  -1.2357  -1.2219
    -1.2046  -1.2041  -1.1846  -1.1845  -1.1539  -1.1537  -1.1348  -1.1346
    -1.1009  -1.1009  -1.0892  -1.0347  -1.0346  -1.0306  -1.0305  -1.0109
    -1.0102  -0.9935  -0.9935  -0.9627  -0.9515  -0.9315  -0.9295  -0.9291
    -0.8978  -0.8784  -0.8778  -0.8777  -0.8679  -0.8678  -0.8626  -0.8625
    -0.8321  -0.8247  -0.8244  -0.8116  -0.8113  -0.8053  -0.8050  -0.7860
    -0.7695  -0.7693  -0.7403  -0.7402  -0.6575  -0.6398  -0.6393  -0.6391
    -0.6369  -0.6323  -0.6320  -0.6229  -0.6010  -0.5799  -0.5796  -0.5744
    -0.5743  -0.5563  -0.5408  -0.5407  -0.5368  -0.5355  -0.5215  -0.4415
    -0.4413  -0.4129  -0.4128  -0.4032  -0.4031  -0.3959  -0.3947  -0.3946
    -0.3884  -0.3880  -0.3712  -0.3386  -0.3259  -0.3066  -0.3065  -0.2977
    -0.2976  -0.2901  -0.2899  -0.2819  -0.2791  -0.2791  -0.2609  -0.2585
    -0.2583  -0.2265  -0.2264  -0.2256  -0.2085  -0.2084  -0.1858  -0.1596
    -0.1596  -0.1496  -0.1495  -0.0817  -0.0816  -0.0635  -0.0630  -0.0017
     0.0012   0.0023   0.0025   0.0305   0.2375   0.2378   0.5808   0.5808
     0.6563   0.6566   0.8069   0.8359   0.8572   0.9928   0.9929   1.3712
     1.4384   1.4385   1.6728   1.6729   1.7279   2.0389   2.0393   2.0719
     2.0722   2.1108   2.1111   2.2655   2.2658   2.4405   2.4406   2.4524
     2.5963   2.5967   2.6432   2.8531   3.2201   3.2205   3.2620   3.2621
     3.2694   3.2696   3.5965   3.5966   3.9318   3.9321   4.0041   4.2654
     4.3950   4.3953   4.5946   4.5953   4.6846   4.6849   4.7634   4.9246
     4.9250   5.0185   5.0187   5.3101   5.3725   5.3727   5.5633   5.5669
     5.5976   5.7122   5.7125   5.7160   5.7161   5.8621   5.8629   5.9248
     6.0751   6.4487   6.4786   6.5420   6.5424   6.5478   6.5481   6.5906
     6.7619   6.7622   6.7641   6.8222   6.8637   7.0796   7.1136   7.1146
     7.1711   7.3061   7.3820

     the Fermi energy is     1.5617 ev

!    total energy              =   -6564.20035036 Ry
     Harris-Foulkes estimate   =   -6564.20035036 Ry
     estimated scf accuracy    <          3.8E-09 Ry

     The total energy is the sum of the following terms:

     one-electron contribution =  -47964.68948049 Ry
     hartree contribution      =   24483.36352875 Ry
     xc contribution           =   -3162.26997022 Ry
     ewald contribution        =   20079.39344229 Ry
     smearing contrib. (-TS)   =       0.00212931 Ry

     convergence has been achieved in  24 iterations

     Writing output data file 7548001.save

     init_run     :    165.08s CPU    177.41s WALL (       1 calls)
     electrons    :  10061.29s CPU  10672.06s WALL (       1 calls)

     Called by init_run:
     wfcinit      :    134.03s CPU    145.41s WALL (       1 calls)
     potinit      :      7.23s CPU      7.77s WALL (       1 calls)

     Called by electrons:
     c_bands      :   8496.72s CPU   9000.52s WALL (      25 calls)
     sum_band     :   1239.82s CPU   1339.24s WALL (      25 calls)
     v_of_rho     :     23.05s CPU     24.79s WALL (      25 calls)
     newd         :    304.40s CPU    309.60s WALL (      25 calls)
     mix_rho      :      3.96s CPU      4.28s WALL (      25 calls)

     Called by c_bands:
     init_us_2    :     21.57s CPU     22.09s WALL (     612 calls)
     cegterg      :   8307.73s CPU   8809.85s WALL (     300 calls)

     Called by *egterg:
     h_psi        :   3491.48s CPU   3948.78s WALL (    1746 calls)
     s_psi        :    434.38s CPU    437.04s WALL (    1746 calls)
     g_psi        :      5.98s CPU      6.02s WALL (    1434 calls)
     cdiaghg      :   2121.04s CPU   2126.69s WALL (    1722 calls)

     Called by h_psi:
     add_vuspsi   :    440.56s CPU    443.12s WALL (    1746 calls)

     General routines
     calbec       :    909.15s CPU    912.87s WALL (    2046 calls)
     fft          :     61.42s CPU     63.85s WALL (     400 calls)
     ffts         :      3.36s CPU      3.64s WALL (      50 calls)
     fftw         :   2106.72s CPU   2509.70s WALL (  727740 calls)
     interpolate  :      8.16s CPU      8.93s WALL (      50 calls)
     davcio       :      0.01s CPU      0.34s WALL (      12 calls)

     Parallel routines
     fft_scatter  :   1387.11s CPU   1653.56s WALL (  728190 calls)

     PWSCF        :     2h50m CPU        3h 1m WALL


   This run was terminated on:  20:22:48   8Aug2015            

=------------------------------------------------------------------------------=
   JOB DONE.
=------------------------------------------------------------------------------=
