Setting SGE environment for SCC

     Program PWSCF v.5.1.2 starts on  8Aug2015 at 22:22:36 

     This program is part of the open-source Quantum ESPRESSO suite
     for quantum simulation of materials; please cite
         "P. Giannozzi et al., J. Phys.:Condens. Matter 21 395502 (2009);
          URL http://www.quantum-espresso.org", 
     in publications or presentations arising from this work. More details at
     http://www.quantum-espresso.org/quote

     Parallel version (MPI), running on    32 processors
     R & G space division:  proc/nbgrp/npool/nimage =      32
     Reading input from top.O1.Au50.d.2.6.phi.45.psi.0.in
Warning: card &IONS ignored
Warning: card / ignored
Warning: card &CELL ignored
Warning: card / ignored

     Current dimensions of program PWSCF are:
     Max number of different atomic species (ntypx) = 10
     Max number of k-points (npk) =  40000
     Max angular momentum in pseudopotentials (lmaxx) =  3

     Subspace diagonalization in iterative solution of the eigenvalue problem:
     a serial algorithm will be used


     Parallelization info
     --------------------
     sticks:   dense  smooth     PW     G-vecs:    dense   smooth      PW
     Min         445     223     58                96775    34191    4534
     Max         446     224     59                96790    34246    4540
     Sum       14269    7147   1867              3097177  1095093  145167


     Title: 
     top.O1.Au50.d.2.6.phi.45.psi.0                                             


     bravais-lattice index     =            4
     lattice parameter (alat)  =      22.7436  a.u.
     unit-cell volume          =   22924.1508 (a.u.)^3
     number of atoms/cell      =           67
     number of atomic types    =            3
     number of electrons       =       712.00
     number of Kohn-Sham states=          427
     kinetic-energy cutoff     =      50.0000  Ry
     charge density cutoff     =     400.0000  Ry
     convergence threshold     =      1.0E-08
     mixing beta               =       0.7000
     number of iterations used =            8  plain     mixing
     Exchange-correlation      =  SLA  PW   PBE  PBE ( 1  4  3  4 0 0)

     celldm(1)=  22.743643  celldm(2)=   0.000000  celldm(3)=   2.250000
     celldm(4)=   0.000000  celldm(5)=   0.000000  celldm(6)=   0.000000

     crystal axes: (cart. coord. in units of alat)
               a(1) = (   1.000000   0.000000   0.000000 )  
               a(2) = (  -0.500000   0.866025   0.000000 )  
               a(3) = (   0.000000   0.000000   2.250000 )  

     reciprocal axes: (cart. coord. in units 2 pi/alat)
               b(1) = (  1.000000  0.577350 -0.000000 )  
               b(2) = (  0.000000  1.154701  0.000000 )  
               b(3) = (  0.000000 -0.000000  0.444444 )  


     PseudoPot. # 1 for Au read from file:
     /home/scc/andrejb/qe/pseudo/Au.pbe-nd-van.UPF
     MD5 check sum: 458681b50f36d87ef23c61b04bba420a
     Pseudo is Ultrasoft + core correction, Zval = 11.0
     Generated by new atomic code, or converted to UPF format
     Using radial grid of  985 points,  3 beta functions with: 
                l(1) =   1
                l(2) =   2
                l(3) =   2
     Q(r) pseudized with  8 coefficients,  rinner =    1.100   1.100   1.100
                                                       1.100   1.100

     PseudoPot. # 2 for H  read from file:
     /home/scc/andrejb/qe/pseudo/H.pbe-van_ak.UPF
     MD5 check sum: 403db7282739603aa925980fa9b8608d
     Pseudo is Ultrasoft, Zval =  1.0
     Generated by new atomic code, or converted to UPF format
     Using radial grid of  615 points,  1 beta functions with: 
                l(1) =   0
     Q(r) pseudized with  8 coefficients,  rinner =    0.800

     PseudoPot. # 3 for O  read from file:
     /home/scc/andrejb/qe/pseudo/O.pbe-van_ak.UPF
     MD5 check sum: 4b8c549914a63cae506c6ff22b5af4fe
     Pseudo is Ultrasoft, Zval =  6.0
     Generated by new atomic code, or converted to UPF format
     Using radial grid of  737 points,  4 beta functions with: 
                l(1) =   0
                l(2) =   0
                l(3) =   1
                l(4) =   1
     Q(r) pseudized with  8 coefficients,  rinner =    0.800   0.800   0.800


     atomic species   valence    mass     pseudopotential
        Au            11.00   196.96657     Au( 1.00)
        H              1.00     1.01000     H ( 1.00)
        O              6.00    16.00000     O ( 1.00)

     No symmetry found



   Cartesian axes

     site n.     atom                  positions (alat units)
         1           O   tau(   1) = (   0.4790780   0.3968269   0.8290259  )
         2           H   tau(   2) = (   0.4731484   0.3321400   0.8772794  )
         3           H   tau(   3) = (   0.4848144   0.4595658   0.8797866  )
         4           Au  tau(   4) = (   0.3540481   0.6132292   0.0000000  )
         5           Au  tau(   5) = (   0.4790062   0.3967954   0.0000000  )
         6           Au  tau(   6) = (   0.6039644   0.1803616   0.0000000  )
         7           Au  tau(   7) = (   0.7289225  -0.0360723   0.0000000  )
         8           Au  tau(   8) = (   0.1041318   0.6132292   0.0000000  )
         9           Au  tau(   9) = (   0.2290899   0.3967954   0.0000000  )
        10           Au  tau(  10) = (   0.3540481   0.1803616   0.0000000  )
        11           Au  tau(  11) = (   0.4790062  -0.0360723   0.0000000  )
        12           Au  tau(  12) = (  -0.1457845   0.6132292   0.0000000  )
        13           Au  tau(  13) = (  -0.0208264   0.3967954   0.0000000  )
        14           Au  tau(  14) = (   0.1041318   0.1803616   0.0000000  )
        15           Au  tau(  15) = (   0.2290899  -0.0360723   0.0000000  )
        16           Au  tau(  16) = (  -0.3957008   0.6132292   0.0000000  )
        17           Au  tau(  17) = (  -0.2707426   0.3967954   0.0000000  )
        18           Au  tau(  18) = (  -0.1457845   0.1803616   0.0000000  )
        19           Au  tau(  19) = (  -0.0208264  -0.0360723   0.0000000  )
        20           Au  tau(  20) = (   0.4790062   0.6853738   0.2040557  )
        21           Au  tau(  21) = (   0.6039644   0.4689400   0.2040557  )
        22           Au  tau(  22) = (   0.7289225   0.2525061   0.2040557  )
        23           Au  tau(  23) = (   0.8538806   0.0360723   0.2040557  )
        24           Au  tau(  24) = (   0.2290899   0.6853738   0.2040557  )
        25           Au  tau(  25) = (   0.3540481   0.4689400   0.2040557  )
        26           Au  tau(  26) = (   0.4790062   0.2525061   0.2040557  )
        27           Au  tau(  27) = (   0.6039644   0.0360723   0.2040557  )
        28           Au  tau(  28) = (  -0.0208264   0.6853738   0.2040557  )
        29           Au  tau(  29) = (   0.1041318   0.4689400   0.2040557  )
        30           Au  tau(  30) = (   0.2290899   0.2525061   0.2040557  )
        31           Au  tau(  31) = (   0.3540481   0.0360723   0.2040557  )
        32           Au  tau(  32) = (  -0.2707426   0.6853738   0.2040557  )
        33           Au  tau(  33) = (  -0.1457845   0.4689400   0.2040557  )
        34           Au  tau(  34) = (  -0.0208264   0.2525061   0.2040557  )
        35           Au  tau(  35) = (   0.1041318   0.0360723   0.2040557  )
        36           Au  tau(  36) = (   0.3541162   0.7576593   0.4066483  )
        37           Au  tau(  37) = (   0.4791000   0.5411421   0.4066695  )
        38           Au  tau(  38) = (   0.6040570   0.3246862   0.4066617  )
        39           Au  tau(  39) = (   0.7290270   0.1081684   0.4066529  )
        40           Au  tau(  40) = (   0.1041162   0.7576236   0.4066247  )
        41           Au  tau(  41) = (   0.2291001   0.5411063   0.4066455  )
        42           Au  tau(  42) = (   0.3540567   0.3246505   0.4066380  )
        43           Au  tau(  43) = (   0.4790276   0.1081324   0.4066292  )
        44           Au  tau(  44) = (  -0.1458201   0.7576104   0.4066224  )
        45           Au  tau(  45) = (  -0.0208365   0.5410930   0.4066438  )
        46           Au  tau(  46) = (   0.1041202   0.3246372   0.4066359  )
        47           Au  tau(  47) = (   0.2290908   0.1081193   0.4066273  )
        48           Au  tau(  48) = (  -0.3958167   0.7575791   0.4065812  )
        49           Au  tau(  49) = (  -0.2708328   0.5410617   0.4066025  )
        50           Au  tau(  50) = (  -0.1458763   0.3246061   0.4065947  )
        51           Au  tau(  51) = (  -0.0209056   0.1080882   0.4065858  )
        52           Au  tau(  52) = (   0.3541085   0.6133344   0.6129762  )
        53           Au  tau(  53) = (   0.4790780   0.3968269   0.6129968  )
        54           Au  tau(  54) = (   0.6040356   0.1803811   0.6129859  )
        55           Au  tau(  55) = (   0.7290165  -0.0361221   0.6129385  )
        56           Au  tau(  56) = (   0.1041243   0.6133091   0.6130022  )
        57           Au  tau(  57) = (   0.2290941   0.3968013   0.6130241  )
        58           Au  tau(  58) = (   0.3540515   0.1803552   0.6130121  )
        59           Au  tau(  59) = (   0.4790323  -0.0361475   0.6129659  )
        60           Au  tau(  60) = (  -0.1458030   0.6133014   0.6129980  )
        61           Au  tau(  61) = (  -0.0208339   0.3967936   0.6130188  )
        62           Au  tau(  62) = (   0.1041239   0.1803477   0.6130083  )
        63           Au  tau(  63) = (   0.2291046  -0.0361554   0.6129607  )
        64           Au  tau(  64) = (  -0.3957908   0.6132739   0.6129471  )
        65           Au  tau(  65) = (  -0.2708208   0.3967658   0.6129688  )
        66           Au  tau(  66) = (  -0.1458636   0.1803200   0.6129569  )
        67           Au  tau(  67) = (  -0.0208823  -0.0361826   0.6129110  )

     number of k points=    12  Marzari-Vanderbilt smearing, width (Ry)=  0.0200
                       cart. coord. in units 2pi/alat
        k(    1) = (   0.2500000   0.4330127   0.1111111), wk =   0.1666667
        k(    2) = (   0.2500000  -0.1443376   0.1111111), wk =   0.1666667
        k(    3) = (  -0.2500000  -0.4330127   0.1111111), wk =   0.1666667
        k(    4) = (  -0.2500000   0.4330127  -0.1111111), wk =   0.1666667
        k(    5) = (   0.2500000  -0.4330127  -0.1111111), wk =   0.1666667
        k(    6) = (   0.5000000   0.0000000   0.1111111), wk =   0.1666667
        k(    7) = (  -0.5000000   0.0000000   0.1111111), wk =   0.1666667
        k(    8) = (  -0.2500000   0.1443376   0.1111111), wk =   0.1666667
        k(    9) = (  -0.2500000  -0.1443376  -0.1111111), wk =   0.1666667
        k(   10) = (   0.2500000   0.1443376  -0.1111111), wk =   0.1666667
        k(   11) = (   0.0000000  -0.2886751   0.1111111), wk =   0.1666667
        k(   12) = (   0.0000000   0.2886751   0.1111111), wk =   0.1666667

     Dense  grid:  3097177 G-vectors     FFT dimensions: ( 150, 150, 360)

     Smooth grid:  1095093 G-vectors     FFT dimensions: ( 108, 108, 240)

     Largest allocated arrays     est. size (Mb)     dimensions
        Kohn-Sham Wavefunctions        28.01 Mb     (    4299,  427)
        NL pseudopotentials            55.23 Mb     (    4299,  842)
        Each V/rho on FFT grid          4.12 Mb     (  270000)
        Each G-vector array             0.74 Mb     (   96788)
        G-vector shells                 0.16 Mb     (   21404)
     Largest temporary arrays     est. size (Mb)     dimensions
        Auxiliary wavefunctions       112.04 Mb     (    4299, 1708)
        Each subspace H/S matrix       44.51 Mb     (    1708, 1708)
        Each <psi_i|beta_j> matrix      5.49 Mb     (     842,  427)
        Arrays for rho mixing          32.96 Mb     (  270000,    8)

     Initial potential from superposition of free atoms
     Check: negative starting charge=   -1.730265

     starting charge  711.25682, renormalised to  712.00000

     negative rho (up, down):  1.732E+00 0.000E+00
     Starting wfc are  582 randomized atomic wfcs

     total cpu time spent up to now is      183.8 secs

     Self-consistent Calculation

     iteration #  1     ecut=    50.00 Ry     beta=0.70
     Davidson diagonalization with overlap
     ethr =  1.00E-02,  avg # of iterations =  3.0

     Threshold (ethr) on eigenvalues was too large:
     Diagonalizing with lowered threshold

     Davidson diagonalization with overlap
     ethr =  4.37E-04,  avg # of iterations =  2.5

     negative rho (up, down):  1.714E+00 0.000E+00

     total cpu time spent up to now is      791.5 secs

     total energy              =   -6562.20635131 Ry
     Harris-Foulkes estimate   =   -6564.99258784 Ry
     estimated scf accuracy    <       3.58498843 Ry

     iteration #  2     ecut=    50.00 Ry     beta=0.70
     Davidson diagonalization with overlap
     ethr =  5.04E-04,  avg # of iterations = 11.0

     negative rho (up, down):  1.712E+00 0.000E+00

     total cpu time spent up to now is     1853.2 secs

     total energy              =   -6554.17695041 Ry
     Harris-Foulkes estimate   =   -6571.12155979 Ry
     estimated scf accuracy    <      99.51804932 Ry

     iteration #  3     ecut=    50.00 Ry     beta=0.70
     Davidson diagonalization with overlap
     ethr =  5.04E-04,  avg # of iterations =  6.0

     negative rho (up, down):  1.725E+00 0.000E+00

     total cpu time spent up to now is     2488.8 secs

     total energy              =   -6562.36654240 Ry
     Harris-Foulkes estimate   =   -6564.95429239 Ry
     estimated scf accuracy    <      11.83339801 Ry

     iteration #  4     ecut=    50.00 Ry     beta=0.70
     Davidson diagonalization with overlap
     ethr =  5.04E-04,  avg # of iterations =  7.2

     negative rho (up, down):  1.730E+00 0.000E+00

     total cpu time spent up to now is     2916.1 secs

     total energy              =   -6561.74241882 Ry
     Harris-Foulkes estimate   =   -6566.05316998 Ry
     estimated scf accuracy    <      53.63532520 Ry

     iteration #  5     ecut=    50.00 Ry     beta=0.70
     Davidson diagonalization with overlap
     ethr =  5.04E-04,  avg # of iterations =  5.5

     negative rho (up, down):  1.742E+00 0.000E+00

     total cpu time spent up to now is     3288.1 secs

     total energy              =   -6564.09242216 Ry
     Harris-Foulkes estimate   =   -6564.41572077 Ry
     estimated scf accuracy    <       1.53802880 Ry

     iteration #  6     ecut=    50.00 Ry     beta=0.70
     Davidson diagonalization with overlap
     ethr =  2.16E-04,  avg # of iterations =  3.7

     negative rho (up, down):  1.746E+00 0.000E+00

     total cpu time spent up to now is     3607.7 secs

     total energy              =   -6564.16919004 Ry
     Harris-Foulkes estimate   =   -6564.25675133 Ry
     estimated scf accuracy    <       0.28342919 Ry

     iteration #  7     ecut=    50.00 Ry     beta=0.70
     Davidson diagonalization with overlap
     ethr =  3.98E-05,  avg # of iterations =  9.9

     negative rho (up, down):  1.749E+00 0.000E+00

     total cpu time spent up to now is     4045.6 secs

     total energy              =   -6564.19666883 Ry
     Harris-Foulkes estimate   =   -6564.22672315 Ry
     estimated scf accuracy    <       0.12580084 Ry

     iteration #  8     ecut=    50.00 Ry     beta=0.70
     Davidson diagonalization with overlap
     ethr =  1.77E-05,  avg # of iterations = 10.8

     negative rho (up, down):  1.751E+00 0.000E+00

     total cpu time spent up to now is     4484.9 secs

     total energy              =   -6564.19789292 Ry
     Harris-Foulkes estimate   =   -6564.21670147 Ry
     estimated scf accuracy    <       0.06715903 Ry

     iteration #  9     ecut=    50.00 Ry     beta=0.70
     Davidson diagonalization with overlap
     ethr =  9.43E-06,  avg # of iterations =  5.8

     negative rho (up, down):  1.752E+00 0.000E+00

     total cpu time spent up to now is     4838.1 secs

     total energy              =   -6564.20087158 Ry
     Harris-Foulkes estimate   =   -6564.20758680 Ry
     estimated scf accuracy    <       0.01852890 Ry

     iteration # 10     ecut=    50.00 Ry     beta=0.70
     Davidson diagonalization with overlap
     ethr =  2.60E-06,  avg # of iterations = 11.8

     negative rho (up, down):  1.753E+00 0.000E+00

     total cpu time spent up to now is     5325.4 secs

     total energy              =   -6564.20228637 Ry
     Harris-Foulkes estimate   =   -6564.20497521 Ry
     estimated scf accuracy    <       0.00925452 Ry

     iteration # 11     ecut=    50.00 Ry     beta=0.70
     Davidson diagonalization with overlap
     ethr =  1.30E-06,  avg # of iterations =  4.1

     negative rho (up, down):  1.754E+00 0.000E+00

     total cpu time spent up to now is     5641.4 secs

     total energy              =   -6564.20310858 Ry
     Harris-Foulkes estimate   =   -6564.20387692 Ry
     estimated scf accuracy    <       0.00356381 Ry

     iteration # 12     ecut=    50.00 Ry     beta=0.70
     Davidson diagonalization with overlap
     ethr =  5.01E-07,  avg # of iterations =  2.0

     negative rho (up, down):  1.755E+00 0.000E+00

     total cpu time spent up to now is     5917.4 secs

     total energy              =   -6564.20333120 Ry
     Harris-Foulkes estimate   =   -6564.20352238 Ry
     estimated scf accuracy    <       0.00051440 Ry

     iteration # 13     ecut=    50.00 Ry     beta=0.70
     Davidson diagonalization with overlap
     ethr =  7.22E-08,  avg # of iterations =  6.1

     negative rho (up, down):  1.755E+00 0.000E+00

     total cpu time spent up to now is     6319.8 secs

     total energy              =   -6564.20333231 Ry
     Harris-Foulkes estimate   =   -6564.20347379 Ry
     estimated scf accuracy    <       0.00042702 Ry

     iteration # 14     ecut=    50.00 Ry     beta=0.70
     Davidson diagonalization with overlap
     ethr =  6.00E-08,  avg # of iterations =  2.0

     negative rho (up, down):  1.754E+00 0.000E+00

     total cpu time spent up to now is     6623.1 secs

     total energy              =   -6564.20332771 Ry
     Harris-Foulkes estimate   =   -6564.20350827 Ry
     estimated scf accuracy    <       0.00138648 Ry

     iteration # 15     ecut=    50.00 Ry     beta=0.70
     Davidson diagonalization with overlap
     ethr =  6.00E-08,  avg # of iterations =  2.0

     negative rho (up, down):  1.754E+00 0.000E+00

     total cpu time spent up to now is     6897.5 secs

     total energy              =   -6564.20341762 Ry
     Harris-Foulkes estimate   =   -6564.20342198 Ry
     estimated scf accuracy    <       0.00002017 Ry

     iteration # 16     ecut=    50.00 Ry     beta=0.70
     Davidson diagonalization with overlap
     ethr =  2.83E-09,  avg # of iterations =  2.0

     negative rho (up, down):  1.754E+00 0.000E+00

     total cpu time spent up to now is     7245.9 secs

     total energy              =   -6564.20341894 Ry
     Harris-Foulkes estimate   =   -6564.20342228 Ry
     estimated scf accuracy    <       0.00001208 Ry

     iteration # 17     ecut=    50.00 Ry     beta=0.70
     Davidson diagonalization with overlap
     ethr =  1.70E-09,  avg # of iterations =  2.0

     negative rho (up, down):  1.754E+00 0.000E+00

     total cpu time spent up to now is     7520.8 secs

     total energy              =   -6564.20342019 Ry
     Harris-Foulkes estimate   =   -6564.20342170 Ry
     estimated scf accuracy    <       0.00000659 Ry

     iteration # 18     ecut=    50.00 Ry     beta=0.70
     Davidson diagonalization with overlap
     ethr =  9.26E-10,  avg # of iterations =  2.0

     negative rho (up, down):  1.754E+00 0.000E+00

     total cpu time spent up to now is     7802.3 secs

     total energy              =   -6564.20342079 Ry
     Harris-Foulkes estimate   =   -6564.20342124 Ry
     estimated scf accuracy    <       0.00000191 Ry

     iteration # 19     ecut=    50.00 Ry     beta=0.70
     Davidson diagonalization with overlap
     ethr =  2.69E-10,  avg # of iterations =  2.0

     negative rho (up, down):  1.754E+00 0.000E+00

     total cpu time spent up to now is     8078.8 secs

     total energy              =   -6564.20342100 Ry
     Harris-Foulkes estimate   =   -6564.20342105 Ry
     estimated scf accuracy    <       0.00000014 Ry

     iteration # 20     ecut=    50.00 Ry     beta=0.70
     Davidson diagonalization with overlap
     ethr =  2.03E-11,  avg # of iterations =  2.3

     negative rho (up, down):  1.754E+00 0.000E+00

     total cpu time spent up to now is     8425.9 secs

     total energy              =   -6564.20342101 Ry
     Harris-Foulkes estimate   =   -6564.20342107 Ry
     estimated scf accuracy    <       0.00000027 Ry

     iteration # 21     ecut=    50.00 Ry     beta=0.70
     Davidson diagonalization with overlap
     ethr =  2.03E-11,  avg # of iterations =  2.0

     negative rho (up, down):  1.754E+00 0.000E+00

     total cpu time spent up to now is     8717.7 secs

     total energy              =   -6564.20342104 Ry
     Harris-Foulkes estimate   =   -6564.20342105 Ry
     estimated scf accuracy    <       0.00000005 Ry

     iteration # 22     ecut=    50.00 Ry     beta=0.70
     Davidson diagonalization with overlap
     ethr =  6.87E-12,  avg # of iterations =  2.0

     negative rho (up, down):  1.754E+00 0.000E+00

     total cpu time spent up to now is     9000.5 secs

     End of self-consistent calculation

          k = 0.2500 0.4330 0.1111 (136853 PWs)   bands (ev):

   -19.5218  -7.2907  -6.1946  -5.7957  -5.7932  -5.1256  -4.7794  -4.7696
    -4.7594  -4.7436  -4.3485  -4.3214  -4.2884  -4.2349  -4.1987  -4.1955
    -4.1754  -4.1396  -4.0371  -4.0327  -3.9904  -3.9461  -3.9457  -3.9447
    -3.9244  -3.8948  -3.8891  -3.8665  -3.8621  -3.8448  -3.8280  -3.8160
    -3.7483  -3.7461  -3.7292  -3.7256  -3.6855  -3.6850  -3.6777  -3.6636
    -3.6627  -3.6572  -3.5863  -3.5853  -3.5237  -3.5233  -3.5095  -3.5055
    -3.4465  -3.4397  -3.4161  -3.4149  -3.3779  -3.3667  -3.3651  -3.3441
    -3.3437  -3.3424  -3.3371  -3.3342  -3.3161  -3.2571  -3.2500  -3.2490
    -3.2251  -3.1926  -3.1656  -3.1611  -3.1121  -3.1105  -3.0851  -3.0842
    -3.0560  -3.0276  -2.9951  -2.9921  -2.9573  -2.9553  -2.9220  -2.9170
    -2.9153  -2.8738  -2.8447  -2.8434  -2.8218  -2.8203  -2.8157  -2.8151
    -2.8146  -2.8115  -2.8058  -2.7504  -2.6920  -2.6914  -2.6913  -2.6899
    -2.6856  -2.6654  -2.6645  -2.6437  -2.5710  -2.5695  -2.5668  -2.5625
    -2.5125  -2.5078  -2.5061  -2.4907  -2.4865  -2.4339  -2.4206  -2.4184
    -2.4147  -2.3742  -2.3732  -2.3722  -2.3321  -2.3305  -2.2790  -2.2543
    -2.2519  -2.2501  -2.2473  -2.2275  -2.2247  -2.2212  -2.2169  -2.2149
    -2.1792  -2.1467  -2.1433  -2.1359  -2.1351  -2.1343  -2.1338  -2.1334
    -2.1332  -2.1220  -2.0981  -2.0973  -2.0963  -2.0952  -2.0918  -2.0797
    -2.0783  -2.0755  -2.0496  -2.0483  -2.0457  -2.0269  -2.0244  -2.0091
    -2.0047  -1.9826  -1.9774  -1.9771  -1.9738  -1.9727  -1.9695  -1.9682
    -1.9658  -1.9528  -1.9507  -1.9380  -1.9346  -1.9294  -1.8510  -1.8507
    -1.8354  -1.8345  -1.8231  -1.8160  -1.8075  -1.7887  -1.7834  -1.7641
    -1.7588  -1.7463  -1.7414  -1.7357  -1.7195  -1.7112  -1.7081  -1.7059
    -1.6963  -1.6826  -1.6625  -1.6371  -1.6224  -1.6101  -1.6018  -1.5928
    -1.5843  -1.5326  -1.5247  -1.5239  -1.5102  -1.4954  -1.4444  -1.4436
    -1.4001  -1.3828  -1.3765  -1.3507  -1.3456  -1.3231  -1.3209  -1.3032
    -1.3025  -1.3008  -1.2965  -1.2829  -1.2458  -1.2437  -1.2420  -1.2379
    -1.2348  -1.2181  -1.2054  -1.2045  -1.1936  -1.1678  -1.1592  -1.1559
    -1.1523  -1.1488  -1.1396  -1.1274  -1.1004  -1.0999  -1.0971  -1.0911
    -1.0742  -1.0654  -1.0291  -1.0189  -1.0154  -1.0109  -0.9936  -0.9882
    -0.9470  -0.9110  -0.8631  -0.8617  -0.8598  -0.8583  -0.8551  -0.8527
    -0.8475  -0.8395  -0.8360  -0.7903  -0.7887  -0.7728  -0.7722  -0.7574
    -0.7425  -0.7414  -0.7311  -0.7280  -0.7276  -0.7256  -0.7235  -0.6852
    -0.6797  -0.6691  -0.6680  -0.6661  -0.6554  -0.6511  -0.6236  -0.6136
    -0.6095  -0.5853  -0.5667  -0.5604  -0.5258  -0.5189  -0.5093  -0.5088
    -0.5017  -0.5003  -0.4922  -0.4901  -0.4875  -0.4785  -0.4593  -0.4572
    -0.4481  -0.4447  -0.4353  -0.4225  -0.4155  -0.4047  -0.4038  -0.3783
    -0.3714  -0.3650  -0.3563  -0.3059  -0.3051  -0.3043  -0.2996  -0.2943
    -0.2914  -0.2869  -0.2718  -0.2650  -0.2584  -0.2565  -0.2554  -0.2442
    -0.2129  -0.2121  -0.2107  -0.2043  -0.2027  -0.1969  -0.1960  -0.1872
    -0.1786  -0.1760  -0.1568  -0.1436  -0.1409  -0.1350  -0.1211  -0.1182
    -0.0688  -0.0666  -0.0395  -0.0373  -0.0307  -0.0266   0.0029   0.0124
     0.0129   0.0284   0.0318   0.0667   0.1099   0.1169   0.2231   0.6248
     0.6258   0.6510   0.6515   0.7096   0.7323   1.0627   1.0632   1.0752
     1.0775   1.2481   1.3189   1.4003   1.4230   1.6558   1.6930   2.2467
     2.2569   2.3748   2.3905   2.5826   2.6090   2.6621   2.6624   2.7506
     3.0162   3.0402   3.2093   3.4149   3.4315   3.4530   3.4582   3.5188
     3.6192   3.7682   3.7776   3.8262   4.0696   4.0702   4.1379   4.1504
     4.3788   4.3991   4.4208   4.6040   4.6120   4.6717   4.7559   5.0435
     5.0772   5.0873   5.2689   5.3467   5.3644   5.3662   5.4595   5.6253
     6.0899   6.1455   6.1574   6.1668   6.2294   6.2359   6.3077   6.3574
     6.3751   6.3859   6.3898   6.3984   6.4323   6.4471   6.4534   6.4553
     6.5146   6.7474   6.8045   6.8386   7.0395   7.0514   7.0934   7.1151
     7.1300   7.2073   7.2435

          k = 0.2500-0.1443 0.1111 (136898 PWs)   bands (ev):

   -19.5218  -7.2907  -6.4045  -5.6103  -5.3283  -5.2574  -5.2556  -4.7037
    -4.6986  -4.6042  -4.5511  -4.4272  -4.3610  -4.3247  -4.2983  -4.2525
    -4.2016  -4.1783  -4.1464  -4.0408  -3.9988  -3.9983  -3.9789  -3.9771
    -3.9502  -3.8556  -3.8534  -3.7764  -3.7646  -3.7632  -3.7585  -3.7427
    -3.7394  -3.6772  -3.6215  -3.6199  -3.6090  -3.5989  -3.5949  -3.5880
    -3.5853  -3.5790  -3.5323  -3.5305  -3.5219  -3.5206  -3.5112  -3.5102
    -3.4818  -3.4750  -3.4726  -3.4432  -3.4407  -3.4230  -3.4183  -3.3971
    -3.3579  -3.3572  -3.2974  -3.2955  -3.2762  -3.2689  -3.2604  -3.1848
    -3.1843  -3.1762  -3.1717  -3.1604  -3.1547  -3.1371  -3.1368  -2.9843
    -2.9817  -2.9688  -2.9675  -2.9630  -2.9230  -2.9217  -2.9191  -2.9164
    -2.8622  -2.8605  -2.8433  -2.8424  -2.8038  -2.7829  -2.7815  -2.7598
    -2.7515  -2.7495  -2.7070  -2.7058  -2.6874  -2.6855  -2.6805  -2.6774
    -2.6568  -2.6554  -2.6123  -2.6116  -2.6056  -2.6026  -2.5883  -2.5437
    -2.5430  -2.5169  -2.5094  -2.5054  -2.4332  -2.4312  -2.4006  -2.3991
    -2.3955  -2.3821  -2.3606  -2.3357  -2.3346  -2.3184  -2.3128  -2.3118
    -2.3096  -2.3013  -2.2904  -2.2894  -2.2813  -2.2803  -2.2728  -2.2717
    -2.2179  -2.1939  -2.1732  -2.1719  -2.1712  -2.1548  -2.1542  -2.1522
    -2.1506  -2.1408  -2.1100  -2.1085  -2.0974  -2.0905  -2.0819  -2.0798
    -2.0787  -2.0540  -2.0521  -2.0434  -2.0335  -2.0304  -1.9754  -1.9640
    -1.9561  -1.9528  -1.9518  -1.9375  -1.9331  -1.9168  -1.8996  -1.8968
    -1.8959  -1.8931  -1.8833  -1.8778  -1.8719  -1.8561  -1.8529  -1.8423
    -1.8057  -1.7930  -1.7922  -1.7857  -1.7854  -1.7812  -1.7733  -1.7709
    -1.7680  -1.7664  -1.7549  -1.7516  -1.7509  -1.6843  -1.6372  -1.6297
    -1.6075  -1.6067  -1.5918  -1.5802  -1.5777  -1.5717  -1.5693  -1.5533
    -1.5468  -1.5457  -1.5446  -1.5334  -1.5143  -1.5040  -1.5014  -1.4882
    -1.4730  -1.4711  -1.4674  -1.4660  -1.4568  -1.4173  -1.3939  -1.3854
    -1.3693  -1.3641  -1.3596  -1.3554  -1.3313  -1.3303  -1.3268  -1.3255
    -1.3250  -1.3187  -1.3110  -1.3062  -1.2769  -1.2534  -1.2470  -1.2240
    -1.2200  -1.2007  -1.1756  -1.1634  -1.1417  -1.1371  -1.1289  -1.1282
    -1.1174  -1.0981  -1.0883  -1.0793  -1.0751  -1.0476  -1.0451  -1.0304
    -1.0218  -0.9967  -0.9939  -0.9824  -0.9314  -0.9302  -0.9251  -0.9241
    -0.9063  -0.9041  -0.8899  -0.8840  -0.8576  -0.8464  -0.8252  -0.8238
    -0.8211  -0.7887  -0.7740  -0.7728  -0.7696  -0.7647  -0.7565  -0.7558
    -0.7529  -0.7246  -0.7216  -0.7195  -0.7096  -0.7033  -0.6999  -0.6887
    -0.6825  -0.6668  -0.6548  -0.6369  -0.6223  -0.5535  -0.5352  -0.5347
    -0.5341  -0.5309  -0.5281  -0.5232  -0.5036  -0.4983  -0.4768  -0.4739
    -0.4712  -0.4612  -0.4531  -0.4374  -0.4342  -0.4294  -0.4170  -0.3349
    -0.3343  -0.3102  -0.3033  -0.2998  -0.2932  -0.2896  -0.2876  -0.2874
    -0.2841  -0.2756  -0.2549  -0.2271  -0.2177  -0.2013  -0.1998  -0.1928
    -0.1896  -0.1854  -0.1770  -0.1762  -0.1737  -0.1671  -0.1556  -0.1532
    -0.1441  -0.1214  -0.1199  -0.1125  -0.1013  -0.0980  -0.0785  -0.0536
    -0.0501  -0.0435  -0.0378   0.0250   0.0277   0.0418   0.0419   0.1046
     0.1052   0.1064   0.1230   0.1321   0.3367   0.3703   0.6874   0.6878
     0.7546   0.7816   0.9137   0.9395   0.9911   1.0956   1.1029   1.4767
     1.5450   1.5456   1.7789   1.7795   1.8366   2.1313   2.1559   2.1755
     2.1794   2.2088   2.2381   2.3696   2.3711   2.5457   2.5471   2.5510
     2.6904   2.7207   2.7556   2.9633   3.3220   3.3258   3.3619   3.3684
     3.3708   3.3887   3.7023   3.7035   4.0269   4.0455   4.0958   4.3722
     4.4934   4.5077   4.6663   4.6833   4.7854   4.7955   4.8683   5.0243
     5.0404   5.1220   5.1283   5.3979   5.4244   5.4710   5.4893   5.6320
     5.7126   5.8135   5.8186   5.8208   5.8295   5.9577   5.9673   6.0269
     6.2261   6.3788   6.5498   6.6025   6.6415   6.6446   6.6456   6.6644
     6.6819   6.7690   6.8590   6.8680   6.9724   7.1247   7.1725   7.1951
     7.2460   7.3183   7.3658

          k =-0.2500-0.4330 0.1111 (136853 PWs)   bands (ev):

   -19.5218  -7.2907  -6.1946  -5.7957  -5.7932  -5.1256  -4.7794  -4.7696
    -4.7594  -4.7436  -4.3485  -4.3214  -4.2884  -4.2349  -4.1987  -4.1955
    -4.1754  -4.1396  -4.0371  -4.0327  -3.9904  -3.9461  -3.9457  -3.9447
    -3.9244  -3.8948  -3.8891  -3.8665  -3.8621  -3.8448  -3.8280  -3.8160
    -3.7483  -3.7461  -3.7292  -3.7256  -3.6855  -3.6850  -3.6777  -3.6636
    -3.6626  -3.6572  -3.5863  -3.5853  -3.5237  -3.5233  -3.5095  -3.5055
    -3.4465  -3.4397  -3.4161  -3.4149  -3.3779  -3.3667  -3.3651  -3.3441
    -3.3437  -3.3424  -3.3371  -3.3342  -3.3161  -3.2571  -3.2500  -3.2490
    -3.2251  -3.1926  -3.1656  -3.1611  -3.1121  -3.1105  -3.0851  -3.0842
    -3.0560  -3.0276  -2.9951  -2.9921  -2.9573  -2.9553  -2.9220  -2.9170
    -2.9153  -2.8738  -2.8447  -2.8434  -2.8218  -2.8203  -2.8157  -2.8151
    -2.8146  -2.8115  -2.8058  -2.7504  -2.6920  -2.6914  -2.6913  -2.6899
    -2.6856  -2.6654  -2.6645  -2.6437  -2.5710  -2.5695  -2.5668  -2.5625
    -2.5125  -2.5078  -2.5061  -2.4907  -2.4865  -2.4339  -2.4206  -2.4184
    -2.4147  -2.3742  -2.3732  -2.3722  -2.3321  -2.3305  -2.2790  -2.2543
    -2.2519  -2.2502  -2.2473  -2.2275  -2.2247  -2.2212  -2.2169  -2.2149
    -2.1792  -2.1467  -2.1433  -2.1359  -2.1351  -2.1343  -2.1338  -2.1334
    -2.1332  -2.1220  -2.0981  -2.0973  -2.0963  -2.0952  -2.0918  -2.0797
    -2.0783  -2.0755  -2.0496  -2.0483  -2.0457  -2.0269  -2.0244  -2.0091
    -2.0047  -1.9826  -1.9774  -1.9771  -1.9738  -1.9727  -1.9695  -1.9682
    -1.9658  -1.9528  -1.9507  -1.9380  -1.9346  -1.9294  -1.8510  -1.8507
    -1.8354  -1.8346  -1.8231  -1.8160  -1.8075  -1.7887  -1.7834  -1.7641
    -1.7588  -1.7463  -1.7414  -1.7357  -1.7195  -1.7112  -1.7081  -1.7059
    -1.6963  -1.6826  -1.6625  -1.6371  -1.6224  -1.6101  -1.6018  -1.5928
    -1.5843  -1.5326  -1.5247  -1.5239  -1.5102  -1.4954  -1.4444  -1.4436
    -1.4001  -1.3828  -1.3765  -1.3507  -1.3456  -1.3231  -1.3209  -1.3032
    -1.3025  -1.3008  -1.2965  -1.2829  -1.2458  -1.2437  -1.2420  -1.2379
    -1.2348  -1.2181  -1.2054  -1.2045  -1.1936  -1.1678  -1.1592  -1.1559
    -1.1523  -1.1488  -1.1396  -1.1274  -1.1004  -1.0999  -1.0971  -1.0911
    -1.0742  -1.0654  -1.0291  -1.0189  -1.0154  -1.0109  -0.9936  -0.9882
    -0.9470  -0.9110  -0.8631  -0.8617  -0.8598  -0.8583  -0.8551  -0.8527
    -0.8475  -0.8395  -0.8360  -0.7903  -0.7887  -0.7728  -0.7723  -0.7574
    -0.7425  -0.7414  -0.7311  -0.7280  -0.7277  -0.7256  -0.7235  -0.6852
    -0.6797  -0.6691  -0.6680  -0.6661  -0.6554  -0.6511  -0.6236  -0.6136
    -0.6095  -0.5853  -0.5667  -0.5604  -0.5258  -0.5189  -0.5093  -0.5088
    -0.5017  -0.5003  -0.4922  -0.4901  -0.4875  -0.4785  -0.4593  -0.4572
    -0.4481  -0.4447  -0.4353  -0.4225  -0.4155  -0.4047  -0.4038  -0.3783
    -0.3714  -0.3650  -0.3563  -0.3059  -0.3051  -0.3043  -0.2996  -0.2943
    -0.2914  -0.2869  -0.2718  -0.2650  -0.2584  -0.2565  -0.2554  -0.2442
    -0.2129  -0.2121  -0.2107  -0.2043  -0.2027  -0.1969  -0.1960  -0.1872
    -0.1786  -0.1760  -0.1568  -0.1436  -0.1409  -0.1350  -0.1211  -0.1182
    -0.0688  -0.0666  -0.0395  -0.0373  -0.0307  -0.0266   0.0029   0.0124
     0.0129   0.0284   0.0318   0.0667   0.1099   0.1169   0.2231   0.6248
     0.6258   0.6510   0.6515   0.7096   0.7323   1.0627   1.0632   1.0752
     1.0775   1.2481   1.3189   1.4003   1.4230   1.6558   1.6930   2.2467
     2.2569   2.3748   2.3905   2.5826   2.6090   2.6621   2.6624   2.7506
     3.0162   3.0402   3.2093   3.4149   3.4315   3.4530   3.4582   3.5188
     3.6192   3.7682   3.7776   3.8262   4.0696   4.0702   4.1379   4.1504
     4.3788   4.3991   4.4208   4.6040   4.6120   4.6717   4.7559   5.0435
     5.0772   5.0873   5.2689   5.3467   5.3644   5.3662   5.4595   5.6253
     6.0899   6.1455   6.1574   6.1665   6.2294   6.2359   6.3077   6.3575
     6.3751   6.3860   6.3897   6.3986   6.4329   6.4467   6.4534   6.4557
     6.5141   6.7477   6.8040   6.8371   7.0368   7.0524   7.0934   7.1161
     7.1316   7.2117   7.2434

          k =-0.2500 0.4330-0.1111 (136853 PWs)   bands (ev):

   -19.5218  -7.2907  -6.1946  -5.7963  -5.7926  -5.1256  -4.7796  -4.7692
    -4.7593  -4.7440  -4.3491  -4.3206  -4.2888  -4.2345  -4.1984  -4.1956
    -4.1755  -4.1397  -4.0377  -4.0323  -3.9905  -3.9460  -3.9458  -3.9445
    -3.9245  -3.8948  -3.8891  -3.8676  -3.8613  -3.8447  -3.8284  -3.8156
    -3.7481  -3.7458  -3.7291  -3.7255  -3.6859  -3.6852  -3.6773  -3.6638
    -3.6626  -3.6571  -3.5866  -3.5851  -3.5243  -3.5227  -3.5094  -3.5056
    -3.4467  -3.4395  -3.4161  -3.4149  -3.3781  -3.3668  -3.3652  -3.3441
    -3.3436  -3.3425  -3.3372  -3.3342  -3.3160  -3.2569  -3.2502  -3.2489
    -3.2249  -3.1924  -3.1657  -3.1613  -3.1118  -3.1106  -3.0851  -3.0840
    -3.0560  -3.0278  -2.9954  -2.9922  -2.9573  -2.9549  -2.9218  -2.9173
    -2.9152  -2.8737  -2.8449  -2.8430  -2.8219  -2.8204  -2.8162  -2.8151
    -2.8144  -2.8110  -2.8059  -2.7504  -2.6927  -2.6915  -2.6911  -2.6893
    -2.6857  -2.6656  -2.6643  -2.6436  -2.5709  -2.5702  -2.5662  -2.5624
    -2.5124  -2.5084  -2.5054  -2.4903  -2.4868  -2.4340  -2.4206  -2.4183
    -2.4147  -2.3745  -2.3734  -2.3723  -2.3322  -2.3304  -2.2788  -2.2540
    -2.2519  -2.2504  -2.2478  -2.2270  -2.2249  -2.2213  -2.2170  -2.2146
    -2.1793  -2.1468  -2.1434  -2.1362  -2.1348  -2.1345  -2.1340  -2.1333
    -2.1327  -2.1237  -2.0986  -2.0966  -2.0963  -2.0956  -2.0920  -2.0796
    -2.0775  -2.0752  -2.0495  -2.0481  -2.0456  -2.0264  -2.0245  -2.0085
    -2.0047  -1.9825  -1.9783  -1.9769  -1.9735  -1.9733  -1.9691  -1.9681
    -1.9659  -1.9532  -1.9504  -1.9380  -1.9345  -1.9296  -1.8515  -1.8506
    -1.8356  -1.8344  -1.8242  -1.8152  -1.8054  -1.7885  -1.7832  -1.7643
    -1.7590  -1.7462  -1.7415  -1.7356  -1.7199  -1.7109  -1.7073  -1.7063
    -1.6962  -1.6822  -1.6625  -1.6420  -1.6234  -1.6100  -1.6023  -1.5911
    -1.5847  -1.5317  -1.5249  -1.5237  -1.5099  -1.4928  -1.4445  -1.4432
    -1.4004  -1.3830  -1.3762  -1.3504  -1.3463  -1.3232  -1.3205  -1.3036
    -1.3025  -1.3006  -1.2964  -1.2831  -1.2457  -1.2438  -1.2416  -1.2378
    -1.2350  -1.2209  -1.2054  -1.2049  -1.1934  -1.1682  -1.1592  -1.1555
    -1.1522  -1.1496  -1.1380  -1.1271  -1.1004  -1.0996  -1.0971  -1.0918
    -1.0756  -1.0647  -1.0296  -1.0189  -1.0154  -1.0112  -0.9934  -0.9870
    -0.9468  -0.9112  -0.8631  -0.8616  -0.8602  -0.8587  -0.8551  -0.8529
    -0.8474  -0.8394  -0.8361  -0.7896  -0.7889  -0.7729  -0.7717  -0.7571
    -0.7426  -0.7415  -0.7311  -0.7282  -0.7276  -0.7256  -0.7235  -0.6856
    -0.6792  -0.6688  -0.6681  -0.6663  -0.6554  -0.6508  -0.6238  -0.6137
    -0.6092  -0.5857  -0.5669  -0.5602  -0.5258  -0.5191  -0.5094  -0.5086
    -0.5016  -0.5004  -0.4923  -0.4898  -0.4872  -0.4785  -0.4595  -0.4571
    -0.4483  -0.4448  -0.4354  -0.4232  -0.4151  -0.4047  -0.4036  -0.3781
    -0.3715  -0.3651  -0.3560  -0.3059  -0.3052  -0.3041  -0.2995  -0.2942
    -0.2917  -0.2866  -0.2719  -0.2650  -0.2584  -0.2563  -0.2554  -0.2442
    -0.2130  -0.2122  -0.2105  -0.2045  -0.2025  -0.1970  -0.1958  -0.1872
    -0.1785  -0.1763  -0.1565  -0.1439  -0.1406  -0.1352  -0.1211  -0.1182
    -0.0687  -0.0666  -0.0395  -0.0371  -0.0307  -0.0266   0.0030   0.0124
     0.0128   0.0276   0.0319   0.0676   0.1098   0.1173   0.2234   0.6248
     0.6258   0.6509   0.6515   0.7089   0.7326   1.0623   1.0632   1.0748
     1.0780   1.2486   1.3191   1.3995   1.4242   1.6548   1.6934   2.2459
     2.2574   2.3739   2.3917   2.5816   2.6100   2.6619   2.6626   2.7504
     3.0165   3.0403   3.2091   3.4143   3.4311   3.4530   3.4591   3.5182
     3.6193   3.7665   3.7786   3.8264   4.0694   4.0705   4.1377   4.1517
     4.3781   4.3992   4.4206   4.6043   4.6115   4.6723   4.7556   5.0430
     5.0767   5.0876   5.2715   5.3512   5.3645   5.3675   5.4568   5.6176
     6.0901   6.1469   6.1605   6.1733   6.2292   6.2361   6.3078   6.3560
     6.3704   6.3837   6.3882   6.3973   6.4369   6.4450   6.4536   6.4569
     6.5141   6.7492   6.8043   6.8361   7.0359   7.0568   7.0859   7.1153
     7.1247   7.2149   7.2433

          k = 0.2500-0.4330-0.1111 (136853 PWs)   bands (ev):

   -19.5218  -7.2907  -6.1946  -5.7963  -5.7926  -5.1256  -4.7796  -4.7692
    -4.7593  -4.7440  -4.3491  -4.3206  -4.2888  -4.2345  -4.1984  -4.1956
    -4.1755  -4.1397  -4.0377  -4.0323  -3.9905  -3.9460  -3.9458  -3.9445
    -3.9245  -3.8948  -3.8891  -3.8676  -3.8613  -3.8447  -3.8284  -3.8156
    -3.7481  -3.7458  -3.7291  -3.7255  -3.6859  -3.6852  -3.6773  -3.6638
    -3.6626  -3.6571  -3.5866  -3.5851  -3.5243  -3.5227  -3.5094  -3.5056
    -3.4467  -3.4395  -3.4161  -3.4149  -3.3781  -3.3668  -3.3652  -3.3441
    -3.3436  -3.3425  -3.3372  -3.3342  -3.3160  -3.2569  -3.2502  -3.2489
    -3.2249  -3.1924  -3.1657  -3.1613  -3.1118  -3.1106  -3.0851  -3.0840
    -3.0560  -3.0278  -2.9954  -2.9922  -2.9573  -2.9549  -2.9218  -2.9173
    -2.9152  -2.8737  -2.8449  -2.8430  -2.8219  -2.8204  -2.8162  -2.8151
    -2.8144  -2.8110  -2.8059  -2.7504  -2.6927  -2.6915  -2.6911  -2.6893
    -2.6857  -2.6656  -2.6643  -2.6436  -2.5709  -2.5702  -2.5662  -2.5624
    -2.5124  -2.5084  -2.5054  -2.4903  -2.4868  -2.4340  -2.4206  -2.4183
    -2.4147  -2.3745  -2.3734  -2.3723  -2.3322  -2.3304  -2.2788  -2.2540
    -2.2519  -2.2504  -2.2478  -2.2270  -2.2249  -2.2213  -2.2170  -2.2146
    -2.1793  -2.1468  -2.1434  -2.1362  -2.1348  -2.1345  -2.1340  -2.1333
    -2.1327  -2.1237  -2.0986  -2.0966  -2.0963  -2.0956  -2.0920  -2.0796
    -2.0775  -2.0752  -2.0495  -2.0481  -2.0456  -2.0264  -2.0245  -2.0085
    -2.0047  -1.9825  -1.9783  -1.9769  -1.9735  -1.9733  -1.9691  -1.9681
    -1.9659  -1.9532  -1.9504  -1.9380  -1.9345  -1.9296  -1.8515  -1.8506
    -1.8356  -1.8344  -1.8242  -1.8152  -1.8054  -1.7885  -1.7832  -1.7643
    -1.7590  -1.7462  -1.7415  -1.7356  -1.7199  -1.7109  -1.7073  -1.7063
    -1.6962  -1.6822  -1.6625  -1.6420  -1.6234  -1.6100  -1.6023  -1.5911
    -1.5847  -1.5317  -1.5249  -1.5237  -1.5099  -1.4928  -1.4445  -1.4432
    -1.4004  -1.3830  -1.3762  -1.3504  -1.3463  -1.3232  -1.3205  -1.3036
    -1.3025  -1.3006  -1.2963  -1.2831  -1.2457  -1.2438  -1.2416  -1.2378
    -1.2350  -1.2209  -1.2054  -1.2049  -1.1935  -1.1682  -1.1592  -1.1555
    -1.1522  -1.1496  -1.1380  -1.1271  -1.1004  -1.0996  -1.0971  -1.0918
    -1.0756  -1.0647  -1.0296  -1.0189  -1.0154  -1.0112  -0.9934  -0.9870
    -0.9468  -0.9112  -0.8631  -0.8616  -0.8602  -0.8587  -0.8551  -0.8529
    -0.8474  -0.8394  -0.8361  -0.7896  -0.7889  -0.7729  -0.7717  -0.7571
    -0.7426  -0.7415  -0.7311  -0.7282  -0.7276  -0.7256  -0.7235  -0.6856
    -0.6792  -0.6688  -0.6681  -0.6663  -0.6554  -0.6508  -0.6238  -0.6137
    -0.6092  -0.5857  -0.5669  -0.5602  -0.5258  -0.5191  -0.5094  -0.5086
    -0.5016  -0.5004  -0.4923  -0.4898  -0.4872  -0.4785  -0.4595  -0.4571
    -0.4483  -0.4448  -0.4354  -0.4232  -0.4151  -0.4047  -0.4036  -0.3781
    -0.3715  -0.3651  -0.3560  -0.3059  -0.3052  -0.3041  -0.2995  -0.2942
    -0.2917  -0.2866  -0.2719  -0.2650  -0.2584  -0.2563  -0.2554  -0.2442
    -0.2130  -0.2122  -0.2105  -0.2045  -0.2025  -0.1970  -0.1958  -0.1872
    -0.1785  -0.1763  -0.1565  -0.1439  -0.1406  -0.1352  -0.1211  -0.1182
    -0.0687  -0.0666  -0.0395  -0.0371  -0.0307  -0.0266   0.0030   0.0124
     0.0128   0.0276   0.0319   0.0676   0.1098   0.1173   0.2234   0.6248
     0.6258   0.6509   0.6515   0.7089   0.7326   1.0623   1.0632   1.0748
     1.0780   1.2486   1.3191   1.3995   1.4242   1.6548   1.6934   2.2459
     2.2574   2.3739   2.3917   2.5816   2.6100   2.6619   2.6626   2.7504
     3.0165   3.0403   3.2091   3.4143   3.4311   3.4530   3.4591   3.5182
     3.6193   3.7665   3.7786   3.8264   4.0694   4.0705   4.1377   4.1517
     4.3781   4.3992   4.4206   4.6043   4.6115   4.6723   4.7556   5.0430
     5.0767   5.0876   5.2715   5.3512   5.3645   5.3675   5.4568   5.6176
     6.0901   6.1468   6.1605   6.1737   6.2292   6.2362   6.3077   6.3559
     6.3702   6.3836   6.3883   6.3971   6.4360   6.4459   6.4534   6.4566
     6.5145   6.7488   6.8043   6.8382   7.0388   7.0555   7.0853   7.1148
     7.1247   7.2093   7.2435

          k = 0.5000 0.0000 0.1111 (136853 PWs)   bands (ev):

   -19.5218  -7.2907  -6.1946  -5.7969  -5.7920  -5.1256  -4.7795  -4.7704
    -4.7593  -4.7429  -4.3481  -4.3217  -4.2881  -4.2350  -4.1986  -4.1953
    -4.1755  -4.1402  -4.0371  -4.0329  -3.9904  -3.9462  -3.9457  -3.9453
    -3.9235  -3.8949  -3.8889  -3.8675  -3.8610  -3.8446  -3.8285  -3.8154
    -3.7489  -3.7450  -3.7294  -3.7253  -3.6858  -3.6850  -3.6776  -3.6635
    -3.6629  -3.6575  -3.5862  -3.5855  -3.5246  -3.5224  -3.5094  -3.5057
    -3.4463  -3.4403  -3.4162  -3.4149  -3.3781  -3.3667  -3.3654  -3.3443
    -3.3438  -3.3430  -3.3361  -3.3342  -3.3159  -3.2568  -3.2502  -3.2491
    -3.2250  -3.1923  -3.1661  -3.1605  -3.1122  -3.1099  -3.0850  -3.0846
    -3.0560  -3.0279  -2.9949  -2.9926  -2.9570  -2.9551  -2.9208  -2.9180
    -2.9152  -2.8737  -2.8442  -2.8429  -2.8230  -2.8201  -2.8153  -2.8150
    -2.8145  -2.8117  -2.8062  -2.7504  -2.6921  -2.6917  -2.6911  -2.6901
    -2.6859  -2.6649  -2.6646  -2.6437  -2.5701  -2.5690  -2.5672  -2.5627
    -2.5125  -2.5078  -2.5059  -2.4880  -2.4870  -2.4342  -2.4215  -2.4184
    -2.4146  -2.3763  -2.3733  -2.3724  -2.3317  -2.3305  -2.2787  -2.2538
    -2.2522  -2.2498  -2.2478  -2.2269  -2.2244  -2.2213  -2.2158  -2.2149
    -2.1796  -2.1487  -2.1436  -2.1355  -2.1351  -2.1344  -2.1343  -2.1327
    -2.1321  -2.1303  -2.0985  -2.0975  -2.0964  -2.0955  -2.0924  -2.0798
    -2.0760  -2.0744  -2.0489  -2.0479  -2.0458  -2.0245  -2.0229  -2.0065
    -2.0046  -1.9827  -1.9780  -1.9770  -1.9749  -1.9725  -1.9698  -1.9686
    -1.9654  -1.9532  -1.9504  -1.9378  -1.9339  -1.9294  -1.8519  -1.8503
    -1.8369  -1.8339  -1.8270  -1.8147  -1.7981  -1.7847  -1.7832  -1.7663
    -1.7591  -1.7455  -1.7410  -1.7366  -1.7223  -1.7097  -1.7070  -1.7042
    -1.6973  -1.6809  -1.6630  -1.6615  -1.6239  -1.6099  -1.6025  -1.5869
    -1.5851  -1.5296  -1.5255  -1.5237  -1.5097  -1.4805  -1.4440  -1.4431
    -1.4003  -1.3843  -1.3755  -1.3501  -1.3482  -1.3233  -1.3190  -1.3036
    -1.3022  -1.3010  -1.2967  -1.2831  -1.2459  -1.2446  -1.2386  -1.2377
    -1.2347  -1.2334  -1.2059  -1.2048  -1.1928  -1.1689  -1.1591  -1.1532
    -1.1527  -1.1516  -1.1315  -1.1262  -1.1010  -1.0980  -1.0976  -1.0953
    -1.0807  -1.0642  -1.0311  -1.0185  -1.0153  -1.0106  -0.9934  -0.9829
    -0.9450  -0.9114  -0.8632  -0.8618  -0.8610  -0.8591  -0.8538  -0.8528
    -0.8468  -0.8414  -0.8361  -0.7894  -0.7881  -0.7734  -0.7690  -0.7557
    -0.7428  -0.7418  -0.7315  -0.7286  -0.7278  -0.7259  -0.7250  -0.6869
    -0.6759  -0.6692  -0.6681  -0.6673  -0.6561  -0.6500  -0.6241  -0.6144
    -0.6083  -0.5867  -0.5685  -0.5593  -0.5257  -0.5199  -0.5091  -0.5086
    -0.5028  -0.5001  -0.4931  -0.4894  -0.4861  -0.4776  -0.4594  -0.4573
    -0.4488  -0.4441  -0.4351  -0.4265  -0.4138  -0.4050  -0.4034  -0.3772
    -0.3715  -0.3649  -0.3559  -0.3059  -0.3057  -0.3031  -0.2992  -0.2936
    -0.2931  -0.2860  -0.2726  -0.2649  -0.2586  -0.2561  -0.2550  -0.2446
    -0.2134  -0.2121  -0.2103  -0.2045  -0.2022  -0.1975  -0.1952  -0.1883
    -0.1781  -0.1762  -0.1559  -0.1442  -0.1408  -0.1352  -0.1214  -0.1180
    -0.0682  -0.0666  -0.0396  -0.0367  -0.0307  -0.0267   0.0029   0.0121
     0.0130   0.0267   0.0320   0.0694   0.1090   0.1193   0.2244   0.6253
     0.6256   0.6508   0.6513   0.7054   0.7352   1.0608   1.0632   1.0735
     1.0796   1.2503   1.3197   1.3985   1.4263   1.6522   1.6940   2.2428
     2.2595   2.3712   2.3957   2.5775   2.6138   2.6616   2.6630   2.7502
     3.0174   3.0397   3.2084   3.4132   3.4299   3.4514   3.4626   3.5167
     3.6194   3.7620   3.7804   3.8261   4.0698   4.0705   4.1344   4.1584
     4.3755   4.4015   4.4201   4.6029   4.6135   4.6722   4.7554   5.0427
     5.0779   5.0860   5.2734   5.3633   5.3653   5.3885   5.4434   5.5848
     6.0907   6.1490   6.1615   6.2237   6.2290   6.2412   6.3072   6.3218
     6.3613   6.3793   6.3859   6.3964   6.4398   6.4423   6.4537   6.4644
     6.5154   6.7556   6.7931   6.8413   7.0258   7.0470   7.0801   7.1094
     7.1169   7.2416   7.2430

          k =-0.5000 0.0000 0.1111 (136853 PWs)   bands (ev):

   -19.5218  -7.2907  -6.1946  -5.7969  -5.7920  -5.1256  -4.7795  -4.7704
    -4.7593  -4.7429  -4.3481  -4.3217  -4.2881  -4.2350  -4.1986  -4.1953
    -4.1755  -4.1402  -4.0371  -4.0329  -3.9904  -3.9462  -3.9457  -3.9453
    -3.9235  -3.8949  -3.8889  -3.8675  -3.8610  -3.8446  -3.8285  -3.8154
    -3.7489  -3.7450  -3.7294  -3.7253  -3.6858  -3.6850  -3.6776  -3.6635
    -3.6629  -3.6575  -3.5862  -3.5855  -3.5246  -3.5224  -3.5094  -3.5057
    -3.4463  -3.4403  -3.4162  -3.4149  -3.3781  -3.3667  -3.3654  -3.3443
    -3.3438  -3.3430  -3.3361  -3.3342  -3.3159  -3.2568  -3.2502  -3.2491
    -3.2250  -3.1923  -3.1661  -3.1605  -3.1122  -3.1099  -3.0850  -3.0846
    -3.0560  -3.0279  -2.9949  -2.9926  -2.9570  -2.9551  -2.9208  -2.9180
    -2.9152  -2.8737  -2.8442  -2.8429  -2.8230  -2.8201  -2.8153  -2.8150
    -2.8145  -2.8117  -2.8062  -2.7504  -2.6921  -2.6917  -2.6911  -2.6901
    -2.6859  -2.6649  -2.6646  -2.6437  -2.5701  -2.5690  -2.5672  -2.5627
    -2.5125  -2.5078  -2.5059  -2.4880  -2.4870  -2.4342  -2.4215  -2.4184
    -2.4146  -2.3763  -2.3733  -2.3724  -2.3317  -2.3305  -2.2787  -2.2538
    -2.2522  -2.2498  -2.2478  -2.2269  -2.2244  -2.2213  -2.2158  -2.2149
    -2.1796  -2.1487  -2.1436  -2.1355  -2.1351  -2.1344  -2.1343  -2.1327
    -2.1321  -2.1303  -2.0985  -2.0975  -2.0964  -2.0955  -2.0924  -2.0798
    -2.0760  -2.0744  -2.0489  -2.0479  -2.0458  -2.0245  -2.0229  -2.0065
    -2.0046  -1.9827  -1.9780  -1.9770  -1.9749  -1.9725  -1.9698  -1.9686
    -1.9654  -1.9532  -1.9504  -1.9378  -1.9339  -1.9294  -1.8519  -1.8503
    -1.8369  -1.8339  -1.8270  -1.8147  -1.7981  -1.7847  -1.7832  -1.7663
    -1.7591  -1.7455  -1.7410  -1.7366  -1.7223  -1.7097  -1.7070  -1.7042
    -1.6973  -1.6809  -1.6630  -1.6615  -1.6239  -1.6099  -1.6025  -1.5869
    -1.5851  -1.5296  -1.5255  -1.5237  -1.5097  -1.4805  -1.4440  -1.4431
    -1.4003  -1.3843  -1.3755  -1.3501  -1.3482  -1.3233  -1.3190  -1.3036
    -1.3022  -1.3010  -1.2967  -1.2831  -1.2459  -1.2446  -1.2386  -1.2377
    -1.2347  -1.2334  -1.2059  -1.2048  -1.1928  -1.1689  -1.1591  -1.1532
    -1.1527  -1.1516  -1.1315  -1.1262  -1.1010  -1.0980  -1.0976  -1.0953
    -1.0807  -1.0642  -1.0311  -1.0185  -1.0153  -1.0106  -0.9934  -0.9829
    -0.9450  -0.9114  -0.8632  -0.8618  -0.8610  -0.8591  -0.8538  -0.8528
    -0.8468  -0.8414  -0.8361  -0.7894  -0.7881  -0.7734  -0.7690  -0.7557
    -0.7428  -0.7418  -0.7315  -0.7286  -0.7278  -0.7259  -0.7250  -0.6869
    -0.6759  -0.6692  -0.6681  -0.6673  -0.6561  -0.6500  -0.6241  -0.6144
    -0.6083  -0.5867  -0.5685  -0.5593  -0.5257  -0.5199  -0.5091  -0.5086
    -0.5028  -0.5001  -0.4931  -0.4894  -0.4861  -0.4776  -0.4594  -0.4573
    -0.4488  -0.4441  -0.4351  -0.4265  -0.4138  -0.4050  -0.4034  -0.3772
    -0.3715  -0.3649  -0.3559  -0.3059  -0.3057  -0.3031  -0.2992  -0.2936
    -0.2931  -0.2860  -0.2726  -0.2649  -0.2586  -0.2561  -0.2550  -0.2446
    -0.2134  -0.2121  -0.2103  -0.2045  -0.2022  -0.1975  -0.1952  -0.1883
    -0.1781  -0.1762  -0.1559  -0.1442  -0.1408  -0.1352  -0.1214  -0.1180
    -0.0682  -0.0666  -0.0396  -0.0367  -0.0307  -0.0267   0.0029   0.0121
     0.0130   0.0267   0.0320   0.0694   0.1090   0.1193   0.2244   0.6253
     0.6256   0.6508   0.6513   0.7054   0.7352   1.0608   1.0632   1.0735
     1.0796   1.2503   1.3197   1.3985   1.4263   1.6522   1.6940   2.2428
     2.2595   2.3712   2.3957   2.5775   2.6138   2.6616   2.6630   2.7502
     3.0174   3.0397   3.2084   3.4132   3.4299   3.4514   3.4626   3.5167
     3.6194   3.7620   3.7804   3.8261   4.0698   4.0705   4.1344   4.1584
     4.3755   4.4015   4.4201   4.6029   4.6135   4.6722   4.7554   5.0427
     5.0779   5.0860   5.2734   5.3633   5.3653   5.3885   5.4434   5.5848
     6.0907   6.1490   6.1615   6.2236   6.2290   6.2413   6.3071   6.3220
     6.3612   6.3793   6.3859   6.3964   6.4398   6.4422   6.4537   6.4645
     6.5154   6.7555   6.7927   6.8416   7.0265   7.0467   7.0799   7.1094
     7.1171   7.2412   7.2426

          k =-0.2500 0.1443 0.1111 (136898 PWs)   bands (ev):

   -19.5218  -7.2907  -6.4045  -5.6103  -5.3283  -5.2574  -5.2556  -4.7037
    -4.6986  -4.6042  -4.5511  -4.4272  -4.3610  -4.3247  -4.2983  -4.2525
    -4.2016  -4.1783  -4.1464  -4.0408  -3.9988  -3.9983  -3.9789  -3.9771
    -3.9502  -3.8556  -3.8534  -3.7764  -3.7646  -3.7632  -3.7585  -3.7427
    -3.7394  -3.6772  -3.6214  -3.6199  -3.6090  -3.5989  -3.5949  -3.5880
    -3.5853  -3.5790  -3.5323  -3.5305  -3.5219  -3.5206  -3.5112  -3.5102
    -3.4818  -3.4750  -3.4726  -3.4432  -3.4407  -3.4230  -3.4183  -3.3971
    -3.3579  -3.3572  -3.2974  -3.2955  -3.2762  -3.2689  -3.2604  -3.1848
    -3.1843  -3.1762  -3.1717  -3.1604  -3.1547  -3.1371  -3.1368  -2.9843
    -2.9817  -2.9688  -2.9675  -2.9630  -2.9230  -2.9217  -2.9191  -2.9164
    -2.8622  -2.8605  -2.8433  -2.8424  -2.8038  -2.7829  -2.7815  -2.7598
    -2.7515  -2.7495  -2.7070  -2.7058  -2.6874  -2.6855  -2.6805  -2.6774
    -2.6568  -2.6554  -2.6123  -2.6116  -2.6056  -2.6026  -2.5883  -2.5437
    -2.5430  -2.5169  -2.5094  -2.5054  -2.4332  -2.4312  -2.4006  -2.3991
    -2.3955  -2.3821  -2.3606  -2.3357  -2.3346  -2.3184  -2.3128  -2.3118
    -2.3096  -2.3013  -2.2904  -2.2894  -2.2813  -2.2803  -2.2728  -2.2717
    -2.2179  -2.1939  -2.1732  -2.1719  -2.1712  -2.1548  -2.1542  -2.1522
    -2.1506  -2.1408  -2.1100  -2.1085  -2.0974  -2.0906  -2.0819  -2.0798
    -2.0787  -2.0540  -2.0521  -2.0434  -2.0335  -2.0304  -1.9754  -1.9639
    -1.9561  -1.9528  -1.9518  -1.9375  -1.9331  -1.9168  -1.8996  -1.8968
    -1.8959  -1.8931  -1.8833  -1.8778  -1.8719  -1.8561  -1.8529  -1.8423
    -1.8057  -1.7930  -1.7922  -1.7857  -1.7854  -1.7812  -1.7733  -1.7709
    -1.7680  -1.7664  -1.7549  -1.7516  -1.7509  -1.6843  -1.6372  -1.6297
    -1.6075  -1.6067  -1.5918  -1.5802  -1.5777  -1.5717  -1.5693  -1.5533
    -1.5468  -1.5457  -1.5446  -1.5334  -1.5143  -1.5040  -1.5014  -1.4882
    -1.4730  -1.4711  -1.4674  -1.4660  -1.4568  -1.4173  -1.3939  -1.3854
    -1.3693  -1.3641  -1.3596  -1.3554  -1.3313  -1.3303  -1.3268  -1.3255
    -1.3250  -1.3187  -1.3110  -1.3062  -1.2769  -1.2534  -1.2470  -1.2240
    -1.2200  -1.2007  -1.1756  -1.1634  -1.1417  -1.1371  -1.1289  -1.1282
    -1.1174  -1.0981  -1.0883  -1.0793  -1.0751  -1.0476  -1.0451  -1.0304
    -1.0218  -0.9967  -0.9939  -0.9824  -0.9314  -0.9302  -0.9251  -0.9241
    -0.9063  -0.9040  -0.8899  -0.8840  -0.8576  -0.8464  -0.8252  -0.8238
    -0.8211  -0.7887  -0.7740  -0.7728  -0.7696  -0.7647  -0.7565  -0.7558
    -0.7529  -0.7246  -0.7216  -0.7195  -0.7096  -0.7033  -0.6999  -0.6887
    -0.6825  -0.6668  -0.6548  -0.6369  -0.6223  -0.5535  -0.5352  -0.5347
    -0.5341  -0.5309  -0.5281  -0.5232  -0.5036  -0.4983  -0.4768  -0.4739
    -0.4712  -0.4612  -0.4531  -0.4374  -0.4342  -0.4294  -0.4170  -0.3349
    -0.3343  -0.3102  -0.3033  -0.2998  -0.2932  -0.2896  -0.2876  -0.2874
    -0.2841  -0.2756  -0.2549  -0.2271  -0.2177  -0.2013  -0.1998  -0.1928
    -0.1896  -0.1854  -0.1771  -0.1762  -0.1737  -0.1671  -0.1556  -0.1532
    -0.1441  -0.1214  -0.1199  -0.1125  -0.1013  -0.0980  -0.0785  -0.0536
    -0.0501  -0.0435  -0.0378   0.0250   0.0277   0.0418   0.0420   0.1046
     0.1052   0.1064   0.1230   0.1321   0.3367   0.3703   0.6874   0.6878
     0.7546   0.7816   0.9137   0.9395   0.9911   1.0956   1.1029   1.4767
     1.5450   1.5456   1.7789   1.7795   1.8366   2.1313   2.1559   2.1755
     2.1794   2.2088   2.2381   2.3696   2.3711   2.5457   2.5471   2.5510
     2.6904   2.7207   2.7556   2.9633   3.3220   3.3258   3.3619   3.3684
     3.3708   3.3887   3.7023   3.7035   4.0269   4.0455   4.0958   4.3722
     4.4934   4.5077   4.6663   4.6832   4.7854   4.7955   4.8683   5.0243
     5.0404   5.1220   5.1283   5.3979   5.4244   5.4710   5.4893   5.6320
     5.7126   5.8135   5.8186   5.8208   5.8295   5.9577   5.9673   6.0269
     6.2266   6.3768   6.5498   6.6047   6.6408   6.6448   6.6455   6.6655
     6.6807   6.7699   6.8590   6.8681   6.9805   7.1246   7.1706   7.1919
     7.2440   7.3105   7.3567

          k =-0.2500-0.1443-0.1111 (136898 PWs)   bands (ev):

   -19.5218  -7.2908  -6.4045  -5.6103  -5.3283  -5.2574  -5.2556  -4.7037
    -4.6986  -4.6042  -4.5513  -4.4270  -4.3613  -4.3244  -4.2983  -4.2526
    -4.2015  -4.1784  -4.1464  -4.0407  -3.9987  -3.9984  -3.9788  -3.9770
    -3.9503  -3.8556  -3.8532  -3.7762  -3.7646  -3.7632  -3.7587  -3.7429
    -3.7391  -3.6770  -3.6214  -3.6201  -3.6089  -3.5990  -3.5951  -3.5880
    -3.5854  -3.5788  -3.5323  -3.5306  -3.5219  -3.5205  -3.5113  -3.5102
    -3.4816  -3.4749  -3.4725  -3.4433  -3.4407  -3.4230  -3.4185  -3.3972
    -3.3579  -3.3571  -3.2974  -3.2955  -3.2761  -3.2688  -3.2602  -3.1850
    -3.1844  -3.1760  -3.1717  -3.1603  -3.1548  -3.1373  -3.1369  -2.9843
    -2.9817  -2.9691  -2.9673  -2.9629  -2.9230  -2.9217  -2.9190  -2.9163
    -2.8623  -2.8606  -2.8433  -2.8423  -2.8037  -2.7831  -2.7814  -2.7597
    -2.7517  -2.7496  -2.7071  -2.7057  -2.6874  -2.6856  -2.6805  -2.6774
    -2.6566  -2.6553  -2.6123  -2.6118  -2.6056  -2.6026  -2.5882  -2.5436
    -2.5429  -2.5170  -2.5094  -2.5054  -2.4336  -2.4311  -2.4004  -2.3990
    -2.3952  -2.3819  -2.3606  -2.3358  -2.3346  -2.3182  -2.3129  -2.3123
    -2.3098  -2.3009  -2.2906  -2.2891  -2.2812  -2.2801  -2.2732  -2.2716
    -2.2179  -2.1937  -2.1731  -2.1722  -2.1712  -2.1549  -2.1542  -2.1522
    -2.1505  -2.1409  -2.1101  -2.1083  -2.0976  -2.0907  -2.0820  -2.0798
    -2.0784  -2.0540  -2.0519  -2.0433  -2.0335  -2.0305  -1.9756  -1.9641
    -1.9561  -1.9529  -1.9517  -1.9390  -1.9328  -1.9169  -1.8995  -1.8966
    -1.8953  -1.8930  -1.8832  -1.8789  -1.8719  -1.8562  -1.8510  -1.8422
    -1.8065  -1.7927  -1.7921  -1.7858  -1.7850  -1.7809  -1.7739  -1.7710
    -1.7682  -1.7660  -1.7551  -1.7515  -1.7508  -1.6848  -1.6370  -1.6287
    -1.6074  -1.6064  -1.5921  -1.5807  -1.5774  -1.5719  -1.5691  -1.5551
    -1.5467  -1.5454  -1.5444  -1.5328  -1.5132  -1.5036  -1.5014  -1.4893
    -1.4730  -1.4713  -1.4678  -1.4643  -1.4567  -1.4177  -1.3942  -1.3862
    -1.3690  -1.3646  -1.3591  -1.3554  -1.3312  -1.3303  -1.3268  -1.3257
    -1.3250  -1.3175  -1.3107  -1.3056  -1.2792  -1.2519  -1.2466  -1.2241
    -1.2196  -1.2023  -1.1749  -1.1642  -1.1408  -1.1366  -1.1290  -1.1280
    -1.1173  -1.0982  -1.0910  -1.0786  -1.0747  -1.0475  -1.0455  -1.0297
    -1.0224  -0.9965  -0.9935  -0.9823  -0.9311  -0.9303  -0.9252  -0.9238
    -0.9064  -0.9040  -0.8896  -0.8845  -0.8570  -0.8461  -0.8252  -0.8239
    -0.8213  -0.7892  -0.7744  -0.7725  -0.7698  -0.7645  -0.7569  -0.7559
    -0.7535  -0.7245  -0.7216  -0.7198  -0.7089  -0.7039  -0.6994  -0.6896
    -0.6822  -0.6659  -0.6553  -0.6365  -0.6222  -0.5536  -0.5353  -0.5346
    -0.5341  -0.5309  -0.5280  -0.5234  -0.5034  -0.4983  -0.4766  -0.4742
    -0.4711  -0.4617  -0.4530  -0.4370  -0.4343  -0.4297  -0.4170  -0.3350
    -0.3343  -0.3099  -0.3038  -0.2997  -0.2934  -0.2895  -0.2876  -0.2873
    -0.2839  -0.2754  -0.2552  -0.2273  -0.2176  -0.2012  -0.2000  -0.1928
    -0.1896  -0.1854  -0.1772  -0.1761  -0.1736  -0.1672  -0.1555  -0.1533
    -0.1441  -0.1215  -0.1198  -0.1123  -0.1012  -0.0980  -0.0786  -0.0536
    -0.0501  -0.0434  -0.0378   0.0250   0.0277   0.0415   0.0422   0.1046
     0.1053   0.1064   0.1227   0.1321   0.3375   0.3697   0.6874   0.6877
     0.7553   0.7815   0.9133   0.9386   0.9913   1.0958   1.1026   1.4766
     1.5450   1.5457   1.7790   1.7797   1.8368   2.1321   2.1552   2.1758
     2.1790   2.2093   2.2375   2.3697   2.3711   2.5455   2.5472   2.5511
     2.6910   2.7194   2.7557   2.9638   3.3225   3.3256   3.3619   3.3686
     3.3711   3.3885   3.7022   3.7037   4.0273   4.0453   4.0962   4.3722
     4.4935   4.5073   4.6681   4.6799   4.7858   4.7947   4.8692   5.0242
     5.0393   5.1224   5.1285   5.4006   5.4180   5.4729   5.4903   5.6351
     5.7139   5.8134   5.8183   5.8209   5.8289   5.9579   5.9677   6.0258
     6.2221   6.3689   6.5494   6.6024   6.6425   6.6452   6.6456   6.6670
     6.6991   6.7692   6.8594   6.8670   6.9792   7.1184   7.1759   7.1891
     7.2474   7.3120   7.3512

          k = 0.2500 0.1443-0.1111 (136898 PWs)   bands (ev):

   -19.5218  -7.2908  -6.4045  -5.6103  -5.3283  -5.2574  -5.2556  -4.7037
    -4.6986  -4.6042  -4.5513  -4.4270  -4.3613  -4.3244  -4.2983  -4.2526
    -4.2015  -4.1784  -4.1464  -4.0407  -3.9987  -3.9984  -3.9788  -3.9771
    -3.9503  -3.8556  -3.8532  -3.7762  -3.7646  -3.7632  -3.7587  -3.7429
    -3.7391  -3.6770  -3.6214  -3.6201  -3.6089  -3.5990  -3.5951  -3.5880
    -3.5854  -3.5788  -3.5323  -3.5306  -3.5219  -3.5205  -3.5113  -3.5102
    -3.4816  -3.4749  -3.4725  -3.4433  -3.4407  -3.4230  -3.4185  -3.3972
    -3.3579  -3.3571  -3.2974  -3.2955  -3.2761  -3.2688  -3.2602  -3.1850
    -3.1844  -3.1760  -3.1717  -3.1603  -3.1548  -3.1373  -3.1369  -2.9843
    -2.9817  -2.9691  -2.9673  -2.9629  -2.9230  -2.9217  -2.9190  -2.9163
    -2.8623  -2.8606  -2.8433  -2.8423  -2.8037  -2.7831  -2.7814  -2.7597
    -2.7517  -2.7496  -2.7071  -2.7057  -2.6874  -2.6856  -2.6805  -2.6774
    -2.6566  -2.6553  -2.6123  -2.6118  -2.6056  -2.6026  -2.5882  -2.5436
    -2.5429  -2.5170  -2.5094  -2.5054  -2.4336  -2.4311  -2.4004  -2.3990
    -2.3952  -2.3819  -2.3606  -2.3358  -2.3346  -2.3182  -2.3129  -2.3123
    -2.3098  -2.3009  -2.2906  -2.2891  -2.2812  -2.2801  -2.2732  -2.2716
    -2.2179  -2.1937  -2.1731  -2.1722  -2.1712  -2.1549  -2.1542  -2.1522
    -2.1505  -2.1409  -2.1101  -2.1083  -2.0976  -2.0907  -2.0820  -2.0798
    -2.0784  -2.0539  -2.0518  -2.0433  -2.0335  -2.0305  -1.9756  -1.9641
    -1.9561  -1.9529  -1.9517  -1.9390  -1.9328  -1.9169  -1.8995  -1.8967
    -1.8952  -1.8930  -1.8832  -1.8789  -1.8719  -1.8562  -1.8510  -1.8422
    -1.8065  -1.7927  -1.7921  -1.7858  -1.7850  -1.7809  -1.7739  -1.7710
    -1.7682  -1.7660  -1.7551  -1.7516  -1.7508  -1.6848  -1.6370  -1.6287
    -1.6074  -1.6064  -1.5921  -1.5807  -1.5774  -1.5719  -1.5691  -1.5551
    -1.5467  -1.5454  -1.5444  -1.5328  -1.5132  -1.5036  -1.5014  -1.4893
    -1.4730  -1.4713  -1.4678  -1.4643  -1.4567  -1.4177  -1.3942  -1.3862
    -1.3690  -1.3646  -1.3591  -1.3554  -1.3312  -1.3303  -1.3268  -1.3257
    -1.3250  -1.3175  -1.3107  -1.3056  -1.2792  -1.2519  -1.2466  -1.2241
    -1.2196  -1.2023  -1.1750  -1.1642  -1.1408  -1.1366  -1.1290  -1.1280
    -1.1173  -1.0982  -1.0910  -1.0786  -1.0747  -1.0475  -1.0455  -1.0297
    -1.0224  -0.9965  -0.9935  -0.9823  -0.9311  -0.9303  -0.9252  -0.9238
    -0.9064  -0.9040  -0.8896  -0.8845  -0.8570  -0.8461  -0.8252  -0.8239
    -0.8213  -0.7892  -0.7744  -0.7725  -0.7698  -0.7645  -0.7569  -0.7559
    -0.7535  -0.7245  -0.7216  -0.7198  -0.7089  -0.7039  -0.6994  -0.6896
    -0.6822  -0.6659  -0.6553  -0.6365  -0.6222  -0.5536  -0.5353  -0.5346
    -0.5341  -0.5309  -0.5280  -0.5234  -0.5034  -0.4983  -0.4766  -0.4742
    -0.4711  -0.4617  -0.4530  -0.4370  -0.4343  -0.4297  -0.4170  -0.3350
    -0.3343  -0.3099  -0.3038  -0.2997  -0.2934  -0.2895  -0.2876  -0.2873
    -0.2839  -0.2754  -0.2552  -0.2272  -0.2176  -0.2012  -0.2000  -0.1928
    -0.1896  -0.1854  -0.1771  -0.1761  -0.1736  -0.1672  -0.1555  -0.1533
    -0.1441  -0.1215  -0.1198  -0.1123  -0.1012  -0.0980  -0.0786  -0.0536
    -0.0501  -0.0434  -0.0378   0.0250   0.0277   0.0415   0.0422   0.1046
     0.1053   0.1064   0.1227   0.1321   0.3375   0.3697   0.6874   0.6877
     0.7553   0.7815   0.9133   0.9386   0.9913   1.0958   1.1026   1.4766
     1.5450   1.5457   1.7790   1.7797   1.8368   2.1321   2.1552   2.1758
     2.1790   2.2093   2.2375   2.3697   2.3711   2.5455   2.5472   2.5511
     2.6910   2.7194   2.7557   2.9638   3.3225   3.3256   3.3619   3.3686
     3.3711   3.3885   3.7022   3.7037   4.0273   4.0453   4.0962   4.3722
     4.4935   4.5073   4.6681   4.6799   4.7858   4.7947   4.8692   5.0242
     5.0393   5.1224   5.1285   5.4006   5.4180   5.4729   5.4903   5.6351
     5.7139   5.8134   5.8183   5.8209   5.8289   5.9579   5.9677   6.0258
     6.2215   6.3711   6.5494   6.6001   6.6427   6.6450   6.6458   6.6665
     6.6996   6.7683   6.8594   6.8669   6.9711   7.1191   7.1779   7.1918
     7.2502   7.3198   7.3620

          k = 0.0000-0.2887 0.1111 (136898 PWs)   bands (ev):

   -19.5218  -7.2908  -6.4045  -5.6103  -5.3284  -5.2574  -5.2555  -4.7037
    -4.6985  -4.6039  -4.5512  -4.4278  -4.3611  -4.3243  -4.2981  -4.2529
    -4.2012  -4.1783  -4.1465  -4.0407  -3.9989  -3.9983  -3.9787  -3.9772
    -3.9504  -3.8555  -3.8533  -3.7762  -3.7644  -3.7634  -3.7587  -3.7427
    -3.7393  -3.6768  -3.6216  -3.6198  -3.6089  -3.5989  -3.5951  -3.5880
    -3.5857  -3.5787  -3.5323  -3.5305  -3.5218  -3.5204  -3.5110  -3.5106
    -3.4812  -3.4749  -3.4726  -3.4429  -3.4413  -3.4230  -3.4191  -3.3969
    -3.3579  -3.3572  -3.2974  -3.2956  -3.2761  -3.2690  -3.2600  -3.1849
    -3.1844  -3.1759  -3.1717  -3.1604  -3.1548  -3.1372  -3.1370  -2.9841
    -2.9818  -2.9698  -2.9673  -2.9623  -2.9231  -2.9219  -2.9190  -2.9165
    -2.8623  -2.8605  -2.8432  -2.8422  -2.8035  -2.7835  -2.7817  -2.7592
    -2.7517  -2.7496  -2.7073  -2.7055  -2.6873  -2.6850  -2.6807  -2.6776
    -2.6565  -2.6552  -2.6131  -2.6121  -2.6056  -2.6027  -2.5881  -2.5432
    -2.5424  -2.5170  -2.5094  -2.5054  -2.4359  -2.4312  -2.4005  -2.3991
    -2.3937  -2.3819  -2.3606  -2.3361  -2.3349  -2.3172  -2.3139  -2.3128
    -2.3102  -2.2986  -2.2910  -2.2889  -2.2814  -2.2800  -2.2732  -2.2708
    -2.2179  -2.1928  -2.1740  -2.1726  -2.1713  -2.1548  -2.1543  -2.1526
    -2.1500  -2.1406  -2.1103  -2.1083  -2.0979  -2.0905  -2.0831  -2.0802
    -2.0785  -2.0541  -2.0520  -2.0413  -2.0336  -2.0306  -1.9754  -1.9649
    -1.9556  -1.9527  -1.9518  -1.9440  -1.9331  -1.9170  -1.8995  -1.8965
    -1.8930  -1.8929  -1.8830  -1.8825  -1.8718  -1.8562  -1.8445  -1.8422
    -1.8083  -1.7923  -1.7922  -1.7858  -1.7846  -1.7806  -1.7758  -1.7708
    -1.7689  -1.7649  -1.7558  -1.7515  -1.7501  -1.6869  -1.6371  -1.6240
    -1.6075  -1.6044  -1.5933  -1.5818  -1.5738  -1.5725  -1.5686  -1.5638
    -1.5463  -1.5455  -1.5450  -1.5317  -1.5094  -1.5017  -1.4997  -1.4961
    -1.4722  -1.4717  -1.4680  -1.4570  -1.4562  -1.4198  -1.3964  -1.3889
    -1.3679  -1.3665  -1.3584  -1.3553  -1.3309  -1.3303  -1.3263  -1.3260
    -1.3250  -1.3127  -1.3099  -1.2967  -1.2930  -1.2499  -1.2408  -1.2244
    -1.2154  -1.2107  -1.1709  -1.1695  -1.1382  -1.1343  -1.1288  -1.1283
    -1.1168  -1.1030  -1.0968  -1.0784  -1.0731  -1.0474  -1.0469  -1.0263
    -1.0254  -0.9960  -0.9921  -0.9817  -0.9307  -0.9294  -0.9248  -0.9209
    -0.9065  -0.9035  -0.8886  -0.8880  -0.8567  -0.8455  -0.8255  -0.8236
    -0.8224  -0.7913  -0.7743  -0.7716  -0.7703  -0.7616  -0.7596  -0.7554
    -0.7550  -0.7245  -0.7221  -0.7207  -0.7064  -0.7053  -0.6973  -0.6932
    -0.6813  -0.6611  -0.6567  -0.6353  -0.6224  -0.5546  -0.5350  -0.5347
    -0.5339  -0.5323  -0.5255  -0.5248  -0.5043  -0.4981  -0.4758  -0.4750
    -0.4703  -0.4639  -0.4523  -0.4360  -0.4329  -0.4324  -0.4167  -0.3354
    -0.3347  -0.3087  -0.3059  -0.2993  -0.2938  -0.2893  -0.2876  -0.2868
    -0.2827  -0.2750  -0.2563  -0.2273  -0.2176  -0.2010  -0.2005  -0.1927
    -0.1897  -0.1851  -0.1768  -0.1764  -0.1733  -0.1676  -0.1551  -0.1532
    -0.1444  -0.1217  -0.1195  -0.1121  -0.1012  -0.0982  -0.0784  -0.0533
    -0.0502  -0.0431  -0.0380   0.0248   0.0277   0.0415   0.0422   0.1046
     0.1058   0.1060   0.1219   0.1321   0.3406   0.3676   0.6875   0.6875
     0.7581   0.7796   0.9125   0.9360   0.9914   1.0968   1.1018   1.4754
     1.5450   1.5460   1.7790   1.7803   1.8371   2.1357   2.1526   2.1773
     2.1776   2.2117   2.2347   2.3689   2.3731   2.5448   2.5472   2.5517
     2.6941   2.7140   2.7565   2.9653   3.3231   3.3261   3.3636   3.3665
     3.3726   3.3868   3.7030   3.7033   4.0301   4.0444   4.0968   4.3719
     4.4951   4.5058   4.6636   4.6787   4.7862   4.7925   4.8718   5.0241
     5.0345   5.1231   5.1280   5.4043   5.4216   5.4634   5.4952   5.6449
     5.7160   5.8144   5.8164   5.8218   5.8293   5.9572   5.9692   6.0213
     6.2027   6.3501   6.5482   6.5988   6.6430   6.6457   6.6472   6.6638
     6.7560   6.7971   6.8616   6.8618   6.9638   7.0799   7.1773   7.1900
     7.2925   7.3016   7.3331

          k = 0.0000 0.2887 0.1111 (136898 PWs)   bands (ev):

   -19.5218  -7.2908  -6.4045  -5.6103  -5.3284  -5.2574  -5.2555  -4.7037
    -4.6985  -4.6039  -4.5512  -4.4278  -4.3611  -4.3243  -4.2981  -4.2529
    -4.2012  -4.1783  -4.1465  -4.0407  -3.9989  -3.9983  -3.9787  -3.9772
    -3.9504  -3.8555  -3.8533  -3.7762  -3.7644  -3.7634  -3.7587  -3.7427
    -3.7393  -3.6768  -3.6216  -3.6198  -3.6089  -3.5989  -3.5951  -3.5880
    -3.5857  -3.5787  -3.5323  -3.5305  -3.5218  -3.5204  -3.5110  -3.5106
    -3.4812  -3.4749  -3.4726  -3.4429  -3.4413  -3.4230  -3.4191  -3.3969
    -3.3579  -3.3572  -3.2974  -3.2956  -3.2761  -3.2690  -3.2600  -3.1849
    -3.1844  -3.1759  -3.1717  -3.1604  -3.1548  -3.1372  -3.1370  -2.9841
    -2.9818  -2.9698  -2.9673  -2.9623  -2.9231  -2.9219  -2.9190  -2.9165
    -2.8623  -2.8605  -2.8432  -2.8422  -2.8035  -2.7835  -2.7817  -2.7592
    -2.7517  -2.7496  -2.7073  -2.7055  -2.6873  -2.6850  -2.6807  -2.6776
    -2.6565  -2.6552  -2.6131  -2.6121  -2.6056  -2.6027  -2.5881  -2.5432
    -2.5424  -2.5170  -2.5094  -2.5054  -2.4359  -2.4312  -2.4005  -2.3991
    -2.3937  -2.3819  -2.3606  -2.3361  -2.3349  -2.3172  -2.3139  -2.3128
    -2.3102  -2.2986  -2.2910  -2.2889  -2.2814  -2.2801  -2.2732  -2.2708
    -2.2179  -2.1928  -2.1740  -2.1726  -2.1713  -2.1548  -2.1543  -2.1526
    -2.1500  -2.1406  -2.1103  -2.1083  -2.0979  -2.0905  -2.0831  -2.0802
    -2.0785  -2.0541  -2.0520  -2.0413  -2.0336  -2.0306  -1.9754  -1.9649
    -1.9556  -1.9527  -1.9518  -1.9440  -1.9331  -1.9170  -1.8995  -1.8965
    -1.8930  -1.8929  -1.8830  -1.8825  -1.8718  -1.8562  -1.8445  -1.8422
    -1.8083  -1.7923  -1.7922  -1.7858  -1.7846  -1.7806  -1.7758  -1.7708
    -1.7689  -1.7649  -1.7558  -1.7515  -1.7501  -1.6869  -1.6371  -1.6240
    -1.6075  -1.6044  -1.5933  -1.5818  -1.5738  -1.5725  -1.5686  -1.5638
    -1.5463  -1.5455  -1.5450  -1.5317  -1.5094  -1.5017  -1.4997  -1.4961
    -1.4722  -1.4717  -1.4680  -1.4570  -1.4562  -1.4198  -1.3964  -1.3889
    -1.3679  -1.3665  -1.3584  -1.3553  -1.3309  -1.3303  -1.3263  -1.3260
    -1.3249  -1.3127  -1.3099  -1.2967  -1.2930  -1.2499  -1.2408  -1.2244
    -1.2154  -1.2107  -1.1710  -1.1695  -1.1382  -1.1343  -1.1288  -1.1283
    -1.1168  -1.1030  -1.0968  -1.0784  -1.0731  -1.0474  -1.0469  -1.0263
    -1.0254  -0.9960  -0.9921  -0.9817  -0.9307  -0.9294  -0.9248  -0.9209
    -0.9065  -0.9035  -0.8886  -0.8880  -0.8567  -0.8455  -0.8255  -0.8236
    -0.8224  -0.7913  -0.7743  -0.7716  -0.7703  -0.7616  -0.7596  -0.7554
    -0.7550  -0.7245  -0.7221  -0.7207  -0.7064  -0.7053  -0.6973  -0.6932
    -0.6813  -0.6611  -0.6567  -0.6353  -0.6224  -0.5546  -0.5350  -0.5347
    -0.5339  -0.5323  -0.5255  -0.5248  -0.5043  -0.4981  -0.4758  -0.4750
    -0.4703  -0.4639  -0.4523  -0.4360  -0.4329  -0.4324  -0.4167  -0.3354
    -0.3347  -0.3087  -0.3059  -0.2993  -0.2938  -0.2893  -0.2876  -0.2868
    -0.2827  -0.2750  -0.2563  -0.2273  -0.2176  -0.2009  -0.2005  -0.1927
    -0.1897  -0.1852  -0.1768  -0.1764  -0.1733  -0.1676  -0.1551  -0.1532
    -0.1444  -0.1217  -0.1195  -0.1121  -0.1012  -0.0982  -0.0784  -0.0533
    -0.0502  -0.0431  -0.0380   0.0248   0.0277   0.0415   0.0422   0.1046
     0.1058   0.1060   0.1219   0.1321   0.3405   0.3676   0.6875   0.6875
     0.7581   0.7796   0.9125   0.9360   0.9914   1.0968   1.1018   1.4754
     1.5450   1.5460   1.7790   1.7803   1.8371   2.1357   2.1526   2.1773
     2.1776   2.2117   2.2347   2.3689   2.3731   2.5448   2.5472   2.5517
     2.6941   2.7140   2.7565   2.9653   3.3231   3.3261   3.3636   3.3665
     3.3726   3.3868   3.7030   3.7033   4.0301   4.0444   4.0968   4.3719
     4.4951   4.5058   4.6636   4.6787   4.7862   4.7925   4.8718   5.0241
     5.0345   5.1231   5.1280   5.4043   5.4216   5.4634   5.4952   5.6449
     5.7160   5.8144   5.8164   5.8218   5.8293   5.9572   5.9693   6.0213
     6.2037   6.3487   6.5489   6.5967   6.6437   6.6457   6.6472   6.6665
     6.7557   6.7958   6.8616   6.8618   6.9565   7.0768   7.1785   7.1901
     7.3023   7.3123   7.3393

     the Fermi energy is     1.6711 ev

!    total energy              =   -6564.20342104 Ry
     Harris-Foulkes estimate   =   -6564.20342104 Ry
     estimated scf accuracy    <          7.3E-09 Ry

     The total energy is the sum of the following terms:

     one-electron contribution =  -48779.01031980 Ry
     hartree contribution      =   24892.96989473 Ry
     xc contribution           =   -3162.30008744 Ry
     ewald contribution        =   20484.13507090 Ry
     smearing contrib. (-TS)   =       0.00202058 Ry

     convergence has been achieved in  22 iterations

     Writing output data file 5073817.save

     init_run     :    175.14s CPU    183.37s WALL (       1 calls)
     electrons    :   8339.35s CPU   8817.04s WALL (       1 calls)

     Called by init_run:
     wfcinit      :    143.93s CPU    151.80s WALL (       1 calls)
     potinit      :      5.84s CPU      5.96s WALL (       1 calls)

     Called by electrons:
     c_bands      :   6993.72s CPU   7391.85s WALL (      23 calls)
     sum_band     :   1048.92s CPU   1123.50s WALL (      23 calls)
     v_of_rho     :     16.68s CPU     18.20s WALL (      23 calls)
     newd         :    287.60s CPU    290.50s WALL (      23 calls)
     mix_rho      :      2.74s CPU      3.01s WALL (      23 calls)

     Called by c_bands:
     init_us_2    :     11.35s CPU     11.73s WALL (     564 calls)
     cegterg      :   6911.03s CPU   7307.88s WALL (     276 calls)

     Called by *egterg:
     h_psi        :   3023.79s CPU   3338.80s WALL (    1579 calls)
     s_psi        :    404.62s CPU    408.72s WALL (    1579 calls)
     g_psi        :      5.68s CPU      5.62s WALL (    1291 calls)
     cdiaghg      :   2140.30s CPU   2145.97s WALL (    1555 calls)

     Called by h_psi:
     add_vuspsi   :    405.92s CPU    412.30s WALL (    1579 calls)

     General routines
     calbec       :    613.28s CPU    615.46s WALL (    1855 calls)
     fft          :    160.38s CPU    163.35s WALL (     368 calls)
     ffts         :      1.56s CPU      1.69s WALL (      46 calls)
     fftw         :   2514.89s CPU   2864.16s WALL (  674184 calls)
     interpolate  :      4.49s CPU      4.96s WALL (      46 calls)
     davcio       :      0.01s CPU      0.16s WALL (      12 calls)

     Parallel routines
     fft_scatter  :   1957.83s CPU   2254.91s WALL (  674598 calls)

     PWSCF        :     2h22m CPU        2h30m WALL


   This run was terminated on:   0:52:50   9Aug2015            

=------------------------------------------------------------------------------=
   JOB DONE.
=------------------------------------------------------------------------------=
