
     Program PWSCF v.5.1.2 starts on  8Aug2015 at 16:21:44 

     This program is part of the open-source Quantum ESPRESSO suite
     for quantum simulation of materials; please cite
         "P. Giannozzi et al., J. Phys.:Condens. Matter 21 395502 (2009);
          URL http://www.quantum-espresso.org", 
     in publications or presentations arising from this work. More details at
     http://www.quantum-espresso.org/quote

     Parallel version (MPI), running on    32 processors
     R & G space division:  proc/nbgrp/npool/nimage =      32
     Reading input from top.O1.Au50.d.2.6.phi.0.psi.0.in
Warning: card &IONS ignored
Warning: card / ignored
Warning: card &CELL ignored
Warning: card / ignored

     Current dimensions of program PWSCF are:
     Max number of different atomic species (ntypx) = 10
     Max number of k-points (npk) =  40000
     Max angular momentum in pseudopotentials (lmaxx) =  3

     Subspace diagonalization in iterative solution of the eigenvalue problem:
     a serial algorithm will be used


     Parallelization info
     --------------------
     sticks:   dense  smooth     PW     G-vecs:    dense   smooth      PW
     Min         445     223     58                96775    34191    4534
     Max         446     224     59                96790    34246    4540
     Sum       14269    7147   1867              3097177  1095093  145167


     Title: 
     top.O1.Au50.d.2.6.phi.0.psi.0                                              


     bravais-lattice index     =            4
     lattice parameter (alat)  =      22.7436  a.u.
     unit-cell volume          =   22924.1508 (a.u.)^3
     number of atoms/cell      =           67
     number of atomic types    =            3
     number of electrons       =       712.00
     number of Kohn-Sham states=          427
     kinetic-energy cutoff     =      50.0000  Ry
     charge density cutoff     =     400.0000  Ry
     convergence threshold     =      1.0E-08
     mixing beta               =       0.7000
     number of iterations used =            8  plain     mixing
     Exchange-correlation      =  SLA  PW   PBE  PBE ( 1  4  3  4 0 0)

     celldm(1)=  22.743643  celldm(2)=   0.000000  celldm(3)=   2.250000
     celldm(4)=   0.000000  celldm(5)=   0.000000  celldm(6)=   0.000000

     crystal axes: (cart. coord. in units of alat)
               a(1) = (   1.000000   0.000000   0.000000 )  
               a(2) = (  -0.500000   0.866025   0.000000 )  
               a(3) = (   0.000000   0.000000   2.250000 )  

     reciprocal axes: (cart. coord. in units 2 pi/alat)
               b(1) = (  1.000000  0.577350 -0.000000 )  
               b(2) = (  0.000000  1.154701  0.000000 )  
               b(3) = (  0.000000 -0.000000  0.444444 )  


     PseudoPot. # 1 for Au read from file:
     /home/scc/andrejb/qe/pseudo/Au.pbe-nd-van.UPF
     MD5 check sum: 458681b50f36d87ef23c61b04bba420a
     Pseudo is Ultrasoft + core correction, Zval = 11.0
     Generated by new atomic code, or converted to UPF format
     Using radial grid of  985 points,  3 beta functions with: 
                l(1) =   1
                l(2) =   2
                l(3) =   2
     Q(r) pseudized with  8 coefficients,  rinner =    1.100   1.100   1.100
                                                       1.100   1.100

     PseudoPot. # 2 for H  read from file:
     /home/scc/andrejb/qe/pseudo/H.pbe-van_ak.UPF
     MD5 check sum: 403db7282739603aa925980fa9b8608d
     Pseudo is Ultrasoft, Zval =  1.0
     Generated by new atomic code, or converted to UPF format
     Using radial grid of  615 points,  1 beta functions with: 
                l(1) =   0
     Q(r) pseudized with  8 coefficients,  rinner =    0.800

     PseudoPot. # 3 for O  read from file:
     /home/scc/andrejb/qe/pseudo/O.pbe-van_ak.UPF
     MD5 check sum: 4b8c549914a63cae506c6ff22b5af4fe
     Pseudo is Ultrasoft, Zval =  6.0
     Generated by new atomic code, or converted to UPF format
     Using radial grid of  737 points,  4 beta functions with: 
                l(1) =   0
                l(2) =   0
                l(3) =   1
                l(4) =   1
     Q(r) pseudized with  8 coefficients,  rinner =    0.800   0.800   0.800


     atomic species   valence    mass     pseudopotential
        Au            11.00   196.96657     Au( 1.00)
        H              1.00     1.01000     H ( 1.00)
        O              6.00    16.00000     O ( 1.00)

     No symmetry found



   Cartesian axes

     site n.     atom                  positions (alat units)
         1           O   tau(   1) = (   0.4790780   0.3968269   0.8290259  )
         2           H   tau(   2) = (   0.4291446   0.3552792   0.8772794  )
         3           H   tau(   3) = (   0.5274974   0.4371337   0.8797866  )
         4           Au  tau(   4) = (   0.3540481   0.6132292   0.0000000  )
         5           Au  tau(   5) = (   0.4790062   0.3967954   0.0000000  )
         6           Au  tau(   6) = (   0.6039644   0.1803616   0.0000000  )
         7           Au  tau(   7) = (   0.7289225  -0.0360723   0.0000000  )
         8           Au  tau(   8) = (   0.1041318   0.6132292   0.0000000  )
         9           Au  tau(   9) = (   0.2290899   0.3967954   0.0000000  )
        10           Au  tau(  10) = (   0.3540481   0.1803616   0.0000000  )
        11           Au  tau(  11) = (   0.4790062  -0.0360723   0.0000000  )
        12           Au  tau(  12) = (  -0.1457845   0.6132292   0.0000000  )
        13           Au  tau(  13) = (  -0.0208264   0.3967954   0.0000000  )
        14           Au  tau(  14) = (   0.1041318   0.1803616   0.0000000  )
        15           Au  tau(  15) = (   0.2290899  -0.0360723   0.0000000  )
        16           Au  tau(  16) = (  -0.3957008   0.6132292   0.0000000  )
        17           Au  tau(  17) = (  -0.2707426   0.3967954   0.0000000  )
        18           Au  tau(  18) = (  -0.1457845   0.1803616   0.0000000  )
        19           Au  tau(  19) = (  -0.0208264  -0.0360723   0.0000000  )
        20           Au  tau(  20) = (   0.4790062   0.6853738   0.2040557  )
        21           Au  tau(  21) = (   0.6039644   0.4689400   0.2040557  )
        22           Au  tau(  22) = (   0.7289225   0.2525061   0.2040557  )
        23           Au  tau(  23) = (   0.8538806   0.0360723   0.2040557  )
        24           Au  tau(  24) = (   0.2290899   0.6853738   0.2040557  )
        25           Au  tau(  25) = (   0.3540481   0.4689400   0.2040557  )
        26           Au  tau(  26) = (   0.4790062   0.2525061   0.2040557  )
        27           Au  tau(  27) = (   0.6039644   0.0360723   0.2040557  )
        28           Au  tau(  28) = (  -0.0208264   0.6853738   0.2040557  )
        29           Au  tau(  29) = (   0.1041318   0.4689400   0.2040557  )
        30           Au  tau(  30) = (   0.2290899   0.2525061   0.2040557  )
        31           Au  tau(  31) = (   0.3540481   0.0360723   0.2040557  )
        32           Au  tau(  32) = (  -0.2707426   0.6853738   0.2040557  )
        33           Au  tau(  33) = (  -0.1457845   0.4689400   0.2040557  )
        34           Au  tau(  34) = (  -0.0208264   0.2525061   0.2040557  )
        35           Au  tau(  35) = (   0.1041318   0.0360723   0.2040557  )
        36           Au  tau(  36) = (   0.3541162   0.7576593   0.4066483  )
        37           Au  tau(  37) = (   0.4791000   0.5411421   0.4066695  )
        38           Au  tau(  38) = (   0.6040570   0.3246862   0.4066617  )
        39           Au  tau(  39) = (   0.7290270   0.1081684   0.4066529  )
        40           Au  tau(  40) = (   0.1041162   0.7576236   0.4066247  )
        41           Au  tau(  41) = (   0.2291001   0.5411063   0.4066455  )
        42           Au  tau(  42) = (   0.3540567   0.3246505   0.4066380  )
        43           Au  tau(  43) = (   0.4790276   0.1081324   0.4066292  )
        44           Au  tau(  44) = (  -0.1458201   0.7576104   0.4066224  )
        45           Au  tau(  45) = (  -0.0208365   0.5410930   0.4066438  )
        46           Au  tau(  46) = (   0.1041202   0.3246372   0.4066359  )
        47           Au  tau(  47) = (   0.2290908   0.1081193   0.4066273  )
        48           Au  tau(  48) = (  -0.3958167   0.7575791   0.4065812  )
        49           Au  tau(  49) = (  -0.2708328   0.5410617   0.4066025  )
        50           Au  tau(  50) = (  -0.1458763   0.3246061   0.4065947  )
        51           Au  tau(  51) = (  -0.0209056   0.1080882   0.4065858  )
        52           Au  tau(  52) = (   0.3541085   0.6133344   0.6129762  )
        53           Au  tau(  53) = (   0.4790780   0.3968269   0.6129968  )
        54           Au  tau(  54) = (   0.6040356   0.1803811   0.6129859  )
        55           Au  tau(  55) = (   0.7290165  -0.0361221   0.6129385  )
        56           Au  tau(  56) = (   0.1041243   0.6133091   0.6130022  )
        57           Au  tau(  57) = (   0.2290941   0.3968013   0.6130241  )
        58           Au  tau(  58) = (   0.3540515   0.1803552   0.6130121  )
        59           Au  tau(  59) = (   0.4790323  -0.0361475   0.6129659  )
        60           Au  tau(  60) = (  -0.1458030   0.6133014   0.6129980  )
        61           Au  tau(  61) = (  -0.0208339   0.3967936   0.6130188  )
        62           Au  tau(  62) = (   0.1041239   0.1803477   0.6130083  )
        63           Au  tau(  63) = (   0.2291046  -0.0361554   0.6129607  )
        64           Au  tau(  64) = (  -0.3957908   0.6132739   0.6129471  )
        65           Au  tau(  65) = (  -0.2708208   0.3967658   0.6129688  )
        66           Au  tau(  66) = (  -0.1458636   0.1803200   0.6129569  )
        67           Au  tau(  67) = (  -0.0208823  -0.0361826   0.6129110  )

     number of k points=    12  Marzari-Vanderbilt smearing, width (Ry)=  0.0200
                       cart. coord. in units 2pi/alat
        k(    1) = (   0.2500000   0.4330127   0.1111111), wk =   0.1666667
        k(    2) = (   0.2500000  -0.1443376   0.1111111), wk =   0.1666667
        k(    3) = (  -0.2500000  -0.4330127   0.1111111), wk =   0.1666667
        k(    4) = (  -0.2500000   0.4330127  -0.1111111), wk =   0.1666667
        k(    5) = (   0.2500000  -0.4330127  -0.1111111), wk =   0.1666667
        k(    6) = (   0.5000000   0.0000000   0.1111111), wk =   0.1666667
        k(    7) = (  -0.5000000   0.0000000   0.1111111), wk =   0.1666667
        k(    8) = (  -0.2500000   0.1443376   0.1111111), wk =   0.1666667
        k(    9) = (  -0.2500000  -0.1443376  -0.1111111), wk =   0.1666667
        k(   10) = (   0.2500000   0.1443376  -0.1111111), wk =   0.1666667
        k(   11) = (   0.0000000  -0.2886751   0.1111111), wk =   0.1666667
        k(   12) = (   0.0000000   0.2886751   0.1111111), wk =   0.1666667

     Dense  grid:  3097177 G-vectors     FFT dimensions: ( 150, 150, 360)

     Smooth grid:  1095093 G-vectors     FFT dimensions: ( 108, 108, 240)

     Largest allocated arrays     est. size (Mb)     dimensions
        Kohn-Sham Wavefunctions        28.01 Mb     (    4299,  427)
        NL pseudopotentials            55.23 Mb     (    4299,  842)
        Each V/rho on FFT grid          4.12 Mb     (  270000)
        Each G-vector array             0.74 Mb     (   96788)
        G-vector shells                 0.16 Mb     (   21404)
     Largest temporary arrays     est. size (Mb)     dimensions
        Auxiliary wavefunctions       112.04 Mb     (    4299, 1708)
        Each subspace H/S matrix       44.51 Mb     (    1708, 1708)
        Each <psi_i|beta_j> matrix      5.49 Mb     (     842,  427)
        Arrays for rho mixing          32.96 Mb     (  270000,    8)

     Initial potential from superposition of free atoms
     Check: negative starting charge=   -1.730258

     starting charge  711.25682, renormalised to  712.00000

     negative rho (up, down):  1.732E+00 0.000E+00
     Starting wfc are  582 randomized atomic wfcs

     total cpu time spent up to now is      222.0 secs

     Self-consistent Calculation

     iteration #  1     ecut=    50.00 Ry     beta=0.70
     Davidson diagonalization with overlap
     ethr =  1.00E-02,  avg # of iterations =  3.0

     Threshold (ethr) on eigenvalues was too large:
     Diagonalizing with lowered threshold

     Davidson diagonalization with overlap
     ethr =  4.37E-04,  avg # of iterations =  2.5

     negative rho (up, down):  1.714E+00 0.000E+00

     total cpu time spent up to now is     1084.4 secs

     total energy              =   -6562.20648666 Ry
     Harris-Foulkes estimate   =   -6564.99258989 Ry
     estimated scf accuracy    <       3.58485730 Ry

     iteration #  2     ecut=    50.00 Ry     beta=0.70
     Davidson diagonalization with overlap
     ethr =  5.03E-04,  avg # of iterations = 11.0

     negative rho (up, down):  1.712E+00 0.000E+00

     total cpu time spent up to now is     2453.6 secs

     total energy              =   -6554.17688932 Ry
     Harris-Foulkes estimate   =   -6571.12170250 Ry
     estimated scf accuracy    <      99.52273893 Ry

     iteration #  3     ecut=    50.00 Ry     beta=0.70
     Davidson diagonalization with overlap
     ethr =  5.03E-04,  avg # of iterations =  6.0

     negative rho (up, down):  1.725E+00 0.000E+00

     total cpu time spent up to now is     3340.2 secs

     total energy              =   -6562.36666678 Ry
     Harris-Foulkes estimate   =   -6564.95412892 Ry
     estimated scf accuracy    <      11.83147876 Ry

     iteration #  4     ecut=    50.00 Ry     beta=0.70
     Davidson diagonalization with overlap
     ethr =  5.03E-04,  avg # of iterations =  6.8

     negative rho (up, down):  1.730E+00 0.000E+00

     total cpu time spent up to now is     3919.0 secs

     total energy              =   -6561.74239559 Ry
     Harris-Foulkes estimate   =   -6566.05314547 Ry
     estimated scf accuracy    <      53.63579530 Ry

     iteration #  5     ecut=    50.00 Ry     beta=0.70
     Davidson diagonalization with overlap
     ethr =  5.03E-04,  avg # of iterations =  5.5

     negative rho (up, down):  1.742E+00 0.000E+00

     total cpu time spent up to now is     4443.1 secs

     total energy              =   -6564.09252995 Ry
     Harris-Foulkes estimate   =   -6564.41567651 Ry
     estimated scf accuracy    <       1.53729121 Ry

     iteration #  6     ecut=    50.00 Ry     beta=0.70
     Davidson diagonalization with overlap
     ethr =  2.16E-04,  avg # of iterations =  3.7

     negative rho (up, down):  1.746E+00 0.000E+00

     total cpu time spent up to now is     4880.8 secs

     total energy              =   -6564.16920411 Ry
     Harris-Foulkes estimate   =   -6564.25676366 Ry
     estimated scf accuracy    <       0.28346642 Ry

     iteration #  7     ecut=    50.00 Ry     beta=0.70
     Davidson diagonalization with overlap
     ethr =  3.98E-05,  avg # of iterations = 11.6

     negative rho (up, down):  1.749E+00 0.000E+00

     total cpu time spent up to now is     5490.2 secs

     total energy              =   -6564.19668341 Ry
     Harris-Foulkes estimate   =   -6564.22673020 Ry
     estimated scf accuracy    <       0.12577289 Ry

     iteration #  8     ecut=    50.00 Ry     beta=0.70
     Davidson diagonalization with overlap
     ethr =  1.77E-05,  avg # of iterations = 10.3

     negative rho (up, down):  1.751E+00 0.000E+00

     total cpu time spent up to now is     6082.7 secs

     total energy              =   -6564.19789675 Ry
     Harris-Foulkes estimate   =   -6564.21670553 Ry
     estimated scf accuracy    <       0.06715246 Ry

     iteration #  9     ecut=    50.00 Ry     beta=0.70
     Davidson diagonalization with overlap
     ethr =  9.43E-06,  avg # of iterations =  5.8

     negative rho (up, down):  1.752E+00 0.000E+00

     total cpu time spent up to now is     6594.8 secs

     total energy              =   -6564.20087504 Ry
     Harris-Foulkes estimate   =   -6564.20758937 Ry
     estimated scf accuracy    <       0.01852343 Ry

     iteration # 10     ecut=    50.00 Ry     beta=0.70
     Davidson diagonalization with overlap
     ethr =  2.60E-06,  avg # of iterations = 11.0

     negative rho (up, down):  1.753E+00 0.000E+00

     total cpu time spent up to now is     7273.4 secs

     total energy              =   -6564.20228912 Ry
     Harris-Foulkes estimate   =   -6564.20497685 Ry
     estimated scf accuracy    <       0.00924861 Ry

     iteration # 11     ecut=    50.00 Ry     beta=0.70
     Davidson diagonalization with overlap
     ethr =  1.30E-06,  avg # of iterations =  3.9

     negative rho (up, down):  1.754E+00 0.000E+00

     total cpu time spent up to now is     7732.1 secs

     total energy              =   -6564.20311097 Ry
     Harris-Foulkes estimate   =   -6564.20387894 Ry
     estimated scf accuracy    <       0.00356312 Ry

     iteration # 12     ecut=    50.00 Ry     beta=0.70
     Davidson diagonalization with overlap
     ethr =  5.00E-07,  avg # of iterations =  2.0

     negative rho (up, down):  1.755E+00 0.000E+00

     total cpu time spent up to now is     8145.8 secs

     total energy              =   -6564.20333349 Ry
     Harris-Foulkes estimate   =   -6564.20352453 Ry
     estimated scf accuracy    <       0.00051410 Ry

     iteration # 13     ecut=    50.00 Ry     beta=0.70
     Davidson diagonalization with overlap
     ethr =  7.22E-08,  avg # of iterations =  5.1

     negative rho (up, down):  1.755E+00 0.000E+00

     total cpu time spent up to now is     8657.8 secs

     total energy              =   -6564.20333467 Ry
     Harris-Foulkes estimate   =   -6564.20347593 Ry
     estimated scf accuracy    <       0.00042608 Ry

     iteration # 14     ecut=    50.00 Ry     beta=0.70
     Davidson diagonalization with overlap
     ethr =  5.98E-08,  avg # of iterations =  2.5

     negative rho (up, down):  1.754E+00 0.000E+00

     total cpu time spent up to now is     9101.4 secs

     total energy              =   -6564.20333006 Ry
     Harris-Foulkes estimate   =   -6564.20351045 Ry
     estimated scf accuracy    <       0.00138449 Ry

     iteration # 15     ecut=    50.00 Ry     beta=0.70
     Davidson diagonalization with overlap
     ethr =  5.98E-08,  avg # of iterations =  2.0

     negative rho (up, down):  1.754E+00 0.000E+00

     total cpu time spent up to now is     9508.6 secs

     total energy              =   -6564.20341988 Ry
     Harris-Foulkes estimate   =   -6564.20342425 Ry
     estimated scf accuracy    <       0.00002027 Ry

     iteration # 16     ecut=    50.00 Ry     beta=0.70
     Davidson diagonalization with overlap
     ethr =  2.85E-09,  avg # of iterations =  2.0

     negative rho (up, down):  1.754E+00 0.000E+00

     total cpu time spent up to now is     9955.2 secs

     total energy              =   -6564.20342122 Ry
     Harris-Foulkes estimate   =   -6564.20342453 Ry
     estimated scf accuracy    <       0.00001190 Ry

     iteration # 17     ecut=    50.00 Ry     beta=0.70
     Davidson diagonalization with overlap
     ethr =  1.67E-09,  avg # of iterations =  2.0

     negative rho (up, down):  1.754E+00 0.000E+00

     total cpu time spent up to now is    10373.5 secs

     total energy              =   -6564.20342245 Ry
     Harris-Foulkes estimate   =   -6564.20342397 Ry
     estimated scf accuracy    <       0.00000665 Ry

     iteration # 18     ecut=    50.00 Ry     beta=0.70
     Davidson diagonalization with overlap
     ethr =  9.34E-10,  avg # of iterations =  2.0

     negative rho (up, down):  1.754E+00 0.000E+00

     total cpu time spent up to now is    10777.0 secs

     total energy              =   -6564.20342305 Ry
     Harris-Foulkes estimate   =   -6564.20342351 Ry
     estimated scf accuracy    <       0.00000191 Ry

     iteration # 19     ecut=    50.00 Ry     beta=0.70
     Davidson diagonalization with overlap
     ethr =  2.68E-10,  avg # of iterations =  2.0

     negative rho (up, down):  1.754E+00 0.000E+00

     total cpu time spent up to now is    11170.0 secs

     total energy              =   -6564.20342326 Ry
     Harris-Foulkes estimate   =   -6564.20342331 Ry
     estimated scf accuracy    <       0.00000014 Ry

     iteration # 20     ecut=    50.00 Ry     beta=0.70
     Davidson diagonalization with overlap
     ethr =  2.01E-11,  avg # of iterations =  2.5

     negative rho (up, down):  1.754E+00 0.000E+00

     total cpu time spent up to now is    11663.4 secs

     total energy              =   -6564.20342328 Ry
     Harris-Foulkes estimate   =   -6564.20342333 Ry
     estimated scf accuracy    <       0.00000027 Ry

     iteration # 21     ecut=    50.00 Ry     beta=0.70
     Davidson diagonalization with overlap
     ethr =  2.01E-11,  avg # of iterations =  2.0

     negative rho (up, down):  1.754E+00 0.000E+00

     total cpu time spent up to now is    12074.7 secs

     total energy              =   -6564.20342330 Ry
     Harris-Foulkes estimate   =   -6564.20342331 Ry
     estimated scf accuracy    <       0.00000005 Ry

     iteration # 22     ecut=    50.00 Ry     beta=0.70
     Davidson diagonalization with overlap
     ethr =  6.97E-12,  avg # of iterations =  2.0

     negative rho (up, down):  1.754E+00 0.000E+00

     total cpu time spent up to now is    12479.8 secs

     End of self-consistent calculation

          k = 0.2500 0.4330 0.1111 (136853 PWs)   bands (ev):

   -19.5217  -7.2907  -6.1946  -5.7957  -5.7932  -5.1256  -4.7794  -4.7696
    -4.7594  -4.7436  -4.3485  -4.3214  -4.2884  -4.2349  -4.1987  -4.1955
    -4.1755  -4.1396  -4.0371  -4.0327  -3.9904  -3.9461  -3.9457  -3.9447
    -3.9244  -3.8947  -3.8891  -3.8665  -3.8621  -3.8448  -3.8280  -3.8161
    -3.7483  -3.7461  -3.7292  -3.7256  -3.6855  -3.6850  -3.6777  -3.6636
    -3.6627  -3.6572  -3.5863  -3.5853  -3.5237  -3.5233  -3.5095  -3.5055
    -3.4465  -3.4397  -3.4161  -3.4149  -3.3779  -3.3667  -3.3650  -3.3442
    -3.3437  -3.3424  -3.3371  -3.3342  -3.3160  -3.2571  -3.2500  -3.2490
    -3.2251  -3.1926  -3.1656  -3.1611  -3.1122  -3.1105  -3.0851  -3.0842
    -3.0560  -3.0276  -2.9951  -2.9921  -2.9573  -2.9553  -2.9222  -2.9169
    -2.9153  -2.8738  -2.8449  -2.8434  -2.8217  -2.8203  -2.8159  -2.8150
    -2.8146  -2.8114  -2.8058  -2.7504  -2.6919  -2.6915  -2.6912  -2.6899
    -2.6856  -2.6654  -2.6645  -2.6437  -2.5710  -2.5696  -2.5668  -2.5625
    -2.5125  -2.5078  -2.5061  -2.4908  -2.4865  -2.4339  -2.4204  -2.4185
    -2.4147  -2.3741  -2.3732  -2.3722  -2.3322  -2.3305  -2.2791  -2.2535
    -2.2522  -2.2508  -2.2472  -2.2277  -2.2246  -2.2212  -2.2170  -2.2149
    -2.1792  -2.1465  -2.1432  -2.1360  -2.1350  -2.1343  -2.1338  -2.1336
    -2.1333  -2.1213  -2.0981  -2.0973  -2.0962  -2.0951  -2.0918  -2.0798
    -2.0786  -2.0755  -2.0497  -2.0483  -2.0456  -2.0271  -2.0244  -2.0092
    -2.0047  -1.9829  -1.9774  -1.9771  -1.9739  -1.9725  -1.9695  -1.9682
    -1.9658  -1.9528  -1.9507  -1.9380  -1.9347  -1.9294  -1.8509  -1.8507
    -1.8353  -1.8346  -1.8224  -1.8164  -1.8083  -1.7889  -1.7834  -1.7641
    -1.7586  -1.7463  -1.7414  -1.7356  -1.7195  -1.7112  -1.7081  -1.7058
    -1.6962  -1.6826  -1.6625  -1.6356  -1.6217  -1.6105  -1.6016  -1.5934
    -1.5842  -1.5330  -1.5247  -1.5239  -1.5103  -1.4965  -1.4445  -1.4435
    -1.4001  -1.3827  -1.3765  -1.3507  -1.3454  -1.3231  -1.3209  -1.3031
    -1.3025  -1.3009  -1.2966  -1.2829  -1.2459  -1.2436  -1.2421  -1.2379
    -1.2348  -1.2171  -1.2055  -1.2046  -1.1937  -1.1675  -1.1593  -1.1560
    -1.1523  -1.1490  -1.1400  -1.1275  -1.1004  -1.0999  -1.0970  -1.0909
    -1.0736  -1.0657  -1.0289  -1.0190  -1.0154  -1.0111  -0.9937  -0.9886
    -0.9472  -0.9109  -0.8629  -0.8616  -0.8599  -0.8583  -0.8552  -0.8529
    -0.8476  -0.8393  -0.8359  -0.7904  -0.7887  -0.7729  -0.7724  -0.7575
    -0.7424  -0.7415  -0.7311  -0.7279  -0.7276  -0.7255  -0.7234  -0.6851
    -0.6799  -0.6691  -0.6681  -0.6660  -0.6554  -0.6512  -0.6236  -0.6135
    -0.6096  -0.5852  -0.5666  -0.5605  -0.5258  -0.5188  -0.5094  -0.5088
    -0.5016  -0.5003  -0.4921  -0.4903  -0.4875  -0.4786  -0.4593  -0.4572
    -0.4481  -0.4447  -0.4353  -0.4221  -0.4158  -0.4047  -0.4038  -0.3784
    -0.3714  -0.3650  -0.3563  -0.3058  -0.3050  -0.3044  -0.2996  -0.2944
    -0.2913  -0.2869  -0.2717  -0.2651  -0.2584  -0.2565  -0.2554  -0.2442
    -0.2128  -0.2122  -0.2107  -0.2043  -0.2027  -0.1968  -0.1960  -0.1871
    -0.1786  -0.1760  -0.1568  -0.1435  -0.1410  -0.1350  -0.1211  -0.1182
    -0.0688  -0.0666  -0.0395  -0.0373  -0.0307  -0.0266   0.0029   0.0124
     0.0129   0.0286   0.0318   0.0665   0.1100   0.1167   0.2230   0.6247
     0.6258   0.6510   0.6515   0.7099   0.7321   1.0628   1.0631   1.0753
     1.0774   1.2480   1.3188   1.4005   1.4228   1.6561   1.6929   2.2469
     2.2567   2.3750   2.3902   2.5830   2.6086   2.6621   2.6624   2.7506
     3.0161   3.0402   3.2094   3.4151   3.4316   3.4531   3.4578   3.5189
     3.6191   3.7687   3.7774   3.8261   4.0696   4.0702   4.1381   4.1498
     4.3792   4.3989   4.4208   4.6041   4.6120   4.6717   4.7559   5.0436
     5.0773   5.0872   5.2678   5.3452   5.3644   5.3658   5.4607   5.6278
     6.0898   6.1442   6.1558   6.1655   6.2295   6.2358   6.3077   6.3574
     6.3768   6.3866   6.3901   6.4002   6.4305   6.4472   6.4535   6.4554
     6.5143   6.7471   6.8060   6.8377   7.0370   7.0511   7.0951   7.1161
     7.1321   7.2110   7.2436

          k = 0.2500-0.1443 0.1111 (136898 PWs)   bands (ev):

   -19.5217  -7.2907  -6.4045  -5.6103  -5.3283  -5.2574  -5.2556  -4.7037
    -4.6986  -4.6042  -4.5511  -4.4272  -4.3610  -4.3247  -4.2983  -4.2525
    -4.2015  -4.1783  -4.1464  -4.0408  -3.9988  -3.9983  -3.9790  -3.9770
    -3.9502  -3.8556  -3.8534  -3.7764  -3.7646  -3.7632  -3.7585  -3.7427
    -3.7394  -3.6772  -3.6214  -3.6199  -3.6090  -3.5989  -3.5949  -3.5880
    -3.5853  -3.5790  -3.5323  -3.5305  -3.5220  -3.5206  -3.5112  -3.5101
    -3.4818  -3.4750  -3.4726  -3.4433  -3.4407  -3.4230  -3.4182  -3.3972
    -3.3579  -3.3572  -3.2974  -3.2955  -3.2762  -3.2689  -3.2604  -3.1848
    -3.1843  -3.1762  -3.1717  -3.1604  -3.1547  -3.1371  -3.1368  -2.9843
    -2.9817  -2.9688  -2.9674  -2.9631  -2.9230  -2.9216  -2.9191  -2.9163
    -2.8622  -2.8605  -2.8434  -2.8424  -2.8038  -2.7829  -2.7815  -2.7598
    -2.7516  -2.7495  -2.7069  -2.7058  -2.6874  -2.6856  -2.6804  -2.6775
    -2.6568  -2.6554  -2.6122  -2.6116  -2.6056  -2.6026  -2.5884  -2.5438
    -2.5430  -2.5169  -2.5094  -2.5054  -2.4329  -2.4313  -2.4006  -2.3991
    -2.3956  -2.3821  -2.3606  -2.3357  -2.3347  -2.3185  -2.3128  -2.3116
    -2.3097  -2.3014  -2.2906  -2.2893  -2.2812  -2.2804  -2.2727  -2.2718
    -2.2179  -2.1940  -2.1731  -2.1718  -2.1712  -2.1548  -2.1542  -2.1522
    -2.1507  -2.1408  -2.1099  -2.1086  -2.0974  -2.0906  -2.0818  -2.0797
    -2.0787  -2.0540  -2.0520  -2.0436  -2.0335  -2.0304  -1.9754  -1.9639
    -1.9560  -1.9529  -1.9518  -1.9370  -1.9331  -1.9168  -1.8998  -1.8969
    -1.8959  -1.8932  -1.8833  -1.8773  -1.8719  -1.8561  -1.8536  -1.8423
    -1.8054  -1.7930  -1.7922  -1.7857  -1.7856  -1.7813  -1.7725  -1.7711
    -1.7674  -1.7671  -1.7548  -1.7516  -1.7510  -1.6840  -1.6373  -1.6302
    -1.6077  -1.6067  -1.5917  -1.5803  -1.5780  -1.5717  -1.5693  -1.5524
    -1.5468  -1.5458  -1.5446  -1.5337  -1.5148  -1.5040  -1.5014  -1.4877
    -1.4733  -1.4711  -1.4674  -1.4663  -1.4568  -1.4172  -1.3938  -1.3850
    -1.3694  -1.3639  -1.3599  -1.3554  -1.3315  -1.3304  -1.3268  -1.3257
    -1.3248  -1.3191  -1.3111  -1.3062  -1.2759  -1.2543  -1.2470  -1.2239
    -1.2202  -1.2001  -1.1759  -1.1630  -1.1420  -1.1372  -1.1288  -1.1283
    -1.1174  -1.0980  -1.0874  -1.0796  -1.0752  -1.0476  -1.0450  -1.0307
    -1.0217  -0.9967  -0.9940  -0.9825  -0.9316  -0.9302  -0.9252  -0.9242
    -0.9063  -0.9041  -0.8899  -0.8838  -0.8577  -0.8464  -0.8253  -0.8237
    -0.8210  -0.7885  -0.7739  -0.7731  -0.7695  -0.7649  -0.7565  -0.7558
    -0.7527  -0.7246  -0.7215  -0.7195  -0.7098  -0.7031  -0.7002  -0.6883
    -0.6827  -0.6672  -0.6547  -0.6369  -0.6223  -0.5534  -0.5351  -0.5347
    -0.5343  -0.5308  -0.5283  -0.5232  -0.5035  -0.4983  -0.4769  -0.4738
    -0.4713  -0.4610  -0.4532  -0.4375  -0.4342  -0.4293  -0.4170  -0.3348
    -0.3342  -0.3103  -0.3031  -0.2999  -0.2932  -0.2896  -0.2877  -0.2874
    -0.2841  -0.2756  -0.2548  -0.2271  -0.2177  -0.2013  -0.1998  -0.1928
    -0.1896  -0.1854  -0.1772  -0.1760  -0.1737  -0.1670  -0.1556  -0.1533
    -0.1441  -0.1214  -0.1199  -0.1125  -0.1013  -0.0980  -0.0786  -0.0536
    -0.0501  -0.0435  -0.0378   0.0251   0.0277   0.0418   0.0419   0.1046
     0.1051   0.1065   0.1230   0.1321   0.3365   0.3705   0.6874   0.6878
     0.7543   0.7818   0.9137   0.9398   0.9911   1.0955   1.1029   1.4769
     1.5449   1.5455   1.7789   1.7795   1.8366   2.1310   2.1561   2.1754
     2.1795   2.2087   2.2384   2.3696   2.3710   2.5458   2.5471   2.5509
     2.6901   2.7212   2.7555   2.9632   3.3218   3.3259   3.3617   3.3685
     3.3708   3.3889   3.7022   3.7035   4.0268   4.0455   4.0956   4.3721
     4.4933   4.5077   4.6656   4.6845   4.7855   4.7956   4.8680   5.0244
     5.0406   5.1220   5.1284   5.3970   5.4273   5.4696   5.4890   5.6307
     5.7121   5.8135   5.8186   5.8207   5.8294   5.9577   5.9673   6.0273
     6.2282   6.3809   6.5499   6.6060   6.6405   6.6445   6.6454   6.6616
     6.6764   6.7695   6.8589   6.8684   6.9731   7.1264   7.1697   7.1957
     7.2454   7.3185   7.3679

          k =-0.2500-0.4330 0.1111 (136853 PWs)   bands (ev):

   -19.5217  -7.2907  -6.1946  -5.7957  -5.7932  -5.1256  -4.7794  -4.7696
    -4.7594  -4.7436  -4.3485  -4.3214  -4.2884  -4.2349  -4.1987  -4.1955
    -4.1755  -4.1396  -4.0371  -4.0327  -3.9904  -3.9461  -3.9457  -3.9447
    -3.9244  -3.8947  -3.8891  -3.8665  -3.8621  -3.8448  -3.8280  -3.8161
    -3.7483  -3.7461  -3.7292  -3.7256  -3.6855  -3.6850  -3.6777  -3.6636
    -3.6627  -3.6572  -3.5863  -3.5853  -3.5237  -3.5233  -3.5095  -3.5055
    -3.4465  -3.4397  -3.4161  -3.4149  -3.3779  -3.3667  -3.3650  -3.3442
    -3.3437  -3.3424  -3.3371  -3.3342  -3.3160  -3.2571  -3.2500  -3.2490
    -3.2251  -3.1926  -3.1656  -3.1611  -3.1122  -3.1105  -3.0851  -3.0842
    -3.0560  -3.0276  -2.9951  -2.9921  -2.9573  -2.9553  -2.9222  -2.9169
    -2.9153  -2.8738  -2.8449  -2.8434  -2.8217  -2.8203  -2.8159  -2.8150
    -2.8146  -2.8114  -2.8058  -2.7504  -2.6919  -2.6915  -2.6912  -2.6899
    -2.6856  -2.6654  -2.6645  -2.6437  -2.5710  -2.5696  -2.5668  -2.5625
    -2.5125  -2.5078  -2.5061  -2.4908  -2.4865  -2.4339  -2.4204  -2.4185
    -2.4147  -2.3741  -2.3732  -2.3722  -2.3322  -2.3305  -2.2791  -2.2535
    -2.2522  -2.2508  -2.2472  -2.2277  -2.2246  -2.2212  -2.2170  -2.2149
    -2.1792  -2.1465  -2.1432  -2.1360  -2.1350  -2.1343  -2.1338  -2.1336
    -2.1333  -2.1213  -2.0981  -2.0973  -2.0962  -2.0951  -2.0918  -2.0798
    -2.0786  -2.0755  -2.0497  -2.0483  -2.0456  -2.0271  -2.0244  -2.0092
    -2.0047  -1.9829  -1.9774  -1.9771  -1.9739  -1.9725  -1.9695  -1.9682
    -1.9658  -1.9528  -1.9507  -1.9380  -1.9347  -1.9294  -1.8509  -1.8507
    -1.8353  -1.8346  -1.8224  -1.8164  -1.8083  -1.7889  -1.7834  -1.7641
    -1.7586  -1.7463  -1.7414  -1.7356  -1.7195  -1.7112  -1.7081  -1.7058
    -1.6962  -1.6826  -1.6625  -1.6356  -1.6217  -1.6105  -1.6016  -1.5934
    -1.5842  -1.5330  -1.5247  -1.5239  -1.5103  -1.4965  -1.4445  -1.4435
    -1.4001  -1.3827  -1.3765  -1.3507  -1.3454  -1.3231  -1.3209  -1.3031
    -1.3025  -1.3009  -1.2966  -1.2829  -1.2459  -1.2436  -1.2421  -1.2379
    -1.2348  -1.2171  -1.2055  -1.2046  -1.1937  -1.1675  -1.1592  -1.1560
    -1.1523  -1.1490  -1.1400  -1.1275  -1.1004  -1.0999  -1.0970  -1.0909
    -1.0736  -1.0657  -1.0289  -1.0190  -1.0154  -1.0111  -0.9937  -0.9886
    -0.9472  -0.9109  -0.8629  -0.8616  -0.8599  -0.8583  -0.8552  -0.8529
    -0.8476  -0.8393  -0.8359  -0.7904  -0.7887  -0.7729  -0.7724  -0.7575
    -0.7424  -0.7415  -0.7311  -0.7279  -0.7276  -0.7255  -0.7234  -0.6851
    -0.6799  -0.6691  -0.6681  -0.6660  -0.6554  -0.6512  -0.6236  -0.6135
    -0.6096  -0.5852  -0.5666  -0.5605  -0.5258  -0.5188  -0.5094  -0.5088
    -0.5016  -0.5003  -0.4921  -0.4903  -0.4875  -0.4786  -0.4593  -0.4572
    -0.4481  -0.4447  -0.4353  -0.4221  -0.4158  -0.4047  -0.4038  -0.3784
    -0.3714  -0.3650  -0.3563  -0.3058  -0.3050  -0.3044  -0.2996  -0.2944
    -0.2913  -0.2869  -0.2717  -0.2651  -0.2584  -0.2565  -0.2554  -0.2442
    -0.2128  -0.2122  -0.2107  -0.2043  -0.2027  -0.1968  -0.1960  -0.1871
    -0.1786  -0.1760  -0.1568  -0.1435  -0.1410  -0.1350  -0.1210  -0.1182
    -0.0688  -0.0666  -0.0395  -0.0373  -0.0307  -0.0266   0.0029   0.0124
     0.0129   0.0286   0.0318   0.0665   0.1100   0.1167   0.2230   0.6247
     0.6258   0.6510   0.6515   0.7099   0.7321   1.0628   1.0631   1.0753
     1.0774   1.2480   1.3188   1.4005   1.4228   1.6561   1.6929   2.2469
     2.2567   2.3750   2.3902   2.5830   2.6086   2.6621   2.6624   2.7506
     3.0161   3.0402   3.2094   3.4151   3.4316   3.4531   3.4578   3.5189
     3.6191   3.7687   3.7774   3.8261   4.0696   4.0702   4.1381   4.1498
     4.3792   4.3989   4.4208   4.6041   4.6120   4.6717   4.7559   5.0436
     5.0773   5.0872   5.2678   5.3452   5.3644   5.3658   5.4607   5.6278
     6.0898   6.1440   6.1557   6.1657   6.2295   6.2358   6.3077   6.3575
     6.3769   6.3867   6.3902   6.4000   6.4308   6.4476   6.4536   6.4550
     6.5145   6.7470   6.8023   6.8390   7.0397   7.0491   7.0964   7.1155
     7.1363   7.2072   7.2435

          k =-0.2500 0.4330-0.1111 (136853 PWs)   bands (ev):

   -19.5217  -7.2907  -6.1946  -5.7963  -5.7927  -5.1257  -4.7794  -4.7693
    -4.7589  -4.7444  -4.3490  -4.3206  -4.2887  -4.2345  -4.1983  -4.1956
    -4.1756  -4.1401  -4.0379  -4.0321  -3.9905  -3.9460  -3.9459  -3.9448
    -3.9239  -3.8950  -3.8889  -3.8677  -3.8612  -3.8446  -3.8288  -3.8149
    -3.7481  -3.7458  -3.7292  -3.7255  -3.6861  -3.6853  -3.6772  -3.6638
    -3.6626  -3.6572  -3.5866  -3.5851  -3.5243  -3.5227  -3.5093  -3.5058
    -3.4468  -3.4398  -3.4161  -3.4149  -3.3781  -3.3667  -3.3655  -3.3443
    -3.3435  -3.3427  -3.3368  -3.3340  -3.3159  -3.2567  -3.2505  -3.2489
    -3.2250  -3.1924  -3.1657  -3.1610  -3.1117  -3.1104  -3.0854  -3.0840
    -3.0560  -3.0279  -2.9953  -2.9923  -2.9572  -2.9549  -2.9207  -2.9181
    -2.9152  -2.8738  -2.8437  -2.8433  -2.8226  -2.8206  -2.8159  -2.8155
    -2.8144  -2.8107  -2.8061  -2.7505  -2.6928  -2.6914  -2.6913  -2.6894
    -2.6859  -2.6652  -2.6644  -2.6436  -2.5703  -2.5698  -2.5663  -2.5627
    -2.5123  -2.5084  -2.5054  -2.4880  -2.4872  -2.4342  -2.4213  -2.4185
    -2.4147  -2.3761  -2.3735  -2.3724  -2.3319  -2.3304  -2.2787  -2.2539
    -2.2520  -2.2496  -2.2480  -2.2265  -2.2248  -2.2213  -2.2158  -2.2149
    -2.1796  -2.1487  -2.1437  -2.1356  -2.1349  -2.1346  -2.1341  -2.1328
    -2.1321  -2.1300  -2.0988  -2.0970  -2.0961  -2.0957  -2.0926  -2.0796
    -2.0759  -2.0745  -2.0490  -2.0480  -2.0458  -2.0245  -2.0229  -2.0067
    -2.0045  -1.9822  -1.9789  -1.9772  -1.9746  -1.9726  -1.9694  -1.9688
    -1.9658  -1.9534  -1.9500  -1.9380  -1.9337  -1.9294  -1.8516  -1.8509
    -1.8359  -1.8347  -1.8269  -1.8146  -1.7983  -1.7846  -1.7833  -1.7662
    -1.7592  -1.7458  -1.7413  -1.7361  -1.7219  -1.7096  -1.7071  -1.7045
    -1.6972  -1.6810  -1.6629  -1.6613  -1.6241  -1.6095  -1.6027  -1.5868
    -1.5853  -1.5298  -1.5254  -1.5237  -1.5096  -1.4809  -1.4443  -1.4428
    -1.4003  -1.3844  -1.3756  -1.3507  -1.3476  -1.3233  -1.3193  -1.3038
    -1.3018  -1.3012  -1.2962  -1.2831  -1.2463  -1.2443  -1.2385  -1.2378
    -1.2350  -1.2326  -1.2055  -1.2049  -1.1934  -1.1689  -1.1597  -1.1534
    -1.1525  -1.1509  -1.1315  -1.1263  -1.1002  -1.0987  -1.0975  -1.0954
    -1.0804  -1.0640  -1.0310  -1.0195  -1.0152  -1.0106  -0.9931  -0.9828
    -0.9451  -0.9114  -0.8633  -0.8617  -0.8610  -0.8593  -0.8545  -0.8525
    -0.8467  -0.8406  -0.8366  -0.7894  -0.7880  -0.7734  -0.7690  -0.7558
    -0.7429  -0.7418  -0.7313  -0.7289  -0.7281  -0.7258  -0.7245  -0.6871
    -0.6760  -0.6690  -0.6683  -0.6673  -0.6561  -0.6498  -0.6240  -0.6147
    -0.6081  -0.5868  -0.5682  -0.5595  -0.5258  -0.5199  -0.5091  -0.5086
    -0.5026  -0.5003  -0.4930  -0.4894  -0.4860  -0.4779  -0.4593  -0.4574
    -0.4486  -0.4444  -0.4351  -0.4263  -0.4138  -0.4048  -0.4035  -0.3772
    -0.3716  -0.3650  -0.3559  -0.3060  -0.3056  -0.3032  -0.2992  -0.2937
    -0.2930  -0.2860  -0.2725  -0.2649  -0.2587  -0.2560  -0.2552  -0.2445
    -0.2133  -0.2123  -0.2102  -0.2048  -0.2021  -0.1975  -0.1952  -0.1880
    -0.1781  -0.1764  -0.1560  -0.1443  -0.1405  -0.1352  -0.1212  -0.1179
    -0.0682  -0.0666  -0.0395  -0.0368  -0.0306  -0.0268   0.0030   0.0122
     0.0129   0.0261   0.0320   0.0698   0.1091   0.1192   0.2244   0.6250
     0.6259   0.6508   0.6514   0.7057   0.7349   1.0608   1.0631   1.0738
     1.0793   1.2503   1.3197   1.3977   1.4270   1.6517   1.6945   2.2432
     2.2593   2.3715   2.3954   2.5778   2.6136   2.6617   2.6629   2.7502
     3.0174   3.0398   3.2084   3.4125   3.4299   3.4520   3.4626   3.5168
     3.6194   3.7611   3.7812   3.8263   4.0692   4.0709   4.1353   4.1576
     4.3761   4.4009   4.4201   4.6036   4.6126   4.6724   4.7553   5.0425
     5.0770   5.0871   5.2735   5.3635   5.3649   5.3869   5.4445   5.5855
     6.0907   6.1481   6.1624   6.2221   6.2291   6.2404   6.3073   6.3239
     6.3613   6.3787   6.3867   6.3962   6.4392   6.4431   6.4540   6.4642
     6.5151   6.7556   6.7935   6.8410   7.0264   7.0482   7.0794   7.1097
     7.1169   7.2414   7.2426

          k = 0.2500-0.4330-0.1111 (136853 PWs)   bands (ev):

   -19.5217  -7.2907  -6.1946  -5.7963  -5.7927  -5.1257  -4.7794  -4.7693
    -4.7589  -4.7444  -4.3490  -4.3206  -4.2887  -4.2345  -4.1983  -4.1956
    -4.1756  -4.1401  -4.0379  -4.0321  -3.9905  -3.9460  -3.9459  -3.9448
    -3.9239  -3.8950  -3.8889  -3.8677  -3.8612  -3.8446  -3.8288  -3.8149
    -3.7481  -3.7458  -3.7292  -3.7255  -3.6861  -3.6853  -3.6772  -3.6638
    -3.6626  -3.6572  -3.5866  -3.5851  -3.5243  -3.5227  -3.5093  -3.5058
    -3.4468  -3.4398  -3.4161  -3.4149  -3.3781  -3.3667  -3.3655  -3.3443
    -3.3435  -3.3427  -3.3368  -3.3340  -3.3159  -3.2567  -3.2505  -3.2489
    -3.2250  -3.1924  -3.1657  -3.1610  -3.1117  -3.1104  -3.0854  -3.0840
    -3.0560  -3.0279  -2.9953  -2.9923  -2.9572  -2.9549  -2.9207  -2.9181
    -2.9152  -2.8738  -2.8437  -2.8433  -2.8226  -2.8206  -2.8159  -2.8155
    -2.8144  -2.8107  -2.8061  -2.7505  -2.6928  -2.6914  -2.6913  -2.6894
    -2.6859  -2.6652  -2.6644  -2.6436  -2.5703  -2.5698  -2.5663  -2.5627
    -2.5123  -2.5084  -2.5054  -2.4880  -2.4872  -2.4342  -2.4213  -2.4185
    -2.4147  -2.3761  -2.3735  -2.3724  -2.3319  -2.3304  -2.2787  -2.2539
    -2.2520  -2.2496  -2.2480  -2.2265  -2.2248  -2.2213  -2.2158  -2.2149
    -2.1796  -2.1487  -2.1437  -2.1356  -2.1349  -2.1346  -2.1341  -2.1328
    -2.1321  -2.1300  -2.0988  -2.0970  -2.0961  -2.0957  -2.0926  -2.0796
    -2.0759  -2.0745  -2.0490  -2.0480  -2.0458  -2.0245  -2.0229  -2.0067
    -2.0045  -1.9822  -1.9789  -1.9772  -1.9746  -1.9726  -1.9694  -1.9688
    -1.9658  -1.9534  -1.9500  -1.9380  -1.9337  -1.9294  -1.8516  -1.8509
    -1.8359  -1.8347  -1.8269  -1.8146  -1.7983  -1.7846  -1.7833  -1.7662
    -1.7592  -1.7458  -1.7413  -1.7361  -1.7219  -1.7096  -1.7071  -1.7045
    -1.6972  -1.6810  -1.6629  -1.6613  -1.6241  -1.6095  -1.6027  -1.5868
    -1.5853  -1.5298  -1.5254  -1.5237  -1.5096  -1.4809  -1.4443  -1.4428
    -1.4003  -1.3844  -1.3756  -1.3507  -1.3476  -1.3233  -1.3193  -1.3038
    -1.3018  -1.3012  -1.2962  -1.2831  -1.2463  -1.2443  -1.2385  -1.2378
    -1.2350  -1.2326  -1.2055  -1.2049  -1.1934  -1.1689  -1.1597  -1.1534
    -1.1525  -1.1509  -1.1315  -1.1263  -1.1002  -1.0987  -1.0975  -1.0954
    -1.0804  -1.0640  -1.0310  -1.0194  -1.0152  -1.0106  -0.9931  -0.9828
    -0.9451  -0.9114  -0.8633  -0.8617  -0.8610  -0.8593  -0.8545  -0.8525
    -0.8467  -0.8406  -0.8366  -0.7895  -0.7880  -0.7734  -0.7690  -0.7558
    -0.7429  -0.7418  -0.7313  -0.7289  -0.7281  -0.7258  -0.7245  -0.6871
    -0.6760  -0.6690  -0.6683  -0.6673  -0.6561  -0.6498  -0.6240  -0.6147
    -0.6081  -0.5868  -0.5682  -0.5595  -0.5258  -0.5199  -0.5091  -0.5086
    -0.5026  -0.5003  -0.4930  -0.4894  -0.4860  -0.4779  -0.4593  -0.4574
    -0.4486  -0.4444  -0.4351  -0.4263  -0.4138  -0.4048  -0.4035  -0.3772
    -0.3716  -0.3650  -0.3559  -0.3060  -0.3056  -0.3032  -0.2992  -0.2937
    -0.2930  -0.2860  -0.2725  -0.2649  -0.2587  -0.2560  -0.2552  -0.2445
    -0.2133  -0.2123  -0.2102  -0.2048  -0.2021  -0.1975  -0.1952  -0.1880
    -0.1781  -0.1764  -0.1560  -0.1443  -0.1405  -0.1352  -0.1212  -0.1179
    -0.0682  -0.0666  -0.0395  -0.0368  -0.0306  -0.0268   0.0030   0.0122
     0.0129   0.0261   0.0320   0.0698   0.1091   0.1192   0.2244   0.6250
     0.6259   0.6508   0.6514   0.7057   0.7349   1.0608   1.0631   1.0738
     1.0793   1.2503   1.3197   1.3977   1.4270   1.6517   1.6945   2.2432
     2.2593   2.3715   2.3954   2.5778   2.6136   2.6617   2.6629   2.7502
     3.0174   3.0398   3.2084   3.4125   3.4299   3.4520   3.4626   3.5168
     3.6194   3.7611   3.7812   3.8263   4.0692   4.0709   4.1353   4.1576
     4.3761   4.4009   4.4201   4.6036   4.6126   4.6724   4.7553   5.0425
     5.0770   5.0871   5.2735   5.3635   5.3649   5.3869   5.4445   5.5855
     6.0907   6.1481   6.1624   6.2222   6.2292   6.2405   6.3072   6.3238
     6.3612   6.3787   6.3867   6.3961   6.4389   6.4433   6.4540   6.4642
     6.5151   6.7555   6.7935   6.8416   7.0268   7.0472   7.0798   7.1096
     7.1174   7.2384   7.2429

          k = 0.5000 0.0000 0.1111 (136853 PWs)   bands (ev):

   -19.5217  -7.2907  -6.1946  -5.7971  -5.7918  -5.1256  -4.7797  -4.7702
    -4.7597  -4.7425  -4.3482  -4.3217  -4.2881  -4.2351  -4.1986  -4.1952
    -4.1755  -4.1399  -4.0369  -4.0332  -3.9904  -3.9462  -3.9457  -3.9450
    -3.9240  -3.8948  -3.8891  -3.8673  -3.8611  -3.8447  -3.8281  -3.8160
    -3.7490  -3.7451  -3.7293  -3.7253  -3.6857  -3.6849  -3.6777  -3.6635
    -3.6629  -3.6574  -3.5862  -3.5855  -3.5247  -3.5224  -3.5095  -3.5055
    -3.4462  -3.4400  -3.4161  -3.4149  -3.3781  -3.3668  -3.3652  -3.3444
    -3.3438  -3.3427  -3.3365  -3.3344  -3.3160  -3.2569  -3.2500  -3.2491
    -3.2250  -3.1923  -3.1662  -3.1608  -3.1123  -3.1101  -3.0848  -3.0844
    -3.0560  -3.0278  -2.9950  -2.9925  -2.9572  -2.9550  -2.9217  -2.9173
    -2.9153  -2.8736  -2.8443  -2.8436  -2.8224  -2.8202  -2.8153  -2.8148
    -2.8145  -2.8118  -2.8060  -2.7504  -2.6920  -2.6916  -2.6910  -2.6901
    -2.6857  -2.6653  -2.6645  -2.6437  -2.5707  -2.5692  -2.5672  -2.5625
    -2.5125  -2.5078  -2.5059  -2.4902  -2.4866  -2.4340  -2.4208  -2.4182
    -2.4147  -2.3749  -2.3733  -2.3723  -2.3319  -2.3306  -2.2788  -2.2536
    -2.2520  -2.2508  -2.2477  -2.2274  -2.2244  -2.2213  -2.2170  -2.2145
    -2.1794  -2.1470  -2.1433  -2.1359  -2.1350  -2.1344  -2.1340  -2.1333
    -2.1328  -2.1244  -2.0982  -2.0976  -2.0963  -2.0953  -2.0919  -2.0798
    -2.0768  -2.0756  -2.0491  -2.0481  -2.0457  -2.0256  -2.0245  -2.0085
    -2.0047  -1.9827  -1.9777  -1.9771  -1.9739  -1.9729  -1.9695  -1.9683
    -1.9655  -1.9531  -1.9507  -1.9378  -1.9346  -1.9296  -1.8517  -1.8502
    -1.8364  -1.8338  -1.8246  -1.8152  -1.8043  -1.7881  -1.7836  -1.7643
    -1.7591  -1.7460  -1.7412  -1.7358  -1.7201  -1.7107  -1.7073  -1.7061
    -1.6964  -1.6822  -1.6625  -1.6443  -1.6233  -1.6102  -1.6023  -1.5905
    -1.5847  -1.5312  -1.5255  -1.5234  -1.5101  -1.4913  -1.4446  -1.4431
    -1.4004  -1.3831  -1.3761  -1.3508  -1.3462  -1.3231  -1.3205  -1.3033
    -1.3026  -1.3008  -1.2963  -1.2831  -1.2456  -1.2441  -1.2417  -1.2378
    -1.2349  -1.2224  -1.2055  -1.2048  -1.1928  -1.1682  -1.1590  -1.1553
    -1.1525  -1.1499  -1.1371  -1.1270  -1.1007  -1.0994  -1.0972  -1.0920
    -1.0763  -1.0646  -1.0299  -1.0186  -1.0153  -1.0107  -0.9934  -0.9869
    -0.9466  -0.9112  -0.8632  -0.8615  -0.8605  -0.8585  -0.8545  -0.8529
    -0.8476  -0.8403  -0.8357  -0.7899  -0.7885  -0.7729  -0.7715  -0.7570
    -0.7427  -0.7413  -0.7313  -0.7281  -0.7274  -0.7258  -0.7239  -0.6856
    -0.6789  -0.6689  -0.6680  -0.6665  -0.6554  -0.6510  -0.6240  -0.6136
    -0.6092  -0.5858  -0.5672  -0.5600  -0.5257  -0.5192  -0.5094  -0.5087
    -0.5017  -0.5004  -0.4925  -0.4896  -0.4873  -0.4782  -0.4595  -0.4570
    -0.4485  -0.4445  -0.4353  -0.4237  -0.4150  -0.4048  -0.4035  -0.3781
    -0.3714  -0.3650  -0.3561  -0.3058  -0.3053  -0.3040  -0.2994  -0.2940
    -0.2919  -0.2866  -0.2720  -0.2650  -0.2584  -0.2563  -0.2553  -0.2444
    -0.2131  -0.2120  -0.2105  -0.2044  -0.2025  -0.1970  -0.1958  -0.1875
    -0.1784  -0.1761  -0.1564  -0.1439  -0.1408  -0.1352  -0.1212  -0.1182
    -0.0686  -0.0666  -0.0396  -0.0370  -0.0308  -0.0265   0.0030   0.0123
     0.0129   0.0281   0.0319   0.0674   0.1097   0.1175   0.2235   0.6247
     0.6259   0.6509   0.6515   0.7082   0.7332   1.0619   1.0632   1.0744
     1.0785   1.2487   1.3191   1.4002   1.4238   1.6551   1.6930   2.2452
     2.2579   2.3734   2.3924   2.5810   2.6106   2.6615   2.6629   2.7504
     3.0165   3.0402   3.2091   3.4147   3.4309   3.4522   3.4595   3.5181
     3.6193   3.7668   3.7781   3.8263   4.0693   4.0707   4.1365   4.1532
     4.3772   4.3999   4.4206   4.6032   4.6127   4.6721   4.7556   5.0432
     5.0775   5.0866   5.2724   5.3536   5.3644   5.3686   5.4548   5.6142
     6.0900   6.1478   6.1604   6.1783   6.2291   6.2361   6.3078   6.3545
     6.3681   6.3836   6.3872   6.3970   6.4376   6.4451   6.4534   6.4569
     6.5147   6.7498   6.8062   6.8364   7.0352   7.0593   7.0801   7.1143
     7.1226   7.2166   7.2433

          k =-0.5000 0.0000 0.1111 (136853 PWs)   bands (ev):

   -19.5217  -7.2907  -6.1946  -5.7971  -5.7918  -5.1256  -4.7797  -4.7702
    -4.7597  -4.7425  -4.3482  -4.3217  -4.2881  -4.2351  -4.1986  -4.1952
    -4.1755  -4.1399  -4.0369  -4.0332  -3.9904  -3.9462  -3.9457  -3.9450
    -3.9240  -3.8948  -3.8891  -3.8673  -3.8611  -3.8447  -3.8281  -3.8160
    -3.7490  -3.7451  -3.7293  -3.7253  -3.6857  -3.6849  -3.6777  -3.6635
    -3.6629  -3.6574  -3.5862  -3.5855  -3.5247  -3.5224  -3.5095  -3.5055
    -3.4462  -3.4400  -3.4161  -3.4149  -3.3781  -3.3668  -3.3652  -3.3444
    -3.3438  -3.3427  -3.3365  -3.3344  -3.3160  -3.2569  -3.2500  -3.2491
    -3.2250  -3.1923  -3.1662  -3.1608  -3.1123  -3.1101  -3.0848  -3.0844
    -3.0560  -3.0278  -2.9950  -2.9925  -2.9572  -2.9550  -2.9217  -2.9173
    -2.9153  -2.8736  -2.8443  -2.8436  -2.8224  -2.8202  -2.8153  -2.8148
    -2.8145  -2.8118  -2.8060  -2.7504  -2.6920  -2.6916  -2.6910  -2.6901
    -2.6857  -2.6653  -2.6645  -2.6437  -2.5707  -2.5692  -2.5672  -2.5625
    -2.5125  -2.5078  -2.5059  -2.4902  -2.4866  -2.4340  -2.4208  -2.4182
    -2.4147  -2.3749  -2.3733  -2.3723  -2.3319  -2.3306  -2.2788  -2.2536
    -2.2520  -2.2508  -2.2477  -2.2274  -2.2244  -2.2213  -2.2170  -2.2145
    -2.1794  -2.1470  -2.1433  -2.1359  -2.1350  -2.1344  -2.1340  -2.1333
    -2.1328  -2.1244  -2.0982  -2.0976  -2.0963  -2.0953  -2.0919  -2.0798
    -2.0768  -2.0756  -2.0491  -2.0481  -2.0457  -2.0256  -2.0245  -2.0085
    -2.0047  -1.9827  -1.9777  -1.9771  -1.9739  -1.9729  -1.9695  -1.9683
    -1.9655  -1.9531  -1.9507  -1.9378  -1.9346  -1.9296  -1.8517  -1.8502
    -1.8364  -1.8338  -1.8246  -1.8151  -1.8043  -1.7881  -1.7836  -1.7643
    -1.7591  -1.7460  -1.7412  -1.7358  -1.7201  -1.7107  -1.7073  -1.7061
    -1.6964  -1.6822  -1.6625  -1.6443  -1.6233  -1.6102  -1.6023  -1.5905
    -1.5847  -1.5312  -1.5255  -1.5234  -1.5101  -1.4913  -1.4446  -1.4430
    -1.4004  -1.3831  -1.3761  -1.3508  -1.3462  -1.3231  -1.3205  -1.3033
    -1.3026  -1.3008  -1.2963  -1.2831  -1.2456  -1.2441  -1.2417  -1.2378
    -1.2349  -1.2224  -1.2055  -1.2048  -1.1928  -1.1682  -1.1590  -1.1553
    -1.1525  -1.1499  -1.1371  -1.1270  -1.1007  -1.0994  -1.0972  -1.0920
    -1.0763  -1.0646  -1.0299  -1.0186  -1.0153  -1.0107  -0.9934  -0.9869
    -0.9466  -0.9112  -0.8632  -0.8615  -0.8605  -0.8585  -0.8545  -0.8529
    -0.8476  -0.8403  -0.8357  -0.7899  -0.7885  -0.7729  -0.7715  -0.7570
    -0.7427  -0.7413  -0.7313  -0.7281  -0.7274  -0.7259  -0.7239  -0.6856
    -0.6789  -0.6689  -0.6680  -0.6665  -0.6554  -0.6510  -0.6240  -0.6136
    -0.6092  -0.5858  -0.5672  -0.5600  -0.5257  -0.5192  -0.5094  -0.5087
    -0.5017  -0.5004  -0.4925  -0.4896  -0.4873  -0.4782  -0.4595  -0.4570
    -0.4485  -0.4445  -0.4353  -0.4237  -0.4150  -0.4048  -0.4035  -0.3781
    -0.3714  -0.3650  -0.3561  -0.3058  -0.3053  -0.3040  -0.2994  -0.2940
    -0.2919  -0.2866  -0.2720  -0.2650  -0.2584  -0.2563  -0.2553  -0.2444
    -0.2131  -0.2120  -0.2105  -0.2044  -0.2025  -0.1970  -0.1958  -0.1875
    -0.1784  -0.1761  -0.1564  -0.1439  -0.1408  -0.1352  -0.1212  -0.1182
    -0.0686  -0.0666  -0.0396  -0.0370  -0.0308  -0.0265   0.0030   0.0123
     0.0129   0.0281   0.0319   0.0674   0.1097   0.1175   0.2235   0.6247
     0.6259   0.6509   0.6515   0.7082   0.7332   1.0619   1.0632   1.0744
     1.0785   1.2487   1.3191   1.4002   1.4238   1.6551   1.6930   2.2452
     2.2579   2.3734   2.3924   2.5810   2.6106   2.6615   2.6629   2.7504
     3.0165   3.0402   3.2091   3.4147   3.4309   3.4522   3.4595   3.5181
     3.6193   3.7668   3.7781   3.8263   4.0693   4.0707   4.1365   4.1532
     4.3772   4.3999   4.4206   4.6032   4.6127   4.6721   4.7556   5.0432
     5.0775   5.0866   5.2724   5.3536   5.3644   5.3686   5.4548   5.6142
     6.0900   6.1477   6.1604   6.1783   6.2292   6.2362   6.3077   6.3547
     6.3682   6.3836   6.3872   6.3969   6.4376   6.4453   6.4534   6.4569
     6.5150   6.7498   6.8022   6.8383   7.0385   7.0569   7.0824   7.1142
     7.1244   7.2121   7.2432

          k =-0.2500 0.1443 0.1111 (136898 PWs)   bands (ev):

   -19.5217  -7.2907  -6.4045  -5.6103  -5.3283  -5.2574  -5.2556  -4.7037
    -4.6986  -4.6042  -4.5511  -4.4272  -4.3610  -4.3247  -4.2983  -4.2525
    -4.2015  -4.1783  -4.1464  -4.0408  -3.9988  -3.9983  -3.9790  -3.9770
    -3.9502  -3.8556  -3.8534  -3.7764  -3.7646  -3.7632  -3.7585  -3.7427
    -3.7394  -3.6772  -3.6214  -3.6199  -3.6090  -3.5989  -3.5949  -3.5880
    -3.5853  -3.5790  -3.5323  -3.5305  -3.5220  -3.5206  -3.5112  -3.5101
    -3.4818  -3.4750  -3.4726  -3.4433  -3.4407  -3.4230  -3.4182  -3.3972
    -3.3579  -3.3572  -3.2974  -3.2955  -3.2762  -3.2689  -3.2604  -3.1848
    -3.1843  -3.1762  -3.1717  -3.1604  -3.1547  -3.1371  -3.1368  -2.9843
    -2.9817  -2.9688  -2.9674  -2.9631  -2.9230  -2.9216  -2.9191  -2.9163
    -2.8622  -2.8605  -2.8434  -2.8424  -2.8038  -2.7829  -2.7815  -2.7598
    -2.7515  -2.7495  -2.7069  -2.7058  -2.6874  -2.6856  -2.6804  -2.6774
    -2.6568  -2.6554  -2.6122  -2.6116  -2.6056  -2.6026  -2.5884  -2.5438
    -2.5430  -2.5169  -2.5094  -2.5054  -2.4329  -2.4313  -2.4006  -2.3991
    -2.3956  -2.3821  -2.3606  -2.3357  -2.3347  -2.3185  -2.3128  -2.3117
    -2.3097  -2.3014  -2.2906  -2.2893  -2.2812  -2.2804  -2.2727  -2.2718
    -2.2179  -2.1940  -2.1731  -2.1718  -2.1712  -2.1548  -2.1542  -2.1522
    -2.1507  -2.1408  -2.1099  -2.1086  -2.0974  -2.0906  -2.0818  -2.0797
    -2.0787  -2.0540  -2.0521  -2.0436  -2.0335  -2.0304  -1.9754  -1.9639
    -1.9560  -1.9529  -1.9518  -1.9370  -1.9331  -1.9168  -1.8998  -1.8969
    -1.8959  -1.8932  -1.8833  -1.8773  -1.8719  -1.8561  -1.8536  -1.8423
    -1.8054  -1.7930  -1.7922  -1.7857  -1.7856  -1.7813  -1.7725  -1.7711
    -1.7674  -1.7671  -1.7548  -1.7516  -1.7510  -1.6840  -1.6373  -1.6302
    -1.6077  -1.6067  -1.5917  -1.5803  -1.5780  -1.5717  -1.5693  -1.5524
    -1.5468  -1.5458  -1.5446  -1.5337  -1.5148  -1.5040  -1.5014  -1.4877
    -1.4733  -1.4711  -1.4674  -1.4663  -1.4568  -1.4172  -1.3938  -1.3850
    -1.3694  -1.3639  -1.3599  -1.3554  -1.3315  -1.3304  -1.3268  -1.3257
    -1.3248  -1.3191  -1.3110  -1.3062  -1.2759  -1.2543  -1.2470  -1.2239
    -1.2202  -1.2001  -1.1759  -1.1630  -1.1420  -1.1372  -1.1288  -1.1283
    -1.1174  -1.0980  -1.0874  -1.0796  -1.0752  -1.0477  -1.0450  -1.0307
    -1.0217  -0.9967  -0.9940  -0.9825  -0.9316  -0.9302  -0.9252  -0.9242
    -0.9063  -0.9041  -0.8899  -0.8838  -0.8577  -0.8464  -0.8253  -0.8237
    -0.8210  -0.7885  -0.7739  -0.7731  -0.7695  -0.7649  -0.7565  -0.7558
    -0.7527  -0.7246  -0.7215  -0.7195  -0.7098  -0.7031  -0.7002  -0.6883
    -0.6827  -0.6672  -0.6547  -0.6369  -0.6223  -0.5534  -0.5351  -0.5347
    -0.5343  -0.5308  -0.5283  -0.5232  -0.5035  -0.4983  -0.4769  -0.4739
    -0.4713  -0.4610  -0.4532  -0.4375  -0.4342  -0.4293  -0.4170  -0.3349
    -0.3342  -0.3103  -0.3031  -0.2999  -0.2932  -0.2896  -0.2877  -0.2874
    -0.2841  -0.2757  -0.2548  -0.2271  -0.2177  -0.2013  -0.1998  -0.1928
    -0.1896  -0.1854  -0.1772  -0.1760  -0.1737  -0.1670  -0.1556  -0.1532
    -0.1441  -0.1214  -0.1199  -0.1125  -0.1013  -0.0980  -0.0786  -0.0536
    -0.0501  -0.0435  -0.0378   0.0251   0.0277   0.0418   0.0419   0.1046
     0.1051   0.1065   0.1230   0.1321   0.3365   0.3705   0.6874   0.6878
     0.7543   0.7818   0.9137   0.9398   0.9911   1.0955   1.1029   1.4768
     1.5450   1.5455   1.7789   1.7795   1.8366   2.1310   2.1561   2.1754
     2.1795   2.2087   2.2384   2.3696   2.3710   2.5458   2.5471   2.5509
     2.6901   2.7212   2.7555   2.9632   3.3218   3.3259   3.3617   3.3685
     3.3708   3.3889   3.7022   3.7035   4.0268   4.0455   4.0956   4.3721
     4.4933   4.5077   4.6656   4.6845   4.7855   4.7956   4.8680   5.0244
     5.0406   5.1220   5.1284   5.3970   5.4273   5.4696   5.4890   5.6308
     5.7121   5.8135   5.8186   5.8207   5.8294   5.9577   5.9673   6.0274
     6.2278   6.3813   6.5498   6.6035   6.6401   6.6446   6.6456   6.6637
     6.6768   6.7704   6.8589   6.8684   6.9809   7.1271   7.1683   7.1939
     7.2430   7.3098   7.3588

          k =-0.2500-0.1443-0.1111 (136898 PWs)   bands (ev):

   -19.5217  -7.2907  -6.4045  -5.6103  -5.3283  -5.2575  -5.2555  -4.7038
    -4.6985  -4.6040  -4.5513  -4.4272  -4.3612  -4.3241  -4.2981  -4.2528
    -4.2015  -4.1784  -4.1467  -4.0407  -3.9987  -3.9985  -3.9787  -3.9769
    -3.9505  -3.8556  -3.8532  -3.7761  -3.7644  -3.7634  -3.7587  -3.7430
    -3.7391  -3.6768  -3.6215  -3.6201  -3.6088  -3.5989  -3.5952  -3.5880
    -3.5857  -3.5786  -3.5323  -3.5306  -3.5218  -3.5205  -3.5111  -3.5105
    -3.4813  -3.4749  -3.4725  -3.4430  -3.4412  -3.4230  -3.4192  -3.3969
    -3.3580  -3.3571  -3.2974  -3.2955  -3.2761  -3.2690  -3.2600  -3.1849
    -3.1844  -3.1759  -3.1718  -3.1604  -3.1549  -3.1372  -3.1370  -2.9841
    -2.9818  -2.9699  -2.9672  -2.9623  -2.9231  -2.9218  -2.9190  -2.9165
    -2.8623  -2.8606  -2.8432  -2.8422  -2.8036  -2.7834  -2.7818  -2.7591
    -2.7517  -2.7496  -2.7073  -2.7055  -2.6873  -2.6852  -2.6807  -2.6774
    -2.6565  -2.6553  -2.6130  -2.6122  -2.6056  -2.6027  -2.5881  -2.5432
    -2.5425  -2.5170  -2.5094  -2.5054  -2.4356  -2.4313  -2.4005  -2.3992
    -2.3938  -2.3819  -2.3606  -2.3360  -2.3347  -2.3173  -2.3142  -2.3128
    -2.3102  -2.2987  -2.2912  -2.2888  -2.2813  -2.2800  -2.2731  -2.2708
    -2.2180  -2.1928  -2.1738  -2.1728  -2.1713  -2.1548  -2.1541  -2.1526
    -2.1503  -2.1406  -2.1106  -2.1080  -2.0979  -2.0906  -2.0831  -2.0801
    -2.0784  -2.0541  -2.0519  -2.0416  -2.0336  -2.0305  -1.9755  -1.9648
    -1.9557  -1.9529  -1.9516  -1.9440  -1.9329  -1.9170  -1.8994  -1.8965
    -1.8933  -1.8929  -1.8831  -1.8824  -1.8718  -1.8562  -1.8446  -1.8422
    -1.8082  -1.7922  -1.7921  -1.7858  -1.7844  -1.7806  -1.7762  -1.7709
    -1.7691  -1.7645  -1.7559  -1.7515  -1.7502  -1.6866  -1.6371  -1.6243
    -1.6075  -1.6045  -1.5933  -1.5820  -1.5743  -1.5723  -1.5686  -1.5633
    -1.5464  -1.5453  -1.5450  -1.5314  -1.5096  -1.5018  -1.4998  -1.4957
    -1.4722  -1.4717  -1.4682  -1.4572  -1.4562  -1.4194  -1.3964  -1.3890
    -1.3680  -1.3665  -1.3583  -1.3552  -1.3308  -1.3304  -1.3265  -1.3260
    -1.3251  -1.3126  -1.3099  -1.2980  -1.2917  -1.2497  -1.2410  -1.2246
    -1.2156  -1.2103  -1.1713  -1.1691  -1.1382  -1.1345  -1.1288  -1.1281
    -1.1168  -1.1028  -1.0967  -1.0784  -1.0731  -1.0475  -1.0469  -1.0265
    -1.0250  -0.9960  -0.9922  -0.9816  -0.9307  -0.9295  -0.9248  -0.9212
    -0.9063  -0.9036  -0.8888  -0.8877  -0.8566  -0.8455  -0.8253  -0.8237
    -0.8225  -0.7912  -0.7743  -0.7715  -0.7705  -0.7619  -0.7593  -0.7556
    -0.7550  -0.7245  -0.7219  -0.7208  -0.7064  -0.7053  -0.6973  -0.6931
    -0.6813  -0.6613  -0.6569  -0.6352  -0.6223  -0.5546  -0.5351  -0.5344
    -0.5341  -0.5322  -0.5258  -0.5247  -0.5040  -0.4981  -0.4760  -0.4750
    -0.4704  -0.4637  -0.4523  -0.4359  -0.4332  -0.4321  -0.4167  -0.3354
    -0.3347  -0.3088  -0.3058  -0.2993  -0.2938  -0.2893  -0.2879  -0.2869
    -0.2825  -0.2749  -0.2563  -0.2273  -0.2176  -0.2009  -0.2005  -0.1927
    -0.1897  -0.1852  -0.1769  -0.1764  -0.1733  -0.1677  -0.1551  -0.1532
    -0.1443  -0.1218  -0.1195  -0.1120  -0.1013  -0.0981  -0.0785  -0.0534
    -0.0502  -0.0431  -0.0381   0.0248   0.0278   0.0415   0.0422   0.1046
     0.1058   0.1060   0.1220   0.1321   0.3404   0.3674   0.6875   0.6875
     0.7580   0.7799   0.9124   0.9359   0.9916   1.0968   1.1018   1.4754
     1.5450   1.5460   1.7789   1.7804   1.8372   2.1356   2.1526   2.1772
     2.1776   2.2116   2.2347   2.3691   2.3729   2.5450   2.5472   2.5515
     2.6940   2.7143   2.7564   2.9652   3.3231   3.3258   3.3635   3.3669
     3.3727   3.3868   3.7030   3.7033   4.0300   4.0445   4.0969   4.3720
     4.4951   4.5060   4.6640   4.6784   4.7862   4.7927   4.8716   5.0242
     5.0346   5.1231   5.1278   5.4043   5.4205   5.4641   5.4953   5.6446
     5.7163   5.8143   5.8167   5.8218   5.8290   5.9577   5.9689   6.0212
     6.2041   6.3487   6.5485   6.6000   6.6433   6.6457   6.6471   6.6636
     6.7568   6.7944   6.8616   6.8620   6.9654   7.0787   7.1773   7.1898
     7.2880   7.3047   7.3354

          k = 0.2500 0.1443-0.1111 (136898 PWs)   bands (ev):

   -19.5217  -7.2907  -6.4045  -5.6103  -5.3283  -5.2575  -5.2555  -4.7038
    -4.6985  -4.6040  -4.5513  -4.4272  -4.3612  -4.3241  -4.2981  -4.2528
    -4.2015  -4.1784  -4.1467  -4.0407  -3.9987  -3.9985  -3.9787  -3.9769
    -3.9505  -3.8556  -3.8532  -3.7761  -3.7645  -3.7634  -3.7587  -3.7430
    -3.7391  -3.6768  -3.6215  -3.6201  -3.6088  -3.5989  -3.5952  -3.5880
    -3.5857  -3.5786  -3.5323  -3.5307  -3.5218  -3.5205  -3.5111  -3.5105
    -3.4813  -3.4749  -3.4726  -3.4430  -3.4412  -3.4230  -3.4192  -3.3969
    -3.3580  -3.3571  -3.2974  -3.2955  -3.2761  -3.2690  -3.2600  -3.1849
    -3.1844  -3.1759  -3.1718  -3.1604  -3.1549  -3.1372  -3.1370  -2.9841
    -2.9818  -2.9699  -2.9672  -2.9623  -2.9231  -2.9218  -2.9190  -2.9165
    -2.8623  -2.8606  -2.8432  -2.8422  -2.8036  -2.7834  -2.7818  -2.7591
    -2.7517  -2.7496  -2.7073  -2.7055  -2.6873  -2.6852  -2.6807  -2.6774
    -2.6565  -2.6553  -2.6130  -2.6122  -2.6056  -2.6027  -2.5881  -2.5432
    -2.5425  -2.5170  -2.5094  -2.5054  -2.4356  -2.4313  -2.4005  -2.3992
    -2.3938  -2.3819  -2.3606  -2.3360  -2.3347  -2.3173  -2.3142  -2.3128
    -2.3102  -2.2987  -2.2912  -2.2888  -2.2813  -2.2800  -2.2731  -2.2708
    -2.2179  -2.1928  -2.1738  -2.1728  -2.1713  -2.1548  -2.1541  -2.1526
    -2.1503  -2.1406  -2.1106  -2.1080  -2.0979  -2.0906  -2.0831  -2.0801
    -2.0784  -2.0541  -2.0519  -2.0416  -2.0336  -2.0305  -1.9755  -1.9648
    -1.9557  -1.9529  -1.9516  -1.9440  -1.9329  -1.9170  -1.8994  -1.8965
    -1.8933  -1.8929  -1.8831  -1.8824  -1.8718  -1.8562  -1.8446  -1.8422
    -1.8082  -1.7922  -1.7921  -1.7858  -1.7844  -1.7806  -1.7762  -1.7709
    -1.7691  -1.7645  -1.7559  -1.7515  -1.7502  -1.6866  -1.6371  -1.6243
    -1.6075  -1.6045  -1.5933  -1.5820  -1.5743  -1.5723  -1.5686  -1.5633
    -1.5464  -1.5453  -1.5450  -1.5314  -1.5096  -1.5018  -1.4998  -1.4957
    -1.4722  -1.4717  -1.4682  -1.4572  -1.4562  -1.4194  -1.3964  -1.3890
    -1.3680  -1.3665  -1.3583  -1.3552  -1.3308  -1.3304  -1.3265  -1.3260
    -1.3251  -1.3126  -1.3099  -1.2980  -1.2917  -1.2497  -1.2410  -1.2246
    -1.2156  -1.2103  -1.1713  -1.1691  -1.1382  -1.1345  -1.1288  -1.1281
    -1.1168  -1.1028  -1.0967  -1.0784  -1.0731  -1.0475  -1.0469  -1.0265
    -1.0250  -0.9960  -0.9922  -0.9816  -0.9307  -0.9295  -0.9248  -0.9212
    -0.9063  -0.9036  -0.8888  -0.8877  -0.8566  -0.8455  -0.8253  -0.8237
    -0.8225  -0.7912  -0.7743  -0.7715  -0.7705  -0.7619  -0.7593  -0.7556
    -0.7550  -0.7245  -0.7219  -0.7208  -0.7064  -0.7053  -0.6973  -0.6931
    -0.6813  -0.6613  -0.6569  -0.6352  -0.6223  -0.5546  -0.5351  -0.5344
    -0.5341  -0.5322  -0.5258  -0.5247  -0.5040  -0.4981  -0.4760  -0.4750
    -0.4704  -0.4637  -0.4523  -0.4359  -0.4332  -0.4321  -0.4167  -0.3354
    -0.3347  -0.3088  -0.3058  -0.2993  -0.2938  -0.2893  -0.2879  -0.2869
    -0.2825  -0.2749  -0.2563  -0.2273  -0.2176  -0.2009  -0.2005  -0.1927
    -0.1897  -0.1852  -0.1769  -0.1764  -0.1733  -0.1677  -0.1551  -0.1532
    -0.1443  -0.1218  -0.1195  -0.1120  -0.1013  -0.0981  -0.0785  -0.0534
    -0.0502  -0.0431  -0.0381   0.0248   0.0278   0.0415   0.0422   0.1047
     0.1058   0.1060   0.1220   0.1321   0.3404   0.3673   0.6875   0.6875
     0.7580   0.7799   0.9124   0.9359   0.9916   1.0968   1.1018   1.4754
     1.5450   1.5460   1.7789   1.7804   1.8372   2.1356   2.1526   2.1772
     2.1776   2.2116   2.2347   2.3691   2.3729   2.5450   2.5472   2.5515
     2.6940   2.7143   2.7564   2.9652   3.3231   3.3258   3.3635   3.3669
     3.3727   3.3868   3.7030   3.7033   4.0300   4.0445   4.0969   4.3720
     4.4951   4.5060   4.6640   4.6784   4.7862   4.7927   4.8716   5.0242
     5.0346   5.1231   5.1278   5.4043   5.4205   5.4641   5.4952   5.6446
     5.7163   5.8143   5.8167   5.8218   5.8289   5.9577   5.9689   6.0212
     6.2034   6.3513   6.5485   6.5955   6.6440   6.6457   6.6471   6.6665
     6.7546   6.7933   6.8615   6.8620   6.9573   7.0818   7.1788   7.1898
     7.2981   7.3166   7.3372

          k = 0.0000-0.2887 0.1111 (136898 PWs)   bands (ev):

   -19.5217  -7.2907  -6.4045  -5.6103  -5.3284  -5.2574  -5.2556  -4.7036
    -4.6986  -4.6041  -4.5511  -4.4276  -4.3612  -4.3246  -4.2982  -4.2527
    -4.2012  -4.1782  -4.1462  -4.0407  -3.9989  -3.9982  -3.9789  -3.9773
    -3.9502  -3.8556  -3.8533  -3.7763  -3.7646  -3.7633  -3.7587  -3.7427
    -3.7393  -3.6771  -3.6215  -3.6199  -3.6090  -3.5990  -3.5951  -3.5880
    -3.5854  -3.5789  -3.5323  -3.5304  -3.5218  -3.5204  -3.5112  -3.5104
    -3.4814  -3.4749  -3.4726  -3.4433  -3.4408  -3.4230  -3.4185  -3.3972
    -3.3579  -3.3572  -3.2974  -3.2956  -3.2761  -3.2688  -3.2602  -3.1849
    -3.1845  -3.1760  -3.1717  -3.1604  -3.1548  -3.1372  -3.1369  -2.9843
    -2.9818  -2.9692  -2.9673  -2.9628  -2.9231  -2.9218  -2.9191  -2.9162
    -2.8623  -2.8605  -2.8433  -2.8424  -2.8036  -2.7832  -2.7814  -2.7597
    -2.7517  -2.7496  -2.7071  -2.7057  -2.6874  -2.6853  -2.6806  -2.6776
    -2.6566  -2.6552  -2.6125  -2.6117  -2.6056  -2.6026  -2.5882  -2.5436
    -2.5429  -2.5170  -2.5094  -2.5054  -2.4340  -2.4311  -2.4004  -2.3990
    -2.3950  -2.3819  -2.3606  -2.3359  -2.3346  -2.3182  -2.3129  -2.3122
    -2.3098  -2.3003  -2.2908  -2.2891  -2.2814  -2.2801  -2.2732  -2.2715
    -2.2179  -2.1936  -2.1732  -2.1723  -2.1713  -2.1548  -2.1544  -2.1523
    -2.1503  -2.1409  -2.1099  -2.1085  -2.0977  -2.0906  -2.0821  -2.0799
    -2.0785  -2.0540  -2.0519  -2.0429  -2.0335  -2.0306  -1.9755  -1.9642
    -1.9560  -1.9528  -1.9518  -1.9395  -1.9329  -1.9170  -1.8996  -1.8965
    -1.8951  -1.8930  -1.8832  -1.8794  -1.8719  -1.8562  -1.8503  -1.8421
    -1.8066  -1.7927  -1.7920  -1.7858  -1.7850  -1.7809  -1.7739  -1.7709
    -1.7680  -1.7663  -1.7552  -1.7515  -1.7507  -1.6853  -1.6370  -1.6280
    -1.6074  -1.6063  -1.5917  -1.5809  -1.5771  -1.5720  -1.5690  -1.5562
    -1.5466  -1.5455  -1.5445  -1.5330  -1.5126  -1.5034  -1.5014  -1.4901
    -1.4729  -1.4712  -1.4676  -1.4635  -1.4567  -1.4182  -1.3942  -1.3867
    -1.3690  -1.3648  -1.3591  -1.3554  -1.3312  -1.3306  -1.3267  -1.3256
    -1.3248  -1.3168  -1.3107  -1.3053  -1.2803  -1.2514  -1.2463  -1.2242
    -1.2193  -1.2028  -1.1747  -1.1646  -1.1405  -1.1364  -1.1290  -1.1282
    -1.1172  -1.0983  -1.0922  -1.0785  -1.0745  -1.0475  -1.0457  -1.0294
    -1.0226  -0.9964  -0.9933  -0.9823  -0.9308  -0.9303  -0.9252  -0.9235
    -0.9063  -0.9042  -0.8896  -0.8846  -0.8570  -0.8461  -0.8255  -0.8239
    -0.8212  -0.7895  -0.7743  -0.7723  -0.7697  -0.7642  -0.7571  -0.7558
    -0.7537  -0.7245  -0.7217  -0.7200  -0.7085  -0.7041  -0.6993  -0.6900
    -0.6820  -0.6653  -0.6553  -0.6364  -0.6224  -0.5537  -0.5350  -0.5347
    -0.5342  -0.5312  -0.5278  -0.5234  -0.5037  -0.4982  -0.4764  -0.4742
    -0.4711  -0.4620  -0.4528  -0.4369  -0.4341  -0.4300  -0.4170  -0.3350
    -0.3344  -0.3097  -0.3041  -0.2997  -0.2934  -0.2895  -0.2874  -0.2872
    -0.2839  -0.2754  -0.2553  -0.2273  -0.2176  -0.2011  -0.2002  -0.1928
    -0.1897  -0.1854  -0.1771  -0.1761  -0.1736  -0.1672  -0.1554  -0.1533
    -0.1442  -0.1214  -0.1197  -0.1124  -0.1012  -0.0981  -0.0786  -0.0535
    -0.0501  -0.0434  -0.0378   0.0249   0.0276   0.0415   0.0422   0.1045
     0.1054   0.1063   0.1225   0.1321   0.3379   0.3697   0.6874   0.6877
     0.7555   0.7810   0.9133   0.9385   0.9911   1.0959   1.1025   1.4765
     1.5450   1.5457   1.7790   1.7798   1.8367   2.1325   2.1549   2.1760
     2.1788   2.2095   2.2372   2.3697   2.3713   2.5453   2.5472   2.5513
     2.6914   2.7186   2.7559   2.9640   3.3228   3.3256   3.3620   3.3682
     3.3713   3.3884   3.7025   3.7034   4.0275   4.0452   4.0963   4.3722
     4.4937   4.5072   4.6689   4.6784   4.7857   4.7945   4.8697   5.0240
     5.0390   5.1224   5.1285   5.4021   5.4157   5.4730   5.4907   5.6365
     5.7142   5.8136   5.8180   5.8210   5.8292   5.9573   5.9681   6.0255
     6.2193   6.3675   6.5494   6.5996   6.6428   6.6448   6.6461   6.6669
     6.7089   6.7692   6.8596   6.8664   6.9784   7.1163   7.1786   7.1886
     7.2496   7.3124   7.3492

          k = 0.0000 0.2887 0.1111 (136898 PWs)   bands (ev):

   -19.5217  -7.2907  -6.4045  -5.6103  -5.3284  -5.2574  -5.2556  -4.7036
    -4.6986  -4.6041  -4.5511  -4.4276  -4.3612  -4.3246  -4.2982  -4.2527
    -4.2012  -4.1782  -4.1462  -4.0407  -3.9989  -3.9982  -3.9789  -3.9773
    -3.9502  -3.8556  -3.8533  -3.7763  -3.7646  -3.7633  -3.7587  -3.7427
    -3.7393  -3.6771  -3.6215  -3.6199  -3.6090  -3.5990  -3.5951  -3.5880
    -3.5854  -3.5789  -3.5323  -3.5304  -3.5218  -3.5204  -3.5112  -3.5104
    -3.4814  -3.4749  -3.4726  -3.4433  -3.4408  -3.4230  -3.4185  -3.3972
    -3.3579  -3.3572  -3.2974  -3.2956  -3.2761  -3.2688  -3.2602  -3.1849
    -3.1845  -3.1760  -3.1717  -3.1604  -3.1548  -3.1372  -3.1369  -2.9843
    -2.9818  -2.9692  -2.9673  -2.9628  -2.9231  -2.9218  -2.9191  -2.9162
    -2.8623  -2.8605  -2.8433  -2.8424  -2.8036  -2.7832  -2.7814  -2.7596
    -2.7517  -2.7496  -2.7071  -2.7057  -2.6874  -2.6853  -2.6806  -2.6776
    -2.6566  -2.6552  -2.6125  -2.6117  -2.6056  -2.6026  -2.5882  -2.5436
    -2.5429  -2.5170  -2.5094  -2.5054  -2.4340  -2.4311  -2.4004  -2.3990
    -2.3950  -2.3819  -2.3606  -2.3359  -2.3346  -2.3182  -2.3129  -2.3122
    -2.3098  -2.3003  -2.2908  -2.2891  -2.2814  -2.2801  -2.2732  -2.2715
    -2.2179  -2.1935  -2.1732  -2.1723  -2.1713  -2.1548  -2.1544  -2.1523
    -2.1503  -2.1409  -2.1099  -2.1085  -2.0977  -2.0906  -2.0821  -2.0799
    -2.0785  -2.0540  -2.0519  -2.0429  -2.0335  -2.0306  -1.9755  -1.9642
    -1.9560  -1.9528  -1.9518  -1.9395  -1.9329  -1.9170  -1.8996  -1.8966
    -1.8951  -1.8930  -1.8832  -1.8794  -1.8719  -1.8562  -1.8503  -1.8421
    -1.8066  -1.7927  -1.7920  -1.7858  -1.7850  -1.7809  -1.7739  -1.7709
    -1.7680  -1.7663  -1.7552  -1.7515  -1.7507  -1.6853  -1.6370  -1.6280
    -1.6074  -1.6063  -1.5917  -1.5809  -1.5771  -1.5720  -1.5690  -1.5562
    -1.5466  -1.5455  -1.5445  -1.5330  -1.5126  -1.5034  -1.5014  -1.4901
    -1.4729  -1.4712  -1.4676  -1.4635  -1.4567  -1.4182  -1.3942  -1.3867
    -1.3690  -1.3648  -1.3591  -1.3554  -1.3312  -1.3306  -1.3267  -1.3256
    -1.3248  -1.3168  -1.3107  -1.3053  -1.2803  -1.2514  -1.2463  -1.2242
    -1.2193  -1.2028  -1.1747  -1.1646  -1.1405  -1.1364  -1.1290  -1.1282
    -1.1172  -1.0983  -1.0922  -1.0785  -1.0745  -1.0475  -1.0457  -1.0294
    -1.0226  -0.9964  -0.9933  -0.9823  -0.9308  -0.9303  -0.9252  -0.9235
    -0.9063  -0.9042  -0.8896  -0.8846  -0.8570  -0.8461  -0.8255  -0.8239
    -0.8212  -0.7895  -0.7743  -0.7724  -0.7697  -0.7642  -0.7571  -0.7558
    -0.7537  -0.7245  -0.7217  -0.7200  -0.7085  -0.7041  -0.6993  -0.6900
    -0.6820  -0.6653  -0.6553  -0.6364  -0.6224  -0.5537  -0.5350  -0.5347
    -0.5342  -0.5312  -0.5278  -0.5234  -0.5037  -0.4982  -0.4764  -0.4742
    -0.4711  -0.4620  -0.4528  -0.4369  -0.4341  -0.4300  -0.4170  -0.3350
    -0.3344  -0.3097  -0.3041  -0.2997  -0.2934  -0.2895  -0.2874  -0.2872
    -0.2839  -0.2754  -0.2553  -0.2273  -0.2176  -0.2011  -0.2002  -0.1928
    -0.1897  -0.1854  -0.1771  -0.1761  -0.1736  -0.1672  -0.1554  -0.1533
    -0.1442  -0.1214  -0.1197  -0.1124  -0.1012  -0.0981  -0.0786  -0.0535
    -0.0501  -0.0433  -0.0378   0.0249   0.0276   0.0415   0.0422   0.1045
     0.1054   0.1063   0.1225   0.1321   0.3379   0.3697   0.6874   0.6877
     0.7555   0.7810   0.9133   0.9385   0.9911   1.0959   1.1025   1.4765
     1.5450   1.5457   1.7790   1.7798   1.8367   2.1325   2.1549   2.1760
     2.1788   2.2095   2.2372   2.3697   2.3713   2.5453   2.5472   2.5513
     2.6914   2.7186   2.7558   2.9640   3.3228   3.3256   3.3620   3.3682
     3.3713   3.3884   3.7025   3.7034   4.0275   4.0452   4.0963   4.3722
     4.4937   4.5072   4.6689   4.6784   4.7857   4.7945   4.8697   5.0240
     5.0390   5.1224   5.1285   5.4021   5.4157   5.4730   5.4907   5.6365
     5.7141   5.8136   5.8180   5.8210   5.8292   5.9573   5.9682   6.0255
     6.2200   6.3663   6.5497   6.6013   6.6429   6.6448   6.6462   6.6667
     6.7083   6.7680   6.8596   6.8664   6.9708   7.1151   7.1788   7.1906
     7.2533   7.3214   7.3605

     the Fermi energy is     1.6711 ev

!    total energy              =   -6564.20342330 Ry
     Harris-Foulkes estimate   =   -6564.20342331 Ry
     estimated scf accuracy    <          7.3E-09 Ry

     The total energy is the sum of the following terms:

     one-electron contribution =  -48779.01050020 Ry
     hartree contribution      =   24892.96987282 Ry
     xc contribution           =   -3162.30008947 Ry
     ewald contribution        =   20484.13527346 Ry
     smearing contrib. (-TS)   =       0.00202008 Ry

     convergence has been achieved in  22 iterations

     Writing output data file 4996145.save

     init_run     :    209.66s CPU    221.21s WALL (       1 calls)
     electrons    :  11664.64s CPU  12258.18s WALL (       1 calls)

     Called by init_run:
     wfcinit      :    180.19s CPU    191.15s WALL (       1 calls)
     potinit      :      7.06s CPU      7.28s WALL (       1 calls)

     Called by electrons:
     c_bands      :  10173.79s CPU  10656.48s WALL (      23 calls)
     sum_band     :   1191.67s CPU   1294.08s WALL (      23 calls)
     v_of_rho     :     16.84s CPU     19.54s WALL (      23 calls)
     newd         :    286.95s CPU    291.50s WALL (      23 calls)
     mix_rho      :      3.19s CPU      3.61s WALL (      23 calls)

     Called by c_bands:
     init_us_2    :     17.47s CPU     18.09s WALL (     564 calls)
     cegterg      :   9960.91s CPU  10441.53s WALL (     276 calls)

     Called by *egterg:
     h_psi        :   3880.14s CPU   4318.25s WALL (    1574 calls)
     s_psi        :    564.71s CPU    568.06s WALL (    1574 calls)
     g_psi        :      6.95s CPU      6.94s WALL (    1286 calls)
     cdiaghg      :   2661.22s CPU   2671.39s WALL (    1550 calls)

     Called by h_psi:
     add_vuspsi   :    573.82s CPU    577.12s WALL (    1574 calls)

     General routines
     calbec       :   1166.90s CPU   1171.78s WALL (    1850 calls)
     fft          :    102.30s CPU    106.81s WALL (     368 calls)
     ffts         :      1.78s CPU      2.18s WALL (      46 calls)
     fftw         :   2739.06s CPU   3228.98s WALL (  674322 calls)
     interpolate  :      4.54s CPU      5.69s WALL (      46 calls)
     davcio       :      0.02s CPU      0.26s WALL (      12 calls)

     Parallel routines
     fft_scatter  :   1820.41s CPU   2190.23s WALL (  674736 calls)

     PWSCF        :     3h17m CPU        3h28m WALL


   This run was terminated on:  19:49:57   8Aug2015            

=------------------------------------------------------------------------------=
   JOB DONE.
=------------------------------------------------------------------------------=
