Setting SGE environment for SCC

     Program PWSCF v.5.1.2 starts on  9Aug2015 at 17:15:44 

     This program is part of the open-source Quantum ESPRESSO suite
     for quantum simulation of materials; please cite
         "P. Giannozzi et al., J. Phys.:Condens. Matter 21 395502 (2009);
          URL http://www.quantum-espresso.org", 
     in publications or presentations arising from this work. More details at
     http://www.quantum-espresso.org/quote

     Parallel version (MPI), running on    32 processors
     R & G space division:  proc/nbgrp/npool/nimage =      32
     Reading input from top.O1.Au50.d.2.6.phi.0.psi.180.in
Warning: card &IONS ignored
Warning: card / ignored
Warning: card &CELL ignored
Warning: card / ignored

     Current dimensions of program PWSCF are:
     Max number of different atomic species (ntypx) = 10
     Max number of k-points (npk) =  40000
     Max angular momentum in pseudopotentials (lmaxx) =  3

     Subspace diagonalization in iterative solution of the eigenvalue problem:
     a serial algorithm will be used


     Parallelization info
     --------------------
     sticks:   dense  smooth     PW     G-vecs:    dense   smooth      PW
     Min         445     223     58                96775    34191    4534
     Max         446     224     59                96790    34246    4540
     Sum       14269    7147   1867              3097177  1095093  145167


     Title: 
     top.O1.Au50.d.2.6.phi.0.psi.180                                            


     bravais-lattice index     =            4
     lattice parameter (alat)  =      22.7436  a.u.
     unit-cell volume          =   22924.1508 (a.u.)^3
     number of atoms/cell      =           67
     number of atomic types    =            3
     number of electrons       =       712.00
     number of Kohn-Sham states=          427
     kinetic-energy cutoff     =      50.0000  Ry
     charge density cutoff     =     400.0000  Ry
     convergence threshold     =      1.0E-08
     mixing beta               =       0.7000
     number of iterations used =            8  plain     mixing
     Exchange-correlation      =  SLA  PW   PBE  PBE ( 1  4  3  4 0 0)

     celldm(1)=  22.743643  celldm(2)=   0.000000  celldm(3)=   2.250000
     celldm(4)=   0.000000  celldm(5)=   0.000000  celldm(6)=   0.000000

     crystal axes: (cart. coord. in units of alat)
               a(1) = (   1.000000   0.000000   0.000000 )  
               a(2) = (  -0.500000   0.866025   0.000000 )  
               a(3) = (   0.000000   0.000000   2.250000 )  

     reciprocal axes: (cart. coord. in units 2 pi/alat)
               b(1) = (  1.000000  0.577350 -0.000000 )  
               b(2) = (  0.000000  1.154701  0.000000 )  
               b(3) = (  0.000000 -0.000000  0.444444 )  


     PseudoPot. # 1 for Au read from file:
     /home/scc/andrejb/qe/pseudo/Au.pbe-nd-van.UPF
     MD5 check sum: 458681b50f36d87ef23c61b04bba420a
     Pseudo is Ultrasoft + core correction, Zval = 11.0
     Generated by new atomic code, or converted to UPF format
     Using radial grid of  985 points,  3 beta functions with: 
                l(1) =   1
                l(2) =   2
                l(3) =   2
     Q(r) pseudized with  8 coefficients,  rinner =    1.100   1.100   1.100
                                                       1.100   1.100

     PseudoPot. # 2 for H  read from file:
     /home/scc/andrejb/qe/pseudo/H.pbe-van_ak.UPF
     MD5 check sum: 403db7282739603aa925980fa9b8608d
     Pseudo is Ultrasoft, Zval =  1.0
     Generated by new atomic code, or converted to UPF format
     Using radial grid of  615 points,  1 beta functions with: 
                l(1) =   0
     Q(r) pseudized with  8 coefficients,  rinner =    0.800

     PseudoPot. # 3 for O  read from file:
     /home/scc/andrejb/qe/pseudo/O.pbe-van_ak.UPF
     MD5 check sum: 4b8c549914a63cae506c6ff22b5af4fe
     Pseudo is Ultrasoft, Zval =  6.0
     Generated by new atomic code, or converted to UPF format
     Using radial grid of  737 points,  4 beta functions with: 
                l(1) =   0
                l(2) =   0
                l(3) =   1
                l(4) =   1
     Q(r) pseudized with  8 coefficients,  rinner =    0.800   0.800   0.800


     atomic species   valence    mass     pseudopotential
        Au            11.00   196.96657     Au( 1.00)
        H              1.00     1.01000     H ( 1.00)
        O              6.00    16.00000     O ( 1.00)

     No symmetry found



   Cartesian axes

     site n.     atom                  positions (alat units)
         1           O   tau(   1) = (   0.4790780   0.3968269   0.8290259  )
         2           H   tau(   2) = (   0.4291446   0.4383745   0.7807723  )
         3           H   tau(   3) = (   0.5274974   0.3565200   0.7782652  )
         4           Au  tau(   4) = (   0.3540481   0.6132292   0.0000000  )
         5           Au  tau(   5) = (   0.4790062   0.3967954   0.0000000  )
         6           Au  tau(   6) = (   0.6039644   0.1803616   0.0000000  )
         7           Au  tau(   7) = (   0.7289225  -0.0360723   0.0000000  )
         8           Au  tau(   8) = (   0.1041318   0.6132292   0.0000000  )
         9           Au  tau(   9) = (   0.2290899   0.3967954   0.0000000  )
        10           Au  tau(  10) = (   0.3540481   0.1803616   0.0000000  )
        11           Au  tau(  11) = (   0.4790062  -0.0360723   0.0000000  )
        12           Au  tau(  12) = (  -0.1457845   0.6132292   0.0000000  )
        13           Au  tau(  13) = (  -0.0208264   0.3967954   0.0000000  )
        14           Au  tau(  14) = (   0.1041318   0.1803616   0.0000000  )
        15           Au  tau(  15) = (   0.2290899  -0.0360723   0.0000000  )
        16           Au  tau(  16) = (  -0.3957008   0.6132292   0.0000000  )
        17           Au  tau(  17) = (  -0.2707426   0.3967954   0.0000000  )
        18           Au  tau(  18) = (  -0.1457845   0.1803616   0.0000000  )
        19           Au  tau(  19) = (  -0.0208264  -0.0360723   0.0000000  )
        20           Au  tau(  20) = (   0.4790062   0.6853738   0.2040557  )
        21           Au  tau(  21) = (   0.6039644   0.4689400   0.2040557  )
        22           Au  tau(  22) = (   0.7289225   0.2525061   0.2040557  )
        23           Au  tau(  23) = (   0.8538806   0.0360723   0.2040557  )
        24           Au  tau(  24) = (   0.2290899   0.6853738   0.2040557  )
        25           Au  tau(  25) = (   0.3540481   0.4689400   0.2040557  )
        26           Au  tau(  26) = (   0.4790062   0.2525061   0.2040557  )
        27           Au  tau(  27) = (   0.6039644   0.0360723   0.2040557  )
        28           Au  tau(  28) = (  -0.0208264   0.6853738   0.2040557  )
        29           Au  tau(  29) = (   0.1041318   0.4689400   0.2040557  )
        30           Au  tau(  30) = (   0.2290899   0.2525061   0.2040557  )
        31           Au  tau(  31) = (   0.3540481   0.0360723   0.2040557  )
        32           Au  tau(  32) = (  -0.2707426   0.6853738   0.2040557  )
        33           Au  tau(  33) = (  -0.1457845   0.4689400   0.2040557  )
        34           Au  tau(  34) = (  -0.0208264   0.2525061   0.2040557  )
        35           Au  tau(  35) = (   0.1041318   0.0360723   0.2040557  )
        36           Au  tau(  36) = (   0.3541162   0.7576593   0.4066483  )
        37           Au  tau(  37) = (   0.4791000   0.5411421   0.4066695  )
        38           Au  tau(  38) = (   0.6040570   0.3246862   0.4066617  )
        39           Au  tau(  39) = (   0.7290270   0.1081684   0.4066529  )
        40           Au  tau(  40) = (   0.1041162   0.7576236   0.4066247  )
        41           Au  tau(  41) = (   0.2291001   0.5411063   0.4066455  )
        42           Au  tau(  42) = (   0.3540567   0.3246505   0.4066380  )
        43           Au  tau(  43) = (   0.4790276   0.1081324   0.4066292  )
        44           Au  tau(  44) = (  -0.1458201   0.7576104   0.4066224  )
        45           Au  tau(  45) = (  -0.0208365   0.5410930   0.4066438  )
        46           Au  tau(  46) = (   0.1041202   0.3246372   0.4066359  )
        47           Au  tau(  47) = (   0.2290908   0.1081193   0.4066273  )
        48           Au  tau(  48) = (  -0.3958167   0.7575791   0.4065812  )
        49           Au  tau(  49) = (  -0.2708328   0.5410617   0.4066025  )
        50           Au  tau(  50) = (  -0.1458763   0.3246061   0.4065947  )
        51           Au  tau(  51) = (  -0.0209056   0.1080882   0.4065858  )
        52           Au  tau(  52) = (   0.3541085   0.6133344   0.6129762  )
        53           Au  tau(  53) = (   0.4790780   0.3968269   0.6129968  )
        54           Au  tau(  54) = (   0.6040356   0.1803811   0.6129859  )
        55           Au  tau(  55) = (   0.7290165  -0.0361221   0.6129385  )
        56           Au  tau(  56) = (   0.1041243   0.6133091   0.6130022  )
        57           Au  tau(  57) = (   0.2290941   0.3968013   0.6130241  )
        58           Au  tau(  58) = (   0.3540515   0.1803552   0.6130121  )
        59           Au  tau(  59) = (   0.4790323  -0.0361475   0.6129659  )
        60           Au  tau(  60) = (  -0.1458030   0.6133014   0.6129980  )
        61           Au  tau(  61) = (  -0.0208339   0.3967936   0.6130188  )
        62           Au  tau(  62) = (   0.1041239   0.1803477   0.6130083  )
        63           Au  tau(  63) = (   0.2291046  -0.0361554   0.6129607  )
        64           Au  tau(  64) = (  -0.3957908   0.6132739   0.6129471  )
        65           Au  tau(  65) = (  -0.2708208   0.3967658   0.6129688  )
        66           Au  tau(  66) = (  -0.1458636   0.1803200   0.6129569  )
        67           Au  tau(  67) = (  -0.0208823  -0.0361826   0.6129110  )

     number of k points=    12  Marzari-Vanderbilt smearing, width (Ry)=  0.0200
                       cart. coord. in units 2pi/alat
        k(    1) = (   0.2500000   0.4330127   0.1111111), wk =   0.1666667
        k(    2) = (   0.2500000  -0.1443376   0.1111111), wk =   0.1666667
        k(    3) = (  -0.2500000  -0.4330127   0.1111111), wk =   0.1666667
        k(    4) = (  -0.2500000   0.4330127  -0.1111111), wk =   0.1666667
        k(    5) = (   0.2500000  -0.4330127  -0.1111111), wk =   0.1666667
        k(    6) = (   0.5000000   0.0000000   0.1111111), wk =   0.1666667
        k(    7) = (  -0.5000000   0.0000000   0.1111111), wk =   0.1666667
        k(    8) = (  -0.2500000   0.1443376   0.1111111), wk =   0.1666667
        k(    9) = (  -0.2500000  -0.1443376  -0.1111111), wk =   0.1666667
        k(   10) = (   0.2500000   0.1443376  -0.1111111), wk =   0.1666667
        k(   11) = (   0.0000000  -0.2886751   0.1111111), wk =   0.1666667
        k(   12) = (   0.0000000   0.2886751   0.1111111), wk =   0.1666667

     Dense  grid:  3097177 G-vectors     FFT dimensions: ( 150, 150, 360)

     Smooth grid:  1095093 G-vectors     FFT dimensions: ( 108, 108, 240)

     Largest allocated arrays     est. size (Mb)     dimensions
        Kohn-Sham Wavefunctions        28.01 Mb     (    4299,  427)
        NL pseudopotentials            55.23 Mb     (    4299,  842)
        Each V/rho on FFT grid          4.12 Mb     (  270000)
        Each G-vector array             0.74 Mb     (   96788)
        G-vector shells                 0.16 Mb     (   21404)
     Largest temporary arrays     est. size (Mb)     dimensions
        Auxiliary wavefunctions       112.04 Mb     (    4299, 1708)
        Each subspace H/S matrix       44.51 Mb     (    1708, 1708)
        Each <psi_i|beta_j> matrix      5.49 Mb     (     842,  427)
        Arrays for rho mixing          32.96 Mb     (  270000,    8)

     Initial potential from superposition of free atoms
     Check: negative starting charge=   -1.730368

     starting charge  711.25682, renormalised to  712.00000

     negative rho (up, down):  1.732E+00 0.000E+00
     Starting wfc are  582 randomized atomic wfcs

     total cpu time spent up to now is      136.0 secs

     Self-consistent Calculation

     iteration #  1     ecut=    50.00 Ry     beta=0.70
     Davidson diagonalization with overlap
     ethr =  1.00E-02,  avg # of iterations =  3.0

     Threshold (ethr) on eigenvalues was too large:
     Diagonalizing with lowered threshold

     Davidson diagonalization with overlap
     ethr =  4.08E-04,  avg # of iterations =  3.2

     negative rho (up, down):  1.712E+00 0.000E+00

     total cpu time spent up to now is      694.3 secs

     total energy              =   -6562.28853556 Ry
     Harris-Foulkes estimate   =   -6564.92111488 Ry
     estimated scf accuracy    <       3.40194494 Ry

     iteration #  2     ecut=    50.00 Ry     beta=0.70
     Davidson diagonalization with overlap
     ethr =  4.78E-04,  avg # of iterations = 12.5

     negative rho (up, down):  1.714E+00 0.000E+00

     total cpu time spent up to now is     1634.5 secs

     total energy              =   -6555.71906302 Ry
     Harris-Foulkes estimate   =   -6570.39653663 Ry
     estimated scf accuracy    <      80.88009731 Ry

     iteration #  3     ecut=    50.00 Ry     beta=0.70
     Davidson diagonalization with overlap
     ethr =  4.78E-04,  avg # of iterations =  6.0

     negative rho (up, down):  1.729E+00 0.000E+00

     total cpu time spent up to now is     2200.6 secs

     total energy              =   -6562.54914781 Ry
     Harris-Foulkes estimate   =   -6564.92989912 Ry
     estimated scf accuracy    <      10.42410596 Ry

     iteration #  4     ecut=    50.00 Ry     beta=0.70
     Davidson diagonalization with overlap
     ethr =  4.78E-04,  avg # of iterations =  6.5

     negative rho (up, down):  1.732E+00 0.000E+00

     total cpu time spent up to now is     2575.8 secs

     total energy              =   -6562.80963782 Ry
     Harris-Foulkes estimate   =   -6565.23758967 Ry
     estimated scf accuracy    <      22.91614632 Ry

     iteration #  5     ecut=    50.00 Ry     beta=0.70
     Davidson diagonalization with overlap
     ethr =  4.78E-04,  avg # of iterations =  5.3

     negative rho (up, down):  1.743E+00 0.000E+00

     total cpu time spent up to now is     2915.3 secs

     total energy              =   -6563.95072499 Ry
     Harris-Foulkes estimate   =   -6564.52090181 Ry
     estimated scf accuracy    <       4.14043868 Ry

     iteration #  6     ecut=    50.00 Ry     beta=0.70
     Davidson diagonalization with overlap
     ethr =  4.78E-04,  avg # of iterations =  3.0

     negative rho (up, down):  1.748E+00 0.000E+00

     total cpu time spent up to now is     3183.1 secs

     total energy              =   -6564.15351464 Ry
     Harris-Foulkes estimate   =   -6564.22729115 Ry
     estimated scf accuracy    <       0.24283468 Ry

     iteration #  7     ecut=    50.00 Ry     beta=0.70
     Davidson diagonalization with overlap
     ethr =  3.41E-05,  avg # of iterations = 11.8

     negative rho (up, down):  1.750E+00 0.000E+00

     total cpu time spent up to now is     3639.8 secs

     total energy              =   -6564.17060009 Ry
     Harris-Foulkes estimate   =   -6564.20598034 Ry
     estimated scf accuracy    <       0.16822047 Ry

     iteration #  8     ecut=    50.00 Ry     beta=0.70
     Davidson diagonalization with overlap
     ethr =  2.36E-05,  avg # of iterations =  2.7

     negative rho (up, down):  1.752E+00 0.000E+00

     total cpu time spent up to now is     3908.3 secs

     total energy              =   -6564.17334481 Ry
     Harris-Foulkes estimate   =   -6564.19117209 Ry
     estimated scf accuracy    <       0.07046013 Ry

     iteration #  9     ecut=    50.00 Ry     beta=0.70
     Davidson diagonalization with overlap
     ethr =  9.90E-06,  avg # of iterations =  6.1

     negative rho (up, down):  1.753E+00 0.000E+00

     total cpu time spent up to now is     4245.9 secs

     total energy              =   -6564.17333334 Ry
     Harris-Foulkes estimate   =   -6564.18141604 Ry
     estimated scf accuracy    <       0.02822395 Ry

     iteration # 10     ecut=    50.00 Ry     beta=0.70
     Davidson diagonalization with overlap
     ethr =  3.96E-06,  avg # of iterations =  5.8

     negative rho (up, down):  1.753E+00 0.000E+00

     total cpu time spent up to now is     4578.5 secs

     total energy              =   -6564.17375516 Ry
     Harris-Foulkes estimate   =   -6564.17673803 Ry
     estimated scf accuracy    <       0.01042864 Ry

     iteration # 11     ecut=    50.00 Ry     beta=0.70
     Davidson diagonalization with overlap
     ethr =  1.46E-06,  avg # of iterations =  6.0

     negative rho (up, down):  1.754E+00 0.000E+00

     total cpu time spent up to now is     4915.8 secs

     total energy              =   -6564.17375699 Ry
     Harris-Foulkes estimate   =   -6564.17541961 Ry
     estimated scf accuracy    <       0.00565309 Ry

     iteration # 12     ecut=    50.00 Ry     beta=0.70
     Davidson diagonalization with overlap
     ethr =  7.94E-07,  avg # of iterations =  3.1

     negative rho (up, down):  1.754E+00 0.000E+00

     total cpu time spent up to now is     5195.4 secs

     total energy              =   -6564.17423498 Ry
     Harris-Foulkes estimate   =   -6564.17447098 Ry
     estimated scf accuracy    <       0.00046763 Ry

     iteration # 13     ecut=    50.00 Ry     beta=0.70
     Davidson diagonalization with overlap
     ethr =  6.57E-08,  avg # of iterations =  3.0

     negative rho (up, down):  1.754E+00 0.000E+00

     total cpu time spent up to now is     5559.4 secs

     total energy              =   -6564.17424359 Ry
     Harris-Foulkes estimate   =   -6564.17449441 Ry
     estimated scf accuracy    <       0.00115181 Ry

     iteration # 14     ecut=    50.00 Ry     beta=0.70
     Davidson diagonalization with overlap
     ethr =  6.57E-08,  avg # of iterations =  2.0

     negative rho (up, down):  1.754E+00 0.000E+00

     total cpu time spent up to now is     5822.1 secs

     total energy              =   -6564.17436030 Ry
     Harris-Foulkes estimate   =   -6564.17438357 Ry
     estimated scf accuracy    <       0.00009473 Ry

     iteration # 15     ecut=    50.00 Ry     beta=0.70
     Davidson diagonalization with overlap
     ethr =  1.33E-08,  avg # of iterations =  2.0

     negative rho (up, down):  1.754E+00 0.000E+00

     total cpu time spent up to now is     6076.6 secs

     total energy              =   -6564.17436694 Ry
     Harris-Foulkes estimate   =   -6564.17438265 Ry
     estimated scf accuracy    <       0.00012942 Ry

     iteration # 16     ecut=    50.00 Ry     beta=0.70
     Davidson diagonalization with overlap
     ethr =  1.33E-08,  avg # of iterations =  2.0

     negative rho (up, down):  1.754E+00 0.000E+00

     total cpu time spent up to now is     6327.6 secs

     total energy              =   -6564.17437276 Ry
     Harris-Foulkes estimate   =   -6564.17437634 Ry
     estimated scf accuracy    <       0.00000787 Ry

     iteration # 17     ecut=    50.00 Ry     beta=0.70
     Davidson diagonalization with overlap
     ethr =  1.11E-09,  avg # of iterations =  3.0

     negative rho (up, down):  1.754E+00 0.000E+00

     total cpu time spent up to now is     6665.6 secs

     total energy              =   -6564.17437083 Ry
     Harris-Foulkes estimate   =   -6564.17437987 Ry
     estimated scf accuracy    <       0.00006237 Ry

     iteration # 18     ecut=    50.00 Ry     beta=0.70
     Davidson diagonalization with overlap
     ethr =  1.11E-09,  avg # of iterations =  2.3

     negative rho (up, down):  1.754E+00 0.000E+00

     total cpu time spent up to now is     6959.8 secs

     total energy              =   -6564.17437444 Ry
     Harris-Foulkes estimate   =   -6564.17437633 Ry
     estimated scf accuracy    <       0.00000741 Ry

     iteration # 19     ecut=    50.00 Ry     beta=0.70
     Davidson diagonalization with overlap
     ethr =  1.04E-09,  avg # of iterations =  2.0

     negative rho (up, down):  1.754E+00 0.000E+00

     total cpu time spent up to now is     7194.0 secs

     total energy              =   -6564.17437529 Ry
     Harris-Foulkes estimate   =   -6564.17437557 Ry
     estimated scf accuracy    <       0.00000142 Ry

     iteration # 20     ecut=    50.00 Ry     beta=0.70
     Davidson diagonalization with overlap
     ethr =  1.99E-10,  avg # of iterations =  2.0

     negative rho (up, down):  1.754E+00 0.000E+00

     total cpu time spent up to now is     7432.1 secs

     total energy              =   -6564.17437543 Ry
     Harris-Foulkes estimate   =   -6564.17437548 Ry
     estimated scf accuracy    <       0.00000016 Ry

     iteration # 21     ecut=    50.00 Ry     beta=0.70
     Davidson diagonalization with overlap
     ethr =  2.21E-11,  avg # of iterations =  2.3

     negative rho (up, down):  1.754E+00 0.000E+00

     total cpu time spent up to now is     7709.5 secs

     total energy              =   -6564.17437545 Ry
     Harris-Foulkes estimate   =   -6564.17437547 Ry
     estimated scf accuracy    <       0.00000009 Ry

     iteration # 22     ecut=    50.00 Ry     beta=0.70
     Davidson diagonalization with overlap
     ethr =  1.26E-11,  avg # of iterations =  2.0

     negative rho (up, down):  1.754E+00 0.000E+00

     total cpu time spent up to now is     7964.8 secs

     total energy              =   -6564.17437546 Ry
     Harris-Foulkes estimate   =   -6564.17437547 Ry
     estimated scf accuracy    <       0.00000004 Ry

     iteration # 23     ecut=    50.00 Ry     beta=0.70
     Davidson diagonalization with overlap
     ethr =  5.45E-12,  avg # of iterations =  3.0

     negative rho (up, down):  1.754E+00 0.000E+00

     total cpu time spent up to now is     8537.0 secs

     total energy              =   -6564.17437546 Ry
     Harris-Foulkes estimate   =   -6564.17437547 Ry
     estimated scf accuracy    <       0.00000001 Ry

     iteration # 24     ecut=    50.00 Ry     beta=0.70
     Davidson diagonalization with overlap
     ethr =  2.00E-12,  avg # of iterations =  2.0

     negative rho (up, down):  1.754E+00 0.000E+00

     total cpu time spent up to now is     8793.1 secs

     total energy              =   -6564.17437546 Ry
     Harris-Foulkes estimate   =   -6564.17437546 Ry
     estimated scf accuracy    <       0.00000001 Ry

     iteration # 25     ecut=    50.00 Ry     beta=0.70
     Davidson diagonalization with overlap
     ethr =  1.54E-12,  avg # of iterations =  2.0

     negative rho (up, down):  1.754E+00 0.000E+00

     total cpu time spent up to now is     9062.1 secs

     End of self-consistent calculation

          k = 0.2500 0.4330 0.1111 (136853 PWs)   bands (ev):

   -18.9876  -6.8379  -6.4619  -6.0647  -6.0582  -5.3960  -5.0471  -5.0361
    -5.0253  -5.0082  -4.5939  -4.5875  -4.5108  -4.4839  -4.4641  -4.4620
    -4.4291  -4.3120  -4.3024  -4.2645  -4.2432  -4.2131  -4.2127  -4.2118
    -4.1695  -4.1609  -4.1427  -4.1314  -4.1134  -4.1112  -4.0940  -4.0236
    -4.0157  -4.0063  -3.9959  -3.9725  -3.9526  -3.9508  -3.9326  -3.9306
    -3.9275  -3.8668  -3.8543  -3.8290  -3.7893  -3.7881  -3.7815  -3.7509
    -3.7151  -3.6884  -3.6824  -3.6635  -3.6444  -3.6398  -3.6350  -3.6123
    -3.6100  -3.6087  -3.6027  -3.5850  -3.5738  -3.5313  -3.5211  -3.5153
    -3.4857  -3.4565  -3.4325  -3.4197  -3.3859  -3.3750  -3.3549  -3.3502
    -3.3222  -3.2894  -3.2666  -3.2552  -3.2249  -3.2172  -3.1937  -3.1922
    -3.1767  -3.1394  -3.1156  -3.1106  -3.0998  -3.0883  -3.0834  -3.0823
    -3.0805  -3.0760  -3.0694  -3.0168  -2.9635  -2.9611  -2.9577  -2.9552
    -2.9518  -2.9346  -2.9320  -2.9045  -2.8388  -2.8355  -2.8332  -2.8285
    -2.7780  -2.7749  -2.7707  -2.7598  -2.7524  -2.7018  -2.6950  -2.6881
    -2.6850  -2.6484  -2.6413  -2.6382  -2.6025  -2.5983  -2.5479  -2.5269
    -2.5225  -2.5212  -2.5112  -2.4959  -2.4928  -2.4898  -2.4864  -2.4854
    -2.4508  -2.4303  -2.4147  -2.4097  -2.4062  -2.4044  -2.4029  -2.4005
    -2.3990  -2.3980  -2.3684  -2.3656  -2.3620  -2.3608  -2.3582  -2.3468
    -2.3447  -2.3407  -2.3185  -2.3145  -2.3130  -2.2959  -2.2947  -2.2769
    -2.2730  -2.2533  -2.2470  -2.2435  -2.2411  -2.2370  -2.2362  -2.2348
    -2.2312  -2.2190  -2.2152  -2.2067  -2.2005  -2.1949  -2.1227  -2.1184
    -2.1042  -2.1012  -2.0924  -2.0812  -2.0710  -2.0543  -2.0509  -2.0324
    -2.0207  -2.0150  -2.0094  -2.0037  -1.9850  -1.9783  -1.9740  -1.9702
    -1.9635  -1.9453  -1.9371  -1.9132  -1.8837  -1.8746  -1.8701  -1.8568
    -1.8493  -1.7947  -1.7917  -1.7845  -1.7742  -1.7182  -1.7138  -1.6718
    -1.6558  -1.6442  -1.6283  -1.6205  -1.6065  -1.5952  -1.5840  -1.5739
    -1.5684  -1.5662  -1.5494  -1.5397  -1.5220  -1.5121  -1.5060  -1.5030
    -1.4979  -1.4861  -1.4750  -1.4698  -1.4460  -1.4373  -1.4268  -1.4228
    -1.4195  -1.4118  -1.3951  -1.3722  -1.3708  -1.3668  -1.3661  -1.3528
    -1.3402  -1.3080  -1.2997  -1.2865  -1.2804  -1.2721  -1.2624  -1.2178
    -1.1881  -1.1529  -1.1377  -1.1276  -1.1258  -1.1246  -1.1178  -1.1162
    -1.1127  -1.1063  -1.0744  -1.0554  -1.0479  -1.0414  -1.0322  -1.0165
    -1.0105  -1.0056  -0.9995  -0.9960  -0.9939  -0.9900  -0.9601  -0.9491
    -0.9423  -0.9356  -0.9343  -0.9239  -0.9204  -0.8907  -0.8861  -0.8735
    -0.8578  -0.8445  -0.8327  -0.7993  -0.7940  -0.7858  -0.7781  -0.7721
    -0.7690  -0.7670  -0.7584  -0.7541  -0.7458  -0.7289  -0.7270  -0.7175
    -0.7128  -0.7082  -0.6979  -0.6909  -0.6739  -0.6726  -0.6633  -0.6391
    -0.6348  -0.6249  -0.6021  -0.5746  -0.5720  -0.5687  -0.5628  -0.5593
    -0.5552  -0.5489  -0.5374  -0.5323  -0.5259  -0.5229  -0.5151  -0.5107
    -0.4847  -0.4783  -0.4774  -0.4711  -0.4680  -0.4644  -0.4555  -0.4527
    -0.4442  -0.4409  -0.4263  -0.4123  -0.4108  -0.4042  -0.3884  -0.3843
    -0.3391  -0.3305  -0.3071  -0.3033  -0.2983  -0.2944  -0.2649  -0.2562
    -0.2550  -0.2358  -0.2335  -0.1960  -0.1559  -0.1468  -0.0409   0.3562
     0.3584   0.3829   0.3843   0.4434   0.4711   0.7828   0.7957   0.8086
     0.8127   0.9971   1.0568   1.1395   1.1568   1.3998   1.4252   1.9739
     1.9930   2.1067   2.1255   2.3188   2.3455   2.3939   2.3951   2.4823
     2.7688   2.7708   2.9443   3.1557   3.1603   3.1792   3.1885   3.2456
     3.3517   3.5253   3.5294   3.5545   3.8004   3.8046   3.8724   3.8890
     4.1149   4.1310   4.1489   4.3313   4.3438   4.4020   4.4860   4.7694
     4.8073   4.8163   5.0052   5.0967   5.0991   5.2168   5.2482   5.8207
     5.8795   5.8909   5.9607   5.9617   6.0247   6.0433   6.1123   6.1180
     6.1266   6.1417   6.1821   6.1899   6.2077   6.2126   6.3273   6.3307
     6.6453   6.7628   6.8390   6.8415   6.9671   6.9857   6.9924   7.0080
     7.0570   7.0657   7.1534

          k = 0.2500-0.1443 0.1111 (136898 PWs)   bands (ev):

   -18.9876  -6.8381  -6.6714  -5.8772  -5.5992  -5.5252  -5.5211  -4.9702
    -4.9645  -4.8653  -4.8164  -4.6824  -4.6075  -4.5828  -4.5640  -4.5161
    -4.4490  -4.4448  -4.3075  -4.2756  -4.2658  -4.2644  -4.2453  -4.2426
    -4.1263  -4.1220  -4.0589  -4.0420  -4.0302  -4.0296  -4.0141  -4.0096
    -3.9648  -3.9146  -3.8889  -3.8833  -3.8765  -3.8654  -3.8621  -3.8547
    -3.8505  -3.8235  -3.8012  -3.7939  -3.7880  -3.7833  -3.7805  -3.7664
    -3.7544  -3.7412  -3.7366  -3.7197  -3.7002  -3.6891  -3.6807  -3.6421
    -3.6244  -3.6189  -3.5646  -3.5602  -3.5432  -3.5310  -3.5151  -3.4519
    -3.4511  -3.4415  -3.4351  -3.4299  -3.4094  -3.4061  -3.3935  -3.2499
    -3.2466  -3.2444  -3.2375  -3.2244  -3.1925  -3.1886  -3.1876  -3.1796
    -3.1298  -3.1263  -3.1102  -3.1099  -3.0691  -3.0583  -3.0508  -3.0273
    -3.0187  -3.0153  -2.9762  -2.9735  -2.9539  -2.9526  -2.9465  -2.9391
    -2.9247  -2.9229  -2.8871  -2.8790  -2.8731  -2.8661  -2.8520  -2.8138
    -2.8126  -2.7836  -2.7753  -2.7671  -2.7114  -2.6989  -2.6700  -2.6688
    -2.6619  -2.6477  -2.6261  -2.6066  -2.6038  -2.5892  -2.5873  -2.5797
    -2.5762  -2.5677  -2.5617  -2.5584  -2.5491  -2.5487  -2.5398  -2.5359
    -2.4836  -2.4595  -2.4456  -2.4423  -2.4384  -2.4250  -2.4235  -2.4204
    -2.4159  -2.4081  -2.3783  -2.3739  -2.3657  -2.3564  -2.3520  -2.3499
    -2.3478  -2.3256  -2.3209  -2.3083  -2.3009  -2.2982  -2.2430  -2.2359
    -2.2253  -2.2229  -2.2205  -2.2137  -2.2035  -2.1836  -2.1672  -2.1656
    -2.1639  -2.1606  -2.1556  -2.1496  -2.1436  -2.1260  -2.1171  -2.1111
    -2.0702  -2.0640  -2.0624  -2.0607  -2.0569  -2.0520  -2.0417  -2.0394
    -2.0350  -2.0311  -2.0206  -2.0178  -2.0173  -1.9271  -1.9099  -1.8901
    -1.8810  -1.8719  -1.8543  -1.8487  -1.8423  -1.8380  -1.8343  -1.8247
    -1.8152  -1.8118  -1.8109  -1.7906  -1.7730  -1.7713  -1.7693  -1.7502
    -1.7399  -1.7383  -1.7359  -1.7281  -1.7275  -1.6670  -1.6662  -1.6380
    -1.6345  -1.6305  -1.6264  -1.6134  -1.6081  -1.5965  -1.5954  -1.5922
    -1.5917  -1.5784  -1.5776  -1.5619  -1.5296  -1.5155  -1.4978  -1.4948
    -1.4761  -1.4456  -1.4379  -1.4163  -1.4045  -1.3965  -1.3961  -1.3878
    -1.3752  -1.3635  -1.3570  -1.3490  -1.3177  -1.3162  -1.3056  -1.2908
    -1.2745  -1.2658  -1.2490  -1.2111  -1.2078  -1.1950  -1.1916  -1.1815
    -1.1772  -1.1574  -1.1570  -1.1279  -1.1146  -1.0954  -1.0933  -1.0911
    -1.0591  -1.0551  -1.0442  -1.0373  -1.0339  -1.0298  -1.0240  -1.0227
    -1.0005  -0.9948  -0.9913  -0.9851  -0.9700  -0.9672  -0.9573  -0.9534
    -0.9369  -0.9216  -0.9015  -0.8891  -0.8330  -0.8255  -0.8066  -0.8047
    -0.7993  -0.7983  -0.7896  -0.7726  -0.7694  -0.7561  -0.7478  -0.7399
    -0.7335  -0.7273  -0.7113  -0.7012  -0.7002  -0.6865  -0.6482  -0.6043
    -0.5988  -0.5715  -0.5699  -0.5628  -0.5618  -0.5554  -0.5530  -0.5517
    -0.5422  -0.5225  -0.5183  -0.4938  -0.4835  -0.4715  -0.4638  -0.4597
    -0.4554  -0.4469  -0.4447  -0.4428  -0.4366  -0.4352  -0.4220  -0.4196
    -0.4150  -0.3888  -0.3856  -0.3816  -0.3677  -0.3663  -0.3446  -0.3198
    -0.3180  -0.3092  -0.3075  -0.2413  -0.2409  -0.2289  -0.2274  -0.1663
    -0.1644  -0.1609  -0.1416  -0.1408   0.0860   0.1025   0.4190   0.4202
     0.5015   0.5149   0.6437   0.6792   0.7256   0.8286   0.8299   1.2047
     1.2769   1.2796   1.5106   1.5140   1.5784   1.8827   1.8907   1.9059
     1.9111   1.9508   1.9552   2.0990   2.1056   2.2777   2.2810   2.3012
     2.4393   2.4429   2.4826   2.6994   3.0495   3.0592   3.0985   3.1004
     3.1042   3.1070   3.4340   3.4364   3.7733   3.7755   3.8515   4.1040
     4.2298   4.2341   4.4277   4.4493   4.5193   4.5198   4.6033   4.7624
     4.7652   4.8543   4.8582   5.1429   5.2014   5.2118   5.4034   5.4207
     5.5369   5.5510   5.5569   5.5581   5.6937   5.6978   5.7763   5.9293
     6.2778   6.3656   6.3781   6.3851   6.3871   6.4643   6.4727   6.5709
     6.5983   6.7014   6.7636   6.8356   6.9564   6.9642   7.1613   7.2558
     7.2656   7.2819   7.3190

          k =-0.2500-0.4330 0.1111 (136853 PWs)   bands (ev):

   -18.9876  -6.8379  -6.4619  -6.0647  -6.0582  -5.3960  -5.0471  -5.0361
    -5.0253  -5.0082  -4.5939  -4.5875  -4.5108  -4.4839  -4.4641  -4.4620
    -4.4291  -4.3120  -4.3024  -4.2645  -4.2432  -4.2131  -4.2127  -4.2118
    -4.1695  -4.1609  -4.1427  -4.1314  -4.1134  -4.1112  -4.0940  -4.0236
    -4.0157  -4.0063  -3.9959  -3.9725  -3.9526  -3.9508  -3.9326  -3.9306
    -3.9275  -3.8668  -3.8543  -3.8290  -3.7893  -3.7881  -3.7815  -3.7509
    -3.7151  -3.6884  -3.6824  -3.6635  -3.6444  -3.6398  -3.6350  -3.6123
    -3.6100  -3.6087  -3.6027  -3.5850  -3.5738  -3.5313  -3.5211  -3.5153
    -3.4857  -3.4565  -3.4325  -3.4197  -3.3859  -3.3750  -3.3549  -3.3502
    -3.3222  -3.2894  -3.2666  -3.2552  -3.2249  -3.2172  -3.1937  -3.1922
    -3.1767  -3.1394  -3.1156  -3.1106  -3.0998  -3.0883  -3.0834  -3.0823
    -3.0805  -3.0760  -3.0694  -3.0168  -2.9635  -2.9611  -2.9577  -2.9552
    -2.9518  -2.9346  -2.9320  -2.9045  -2.8388  -2.8355  -2.8332  -2.8285
    -2.7780  -2.7749  -2.7707  -2.7598  -2.7524  -2.7018  -2.6950  -2.6881
    -2.6850  -2.6484  -2.6413  -2.6382  -2.6025  -2.5983  -2.5479  -2.5269
    -2.5225  -2.5212  -2.5112  -2.4959  -2.4928  -2.4898  -2.4864  -2.4854
    -2.4508  -2.4303  -2.4147  -2.4097  -2.4062  -2.4044  -2.4029  -2.4005
    -2.3990  -2.3980  -2.3684  -2.3656  -2.3620  -2.3608  -2.3582  -2.3468
    -2.3447  -2.3407  -2.3185  -2.3145  -2.3130  -2.2959  -2.2947  -2.2769
    -2.2730  -2.2533  -2.2470  -2.2435  -2.2411  -2.2370  -2.2362  -2.2348
    -2.2312  -2.2190  -2.2152  -2.2067  -2.2005  -2.1949  -2.1227  -2.1184
    -2.1042  -2.1012  -2.0924  -2.0812  -2.0710  -2.0543  -2.0509  -2.0324
    -2.0207  -2.0150  -2.0094  -2.0037  -1.9850  -1.9783  -1.9740  -1.9702
    -1.9635  -1.9453  -1.9371  -1.9132  -1.8837  -1.8746  -1.8701  -1.8568
    -1.8493  -1.7947  -1.7917  -1.7845  -1.7742  -1.7182  -1.7138  -1.6718
    -1.6558  -1.6442  -1.6283  -1.6204  -1.6065  -1.5952  -1.5840  -1.5739
    -1.5684  -1.5662  -1.5494  -1.5397  -1.5220  -1.5121  -1.5060  -1.5030
    -1.4979  -1.4861  -1.4750  -1.4698  -1.4460  -1.4373  -1.4268  -1.4228
    -1.4195  -1.4118  -1.3951  -1.3722  -1.3708  -1.3668  -1.3661  -1.3528
    -1.3402  -1.3080  -1.2997  -1.2865  -1.2804  -1.2721  -1.2624  -1.2178
    -1.1881  -1.1529  -1.1377  -1.1276  -1.1258  -1.1246  -1.1178  -1.1162
    -1.1127  -1.1063  -1.0744  -1.0554  -1.0479  -1.0414  -1.0322  -1.0165
    -1.0105  -1.0056  -0.9995  -0.9960  -0.9939  -0.9900  -0.9601  -0.9491
    -0.9423  -0.9356  -0.9343  -0.9239  -0.9204  -0.8907  -0.8861  -0.8735
    -0.8578  -0.8445  -0.8327  -0.7993  -0.7940  -0.7858  -0.7781  -0.7721
    -0.7690  -0.7670  -0.7584  -0.7541  -0.7458  -0.7289  -0.7270  -0.7175
    -0.7128  -0.7082  -0.6979  -0.6909  -0.6739  -0.6726  -0.6633  -0.6391
    -0.6348  -0.6249  -0.6021  -0.5746  -0.5720  -0.5687  -0.5628  -0.5593
    -0.5552  -0.5489  -0.5374  -0.5323  -0.5259  -0.5229  -0.5151  -0.5107
    -0.4847  -0.4783  -0.4774  -0.4711  -0.4680  -0.4644  -0.4555  -0.4527
    -0.4442  -0.4409  -0.4262  -0.4123  -0.4108  -0.4042  -0.3884  -0.3843
    -0.3391  -0.3305  -0.3071  -0.3033  -0.2983  -0.2944  -0.2649  -0.2562
    -0.2550  -0.2358  -0.2335  -0.1960  -0.1559  -0.1468  -0.0409   0.3562
     0.3584   0.3829   0.3843   0.4434   0.4711   0.7828   0.7957   0.8086
     0.8127   0.9971   1.0568   1.1395   1.1568   1.3998   1.4252   1.9739
     1.9930   2.1067   2.1255   2.3188   2.3455   2.3939   2.3951   2.4823
     2.7688   2.7708   2.9443   3.1557   3.1603   3.1792   3.1885   3.2456
     3.3517   3.5253   3.5294   3.5545   3.8004   3.8046   3.8724   3.8890
     4.1149   4.1310   4.1489   4.3313   4.3438   4.4020   4.4860   4.7694
     4.8073   4.8163   5.0052   5.0967   5.0991   5.2168   5.2482   5.8207
     5.8795   5.8909   5.9607   5.9617   6.0247   6.0433   6.1123   6.1180
     6.1266   6.1417   6.1821   6.1899   6.2077   6.2126   6.3273   6.3307
     6.6454   6.7628   6.8390   6.8414   6.9672   6.9859   6.9922   7.0077
     7.0571   7.0656   7.1535

          k =-0.2500 0.4330-0.1111 (136853 PWs)   bands (ev):

   -18.9876  -6.8382  -6.4616  -6.0653  -6.0577  -5.3952  -5.0494  -5.0348
    -5.0260  -5.0075  -4.5933  -4.5865  -4.5099  -4.4827  -4.4637  -4.4618
    -4.4290  -4.3179  -4.3023  -4.2687  -4.2430  -4.2132  -4.2122  -4.2103
    -4.1677  -4.1606  -4.1435  -4.1311  -4.1149  -4.1110  -4.0928  -4.0238
    -4.0152  -4.0039  -3.9955  -3.9711  -3.9526  -3.9506  -3.9323  -3.9306
    -3.9277  -3.8623  -3.8541  -3.8234  -3.7893  -3.7882  -3.7815  -3.7588
    -3.7150  -3.6948  -3.6823  -3.6738  -3.6446  -3.6402  -3.6369  -3.6123
    -3.6097  -3.6078  -3.6025  -3.5835  -3.5701  -3.5275  -3.5198  -3.5140
    -3.4861  -3.4570  -3.4323  -3.4174  -3.3893  -3.3721  -3.3547  -3.3495
    -3.3222  -3.2891  -3.2670  -3.2567  -3.2274  -3.2171  -3.1973  -3.1895
    -3.1770  -3.1392  -3.1211  -3.1093  -3.0977  -3.0889  -3.0834  -3.0817
    -3.0799  -3.0762  -3.0673  -3.0161  -2.9632  -2.9593  -2.9581  -2.9541
    -2.9514  -2.9378  -2.9306  -2.9038  -2.8423  -2.8363  -2.8326  -2.8280
    -2.7774  -2.7758  -2.7720  -2.7652  -2.7501  -2.7004  -2.6916  -2.6886
    -2.6840  -2.6452  -2.6412  -2.6383  -2.6052  -2.5975  -2.5482  -2.5308
    -2.5218  -2.5185  -2.5119  -2.5001  -2.4913  -2.4899  -2.4865  -2.4843
    -2.4497  -2.4211  -2.4129  -2.4084  -2.4068  -2.4051  -2.4017  -2.4005
    -2.3996  -2.3969  -2.3702  -2.3655  -2.3629  -2.3612  -2.3591  -2.3482
    -2.3456  -2.3401  -2.3202  -2.3146  -2.3111  -2.2991  -2.2957  -2.2789
    -2.2716  -2.2517  -2.2485  -2.2431  -2.2420  -2.2388  -2.2362  -2.2326
    -2.2305  -2.2193  -2.2161  -2.2068  -2.2006  -2.1941  -2.1232  -2.1180
    -2.1036  -2.1014  -2.0891  -2.0833  -2.0753  -2.0570  -2.0500  -2.0321
    -2.0222  -2.0124  -2.0095  -2.0031  -1.9835  -1.9810  -1.9734  -1.9709
    -1.9618  -1.9440  -1.9375  -1.9039  -1.8800  -1.8767  -1.8685  -1.8616
    -1.8487  -1.7951  -1.7909  -1.7846  -1.7744  -1.7185  -1.7127  -1.6753
    -1.6559  -1.6441  -1.6330  -1.6221  -1.6073  -1.5930  -1.5830  -1.5751
    -1.5684  -1.5661  -1.5497  -1.5450  -1.5218  -1.5097  -1.5072  -1.5017
    -1.4969  -1.4806  -1.4750  -1.4696  -1.4427  -1.4389  -1.4273  -1.4220
    -1.4195  -1.4104  -1.3949  -1.3804  -1.3723  -1.3648  -1.3641  -1.3550
    -1.3366  -1.3071  -1.2965  -1.2872  -1.2800  -1.2680  -1.2626  -1.2171
    -1.1896  -1.1565  -1.1349  -1.1290  -1.1247  -1.1232  -1.1192  -1.1178
    -1.1132  -1.1053  -1.0725  -1.0536  -1.0482  -1.0396  -1.0368  -1.0232
    -1.0093  -1.0073  -0.9975  -0.9944  -0.9922  -0.9907  -0.9594  -0.9506
    -0.9458  -0.9357  -0.9347  -0.9254  -0.9208  -0.8932  -0.8866  -0.8751
    -0.8631  -0.8403  -0.8280  -0.7997  -0.7895  -0.7836  -0.7758  -0.7750
    -0.7701  -0.7635  -0.7583  -0.7546  -0.7455  -0.7302  -0.7275  -0.7215
    -0.7138  -0.7126  -0.7015  -0.6807  -0.6730  -0.6723  -0.6501  -0.6410
    -0.6343  -0.6252  -0.6126  -0.5771  -0.5712  -0.5703  -0.5658  -0.5593
    -0.5534  -0.5445  -0.5346  -0.5332  -0.5252  -0.5229  -0.5132  -0.5079
    -0.4806  -0.4775  -0.4764  -0.4704  -0.4688  -0.4635  -0.4594  -0.4501
    -0.4449  -0.4428  -0.4265  -0.4114  -0.4103  -0.4042  -0.3879  -0.3859
    -0.3427  -0.3311  -0.3071  -0.3040  -0.2989  -0.2927  -0.2646  -0.2571
    -0.2546  -0.2360  -0.2285  -0.2026  -0.1603  -0.1501  -0.0468   0.3555
     0.3585   0.3837   0.3847   0.4530   0.4663   0.7909   0.7966   0.8070
     0.8100   0.9937   1.0542   1.1436   1.1476   1.4065   1.4214   1.9834
     1.9888   2.1131   2.1154   2.3287   2.3358   2.3936   2.3955   2.4831
     2.7686   2.7735   2.9452   3.1591   3.1605   3.1798   3.1861   3.2501
     3.3511   3.5226   3.5348   3.5560   3.7979   3.8058   3.8762   3.8804
     4.1219   4.1248   4.1489   4.3314   4.3407   4.4022   4.4864   4.7726
     4.8056   4.8166   5.0004   5.0938   5.1000   5.2144   5.2370   5.8125
     5.8780   5.8935   5.9512   5.9678   6.0331   6.0601   6.1029   6.1214
     6.1248   6.1425   6.1834   6.1938   6.2103   6.2157   6.3076   6.3466
     6.6446   6.7684   6.8302   6.8447   6.9732   6.9819   6.9959   7.0050
     7.0598   7.0685   7.1411

          k = 0.2500-0.4330-0.1111 (136853 PWs)   bands (ev):

   -18.9876  -6.8382  -6.4616  -6.0653  -6.0577  -5.3952  -5.0494  -5.0348
    -5.0260  -5.0075  -4.5933  -4.5865  -4.5099  -4.4827  -4.4637  -4.4618
    -4.4290  -4.3179  -4.3023  -4.2687  -4.2430  -4.2132  -4.2122  -4.2103
    -4.1677  -4.1606  -4.1435  -4.1311  -4.1149  -4.1110  -4.0928  -4.0238
    -4.0152  -4.0039  -3.9955  -3.9711  -3.9526  -3.9506  -3.9323  -3.9306
    -3.9277  -3.8623  -3.8541  -3.8234  -3.7893  -3.7882  -3.7815  -3.7588
    -3.7150  -3.6948  -3.6822  -3.6738  -3.6446  -3.6402  -3.6369  -3.6123
    -3.6097  -3.6078  -3.6025  -3.5835  -3.5701  -3.5275  -3.5198  -3.5140
    -3.4861  -3.4570  -3.4323  -3.4174  -3.3893  -3.3721  -3.3547  -3.3495
    -3.3222  -3.2891  -3.2670  -3.2567  -3.2274  -3.2171  -3.1973  -3.1895
    -3.1770  -3.1392  -3.1211  -3.1093  -3.0977  -3.0889  -3.0834  -3.0817
    -3.0799  -3.0762  -3.0673  -3.0161  -2.9632  -2.9593  -2.9581  -2.9541
    -2.9514  -2.9378  -2.9306  -2.9038  -2.8423  -2.8363  -2.8326  -2.8280
    -2.7774  -2.7758  -2.7720  -2.7652  -2.7501  -2.7004  -2.6916  -2.6886
    -2.6840  -2.6452  -2.6412  -2.6383  -2.6052  -2.5975  -2.5482  -2.5308
    -2.5218  -2.5185  -2.5119  -2.5001  -2.4913  -2.4899  -2.4865  -2.4843
    -2.4497  -2.4211  -2.4129  -2.4084  -2.4068  -2.4051  -2.4017  -2.4005
    -2.3996  -2.3969  -2.3702  -2.3655  -2.3629  -2.3612  -2.3591  -2.3482
    -2.3456  -2.3401  -2.3202  -2.3146  -2.3111  -2.2991  -2.2957  -2.2789
    -2.2716  -2.2517  -2.2485  -2.2432  -2.2420  -2.2388  -2.2362  -2.2326
    -2.2305  -2.2193  -2.2161  -2.2068  -2.2006  -2.1941  -2.1232  -2.1180
    -2.1036  -2.1014  -2.0891  -2.0833  -2.0753  -2.0570  -2.0500  -2.0321
    -2.0222  -2.0124  -2.0095  -2.0031  -1.9835  -1.9810  -1.9734  -1.9709
    -1.9618  -1.9440  -1.9375  -1.9039  -1.8800  -1.8767  -1.8685  -1.8616
    -1.8487  -1.7951  -1.7909  -1.7846  -1.7744  -1.7185  -1.7127  -1.6753
    -1.6559  -1.6441  -1.6330  -1.6221  -1.6073  -1.5930  -1.5830  -1.5751
    -1.5684  -1.5661  -1.5497  -1.5450  -1.5218  -1.5097  -1.5072  -1.5017
    -1.4969  -1.4805  -1.4750  -1.4696  -1.4427  -1.4389  -1.4273  -1.4220
    -1.4195  -1.4104  -1.3949  -1.3804  -1.3723  -1.3648  -1.3641  -1.3550
    -1.3366  -1.3071  -1.2965  -1.2872  -1.2800  -1.2680  -1.2626  -1.2171
    -1.1896  -1.1565  -1.1349  -1.1290  -1.1247  -1.1232  -1.1192  -1.1178
    -1.1132  -1.1053  -1.0725  -1.0536  -1.0482  -1.0396  -1.0368  -1.0232
    -1.0093  -1.0073  -0.9975  -0.9944  -0.9922  -0.9907  -0.9594  -0.9506
    -0.9458  -0.9357  -0.9347  -0.9254  -0.9208  -0.8932  -0.8866  -0.8751
    -0.8631  -0.8403  -0.8280  -0.7997  -0.7895  -0.7836  -0.7758  -0.7750
    -0.7701  -0.7635  -0.7583  -0.7546  -0.7455  -0.7302  -0.7275  -0.7215
    -0.7138  -0.7126  -0.7015  -0.6807  -0.6730  -0.6723  -0.6501  -0.6410
    -0.6343  -0.6252  -0.6126  -0.5771  -0.5712  -0.5703  -0.5658  -0.5593
    -0.5534  -0.5445  -0.5346  -0.5332  -0.5252  -0.5229  -0.5132  -0.5079
    -0.4806  -0.4775  -0.4764  -0.4704  -0.4688  -0.4635  -0.4594  -0.4501
    -0.4449  -0.4428  -0.4265  -0.4114  -0.4103  -0.4042  -0.3879  -0.3859
    -0.3427  -0.3311  -0.3071  -0.3040  -0.2989  -0.2927  -0.2646  -0.2571
    -0.2546  -0.2360  -0.2285  -0.2026  -0.1603  -0.1501  -0.0468   0.3555
     0.3585   0.3837   0.3847   0.4530   0.4663   0.7909   0.7966   0.8070
     0.8100   0.9937   1.0542   1.1436   1.1476   1.4065   1.4214   1.9834
     1.9888   2.1131   2.1154   2.3287   2.3358   2.3936   2.3955   2.4831
     2.7686   2.7735   2.9452   3.1591   3.1605   3.1798   3.1861   3.2501
     3.3511   3.5226   3.5348   3.5560   3.7979   3.8058   3.8762   3.8804
     4.1218   4.1248   4.1489   4.3314   4.3407   4.4022   4.4864   4.7726
     4.8056   4.8166   5.0004   5.0938   5.1000   5.2144   5.2370   5.8125
     5.8780   5.8935   5.9512   5.9678   6.0331   6.0601   6.1029   6.1213
     6.1248   6.1425   6.1834   6.1938   6.2103   6.2157   6.3076   6.3466
     6.6444   6.7686   6.8304   6.8448   6.9723   6.9804   6.9962   7.0063
     7.0610   7.0680   7.1412

          k = 0.5000 0.0000 0.1111 (136853 PWs)   bands (ev):

   -18.9876  -6.8381  -6.4617  -6.0665  -6.0565  -5.3953  -5.0489  -5.0362
    -5.0260  -5.0063  -4.5931  -4.5873  -4.5100  -4.4833  -4.4641  -4.4615
    -4.4290  -4.3160  -4.3017  -4.2677  -4.2429  -4.2132  -4.2123  -4.2112
    -4.1687  -4.1608  -4.1436  -4.1322  -4.1133  -4.1106  -4.0930  -4.0228
    -4.0166  -4.0043  -3.9958  -3.9718  -3.9526  -3.9502  -3.9325  -3.9305
    -3.9276  -3.8649  -3.8539  -3.8261  -3.7906  -3.7874  -3.7811  -3.7549
    -3.7145  -3.6917  -3.6824  -3.6707  -3.6444  -3.6390  -3.6374  -3.6118
    -3.6100  -3.6086  -3.6026  -3.5841  -3.5713  -3.5290  -3.5202  -3.5147
    -3.4860  -3.4566  -3.4329  -3.4179  -3.3884  -3.3730  -3.3547  -3.3498
    -3.3222  -3.2894  -3.2665  -3.2563  -3.2265  -3.2172  -3.1962  -3.1902
    -3.1769  -3.1389  -3.1189  -3.1103  -3.0998  -3.0887  -3.0824  -3.0811
    -3.0797  -3.0766  -3.0685  -3.0163  -2.9635  -2.9592  -2.9584  -2.9548
    -2.9516  -2.9365  -2.9312  -2.9041  -2.8411  -2.8352  -2.8329  -2.8287
    -2.7779  -2.7747  -2.7717  -2.7640  -2.7507  -2.7009  -2.6939  -2.6877
    -2.6840  -2.6465  -2.6412  -2.6382  -2.6038  -2.5980  -2.5481  -2.5298
    -2.5217  -2.5198  -2.5116  -2.4986  -2.4919  -2.4897  -2.4864  -2.4849
    -2.4500  -2.4237  -2.4138  -2.4090  -2.4058  -2.4046  -2.4025  -2.4014
    -2.3990  -2.3978  -2.3691  -2.3659  -2.3628  -2.3608  -2.3588  -2.3472
    -2.3455  -2.3406  -2.3193  -2.3145  -2.3119  -2.2977  -2.2956  -2.2782
    -2.2722  -2.2522  -2.2486  -2.2429  -2.2418  -2.2379  -2.2355  -2.2337
    -2.2307  -2.2187  -2.2166  -2.2067  -2.2008  -2.1944  -2.1224  -2.1185
    -2.1048  -2.1005  -2.0907  -2.0819  -2.0740  -2.0561  -2.0507  -2.0322
    -2.0220  -2.0134  -2.0092  -2.0032  -1.9840  -1.9799  -1.9737  -1.9707
    -1.9623  -1.9442  -1.9376  -1.9067  -1.8817  -1.8758  -1.8691  -1.8597
    -1.8490  -1.7954  -1.7908  -1.7842  -1.7745  -1.7189  -1.7125  -1.6739
    -1.6562  -1.6441  -1.6308  -1.6218  -1.6071  -1.5940  -1.5836  -1.5749
    -1.5686  -1.5656  -1.5496  -1.5426  -1.5221  -1.5109  -1.5073  -1.5021
    -1.4973  -1.4827  -1.4752  -1.4696  -1.4434  -1.4381  -1.4270  -1.4218
    -1.4197  -1.4109  -1.3951  -1.3778  -1.3710  -1.3661  -1.3648  -1.3549
    -1.3376  -1.3072  -1.2987  -1.2861  -1.2801  -1.2689  -1.2628  -1.2174
    -1.1891  -1.1552  -1.1360  -1.1286  -1.1254  -1.1237  -1.1180  -1.1172
    -1.1131  -1.1056  -1.0732  -1.0540  -1.0483  -1.0404  -1.0348  -1.0211
    -1.0099  -1.0067  -0.9980  -0.9946  -0.9929  -0.9907  -0.9597  -0.9488
    -0.9457  -0.9358  -0.9342  -0.9247  -0.9206  -0.8925  -0.8864  -0.8746
    -0.8618  -0.8415  -0.8292  -0.7995  -0.7911  -0.7845  -0.7767  -0.7748
    -0.7696  -0.7650  -0.7583  -0.7540  -0.7455  -0.7299  -0.7265  -0.7203
    -0.7137  -0.7112  -0.7014  -0.6824  -0.6732  -0.6725  -0.6564  -0.6399
    -0.6341  -0.6250  -0.6088  -0.5754  -0.5719  -0.5702  -0.5650  -0.5591
    -0.5534  -0.5459  -0.5358  -0.5327  -0.5253  -0.5228  -0.5140  -0.5092
    -0.4821  -0.4775  -0.4772  -0.4708  -0.4683  -0.4641  -0.4577  -0.4512
    -0.4445  -0.4421  -0.4265  -0.4119  -0.4104  -0.4042  -0.3883  -0.3852
    -0.3411  -0.3309  -0.3072  -0.3036  -0.2988  -0.2932  -0.2647  -0.2566
    -0.2548  -0.2359  -0.2300  -0.2002  -0.1574  -0.1502  -0.0447   0.3555
     0.3587   0.3834   0.3845   0.4492   0.4684   0.7868   0.7967   0.8086
     0.8106   0.9949   1.0550   1.1429   1.1502   1.4047   1.4222   1.9793
     1.9911   2.1108   2.1190   2.3248   2.3399   2.3933   2.3957   2.4827
     2.7687   2.7724   2.9446   3.1587   3.1598   3.1801   3.1858   3.2481
     3.3513   3.5239   3.5327   3.5555   3.7980   3.8062   3.8766   3.8824
     4.1175   4.1280   4.1489   4.3320   4.3415   4.4023   4.4859   4.7714
     4.8054   4.8169   5.0046   5.0958   5.0989   5.2244   5.2315   5.8175
     5.8755   5.8928   5.9540   5.9654   6.0330   6.0569   6.1063   6.1194
     6.1252   6.1408   6.1834   6.1928   6.2054   6.2157   6.3130   6.3421
     6.6449   6.7653   6.8371   6.8429   6.9687   6.9835   6.9923   7.0064
     7.0538   7.0695   7.1568

          k =-0.5000 0.0000 0.1111 (136853 PWs)   bands (ev):

   -18.9876  -6.8381  -6.4617  -6.0665  -6.0565  -5.3953  -5.0489  -5.0362
    -5.0260  -5.0063  -4.5931  -4.5873  -4.5100  -4.4833  -4.4641  -4.4615
    -4.4290  -4.3160  -4.3017  -4.2677  -4.2429  -4.2132  -4.2123  -4.2112
    -4.1687  -4.1608  -4.1436  -4.1322  -4.1133  -4.1106  -4.0930  -4.0228
    -4.0166  -4.0043  -3.9958  -3.9718  -3.9526  -3.9502  -3.9325  -3.9305
    -3.9276  -3.8649  -3.8539  -3.8261  -3.7906  -3.7874  -3.7811  -3.7549
    -3.7145  -3.6917  -3.6824  -3.6707  -3.6444  -3.6390  -3.6374  -3.6118
    -3.6100  -3.6086  -3.6026  -3.5841  -3.5713  -3.5290  -3.5202  -3.5147
    -3.4860  -3.4566  -3.4329  -3.4179  -3.3884  -3.3730  -3.3547  -3.3498
    -3.3222  -3.2894  -3.2665  -3.2563  -3.2265  -3.2172  -3.1962  -3.1902
    -3.1769  -3.1389  -3.1189  -3.1103  -3.0998  -3.0887  -3.0824  -3.0811
    -3.0797  -3.0766  -3.0685  -3.0163  -2.9635  -2.9592  -2.9584  -2.9548
    -2.9516  -2.9365  -2.9312  -2.9041  -2.8411  -2.8352  -2.8329  -2.8287
    -2.7779  -2.7747  -2.7717  -2.7640  -2.7507  -2.7009  -2.6939  -2.6877
    -2.6840  -2.6465  -2.6412  -2.6382  -2.6038  -2.5980  -2.5481  -2.5298
    -2.5217  -2.5198  -2.5116  -2.4986  -2.4919  -2.4897  -2.4864  -2.4849
    -2.4500  -2.4237  -2.4138  -2.4090  -2.4058  -2.4046  -2.4025  -2.4014
    -2.3990  -2.3978  -2.3691  -2.3659  -2.3628  -2.3608  -2.3588  -2.3472
    -2.3455  -2.3406  -2.3193  -2.3145  -2.3119  -2.2977  -2.2956  -2.2782
    -2.2722  -2.2522  -2.2486  -2.2429  -2.2418  -2.2379  -2.2355  -2.2337
    -2.2307  -2.2187  -2.2166  -2.2067  -2.2008  -2.1944  -2.1224  -2.1185
    -2.1048  -2.1005  -2.0907  -2.0819  -2.0740  -2.0561  -2.0507  -2.0322
    -2.0220  -2.0134  -2.0092  -2.0032  -1.9840  -1.9799  -1.9737  -1.9707
    -1.9623  -1.9442  -1.9376  -1.9067  -1.8817  -1.8758  -1.8691  -1.8597
    -1.8490  -1.7954  -1.7908  -1.7842  -1.7745  -1.7189  -1.7125  -1.6739
    -1.6562  -1.6441  -1.6308  -1.6218  -1.6071  -1.5940  -1.5836  -1.5749
    -1.5686  -1.5656  -1.5496  -1.5426  -1.5221  -1.5109  -1.5073  -1.5021
    -1.4973  -1.4827  -1.4752  -1.4696  -1.4434  -1.4381  -1.4270  -1.4218
    -1.4197  -1.4109  -1.3951  -1.3778  -1.3710  -1.3661  -1.3648  -1.3549
    -1.3376  -1.3072  -1.2987  -1.2861  -1.2801  -1.2689  -1.2628  -1.2174
    -1.1891  -1.1552  -1.1360  -1.1286  -1.1254  -1.1237  -1.1180  -1.1172
    -1.1131  -1.1056  -1.0732  -1.0540  -1.0483  -1.0404  -1.0348  -1.0211
    -1.0099  -1.0067  -0.9980  -0.9946  -0.9929  -0.9907  -0.9597  -0.9488
    -0.9457  -0.9358  -0.9342  -0.9247  -0.9206  -0.8925  -0.8864  -0.8746
    -0.8618  -0.8415  -0.8292  -0.7995  -0.7911  -0.7845  -0.7767  -0.7748
    -0.7696  -0.7650  -0.7583  -0.7540  -0.7455  -0.7299  -0.7265  -0.7203
    -0.7137  -0.7112  -0.7014  -0.6824  -0.6732  -0.6725  -0.6564  -0.6399
    -0.6341  -0.6250  -0.6088  -0.5754  -0.5719  -0.5702  -0.5650  -0.5591
    -0.5534  -0.5459  -0.5358  -0.5327  -0.5253  -0.5228  -0.5140  -0.5092
    -0.4821  -0.4775  -0.4772  -0.4708  -0.4683  -0.4641  -0.4577  -0.4512
    -0.4445  -0.4421  -0.4265  -0.4119  -0.4104  -0.4042  -0.3883  -0.3852
    -0.3411  -0.3309  -0.3072  -0.3036  -0.2988  -0.2932  -0.2647  -0.2566
    -0.2548  -0.2359  -0.2300  -0.2002  -0.1574  -0.1502  -0.0447   0.3555
     0.3587   0.3834   0.3845   0.4492   0.4684   0.7868   0.7967   0.8086
     0.8106   0.9949   1.0550   1.1429   1.1502   1.4047   1.4222   1.9793
     1.9911   2.1108   2.1190   2.3248   2.3399   2.3933   2.3957   2.4827
     2.7687   2.7724   2.9446   3.1587   3.1598   3.1801   3.1858   3.2481
     3.3513   3.5239   3.5327   3.5555   3.7980   3.8062   3.8766   3.8824
     4.1175   4.1280   4.1489   4.3320   4.3415   4.4023   4.4859   4.7714
     4.8054   4.8169   5.0046   5.0958   5.0989   5.2244   5.2315   5.8175
     5.8755   5.8928   5.9540   5.9654   6.0330   6.0569   6.1063   6.1194
     6.1252   6.1408   6.1834   6.1928   6.2054   6.2157   6.3130   6.3421
     6.6448   6.7654   6.8372   6.8430   6.9680   6.9818   6.9931   7.0071
     7.0547   7.0694   7.1569

          k =-0.2500 0.1443 0.1111 (136898 PWs)   bands (ev):

   -18.9876  -6.8381  -6.6714  -5.8772  -5.5992  -5.5252  -5.5212  -4.9702
    -4.9645  -4.8653  -4.8164  -4.6824  -4.6075  -4.5828  -4.5640  -4.5161
    -4.4490  -4.4448  -4.3075  -4.2756  -4.2658  -4.2644  -4.2453  -4.2426
    -4.1263  -4.1220  -4.0589  -4.0420  -4.0302  -4.0296  -4.0141  -4.0096
    -3.9648  -3.9146  -3.8889  -3.8833  -3.8765  -3.8654  -3.8621  -3.8547
    -3.8505  -3.8235  -3.8012  -3.7939  -3.7880  -3.7833  -3.7805  -3.7664
    -3.7544  -3.7412  -3.7366  -3.7197  -3.7002  -3.6891  -3.6807  -3.6421
    -3.6244  -3.6189  -3.5646  -3.5602  -3.5432  -3.5310  -3.5151  -3.4519
    -3.4511  -3.4415  -3.4351  -3.4299  -3.4094  -3.4061  -3.3935  -3.2499
    -3.2466  -3.2444  -3.2375  -3.2244  -3.1925  -3.1886  -3.1876  -3.1796
    -3.1298  -3.1263  -3.1102  -3.1099  -3.0691  -3.0583  -3.0508  -3.0273
    -3.0186  -3.0153  -2.9762  -2.9735  -2.9539  -2.9526  -2.9465  -2.9391
    -2.9247  -2.9229  -2.8871  -2.8790  -2.8731  -2.8661  -2.8520  -2.8138
    -2.8126  -2.7836  -2.7753  -2.7671  -2.7114  -2.6989  -2.6700  -2.6688
    -2.6619  -2.6477  -2.6261  -2.6066  -2.6038  -2.5892  -2.5873  -2.5797
    -2.5762  -2.5677  -2.5617  -2.5584  -2.5491  -2.5487  -2.5398  -2.5359
    -2.4836  -2.4595  -2.4456  -2.4423  -2.4384  -2.4250  -2.4235  -2.4204
    -2.4159  -2.4081  -2.3783  -2.3739  -2.3657  -2.3564  -2.3520  -2.3499
    -2.3478  -2.3256  -2.3209  -2.3083  -2.3009  -2.2982  -2.2430  -2.2359
    -2.2253  -2.2229  -2.2205  -2.2137  -2.2035  -2.1836  -2.1672  -2.1656
    -2.1639  -2.1606  -2.1556  -2.1496  -2.1436  -2.1260  -2.1171  -2.1111
    -2.0702  -2.0640  -2.0624  -2.0607  -2.0569  -2.0520  -2.0417  -2.0394
    -2.0350  -2.0311  -2.0206  -2.0178  -2.0173  -1.9271  -1.9099  -1.8901
    -1.8810  -1.8719  -1.8543  -1.8487  -1.8423  -1.8380  -1.8343  -1.8247
    -1.8152  -1.8118  -1.8109  -1.7906  -1.7730  -1.7713  -1.7693  -1.7502
    -1.7399  -1.7383  -1.7359  -1.7281  -1.7275  -1.6670  -1.6662  -1.6380
    -1.6345  -1.6305  -1.6264  -1.6134  -1.6081  -1.5965  -1.5954  -1.5922
    -1.5917  -1.5784  -1.5776  -1.5619  -1.5296  -1.5155  -1.4978  -1.4948
    -1.4761  -1.4456  -1.4379  -1.4163  -1.4044  -1.3965  -1.3961  -1.3878
    -1.3752  -1.3635  -1.3570  -1.3490  -1.3177  -1.3162  -1.3056  -1.2908
    -1.2745  -1.2658  -1.2490  -1.2111  -1.2078  -1.1950  -1.1916  -1.1815
    -1.1772  -1.1574  -1.1570  -1.1279  -1.1146  -1.0954  -1.0933  -1.0911
    -1.0591  -1.0551  -1.0442  -1.0373  -1.0339  -1.0298  -1.0240  -1.0226
    -1.0005  -0.9948  -0.9913  -0.9851  -0.9700  -0.9672  -0.9573  -0.9534
    -0.9369  -0.9216  -0.9015  -0.8891  -0.8330  -0.8255  -0.8066  -0.8047
    -0.7993  -0.7982  -0.7896  -0.7726  -0.7694  -0.7561  -0.7478  -0.7399
    -0.7335  -0.7273  -0.7113  -0.7012  -0.7002  -0.6865  -0.6482  -0.6043
    -0.5988  -0.5715  -0.5699  -0.5628  -0.5618  -0.5554  -0.5530  -0.5517
    -0.5422  -0.5225  -0.5183  -0.4938  -0.4835  -0.4715  -0.4638  -0.4597
    -0.4554  -0.4469  -0.4447  -0.4428  -0.4366  -0.4352  -0.4220  -0.4196
    -0.4150  -0.3888  -0.3856  -0.3816  -0.3677  -0.3663  -0.3446  -0.3198
    -0.3180  -0.3093  -0.3075  -0.2413  -0.2409  -0.2289  -0.2274  -0.1663
    -0.1644  -0.1609  -0.1416  -0.1408   0.0860   0.1025   0.4190   0.4202
     0.5015   0.5149   0.6437   0.6792   0.7256   0.8286   0.8299   1.2047
     1.2769   1.2796   1.5106   1.5140   1.5784   1.8827   1.8907   1.9059
     1.9111   1.9508   1.9552   2.0990   2.1056   2.2777   2.2810   2.3012
     2.4393   2.4429   2.4826   2.6994   3.0495   3.0592   3.0985   3.1004
     3.1042   3.1070   3.4340   3.4364   3.7733   3.7755   3.8515   4.1040
     4.2298   4.2341   4.4277   4.4493   4.5193   4.5198   4.6033   4.7624
     4.7652   4.8543   4.8582   5.1429   5.2014   5.2118   5.4035   5.4207
     5.5369   5.5510   5.5569   5.5581   5.6938   5.6979   5.7762   5.9293
     6.2778   6.3655   6.3781   6.3851   6.3871   6.4648   6.4717   6.5709
     6.5983   6.7015   6.7640   6.8365   6.9564   6.9642   7.1697   7.2558
     7.2655   7.2813   7.3184

          k =-0.2500-0.1443-0.1111 (136898 PWs)   bands (ev):

   -18.9876  -6.8378  -6.6717  -5.8777  -5.5991  -5.5245  -5.5213  -4.9695
    -4.9646  -4.8684  -4.8170  -4.6813  -4.6061  -4.5805  -4.5644  -4.5171
    -4.4481  -4.4445  -4.3080  -4.2755  -4.2654  -4.2647  -4.2459  -4.2425
    -4.1258  -4.1219  -4.0633  -4.0415  -4.0308  -4.0290  -4.0128  -4.0097
    -3.9711  -3.9148  -3.8885  -3.8859  -3.8743  -3.8657  -3.8584  -3.8545
    -3.8518  -3.8149  -3.8010  -3.7945  -3.7880  -3.7830  -3.7801  -3.7728
    -3.7499  -3.7411  -3.7315  -3.7203  -3.7029  -3.6893  -3.6834  -3.6390
    -3.6244  -3.6169  -3.5644  -3.5604  -3.5432  -3.5320  -3.5185  -3.4521
    -3.4515  -3.4418  -3.4341  -3.4299  -3.4096  -3.4062  -3.3929  -3.2501
    -3.2479  -3.2412  -3.2383  -3.2249  -3.1930  -3.1877  -3.1871  -3.1791
    -3.1299  -3.1280  -3.1106  -3.1091  -3.0705  -3.0568  -3.0480  -3.0301
    -3.0192  -3.0136  -2.9762  -2.9745  -2.9540  -2.9531  -2.9463  -2.9400
    -2.9250  -2.9215  -2.8856  -2.8776  -2.8732  -2.8670  -2.8518  -2.8162
    -2.8125  -2.7837  -2.7755  -2.7671  -2.7062  -2.6985  -2.6693  -2.6683
    -2.6648  -2.6478  -2.6262  -2.6058  -2.6033  -2.5919  -2.5849  -2.5793
    -2.5774  -2.5708  -2.5610  -2.5584  -2.5494  -2.5484  -2.5400  -2.5369
    -2.4837  -2.4608  -2.4436  -2.4416  -2.4385  -2.4249  -2.4235  -2.4209
    -2.4165  -2.4089  -2.3773  -2.3742  -2.3649  -2.3559  -2.3510  -2.3490
    -2.3475  -2.3256  -2.3218  -2.3117  -2.3007  -2.2973  -2.2448  -2.2324
    -2.2284  -2.2206  -2.2197  -2.2105  -2.2030  -2.1839  -2.1705  -2.1655
    -2.1644  -2.1609  -2.1578  -2.1471  -2.1446  -2.1261  -2.1206  -2.1112
    -2.0708  -2.0654  -2.0632  -2.0607  -2.0548  -2.0506  -2.0418  -2.0396
    -2.0337  -2.0316  -2.0202  -2.0198  -2.0172  -1.9227  -1.9117  -1.9026
    -1.8767  -1.8724  -1.8529  -1.8489  -1.8445  -1.8382  -1.8339  -1.8192
    -1.8145  -1.8123  -1.8107  -1.7912  -1.7745  -1.7710  -1.7690  -1.7460
    -1.7389  -1.7380  -1.7366  -1.7331  -1.7282  -1.6682  -1.6666  -1.6373
    -1.6356  -1.6294  -1.6259  -1.6110  -1.6049  -1.5965  -1.5955  -1.5925
    -1.5916  -1.5803  -1.5784  -1.5659  -1.5251  -1.5159  -1.5010  -1.4920
    -1.4794  -1.4430  -1.4396  -1.4114  -1.4069  -1.3973  -1.3960  -1.3878
    -1.3839  -1.3632  -1.3519  -1.3476  -1.3177  -1.3157  -1.3026  -1.2922
    -1.2709  -1.2675  -1.2498  -1.2086  -1.2036  -1.1971  -1.1961  -1.1846
    -1.1745  -1.1600  -1.1576  -1.1283  -1.1131  -1.1022  -1.0914  -1.0900
    -1.0681  -1.0448  -1.0418  -1.0380  -1.0336  -1.0319  -1.0234  -1.0230
    -0.9986  -0.9919  -0.9904  -0.9758  -0.9708  -0.9666  -0.9606  -0.9550
    -0.9341  -0.9198  -0.9017  -0.8887  -0.8464  -0.8171  -0.8108  -0.8045
    -0.8022  -0.7952  -0.7916  -0.7746  -0.7707  -0.7535  -0.7451  -0.7398
    -0.7377  -0.7298  -0.7104  -0.7055  -0.6998  -0.6853  -0.6438  -0.6011
    -0.5948  -0.5752  -0.5652  -0.5603  -0.5582  -0.5554  -0.5528  -0.5502
    -0.5459  -0.5370  -0.5125  -0.4864  -0.4834  -0.4690  -0.4662  -0.4599
    -0.4547  -0.4516  -0.4473  -0.4426  -0.4390  -0.4325  -0.4229  -0.4199
    -0.4138  -0.3882  -0.3856  -0.3842  -0.3675  -0.3655  -0.3452  -0.3204
    -0.3174  -0.3100  -0.3060  -0.2432  -0.2407  -0.2287  -0.2268  -0.1667
    -0.1649  -0.1603  -0.1409  -0.1374   0.0767   0.1065   0.4196   0.4202
     0.4938   0.5202   0.6474   0.6853   0.7263   0.8264   0.8337   1.2093
     1.2763   1.2783   1.5100   1.5121   1.5783   1.8736   1.8963   1.9043
     1.9083   1.9457   1.9636   2.0963   2.1035   2.2798   2.2803   2.3010
     2.4323   2.4539   2.4832   2.6975   3.0400   3.0610   3.0967   3.1018
     3.1050   3.1093   3.4329   3.4362   3.7670   3.7809   3.8487   4.1055
     4.2288   4.2338   4.4333   4.4506   4.5172   4.5231   4.6008   4.7628
     4.7693   4.8571   4.8589   5.1423   5.2037   5.2145   5.4028   5.4269
     5.5424   5.5474   5.5542   5.5597   5.6905   5.7016   5.7663   5.9309
     6.2737   6.3611   6.3775   6.3827   6.3906   6.4482   6.4788   6.5906
     6.5955   6.7353   6.7460   6.8354   6.9466   6.9647   7.1666   7.2471
     7.2700   7.2942   7.3158

          k = 0.2500 0.1443-0.1111 (136898 PWs)   bands (ev):

   -18.9876  -6.8378  -6.6717  -5.8777  -5.5991  -5.5245  -5.5213  -4.9695
    -4.9646  -4.8684  -4.8170  -4.6813  -4.6061  -4.5805  -4.5644  -4.5171
    -4.4481  -4.4445  -4.3080  -4.2755  -4.2654  -4.2647  -4.2459  -4.2425
    -4.1258  -4.1219  -4.0633  -4.0415  -4.0308  -4.0290  -4.0128  -4.0097
    -3.9711  -3.9148  -3.8885  -3.8859  -3.8743  -3.8657  -3.8584  -3.8545
    -3.8518  -3.8149  -3.8010  -3.7945  -3.7880  -3.7830  -3.7801  -3.7728
    -3.7499  -3.7411  -3.7315  -3.7203  -3.7029  -3.6893  -3.6834  -3.6390
    -3.6244  -3.6169  -3.5644  -3.5604  -3.5432  -3.5320  -3.5185  -3.4521
    -3.4515  -3.4418  -3.4341  -3.4299  -3.4096  -3.4062  -3.3929  -3.2501
    -3.2479  -3.2412  -3.2383  -3.2249  -3.1930  -3.1877  -3.1871  -3.1791
    -3.1299  -3.1280  -3.1106  -3.1091  -3.0705  -3.0568  -3.0480  -3.0301
    -3.0192  -3.0136  -2.9762  -2.9745  -2.9540  -2.9531  -2.9463  -2.9400
    -2.9250  -2.9215  -2.8856  -2.8776  -2.8732  -2.8670  -2.8518  -2.8162
    -2.8125  -2.7837  -2.7755  -2.7671  -2.7062  -2.6985  -2.6693  -2.6683
    -2.6648  -2.6478  -2.6262  -2.6058  -2.6033  -2.5919  -2.5849  -2.5793
    -2.5774  -2.5708  -2.5610  -2.5584  -2.5494  -2.5484  -2.5400  -2.5369
    -2.4837  -2.4608  -2.4436  -2.4416  -2.4385  -2.4249  -2.4235  -2.4209
    -2.4165  -2.4089  -2.3773  -2.3742  -2.3649  -2.3559  -2.3510  -2.3490
    -2.3475  -2.3256  -2.3218  -2.3117  -2.3007  -2.2973  -2.2448  -2.2325
    -2.2284  -2.2206  -2.2197  -2.2105  -2.2030  -2.1839  -2.1705  -2.1655
    -2.1644  -2.1609  -2.1578  -2.1471  -2.1446  -2.1261  -2.1206  -2.1112
    -2.0708  -2.0654  -2.0632  -2.0607  -2.0548  -2.0506  -2.0418  -2.0396
    -2.0337  -2.0316  -2.0202  -2.0198  -2.0172  -1.9227  -1.9117  -1.9026
    -1.8767  -1.8724  -1.8529  -1.8489  -1.8445  -1.8382  -1.8339  -1.8192
    -1.8145  -1.8123  -1.8107  -1.7912  -1.7745  -1.7710  -1.7690  -1.7460
    -1.7389  -1.7380  -1.7366  -1.7331  -1.7282  -1.6682  -1.6666  -1.6373
    -1.6356  -1.6293  -1.6259  -1.6110  -1.6049  -1.5965  -1.5955  -1.5925
    -1.5916  -1.5803  -1.5784  -1.5659  -1.5251  -1.5159  -1.5010  -1.4920
    -1.4794  -1.4430  -1.4396  -1.4114  -1.4069  -1.3973  -1.3960  -1.3878
    -1.3839  -1.3632  -1.3519  -1.3476  -1.3177  -1.3157  -1.3026  -1.2922
    -1.2709  -1.2675  -1.2498  -1.2086  -1.2036  -1.1971  -1.1961  -1.1846
    -1.1745  -1.1600  -1.1576  -1.1283  -1.1131  -1.1022  -1.0914  -1.0900
    -1.0681  -1.0448  -1.0418  -1.0380  -1.0336  -1.0318  -1.0234  -1.0230
    -0.9986  -0.9919  -0.9904  -0.9758  -0.9708  -0.9666  -0.9606  -0.9550
    -0.9341  -0.9198  -0.9017  -0.8887  -0.8464  -0.8171  -0.8108  -0.8045
    -0.8022  -0.7952  -0.7916  -0.7747  -0.7707  -0.7535  -0.7451  -0.7398
    -0.7377  -0.7298  -0.7104  -0.7055  -0.6998  -0.6853  -0.6438  -0.6010
    -0.5948  -0.5752  -0.5652  -0.5603  -0.5582  -0.5554  -0.5527  -0.5502
    -0.5459  -0.5370  -0.5125  -0.4864  -0.4834  -0.4690  -0.4662  -0.4599
    -0.4547  -0.4516  -0.4473  -0.4426  -0.4390  -0.4325  -0.4229  -0.4199
    -0.4138  -0.3882  -0.3856  -0.3842  -0.3675  -0.3655  -0.3452  -0.3204
    -0.3174  -0.3100  -0.3060  -0.2432  -0.2407  -0.2287  -0.2268  -0.1667
    -0.1649  -0.1603  -0.1409  -0.1374   0.0767   0.1065   0.4196   0.4202
     0.4938   0.5202   0.6474   0.6853   0.7263   0.8264   0.8337   1.2093
     1.2763   1.2783   1.5100   1.5121   1.5782   1.8736   1.8963   1.9043
     1.9083   1.9457   1.9636   2.0963   2.1035   2.2798   2.2803   2.3010
     2.4323   2.4539   2.4831   2.6975   3.0400   3.0610   3.0967   3.1018
     3.1050   3.1093   3.4329   3.4362   3.7670   3.7809   3.8487   4.1055
     4.2288   4.2338   4.4333   4.4506   4.5172   4.5231   4.6008   4.7628
     4.7693   4.8571   4.8589   5.1423   5.2037   5.2145   5.4028   5.4269
     5.5424   5.5474   5.5542   5.5597   5.6905   5.7016   5.7664   5.9308
     6.2737   6.3611   6.3775   6.3827   6.3906   6.4488   6.4790   6.5907
     6.5955   6.7349   6.7457   6.8346   6.9466   6.9646   7.1585   7.2473
     7.2701   7.2946   7.3164

          k = 0.0000-0.2887 0.1111 (136898 PWs)   bands (ev):

   -18.9876  -6.8379  -6.6716  -5.8774  -5.5993  -5.5247  -5.5212  -4.9697
    -4.9645  -4.8671  -4.8167  -4.6819  -4.6066  -4.5816  -4.5643  -4.5168
    -4.4485  -4.4446  -4.3077  -4.2754  -4.2655  -4.2645  -4.2457  -4.2427
    -4.1259  -4.1219  -4.0614  -4.0418  -4.0306  -4.0293  -4.0134  -4.0094
    -3.9685  -3.9150  -3.8887  -3.8847  -3.8750  -3.8657  -3.8598  -3.8545
    -3.8515  -3.8197  -3.8008  -3.7943  -3.7880  -3.7829  -3.7800  -3.7701
    -3.7513  -3.7410  -3.7347  -3.7193  -3.7017  -3.6892  -3.6823  -3.6401
    -3.6243  -3.6175  -3.5645  -3.5605  -3.5432  -3.5315  -3.5176  -3.4521
    -3.4513  -3.4417  -3.4345  -3.4300  -3.4094  -3.4066  -3.3926  -3.2501
    -3.2476  -3.2425  -3.2377  -3.2248  -3.1931  -3.1881  -3.1873  -3.1790
    -3.1299  -3.1271  -3.1105  -3.1097  -3.0699  -3.0575  -3.0488  -3.0292
    -3.0190  -3.0143  -2.9765  -2.9739  -2.9541  -2.9530  -2.9463  -2.9400
    -2.9247  -2.9217  -2.8863  -2.8779  -2.8731  -2.8666  -2.8518  -2.8154
    -2.8125  -2.7837  -2.7754  -2.7671  -2.7087  -2.6979  -2.6697  -2.6683
    -2.6639  -2.6477  -2.6262  -2.6070  -2.6028  -2.5920  -2.5844  -2.5794
    -2.5768  -2.5693  -2.5614  -2.5580  -2.5498  -2.5487  -2.5401  -2.5365
    -2.4837  -2.4603  -2.4447  -2.4414  -2.4384  -2.4253  -2.4233  -2.4209
    -2.4162  -2.4088  -2.3776  -2.3742  -2.3652  -2.3563  -2.3517  -2.3488
    -2.3474  -2.3258  -2.3210  -2.3102  -2.3009  -2.2978  -2.2442  -2.2337
    -2.2277  -2.2214  -2.2198  -2.2121  -2.2028  -2.1838  -2.1689  -2.1656
    -2.1641  -2.1606  -2.1572  -2.1480  -2.1442  -2.1262  -2.1197  -2.1111
    -2.0709  -2.0657  -2.0627  -2.0603  -2.0551  -2.0510  -2.0416  -2.0387
    -2.0341  -2.0320  -2.0203  -2.0193  -2.0172  -1.9256  -1.9106  -1.8983
    -1.8774  -1.8724  -1.8532  -1.8484  -1.8437  -1.8382  -1.8341  -1.8214
    -1.8146  -1.8121  -1.8108  -1.7911  -1.7737  -1.7712  -1.7691  -1.7480
    -1.7392  -1.7379  -1.7359  -1.7316  -1.7278  -1.6681  -1.6664  -1.6374
    -1.6351  -1.6293  -1.6260  -1.6123  -1.6059  -1.5970  -1.5952  -1.5925
    -1.5916  -1.5793  -1.5783  -1.5648  -1.5268  -1.5159  -1.4997  -1.4932
    -1.4782  -1.4442  -1.4388  -1.4133  -1.4057  -1.3974  -1.3960  -1.3874
    -1.3813  -1.3635  -1.3531  -1.3479  -1.3179  -1.3158  -1.3035  -1.2919
    -1.2724  -1.2665  -1.2493  -1.2093  -1.2055  -1.1964  -1.1943  -1.1836
    -1.1752  -1.1593  -1.1575  -1.1279  -1.1137  -1.1002  -1.0921  -1.0904
    -1.0663  -1.0480  -1.0425  -1.0375  -1.0338  -1.0307  -1.0237  -1.0229
    -0.9993  -0.9926  -0.9908  -0.9793  -0.9703  -0.9673  -0.9592  -0.9543
    -0.9353  -0.9202  -0.9017  -0.8888  -0.8413  -0.8202  -0.8096  -0.8044
    -0.8012  -0.7959  -0.7909  -0.7744  -0.7703  -0.7550  -0.7454  -0.7396
    -0.7367  -0.7284  -0.7107  -0.7045  -0.6998  -0.6856  -0.6452  -0.6019
    -0.5965  -0.5738  -0.5657  -0.5623  -0.5599  -0.5557  -0.5527  -0.5511
    -0.5445  -0.5323  -0.5136  -0.4889  -0.4834  -0.4702  -0.4650  -0.4599
    -0.4550  -0.4501  -0.4469  -0.4419  -0.4385  -0.4330  -0.4227  -0.4199
    -0.4143  -0.3883  -0.3858  -0.3831  -0.3676  -0.3657  -0.3451  -0.3202
    -0.3175  -0.3097  -0.3065  -0.2425  -0.2410  -0.2287  -0.2269  -0.1664
    -0.1650  -0.1606  -0.1409  -0.1389   0.0798   0.1055   0.4193   0.4202
     0.4962   0.5185   0.6461   0.6833   0.7259   0.8269   0.8325   1.2074
     1.2766   1.2788   1.5106   1.5125   1.5784   1.8768   1.8946   1.9059
     1.9079   1.9471   1.9611   2.0984   2.1032   2.2790   2.2804   2.3013
     2.4345   2.4501   2.4829   2.6985   3.0446   3.0593   3.0963   3.1020
     3.1052   3.1087   3.4338   3.4359   3.7685   3.7792   3.8503   4.1049
     4.2307   4.2327   4.4370   4.4434   4.5176   4.5220   4.6025   4.7614
     4.7687   4.8567   4.8582   5.1437   5.1982   5.2147   5.4051   5.4217
     5.5406   5.5480   5.5552   5.5594   5.6879   5.7031   5.7722   5.9306
     6.2786   6.3650   6.3764   6.3828   6.3901   6.4514   6.4758   6.5830
     6.5937   6.7288   6.7470   6.8357   6.9502   6.9644   7.1669   7.2487
     7.2705   7.2965   7.3097

          k = 0.0000 0.2887 0.1111 (136898 PWs)   bands (ev):

   -18.9876  -6.8379  -6.6716  -5.8774  -5.5993  -5.5247  -5.5212  -4.9696
    -4.9645  -4.8671  -4.8167  -4.6819  -4.6066  -4.5816  -4.5643  -4.5168
    -4.4485  -4.4445  -4.3077  -4.2754  -4.2655  -4.2645  -4.2457  -4.2427
    -4.1259  -4.1219  -4.0615  -4.0418  -4.0306  -4.0293  -4.0134  -4.0094
    -3.9685  -3.9150  -3.8887  -3.8847  -3.8750  -3.8657  -3.8598  -3.8545
    -3.8515  -3.8197  -3.8008  -3.7943  -3.7880  -3.7829  -3.7800  -3.7701
    -3.7513  -3.7410  -3.7347  -3.7193  -3.7017  -3.6892  -3.6823  -3.6401
    -3.6243  -3.6175  -3.5645  -3.5605  -3.5432  -3.5315  -3.5176  -3.4521
    -3.4513  -3.4417  -3.4345  -3.4300  -3.4094  -3.4066  -3.3926  -3.2501
    -3.2476  -3.2425  -3.2377  -3.2248  -3.1931  -3.1881  -3.1873  -3.1790
    -3.1299  -3.1271  -3.1105  -3.1097  -3.0699  -3.0575  -3.0488  -3.0292
    -3.0190  -3.0143  -2.9765  -2.9739  -2.9541  -2.9530  -2.9463  -2.9400
    -2.9247  -2.9217  -2.8863  -2.8779  -2.8731  -2.8666  -2.8518  -2.8154
    -2.8125  -2.7837  -2.7754  -2.7671  -2.7087  -2.6979  -2.6697  -2.6683
    -2.6639  -2.6477  -2.6262  -2.6070  -2.6028  -2.5920  -2.5844  -2.5794
    -2.5768  -2.5693  -2.5614  -2.5580  -2.5498  -2.5487  -2.5402  -2.5365
    -2.4837  -2.4603  -2.4447  -2.4414  -2.4384  -2.4253  -2.4233  -2.4209
    -2.4162  -2.4088  -2.3776  -2.3742  -2.3652  -2.3563  -2.3517  -2.3488
    -2.3474  -2.3258  -2.3210  -2.3102  -2.3009  -2.2978  -2.2442  -2.2337
    -2.2277  -2.2214  -2.2198  -2.2121  -2.2028  -2.1838  -2.1689  -2.1656
    -2.1641  -2.1605  -2.1572  -2.1480  -2.1442  -2.1262  -2.1197  -2.1111
    -2.0709  -2.0657  -2.0627  -2.0603  -2.0551  -2.0510  -2.0416  -2.0387
    -2.0340  -2.0319  -2.0203  -2.0193  -2.0172  -1.9256  -1.9106  -1.8983
    -1.8774  -1.8724  -1.8532  -1.8484  -1.8437  -1.8382  -1.8341  -1.8214
    -1.8146  -1.8121  -1.8108  -1.7911  -1.7737  -1.7712  -1.7691  -1.7480
    -1.7392  -1.7379  -1.7359  -1.7316  -1.7278  -1.6681  -1.6664  -1.6374
    -1.6351  -1.6293  -1.6260  -1.6123  -1.6059  -1.5970  -1.5952  -1.5925
    -1.5916  -1.5793  -1.5783  -1.5648  -1.5268  -1.5159  -1.4997  -1.4932
    -1.4782  -1.4442  -1.4388  -1.4133  -1.4057  -1.3974  -1.3960  -1.3874
    -1.3813  -1.3635  -1.3531  -1.3479  -1.3179  -1.3158  -1.3035  -1.2919
    -1.2724  -1.2665  -1.2493  -1.2093  -1.2055  -1.1964  -1.1943  -1.1836
    -1.1752  -1.1593  -1.1575  -1.1279  -1.1137  -1.1002  -1.0921  -1.0904
    -1.0663  -1.0480  -1.0425  -1.0375  -1.0338  -1.0307  -1.0237  -1.0229
    -0.9993  -0.9926  -0.9908  -0.9793  -0.9703  -0.9673  -0.9592  -0.9543
    -0.9353  -0.9202  -0.9017  -0.8888  -0.8413  -0.8202  -0.8096  -0.8044
    -0.8012  -0.7959  -0.7909  -0.7744  -0.7703  -0.7550  -0.7454  -0.7396
    -0.7367  -0.7284  -0.7107  -0.7045  -0.6998  -0.6855  -0.6452  -0.6018
    -0.5965  -0.5738  -0.5657  -0.5623  -0.5599  -0.5557  -0.5527  -0.5511
    -0.5445  -0.5323  -0.5136  -0.4889  -0.4834  -0.4702  -0.4650  -0.4599
    -0.4550  -0.4501  -0.4469  -0.4419  -0.4385  -0.4330  -0.4227  -0.4199
    -0.4143  -0.3883  -0.3858  -0.3831  -0.3676  -0.3657  -0.3451  -0.3202
    -0.3175  -0.3097  -0.3065  -0.2425  -0.2410  -0.2287  -0.2269  -0.1664
    -0.1650  -0.1606  -0.1409  -0.1389   0.0798   0.1055   0.4193   0.4202
     0.4962   0.5185   0.6461   0.6833   0.7259   0.8269   0.8325   1.2075
     1.2766   1.2788   1.5106   1.5125   1.5784   1.8768   1.8946   1.9059
     1.9079   1.9471   1.9611   2.0984   2.1032   2.2790   2.2804   2.3013
     2.4345   2.4501   2.4829   2.6985   3.0446   3.0593   3.0963   3.1020
     3.1052   3.1087   3.4338   3.4359   3.7685   3.7792   3.8503   4.1049
     4.2307   4.2327   4.4370   4.4434   4.5176   4.5220   4.6025   4.7614
     4.7687   4.8567   4.8582   5.1437   5.1982   5.2147   5.4051   5.4217
     5.5406   5.5480   5.5552   5.5594   5.6879   5.7031   5.7722   5.9306
     6.2786   6.3650   6.3764   6.3828   6.3901   6.4520   6.4758   6.5831
     6.5936   6.7283   6.7467   6.8351   6.9501   6.9644   7.1588   7.2491
     7.2707   7.2967   7.3103

     the Fermi energy is     1.4062 ev

!    total energy              =   -6564.17437546 Ry
     Harris-Foulkes estimate   =   -6564.17437546 Ry
     estimated scf accuracy    <          1.7E-09 Ry

     The total energy is the sum of the following terms:

     one-electron contribution =  -48860.71037547 Ry
     hartree contribution      =   24927.07873844 Ry
     xc contribution           =   -3162.37229123 Ry
     ewald contribution        =   20531.82746868 Ry
     smearing contrib. (-TS)   =       0.00208411 Ry

     convergence has been achieved in  25 iterations

     Writing output data file 2959389.save

     init_run     :    129.90s CPU    135.40s WALL (       1 calls)
     electrons    :   8276.55s CPU   8926.43s WALL (       1 calls)

     Called by init_run:
     wfcinit      :    106.11s CPU    111.25s WALL (       1 calls)
     potinit      :      5.59s CPU      5.69s WALL (       1 calls)

     Called by electrons:
     c_bands      :   7070.12s CPU   7659.58s WALL (      26 calls)
     sum_band     :   1034.32s CPU   1090.81s WALL (      26 calls)
     v_of_rho     :     12.62s CPU     13.81s WALL (      26 calls)
     newd         :    160.98s CPU    163.14s WALL (      26 calls)
     mix_rho      :      2.00s CPU      2.24s WALL (      26 calls)

     Called by c_bands:
     init_us_2    :     11.29s CPU     11.62s WALL (     636 calls)
     cegterg      :   6986.51s CPU   7574.56s WALL (     312 calls)

     Called by *egterg:
     h_psi        :   3269.47s CPU   3520.77s WALL (    1580 calls)
     s_psi        :    427.62s CPU    429.69s WALL (    1580 calls)
     g_psi        :      6.32s CPU      6.25s WALL (    1256 calls)
     cdiaghg      :   1964.34s CPU   2269.93s WALL (    1556 calls)

     Called by h_psi:
     add_vuspsi   :    428.48s CPU    430.77s WALL (    1580 calls)

     General routines
     calbec       :    604.88s CPU    606.68s WALL (    1892 calls)
     fft          :     36.51s CPU     38.55s WALL (     416 calls)
     ffts         :      1.13s CPU      1.30s WALL (      52 calls)
     fftw         :   2882.90s CPU   3169.51s WALL (  757468 calls)
     interpolate  :      2.90s CPU      3.39s WALL (      52 calls)
     davcio       :      0.00s CPU      0.16s WALL (      12 calls)

     Parallel routines
     fft_scatter  :   2153.26s CPU   2393.23s WALL (  757936 calls)

     PWSCF        :     2h20m CPU        2h31m WALL


   This run was terminated on:  19:46:58   9Aug2015            

=------------------------------------------------------------------------------=
   JOB DONE.
=------------------------------------------------------------------------------=
