Setting SGE environment for SCC

     Program PWSCF v.5.1.2 starts on  8Aug2015 at 20:55: 7 

     This program is part of the open-source Quantum ESPRESSO suite
     for quantum simulation of materials; please cite
         "P. Giannozzi et al., J. Phys.:Condens. Matter 21 395502 (2009);
          URL http://www.quantum-espresso.org", 
     in publications or presentations arising from this work. More details at
     http://www.quantum-espresso.org/quote

     Parallel version (MPI), running on    32 processors
     R & G space division:  proc/nbgrp/npool/nimage =      32
     Reading input from top.O1.Au50.d.3.4.phi.0.psi.180.in
Warning: card &IONS ignored
Warning: card / ignored
Warning: card &CELL ignored
Warning: card / ignored

     Current dimensions of program PWSCF are:
     Max number of different atomic species (ntypx) = 10
     Max number of k-points (npk) =  40000
     Max angular momentum in pseudopotentials (lmaxx) =  3

     Subspace diagonalization in iterative solution of the eigenvalue problem:
     a serial algorithm will be used


     Parallelization info
     --------------------
     sticks:   dense  smooth     PW     G-vecs:    dense   smooth      PW
     Min         445     223     58                96775    34191    4534
     Max         446     224     59                96790    34246    4540
     Sum       14269    7147   1867              3097177  1095093  145167


     Title: 
     top.O1.Au50.d.3.4.phi.0.psi.180                                            


     bravais-lattice index     =            4
     lattice parameter (alat)  =      22.7436  a.u.
     unit-cell volume          =   22924.1508 (a.u.)^3
     number of atoms/cell      =           67
     number of atomic types    =            3
     number of electrons       =       712.00
     number of Kohn-Sham states=          427
     kinetic-energy cutoff     =      50.0000  Ry
     charge density cutoff     =     400.0000  Ry
     convergence threshold     =      1.0E-08
     mixing beta               =       0.7000
     number of iterations used =            8  plain     mixing
     Exchange-correlation      =  SLA  PW   PBE  PBE ( 1  4  3  4 0 0)

     celldm(1)=  22.743643  celldm(2)=   0.000000  celldm(3)=   2.250000
     celldm(4)=   0.000000  celldm(5)=   0.000000  celldm(6)=   0.000000

     crystal axes: (cart. coord. in units of alat)
               a(1) = (   1.000000   0.000000   0.000000 )  
               a(2) = (  -0.500000   0.866025   0.000000 )  
               a(3) = (   0.000000   0.000000   2.250000 )  

     reciprocal axes: (cart. coord. in units 2 pi/alat)
               b(1) = (  1.000000  0.577350 -0.000000 )  
               b(2) = (  0.000000  1.154701  0.000000 )  
               b(3) = (  0.000000 -0.000000  0.444444 )  


     PseudoPot. # 1 for Au read from file:
     /home/scc/andrejb/qe/pseudo/Au.pbe-nd-van.UPF
     MD5 check sum: 458681b50f36d87ef23c61b04bba420a
     Pseudo is Ultrasoft + core correction, Zval = 11.0
     Generated by new atomic code, or converted to UPF format
     Using radial grid of  985 points,  3 beta functions with: 
                l(1) =   1
                l(2) =   2
                l(3) =   2
     Q(r) pseudized with  8 coefficients,  rinner =    1.100   1.100   1.100
                                                       1.100   1.100

     PseudoPot. # 2 for H  read from file:
     /home/scc/andrejb/qe/pseudo/H.pbe-van_ak.UPF
     MD5 check sum: 403db7282739603aa925980fa9b8608d
     Pseudo is Ultrasoft, Zval =  1.0
     Generated by new atomic code, or converted to UPF format
     Using radial grid of  615 points,  1 beta functions with: 
                l(1) =   0
     Q(r) pseudized with  8 coefficients,  rinner =    0.800

     PseudoPot. # 3 for O  read from file:
     /home/scc/andrejb/qe/pseudo/O.pbe-van_ak.UPF
     MD5 check sum: 4b8c549914a63cae506c6ff22b5af4fe
     Pseudo is Ultrasoft, Zval =  6.0
     Generated by new atomic code, or converted to UPF format
     Using radial grid of  737 points,  4 beta functions with: 
                l(1) =   0
                l(2) =   0
                l(3) =   1
                l(4) =   1
     Q(r) pseudized with  8 coefficients,  rinner =    0.800   0.800   0.800


     atomic species   valence    mass     pseudopotential
        Au            11.00   196.96657     Au( 1.00)
        H              1.00     1.01000     H ( 1.00)
        O              6.00    16.00000     O ( 1.00)

     No symmetry found



   Cartesian axes

     site n.     atom                  positions (alat units)
         1           O   tau(   1) = (   0.4790780   0.3968269   1.1115254  )
         2           H   tau(   2) = (   0.4291446   0.4383745   1.0632718  )
         3           H   tau(   3) = (   0.5274974   0.3565200   1.0607647  )
         4           Au  tau(   4) = (   0.3540481   0.6132292   0.0000000  )
         5           Au  tau(   5) = (   0.4790062   0.3967954   0.0000000  )
         6           Au  tau(   6) = (   0.6039644   0.1803616   0.0000000  )
         7           Au  tau(   7) = (   0.7289225  -0.0360723   0.0000000  )
         8           Au  tau(   8) = (   0.1041318   0.6132292   0.0000000  )
         9           Au  tau(   9) = (   0.2290899   0.3967954   0.0000000  )
        10           Au  tau(  10) = (   0.3540481   0.1803616   0.0000000  )
        11           Au  tau(  11) = (   0.4790062  -0.0360723   0.0000000  )
        12           Au  tau(  12) = (  -0.1457845   0.6132292   0.0000000  )
        13           Au  tau(  13) = (  -0.0208264   0.3967954   0.0000000  )
        14           Au  tau(  14) = (   0.1041318   0.1803616   0.0000000  )
        15           Au  tau(  15) = (   0.2290899  -0.0360723   0.0000000  )
        16           Au  tau(  16) = (  -0.3957008   0.6132292   0.0000000  )
        17           Au  tau(  17) = (  -0.2707426   0.3967954   0.0000000  )
        18           Au  tau(  18) = (  -0.1457845   0.1803616   0.0000000  )
        19           Au  tau(  19) = (  -0.0208264  -0.0360723   0.0000000  )
        20           Au  tau(  20) = (   0.4790062   0.6853738   0.2040557  )
        21           Au  tau(  21) = (   0.6039644   0.4689400   0.2040557  )
        22           Au  tau(  22) = (   0.7289225   0.2525061   0.2040557  )
        23           Au  tau(  23) = (   0.8538806   0.0360723   0.2040557  )
        24           Au  tau(  24) = (   0.2290899   0.6853738   0.2040557  )
        25           Au  tau(  25) = (   0.3540481   0.4689400   0.2040557  )
        26           Au  tau(  26) = (   0.4790062   0.2525061   0.2040557  )
        27           Au  tau(  27) = (   0.6039644   0.0360723   0.2040557  )
        28           Au  tau(  28) = (  -0.0208264   0.6853738   0.2040557  )
        29           Au  tau(  29) = (   0.1041318   0.4689400   0.2040557  )
        30           Au  tau(  30) = (   0.2290899   0.2525061   0.2040557  )
        31           Au  tau(  31) = (   0.3540481   0.0360723   0.2040557  )
        32           Au  tau(  32) = (  -0.2707426   0.6853738   0.2040557  )
        33           Au  tau(  33) = (  -0.1457845   0.4689400   0.2040557  )
        34           Au  tau(  34) = (  -0.0208264   0.2525061   0.2040557  )
        35           Au  tau(  35) = (   0.1041318   0.0360723   0.2040557  )
        36           Au  tau(  36) = (   0.3541162   0.7576593   0.4066483  )
        37           Au  tau(  37) = (   0.4791000   0.5411421   0.4066695  )
        38           Au  tau(  38) = (   0.6040570   0.3246862   0.4066617  )
        39           Au  tau(  39) = (   0.7290270   0.1081684   0.4066529  )
        40           Au  tau(  40) = (   0.1041162   0.7576236   0.4066247  )
        41           Au  tau(  41) = (   0.2291001   0.5411063   0.4066455  )
        42           Au  tau(  42) = (   0.3540567   0.3246505   0.4066380  )
        43           Au  tau(  43) = (   0.4790276   0.1081324   0.4066292  )
        44           Au  tau(  44) = (  -0.1458201   0.7576104   0.4066224  )
        45           Au  tau(  45) = (  -0.0208365   0.5410930   0.4066438  )
        46           Au  tau(  46) = (   0.1041202   0.3246372   0.4066359  )
        47           Au  tau(  47) = (   0.2290908   0.1081193   0.4066273  )
        48           Au  tau(  48) = (  -0.3958167   0.7575791   0.4065812  )
        49           Au  tau(  49) = (  -0.2708328   0.5410617   0.4066025  )
        50           Au  tau(  50) = (  -0.1458763   0.3246061   0.4065947  )
        51           Au  tau(  51) = (  -0.0209056   0.1080882   0.4065858  )
        52           Au  tau(  52) = (   0.3541085   0.6133344   0.6129762  )
        53           Au  tau(  53) = (   0.4790780   0.3968269   0.6129968  )
        54           Au  tau(  54) = (   0.6040356   0.1803811   0.6129859  )
        55           Au  tau(  55) = (   0.7290165  -0.0361221   0.6129385  )
        56           Au  tau(  56) = (   0.1041243   0.6133091   0.6130022  )
        57           Au  tau(  57) = (   0.2290941   0.3968013   0.6130241  )
        58           Au  tau(  58) = (   0.3540515   0.1803552   0.6130121  )
        59           Au  tau(  59) = (   0.4790323  -0.0361475   0.6129659  )
        60           Au  tau(  60) = (  -0.1458030   0.6133014   0.6129980  )
        61           Au  tau(  61) = (  -0.0208339   0.3967936   0.6130188  )
        62           Au  tau(  62) = (   0.1041239   0.1803477   0.6130083  )
        63           Au  tau(  63) = (   0.2291046  -0.0361554   0.6129607  )
        64           Au  tau(  64) = (  -0.3957908   0.6132739   0.6129471  )
        65           Au  tau(  65) = (  -0.2708208   0.3967658   0.6129688  )
        66           Au  tau(  66) = (  -0.1458636   0.1803200   0.6129569  )
        67           Au  tau(  67) = (  -0.0208823  -0.0361826   0.6129110  )

     number of k points=    12  Marzari-Vanderbilt smearing, width (Ry)=  0.0200
                       cart. coord. in units 2pi/alat
        k(    1) = (   0.2500000   0.4330127   0.1111111), wk =   0.1666667
        k(    2) = (   0.2500000  -0.1443376   0.1111111), wk =   0.1666667
        k(    3) = (  -0.2500000  -0.4330127   0.1111111), wk =   0.1666667
        k(    4) = (  -0.2500000   0.4330127  -0.1111111), wk =   0.1666667
        k(    5) = (   0.2500000  -0.4330127  -0.1111111), wk =   0.1666667
        k(    6) = (   0.5000000   0.0000000   0.1111111), wk =   0.1666667
        k(    7) = (  -0.5000000   0.0000000   0.1111111), wk =   0.1666667
        k(    8) = (  -0.2500000   0.1443376   0.1111111), wk =   0.1666667
        k(    9) = (  -0.2500000  -0.1443376  -0.1111111), wk =   0.1666667
        k(   10) = (   0.2500000   0.1443376  -0.1111111), wk =   0.1666667
        k(   11) = (   0.0000000  -0.2886751   0.1111111), wk =   0.1666667
        k(   12) = (   0.0000000   0.2886751   0.1111111), wk =   0.1666667

     Dense  grid:  3097177 G-vectors     FFT dimensions: ( 150, 150, 360)

     Smooth grid:  1095093 G-vectors     FFT dimensions: ( 108, 108, 240)

     Largest allocated arrays     est. size (Mb)     dimensions
        Kohn-Sham Wavefunctions        28.01 Mb     (    4299,  427)
        NL pseudopotentials            55.23 Mb     (    4299,  842)
        Each V/rho on FFT grid          4.12 Mb     (  270000)
        Each G-vector array             0.74 Mb     (   96788)
        G-vector shells                 0.16 Mb     (   21404)
     Largest temporary arrays     est. size (Mb)     dimensions
        Auxiliary wavefunctions       112.04 Mb     (    4299, 1708)
        Each subspace H/S matrix       44.51 Mb     (    1708, 1708)
        Each <psi_i|beta_j> matrix      5.49 Mb     (     842,  427)
        Arrays for rho mixing          32.96 Mb     (  270000,    8)

     Initial potential from superposition of free atoms
     Check: negative starting charge=   -1.729843

     starting charge  711.25682, renormalised to  712.00000

     negative rho (up, down):  1.732E+00 0.000E+00
     Starting wfc are  582 randomized atomic wfcs

     total cpu time spent up to now is      224.0 secs

     Self-consistent Calculation

     iteration #  1     ecut=    50.00 Ry     beta=0.70
     Davidson diagonalization with overlap
     ethr =  1.00E-02,  avg # of iterations =  3.0

     Threshold (ethr) on eigenvalues was too large:
     Diagonalizing with lowered threshold

     Davidson diagonalization with overlap
     ethr =  4.35E-04,  avg # of iterations =  2.8

     negative rho (up, down):  1.714E+00 0.000E+00

     total cpu time spent up to now is     1094.1 secs

     total energy              =   -6562.22382437 Ry
     Harris-Foulkes estimate   =   -6564.99299432 Ry
     estimated scf accuracy    <       3.56456785 Ry

     iteration #  2     ecut=    50.00 Ry     beta=0.70
     Davidson diagonalization with overlap
     ethr =  5.01E-04,  avg # of iterations = 11.3

     negative rho (up, down):  1.714E+00 0.000E+00

     total cpu time spent up to now is     2323.0 secs

     total energy              =   -6554.97191206 Ry
     Harris-Foulkes estimate   =   -6570.88464825 Ry
     estimated scf accuracy    <      89.76801923 Ry

     iteration #  3     ecut=    50.00 Ry     beta=0.70
     Davidson diagonalization with overlap
     ethr =  5.01E-04,  avg # of iterations =  6.0

     negative rho (up, down):  1.730E+00 0.000E+00

     total cpu time spent up to now is     3166.0 secs

     total energy              =   -6562.52818239 Ry
     Harris-Foulkes estimate   =   -6565.00123082 Ry
     estimated scf accuracy    <      10.94590702 Ry

     iteration #  4     ecut=    50.00 Ry     beta=0.70
     Davidson diagonalization with overlap
     ethr =  5.01E-04,  avg # of iterations =  8.3

     negative rho (up, down):  1.732E+00 0.000E+00

     total cpu time spent up to now is     3744.2 secs

     total energy              =   -6562.62932509 Ry
     Harris-Foulkes estimate   =   -6565.35241367 Ry
     estimated scf accuracy    <      27.38166544 Ry

     iteration #  5     ecut=    50.00 Ry     beta=0.70
     Davidson diagonalization with overlap
     ethr =  5.01E-04,  avg # of iterations =  7.0

     negative rho (up, down):  1.745E+00 0.000E+00

     total cpu time spent up to now is     4273.7 secs

     total energy              =   -6564.07221536 Ry
     Harris-Foulkes estimate   =   -6564.47019388 Ry
     estimated scf accuracy    <       2.94955031 Ry

     iteration #  6     ecut=    50.00 Ry     beta=0.70
     Davidson diagonalization with overlap
     ethr =  4.14E-04,  avg # of iterations =  2.8

     negative rho (up, down):  1.751E+00 0.000E+00

     total cpu time spent up to now is     4676.9 secs

     total energy              =   -6564.20756818 Ry
     Harris-Foulkes estimate   =   -6564.24001749 Ry
     estimated scf accuracy    <       0.09740239 Ry

     iteration #  7     ecut=    50.00 Ry     beta=0.70
     Davidson diagonalization with overlap
     ethr =  1.37E-05,  avg # of iterations =  9.3

     negative rho (up, down):  1.752E+00 0.000E+00

     total cpu time spent up to now is     5319.1 secs

     total energy              =   -6564.20708742 Ry
     Harris-Foulkes estimate   =   -6564.22483401 Ry
     estimated scf accuracy    <       0.06119102 Ry

     iteration #  8     ecut=    50.00 Ry     beta=0.70
     Davidson diagonalization with overlap
     ethr =  8.59E-06,  avg # of iterations =  6.2

     negative rho (up, down):  1.753E+00 0.000E+00

     total cpu time spent up to now is     5804.4 secs

     total energy              =   -6564.20306062 Ry
     Harris-Foulkes estimate   =   -6564.21606252 Ry
     estimated scf accuracy    <       0.04594113 Ry

     iteration #  9     ecut=    50.00 Ry     beta=0.70
     Davidson diagonalization with overlap
     ethr =  6.45E-06,  avg # of iterations =  8.1

     negative rho (up, down):  1.753E+00 0.000E+00

     total cpu time spent up to now is     6313.9 secs

     total energy              =   -6564.20209595 Ry
     Harris-Foulkes estimate   =   -6564.20898818 Ry
     estimated scf accuracy    <       0.02515890 Ry

     iteration # 10     ecut=    50.00 Ry     beta=0.70
     Davidson diagonalization with overlap
     c_bands:  1 eigenvalues not converged
     c_bands:  1 eigenvalues not converged
     ethr =  3.53E-06,  avg # of iterations = 12.2

     negative rho (up, down):  1.755E+00 0.000E+00

     total cpu time spent up to now is     6914.8 secs

     total energy              =   -6564.20055697 Ry
     Harris-Foulkes estimate   =   -6564.20533778 Ry
     estimated scf accuracy    <       0.01555002 Ry

     iteration # 11     ecut=    50.00 Ry     beta=0.70
     Davidson diagonalization with overlap
     ethr =  2.18E-06,  avg # of iterations = 14.5

     negative rho (up, down):  1.755E+00 0.000E+00

     total cpu time spent up to now is     7536.0 secs

     total energy              =   -6564.20097459 Ry
     Harris-Foulkes estimate   =   -6564.20194905 Ry
     estimated scf accuracy    <       0.00399441 Ry

     iteration # 12     ecut=    50.00 Ry     beta=0.70
     Davidson diagonalization with overlap
     ethr =  5.61E-07,  avg # of iterations =  2.8

     negative rho (up, down):  1.755E+00 0.000E+00

     total cpu time spent up to now is     7917.2 secs

     total energy              =   -6564.20024556 Ry
     Harris-Foulkes estimate   =   -6564.20131282 Ry
     estimated scf accuracy    <       0.00167350 Ry

     iteration # 13     ecut=    50.00 Ry     beta=0.70
     Davidson diagonalization with overlap
     c_bands:  2 eigenvalues not converged
     c_bands:  1 eigenvalues not converged
     c_bands:  1 eigenvalues not converged
     c_bands:  1 eigenvalues not converged
     c_bands:  1 eigenvalues not converged
     c_bands:  1 eigenvalues not converged
     ethr =  2.35E-07,  avg # of iterations = 14.4

     negative rho (up, down):  1.755E+00 0.000E+00

     total cpu time spent up to now is     8558.1 secs

     total energy              =   -6564.20038979 Ry
     Harris-Foulkes estimate   =   -6564.20061231 Ry
     estimated scf accuracy    <       0.00067001 Ry

     iteration # 14     ecut=    50.00 Ry     beta=0.70
     Davidson diagonalization with overlap
     ethr =  9.41E-08,  avg # of iterations =  6.5

     negative rho (up, down):  1.755E+00 0.000E+00

     total cpu time spent up to now is     9028.2 secs

     total energy              =   -6564.20046577 Ry
     Harris-Foulkes estimate   =   -6564.20055562 Ry
     estimated scf accuracy    <       0.00042620 Ry

     iteration # 15     ecut=    50.00 Ry     beta=0.70
     Davidson diagonalization with overlap
     ethr =  5.99E-08,  avg # of iterations =  2.0

     negative rho (up, down):  1.755E+00 0.000E+00

     total cpu time spent up to now is     9400.3 secs

     total energy              =   -6564.20050336 Ry
     Harris-Foulkes estimate   =   -6564.20053422 Ry
     estimated scf accuracy    <       0.00028334 Ry

     iteration # 16     ecut=    50.00 Ry     beta=0.70
     Davidson diagonalization with overlap
     ethr =  3.98E-08,  avg # of iterations =  1.0

     negative rho (up, down):  1.755E+00 0.000E+00

     total cpu time spent up to now is     9768.9 secs

     total energy              =   -6564.20051739 Ry
     Harris-Foulkes estimate   =   -6564.20052374 Ry
     estimated scf accuracy    <       0.00002051 Ry

     iteration # 17     ecut=    50.00 Ry     beta=0.70
     Davidson diagonalization with overlap
     ethr =  2.88E-09,  avg # of iterations =  2.2

     negative rho (up, down):  1.755E+00 0.000E+00

     total cpu time spent up to now is    10224.7 secs

     total energy              =   -6564.20051660 Ry
     Harris-Foulkes estimate   =   -6564.20052508 Ry
     estimated scf accuracy    <       0.00004586 Ry

     iteration # 18     ecut=    50.00 Ry     beta=0.70
     Davidson diagonalization with overlap
     ethr =  2.88E-09,  avg # of iterations =  2.0

     negative rho (up, down):  1.755E+00 0.000E+00

     total cpu time spent up to now is    10606.0 secs

     total energy              =   -6564.20052047 Ry
     Harris-Foulkes estimate   =   -6564.20052150 Ry
     estimated scf accuracy    <       0.00000328 Ry

     iteration # 19     ecut=    50.00 Ry     beta=0.70
     Davidson diagonalization with overlap
     ethr =  4.61E-10,  avg # of iterations =  2.0

     negative rho (up, down):  1.755E+00 0.000E+00

     total cpu time spent up to now is    11031.4 secs

     total energy              =   -6564.20052094 Ry
     Harris-Foulkes estimate   =   -6564.20052128 Ry
     estimated scf accuracy    <       0.00000121 Ry

     iteration # 20     ecut=    50.00 Ry     beta=0.70
     Davidson diagonalization with overlap
     ethr =  1.69E-10,  avg # of iterations =  2.0

     negative rho (up, down):  1.755E+00 0.000E+00

     total cpu time spent up to now is    11439.5 secs

     total energy              =   -6564.20052106 Ry
     Harris-Foulkes estimate   =   -6564.20052124 Ry
     estimated scf accuracy    <       0.00000074 Ry

     iteration # 21     ecut=    50.00 Ry     beta=0.70
     Davidson diagonalization with overlap
     ethr =  1.04E-10,  avg # of iterations =  2.0

     negative rho (up, down):  1.755E+00 0.000E+00

     total cpu time spent up to now is    11828.8 secs

     total energy              =   -6564.20052114 Ry
     Harris-Foulkes estimate   =   -6564.20052118 Ry
     estimated scf accuracy    <       0.00000016 Ry

     iteration # 22     ecut=    50.00 Ry     beta=0.70
     Davidson diagonalization with overlap
     ethr =  2.18E-11,  avg # of iterations =  2.0

     negative rho (up, down):  1.755E+00 0.000E+00

     total cpu time spent up to now is    12226.8 secs

     total energy              =   -6564.20052116 Ry
     Harris-Foulkes estimate   =   -6564.20052117 Ry
     estimated scf accuracy    <       0.00000001 Ry

     iteration # 23     ecut=    50.00 Ry     beta=0.70
     Davidson diagonalization with overlap
     ethr =  1.53E-12,  avg # of iterations =  3.0

     negative rho (up, down):  1.755E+00 0.000E+00

     total cpu time spent up to now is    12818.2 secs

     total energy              =   -6564.20052116 Ry
     Harris-Foulkes estimate   =   -6564.20052117 Ry
     estimated scf accuracy    <       0.00000005 Ry

     iteration # 24     ecut=    50.00 Ry     beta=0.70
     Davidson diagonalization with overlap
     ethr =  1.53E-12,  avg # of iterations =  3.0

     negative rho (up, down):  1.755E+00 0.000E+00

     total cpu time spent up to now is    13356.7 secs

     End of self-consistent calculation

          k = 0.2500 0.4330 0.1111 (136853 PWs)   bands (ev):

   -18.4587  -6.4570  -6.2721  -6.0567  -6.0566  -5.3798  -5.0326  -5.0325
    -5.0051  -5.0049  -4.5847  -4.5847  -4.5029  -4.4625  -4.4589  -4.4589
    -4.4166  -4.3006  -4.3004  -4.2556  -4.2094  -4.2094  -4.2060  -4.2060
    -4.1579  -4.1579  -4.1284  -4.1282  -4.1082  -4.0886  -4.0882  -4.0111
    -4.0111  -3.9923  -3.9923  -3.9485  -3.9485  -3.9478  -3.9269  -3.9269
    -3.9239  -3.8490  -3.8490  -3.7875  -3.7875  -3.7699  -3.7699  -3.7082
    -3.7081  -3.6798  -3.6798  -3.6417  -3.6265  -3.6264  -3.6070  -3.6070
    -3.6037  -3.6036  -3.5980  -3.5774  -3.5174  -3.5106  -3.5106  -3.4897
    -3.4567  -3.4277  -3.4277  -3.3726  -3.3724  -3.3469  -3.3468  -3.3198
    -3.2929  -3.2557  -3.2556  -3.2192  -3.2192  -3.1817  -3.1773  -3.1773
    -3.1365  -3.1046  -3.1044  -3.0822  -3.0821  -3.0781  -3.0781  -3.0752
    -3.0751  -3.0682  -3.0134  -2.9546  -2.9545  -2.9530  -2.9529  -2.9484
    -2.9265  -2.9265  -2.9106  -2.8330  -2.8329  -2.8311  -2.8239  -2.7762
    -2.7707  -2.7706  -2.7490  -2.7488  -2.6979  -2.6798  -2.6797  -2.6757
    -2.6356  -2.6349  -2.6347  -2.5927  -2.5927  -2.5405  -2.5142  -2.5141
    -2.5105  -2.5104  -2.4883  -2.4882  -2.4832  -2.4749  -2.4749  -2.4668
    -2.4407  -2.4070  -2.4044  -2.3978  -2.3977  -2.3942  -2.3941  -2.3935
    -2.3934  -2.3760  -2.3599  -2.3588  -2.3587  -2.3554  -2.3552  -2.3435
    -2.3383  -2.3382  -2.3118  -2.3078  -2.3078  -2.2848  -2.2824  -2.2657
    -2.2657  -2.2390  -2.2388  -2.2381  -2.2379  -2.2302  -2.2301  -2.2301
    -2.2300  -2.2152  -2.2151  -2.2000  -2.1941  -2.1940  -2.1127  -2.1125
    -2.0980  -2.0979  -2.0790  -2.0789  -2.0567  -2.0450  -2.0450  -2.0255
    -2.0073  -2.0073  -1.9988  -1.9968  -1.9715  -1.9706  -1.9671  -1.9668
    -1.9613  -1.9495  -1.9214  -1.8906  -1.8725  -1.8722  -1.8523  -1.8465
    -1.8464  -1.7867  -1.7866  -1.7740  -1.7740  -1.7044  -1.7044  -1.6640
    -1.6452  -1.6452  -1.6114  -1.6114  -1.5842  -1.5841  -1.5643  -1.5641
    -1.5621  -1.5619  -1.5468  -1.5045  -1.5045  -1.5036  -1.5036  -1.4961
    -1.4957  -1.4674  -1.4646  -1.4645  -1.4301  -1.4187  -1.4184  -1.4131
    -1.4130  -1.4063  -1.3901  -1.3625  -1.3625  -1.3566  -1.3564  -1.3380
    -1.3377  -1.2916  -1.2779  -1.2777  -1.2763  -1.2531  -1.2530  -1.2085
    -1.1730  -1.1227  -1.1225  -1.1220  -1.1219  -1.1156  -1.1143  -1.1140
    -1.1009  -1.1007  -1.0504  -1.0502  -1.0333  -1.0333  -1.0166  -1.0046
    -1.0046  -0.9917  -0.9890  -0.9889  -0.9877  -0.9877  -0.9445  -0.9439
    -0.9312  -0.9305  -0.9304  -0.9155  -0.9154  -0.8849  -0.8751  -0.8749
    -0.8473  -0.8271  -0.8267  -0.7854  -0.7821  -0.7693  -0.7693  -0.7608
    -0.7607  -0.7533  -0.7530  -0.7488  -0.7488  -0.7199  -0.7199  -0.7094
    -0.7094  -0.6979  -0.6841  -0.6841  -0.6670  -0.6669  -0.6419  -0.6328
    -0.6326  -0.6195  -0.5678  -0.5659  -0.5659  -0.5618  -0.5546  -0.5534
    -0.5533  -0.5324  -0.5321  -0.5195  -0.5195  -0.5171  -0.5170  -0.4752
    -0.4731  -0.4730  -0.4657  -0.4655  -0.4578  -0.4577  -0.4541  -0.4439
    -0.4374  -0.4373  -0.4265  -0.4050  -0.4050  -0.3968  -0.3831  -0.3830
    -0.3295  -0.3293  -0.3013  -0.3012  -0.2924  -0.2923  -0.2591  -0.2488
    -0.2488  -0.2304  -0.2298  -0.2296  -0.1502  -0.1498  -0.0386   0.3630
     0.3630   0.3887   0.3887   0.4515   0.4515   0.8017   0.8018   0.8152
     0.8152   0.9860   1.0524   1.1433   1.1442   1.4036   1.4054   1.9881
     1.9883   2.1190   2.1190   2.3293   2.3294   2.3995   2.3995   2.4879
     2.7656   2.7775   2.9444   3.1598   3.1610   3.1936   3.1937   3.2586
     3.3566   3.5231   3.5284   3.5648   3.8073   3.8074   3.8815   3.8819
     4.1265   4.1265   4.1569   4.3475   4.3476   4.4085   4.4927   4.7844
     4.8211   4.8216   5.0124   5.1022   5.1023   5.2193   5.2250   5.6283
     5.8318   5.8969   5.8978   5.9737   5.9738   6.0494   6.1153   6.1205
     6.1274   6.1284   6.1574   6.1980   6.1982   6.2072   6.2096   6.2812
     6.4238   6.7542   6.7830   6.8437   6.8487   6.8728   6.9764   6.9829
     7.0782   7.0919   7.1144

          k = 0.2500-0.1443 0.1111 (136898 PWs)   bands (ev):

   -18.4587  -6.6669  -6.2721  -5.8723  -5.5837  -5.5184  -5.5183  -4.9615
    -4.9615  -4.8485  -4.8121  -4.6613  -4.5915  -4.5589  -4.5588  -4.5121
    -4.4416  -4.4416  -4.3046  -4.2621  -4.2621  -4.2410  -4.2403  -4.2393
    -4.1187  -4.1187  -4.0392  -4.0283  -4.0266  -4.0266  -4.0060  -4.0060
    -3.9406  -3.8843  -3.8843  -3.8718  -3.8614  -3.8614  -3.8499  -3.8498
    -3.8414  -3.7945  -3.7945  -3.7851  -3.7851  -3.7722  -3.7722  -3.7418
    -3.7377  -3.7376  -3.7022  -3.7022  -3.6835  -3.6834  -3.6635  -3.6214
    -3.6214  -3.5601  -3.5601  -3.5378  -3.5377  -3.5213  -3.4479  -3.4479
    -3.4390  -3.4390  -3.4220  -3.4220  -3.3984  -3.3984  -3.2468  -3.2467
    -3.2287  -3.2287  -3.2239  -3.1853  -3.1853  -3.1803  -3.1803  -3.1244
    -3.1244  -3.1054  -3.1053  -3.0671  -3.0432  -3.0432  -3.0208  -3.0128
    -3.0127  -2.9680  -2.9680  -2.9488  -2.9487  -2.9437  -2.9436  -2.9184
    -2.9184  -2.8737  -2.8736  -2.8677  -2.8676  -2.8526  -2.8038  -2.8037
    -2.7803  -2.7720  -2.7719  -2.6923  -2.6922  -2.6621  -2.6621  -2.6550
    -2.6463  -2.6244  -2.5970  -2.5970  -2.5795  -2.5765  -2.5722  -2.5721
    -2.5593  -2.5505  -2.5503  -2.5417  -2.5416  -2.5336  -2.5335  -2.4819
    -2.4669  -2.4561  -2.4370  -2.4326  -2.4326  -2.4165  -2.4164  -2.4133
    -2.4132  -2.4024  -2.3723  -2.3723  -2.3606  -2.3548  -2.3418  -2.3418
    -2.3395  -2.3138  -2.3138  -2.3034  -2.2952  -2.2951  -2.2385  -2.2271
    -2.2150  -2.2150  -2.2126  -2.1934  -2.1934  -2.1803  -2.1596  -2.1596
    -2.1540  -2.1539  -2.1435  -2.1307  -2.1306  -2.1171  -2.1016  -2.1015
    -2.0540  -2.0540  -2.0449  -2.0444  -2.0442  -2.0411  -2.0314  -2.0313
    -2.0284  -2.0283  -2.0155  -2.0105  -2.0105  -1.8958  -1.8957  -1.8661
    -1.8658  -1.8656  -1.8432  -1.8386  -1.8385  -1.8282  -1.8281  -1.8082
    -1.8081  -1.8075  -1.8017  -1.8015  -1.7650  -1.7650  -1.7638  -1.7340
    -1.7340  -1.7281  -1.7280  -1.7145  -1.7144  -1.6568  -1.6542  -1.6304
    -1.6303  -1.6216  -1.6157  -1.5933  -1.5933  -1.5878  -1.5877  -1.5841
    -1.5841  -1.5720  -1.5719  -1.5522  -1.5149  -1.5148  -1.4837  -1.4837
    -1.4734  -1.4362  -1.4361  -1.4024  -1.4024  -1.3919  -1.3916  -1.3778
    -1.3607  -1.3600  -1.3403  -1.3402  -1.3097  -1.3097  -1.2905  -1.2904
    -1.2568  -1.2568  -1.2450  -1.1907  -1.1906  -1.1862  -1.1862  -1.1664
    -1.1663  -1.1496  -1.1495  -1.1189  -1.1075  -1.0873  -1.0852  -1.0852
    -1.0539  -1.0341  -1.0336  -1.0333  -1.0236  -1.0235  -1.0182  -1.0182
    -0.9880  -0.9805  -0.9805  -0.9674  -0.9671  -0.9610  -0.9609  -0.9419
    -0.9251  -0.9249  -0.8963  -0.8961  -0.8135  -0.7951  -0.7948  -0.7944
    -0.7929  -0.7878  -0.7878  -0.7789  -0.7575  -0.7357  -0.7355  -0.7306
    -0.7305  -0.7120  -0.6968  -0.6967  -0.6925  -0.6774  -0.5972  -0.5972
    -0.5688  -0.5686  -0.5590  -0.5588  -0.5516  -0.5504  -0.5504  -0.5440
    -0.5440  -0.5270  -0.4942  -0.4818  -0.4624  -0.4623  -0.4534  -0.4534
    -0.4458  -0.4458  -0.4377  -0.4349  -0.4349  -0.4265  -0.4168  -0.4141
    -0.4141  -0.3823  -0.3823  -0.3815  -0.3644  -0.3643  -0.3416  -0.3155
    -0.3154  -0.3055  -0.3055  -0.2374  -0.2374  -0.2187  -0.2186  -0.1561
    -0.1544  -0.1538  -0.1538  -0.1268   0.0814   0.0819   0.4251   0.4251
     0.5003   0.5008   0.6512   0.6803   0.7013   0.8369   0.8371   1.2151
     1.2827   1.2827   1.5170   1.5170   1.5721   1.8829   1.8839   1.9162
     1.9162   1.9548   1.9553   2.1100   2.1100   2.2848   2.2848   2.2962
     2.4404   2.4412   2.4875   2.6973   3.0645   3.0645   3.1061   3.1061
     3.1135   3.1137   3.4407   3.4407   3.7757   3.7766   3.8474   4.1095
     4.2392   4.2397   4.4342   4.4406   4.5288   4.5288   4.6076   4.7690
     4.7691   4.8624   4.8626   5.1543   5.2168   5.2170   5.3936   5.4130
     5.5566   5.5569   5.5598   5.5604   5.5999   5.7065   5.7067   5.7708
     6.0969   6.2931   6.3863   6.3864   6.3915   6.3922   6.4029   6.6058
     6.6064   6.6183   6.6972   6.7684   6.9282   6.9595   6.9704   7.1296
     7.2617   7.2763   7.2936

          k =-0.2500-0.4330 0.1111 (136853 PWs)   bands (ev):

   -18.4587  -6.4570  -6.2721  -6.0567  -6.0566  -5.3798  -5.0326  -5.0325
    -5.0051  -5.0049  -4.5847  -4.5847  -4.5029  -4.4625  -4.4589  -4.4589
    -4.4166  -4.3006  -4.3004  -4.2556  -4.2094  -4.2094  -4.2060  -4.2060
    -4.1579  -4.1579  -4.1284  -4.1282  -4.1082  -4.0886  -4.0882  -4.0111
    -4.0111  -3.9923  -3.9923  -3.9485  -3.9485  -3.9478  -3.9269  -3.9269
    -3.9239  -3.8490  -3.8490  -3.7875  -3.7875  -3.7699  -3.7699  -3.7082
    -3.7081  -3.6798  -3.6798  -3.6417  -3.6265  -3.6264  -3.6070  -3.6070
    -3.6037  -3.6036  -3.5980  -3.5774  -3.5174  -3.5106  -3.5106  -3.4897
    -3.4567  -3.4277  -3.4277  -3.3726  -3.3724  -3.3469  -3.3468  -3.3198
    -3.2929  -3.2557  -3.2556  -3.2192  -3.2192  -3.1817  -3.1773  -3.1773
    -3.1365  -3.1046  -3.1044  -3.0822  -3.0821  -3.0781  -3.0781  -3.0752
    -3.0751  -3.0682  -3.0134  -2.9546  -2.9545  -2.9530  -2.9529  -2.9484
    -2.9265  -2.9265  -2.9106  -2.8330  -2.8329  -2.8311  -2.8239  -2.7762
    -2.7707  -2.7706  -2.7490  -2.7488  -2.6979  -2.6798  -2.6797  -2.6757
    -2.6356  -2.6349  -2.6347  -2.5927  -2.5927  -2.5405  -2.5142  -2.5142
    -2.5105  -2.5104  -2.4883  -2.4882  -2.4832  -2.4749  -2.4749  -2.4668
    -2.4407  -2.4070  -2.4044  -2.3978  -2.3977  -2.3942  -2.3941  -2.3935
    -2.3934  -2.3760  -2.3599  -2.3588  -2.3587  -2.3554  -2.3552  -2.3435
    -2.3383  -2.3382  -2.3118  -2.3078  -2.3078  -2.2848  -2.2824  -2.2657
    -2.2657  -2.2390  -2.2388  -2.2381  -2.2379  -2.2302  -2.2301  -2.2301
    -2.2300  -2.2152  -2.2151  -2.2000  -2.1941  -2.1940  -2.1127  -2.1125
    -2.0980  -2.0979  -2.0790  -2.0789  -2.0567  -2.0450  -2.0450  -2.0255
    -2.0073  -2.0073  -1.9988  -1.9968  -1.9715  -1.9706  -1.9671  -1.9668
    -1.9613  -1.9495  -1.9214  -1.8906  -1.8725  -1.8722  -1.8523  -1.8465
    -1.8464  -1.7867  -1.7866  -1.7740  -1.7740  -1.7044  -1.7044  -1.6640
    -1.6452  -1.6452  -1.6114  -1.6114  -1.5842  -1.5841  -1.5643  -1.5641
    -1.5621  -1.5619  -1.5468  -1.5045  -1.5045  -1.5036  -1.5036  -1.4961
    -1.4957  -1.4674  -1.4646  -1.4645  -1.4301  -1.4187  -1.4184  -1.4131
    -1.4130  -1.4063  -1.3901  -1.3625  -1.3625  -1.3566  -1.3564  -1.3380
    -1.3377  -1.2916  -1.2779  -1.2777  -1.2763  -1.2531  -1.2530  -1.2085
    -1.1730  -1.1227  -1.1225  -1.1220  -1.1219  -1.1156  -1.1143  -1.1140
    -1.1009  -1.1007  -1.0504  -1.0502  -1.0334  -1.0333  -1.0166  -1.0046
    -1.0046  -0.9917  -0.9890  -0.9889  -0.9877  -0.9877  -0.9445  -0.9439
    -0.9312  -0.9305  -0.9304  -0.9155  -0.9154  -0.8849  -0.8751  -0.8749
    -0.8473  -0.8271  -0.8267  -0.7854  -0.7821  -0.7693  -0.7693  -0.7608
    -0.7607  -0.7533  -0.7530  -0.7488  -0.7488  -0.7199  -0.7199  -0.7094
    -0.7094  -0.6979  -0.6841  -0.6841  -0.6670  -0.6669  -0.6419  -0.6328
    -0.6326  -0.6195  -0.5678  -0.5660  -0.5659  -0.5618  -0.5546  -0.5534
    -0.5533  -0.5324  -0.5321  -0.5195  -0.5195  -0.5171  -0.5170  -0.4752
    -0.4731  -0.4730  -0.4657  -0.4655  -0.4578  -0.4577  -0.4541  -0.4439
    -0.4374  -0.4373  -0.4265  -0.4050  -0.4050  -0.3968  -0.3831  -0.3830
    -0.3295  -0.3293  -0.3013  -0.3012  -0.2924  -0.2923  -0.2591  -0.2488
    -0.2488  -0.2304  -0.2298  -0.2296  -0.1502  -0.1498  -0.0386   0.3630
     0.3630   0.3887   0.3887   0.4515   0.4515   0.8017   0.8018   0.8152
     0.8152   0.9860   1.0524   1.1433   1.1442   1.4036   1.4054   1.9881
     1.9883   2.1190   2.1190   2.3293   2.3294   2.3995   2.3995   2.4879
     2.7656   2.7775   2.9444   3.1598   3.1610   3.1936   3.1937   3.2586
     3.3566   3.5231   3.5284   3.5648   3.8073   3.8074   3.8815   3.8819
     4.1265   4.1265   4.1569   4.3475   4.3476   4.4085   4.4927   4.7844
     4.8211   4.8216   5.0124   5.1022   5.1023   5.2193   5.2250   5.6283
     5.8318   5.8969   5.8978   5.9737   5.9738   6.0494   6.1153   6.1205
     6.1274   6.1284   6.1574   6.1980   6.1982   6.2072   6.2096   6.2812
     6.4238   6.7547   6.7830   6.8436   6.8488   6.8724   6.9759   6.9829
     7.0782   7.0919   7.1146

          k =-0.2500 0.4330-0.1111 (136853 PWs)   bands (ev):

   -18.4587  -6.4570  -6.2721  -6.0580  -6.0553  -5.3798  -5.0331  -5.0320
    -5.0062  -5.0037  -4.5854  -4.5839  -4.5029  -4.4625  -4.4590  -4.4586
    -4.4166  -4.3009  -4.3004  -4.2557  -4.2096  -4.2093  -4.2062  -4.2056
    -4.1581  -4.1578  -4.1299  -4.1267  -4.1082  -4.0890  -4.0878  -4.0118
    -4.0101  -3.9926  -3.9919  -3.9488  -3.9485  -3.9477  -3.9271  -3.9267
    -3.9239  -3.8494  -3.8488  -3.7885  -3.7865  -3.7699  -3.7698  -3.7083
    -3.7079  -3.6798  -3.6797  -3.6419  -3.6266  -3.6264  -3.6071  -3.6069
    -3.6042  -3.6031  -3.5981  -3.5774  -3.5173  -3.5108  -3.5105  -3.4896
    -3.4564  -3.4283  -3.4274  -3.3728  -3.3721  -3.3469  -3.3465  -3.3197
    -3.2930  -3.2560  -3.2557  -3.2195  -3.2186  -3.1817  -3.1774  -3.1772
    -3.1364  -3.1052  -3.1038  -3.0822  -3.0820  -3.0788  -3.0774  -3.0752
    -3.0751  -3.0683  -3.0133  -2.9553  -2.9540  -2.9531  -2.9527  -2.9485
    -2.9270  -2.9260  -2.9106  -2.8337  -2.8321  -2.8314  -2.8238  -2.7762
    -2.7712  -2.7699  -2.7492  -2.7490  -2.6980  -2.6797  -2.6794  -2.6757
    -2.6357  -2.6349  -2.6347  -2.5930  -2.5923  -2.5404  -2.5142  -2.5141
    -2.5109  -2.5108  -2.4884  -2.4879  -2.4833  -2.4754  -2.4745  -2.4668
    -2.4407  -2.4069  -2.4043  -2.3978  -2.3972  -2.3950  -2.3939  -2.3934
    -2.3932  -2.3760  -2.3600  -2.3592  -2.3581  -2.3556  -2.3552  -2.3434
    -2.3384  -2.3378  -2.3115  -2.3080  -2.3074  -2.2848  -2.2826  -2.2658
    -2.2656  -2.2394  -2.2387  -2.2384  -2.2377  -2.2305  -2.2302  -2.2299
    -2.2294  -2.2156  -2.2150  -2.2000  -2.1944  -2.1941  -2.1132  -2.1123
    -2.0986  -2.0973  -2.0788  -2.0786  -2.0567  -2.0453  -2.0446  -2.0253
    -2.0077  -2.0070  -1.9989  -1.9965  -1.9714  -1.9709  -1.9671  -1.9669
    -1.9609  -1.9494  -1.9214  -1.8906  -1.8729  -1.8722  -1.8524  -1.8468
    -1.8463  -1.7876  -1.7857  -1.7741  -1.7738  -1.7048  -1.7038  -1.6643
    -1.6453  -1.6449  -1.6118  -1.6110  -1.5844  -1.5839  -1.5645  -1.5639
    -1.5622  -1.5617  -1.5469  -1.5045  -1.5043  -1.5040  -1.5034  -1.4961
    -1.4956  -1.4677  -1.4649  -1.4644  -1.4301  -1.4189  -1.4183  -1.4135
    -1.4127  -1.4063  -1.3898  -1.3629  -1.3619  -1.3567  -1.3561  -1.3381
    -1.3374  -1.2914  -1.2781  -1.2776  -1.2763  -1.2533  -1.2528  -1.2087
    -1.1731  -1.1227  -1.1224  -1.1223  -1.1220  -1.1156  -1.1145  -1.1142
    -1.1010  -1.1004  -1.0504  -1.0500  -1.0335  -1.0333  -1.0165  -1.0050
    -1.0043  -0.9915  -0.9893  -0.9888  -0.9875  -0.9873  -0.9449  -0.9436
    -0.9308  -0.9306  -0.9301  -0.9157  -0.9153  -0.8852  -0.8750  -0.8747
    -0.8474  -0.8273  -0.8264  -0.7855  -0.7819  -0.7697  -0.7690  -0.7609
    -0.7604  -0.7536  -0.7528  -0.7491  -0.7487  -0.7202  -0.7196  -0.7096
    -0.7093  -0.6980  -0.6843  -0.6839  -0.6669  -0.6668  -0.6421  -0.6329
    -0.6325  -0.6193  -0.5677  -0.5662  -0.5658  -0.5617  -0.5545  -0.5536
    -0.5532  -0.5326  -0.5319  -0.5194  -0.5194  -0.5172  -0.5169  -0.4752
    -0.4731  -0.4730  -0.4658  -0.4655  -0.4578  -0.4578  -0.4539  -0.4440
    -0.4378  -0.4370  -0.4265  -0.4053  -0.4048  -0.3969  -0.3832  -0.3829
    -0.3297  -0.3291  -0.3014  -0.3011  -0.2924  -0.2923  -0.2591  -0.2490
    -0.2486  -0.2305  -0.2298  -0.2295  -0.1505  -0.1495  -0.0386   0.3628
     0.3632   0.3886   0.3888   0.4511   0.4518   0.8017   0.8019   0.8150
     0.8153   0.9860   1.0524   1.1433   1.1443   1.4029   1.4060   1.9879
     1.9884   2.1188   2.1194   2.3289   2.3298   2.3992   2.3998   2.4877
     2.7656   2.7778   2.9443   3.1592   3.1615   3.1931   3.1943   3.2584
     3.3566   3.5216   3.5299   3.5650   3.8070   3.8078   3.8807   3.8828
     4.1260   4.1269   4.1566   4.3469   4.3480   4.4090   4.4924   4.7839
     4.8212   4.8214   5.0125   5.1021   5.1024   5.2153   5.2272   5.6403
     5.8319   5.8969   5.8977   5.9735   5.9738   6.0493   6.1029   6.1156
     6.1272   6.1291   6.1468   6.1970   6.1986   6.2032   6.2120   6.3067
     6.4124   6.7103   6.7826   6.8482   6.8498   6.9303   6.9644   6.9832
     7.0782   7.1022   7.1197

          k = 0.2500-0.4330-0.1111 (136853 PWs)   bands (ev):

   -18.4587  -6.4570  -6.2721  -6.0580  -6.0553  -5.3798  -5.0331  -5.0320
    -5.0062  -5.0037  -4.5854  -4.5839  -4.5029  -4.4625  -4.4590  -4.4586
    -4.4166  -4.3009  -4.3004  -4.2557  -4.2096  -4.2093  -4.2062  -4.2056
    -4.1581  -4.1578  -4.1299  -4.1267  -4.1082  -4.0890  -4.0878  -4.0118
    -4.0101  -3.9926  -3.9919  -3.9488  -3.9485  -3.9477  -3.9271  -3.9267
    -3.9239  -3.8494  -3.8488  -3.7885  -3.7865  -3.7699  -3.7698  -3.7083
    -3.7079  -3.6798  -3.6797  -3.6419  -3.6266  -3.6264  -3.6071  -3.6069
    -3.6042  -3.6031  -3.5981  -3.5774  -3.5173  -3.5108  -3.5105  -3.4896
    -3.4564  -3.4283  -3.4274  -3.3728  -3.3721  -3.3469  -3.3465  -3.3197
    -3.2930  -3.2560  -3.2557  -3.2195  -3.2186  -3.1817  -3.1774  -3.1772
    -3.1364  -3.1052  -3.1038  -3.0822  -3.0820  -3.0788  -3.0774  -3.0752
    -3.0751  -3.0683  -3.0133  -2.9553  -2.9540  -2.9531  -2.9527  -2.9485
    -2.9270  -2.9260  -2.9106  -2.8337  -2.8321  -2.8314  -2.8238  -2.7762
    -2.7712  -2.7699  -2.7492  -2.7489  -2.6980  -2.6797  -2.6794  -2.6757
    -2.6357  -2.6349  -2.6347  -2.5930  -2.5923  -2.5404  -2.5142  -2.5140
    -2.5109  -2.5108  -2.4884  -2.4879  -2.4833  -2.4754  -2.4745  -2.4668
    -2.4407  -2.4069  -2.4043  -2.3978  -2.3972  -2.3950  -2.3939  -2.3934
    -2.3932  -2.3760  -2.3600  -2.3592  -2.3581  -2.3556  -2.3552  -2.3434
    -2.3384  -2.3378  -2.3115  -2.3080  -2.3074  -2.2848  -2.2826  -2.2658
    -2.2656  -2.2394  -2.2387  -2.2384  -2.2377  -2.2305  -2.2302  -2.2299
    -2.2294  -2.2156  -2.2150  -2.2000  -2.1944  -2.1941  -2.1132  -2.1123
    -2.0986  -2.0973  -2.0788  -2.0786  -2.0567  -2.0453  -2.0446  -2.0253
    -2.0077  -2.0070  -1.9989  -1.9965  -1.9714  -1.9709  -1.9671  -1.9669
    -1.9609  -1.9494  -1.9214  -1.8906  -1.8729  -1.8722  -1.8524  -1.8468
    -1.8463  -1.7876  -1.7857  -1.7741  -1.7738  -1.7048  -1.7038  -1.6643
    -1.6453  -1.6449  -1.6118  -1.6110  -1.5844  -1.5839  -1.5645  -1.5639
    -1.5622  -1.5617  -1.5469  -1.5045  -1.5043  -1.5040  -1.5034  -1.4961
    -1.4956  -1.4677  -1.4649  -1.4644  -1.4301  -1.4189  -1.4183  -1.4135
    -1.4127  -1.4063  -1.3898  -1.3629  -1.3619  -1.3567  -1.3561  -1.3381
    -1.3374  -1.2914  -1.2781  -1.2776  -1.2763  -1.2533  -1.2528  -1.2087
    -1.1731  -1.1227  -1.1224  -1.1223  -1.1220  -1.1156  -1.1145  -1.1142
    -1.1010  -1.1004  -1.0504  -1.0500  -1.0335  -1.0333  -1.0165  -1.0050
    -1.0043  -0.9915  -0.9893  -0.9888  -0.9875  -0.9873  -0.9449  -0.9436
    -0.9308  -0.9306  -0.9301  -0.9157  -0.9153  -0.8852  -0.8750  -0.8747
    -0.8474  -0.8273  -0.8264  -0.7855  -0.7819  -0.7697  -0.7690  -0.7609
    -0.7604  -0.7536  -0.7528  -0.7491  -0.7487  -0.7202  -0.7196  -0.7096
    -0.7093  -0.6980  -0.6843  -0.6839  -0.6669  -0.6668  -0.6421  -0.6329
    -0.6325  -0.6193  -0.5677  -0.5662  -0.5658  -0.5617  -0.5545  -0.5536
    -0.5532  -0.5326  -0.5319  -0.5194  -0.5194  -0.5172  -0.5169  -0.4752
    -0.4731  -0.4730  -0.4658  -0.4655  -0.4578  -0.4578  -0.4539  -0.4440
    -0.4378  -0.4370  -0.4265  -0.4053  -0.4048  -0.3969  -0.3832  -0.3829
    -0.3297  -0.3291  -0.3014  -0.3011  -0.2924  -0.2923  -0.2591  -0.2490
    -0.2486  -0.2305  -0.2298  -0.2295  -0.1505  -0.1495  -0.0386   0.3628
     0.3632   0.3886   0.3888   0.4511   0.4518   0.8017   0.8019   0.8150
     0.8153   0.9860   1.0524   1.1433   1.1443   1.4029   1.4060   1.9879
     1.9884   2.1188   2.1194   2.3289   2.3298   2.3992   2.3998   2.4877
     2.7656   2.7778   2.9443   3.1592   3.1615   3.1931   3.1943   3.2584
     3.3566   3.5216   3.5299   3.5650   3.8070   3.8078   3.8807   3.8828
     4.1260   4.1269   4.1566   4.3469   4.3480   4.4090   4.4924   4.7839
     4.8212   4.8214   5.0125   5.1021   5.1024   5.2153   5.2272   5.6403
     5.8319   5.8969   5.8977   5.9735   5.9738   6.0493   6.1030   6.1156
     6.1272   6.1291   6.1468   6.1970   6.1986   6.2032   6.2120   6.3066
     6.4122   6.7096   6.7826   6.8482   6.8498   6.9334   6.9634   6.9832
     7.0782   7.1017   7.1199

          k = 0.5000 0.0000 0.1111 (136853 PWs)   bands (ev):

   -18.4587  -6.4570  -6.2720  -6.0582  -6.0551  -5.3798  -5.0334  -5.0317
    -5.0066  -5.0033  -4.5854  -4.5839  -4.5029  -4.4625  -4.4590  -4.4586
    -4.4166  -4.3012  -4.3001  -4.2557  -4.2095  -4.2094  -4.2065  -4.2053
    -4.1583  -4.1577  -4.1298  -4.1270  -4.1082  -4.0890  -4.0878  -4.0119
    -4.0101  -3.9924  -3.9921  -3.9487  -3.9485  -3.9477  -3.9271  -3.9268
    -3.9239  -3.8493  -3.8489  -3.7885  -3.7865  -3.7700  -3.7698  -3.7085
    -3.7077  -3.6798  -3.6797  -3.6419  -3.6266  -3.6264  -3.6072  -3.6068
    -3.6039  -3.6034  -3.5981  -3.5775  -3.5173  -3.5108  -3.5105  -3.4896
    -3.4564  -3.4282  -3.4275  -3.3729  -3.3719  -3.3472  -3.3462  -3.3197
    -3.2930  -3.2561  -3.2556  -3.2194  -3.2187  -3.1816  -3.1774  -3.1772
    -3.1363  -3.1047  -3.1043  -3.0824  -3.0821  -3.0787  -3.0775  -3.0752
    -3.0748  -3.0684  -3.0133  -2.9554  -2.9539  -2.9530  -2.9527  -2.9485
    -2.9266  -2.9264  -2.9106  -2.8337  -2.8322  -2.8314  -2.8238  -2.7762
    -2.7713  -2.7698  -2.7494  -2.7487  -2.6980  -2.6799  -2.6793  -2.6756
    -2.6357  -2.6351  -2.6346  -2.5930  -2.5923  -2.5404  -2.5143  -2.5140
    -2.5109  -2.5107  -2.4885  -2.4879  -2.4833  -2.4753  -2.4746  -2.4668
    -2.4407  -2.4069  -2.4043  -2.3979  -2.3971  -2.3950  -2.3938  -2.3934
    -2.3932  -2.3760  -2.3600  -2.3593  -2.3579  -2.3556  -2.3552  -2.3436
    -2.3383  -2.3379  -2.3115  -2.3078  -2.3076  -2.2848  -2.2826  -2.2658
    -2.2656  -2.2394  -2.2387  -2.2384  -2.2377  -2.2306  -2.2301  -2.2298
    -2.2295  -2.2154  -2.2150  -2.2000  -2.1943  -2.1942  -2.1135  -2.1119
    -2.0988  -2.0972  -2.0789  -2.0786  -2.0567  -2.0452  -2.0448  -2.0254
    -2.0076  -2.0071  -1.9988  -1.9967  -1.9714  -1.9706  -1.9673  -1.9668
    -1.9610  -1.9495  -1.9214  -1.8906  -1.8726  -1.8724  -1.8524  -1.8469
    -1.8462  -1.7875  -1.7858  -1.7741  -1.7737  -1.7050  -1.7036  -1.6642
    -1.6453  -1.6449  -1.6117  -1.6111  -1.5845  -1.5838  -1.5645  -1.5640
    -1.5623  -1.5617  -1.5469  -1.5048  -1.5041  -1.5039  -1.5035  -1.4963
    -1.4954  -1.4677  -1.4647  -1.4646  -1.4301  -1.4192  -1.4180  -1.4134
    -1.4128  -1.4063  -1.3898  -1.3628  -1.3621  -1.3566  -1.3562  -1.3379
    -1.3376  -1.2914  -1.2785  -1.2772  -1.2763  -1.2532  -1.2530  -1.2087
    -1.1731  -1.1227  -1.1224  -1.1222  -1.1220  -1.1158  -1.1145  -1.1139
    -1.1012  -1.1002  -1.0506  -1.0499  -1.0335  -1.0333  -1.0165  -1.0050
    -1.0043  -0.9916  -0.9894  -0.9887  -0.9877  -0.9872  -0.9450  -0.9436
    -0.9309  -0.9305  -0.9303  -0.9156  -0.9153  -0.8852  -0.8753  -0.8744
    -0.8474  -0.8271  -0.8266  -0.7855  -0.7819  -0.7697  -0.7689  -0.7607
    -0.7606  -0.7534  -0.7530  -0.7489  -0.7488  -0.7202  -0.7196  -0.7096
    -0.7094  -0.6980  -0.6843  -0.6840  -0.6670  -0.6667  -0.6420  -0.6330
    -0.6324  -0.6193  -0.5677  -0.5661  -0.5659  -0.5618  -0.5546  -0.5535
    -0.5532  -0.5325  -0.5320  -0.5196  -0.5193  -0.5171  -0.5170  -0.4752
    -0.4733  -0.4728  -0.4659  -0.4654  -0.4578  -0.4578  -0.4539  -0.4440
    -0.4375  -0.4373  -0.4265  -0.4052  -0.4049  -0.3969  -0.3832  -0.3829
    -0.3295  -0.3293  -0.3013  -0.3012  -0.2925  -0.2922  -0.2591  -0.2489
    -0.2486  -0.2309  -0.2297  -0.2291  -0.1503  -0.1497  -0.0386   0.3627
     0.3633   0.3887   0.3888   0.4511   0.4518   0.8015   0.8021   0.8147
     0.8156   0.9860   1.0524   1.1426   1.1451   1.4026   1.4063   1.9876
     1.9887   2.1186   2.1195   2.3290   2.3296   2.3988   2.4002   2.4877
     2.7656   2.7778   2.9443   3.1588   3.1620   3.1927   3.1947   3.2584
     3.3566   3.5212   3.5303   3.5650   3.8067   3.8080   3.8813   3.8822
     4.1262   4.1267   4.1566   4.3468   4.3482   4.4089   4.4925   4.7839
     4.8203   4.8223   5.0125   5.1020   5.1025   5.2172   5.2259   5.6359
     5.8319   5.8960   5.8986   5.9734   5.9740   6.0493   6.1090   6.1157
     6.1270   6.1291   6.1499   6.1977   6.1985   6.2036   6.2115   6.2979
     6.4175   6.7230   6.7827   6.8476   6.8495   6.9120   6.9687   6.9831
     7.0785   7.0991   7.1160

          k =-0.5000 0.0000 0.1111 (136853 PWs)   bands (ev):

   -18.4587  -6.4570  -6.2720  -6.0582  -6.0551  -5.3798  -5.0334  -5.0317
    -5.0066  -5.0033  -4.5854  -4.5839  -4.5029  -4.4625  -4.4590  -4.4586
    -4.4166  -4.3012  -4.3001  -4.2557  -4.2095  -4.2094  -4.2065  -4.2053
    -4.1583  -4.1577  -4.1298  -4.1270  -4.1082  -4.0890  -4.0878  -4.0119
    -4.0101  -3.9924  -3.9921  -3.9487  -3.9485  -3.9477  -3.9271  -3.9268
    -3.9239  -3.8493  -3.8489  -3.7885  -3.7865  -3.7700  -3.7698  -3.7085
    -3.7077  -3.6798  -3.6797  -3.6419  -3.6266  -3.6264  -3.6072  -3.6068
    -3.6039  -3.6034  -3.5981  -3.5775  -3.5173  -3.5108  -3.5105  -3.4896
    -3.4564  -3.4282  -3.4275  -3.3729  -3.3719  -3.3472  -3.3462  -3.3197
    -3.2930  -3.2561  -3.2556  -3.2194  -3.2187  -3.1816  -3.1774  -3.1772
    -3.1363  -3.1047  -3.1043  -3.0824  -3.0821  -3.0787  -3.0775  -3.0752
    -3.0748  -3.0684  -3.0133  -2.9554  -2.9539  -2.9530  -2.9527  -2.9485
    -2.9266  -2.9264  -2.9106  -2.8337  -2.8322  -2.8314  -2.8238  -2.7762
    -2.7713  -2.7698  -2.7494  -2.7487  -2.6980  -2.6799  -2.6793  -2.6756
    -2.6357  -2.6351  -2.6346  -2.5930  -2.5923  -2.5404  -2.5143  -2.5140
    -2.5109  -2.5107  -2.4885  -2.4879  -2.4833  -2.4753  -2.4746  -2.4668
    -2.4407  -2.4069  -2.4043  -2.3979  -2.3971  -2.3950  -2.3938  -2.3934
    -2.3932  -2.3760  -2.3600  -2.3593  -2.3579  -2.3556  -2.3552  -2.3436
    -2.3383  -2.3379  -2.3115  -2.3078  -2.3076  -2.2848  -2.2826  -2.2658
    -2.2656  -2.2394  -2.2387  -2.2384  -2.2377  -2.2306  -2.2301  -2.2298
    -2.2295  -2.2154  -2.2150  -2.2000  -2.1943  -2.1942  -2.1135  -2.1119
    -2.0988  -2.0972  -2.0789  -2.0786  -2.0567  -2.0452  -2.0448  -2.0254
    -2.0076  -2.0071  -1.9988  -1.9967  -1.9714  -1.9706  -1.9673  -1.9668
    -1.9610  -1.9495  -1.9214  -1.8906  -1.8726  -1.8724  -1.8524  -1.8469
    -1.8462  -1.7875  -1.7858  -1.7741  -1.7737  -1.7050  -1.7036  -1.6642
    -1.6454  -1.6449  -1.6117  -1.6111  -1.5845  -1.5838  -1.5645  -1.5640
    -1.5623  -1.5617  -1.5469  -1.5048  -1.5041  -1.5039  -1.5035  -1.4963
    -1.4954  -1.4677  -1.4647  -1.4646  -1.4301  -1.4192  -1.4180  -1.4134
    -1.4128  -1.4063  -1.3898  -1.3628  -1.3621  -1.3566  -1.3562  -1.3379
    -1.3376  -1.2914  -1.2785  -1.2772  -1.2763  -1.2532  -1.2530  -1.2087
    -1.1731  -1.1227  -1.1224  -1.1222  -1.1220  -1.1158  -1.1145  -1.1139
    -1.1012  -1.1002  -1.0506  -1.0499  -1.0335  -1.0333  -1.0165  -1.0050
    -1.0043  -0.9916  -0.9894  -0.9887  -0.9877  -0.9872  -0.9450  -0.9436
    -0.9309  -0.9305  -0.9303  -0.9156  -0.9153  -0.8852  -0.8753  -0.8744
    -0.8474  -0.8271  -0.8266  -0.7855  -0.7819  -0.7697  -0.7689  -0.7607
    -0.7606  -0.7534  -0.7530  -0.7489  -0.7488  -0.7202  -0.7196  -0.7096
    -0.7094  -0.6980  -0.6843  -0.6840  -0.6670  -0.6667  -0.6420  -0.6330
    -0.6324  -0.6193  -0.5677  -0.5661  -0.5659  -0.5618  -0.5546  -0.5535
    -0.5532  -0.5325  -0.5320  -0.5195  -0.5193  -0.5171  -0.5170  -0.4752
    -0.4733  -0.4728  -0.4659  -0.4654  -0.4578  -0.4578  -0.4539  -0.4440
    -0.4375  -0.4373  -0.4265  -0.4052  -0.4049  -0.3969  -0.3832  -0.3829
    -0.3295  -0.3293  -0.3013  -0.3012  -0.2925  -0.2922  -0.2591  -0.2489
    -0.2486  -0.2309  -0.2297  -0.2291  -0.1503  -0.1497  -0.0386   0.3627
     0.3633   0.3887   0.3888   0.4511   0.4518   0.8015   0.8021   0.8147
     0.8156   0.9860   1.0524   1.1426   1.1451   1.4026   1.4063   1.9876
     1.9887   2.1186   2.1195   2.3290   2.3296   2.3988   2.4002   2.4877
     2.7656   2.7778   2.9443   3.1588   3.1620   3.1927   3.1947   3.2584
     3.3566   3.5212   3.5303   3.5650   3.8067   3.8080   3.8813   3.8822
     4.1262   4.1267   4.1566   4.3468   4.3482   4.4089   4.4925   4.7839
     4.8203   4.8223   5.0125   5.1020   5.1025   5.2172   5.2259   5.6359
     5.8319   5.8960   5.8986   5.9734   5.9740   6.0493   6.1090   6.1157
     6.1270   6.1291   6.1499   6.1977   6.1985   6.2036   6.2115   6.2979
     6.4173   6.7224   6.7827   6.8475   6.8496   6.9143   6.9681   6.9831
     7.0785   7.0984   7.1163

          k =-0.2500 0.1443 0.1111 (136898 PWs)   bands (ev):

   -18.4587  -6.6669  -6.2721  -5.8723  -5.5837  -5.5184  -5.5183  -4.9615
    -4.9615  -4.8485  -4.8120  -4.6613  -4.5915  -4.5589  -4.5588  -4.5121
    -4.4416  -4.4416  -4.3046  -4.2621  -4.2621  -4.2410  -4.2403  -4.2393
    -4.1187  -4.1187  -4.0392  -4.0283  -4.0266  -4.0266  -4.0060  -4.0060
    -3.9406  -3.8843  -3.8843  -3.8718  -3.8614  -3.8614  -3.8499  -3.8498
    -3.8414  -3.7945  -3.7945  -3.7851  -3.7851  -3.7722  -3.7722  -3.7418
    -3.7377  -3.7376  -3.7022  -3.7022  -3.6835  -3.6834  -3.6635  -3.6214
    -3.6214  -3.5601  -3.5601  -3.5378  -3.5377  -3.5213  -3.4479  -3.4479
    -3.4390  -3.4390  -3.4220  -3.4220  -3.3984  -3.3984  -3.2468  -3.2467
    -3.2287  -3.2287  -3.2239  -3.1853  -3.1853  -3.1803  -3.1803  -3.1244
    -3.1244  -3.1054  -3.1053  -3.0671  -3.0432  -3.0432  -3.0208  -3.0128
    -3.0127  -2.9680  -2.9680  -2.9488  -2.9487  -2.9437  -2.9436  -2.9184
    -2.9184  -2.8737  -2.8736  -2.8677  -2.8676  -2.8526  -2.8038  -2.8037
    -2.7803  -2.7720  -2.7719  -2.6923  -2.6922  -2.6621  -2.6621  -2.6550
    -2.6463  -2.6244  -2.5970  -2.5970  -2.5795  -2.5765  -2.5722  -2.5722
    -2.5593  -2.5505  -2.5503  -2.5417  -2.5416  -2.5336  -2.5335  -2.4819
    -2.4669  -2.4561  -2.4370  -2.4326  -2.4326  -2.4165  -2.4164  -2.4133
    -2.4132  -2.4024  -2.3723  -2.3723  -2.3606  -2.3548  -2.3418  -2.3418
    -2.3395  -2.3138  -2.3138  -2.3033  -2.2952  -2.2951  -2.2385  -2.2271
    -2.2150  -2.2150  -2.2126  -2.1934  -2.1934  -2.1803  -2.1596  -2.1596
    -2.1540  -2.1540  -2.1435  -2.1307  -2.1306  -2.1171  -2.1016  -2.1015
    -2.0540  -2.0540  -2.0449  -2.0444  -2.0442  -2.0411  -2.0314  -2.0313
    -2.0284  -2.0283  -2.0155  -2.0105  -2.0105  -1.8958  -1.8957  -1.8661
    -1.8658  -1.8656  -1.8432  -1.8386  -1.8386  -1.8282  -1.8281  -1.8082
    -1.8081  -1.8075  -1.8017  -1.8015  -1.7650  -1.7650  -1.7638  -1.7340
    -1.7340  -1.7281  -1.7281  -1.7145  -1.7144  -1.6568  -1.6542  -1.6304
    -1.6303  -1.6216  -1.6157  -1.5933  -1.5933  -1.5878  -1.5877  -1.5841
    -1.5841  -1.5720  -1.5719  -1.5522  -1.5149  -1.5148  -1.4837  -1.4837
    -1.4734  -1.4362  -1.4361  -1.4024  -1.4024  -1.3919  -1.3916  -1.3778
    -1.3607  -1.3600  -1.3403  -1.3402  -1.3097  -1.3097  -1.2905  -1.2904
    -1.2568  -1.2568  -1.2450  -1.1907  -1.1906  -1.1862  -1.1862  -1.1664
    -1.1663  -1.1496  -1.1495  -1.1189  -1.1075  -1.0873  -1.0852  -1.0852
    -1.0539  -1.0341  -1.0336  -1.0333  -1.0236  -1.0235  -1.0182  -1.0182
    -0.9880  -0.9805  -0.9805  -0.9674  -0.9671  -0.9610  -0.9609  -0.9419
    -0.9251  -0.9249  -0.8963  -0.8961  -0.8135  -0.7951  -0.7948  -0.7944
    -0.7929  -0.7878  -0.7878  -0.7789  -0.7575  -0.7357  -0.7355  -0.7306
    -0.7305  -0.7120  -0.6968  -0.6967  -0.6925  -0.6774  -0.5972  -0.5972
    -0.5688  -0.5686  -0.5590  -0.5588  -0.5516  -0.5505  -0.5504  -0.5440
    -0.5440  -0.5270  -0.4942  -0.4818  -0.4624  -0.4623  -0.4534  -0.4534
    -0.4458  -0.4458  -0.4378  -0.4349  -0.4349  -0.4265  -0.4168  -0.4141
    -0.4140  -0.3823  -0.3823  -0.3815  -0.3644  -0.3643  -0.3416  -0.3155
    -0.3154  -0.3055  -0.3055  -0.2374  -0.2374  -0.2187  -0.2186  -0.1561
    -0.1544  -0.1538  -0.1538  -0.1268   0.0814   0.0819   0.4251   0.4251
     0.5003   0.5008   0.6512   0.6803   0.7013   0.8369   0.8371   1.2151
     1.2827   1.2827   1.5170   1.5170   1.5721   1.8829   1.8839   1.9162
     1.9162   1.9548   1.9553   2.1100   2.1100   2.2848   2.2848   2.2962
     2.4404   2.4412   2.4875   2.6973   3.0645   3.0645   3.1061   3.1061
     3.1135   3.1137   3.4407   3.4407   3.7757   3.7766   3.8474   4.1095
     4.2392   4.2397   4.4342   4.4406   4.5288   4.5288   4.6076   4.7690
     4.7691   4.8624   4.8626   5.1543   5.2168   5.2170   5.3936   5.4130
     5.5566   5.5569   5.5598   5.5604   5.5999   5.7065   5.7067   5.7707
     6.0970   6.2931   6.3863   6.3864   6.3915   6.3922   6.4021   6.6058
     6.6064   6.6181   6.6977   6.7692   6.9309   6.9594   6.9722   7.1283
     7.2609   7.2767   7.2929

          k =-0.2500-0.1443-0.1111 (136898 PWs)   bands (ev):

   -18.4587  -6.6669  -6.2721  -5.8723  -5.5837  -5.5183  -5.5183  -4.9615
    -4.9614  -4.8485  -4.8122  -4.6613  -4.5915  -4.5589  -4.5589  -4.5123
    -4.4417  -4.4414  -4.3045  -4.2623  -4.2620  -4.2410  -4.2403  -4.2393
    -4.1187  -4.1186  -4.0391  -4.0283  -4.0266  -4.0266  -4.0062  -4.0058
    -3.9406  -3.8845  -3.8842  -3.8717  -3.8616  -3.8613  -3.8499  -3.8499
    -3.8414  -3.7945  -3.7945  -3.7851  -3.7849  -3.7724  -3.7721  -3.7416
    -3.7376  -3.7376  -3.7024  -3.7020  -3.6834  -3.6834  -3.6637  -3.6215
    -3.6213  -3.5602  -3.5600  -3.5377  -3.5376  -3.5211  -3.4481  -3.4480
    -3.4389  -3.4388  -3.4222  -3.4219  -3.3986  -3.3984  -3.2468  -3.2468
    -3.2287  -3.2286  -3.2239  -3.1854  -3.1853  -3.1804  -3.1801  -3.1244
    -3.1244  -3.1054  -3.1053  -3.0670  -3.0433  -3.0429  -3.0209  -3.0129
    -3.0128  -2.9681  -2.9680  -2.9489  -2.9488  -2.9437  -2.9436  -2.9183
    -2.9182  -2.8737  -2.8735  -2.8677  -2.8676  -2.8525  -2.8038  -2.8037
    -2.7805  -2.7721  -2.7719  -2.6923  -2.6919  -2.6620  -2.6619  -2.6551
    -2.6461  -2.6245  -2.5971  -2.5967  -2.5795  -2.5765  -2.5723  -2.5721
    -2.5596  -2.5504  -2.5503  -2.5416  -2.5416  -2.5339  -2.5337  -2.4819
    -2.4669  -2.4560  -2.4370  -2.4327  -2.4326  -2.4166  -2.4165  -2.4133
    -2.4132  -2.4026  -2.3723  -2.3721  -2.3607  -2.3549  -2.3419  -2.3415
    -2.3393  -2.3137  -2.3136  -2.3036  -2.2953  -2.2950  -2.2387  -2.2272
    -2.2152  -2.2150  -2.2126  -2.1936  -2.1929  -2.1803  -2.1594  -2.1594
    -2.1539  -2.1538  -2.1434  -2.1307  -2.1307  -2.1171  -2.1016  -2.1015
    -2.0541  -2.0539  -2.0450  -2.0443  -2.0442  -2.0408  -2.0314  -2.0313
    -2.0288  -2.0281  -2.0155  -2.0106  -2.0106  -1.8957  -1.8957  -1.8660
    -1.8657  -1.8655  -1.8426  -1.8394  -1.8387  -1.8282  -1.8281  -1.8080
    -1.8080  -1.8076  -1.8015  -1.8015  -1.7650  -1.7647  -1.7638  -1.7343
    -1.7342  -1.7285  -1.7278  -1.7144  -1.7144  -1.6568  -1.6540  -1.6304
    -1.6303  -1.6214  -1.6157  -1.5935  -1.5934  -1.5879  -1.5877  -1.5846
    -1.5838  -1.5718  -1.5717  -1.5523  -1.5151  -1.5150  -1.4841  -1.4835
    -1.4738  -1.4361  -1.4360  -1.4024  -1.4021  -1.3920  -1.3915  -1.3777
    -1.3607  -1.3601  -1.3401  -1.3401  -1.3097  -1.3095  -1.2906  -1.2904
    -1.2568  -1.2567  -1.2451  -1.1907  -1.1907  -1.1864  -1.1864  -1.1665
    -1.1663  -1.1493  -1.1493  -1.1184  -1.1073  -1.0874  -1.0854  -1.0850
    -1.0536  -1.0342  -1.0337  -1.0335  -1.0237  -1.0237  -1.0183  -1.0183
    -0.9879  -0.9806  -0.9803  -0.9674  -0.9671  -0.9613  -0.9606  -0.9419
    -0.9253  -0.9252  -0.8961  -0.8960  -0.8133  -0.7951  -0.7948  -0.7943
    -0.7926  -0.7881  -0.7878  -0.7787  -0.7575  -0.7357  -0.7356  -0.7306
    -0.7306  -0.7122  -0.6966  -0.6965  -0.6927  -0.6775  -0.5973  -0.5971
    -0.5687  -0.5687  -0.5590  -0.5589  -0.5517  -0.5505  -0.5504  -0.5441
    -0.5439  -0.5270  -0.4944  -0.4817  -0.4624  -0.4623  -0.4535  -0.4534
    -0.4458  -0.4456  -0.4378  -0.4349  -0.4349  -0.4265  -0.4168  -0.4142
    -0.4141  -0.3822  -0.3822  -0.3814  -0.3644  -0.3643  -0.3416  -0.3155
    -0.3154  -0.3055  -0.3054  -0.2376  -0.2374  -0.2189  -0.2184  -0.1561
    -0.1546  -0.1540  -0.1537  -0.1268   0.0817   0.0819   0.4250   0.4251
     0.5005   0.5008   0.6512   0.6800   0.7014   0.8370   0.8370   1.2154
     1.2826   1.2828   1.5170   1.5171   1.5721   1.8832   1.8835   1.9161
     1.9163   1.9550   1.9551   2.1097   2.1100   2.2848   2.2848   2.2962
     2.4407   2.4409   2.4873   2.6974   3.0643   3.0648   3.1061   3.1063
     3.1136   3.1137   3.4404   3.4409   3.7761   3.7764   3.8473   4.1096
     4.2392   4.2394   4.4360   4.4391   4.5285   4.5293   4.6076   4.7687
     4.7693   4.8628   4.8630   5.1543   5.2165   5.2174   5.3965   5.4109
     5.5563   5.5567   5.5601   5.5603   5.5896   5.7063   5.7069   5.7746
     6.1009   6.2928   6.3861   6.3866   6.3921   6.3922   6.4333   6.6059
     6.6062   6.6304   6.6506   6.7628   6.9461   6.9574   6.9780   7.1612
     7.2123   7.2763   7.3138

          k = 0.2500 0.1443-0.1111 (136898 PWs)   bands (ev):

   -18.4587  -6.6669  -6.2721  -5.8723  -5.5837  -5.5183  -5.5183  -4.9615
    -4.9614  -4.8485  -4.8122  -4.6613  -4.5915  -4.5589  -4.5589  -4.5123
    -4.4417  -4.4414  -4.3045  -4.2623  -4.2620  -4.2410  -4.2403  -4.2393
    -4.1187  -4.1186  -4.0391  -4.0283  -4.0266  -4.0266  -4.0062  -4.0058
    -3.9406  -3.8845  -3.8842  -3.8717  -3.8616  -3.8613  -3.8499  -3.8499
    -3.8414  -3.7945  -3.7945  -3.7851  -3.7849  -3.7724  -3.7721  -3.7416
    -3.7376  -3.7376  -3.7024  -3.7020  -3.6834  -3.6834  -3.6637  -3.6215
    -3.6213  -3.5602  -3.5600  -3.5377  -3.5376  -3.5211  -3.4481  -3.4480
    -3.4389  -3.4388  -3.4222  -3.4219  -3.3986  -3.3984  -3.2468  -3.2468
    -3.2287  -3.2286  -3.2239  -3.1854  -3.1853  -3.1804  -3.1801  -3.1244
    -3.1244  -3.1054  -3.1053  -3.0670  -3.0433  -3.0429  -3.0208  -3.0129
    -3.0128  -2.9681  -2.9680  -2.9489  -2.9487  -2.9437  -2.9436  -2.9183
    -2.9182  -2.8737  -2.8735  -2.8677  -2.8676  -2.8525  -2.8038  -2.8037
    -2.7805  -2.7721  -2.7719  -2.6923  -2.6919  -2.6620  -2.6619  -2.6551
    -2.6461  -2.6245  -2.5971  -2.5967  -2.5795  -2.5765  -2.5723  -2.5721
    -2.5596  -2.5504  -2.5503  -2.5416  -2.5416  -2.5339  -2.5337  -2.4819
    -2.4669  -2.4560  -2.4370  -2.4327  -2.4326  -2.4166  -2.4165  -2.4133
    -2.4132  -2.4026  -2.3723  -2.3721  -2.3607  -2.3549  -2.3419  -2.3415
    -2.3393  -2.3137  -2.3136  -2.3036  -2.2953  -2.2950  -2.2387  -2.2272
    -2.2152  -2.2150  -2.2126  -2.1936  -2.1929  -2.1803  -2.1594  -2.1594
    -2.1539  -2.1538  -2.1434  -2.1307  -2.1307  -2.1171  -2.1016  -2.1015
    -2.0541  -2.0539  -2.0450  -2.0443  -2.0442  -2.0408  -2.0315  -2.0313
    -2.0288  -2.0281  -2.0155  -2.0106  -2.0106  -1.8957  -1.8957  -1.8660
    -1.8657  -1.8656  -1.8426  -1.8394  -1.8387  -1.8282  -1.8281  -1.8080
    -1.8080  -1.8076  -1.8015  -1.8015  -1.7650  -1.7647  -1.7638  -1.7343
    -1.7342  -1.7285  -1.7278  -1.7144  -1.7144  -1.6568  -1.6540  -1.6304
    -1.6303  -1.6214  -1.6157  -1.5935  -1.5934  -1.5879  -1.5877  -1.5845
    -1.5838  -1.5718  -1.5717  -1.5523  -1.5151  -1.5150  -1.4840  -1.4835
    -1.4738  -1.4361  -1.4360  -1.4024  -1.4021  -1.3920  -1.3915  -1.3777
    -1.3607  -1.3601  -1.3401  -1.3401  -1.3097  -1.3095  -1.2906  -1.2904
    -1.2568  -1.2567  -1.2451  -1.1907  -1.1907  -1.1864  -1.1864  -1.1665
    -1.1663  -1.1493  -1.1493  -1.1184  -1.1073  -1.0874  -1.0854  -1.0850
    -1.0536  -1.0342  -1.0337  -1.0335  -1.0237  -1.0237  -1.0184  -1.0183
    -0.9879  -0.9806  -0.9803  -0.9674  -0.9671  -0.9613  -0.9606  -0.9419
    -0.9253  -0.9252  -0.8961  -0.8960  -0.8134  -0.7951  -0.7948  -0.7943
    -0.7926  -0.7881  -0.7878  -0.7787  -0.7575  -0.7357  -0.7356  -0.7306
    -0.7306  -0.7122  -0.6966  -0.6965  -0.6927  -0.6775  -0.5973  -0.5971
    -0.5687  -0.5687  -0.5590  -0.5589  -0.5517  -0.5505  -0.5504  -0.5441
    -0.5439  -0.5270  -0.4944  -0.4817  -0.4623  -0.4623  -0.4535  -0.4534
    -0.4458  -0.4456  -0.4377  -0.4349  -0.4349  -0.4265  -0.4168  -0.4143
    -0.4141  -0.3822  -0.3822  -0.3814  -0.3644  -0.3643  -0.3416  -0.3155
    -0.3154  -0.3055  -0.3054  -0.2376  -0.2374  -0.2189  -0.2184  -0.1561
    -0.1546  -0.1540  -0.1537  -0.1268   0.0817   0.0819   0.4250   0.4251
     0.5005   0.5008   0.6512   0.6800   0.7014   0.8370   0.8370   1.2154
     1.2826   1.2828   1.5170   1.5171   1.5721   1.8832   1.8835   1.9161
     1.9163   1.9550   1.9551   2.1097   2.1100   2.2848   2.2848   2.2962
     2.4407   2.4409   2.4873   2.6974   3.0643   3.0648   3.1061   3.1063
     3.1136   3.1137   3.4404   3.4409   3.7761   3.7764   3.8473   4.1096
     4.2392   4.2394   4.4360   4.4391   4.5285   4.5293   4.6076   4.7687
     4.7693   4.8628   4.8630   5.1543   5.2165   5.2174   5.3965   5.4109
     5.5563   5.5567   5.5601   5.5603   5.5896   5.7063   5.7069   5.7746
     6.1011   6.2928   6.3861   6.3866   6.3921   6.3922   6.4335   6.6059
     6.6062   6.6296   6.6506   6.7621   6.9459   6.9574   6.9771   7.1607
     7.2119   7.2762   7.3142

          k = 0.0000-0.2887 0.1111 (136898 PWs)   bands (ev):

   -18.4587  -6.6669  -6.2721  -5.8723  -5.5837  -5.5183  -5.5183  -4.9615
    -4.9614  -4.8485  -4.8122  -4.6613  -4.5915  -4.5590  -4.5589  -4.5123
    -4.4416  -4.4415  -4.3045  -4.2622  -4.2621  -4.2408  -4.2403  -4.2395
    -4.1187  -4.1186  -4.0392  -4.0283  -4.0267  -4.0266  -4.0061  -4.0059
    -3.9406  -3.8844  -3.8843  -3.8717  -3.8616  -3.8613  -3.8499  -3.8499
    -3.8414  -3.7945  -3.7945  -3.7851  -3.7849  -3.7724  -3.7721  -3.7416
    -3.7376  -3.7376  -3.7024  -3.7021  -3.6834  -3.6834  -3.6636  -3.6214
    -3.6213  -3.5602  -3.5600  -3.5377  -3.5376  -3.5211  -3.4481  -3.4479
    -3.4389  -3.4388  -3.4222  -3.4219  -3.3986  -3.3984  -3.2468  -3.2468
    -3.2288  -3.2286  -3.2239  -3.1854  -3.1853  -3.1805  -3.1800  -3.1244
    -3.1244  -3.1054  -3.1053  -3.0669  -3.0434  -3.0428  -3.0209  -3.0129
    -3.0128  -2.9681  -2.9680  -2.9489  -2.9487  -2.9437  -2.9436  -2.9183
    -2.9182  -2.8738  -2.8734  -2.8677  -2.8676  -2.8525  -2.8038  -2.8037
    -2.7805  -2.7720  -2.7719  -2.6925  -2.6919  -2.6620  -2.6619  -2.6550
    -2.6461  -2.6245  -2.5970  -2.5968  -2.5794  -2.5765  -2.5723  -2.5721
    -2.5595  -2.5504  -2.5503  -2.5416  -2.5416  -2.5339  -2.5337  -2.4819
    -2.4669  -2.4560  -2.4370  -2.4327  -2.4326  -2.4167  -2.4165  -2.4132
    -2.4132  -2.4026  -2.3725  -2.3719  -2.3607  -2.3549  -2.3419  -2.3416
    -2.3393  -2.3137  -2.3137  -2.3036  -2.2954  -2.2950  -2.2387  -2.2272
    -2.2151  -2.2150  -2.2126  -2.1935  -2.1931  -2.1804  -2.1594  -2.1594
    -2.1540  -2.1539  -2.1434  -2.1307  -2.1307  -2.1171  -2.1016  -2.1015
    -2.0541  -2.0539  -2.0450  -2.0444  -2.0442  -2.0408  -2.0314  -2.0312
    -2.0286  -2.0283  -2.0155  -2.0106  -2.0106  -1.8957  -1.8957  -1.8660
    -1.8657  -1.8656  -1.8427  -1.8392  -1.8388  -1.8282  -1.8281  -1.8082
    -1.8081  -1.8075  -1.8015  -1.8014  -1.7650  -1.7646  -1.7638  -1.7343
    -1.7342  -1.7284  -1.7278  -1.7144  -1.7144  -1.6567  -1.6541  -1.6304
    -1.6303  -1.6214  -1.6157  -1.5935  -1.5934  -1.5879  -1.5877  -1.5845
    -1.5838  -1.5718  -1.5717  -1.5523  -1.5151  -1.5149  -1.4839  -1.4836
    -1.4737  -1.4361  -1.4360  -1.4024  -1.4021  -1.3921  -1.3915  -1.3777
    -1.3607  -1.3601  -1.3402  -1.3401  -1.3097  -1.3095  -1.2906  -1.2904
    -1.2568  -1.2567  -1.2451  -1.1907  -1.1906  -1.1864  -1.1864  -1.1668
    -1.1660  -1.1494  -1.1493  -1.1184  -1.1073  -1.0874  -1.0854  -1.0850
    -1.0537  -1.0342  -1.0337  -1.0335  -1.0237  -1.0237  -1.0183  -1.0183
    -0.9879  -0.9806  -0.9803  -0.9674  -0.9671  -0.9611  -0.9608  -0.9419
    -0.9253  -0.9251  -0.8961  -0.8960  -0.8134  -0.7951  -0.7948  -0.7944
    -0.7927  -0.7881  -0.7878  -0.7787  -0.7575  -0.7358  -0.7355  -0.7306
    -0.7306  -0.7121  -0.6966  -0.6966  -0.6926  -0.6775  -0.5973  -0.5971
    -0.5687  -0.5686  -0.5590  -0.5589  -0.5517  -0.5505  -0.5505  -0.5441
    -0.5438  -0.5271  -0.4944  -0.4817  -0.4624  -0.4623  -0.4535  -0.4534
    -0.4458  -0.4457  -0.4378  -0.4349  -0.4349  -0.4265  -0.4167  -0.4143
    -0.4141  -0.3823  -0.3821  -0.3814  -0.3644  -0.3642  -0.3416  -0.3155
    -0.3154  -0.3055  -0.3054  -0.2375  -0.2374  -0.2189  -0.2184  -0.1561
    -0.1546  -0.1539  -0.1537  -0.1268   0.0817   0.0820   0.4250   0.4251
     0.5005   0.5008   0.6511   0.6800   0.7014   0.8370   0.8370   1.2154
     1.2827   1.2827   1.5171   1.5171   1.5721   1.8831   1.8836   1.9161
     1.9163   1.9550   1.9552   2.1097   2.1100   2.2848   2.2848   2.2962
     2.4406   2.4410   2.4873   2.6974   3.0642   3.0648   3.1061   3.1063
     3.1136   3.1137   3.4406   3.4407   3.7760   3.7765   3.8473   4.1096
     4.2392   4.2394   4.4354   4.4396   4.5286   4.5291   4.6076   4.7688
     4.7692   4.8628   4.8630   5.1543   5.2165   5.2173   5.3954   5.4115
     5.5563   5.5567   5.5600   5.5603   5.5936   5.7064   5.7070   5.7731
     6.0997   6.2928   6.3860   6.3867   6.3920   6.3923   6.4205   6.6059
     6.6063   6.6262   6.6669   6.7660   6.9402   6.9581   6.9745   7.1486
     7.2333   7.2765   7.3078

          k = 0.0000 0.2887 0.1111 (136898 PWs)   bands (ev):

   -18.4587  -6.6669  -6.2721  -5.8723  -5.5837  -5.5183  -5.5183  -4.9615
    -4.9614  -4.8485  -4.8122  -4.6613  -4.5915  -4.5590  -4.5589  -4.5123
    -4.4416  -4.4415  -4.3045  -4.2622  -4.2621  -4.2408  -4.2403  -4.2395
    -4.1187  -4.1186  -4.0392  -4.0283  -4.0267  -4.0266  -4.0061  -4.0059
    -3.9406  -3.8844  -3.8843  -3.8717  -3.8616  -3.8613  -3.8499  -3.8499
    -3.8414  -3.7945  -3.7945  -3.7851  -3.7849  -3.7724  -3.7721  -3.7416
    -3.7377  -3.7376  -3.7024  -3.7021  -3.6834  -3.6834  -3.6636  -3.6214
    -3.6213  -3.5602  -3.5600  -3.5378  -3.5376  -3.5211  -3.4481  -3.4479
    -3.4389  -3.4388  -3.4222  -3.4219  -3.3986  -3.3984  -3.2468  -3.2468
    -3.2288  -3.2286  -3.2239  -3.1854  -3.1853  -3.1805  -3.1800  -3.1244
    -3.1244  -3.1054  -3.1053  -3.0669  -3.0434  -3.0428  -3.0209  -3.0129
    -3.0128  -2.9681  -2.9680  -2.9489  -2.9487  -2.9437  -2.9436  -2.9183
    -2.9182  -2.8738  -2.8734  -2.8677  -2.8676  -2.8525  -2.8038  -2.8037
    -2.7805  -2.7721  -2.7719  -2.6925  -2.6919  -2.6620  -2.6619  -2.6550
    -2.6461  -2.6245  -2.5970  -2.5968  -2.5794  -2.5765  -2.5723  -2.5721
    -2.5595  -2.5504  -2.5503  -2.5416  -2.5416  -2.5339  -2.5337  -2.4819
    -2.4669  -2.4560  -2.4370  -2.4327  -2.4326  -2.4167  -2.4165  -2.4132
    -2.4132  -2.4026  -2.3725  -2.3719  -2.3607  -2.3549  -2.3419  -2.3416
    -2.3393  -2.3137  -2.3136  -2.3036  -2.2954  -2.2950  -2.2387  -2.2273
    -2.2151  -2.2150  -2.2126  -2.1935  -2.1931  -2.1804  -2.1594  -2.1594
    -2.1540  -2.1538  -2.1434  -2.1307  -2.1307  -2.1171  -2.1016  -2.1015
    -2.0541  -2.0539  -2.0450  -2.0444  -2.0442  -2.0408  -2.0314  -2.0312
    -2.0286  -2.0283  -2.0155  -2.0106  -2.0106  -1.8957  -1.8957  -1.8660
    -1.8657  -1.8656  -1.8427  -1.8392  -1.8388  -1.8282  -1.8281  -1.8082
    -1.8081  -1.8075  -1.8015  -1.8014  -1.7650  -1.7646  -1.7638  -1.7343
    -1.7342  -1.7284  -1.7278  -1.7144  -1.7144  -1.6567  -1.6540  -1.6304
    -1.6303  -1.6214  -1.6157  -1.5935  -1.5934  -1.5879  -1.5877  -1.5845
    -1.5838  -1.5718  -1.5717  -1.5523  -1.5151  -1.5149  -1.4839  -1.4836
    -1.4737  -1.4361  -1.4360  -1.4024  -1.4021  -1.3921  -1.3914  -1.3777
    -1.3607  -1.3601  -1.3402  -1.3401  -1.3097  -1.3095  -1.2906  -1.2904
    -1.2568  -1.2567  -1.2451  -1.1907  -1.1906  -1.1864  -1.1864  -1.1668
    -1.1660  -1.1494  -1.1493  -1.1184  -1.1073  -1.0874  -1.0854  -1.0850
    -1.0537  -1.0342  -1.0337  -1.0335  -1.0237  -1.0237  -1.0183  -1.0183
    -0.9879  -0.9806  -0.9803  -0.9674  -0.9671  -0.9611  -0.9608  -0.9419
    -0.9253  -0.9251  -0.8961  -0.8960  -0.8134  -0.7951  -0.7948  -0.7944
    -0.7927  -0.7881  -0.7878  -0.7787  -0.7575  -0.7357  -0.7355  -0.7306
    -0.7306  -0.7121  -0.6966  -0.6966  -0.6927  -0.6775  -0.5973  -0.5971
    -0.5687  -0.5686  -0.5590  -0.5589  -0.5517  -0.5505  -0.5505  -0.5441
    -0.5438  -0.5271  -0.4944  -0.4817  -0.4624  -0.4623  -0.4535  -0.4534
    -0.4458  -0.4457  -0.4377  -0.4349  -0.4349  -0.4265  -0.4167  -0.4143
    -0.4141  -0.3823  -0.3821  -0.3814  -0.3644  -0.3642  -0.3416  -0.3155
    -0.3154  -0.3055  -0.3054  -0.2375  -0.2374  -0.2189  -0.2184  -0.1561
    -0.1546  -0.1539  -0.1537  -0.1268   0.0817   0.0820   0.4250   0.4251
     0.5005   0.5008   0.6511   0.6800   0.7014   0.8370   0.8370   1.2154
     1.2827   1.2827   1.5171   1.5171   1.5721   1.8831   1.8836   1.9161
     1.9163   1.9550   1.9552   2.1097   2.1100   2.2848   2.2848   2.2962
     2.4406   2.4410   2.4873   2.6974   3.0642   3.0648   3.1061   3.1063
     3.1136   3.1137   3.4406   3.4407   3.7760   3.7765   3.8473   4.1096
     4.2392   4.2394   4.4354   4.4396   4.5286   4.5291   4.6076   4.7688
     4.7692   4.8628   4.8630   5.1543   5.2165   5.2173   5.3954   5.4115
     5.5563   5.5567   5.5600   5.5603   5.5936   5.7064   5.7070   5.7731
     6.0999   6.2928   6.3860   6.3867   6.3920   6.3923   6.4205   6.6059
     6.6063   6.6253   6.6669   6.7658   6.9401   6.9581   6.9739   7.1470
     7.2332   7.2760   7.3094

     the Fermi energy is     1.4059 ev

!    total energy              =   -6564.20052116 Ry
     Harris-Foulkes estimate   =   -6564.20052117 Ry
     estimated scf accuracy    <          2.8E-09 Ry

     The total energy is the sum of the following terms:

     one-electron contribution =  -48007.20299875 Ry
     hartree contribution      =   24500.62507979 Ry
     xc contribution           =   -3162.26996584 Ry
     ewald contribution        =   20104.64523489 Ry
     smearing contrib. (-TS)   =       0.00212875 Ry

     convergence has been achieved in  24 iterations

     Writing output data file 1521005.save

     init_run     :    212.68s CPU    222.83s WALL (       1 calls)
     electrons    :  12614.78s CPU  13133.03s WALL (       1 calls)

     Called by init_run:
     wfcinit      :    183.77s CPU    191.92s WALL (       1 calls)
     potinit      :      6.70s CPU      6.82s WALL (       1 calls)

     Called by electrons:
     c_bands      :  10945.11s CPU  11374.59s WALL (      25 calls)
     sum_band     :   1359.26s CPU   1443.01s WALL (      25 calls)
     v_of_rho     :     15.98s CPU     17.33s WALL (      25 calls)
     newd         :    299.65s CPU    302.83s WALL (      25 calls)
     mix_rho      :      3.14s CPU      3.41s WALL (      25 calls)

     Called by c_bands:
     init_us_2    :     11.50s CPU     11.84s WALL (     612 calls)
     cegterg      :  10638.72s CPU  11066.09s WALL (     300 calls)

     Called by *egterg:
     h_psi        :   4291.40s CPU   4630.14s WALL (    1946 calls)
     s_psi        :    439.86s CPU    444.22s WALL (    1946 calls)
     g_psi        :      6.12s CPU      6.14s WALL (    1634 calls)
     cdiaghg      :   2506.46s CPU   2513.64s WALL (    1922 calls)

     Called by h_psi:
     add_vuspsi   :    439.36s CPU    443.99s WALL (    1946 calls)

     General routines
     calbec       :   1293.47s CPU   1297.26s WALL (    2246 calls)
     fft          :    142.72s CPU    145.19s WALL (     400 calls)
     ffts         :      2.17s CPU      2.34s WALL (      50 calls)
     fftw         :   3370.11s CPU   3768.53s WALL (  732812 calls)
     interpolate  :      4.84s CPU      5.40s WALL (      50 calls)
     davcio       :      0.02s CPU      0.19s WALL (      12 calls)

     Parallel routines
     fft_scatter  :   2719.71s CPU   3074.25s WALL (  733262 calls)

     PWSCF        :     3h34m CPU        3h42m WALL


   This run was terminated on:   0:37:59   9Aug2015            

=------------------------------------------------------------------------------=
   JOB DONE.
=------------------------------------------------------------------------------=
