
     Program PWSCF v.5.1.2 starts on  9Aug2015 at  0:53: 6 

     This program is part of the open-source Quantum ESPRESSO suite
     for quantum simulation of materials; please cite
         "P. Giannozzi et al., J. Phys.:Condens. Matter 21 395502 (2009);
          URL http://www.quantum-espresso.org", 
     in publications or presentations arising from this work. More details at
     http://www.quantum-espresso.org/quote

     Parallel version (MPI), running on    32 processors
     R & G space division:  proc/nbgrp/npool/nimage =      32
     Reading input from top.O1.Au50.d.2.6.phi.45.psi.180.in
Warning: card &IONS ignored
Warning: card / ignored
Warning: card &CELL ignored
Warning: card / ignored

     Current dimensions of program PWSCF are:
     Max number of different atomic species (ntypx) = 10
     Max number of k-points (npk) =  40000
     Max angular momentum in pseudopotentials (lmaxx) =  3

     Subspace diagonalization in iterative solution of the eigenvalue problem:
     a serial algorithm will be used


     Parallelization info
     --------------------
     sticks:   dense  smooth     PW     G-vecs:    dense   smooth      PW
     Min         445     223     58                96775    34191    4534
     Max         446     224     59                96790    34246    4540
     Sum       14269    7147   1867              3097177  1095093  145167


     Title: 
     top.O1.Au50.d.2.6.phi.45.psi.180                                           


     bravais-lattice index     =            4
     lattice parameter (alat)  =      22.7436  a.u.
     unit-cell volume          =   22924.1508 (a.u.)^3
     number of atoms/cell      =           67
     number of atomic types    =            3
     number of electrons       =       712.00
     number of Kohn-Sham states=          427
     kinetic-energy cutoff     =      50.0000  Ry
     charge density cutoff     =     400.0000  Ry
     convergence threshold     =      1.0E-08
     mixing beta               =       0.7000
     number of iterations used =            8  plain     mixing
     Exchange-correlation      =  SLA  PW   PBE  PBE ( 1  4  3  4 0 0)

     celldm(1)=  22.743643  celldm(2)=   0.000000  celldm(3)=   2.250000
     celldm(4)=   0.000000  celldm(5)=   0.000000  celldm(6)=   0.000000

     crystal axes: (cart. coord. in units of alat)
               a(1) = (   1.000000   0.000000   0.000000 )  
               a(2) = (  -0.500000   0.866025   0.000000 )  
               a(3) = (   0.000000   0.000000   2.250000 )  

     reciprocal axes: (cart. coord. in units 2 pi/alat)
               b(1) = (  1.000000  0.577350 -0.000000 )  
               b(2) = (  0.000000  1.154701  0.000000 )  
               b(3) = (  0.000000 -0.000000  0.444444 )  


     PseudoPot. # 1 for Au read from file:
     /home/scc/andrejb/qe/pseudo/Au.pbe-nd-van.UPF
     MD5 check sum: 458681b50f36d87ef23c61b04bba420a
     Pseudo is Ultrasoft + core correction, Zval = 11.0
     Generated by new atomic code, or converted to UPF format
     Using radial grid of  985 points,  3 beta functions with: 
                l(1) =   1
                l(2) =   2
                l(3) =   2
     Q(r) pseudized with  8 coefficients,  rinner =    1.100   1.100   1.100
                                                       1.100   1.100

     PseudoPot. # 2 for H  read from file:
     /home/scc/andrejb/qe/pseudo/H.pbe-van_ak.UPF
     MD5 check sum: 403db7282739603aa925980fa9b8608d
     Pseudo is Ultrasoft, Zval =  1.0
     Generated by new atomic code, or converted to UPF format
     Using radial grid of  615 points,  1 beta functions with: 
                l(1) =   0
     Q(r) pseudized with  8 coefficients,  rinner =    0.800

     PseudoPot. # 3 for O  read from file:
     /home/scc/andrejb/qe/pseudo/O.pbe-van_ak.UPF
     MD5 check sum: 4b8c549914a63cae506c6ff22b5af4fe
     Pseudo is Ultrasoft, Zval =  6.0
     Generated by new atomic code, or converted to UPF format
     Using radial grid of  737 points,  4 beta functions with: 
                l(1) =   0
                l(2) =   0
                l(3) =   1
                l(4) =   1
     Q(r) pseudized with  8 coefficients,  rinner =    0.800   0.800   0.800


     atomic species   valence    mass     pseudopotential
        Au            11.00   196.96657     Au( 1.00)
        H              1.00     1.01000     H ( 1.00)
        O              6.00    16.00000     O ( 1.00)

     No symmetry found



   Cartesian axes

     site n.     atom                  positions (alat units)
         1           O   tau(   1) = (   0.4790780   0.3968269   0.8290259  )
         2           H   tau(   2) = (   0.4731484   0.4615137   0.7807723  )
         3           H   tau(   3) = (   0.4848144   0.3340879   0.7782652  )
         4           Au  tau(   4) = (   0.3540481   0.6132292   0.0000000  )
         5           Au  tau(   5) = (   0.4790062   0.3967954   0.0000000  )
         6           Au  tau(   6) = (   0.6039644   0.1803616   0.0000000  )
         7           Au  tau(   7) = (   0.7289225  -0.0360723   0.0000000  )
         8           Au  tau(   8) = (   0.1041318   0.6132292   0.0000000  )
         9           Au  tau(   9) = (   0.2290899   0.3967954   0.0000000  )
        10           Au  tau(  10) = (   0.3540481   0.1803616   0.0000000  )
        11           Au  tau(  11) = (   0.4790062  -0.0360723   0.0000000  )
        12           Au  tau(  12) = (  -0.1457845   0.6132292   0.0000000  )
        13           Au  tau(  13) = (  -0.0208264   0.3967954   0.0000000  )
        14           Au  tau(  14) = (   0.1041318   0.1803616   0.0000000  )
        15           Au  tau(  15) = (   0.2290899  -0.0360723   0.0000000  )
        16           Au  tau(  16) = (  -0.3957008   0.6132292   0.0000000  )
        17           Au  tau(  17) = (  -0.2707426   0.3967954   0.0000000  )
        18           Au  tau(  18) = (  -0.1457845   0.1803616   0.0000000  )
        19           Au  tau(  19) = (  -0.0208264  -0.0360723   0.0000000  )
        20           Au  tau(  20) = (   0.4790062   0.6853738   0.2040557  )
        21           Au  tau(  21) = (   0.6039644   0.4689400   0.2040557  )
        22           Au  tau(  22) = (   0.7289225   0.2525061   0.2040557  )
        23           Au  tau(  23) = (   0.8538806   0.0360723   0.2040557  )
        24           Au  tau(  24) = (   0.2290899   0.6853738   0.2040557  )
        25           Au  tau(  25) = (   0.3540481   0.4689400   0.2040557  )
        26           Au  tau(  26) = (   0.4790062   0.2525061   0.2040557  )
        27           Au  tau(  27) = (   0.6039644   0.0360723   0.2040557  )
        28           Au  tau(  28) = (  -0.0208264   0.6853738   0.2040557  )
        29           Au  tau(  29) = (   0.1041318   0.4689400   0.2040557  )
        30           Au  tau(  30) = (   0.2290899   0.2525061   0.2040557  )
        31           Au  tau(  31) = (   0.3540481   0.0360723   0.2040557  )
        32           Au  tau(  32) = (  -0.2707426   0.6853738   0.2040557  )
        33           Au  tau(  33) = (  -0.1457845   0.4689400   0.2040557  )
        34           Au  tau(  34) = (  -0.0208264   0.2525061   0.2040557  )
        35           Au  tau(  35) = (   0.1041318   0.0360723   0.2040557  )
        36           Au  tau(  36) = (   0.3541162   0.7576593   0.4066483  )
        37           Au  tau(  37) = (   0.4791000   0.5411421   0.4066695  )
        38           Au  tau(  38) = (   0.6040570   0.3246862   0.4066617  )
        39           Au  tau(  39) = (   0.7290270   0.1081684   0.4066529  )
        40           Au  tau(  40) = (   0.1041162   0.7576236   0.4066247  )
        41           Au  tau(  41) = (   0.2291001   0.5411063   0.4066455  )
        42           Au  tau(  42) = (   0.3540567   0.3246505   0.4066380  )
        43           Au  tau(  43) = (   0.4790276   0.1081324   0.4066292  )
        44           Au  tau(  44) = (  -0.1458201   0.7576104   0.4066224  )
        45           Au  tau(  45) = (  -0.0208365   0.5410930   0.4066438  )
        46           Au  tau(  46) = (   0.1041202   0.3246372   0.4066359  )
        47           Au  tau(  47) = (   0.2290908   0.1081193   0.4066273  )
        48           Au  tau(  48) = (  -0.3958167   0.7575791   0.4065812  )
        49           Au  tau(  49) = (  -0.2708328   0.5410617   0.4066025  )
        50           Au  tau(  50) = (  -0.1458763   0.3246061   0.4065947  )
        51           Au  tau(  51) = (  -0.0209056   0.1080882   0.4065858  )
        52           Au  tau(  52) = (   0.3541085   0.6133344   0.6129762  )
        53           Au  tau(  53) = (   0.4790780   0.3968269   0.6129968  )
        54           Au  tau(  54) = (   0.6040356   0.1803811   0.6129859  )
        55           Au  tau(  55) = (   0.7290165  -0.0361221   0.6129385  )
        56           Au  tau(  56) = (   0.1041243   0.6133091   0.6130022  )
        57           Au  tau(  57) = (   0.2290941   0.3968013   0.6130241  )
        58           Au  tau(  58) = (   0.3540515   0.1803552   0.6130121  )
        59           Au  tau(  59) = (   0.4790323  -0.0361475   0.6129659  )
        60           Au  tau(  60) = (  -0.1458030   0.6133014   0.6129980  )
        61           Au  tau(  61) = (  -0.0208339   0.3967936   0.6130188  )
        62           Au  tau(  62) = (   0.1041239   0.1803477   0.6130083  )
        63           Au  tau(  63) = (   0.2291046  -0.0361554   0.6129607  )
        64           Au  tau(  64) = (  -0.3957908   0.6132739   0.6129471  )
        65           Au  tau(  65) = (  -0.2708208   0.3967658   0.6129688  )
        66           Au  tau(  66) = (  -0.1458636   0.1803200   0.6129569  )
        67           Au  tau(  67) = (  -0.0208823  -0.0361826   0.6129110  )

     number of k points=    12  Marzari-Vanderbilt smearing, width (Ry)=  0.0200
                       cart. coord. in units 2pi/alat
        k(    1) = (   0.2500000   0.4330127   0.1111111), wk =   0.1666667
        k(    2) = (   0.2500000  -0.1443376   0.1111111), wk =   0.1666667
        k(    3) = (  -0.2500000  -0.4330127   0.1111111), wk =   0.1666667
        k(    4) = (  -0.2500000   0.4330127  -0.1111111), wk =   0.1666667
        k(    5) = (   0.2500000  -0.4330127  -0.1111111), wk =   0.1666667
        k(    6) = (   0.5000000   0.0000000   0.1111111), wk =   0.1666667
        k(    7) = (  -0.5000000   0.0000000   0.1111111), wk =   0.1666667
        k(    8) = (  -0.2500000   0.1443376   0.1111111), wk =   0.1666667
        k(    9) = (  -0.2500000  -0.1443376  -0.1111111), wk =   0.1666667
        k(   10) = (   0.2500000   0.1443376  -0.1111111), wk =   0.1666667
        k(   11) = (   0.0000000  -0.2886751   0.1111111), wk =   0.1666667
        k(   12) = (   0.0000000   0.2886751   0.1111111), wk =   0.1666667

     Dense  grid:  3097177 G-vectors     FFT dimensions: ( 150, 150, 360)

     Smooth grid:  1095093 G-vectors     FFT dimensions: ( 108, 108, 240)

     Largest allocated arrays     est. size (Mb)     dimensions
        Kohn-Sham Wavefunctions        28.01 Mb     (    4299,  427)
        NL pseudopotentials            55.23 Mb     (    4299,  842)
        Each V/rho on FFT grid          4.12 Mb     (  270000)
        Each G-vector array             0.74 Mb     (   96788)
        G-vector shells                 0.16 Mb     (   21404)
     Largest temporary arrays     est. size (Mb)     dimensions
        Auxiliary wavefunctions       112.04 Mb     (    4299, 1708)
        Each subspace H/S matrix       44.51 Mb     (    1708, 1708)
        Each <psi_i|beta_j> matrix      5.49 Mb     (     842,  427)
        Arrays for rho mixing          32.96 Mb     (  270000,    8)

     Initial potential from superposition of free atoms
     Check: negative starting charge=   -1.730372

     starting charge  711.25682, renormalised to  712.00000

     negative rho (up, down):  1.732E+00 0.000E+00
     Starting wfc are  582 randomized atomic wfcs

     total cpu time spent up to now is      162.2 secs

     Self-consistent Calculation

     iteration #  1     ecut=    50.00 Ry     beta=0.70
     Davidson diagonalization with overlap
     ethr =  1.00E-02,  avg # of iterations =  3.0

     Threshold (ethr) on eigenvalues was too large:
     Diagonalizing with lowered threshold

     Davidson diagonalization with overlap
     ethr =  4.08E-04,  avg # of iterations =  3.1

     negative rho (up, down):  1.712E+00 0.000E+00

     total cpu time spent up to now is      812.0 secs

     total energy              =   -6562.28865162 Ry
     Harris-Foulkes estimate   =   -6564.92106766 Ry
     estimated scf accuracy    <       3.40170673 Ry

     iteration #  2     ecut=    50.00 Ry     beta=0.70
     Davidson diagonalization with overlap
     ethr =  4.78E-04,  avg # of iterations = 12.4

     negative rho (up, down):  1.714E+00 0.000E+00

     total cpu time spent up to now is     1899.7 secs

     total energy              =   -6555.71840115 Ry
     Harris-Foulkes estimate   =   -6570.39712343 Ry
     estimated scf accuracy    <      80.89509843 Ry

     iteration #  3     ecut=    50.00 Ry     beta=0.70
     Davidson diagonalization with overlap
     ethr =  4.78E-04,  avg # of iterations =  6.0

     negative rho (up, down):  1.729E+00 0.000E+00

     total cpu time spent up to now is     2546.7 secs

     total energy              =   -6562.54936539 Ry
     Harris-Foulkes estimate   =   -6564.92960951 Ry
     estimated scf accuracy    <      10.42097649 Ry

     iteration #  4     ecut=    50.00 Ry     beta=0.70
     Davidson diagonalization with overlap
     ethr =  4.78E-04,  avg # of iterations =  6.8

     negative rho (up, down):  1.732E+00 0.000E+00

     total cpu time spent up to now is     2952.2 secs

     total energy              =   -6562.80998023 Ry
     Harris-Foulkes estimate   =   -6565.23724044 Ry
     estimated scf accuracy    <      22.90676735 Ry

     iteration #  5     ecut=    50.00 Ry     beta=0.70
     Davidson diagonalization with overlap
     ethr =  4.78E-04,  avg # of iterations =  5.3

     negative rho (up, down):  1.743E+00 0.000E+00

     total cpu time spent up to now is     3333.0 secs

     total energy              =   -6563.95065594 Ry
     Harris-Foulkes estimate   =   -6564.52091472 Ry
     estimated scf accuracy    <       4.14155501 Ry

     iteration #  6     ecut=    50.00 Ry     beta=0.70
     Davidson diagonalization with overlap
     ethr =  4.78E-04,  avg # of iterations =  3.0

     negative rho (up, down):  1.748E+00 0.000E+00

     total cpu time spent up to now is     3638.7 secs

     total energy              =   -6564.15350880 Ry
     Harris-Foulkes estimate   =   -6564.22730456 Ry
     estimated scf accuracy    <       0.24290178 Ry

     iteration #  7     ecut=    50.00 Ry     beta=0.70
     Davidson diagonalization with overlap
     ethr =  3.41E-05,  avg # of iterations = 11.1

     negative rho (up, down):  1.750E+00 0.000E+00

     total cpu time spent up to now is     4144.1 secs

     total energy              =   -6564.17059661 Ry
     Harris-Foulkes estimate   =   -6564.20598189 Ry
     estimated scf accuracy    <       0.16824558 Ry

     iteration #  8     ecut=    50.00 Ry     beta=0.70
     Davidson diagonalization with overlap
     ethr =  2.36E-05,  avg # of iterations =  2.7

     negative rho (up, down):  1.752E+00 0.000E+00

     total cpu time spent up to now is     4438.8 secs

     total energy              =   -6564.17334433 Ry
     Harris-Foulkes estimate   =   -6564.19117278 Ry
     estimated scf accuracy    <       0.07048138 Ry

     iteration #  9     ecut=    50.00 Ry     beta=0.70
     Davidson diagonalization with overlap
     ethr =  9.90E-06,  avg # of iterations =  6.2

     negative rho (up, down):  1.753E+00 0.000E+00

     total cpu time spent up to now is     4820.7 secs

     total energy              =   -6564.17332914 Ry
     Harris-Foulkes estimate   =   -6564.18141344 Ry
     estimated scf accuracy    <       0.02823666 Ry

     iteration # 10     ecut=    50.00 Ry     beta=0.70
     Davidson diagonalization with overlap
     ethr =  3.97E-06,  avg # of iterations =  5.9

     negative rho (up, down):  1.753E+00 0.000E+00

     total cpu time spent up to now is     5178.5 secs

     total energy              =   -6564.17374761 Ry
     Harris-Foulkes estimate   =   -6564.17673340 Ry
     estimated scf accuracy    <       0.01044045 Ry

     iteration # 11     ecut=    50.00 Ry     beta=0.70
     Davidson diagonalization with overlap
     ethr =  1.47E-06,  avg # of iterations =  6.1

     negative rho (up, down):  1.754E+00 0.000E+00

     total cpu time spent up to now is     5553.3 secs

     total energy              =   -6564.17374991 Ry
     Harris-Foulkes estimate   =   -6564.17541270 Ry
     estimated scf accuracy    <       0.00565276 Ry

     iteration # 12     ecut=    50.00 Ry     beta=0.70
     Davidson diagonalization with overlap
     ethr =  7.94E-07,  avg # of iterations =  2.8

     negative rho (up, down):  1.754E+00 0.000E+00

     total cpu time spent up to now is     5858.6 secs

     total energy              =   -6564.17422794 Ry
     Harris-Foulkes estimate   =   -6564.17446372 Ry
     estimated scf accuracy    <       0.00046760 Ry

     iteration # 13     ecut=    50.00 Ry     beta=0.70
     Davidson diagonalization with overlap
     ethr =  6.57E-08,  avg # of iterations =  3.0

     negative rho (up, down):  1.754E+00 0.000E+00

     total cpu time spent up to now is     6276.5 secs

     total energy              =   -6564.17423773 Ry
     Harris-Foulkes estimate   =   -6564.17448552 Ry
     estimated scf accuracy    <       0.00113620 Ry

     iteration # 14     ecut=    50.00 Ry     beta=0.70
     Davidson diagonalization with overlap
     ethr =  6.57E-08,  avg # of iterations =  2.0

     negative rho (up, down):  1.754E+00 0.000E+00

     total cpu time spent up to now is     6593.6 secs

     total energy              =   -6564.17435312 Ry
     Harris-Foulkes estimate   =   -6564.17437603 Ry
     estimated scf accuracy    <       0.00009400 Ry

     iteration # 15     ecut=    50.00 Ry     beta=0.70
     Davidson diagonalization with overlap
     ethr =  1.32E-08,  avg # of iterations =  2.0

     negative rho (up, down):  1.754E+00 0.000E+00

     total cpu time spent up to now is     6884.3 secs

     total energy              =   -6564.17435962 Ry
     Harris-Foulkes estimate   =   -6564.17437498 Ry
     estimated scf accuracy    <       0.00013499 Ry

     iteration # 16     ecut=    50.00 Ry     beta=0.70
     Davidson diagonalization with overlap
     ethr =  1.32E-08,  avg # of iterations =  2.0

     negative rho (up, down):  1.754E+00 0.000E+00

     total cpu time spent up to now is     7165.0 secs

     total energy              =   -6564.17436631 Ry
     Harris-Foulkes estimate   =   -6564.17436866 Ry
     estimated scf accuracy    <       0.00000515 Ry

     iteration # 17     ecut=    50.00 Ry     beta=0.70
     Davidson diagonalization with overlap
     ethr =  7.23E-10,  avg # of iterations =  3.0

     negative rho (up, down):  1.754E+00 0.000E+00

     total cpu time spent up to now is     7587.8 secs

     total energy              =   -6564.17436467 Ry
     Harris-Foulkes estimate   =   -6564.17437116 Ry
     estimated scf accuracy    <       0.00003599 Ry

     iteration # 18     ecut=    50.00 Ry     beta=0.70
     Davidson diagonalization with overlap
     ethr =  7.23E-10,  avg # of iterations =  2.7

     negative rho (up, down):  1.754E+00 0.000E+00

     total cpu time spent up to now is     7951.4 secs

     total energy              =   -6564.17436758 Ry
     Harris-Foulkes estimate   =   -6564.17436847 Ry
     estimated scf accuracy    <       0.00000329 Ry

     iteration # 19     ecut=    50.00 Ry     beta=0.70
     Davidson diagonalization with overlap
     ethr =  4.62E-10,  avg # of iterations =  2.0

     negative rho (up, down):  1.754E+00 0.000E+00

     total cpu time spent up to now is     8269.4 secs

     total energy              =   -6564.17436793 Ry
     Harris-Foulkes estimate   =   -6564.17436813 Ry
     estimated scf accuracy    <       0.00000084 Ry

     iteration # 20     ecut=    50.00 Ry     beta=0.70
     Davidson diagonalization with overlap
     ethr =  1.19E-10,  avg # of iterations =  2.0

     negative rho (up, down):  1.754E+00 0.000E+00

     total cpu time spent up to now is     8561.4 secs

     total energy              =   -6564.17436803 Ry
     Harris-Foulkes estimate   =   -6564.17436808 Ry
     estimated scf accuracy    <       0.00000018 Ry

     iteration # 21     ecut=    50.00 Ry     beta=0.70
     Davidson diagonalization with overlap
     ethr =  2.55E-11,  avg # of iterations =  2.0

     negative rho (up, down):  1.754E+00 0.000E+00

     total cpu time spent up to now is     8863.4 secs

     total energy              =   -6564.17436805 Ry
     Harris-Foulkes estimate   =   -6564.17436807 Ry
     estimated scf accuracy    <       0.00000007 Ry

     iteration # 22     ecut=    50.00 Ry     beta=0.70
     Davidson diagonalization with overlap
     ethr =  9.54E-12,  avg # of iterations =  2.0

     negative rho (up, down):  1.754E+00 0.000E+00

     total cpu time spent up to now is     9175.5 secs

     total energy              =   -6564.17436806 Ry
     Harris-Foulkes estimate   =   -6564.17436806 Ry
     estimated scf accuracy    <       0.00000003 Ry

     iteration # 23     ecut=    50.00 Ry     beta=0.70
     Davidson diagonalization with overlap
     ethr =  3.86E-12,  avg # of iterations =  3.0

     negative rho (up, down):  1.754E+00 0.000E+00

     total cpu time spent up to now is     9502.2 secs

     total energy              =   -6564.17436806 Ry
     Harris-Foulkes estimate   =   -6564.17436806 Ry
     estimated scf accuracy    <       0.00000001 Ry

     iteration # 24     ecut=    50.00 Ry     beta=0.70
     Davidson diagonalization with overlap
     ethr =  1.61E-12,  avg # of iterations =  2.0

     negative rho (up, down):  1.754E+00 0.000E+00

     total cpu time spent up to now is     9795.0 secs

     End of self-consistent calculation

          k = 0.2500 0.4330 0.1111 (136853 PWs)   bands (ev):

   -18.9878  -6.8383  -6.4617  -6.0651  -6.0579  -5.3954  -5.0487  -5.0356
    -5.0257  -5.0075  -4.5930  -4.5874  -4.5099  -4.4831  -4.4642  -4.4618
    -4.4291  -4.3162  -4.3020  -4.2676  -4.2432  -4.2132  -4.2122  -4.2110
    -4.1680  -4.1607  -4.1435  -4.1311  -4.1144  -4.1111  -4.0931  -4.0234
    -4.0159  -4.0045  -3.9957  -3.9718  -3.9525  -3.9504  -3.9324  -3.9305
    -3.9276  -3.8641  -3.8540  -3.8252  -3.7900  -3.7881  -3.7811  -3.7558
    -3.7149  -3.6928  -3.6823  -3.6715  -3.6444  -3.6388  -3.6374  -3.6121
    -3.6097  -3.6084  -3.6025  -3.5838  -3.5709  -3.5286  -3.5201  -3.5145
    -3.4861  -3.4571  -3.4324  -3.4178  -3.3886  -3.3730  -3.3550  -3.3498
    -3.3222  -3.2892  -3.2666  -3.2562  -3.2267  -3.2174  -3.1964  -3.1901
    -3.1769  -3.1393  -3.1193  -3.1100  -3.0988  -3.0887  -3.0829  -3.0817
    -3.0800  -3.0763  -3.0681  -3.0163  -2.9635  -2.9590  -2.9582  -2.9549
    -2.9515  -2.9367  -2.9311  -2.9041  -2.8413  -2.8357  -2.8330  -2.8284
    -2.7778  -2.7752  -2.7718  -2.7642  -2.7505  -2.7007  -2.6933  -2.6881
    -2.6841  -2.6460  -2.6410  -2.6383  -2.6043  -2.5977  -2.5483  -2.5305
    -2.5212  -2.5194  -2.5113  -2.4988  -2.4920  -2.4898  -2.4864  -2.4847
    -2.4498  -2.4232  -2.4139  -2.4087  -2.4063  -2.4049  -2.4024  -2.4010
    -2.3990  -2.3976  -2.3695  -2.3656  -2.3628  -2.3608  -2.3588  -2.3478
    -2.3456  -2.3405  -2.3197  -2.3148  -2.3119  -2.2979  -2.2956  -2.2784
    -2.2722  -2.2516  -2.2487  -2.2427  -2.2419  -2.2382  -2.2360  -2.2335
    -2.2307  -2.2189  -2.2161  -2.2069  -2.2006  -2.1941  -2.1228  -2.1180
    -2.1039  -2.1013  -2.0906  -2.0824  -2.0743  -2.0562  -2.0506  -2.0322
    -2.0221  -2.0132  -2.0091  -2.0033  -1.9838  -1.9804  -1.9736  -1.9708
    -1.9624  -1.9442  -1.9375  -1.9059  -1.8812  -1.8757  -1.8689  -1.8602
    -1.8487  -1.7949  -1.7913  -1.7844  -1.7745  -1.7186  -1.7129  -1.6741
    -1.6559  -1.6442  -1.6313  -1.6219  -1.6074  -1.5938  -1.5836  -1.5747
    -1.5685  -1.5657  -1.5495  -1.5429  -1.5221  -1.5106  -1.5072  -1.5021
    -1.4972  -1.4822  -1.4747  -1.4695  -1.4432  -1.4386  -1.4269  -1.4219
    -1.4197  -1.4108  -1.3953  -1.3787  -1.3716  -1.3657  -1.3646  -1.3548
    -1.3374  -1.3073  -1.2979  -1.2865  -1.2801  -1.2687  -1.2626  -1.2171
    -1.1892  -1.1555  -1.1359  -1.1285  -1.1250  -1.1236  -1.1183  -1.1172
    -1.1130  -1.1056  -1.0730  -1.0540  -1.0481  -1.0402  -1.0353  -1.0216
    -1.0097  -1.0070  -0.9979  -0.9947  -0.9928  -0.9908  -0.9598  -0.9491
    -0.9459  -0.9359  -0.9344  -0.9248  -0.9208  -0.8925  -0.8865  -0.8747
    -0.8622  -0.8413  -0.8289  -0.7996  -0.7906  -0.7840  -0.7766  -0.7750
    -0.7698  -0.7648  -0.7582  -0.7539  -0.7457  -0.7296  -0.7269  -0.7208
    -0.7135  -0.7117  -0.7014  -0.6819  -0.6732  -0.6726  -0.6549  -0.6401
    -0.6341  -0.6252  -0.6099  -0.5757  -0.5717  -0.5703  -0.5653  -0.5592
    -0.5533  -0.5456  -0.5356  -0.5326  -0.5254  -0.5229  -0.5139  -0.5088
    -0.4817  -0.4777  -0.4770  -0.4707  -0.4684  -0.4640  -0.4580  -0.4509
    -0.4444  -0.4423  -0.4266  -0.4117  -0.4102  -0.4041  -0.3881  -0.3854
    -0.3415  -0.3310  -0.3072  -0.3038  -0.2988  -0.2932  -0.2647  -0.2568
    -0.2547  -0.2359  -0.2298  -0.2006  -0.1580  -0.1503  -0.0453   0.3555
     0.3586   0.3834   0.3846   0.4503   0.4680   0.7878   0.7967   0.8087
     0.8101   0.9946   1.0547   1.1427   1.1496   1.4048   1.4223   1.9807
     1.9905   2.1117   2.1176   2.3258   2.3388   2.3937   2.3953   2.4830
     2.7687   2.7723   2.9448   3.1587   3.1600   3.1808   3.1852   3.2487
     3.3512   3.5240   3.5328   3.5556   3.7983   3.8057   3.8776   3.8807
     4.1188   4.1271   4.1490   4.3325   4.3406   4.4018   4.4865   4.7718
     4.8060   4.8168   5.0036   5.0951   5.0993   5.2225   5.2321   5.8164
     5.8769   5.8929   5.9532   5.9665   6.0322   6.0584   6.1058   6.1205
     6.1242   6.1415   6.1832   6.1924   6.2065   6.2157   6.3114   6.3432
     6.6447   6.7667   6.8353   6.8430   6.9690   6.9821   6.9937   7.0069
     7.0552   7.0681   7.1531

          k = 0.2500-0.1443 0.1111 (136898 PWs)   bands (ev):

   -18.9878  -6.8381  -6.6716  -5.8776  -5.5992  -5.5247  -5.5213  -4.9697
    -4.9646  -4.8675  -4.8167  -4.6817  -4.6063  -4.5813  -4.5642  -4.5167
    -4.4485  -4.4446  -4.3079  -4.2758  -4.2654  -4.2646  -4.2457  -4.2426
    -4.1259  -4.1220  -4.0621  -4.0417  -4.0306  -4.0292  -4.0132  -4.0095
    -3.9693  -3.9149  -3.8887  -3.8851  -3.8749  -3.8655  -3.8594  -3.8545
    -3.8516  -3.8187  -3.8008  -3.7943  -3.7881  -3.7830  -3.7801  -3.7706
    -3.7511  -3.7412  -3.7340  -3.7192  -3.7020  -3.6893  -3.6827  -3.6398
    -3.6244  -3.6174  -3.5645  -3.5604  -3.5433  -3.5318  -3.5179  -3.4520
    -3.4512  -3.4418  -3.4344  -3.4301  -3.4095  -3.4065  -3.3925  -3.2499
    -3.2477  -3.2424  -3.2377  -3.2248  -3.1930  -3.1879  -3.1873  -3.1792
    -3.1298  -3.1274  -3.1105  -3.1094  -3.0702  -3.0574  -3.0487  -3.0294
    -3.0189  -3.0140  -2.9763  -2.9741  -2.9540  -2.9531  -2.9463  -2.9399
    -2.9250  -2.9219  -2.8861  -2.8779  -2.8732  -2.8667  -2.8519  -2.8156
    -2.8125  -2.7836  -2.7754  -2.7671  -2.7080  -2.6983  -2.6696  -2.6684
    -2.6641  -2.6479  -2.6262  -2.6066  -2.6028  -2.5920  -2.5848  -2.5793
    -2.5770  -2.5698  -2.5611  -2.5582  -2.5497  -2.5487  -2.5399  -2.5366
    -2.4836  -2.4605  -2.4445  -2.4414  -2.4385  -2.4250  -2.4233  -2.4208
    -2.4163  -2.4087  -2.3778  -2.3740  -2.3650  -2.3560  -2.3517  -2.3489
    -2.3477  -2.3259  -2.3213  -2.3105  -2.3009  -2.2976  -2.2441  -2.2334
    -2.2278  -2.2213  -2.2195  -2.2114  -2.2031  -2.1838  -2.1694  -2.1660
    -2.1643  -2.1607  -2.1574  -2.1478  -2.1442  -2.1261  -2.1200  -2.1110
    -2.0709  -2.0657  -2.0630  -2.0603  -2.0548  -2.0510  -2.0416  -2.0394
    -2.0338  -2.0317  -2.0202  -2.0193  -2.0173  -1.9251  -1.9107  -1.8993
    -1.8770  -1.8725  -1.8532  -1.8486  -1.8439  -1.8382  -1.8339  -1.8209
    -1.8147  -1.8123  -1.8108  -1.7910  -1.7739  -1.7713  -1.7692  -1.7473
    -1.7391  -1.7377  -1.7361  -1.7320  -1.7279  -1.6683  -1.6665  -1.6375
    -1.6352  -1.6296  -1.6260  -1.6121  -1.6055  -1.5968  -1.5953  -1.5924
    -1.5913  -1.5796  -1.5785  -1.5649  -1.5263  -1.5156  -1.5000  -1.4929
    -1.4782  -1.4440  -1.4390  -1.4130  -1.4062  -1.3969  -1.3962  -1.3877
    -1.3819  -1.3635  -1.3528  -1.3479  -1.3180  -1.3158  -1.3032  -1.2918
    -1.2720  -1.2668  -1.2494  -1.2091  -1.2050  -1.1964  -1.1946  -1.1836
    -1.1753  -1.1594  -1.1578  -1.1284  -1.1137  -1.1007  -1.0917  -1.0904
    -1.0668  -1.0473  -1.0421  -1.0375  -1.0337  -1.0309  -1.0235  -1.0229
    -0.9992  -0.9924  -0.9908  -0.9785  -0.9702  -0.9673  -0.9594  -0.9544
    -0.9348  -0.9200  -0.9018  -0.8888  -0.8427  -0.8194  -0.8099  -0.8043
    -0.8014  -0.7957  -0.7912  -0.7746  -0.7703  -0.7547  -0.7454  -0.7396
    -0.7368  -0.7286  -0.7108  -0.7048  -0.6998  -0.6854  -0.6450  -0.6018
    -0.5960  -0.5742  -0.5654  -0.5617  -0.5594  -0.5557  -0.5527  -0.5511
    -0.5449  -0.5335  -0.5133  -0.4881  -0.4835  -0.4697  -0.4653  -0.4599
    -0.4549  -0.4504  -0.4471  -0.4420  -0.4387  -0.4329  -0.4228  -0.4198
    -0.4141  -0.3884  -0.3859  -0.3835  -0.3677  -0.3656  -0.3451  -0.3203
    -0.3175  -0.3099  -0.3065  -0.2425  -0.2409  -0.2287  -0.2269  -0.1663
    -0.1650  -0.1606  -0.1409  -0.1383   0.0788   0.1055   0.4194   0.4202
     0.4955   0.5190   0.6465   0.6840   0.7261   0.8268   0.8328   1.2077
     1.2765   1.2787   1.5104   1.5124   1.5784   1.8760   1.8951   1.9056
     1.9080   1.9467   1.9618   2.0981   2.1033   2.2792   2.2803   2.3012
     2.4339   2.4512   2.4831   2.6982   3.0435   3.0596   3.0963   3.1019
     3.1051   3.1087   3.4336   3.4359   3.7680   3.7796   3.8500   4.1051
     4.2304   4.2333   4.4363   4.4449   4.5172   4.5227   4.6020   4.7617
     4.7693   4.8562   4.8579   5.1434   5.1993   5.2153   5.4044   5.4231
     5.5415   5.5480   5.5550   5.5596   5.6882   5.7025   5.7708   5.9307
     6.2782   6.3643   6.3767   6.3823   6.3899   6.4506   6.4767   6.5854
     6.5935   6.7318   6.7448   6.8348   6.9491   6.9647   7.1585   7.2480
     7.2711   7.2969   7.3110

          k =-0.2500-0.4330 0.1111 (136853 PWs)   bands (ev):

   -18.9878  -6.8383  -6.4617  -6.0651  -6.0579  -5.3954  -5.0487  -5.0356
    -5.0257  -5.0075  -4.5930  -4.5874  -4.5099  -4.4831  -4.4642  -4.4618
    -4.4291  -4.3162  -4.3020  -4.2676  -4.2432  -4.2132  -4.2122  -4.2110
    -4.1680  -4.1607  -4.1435  -4.1311  -4.1144  -4.1111  -4.0931  -4.0234
    -4.0159  -4.0045  -3.9957  -3.9718  -3.9525  -3.9504  -3.9324  -3.9305
    -3.9276  -3.8641  -3.8540  -3.8252  -3.7900  -3.7881  -3.7811  -3.7558
    -3.7149  -3.6928  -3.6823  -3.6715  -3.6444  -3.6388  -3.6374  -3.6121
    -3.6097  -3.6084  -3.6025  -3.5838  -3.5709  -3.5286  -3.5201  -3.5145
    -3.4861  -3.4571  -3.4324  -3.4178  -3.3886  -3.3730  -3.3550  -3.3498
    -3.3222  -3.2892  -3.2666  -3.2562  -3.2267  -3.2174  -3.1964  -3.1901
    -3.1769  -3.1393  -3.1193  -3.1100  -3.0988  -3.0887  -3.0829  -3.0817
    -3.0800  -3.0763  -3.0681  -3.0163  -2.9635  -2.9590  -2.9582  -2.9549
    -2.9515  -2.9367  -2.9311  -2.9041  -2.8413  -2.8357  -2.8330  -2.8284
    -2.7778  -2.7752  -2.7718  -2.7642  -2.7505  -2.7007  -2.6933  -2.6881
    -2.6841  -2.6460  -2.6410  -2.6383  -2.6043  -2.5977  -2.5483  -2.5305
    -2.5212  -2.5194  -2.5113  -2.4988  -2.4920  -2.4898  -2.4864  -2.4847
    -2.4498  -2.4232  -2.4139  -2.4087  -2.4063  -2.4049  -2.4024  -2.4010
    -2.3990  -2.3976  -2.3695  -2.3656  -2.3628  -2.3608  -2.3588  -2.3478
    -2.3456  -2.3405  -2.3197  -2.3148  -2.3119  -2.2979  -2.2956  -2.2784
    -2.2722  -2.2516  -2.2487  -2.2427  -2.2419  -2.2382  -2.2360  -2.2335
    -2.2307  -2.2189  -2.2161  -2.2069  -2.2006  -2.1941  -2.1228  -2.1180
    -2.1039  -2.1013  -2.0906  -2.0825  -2.0743  -2.0562  -2.0506  -2.0322
    -2.0221  -2.0132  -2.0091  -2.0033  -1.9838  -1.9804  -1.9736  -1.9708
    -1.9624  -1.9442  -1.9375  -1.9059  -1.8812  -1.8757  -1.8689  -1.8602
    -1.8487  -1.7949  -1.7913  -1.7844  -1.7745  -1.7186  -1.7129  -1.6741
    -1.6559  -1.6442  -1.6313  -1.6219  -1.6074  -1.5938  -1.5836  -1.5747
    -1.5685  -1.5657  -1.5495  -1.5429  -1.5221  -1.5106  -1.5072  -1.5021
    -1.4972  -1.4822  -1.4748  -1.4695  -1.4432  -1.4386  -1.4269  -1.4219
    -1.4197  -1.4108  -1.3953  -1.3787  -1.3716  -1.3657  -1.3646  -1.3548
    -1.3374  -1.3073  -1.2979  -1.2865  -1.2801  -1.2687  -1.2626  -1.2171
    -1.1892  -1.1555  -1.1359  -1.1285  -1.1250  -1.1236  -1.1183  -1.1172
    -1.1130  -1.1056  -1.0730  -1.0540  -1.0481  -1.0402  -1.0353  -1.0216
    -1.0097  -1.0070  -0.9979  -0.9947  -0.9928  -0.9908  -0.9598  -0.9491
    -0.9459  -0.9359  -0.9344  -0.9248  -0.9208  -0.8925  -0.8865  -0.8747
    -0.8622  -0.8413  -0.8289  -0.7996  -0.7906  -0.7840  -0.7766  -0.7750
    -0.7698  -0.7648  -0.7582  -0.7539  -0.7457  -0.7296  -0.7269  -0.7208
    -0.7135  -0.7117  -0.7014  -0.6819  -0.6732  -0.6726  -0.6549  -0.6401
    -0.6341  -0.6252  -0.6099  -0.5757  -0.5717  -0.5703  -0.5653  -0.5592
    -0.5533  -0.5456  -0.5356  -0.5326  -0.5254  -0.5229  -0.5139  -0.5088
    -0.4817  -0.4776  -0.4770  -0.4707  -0.4684  -0.4640  -0.4580  -0.4509
    -0.4444  -0.4423  -0.4266  -0.4117  -0.4102  -0.4041  -0.3881  -0.3854
    -0.3415  -0.3310  -0.3072  -0.3038  -0.2988  -0.2932  -0.2647  -0.2568
    -0.2547  -0.2359  -0.2298  -0.2006  -0.1580  -0.1503  -0.0453   0.3555
     0.3586   0.3834   0.3846   0.4503   0.4680   0.7878   0.7967   0.8087
     0.8101   0.9946   1.0547   1.1427   1.1496   1.4048   1.4223   1.9807
     1.9905   2.1117   2.1176   2.3258   2.3388   2.3937   2.3953   2.4830
     2.7687   2.7723   2.9448   3.1587   3.1600   3.1808   3.1852   3.2487
     3.3512   3.5240   3.5328   3.5556   3.7983   3.8057   3.8776   3.8807
     4.1188   4.1271   4.1490   4.3325   4.3406   4.4018   4.4865   4.7718
     4.8060   4.8168   5.0036   5.0951   5.0993   5.2226   5.2321   5.8164
     5.8769   5.8929   5.9532   5.9665   6.0322   6.0583   6.1058   6.1205
     6.1242   6.1415   6.1832   6.1924   6.2065   6.2157   6.3114   6.3432
     6.6447   6.7668   6.8355   6.8431   6.9684   6.9823   6.9935   7.0059
     7.0564   7.0679   7.1530

          k =-0.2500 0.4330-0.1111 (136853 PWs)   bands (ev):

   -18.9878  -6.8383  -6.4616  -6.0653  -6.0577  -5.3952  -5.0492  -5.0349
    -5.0259  -5.0076  -4.5934  -4.5866  -4.5100  -4.4828  -4.4637  -4.4619
    -4.4290  -4.3174  -4.3024  -4.2684  -4.2431  -4.2132  -4.2122  -4.2104
    -4.1679  -4.1606  -4.1435  -4.1311  -4.1149  -4.1111  -4.0929  -4.0238
    -4.0153  -4.0041  -3.9956  -3.9713  -3.9526  -3.9507  -3.9323  -3.9306
    -3.9277  -3.8628  -3.8541  -3.8240  -3.7893  -3.7884  -3.7813  -3.7580
    -3.7150  -3.6942  -3.6823  -3.6733  -3.6446  -3.6398  -3.6370  -3.6122
    -3.6097  -3.6078  -3.6026  -3.5835  -3.5703  -3.5278  -3.5199  -3.5141
    -3.4860  -3.4570  -3.4323  -3.4176  -3.3891  -3.3723  -3.3547  -3.3496
    -3.3222  -3.2892  -3.2670  -3.2566  -3.2272  -3.2171  -3.1971  -3.1897
    -3.1770  -3.1392  -3.1207  -3.1094  -3.0979  -3.0888  -3.0834  -3.0819
    -3.0800  -3.0762  -3.0674  -3.0162  -2.9633  -2.9593  -2.9582  -2.9541
    -2.9515  -2.9376  -2.9307  -2.9038  -2.8421  -2.8363  -2.8326  -2.8279
    -2.7775  -2.7758  -2.7719  -2.7650  -2.7503  -2.7005  -2.6922  -2.6881
    -2.6842  -2.6454  -2.6412  -2.6383  -2.6050  -2.5975  -2.5481  -2.5308
    -2.5217  -2.5187  -2.5119  -2.4997  -2.4917  -2.4899  -2.4861  -2.4845
    -2.4498  -2.4215  -2.4132  -2.4083  -2.4066  -2.4053  -2.4018  -2.4005
    -2.3994  -2.3972  -2.3701  -2.3654  -2.3628  -2.3613  -2.3590  -2.3481
    -2.3456  -2.3401  -2.3201  -2.3146  -2.3113  -2.2989  -2.2957  -2.2788
    -2.2717  -2.2516  -2.2485  -2.2432  -2.2420  -2.2386  -2.2362  -2.2327
    -2.2306  -2.2193  -2.2160  -2.2068  -2.2006  -2.1941  -2.1231  -2.1181
    -2.1037  -2.1014  -2.0896  -2.0829  -2.0750  -2.0569  -2.0501  -2.0321
    -2.0221  -2.0127  -2.0094  -2.0030  -1.9834  -1.9810  -1.9734  -1.9710
    -1.9619  -1.9440  -1.9375  -1.9043  -1.8805  -1.8764  -1.8686  -1.8612
    -1.8488  -1.7951  -1.7909  -1.7846  -1.7744  -1.7184  -1.7127  -1.6751
    -1.6560  -1.6441  -1.6325  -1.6220  -1.6074  -1.5932  -1.5831  -1.5750
    -1.5684  -1.5661  -1.5497  -1.5444  -1.5218  -1.5098  -1.5072  -1.5017
    -1.4970  -1.4810  -1.4749  -1.4696  -1.4428  -1.4389  -1.4272  -1.4220
    -1.4196  -1.4105  -1.3949  -1.3799  -1.3722  -1.3649  -1.3642  -1.3550
    -1.3368  -1.3071  -1.2968  -1.2871  -1.2800  -1.2684  -1.2625  -1.2171
    -1.1895  -1.1562  -1.1351  -1.1289  -1.1248  -1.1233  -1.1191  -1.1177
    -1.1131  -1.1053  -1.0726  -1.0537  -1.0481  -1.0397  -1.0364  -1.0228
    -1.0095  -1.0071  -0.9975  -0.9946  -0.9924  -0.9906  -0.9595  -0.9501
    -0.9458  -0.9356  -0.9347  -0.9254  -0.9207  -0.8930  -0.8866  -0.8750
    -0.8628  -0.8406  -0.8282  -0.7996  -0.7899  -0.7835  -0.7759  -0.7751
    -0.7700  -0.7640  -0.7581  -0.7544  -0.7456  -0.7302  -0.7272  -0.7213
    -0.7138  -0.7124  -0.7016  -0.6809  -0.6730  -0.6724  -0.6515  -0.6407
    -0.6343  -0.6251  -0.6119  -0.5768  -0.5713  -0.5704  -0.5656  -0.5592
    -0.5533  -0.5447  -0.5349  -0.5330  -0.5253  -0.5228  -0.5134  -0.5081
    -0.4810  -0.4775  -0.4766  -0.4706  -0.4687  -0.4637  -0.4589  -0.4502
    -0.4449  -0.4427  -0.4265  -0.4115  -0.4103  -0.4042  -0.3879  -0.3858
    -0.3424  -0.3310  -0.3072  -0.3039  -0.2989  -0.2929  -0.2646  -0.2570
    -0.2546  -0.2360  -0.2290  -0.2019  -0.1597  -0.1502  -0.0464   0.3555
     0.3586   0.3836   0.3846   0.4523   0.4667   0.7901   0.7967   0.8076
     0.8099   0.9940   1.0544   1.1432   1.1483   1.4060   1.4217   1.9827
     1.9893   2.1127   2.1160   2.3279   2.3366   2.3936   2.3954   2.4830
     2.7687   2.7732   2.9451   3.1592   3.1602   3.1801   3.1857   3.2497
     3.3511   3.5231   3.5342   3.5560   3.7980   3.8057   3.8773   3.8799
     4.1210   4.1254   4.1488   4.3319   4.3403   4.4022   4.4864   4.7720
     4.8059   4.8167   5.0014   5.0941   5.0998   5.2166   5.2355   5.8137
     5.8780   5.8933   5.9518   5.9675   6.0325   6.0600   6.1037   6.1215
     6.1240   6.1425   6.1835   6.1931   6.2093   6.2158   6.3085   6.3457
     6.6445   6.7682   6.8318   6.8444   6.9711   6.9816   6.9952   7.0053
     7.0601   7.0676   7.1443

          k = 0.2500-0.4330-0.1111 (136853 PWs)   bands (ev):

   -18.9878  -6.8383  -6.4616  -6.0653  -6.0577  -5.3952  -5.0492  -5.0349
    -5.0259  -5.0076  -4.5934  -4.5866  -4.5100  -4.4828  -4.4637  -4.4619
    -4.4290  -4.3174  -4.3024  -4.2684  -4.2431  -4.2132  -4.2122  -4.2104
    -4.1679  -4.1606  -4.1435  -4.1311  -4.1149  -4.1111  -4.0929  -4.0238
    -4.0153  -4.0041  -3.9956  -3.9713  -3.9526  -3.9507  -3.9323  -3.9306
    -3.9277  -3.8628  -3.8541  -3.8240  -3.7893  -3.7884  -3.7813  -3.7580
    -3.7150  -3.6942  -3.6823  -3.6733  -3.6446  -3.6398  -3.6370  -3.6122
    -3.6097  -3.6078  -3.6026  -3.5835  -3.5703  -3.5278  -3.5199  -3.5141
    -3.4860  -3.4570  -3.4323  -3.4176  -3.3891  -3.3723  -3.3547  -3.3496
    -3.3222  -3.2892  -3.2670  -3.2566  -3.2272  -3.2171  -3.1971  -3.1897
    -3.1770  -3.1392  -3.1207  -3.1094  -3.0979  -3.0888  -3.0834  -3.0819
    -3.0800  -3.0762  -3.0674  -3.0162  -2.9633  -2.9593  -2.9582  -2.9541
    -2.9515  -2.9376  -2.9307  -2.9038  -2.8421  -2.8363  -2.8326  -2.8279
    -2.7775  -2.7758  -2.7719  -2.7650  -2.7503  -2.7005  -2.6922  -2.6881
    -2.6842  -2.6454  -2.6412  -2.6383  -2.6050  -2.5975  -2.5481  -2.5308
    -2.5217  -2.5187  -2.5119  -2.4997  -2.4917  -2.4899  -2.4861  -2.4845
    -2.4498  -2.4215  -2.4132  -2.4083  -2.4066  -2.4053  -2.4018  -2.4006
    -2.3994  -2.3972  -2.3701  -2.3654  -2.3628  -2.3613  -2.3590  -2.3481
    -2.3456  -2.3401  -2.3201  -2.3146  -2.3113  -2.2989  -2.2957  -2.2788
    -2.2717  -2.2516  -2.2485  -2.2432  -2.2420  -2.2386  -2.2362  -2.2327
    -2.2306  -2.2193  -2.2160  -2.2068  -2.2006  -2.1941  -2.1231  -2.1181
    -2.1037  -2.1014  -2.0896  -2.0829  -2.0750  -2.0569  -2.0501  -2.0321
    -2.0221  -2.0127  -2.0094  -2.0030  -1.9834  -1.9810  -1.9734  -1.9710
    -1.9619  -1.9440  -1.9375  -1.9043  -1.8805  -1.8764  -1.8686  -1.8612
    -1.8488  -1.7951  -1.7909  -1.7846  -1.7744  -1.7184  -1.7127  -1.6751
    -1.6560  -1.6441  -1.6325  -1.6220  -1.6074  -1.5932  -1.5831  -1.5750
    -1.5684  -1.5661  -1.5497  -1.5444  -1.5218  -1.5098  -1.5072  -1.5017
    -1.4970  -1.4810  -1.4749  -1.4696  -1.4428  -1.4389  -1.4272  -1.4220
    -1.4196  -1.4105  -1.3949  -1.3799  -1.3722  -1.3649  -1.3642  -1.3550
    -1.3368  -1.3071  -1.2968  -1.2871  -1.2800  -1.2684  -1.2625  -1.2171
    -1.1895  -1.1562  -1.1351  -1.1289  -1.1248  -1.1233  -1.1191  -1.1177
    -1.1131  -1.1053  -1.0726  -1.0537  -1.0481  -1.0397  -1.0364  -1.0228
    -1.0095  -1.0071  -0.9975  -0.9946  -0.9924  -0.9906  -0.9595  -0.9501
    -0.9458  -0.9356  -0.9347  -0.9254  -0.9207  -0.8930  -0.8866  -0.8750
    -0.8628  -0.8406  -0.8282  -0.7996  -0.7899  -0.7835  -0.7759  -0.7751
    -0.7700  -0.7640  -0.7581  -0.7544  -0.7456  -0.7302  -0.7272  -0.7213
    -0.7138  -0.7124  -0.7016  -0.6809  -0.6730  -0.6724  -0.6515  -0.6407
    -0.6343  -0.6251  -0.6119  -0.5768  -0.5713  -0.5704  -0.5656  -0.5592
    -0.5533  -0.5447  -0.5349  -0.5330  -0.5253  -0.5228  -0.5134  -0.5081
    -0.4810  -0.4775  -0.4766  -0.4706  -0.4687  -0.4637  -0.4589  -0.4502
    -0.4449  -0.4427  -0.4265  -0.4115  -0.4103  -0.4042  -0.3879  -0.3858
    -0.3424  -0.3310  -0.3072  -0.3039  -0.2989  -0.2929  -0.2646  -0.2570
    -0.2546  -0.2360  -0.2290  -0.2019  -0.1597  -0.1502  -0.0464   0.3555
     0.3586   0.3836   0.3846   0.4523   0.4667   0.7901   0.7967   0.8076
     0.8099   0.9940   1.0544   1.1432   1.1483   1.4060   1.4217   1.9827
     1.9893   2.1127   2.1160   2.3279   2.3366   2.3936   2.3954   2.4830
     2.7687   2.7732   2.9451   3.1592   3.1602   3.1801   3.1857   3.2497
     3.3511   3.5231   3.5342   3.5560   3.7980   3.8057   3.8773   3.8799
     4.1210   4.1254   4.1488   4.3319   4.3403   4.4022   4.4864   4.7720
     4.8059   4.8167   5.0014   5.0941   5.0998   5.2166   5.2355   5.8137
     5.8780   5.8933   5.9518   5.9675   6.0325   6.0600   6.1037   6.1215
     6.1240   6.1425   6.1835   6.1931   6.2093   6.2158   6.3085   6.3457
     6.6445   6.7680   6.8317   6.8444   6.9716   6.9813   6.9956   7.0064
     7.0587   7.0680   7.1444

          k = 0.5000 0.0000 0.1111 (136853 PWs)   bands (ev):

   -18.9878  -6.8381  -6.4619  -6.0662  -6.0568  -5.3959  -5.0476  -5.0367
    -5.0256  -5.0069  -4.5938  -4.5876  -4.5108  -4.4839  -4.4641  -4.4617
    -4.4291  -4.3124  -4.3022  -4.2649  -4.2429  -4.2133  -4.2128  -4.2117
    -4.1700  -4.1609  -4.1429  -4.1324  -4.1123  -4.1109  -4.0939  -4.0230
    -4.0164  -4.0059  -3.9960  -3.9726  -3.9527  -3.9506  -3.9327  -3.9306
    -3.9276  -3.8672  -3.8543  -3.8295  -3.7897  -3.7876  -3.7816  -3.7508
    -3.7148  -3.6880  -3.6824  -3.6634  -3.6445  -3.6401  -3.6346  -3.6119
    -3.6104  -3.6089  -3.6029  -3.5851  -3.5742  -3.5313  -3.5210  -3.5154
    -3.4858  -3.4562  -3.4331  -3.4197  -3.3857  -3.3748  -3.3546  -3.3503
    -3.3222  -3.2896  -3.2664  -3.2555  -3.2248  -3.2171  -3.1935  -3.1923
    -3.1767  -3.1391  -3.1155  -3.1109  -3.1005  -3.0884  -3.0827  -3.0815
    -3.0803  -3.0764  -3.0697  -3.0168  -2.9633  -2.9614  -2.9578  -2.9552
    -2.9519  -2.9347  -2.9320  -2.9046  -2.8390  -2.8351  -2.8331  -2.8288
    -2.7781  -2.7748  -2.7706  -2.7598  -2.7525  -2.7019  -2.6953  -2.6877
    -2.6850  -2.6486  -2.6415  -2.6381  -2.6023  -2.5983  -2.5477  -2.5265
    -2.5230  -2.5216  -2.5115  -2.4962  -2.4927  -2.4895  -2.4862  -2.4856
    -2.4509  -2.4302  -2.4145  -2.4097  -2.4061  -2.4044  -2.4027  -2.4007
    -2.3987  -2.3984  -2.3683  -2.3657  -2.3623  -2.3609  -2.3585  -2.3466
    -2.3443  -2.3407  -2.3183  -2.3144  -2.3127  -2.2959  -2.2949  -2.2767
    -2.2730  -2.2536  -2.2469  -2.2435  -2.2412  -2.2368  -2.2358  -2.2350
    -2.2311  -2.2189  -2.2157  -2.2065  -2.2009  -2.1951  -2.1223  -2.1189
    -2.1051  -2.1004  -2.0923  -2.0809  -2.0709  -2.0545  -2.0508  -2.0324
    -2.0206  -2.0149  -2.0093  -2.0037  -1.9852  -1.9780  -1.9742  -1.9702
    -1.9634  -1.9453  -1.9371  -1.9133  -1.8839  -1.8748  -1.8701  -1.8566
    -1.8495  -1.7952  -1.7912  -1.7843  -1.7743  -1.7185  -1.7133  -1.6720
    -1.6560  -1.6441  -1.6282  -1.6201  -1.6062  -1.5952  -1.5838  -1.5742
    -1.5684  -1.5662  -1.5496  -1.5402  -1.5217  -1.5123  -1.5061  -1.5029
    -1.4979  -1.4862  -1.4755  -1.4699  -1.4458  -1.4372  -1.4267  -1.4228
    -1.4195  -1.4120  -1.3949  -1.3716  -1.3706  -1.3671  -1.3662  -1.3527
    -1.3403  -1.3081  -1.3002  -1.2860  -1.2803  -1.2720  -1.2626  -1.2180
    -1.1881  -1.1528  -1.1376  -1.1276  -1.1260  -1.1246  -1.1177  -1.1162
    -1.1130  -1.1063  -1.0746  -1.0552  -1.0481  -1.0414  -1.0321  -1.0162
    -1.0109  -1.0054  -0.9996  -0.9957  -0.9939  -0.9900  -0.9602  -0.9491
    -0.9420  -0.9355  -0.9343  -0.9238  -0.9204  -0.8908  -0.8858  -0.8735
    -0.8576  -0.8445  -0.8329  -0.7993  -0.7941  -0.7859  -0.7780  -0.7719
    -0.7691  -0.7669  -0.7585  -0.7543  -0.7458  -0.7292  -0.7267  -0.7176
    -0.7127  -0.7081  -0.6975  -0.6916  -0.6740  -0.6724  -0.6637  -0.6391
    -0.6348  -0.6247  -0.6020  -0.5747  -0.5719  -0.5687  -0.5625  -0.5594
    -0.5550  -0.5491  -0.5376  -0.5324  -0.5259  -0.5228  -0.5150  -0.5108
    -0.4847  -0.4783  -0.4773  -0.4711  -0.4679  -0.4645  -0.4555  -0.4528
    -0.4444  -0.4408  -0.4261  -0.4125  -0.4108  -0.4043  -0.3886  -0.3843
    -0.3390  -0.3304  -0.3071  -0.3032  -0.2984  -0.2943  -0.2649  -0.2561
    -0.2551  -0.2358  -0.2334  -0.1962  -0.1560  -0.1465  -0.0407   0.3565
     0.3581   0.3829   0.3842   0.4431   0.4711   0.7828   0.7958   0.8082
     0.8129   0.9971   1.0570   1.1400   1.1568   1.4001   1.4249   1.9733
     1.9932   2.1062   2.1262   2.3186   2.3459   2.3936   2.3954   2.4822
     2.7687   2.7711   2.9443   3.1563   3.1598   3.1785   3.1892   3.2453
     3.3517   3.5259   3.5289   3.5543   3.7999   3.8051   3.8720   3.8895
     4.1146   4.1314   4.1488   4.3311   4.3442   4.4024   4.4855   4.7695
     4.8066   4.8166   5.0054   5.0964   5.0995   5.2161   5.2493   5.8207
     5.8788   5.8913   5.9607   5.9621   6.0232   6.0435   6.1119   6.1177
     6.1270   6.1416   6.1829   6.1894   6.2084   6.2126   6.3276   6.3305
     6.6453   6.7621   6.8395   6.8426   6.9672   6.9858   6.9924   7.0079
     7.0583   7.0653   7.1528

          k =-0.5000 0.0000 0.1111 (136853 PWs)   bands (ev):

   -18.9878  -6.8381  -6.4619  -6.0662  -6.0568  -5.3959  -5.0476  -5.0367
    -5.0256  -5.0069  -4.5938  -4.5876  -4.5108  -4.4839  -4.4641  -4.4617
    -4.4291  -4.3124  -4.3022  -4.2649  -4.2429  -4.2133  -4.2128  -4.2117
    -4.1700  -4.1609  -4.1429  -4.1324  -4.1123  -4.1109  -4.0939  -4.0230
    -4.0164  -4.0059  -3.9960  -3.9726  -3.9527  -3.9506  -3.9327  -3.9306
    -3.9276  -3.8672  -3.8543  -3.8295  -3.7897  -3.7876  -3.7816  -3.7508
    -3.7148  -3.6880  -3.6824  -3.6634  -3.6445  -3.6401  -3.6346  -3.6119
    -3.6104  -3.6089  -3.6029  -3.5851  -3.5742  -3.5313  -3.5210  -3.5154
    -3.4858  -3.4562  -3.4331  -3.4197  -3.3857  -3.3748  -3.3546  -3.3503
    -3.3222  -3.2896  -3.2664  -3.2555  -3.2248  -3.2171  -3.1935  -3.1923
    -3.1767  -3.1391  -3.1155  -3.1109  -3.1005  -3.0884  -3.0827  -3.0815
    -3.0803  -3.0764  -3.0697  -3.0168  -2.9633  -2.9614  -2.9578  -2.9552
    -2.9519  -2.9347  -2.9320  -2.9046  -2.8390  -2.8351  -2.8331  -2.8288
    -2.7781  -2.7748  -2.7706  -2.7598  -2.7525  -2.7019  -2.6953  -2.6877
    -2.6850  -2.6486  -2.6415  -2.6381  -2.6023  -2.5983  -2.5477  -2.5265
    -2.5230  -2.5216  -2.5115  -2.4962  -2.4927  -2.4895  -2.4862  -2.4856
    -2.4509  -2.4302  -2.4145  -2.4097  -2.4061  -2.4044  -2.4027  -2.4007
    -2.3987  -2.3984  -2.3683  -2.3657  -2.3623  -2.3609  -2.3585  -2.3466
    -2.3443  -2.3407  -2.3183  -2.3144  -2.3127  -2.2959  -2.2949  -2.2767
    -2.2730  -2.2536  -2.2469  -2.2435  -2.2412  -2.2368  -2.2358  -2.2350
    -2.2311  -2.2189  -2.2157  -2.2065  -2.2009  -2.1951  -2.1223  -2.1189
    -2.1051  -2.1004  -2.0923  -2.0809  -2.0709  -2.0545  -2.0508  -2.0324
    -2.0206  -2.0149  -2.0093  -2.0037  -1.9852  -1.9780  -1.9742  -1.9702
    -1.9634  -1.9453  -1.9371  -1.9133  -1.8839  -1.8748  -1.8701  -1.8566
    -1.8495  -1.7952  -1.7912  -1.7843  -1.7743  -1.7185  -1.7133  -1.6720
    -1.6560  -1.6441  -1.6282  -1.6201  -1.6062  -1.5952  -1.5838  -1.5742
    -1.5684  -1.5662  -1.5496  -1.5402  -1.5217  -1.5123  -1.5061  -1.5029
    -1.4979  -1.4862  -1.4755  -1.4699  -1.4458  -1.4372  -1.4267  -1.4228
    -1.4195  -1.4120  -1.3949  -1.3716  -1.3706  -1.3671  -1.3662  -1.3527
    -1.3403  -1.3081  -1.3002  -1.2860  -1.2803  -1.2720  -1.2626  -1.2180
    -1.1881  -1.1528  -1.1376  -1.1276  -1.1260  -1.1246  -1.1177  -1.1162
    -1.1130  -1.1063  -1.0746  -1.0552  -1.0481  -1.0414  -1.0321  -1.0162
    -1.0109  -1.0054  -0.9996  -0.9957  -0.9939  -0.9900  -0.9602  -0.9491
    -0.9420  -0.9355  -0.9343  -0.9238  -0.9204  -0.8908  -0.8858  -0.8735
    -0.8576  -0.8445  -0.8329  -0.7993  -0.7941  -0.7859  -0.7780  -0.7719
    -0.7691  -0.7669  -0.7585  -0.7543  -0.7458  -0.7292  -0.7267  -0.7176
    -0.7127  -0.7081  -0.6975  -0.6916  -0.6740  -0.6724  -0.6637  -0.6391
    -0.6348  -0.6247  -0.6020  -0.5747  -0.5719  -0.5687  -0.5625  -0.5594
    -0.5550  -0.5491  -0.5376  -0.5324  -0.5259  -0.5228  -0.5150  -0.5108
    -0.4847  -0.4783  -0.4773  -0.4711  -0.4679  -0.4645  -0.4555  -0.4528
    -0.4444  -0.4408  -0.4261  -0.4125  -0.4108  -0.4043  -0.3886  -0.3843
    -0.3390  -0.3304  -0.3071  -0.3032  -0.2984  -0.2943  -0.2649  -0.2561
    -0.2551  -0.2358  -0.2334  -0.1962  -0.1560  -0.1465  -0.0407   0.3565
     0.3581   0.3829   0.3842   0.4431   0.4711   0.7828   0.7958   0.8082
     0.8129   0.9971   1.0570   1.1400   1.1568   1.4001   1.4249   1.9733
     1.9932   2.1062   2.1262   2.3186   2.3459   2.3936   2.3954   2.4822
     2.7687   2.7711   2.9443   3.1563   3.1598   3.1785   3.1892   3.2453
     3.3517   3.5259   3.5289   3.5543   3.7999   3.8051   3.8720   3.8895
     4.1146   4.1314   4.1488   4.3311   4.3442   4.4024   4.4855   4.7695
     4.8066   4.8166   5.0054   5.0964   5.0995   5.2161   5.2493   5.8207
     5.8788   5.8913   5.9607   5.9621   6.0232   6.0435   6.1119   6.1178
     6.1270   6.1416   6.1829   6.1894   6.2084   6.2126   6.3277   6.3305
     6.6453   6.7621   6.8395   6.8426   6.9672   6.9856   6.9925   7.0079
     7.0584   7.0653   7.1528

          k =-0.2500 0.1443 0.1111 (136898 PWs)   bands (ev):

   -18.9878  -6.8381  -6.6716  -5.8776  -5.5992  -5.5247  -5.5213  -4.9697
    -4.9646  -4.8675  -4.8167  -4.6817  -4.6063  -4.5813  -4.5643  -4.5167
    -4.4485  -4.4446  -4.3079  -4.2758  -4.2654  -4.2646  -4.2457  -4.2426
    -4.1259  -4.1220  -4.0621  -4.0417  -4.0306  -4.0292  -4.0132  -4.0095
    -3.9693  -3.9149  -3.8887  -3.8851  -3.8749  -3.8655  -3.8594  -3.8545
    -3.8516  -3.8187  -3.8008  -3.7943  -3.7881  -3.7830  -3.7801  -3.7706
    -3.7511  -3.7412  -3.7340  -3.7192  -3.7020  -3.6893  -3.6827  -3.6398
    -3.6244  -3.6174  -3.5645  -3.5604  -3.5433  -3.5318  -3.5179  -3.4520
    -3.4512  -3.4418  -3.4344  -3.4301  -3.4095  -3.4065  -3.3925  -3.2499
    -3.2477  -3.2424  -3.2377  -3.2248  -3.1930  -3.1879  -3.1873  -3.1792
    -3.1298  -3.1274  -3.1105  -3.1094  -3.0702  -3.0574  -3.0487  -3.0294
    -3.0189  -3.0140  -2.9763  -2.9741  -2.9540  -2.9531  -2.9463  -2.9399
    -2.9250  -2.9218  -2.8861  -2.8779  -2.8733  -2.8667  -2.8519  -2.8156
    -2.8125  -2.7836  -2.7754  -2.7671  -2.7080  -2.6983  -2.6696  -2.6684
    -2.6641  -2.6479  -2.6262  -2.6066  -2.6028  -2.5920  -2.5848  -2.5793
    -2.5770  -2.5698  -2.5611  -2.5582  -2.5497  -2.5487  -2.5399  -2.5366
    -2.4836  -2.4605  -2.4445  -2.4414  -2.4385  -2.4250  -2.4233  -2.4208
    -2.4163  -2.4087  -2.3778  -2.3740  -2.3650  -2.3560  -2.3517  -2.3489
    -2.3477  -2.3259  -2.3213  -2.3105  -2.3009  -2.2976  -2.2441  -2.2333
    -2.2278  -2.2213  -2.2195  -2.2114  -2.2031  -2.1838  -2.1694  -2.1660
    -2.1643  -2.1607  -2.1574  -2.1478  -2.1442  -2.1261  -2.1200  -2.1110
    -2.0709  -2.0657  -2.0630  -2.0603  -2.0548  -2.0510  -2.0416  -2.0394
    -2.0338  -2.0317  -2.0202  -2.0193  -2.0173  -1.9251  -1.9107  -1.8993
    -1.8770  -1.8725  -1.8532  -1.8486  -1.8439  -1.8382  -1.8339  -1.8209
    -1.8147  -1.8123  -1.8108  -1.7910  -1.7739  -1.7713  -1.7692  -1.7473
    -1.7391  -1.7377  -1.7361  -1.7320  -1.7279  -1.6683  -1.6665  -1.6375
    -1.6352  -1.6296  -1.6260  -1.6121  -1.6055  -1.5968  -1.5953  -1.5924
    -1.5913  -1.5796  -1.5785  -1.5649  -1.5263  -1.5156  -1.5000  -1.4929
    -1.4782  -1.4440  -1.4390  -1.4130  -1.4062  -1.3969  -1.3962  -1.3877
    -1.3819  -1.3635  -1.3528  -1.3479  -1.3180  -1.3158  -1.3032  -1.2918
    -1.2720  -1.2668  -1.2494  -1.2091  -1.2050  -1.1964  -1.1946  -1.1836
    -1.1753  -1.1594  -1.1578  -1.1284  -1.1137  -1.1007  -1.0917  -1.0904
    -1.0668  -1.0473  -1.0421  -1.0375  -1.0337  -1.0309  -1.0235  -1.0229
    -0.9992  -0.9924  -0.9908  -0.9785  -0.9702  -0.9673  -0.9594  -0.9544
    -0.9348  -0.9200  -0.9018  -0.8888  -0.8427  -0.8194  -0.8099  -0.8043
    -0.8014  -0.7957  -0.7912  -0.7746  -0.7703  -0.7547  -0.7454  -0.7396
    -0.7368  -0.7286  -0.7108  -0.7048  -0.6998  -0.6854  -0.6450  -0.6018
    -0.5960  -0.5742  -0.5654  -0.5617  -0.5594  -0.5557  -0.5527  -0.5511
    -0.5449  -0.5335  -0.5133  -0.4881  -0.4835  -0.4697  -0.4653  -0.4599
    -0.4549  -0.4504  -0.4472  -0.4420  -0.4387  -0.4329  -0.4228  -0.4198
    -0.4141  -0.3884  -0.3859  -0.3835  -0.3677  -0.3656  -0.3451  -0.3203
    -0.3175  -0.3099  -0.3065  -0.2425  -0.2409  -0.2287  -0.2269  -0.1663
    -0.1650  -0.1606  -0.1409  -0.1383   0.0788   0.1055   0.4194   0.4202
     0.4955   0.5190   0.6465   0.6840   0.7261   0.8268   0.8328   1.2077
     1.2765   1.2787   1.5104   1.5124   1.5784   1.8760   1.8951   1.9056
     1.9080   1.9467   1.9618   2.0981   2.1033   2.2792   2.2803   2.3012
     2.4339   2.4512   2.4831   2.6982   3.0435   3.0596   3.0963   3.1019
     3.1051   3.1087   3.4336   3.4359   3.7680   3.7796   3.8500   4.1051
     4.2304   4.2333   4.4363   4.4449   4.5172   4.5227   4.6020   4.7617
     4.7693   4.8562   4.8580   5.1434   5.1993   5.2153   5.4044   5.4231
     5.5415   5.5480   5.5550   5.5596   5.6882   5.7025   5.7708   5.9307
     6.2782   6.3644   6.3766   6.3823   6.3898   6.4503   6.4762   6.5853
     6.5936   6.7320   6.7453   6.8356   6.9492   6.9647   7.1667   7.2477
     7.2710   7.2965   7.3104

          k =-0.2500-0.1443-0.1111 (136898 PWs)   bands (ev):

   -18.9878  -6.8380  -6.6717  -5.8777  -5.5991  -5.5246  -5.5213  -4.9695
    -4.9647  -4.8682  -4.8170  -4.6813  -4.6062  -4.5806  -4.5644  -4.5170
    -4.4481  -4.4446  -4.3080  -4.2757  -4.2654  -4.2647  -4.2457  -4.2426
    -4.1259  -4.1220  -4.0630  -4.0415  -4.0308  -4.0291  -4.0129  -4.0098
    -3.9707  -3.9147  -3.8886  -3.8858  -3.8745  -3.8656  -3.8587  -3.8545
    -3.8517  -3.8160  -3.8008  -3.7944  -3.7881  -3.7830  -3.7802  -3.7721
    -3.7502  -3.7411  -3.7324  -3.7198  -3.7026  -3.6893  -3.6833  -3.6392
    -3.6244  -3.6171  -3.5645  -3.5604  -3.5432  -3.5319  -3.5182  -3.4521
    -3.4515  -3.4418  -3.4342  -3.4300  -3.4096  -3.4064  -3.3928  -3.2500
    -3.2479  -3.2417  -3.2381  -3.2249  -3.1930  -3.1877  -3.1872  -3.1791
    -3.1298  -3.1279  -3.1106  -3.1092  -3.0705  -3.0571  -3.0481  -3.0299
    -3.0191  -3.0137  -2.9762  -2.9744  -2.9540  -2.9531  -2.9463  -2.9400
    -2.9250  -2.9216  -2.8856  -2.8777  -2.8732  -2.8670  -2.8518  -2.8160
    -2.8125  -2.7837  -2.7755  -2.7671  -2.7066  -2.6985  -2.6692  -2.6684
    -2.6647  -2.6478  -2.6262  -2.6061  -2.6030  -2.5919  -2.5848  -2.5794
    -2.5773  -2.5707  -2.5610  -2.5583  -2.5494  -2.5485  -2.5401  -2.5369
    -2.4837  -2.4607  -2.4439  -2.4414  -2.4386  -2.4249  -2.4234  -2.4209
    -2.4164  -2.4089  -2.3775  -2.3742  -2.3650  -2.3560  -2.3512  -2.3489
    -2.3476  -2.3257  -2.3215  -2.3115  -2.3007  -2.2974  -2.2447  -2.2326
    -2.2283  -2.2210  -2.2196  -2.2108  -2.2029  -2.1839  -2.1701  -2.1657
    -2.1642  -2.1609  -2.1576  -2.1473  -2.1444  -2.1261  -2.1203  -2.1111
    -2.0710  -2.0656  -2.0631  -2.0605  -2.0547  -2.0507  -2.0417  -2.0396
    -2.0337  -2.0316  -2.0203  -2.0196  -2.0173  -1.9235  -1.9112  -1.9018
    -1.8767  -1.8724  -1.8531  -1.8488  -1.8444  -1.8383  -1.8338  -1.8196
    -1.8145  -1.8123  -1.8107  -1.7911  -1.7744  -1.7711  -1.7690  -1.7464
    -1.7390  -1.7377  -1.7366  -1.7329  -1.7281  -1.6680  -1.6667  -1.6373
    -1.6355  -1.6294  -1.6259  -1.6113  -1.6050  -1.5964  -1.5956  -1.5923
    -1.5918  -1.5801  -1.5784  -1.5657  -1.5254  -1.5159  -1.5007  -1.4922
    -1.4792  -1.4432  -1.4394  -1.4118  -1.4067  -1.3972  -1.3961  -1.3878
    -1.3834  -1.3632  -1.3521  -1.3476  -1.3178  -1.3157  -1.3029  -1.2921
    -1.2711  -1.2673  -1.2497  -1.2089  -1.2038  -1.1969  -1.1957  -1.1844
    -1.1747  -1.1597  -1.1576  -1.1282  -1.1132  -1.1018  -1.0913  -1.0903
    -1.0677  -1.0457  -1.0418  -1.0378  -1.0337  -1.0316  -1.0235  -1.0230
    -0.9988  -0.9920  -0.9905  -0.9767  -0.9705  -0.9668  -0.9603  -0.9548
    -0.9343  -0.9199  -0.9017  -0.8887  -0.8455  -0.8175  -0.8107  -0.8044
    -0.8020  -0.7952  -0.7916  -0.7745  -0.7706  -0.7538  -0.7452  -0.7398
    -0.7376  -0.7295  -0.7105  -0.7053  -0.6998  -0.6853  -0.6442  -0.6013
    -0.5951  -0.5749  -0.5652  -0.5608  -0.5585  -0.5555  -0.5527  -0.5506
    -0.5456  -0.5360  -0.5127  -0.4869  -0.4834  -0.4692  -0.4659  -0.4599
    -0.4547  -0.4514  -0.4473  -0.4424  -0.4390  -0.4326  -0.4229  -0.4199
    -0.4139  -0.3883  -0.3857  -0.3840  -0.3676  -0.3655  -0.3452  -0.3204
    -0.3175  -0.3100  -0.3061  -0.2430  -0.2407  -0.2287  -0.2268  -0.1665
    -0.1650  -0.1604  -0.1409  -0.1376   0.0773   0.1062   0.4196   0.4202
     0.4943   0.5200   0.6472   0.6848   0.7263   0.8265   0.8335   1.2089
     1.2764   1.2784   1.5102   1.5122   1.5783   1.8742   1.8960   1.9046
     1.9082   1.9460   1.9631   2.0968   2.1033   2.2796   2.2803   2.3010
     2.4327   2.4532   2.4831   2.6977   3.0409   3.0607   3.0966   3.1018
     3.1051   3.1092   3.4330   3.4362   3.7673   3.7806   3.8490   4.1054
     4.2292   4.2337   4.4342   4.4490   4.5173   4.5230   4.6011   4.7624
     4.7694   4.8569   4.8587   5.1426   5.2025   5.2148   5.4031   5.4259
     5.5422   5.5476   5.5543   5.5595   5.6896   5.7021   5.7675   5.9308
     6.2749   6.3621   6.3773   6.3827   6.3905   6.4486   6.4780   6.5895
     6.5946   6.7357   6.7445   6.8354   6.9473   6.9648   7.1665   7.2468
     7.2704   7.2951   7.3140

          k = 0.2500 0.1443-0.1111 (136898 PWs)   bands (ev):

   -18.9878  -6.8380  -6.6717  -5.8777  -5.5991  -5.5246  -5.5213  -4.9695
    -4.9647  -4.8682  -4.8170  -4.6813  -4.6062  -4.5806  -4.5644  -4.5170
    -4.4481  -4.4446  -4.3080  -4.2757  -4.2654  -4.2647  -4.2457  -4.2426
    -4.1259  -4.1220  -4.0630  -4.0415  -4.0308  -4.0291  -4.0129  -4.0097
    -3.9707  -3.9147  -3.8886  -3.8858  -3.8745  -3.8656  -3.8587  -3.8545
    -3.8517  -3.8160  -3.8008  -3.7944  -3.7881  -3.7830  -3.7802  -3.7721
    -3.7502  -3.7411  -3.7324  -3.7198  -3.7026  -3.6893  -3.6833  -3.6392
    -3.6244  -3.6171  -3.5645  -3.5604  -3.5432  -3.5319  -3.5182  -3.4521
    -3.4515  -3.4418  -3.4342  -3.4300  -3.4096  -3.4064  -3.3928  -3.2500
    -3.2479  -3.2417  -3.2381  -3.2249  -3.1930  -3.1877  -3.1872  -3.1791
    -3.1298  -3.1279  -3.1106  -3.1092  -3.0705  -3.0571  -3.0481  -3.0299
    -3.0191  -3.0137  -2.9762  -2.9744  -2.9540  -2.9531  -2.9463  -2.9400
    -2.9250  -2.9216  -2.8856  -2.8777  -2.8732  -2.8670  -2.8518  -2.8160
    -2.8125  -2.7837  -2.7755  -2.7671  -2.7066  -2.6985  -2.6692  -2.6684
    -2.6647  -2.6478  -2.6262  -2.6061  -2.6030  -2.5919  -2.5848  -2.5794
    -2.5773  -2.5707  -2.5610  -2.5583  -2.5494  -2.5485  -2.5401  -2.5369
    -2.4837  -2.4607  -2.4439  -2.4414  -2.4386  -2.4249  -2.4234  -2.4209
    -2.4164  -2.4089  -2.3775  -2.3742  -2.3649  -2.3560  -2.3512  -2.3489
    -2.3476  -2.3257  -2.3215  -2.3115  -2.3007  -2.2974  -2.2447  -2.2326
    -2.2283  -2.2210  -2.2196  -2.2108  -2.2029  -2.1839  -2.1701  -2.1657
    -2.1642  -2.1609  -2.1576  -2.1473  -2.1444  -2.1261  -2.1203  -2.1111
    -2.0710  -2.0656  -2.0631  -2.0605  -2.0547  -2.0507  -2.0417  -2.0396
    -2.0337  -2.0316  -2.0203  -2.0196  -2.0173  -1.9235  -1.9112  -1.9018
    -1.8767  -1.8724  -1.8531  -1.8488  -1.8444  -1.8383  -1.8338  -1.8196
    -1.8145  -1.8123  -1.8107  -1.7911  -1.7744  -1.7711  -1.7690  -1.7464
    -1.7390  -1.7377  -1.7366  -1.7329  -1.7281  -1.6680  -1.6667  -1.6373
    -1.6355  -1.6294  -1.6259  -1.6113  -1.6050  -1.5964  -1.5956  -1.5923
    -1.5918  -1.5801  -1.5784  -1.5657  -1.5254  -1.5159  -1.5007  -1.4922
    -1.4792  -1.4432  -1.4394  -1.4118  -1.4067  -1.3972  -1.3961  -1.3878
    -1.3834  -1.3632  -1.3521  -1.3476  -1.3178  -1.3157  -1.3029  -1.2921
    -1.2711  -1.2673  -1.2497  -1.2089  -1.2038  -1.1969  -1.1957  -1.1844
    -1.1747  -1.1597  -1.1576  -1.1282  -1.1132  -1.1018  -1.0913  -1.0903
    -1.0677  -1.0457  -1.0418  -1.0378  -1.0337  -1.0316  -1.0235  -1.0230
    -0.9988  -0.9920  -0.9905  -0.9767  -0.9705  -0.9668  -0.9603  -0.9548
    -0.9343  -0.9199  -0.9017  -0.8887  -0.8455  -0.8175  -0.8106  -0.8044
    -0.8020  -0.7952  -0.7916  -0.7745  -0.7706  -0.7538  -0.7452  -0.7398
    -0.7376  -0.7295  -0.7105  -0.7053  -0.6998  -0.6853  -0.6442  -0.6013
    -0.5951  -0.5749  -0.5652  -0.5608  -0.5585  -0.5555  -0.5527  -0.5506
    -0.5456  -0.5360  -0.5127  -0.4869  -0.4834  -0.4692  -0.4659  -0.4599
    -0.4547  -0.4514  -0.4473  -0.4424  -0.4390  -0.4326  -0.4229  -0.4199
    -0.4139  -0.3883  -0.3857  -0.3840  -0.3676  -0.3655  -0.3452  -0.3204
    -0.3175  -0.3100  -0.3061  -0.2430  -0.2407  -0.2287  -0.2268  -0.1665
    -0.1650  -0.1604  -0.1409  -0.1376   0.0773   0.1062   0.4196   0.4202
     0.4943   0.5200   0.6472   0.6848   0.7263   0.8265   0.8335   1.2089
     1.2764   1.2784   1.5102   1.5122   1.5783   1.8742   1.8960   1.9046
     1.9082   1.9460   1.9631   2.0968   2.1033   2.2796   2.2803   2.3010
     2.4327   2.4532   2.4831   2.6977   3.0409   3.0607   3.0966   3.1018
     3.1051   3.1092   3.4330   3.4362   3.7673   3.7806   3.8490   4.1054
     4.2292   4.2337   4.4342   4.4490   4.5173   4.5230   4.6011   4.7624
     4.7694   4.8569   4.8587   5.1426   5.2025   5.2148   5.4031   5.4259
     5.5422   5.5476   5.5543   5.5595   5.6896   5.7021   5.7675   5.9308
     6.2749   6.3620   6.3773   6.3827   6.3905   6.4489   6.4785   6.5896
     6.5946   6.7354   6.7440   6.8345   6.9473   6.9648   7.1583   7.2471
     7.2706   7.2955   7.3146

          k = 0.0000-0.2887 0.1111 (136898 PWs)   bands (ev):

   -18.9878  -6.8383  -6.6715  -5.8771  -5.5993  -5.5251  -5.5212  -4.9701
    -4.9644  -4.8651  -4.8165  -4.6826  -4.6077  -4.5830  -4.5641  -4.5163
    -4.4490  -4.4448  -4.3075  -4.2753  -4.2660  -4.2643  -4.2453  -4.2427
    -4.1263  -4.1220  -4.0586  -4.0422  -4.0302  -4.0297  -4.0143  -4.0095
    -3.9646  -3.9149  -3.8889  -3.8831  -3.8765  -3.8655  -3.8623  -3.8547
    -3.8504  -3.8238  -3.8013  -3.7939  -3.7879  -3.7831  -3.7804  -3.7664
    -3.7543  -3.7411  -3.7366  -3.7199  -3.7003  -3.6891  -3.6805  -3.6422
    -3.6244  -3.6189  -3.5647  -3.5604  -3.5431  -3.5310  -3.5149  -3.4521
    -3.4513  -3.4415  -3.4351  -3.4299  -3.4094  -3.4061  -3.3938  -3.2500
    -3.2466  -3.2442  -3.2377  -3.2243  -3.1926  -3.1887  -3.1876  -3.1794
    -3.1299  -3.1261  -3.1103  -3.1101  -3.0690  -3.0582  -3.0508  -3.0274
    -3.0187  -3.0156  -2.9764  -2.9735  -2.9540  -2.9525  -2.9465  -2.9393
    -2.9244  -2.9226  -2.8872  -2.8790  -2.8730  -2.8661  -2.8519  -2.8137
    -2.8126  -2.7838  -2.7753  -2.7672  -2.7116  -2.6986  -2.6700  -2.6688
    -2.6618  -2.6476  -2.6262  -2.6070  -2.6037  -2.5887  -2.5873  -2.5797
    -2.5761  -2.5675  -2.5621  -2.5582  -2.5491  -2.5490  -2.5401  -2.5360
    -2.4837  -2.4594  -2.4456  -2.4424  -2.4384  -2.4250  -2.4239  -2.4205
    -2.4157  -2.4082  -2.3780  -2.3742  -2.3659  -2.3564  -2.3521  -2.3496
    -2.3475  -2.3254  -2.3208  -2.3083  -2.3010  -2.2983  -2.2432  -2.2360
    -2.2252  -2.2234  -2.2205  -2.2139  -2.2032  -2.1837  -2.1670  -2.1654
    -2.1638  -2.1604  -2.1553  -2.1497  -2.1436  -2.1260  -2.1169  -2.1113
    -2.0701  -2.0638  -2.0625  -2.0606  -2.0572  -2.0519  -2.0412  -2.0391
    -2.0352  -2.0314  -2.0207  -2.0177  -2.0173  -1.9273  -1.9098  -1.8898
    -1.8813  -1.8720  -1.8544  -1.8481  -1.8421  -1.8382  -1.8345  -1.8248
    -1.8150  -1.8117  -1.8109  -1.7908  -1.7727  -1.7714  -1.7692  -1.7505
    -1.7399  -1.7385  -1.7360  -1.7278  -1.7275  -1.6670  -1.6661  -1.6379
    -1.6344  -1.6302  -1.6264  -1.6135  -1.6078  -1.5965  -1.5954  -1.5923
    -1.5919  -1.5783  -1.5774  -1.5620  -1.5298  -1.5159  -1.4977  -1.4949
    -1.4763  -1.4456  -1.4378  -1.4163  -1.4043  -1.3970  -1.3960  -1.3875
    -1.3748  -1.3635  -1.3570  -1.3490  -1.3175  -1.3164  -1.3056  -1.2909
    -1.2747  -1.2656  -1.2490  -1.2112  -1.2079  -1.1951  -1.1917  -1.1816
    -1.1768  -1.1572  -1.1570  -1.1275  -1.1145  -1.0951  -1.0935  -1.0913
    -1.0582  -1.0559  -1.0442  -1.0374  -1.0339  -1.0299  -1.0241  -1.0227
    -1.0004  -0.9951  -0.9912  -0.9853  -0.9700  -0.9672  -0.9574  -0.9534
    -0.9371  -0.9216  -0.9013  -0.8891  -0.8327  -0.8256  -0.8062  -0.8051
    -0.7990  -0.7984  -0.7895  -0.7726  -0.7693  -0.7559  -0.7478  -0.7399
    -0.7335  -0.7274  -0.7112  -0.7010  -0.7003  -0.6866  -0.6485  -0.6044
    -0.5988  -0.5712  -0.5702  -0.5629  -0.5619  -0.5554  -0.5529  -0.5517
    -0.5421  -0.5218  -0.5191  -0.4941  -0.4834  -0.4718  -0.4638  -0.4597
    -0.4554  -0.4469  -0.4443  -0.4431  -0.4364  -0.4353  -0.4219  -0.4197
    -0.4151  -0.3887  -0.3854  -0.3815  -0.3676  -0.3664  -0.3447  -0.3197
    -0.3179  -0.3092  -0.3075  -0.2414  -0.2412  -0.2288  -0.2274  -0.1663
    -0.1644  -0.1608  -0.1420  -0.1408   0.0864   0.1027   0.4190   0.4202
     0.5018   0.5147   0.6435   0.6790   0.7255   0.8288   0.8297   1.2048
     1.2769   1.2796   1.5106   1.5140   1.5784   1.8829   1.8905   1.9059
     1.9113   1.9511   1.9549   2.0987   2.1057   2.2777   2.2811   2.3013
     2.4395   2.4426   2.4824   2.6994   3.0497   3.0592   3.0990   3.1003
     3.1040   3.1071   3.4341   3.4364   3.7736   3.7754   3.8515   4.1039
     4.2294   4.2341   4.4271   4.4498   4.5190   4.5199   4.6036   4.7625
     4.7645   4.8551   4.8585   5.1430   5.2025   5.2107   5.4031   5.4210
     5.5360   5.5508   5.5571   5.5577   5.6943   5.6981   5.7765   5.9291
     6.2771   6.3657   6.3784   6.3858   6.3870   6.4647   6.4724   6.5704
     6.5987   6.7005   6.7647   6.8362   6.9563   6.9645   7.1695   7.2555
     7.2665   7.2802   7.3191

          k = 0.0000 0.2887 0.1111 (136898 PWs)   bands (ev):

   -18.9878  -6.8383  -6.6715  -5.8771  -5.5993  -5.5251  -5.5212  -4.9701
    -4.9644  -4.8651  -4.8165  -4.6826  -4.6077  -4.5830  -4.5641  -4.5163
    -4.4490  -4.4448  -4.3075  -4.2753  -4.2660  -4.2643  -4.2453  -4.2427
    -4.1263  -4.1220  -4.0586  -4.0422  -4.0302  -4.0297  -4.0143  -4.0095
    -3.9646  -3.9149  -3.8889  -3.8831  -3.8765  -3.8655  -3.8623  -3.8547
    -3.8504  -3.8238  -3.8013  -3.7939  -3.7879  -3.7831  -3.7804  -3.7664
    -3.7543  -3.7411  -3.7366  -3.7199  -3.7003  -3.6891  -3.6805  -3.6422
    -3.6244  -3.6189  -3.5647  -3.5604  -3.5431  -3.5310  -3.5149  -3.4521
    -3.4513  -3.4415  -3.4351  -3.4299  -3.4094  -3.4061  -3.3938  -3.2500
    -3.2466  -3.2442  -3.2377  -3.2243  -3.1926  -3.1888  -3.1876  -3.1794
    -3.1299  -3.1261  -3.1103  -3.1101  -3.0690  -3.0582  -3.0508  -3.0274
    -3.0187  -3.0156  -2.9764  -2.9735  -2.9540  -2.9525  -2.9465  -2.9393
    -2.9244  -2.9226  -2.8872  -2.8790  -2.8730  -2.8661  -2.8519  -2.8137
    -2.8126  -2.7838  -2.7753  -2.7672  -2.7116  -2.6986  -2.6700  -2.6688
    -2.6618  -2.6476  -2.6262  -2.6070  -2.6037  -2.5887  -2.5872  -2.5797
    -2.5761  -2.5675  -2.5621  -2.5582  -2.5491  -2.5490  -2.5401  -2.5360
    -2.4837  -2.4594  -2.4456  -2.4424  -2.4384  -2.4250  -2.4239  -2.4205
    -2.4157  -2.4082  -2.3780  -2.3742  -2.3659  -2.3564  -2.3521  -2.3496
    -2.3475  -2.3254  -2.3208  -2.3083  -2.3010  -2.2983  -2.2432  -2.2361
    -2.2252  -2.2234  -2.2206  -2.2139  -2.2032  -2.1837  -2.1670  -2.1654
    -2.1638  -2.1604  -2.1553  -2.1497  -2.1436  -2.1260  -2.1169  -2.1113
    -2.0701  -2.0638  -2.0625  -2.0606  -2.0572  -2.0519  -2.0412  -2.0391
    -2.0352  -2.0314  -2.0207  -2.0177  -2.0173  -1.9273  -1.9098  -1.8898
    -1.8813  -1.8720  -1.8544  -1.8481  -1.8421  -1.8382  -1.8345  -1.8248
    -1.8150  -1.8117  -1.8109  -1.7908  -1.7727  -1.7714  -1.7692  -1.7505
    -1.7399  -1.7385  -1.7360  -1.7278  -1.7275  -1.6670  -1.6661  -1.6379
    -1.6344  -1.6302  -1.6264  -1.6135  -1.6078  -1.5965  -1.5954  -1.5923
    -1.5919  -1.5783  -1.5774  -1.5620  -1.5298  -1.5159  -1.4977  -1.4949
    -1.4763  -1.4456  -1.4378  -1.4163  -1.4043  -1.3970  -1.3960  -1.3875
    -1.3748  -1.3635  -1.3570  -1.3490  -1.3175  -1.3164  -1.3056  -1.2909
    -1.2747  -1.2656  -1.2490  -1.2112  -1.2079  -1.1951  -1.1917  -1.1816
    -1.1768  -1.1572  -1.1570  -1.1275  -1.1145  -1.0951  -1.0935  -1.0913
    -1.0582  -1.0559  -1.0442  -1.0374  -1.0339  -1.0299  -1.0241  -1.0227
    -1.0004  -0.9951  -0.9913  -0.9853  -0.9700  -0.9672  -0.9574  -0.9534
    -0.9371  -0.9216  -0.9013  -0.8891  -0.8327  -0.8256  -0.8062  -0.8051
    -0.7990  -0.7984  -0.7895  -0.7726  -0.7694  -0.7559  -0.7478  -0.7399
    -0.7335  -0.7274  -0.7112  -0.7010  -0.7003  -0.6866  -0.6485  -0.6044
    -0.5988  -0.5712  -0.5702  -0.5629  -0.5619  -0.5554  -0.5529  -0.5517
    -0.5421  -0.5218  -0.5191  -0.4941  -0.4834  -0.4718  -0.4638  -0.4597
    -0.4554  -0.4469  -0.4443  -0.4431  -0.4364  -0.4353  -0.4219  -0.4197
    -0.4151  -0.3887  -0.3854  -0.3815  -0.3676  -0.3664  -0.3447  -0.3197
    -0.3180  -0.3092  -0.3075  -0.2414  -0.2412  -0.2288  -0.2274  -0.1663
    -0.1644  -0.1608  -0.1420  -0.1408   0.0864   0.1027   0.4190   0.4202
     0.5018   0.5147   0.6435   0.6790   0.7255   0.8288   0.8297   1.2048
     1.2769   1.2796   1.5106   1.5140   1.5784   1.8829   1.8905   1.9059
     1.9113   1.9511   1.9549   2.0987   2.1057   2.2777   2.2811   2.3013
     2.4395   2.4426   2.4824   2.6994   3.0497   3.0592   3.0990   3.1003
     3.1040   3.1071   3.4341   3.4364   3.7736   3.7754   3.8515   4.1039
     4.2294   4.2341   4.4271   4.4498   4.5190   4.5199   4.6036   4.7625
     4.7645   4.8551   4.8585   5.1430   5.2025   5.2107   5.4030   5.4210
     5.5360   5.5508   5.5571   5.5577   5.6943   5.6981   5.7765   5.9291
     6.2771   6.3658   6.3784   6.3859   6.3870   6.4656   6.4717   6.5704
     6.5987   6.7001   6.7643   6.8358   6.9562   6.9645   7.1615   7.2552
     7.2665   7.2806   7.3198

     the Fermi energy is     1.4062 ev

!    total energy              =   -6564.17436805 Ry
     Harris-Foulkes estimate   =   -6564.17436806 Ry
     estimated scf accuracy    <          6.7E-09 Ry

     The total energy is the sum of the following terms:

     one-electron contribution =  -48860.72497341 Ry
     hartree contribution      =   24927.09377762 Ry
     xc contribution           =   -3162.37235158 Ry
     ewald contribution        =   20531.82709350 Ry
     smearing contrib. (-TS)   =       0.00208581 Ry

     convergence has been achieved in  24 iterations

     Writing output data file 4972158.save

     init_run     :    148.25s CPU    161.54s WALL (       1 calls)
     electrons    :   8867.74s CPU   9633.21s WALL (       1 calls)

     Called by init_run:
     wfcinit      :    118.28s CPU    130.93s WALL (       1 calls)
     potinit      :      6.29s CPU      6.54s WALL (       1 calls)

     Called by electrons:
     c_bands      :   7403.22s CPU   8071.94s WALL (      25 calls)
     sum_band     :   1142.82s CPU   1227.59s WALL (      25 calls)
     v_of_rho     :     17.18s CPU     22.65s WALL (      25 calls)
     newd         :    310.96s CPU    315.84s WALL (      25 calls)
     mix_rho      :      2.98s CPU      3.84s WALL (      25 calls)

     Called by c_bands:
     init_us_2    :     11.87s CPU     12.34s WALL (     612 calls)
     cegterg      :   7323.81s CPU   7986.04s WALL (     300 calls)

     Called by *egterg:
     h_psi        :   3291.60s CPU   3671.66s WALL (    1535 calls)
     s_psi        :    434.17s CPU    449.18s WALL (    1535 calls)
     g_psi        :      6.11s CPU      6.23s WALL (    1223 calls)
     cdiaghg      :   2163.62s CPU   2171.53s WALL (    1511 calls)

     Called by h_psi:
     add_vuspsi   :    437.51s CPU    465.85s WALL (    1535 calls)

     General routines
     calbec       :    663.16s CPU    665.91s WALL (    1835 calls)
     fft          :    157.83s CPU    164.75s WALL (     400 calls)
     ffts         :      1.64s CPU      1.82s WALL (      50 calls)
     fftw         :   2747.78s CPU   3140.95s WALL (  729702 calls)
     interpolate  :      4.39s CPU      6.12s WALL (      50 calls)
     davcio       :      0.00s CPU      0.23s WALL (      12 calls)

     Parallel routines
     fft_scatter  :   2072.05s CPU   2399.91s WALL (  730152 calls)

     PWSCF        :     2h30m CPU        2h43m WALL


   This run was terminated on:   3:36:34   9Aug2015            

=------------------------------------------------------------------------------=
   JOB DONE.
=------------------------------------------------------------------------------=
