Setting SGE environment for SCC

     Program PWSCF v.5.1.2 starts on  1Jul2015 at 10:50:56 

     This program is part of the open-source Quantum ESPRESSO suite
     for quantum simulation of materials; please cite
         "P. Giannozzi et al., J. Phys.:Condens. Matter 21 395502 (2009);
          URL http://www.quantum-espresso.org", 
     in publications or presentations arising from this work. More details at
     http://www.quantum-espresso.org/quote

     Parallel version (MPI), running on    32 processors
     R & G space division:  proc/nbgrp/npool/nimage =      32
     Reading input from bridge.O1.Au6165.d.2.7.phi.45.psi.0.in
Warning: card &IONS ignored
Warning: card / ignored
Warning: card &CELL ignored
Warning: card / ignored

     Current dimensions of program PWSCF are:
     Max number of different atomic species (ntypx) = 10
     Max number of k-points (npk) =  40000
     Max angular momentum in pseudopotentials (lmaxx) =  3

     IMPORTANT: XC functional enforced from input :
     Exchange-correlation      = VDW-DF ( 1  4  4  0 1 0)
     Any further DFT definition will be discarded
     Please, verify this is what you really want


     Subspace diagonalization in iterative solution of the eigenvalue problem:
     a serial algorithm will be used


     Parallelization info
     --------------------
     sticks:   dense  smooth     PW     G-vecs:    dense   smooth      PW
     Min         578     289     74               118518    41891    5486
     Max         579     290     75               118533    41932    5497
     Sum       18505    9265   2385              3792731  1341081  175711


     Title: 
     bridge.O1.Au6165.d.2.7.phi.45.psi.0                                        


     bravais-lattice index     =            8
     lattice parameter (alat)  =      24.1233  a.u.
     unit-cell volume          =   28076.2361 (a.u.)^3
     number of atoms/cell      =           75
     number of atomic types    =            3
     number of electrons       =       800.00
     number of Kohn-Sham states=          480
     kinetic-energy cutoff     =      50.0000  Ry
     charge density cutoff     =     400.0000  Ry
     convergence threshold     =      1.0E-08
     mixing beta               =       0.7000
     number of iterations used =            8  plain     mixing
     Exchange-correlation      = VDW-DF ( 1  4  4  0 1 0)

     celldm(1)=  24.123277  celldm(2)=   1.000000  celldm(3)=   2.000000
     celldm(4)=   0.000000  celldm(5)=   0.000000  celldm(6)=   0.000000

     crystal axes: (cart. coord. in units of alat)
               a(1) = (   1.000000   0.000000   0.000000 )  
               a(2) = (   0.000000   1.000000   0.000000 )  
               a(3) = (   0.000000   0.000000   2.000000 )  

     reciprocal axes: (cart. coord. in units 2 pi/alat)
               b(1) = (  1.000000  0.000000  0.000000 )  
               b(2) = (  0.000000  1.000000  0.000000 )  
               b(3) = (  0.000000  0.000000  0.500000 )  


     PseudoPot. # 1 for Au read from file:
     /home/scc/andrejb/qe/pseudo/Au.pbe-nd-van.UPF
     MD5 check sum: 458681b50f36d87ef23c61b04bba420a
     Pseudo is Ultrasoft + core correction, Zval = 11.0
     Generated by new atomic code, or converted to UPF format
     Using radial grid of  985 points,  3 beta functions with: 
                l(1) =   1
                l(2) =   2
                l(3) =   2
     Q(r) pseudized with  8 coefficients,  rinner =    1.100   1.100   1.100
                                                       1.100   1.100

     PseudoPot. # 2 for H  read from file:
     /home/scc/andrejb/qe/pseudo/H.pbe-van_ak.UPF
     MD5 check sum: 403db7282739603aa925980fa9b8608d
     Pseudo is Ultrasoft, Zval =  1.0
     Generated by new atomic code, or converted to UPF format
     Using radial grid of  615 points,  1 beta functions with: 
                l(1) =   0
     Q(r) pseudized with  8 coefficients,  rinner =    0.800

     PseudoPot. # 3 for O  read from file:
     /home/scc/andrejb/qe/pseudo/O.pbe-van_ak.UPF
     MD5 check sum: 4b8c549914a63cae506c6ff22b5af4fe
     Pseudo is Ultrasoft, Zval =  6.0
     Generated by new atomic code, or converted to UPF format
     Using radial grid of  737 points,  4 beta functions with: 
                l(1) =   0
                l(2) =   0
                l(3) =   1
                l(4) =   1
     Q(r) pseudized with  8 coefficients,  rinner =    0.800   0.800   0.800


     vdW kernel table read from file vdW_kernel_table
     MD5 check sum: 48e77a2e26edf626eeb0eaa751ad5cac

     atomic species   valence    mass     pseudopotential
        Au            11.00   196.96657     Au( 1.00)
        H              1.00     1.01000     H ( 1.00)
        O              6.00    16.00000     O ( 1.00)

     No symmetry found



   Cartesian axes

     site n.     atom                  positions (alat units)
         1           O   tau(   1) = (   0.2499161   0.4165269   0.9066668  )
         2           H   tau(   2) = (   0.2443256   0.3555396   0.9521607  )
         3           H   tau(   3) = (   0.2553244   0.4756778   0.9545244  )
         4           Au  tau(   4) = (   0.0000000   0.0000000   0.0000000  )
         5           Au  tau(   5) = (   0.3332217   0.0000000   0.0000000  )
         6           Au  tau(   6) = (   0.6664434   0.0000000   0.0000000  )
         7           Au  tau(   7) = (   0.1666109   0.1666109   0.0000000  )
         8           Au  tau(   8) = (   0.4998326   0.1666109   0.0000000  )
         9           Au  tau(   9) = (   0.8330542   0.1666109   0.0000000  )
        10           Au  tau(  10) = (   0.0000000   0.3332217   0.0000000  )
        11           Au  tau(  11) = (   0.3332217   0.3332217   0.0000000  )
        12           Au  tau(  12) = (   0.6664434   0.3332217   0.0000000  )
        13           Au  tau(  13) = (   0.1666109   0.4998326   0.0000000  )
        14           Au  tau(  14) = (   0.4998326   0.4998326   0.0000000  )
        15           Au  tau(  15) = (   0.8330542   0.4998326   0.0000000  )
        16           Au  tau(  16) = (   0.0000000   0.6664434   0.0000000  )
        17           Au  tau(  17) = (   0.3332217   0.6664434   0.0000000  )
        18           Au  tau(  18) = (   0.6664434   0.6664434   0.0000000  )
        19           Au  tau(  19) = (   0.1666109   0.8330542   0.0000000  )
        20           Au  tau(  20) = (   0.4998326   0.8330542   0.0000000  )
        21           Au  tau(  21) = (   0.8330542   0.8330542   0.0000000  )
        22           Au  tau(  22) = (   0.1666109   0.0000000   0.1666109  )
        23           Au  tau(  23) = (   0.4998326   0.0000000   0.1666109  )
        24           Au  tau(  24) = (   0.8330542   0.0000000   0.1666109  )
        25           Au  tau(  25) = (   0.0000000   0.1666109   0.1666109  )
        26           Au  tau(  26) = (   0.3332217   0.1666109   0.1666109  )
        27           Au  tau(  27) = (   0.6664434   0.1666109   0.1666109  )
        28           Au  tau(  28) = (   0.1666109   0.3332217   0.1666109  )
        29           Au  tau(  29) = (   0.4998326   0.3332217   0.1666109  )
        30           Au  tau(  30) = (   0.8330542   0.3332217   0.1666109  )
        31           Au  tau(  31) = (   0.0000000   0.4998326   0.1666109  )
        32           Au  tau(  32) = (   0.3332217   0.4998326   0.1666109  )
        33           Au  tau(  33) = (   0.6664434   0.4998326   0.1666109  )
        34           Au  tau(  34) = (   0.1666109   0.6664434   0.1666109  )
        35           Au  tau(  35) = (   0.4998326   0.6664434   0.1666109  )
        36           Au  tau(  36) = (   0.8330542   0.6664434   0.1666109  )
        37           Au  tau(  37) = (   0.0000000   0.8330542   0.1666109  )
        38           Au  tau(  38) = (   0.3332217   0.8330542   0.1666109  )
        39           Au  tau(  39) = (   0.6664434   0.8330542   0.1666109  )
        40           Au  tau(  40) = (  -0.0000182  -0.0000182   0.3335478  )
        41           Au  tau(  41) = (   0.3332215  -0.0000181   0.3335473  )
        42           Au  tau(  42) = (   0.6664447  -0.0000183   0.3335481  )
        43           Au  tau(  43) = (  -0.0000181   0.3332215   0.3335473  )
        44           Au  tau(  44) = (   0.3332215   0.3332215   0.3335468  )
        45           Au  tau(  45) = (   0.6664445   0.3332215   0.3335477  )
        46           Au  tau(  46) = (  -0.0000183   0.6664447   0.3335481  )
        47           Au  tau(  47) = (   0.3332215   0.6664445   0.3335477  )
        48           Au  tau(  48) = (   0.6664446   0.6664446   0.3335486  )
        49           Au  tau(  49) = (   0.1666097   0.1666097   0.3335483  )
        50           Au  tau(  50) = (   0.4998320   0.1666098   0.3335477  )
        51           Au  tau(  51) = (   0.8330732   0.1666096   0.3335480  )
        52           Au  tau(  52) = (   0.1666098   0.4998320   0.3335477  )
        53           Au  tau(  53) = (   0.4998322   0.4998322   0.3335470  )
        54           Au  tau(  54) = (   0.8330731   0.4998322   0.3335474  )
        55           Au  tau(  55) = (   0.1666096   0.8330732   0.3335480  )
        56           Au  tau(  56) = (   0.4998322   0.8330731   0.3335474  )
        57           Au  tau(  57) = (   0.8330731   0.8330731   0.3335478  )
        58           Au  tau(  58) = (   0.1666104  -0.0000111   0.4993095  )
        59           Au  tau(  59) = (   0.4998323  -0.0000112   0.4993099  )
        60           Au  tau(  60) = (   0.8330660  -0.0000111   0.4993009  )
        61           Au  tau(  61) = (  -0.0000111   0.1666104   0.4993095  )
        62           Au  tau(  62) = (   0.3332213   0.1666106   0.4993185  )
        63           Au  tau(  63) = (   0.6664437   0.1666106   0.4993187  )
        64           Au  tau(  64) = (   0.1666106   0.3332213   0.4993185  )
        65           Au  tau(  65) = (   0.4998324   0.3332216   0.4993185  )
        66           Au  tau(  66) = (   0.8330658   0.3332215   0.4993102  )
        67           Au  tau(  67) = (  -0.0000112   0.4998323   0.4993099  )
        68           Au  tau(  68) = (   0.3332216   0.4998324   0.4993185  )
        69           Au  tau(  69) = (   0.6664437   0.4998325   0.4993187  )
        70           Au  tau(  70) = (   0.1666106   0.6664437   0.4993187  )
        71           Au  tau(  71) = (   0.4998325   0.6664437   0.4993187  )
        72           Au  tau(  72) = (   0.8330658   0.6664438   0.4993102  )
        73           Au  tau(  73) = (  -0.0000111   0.8330660   0.4993009  )
        74           Au  tau(  74) = (   0.3332215   0.8330658   0.4993102  )
        75           Au  tau(  75) = (   0.6664438   0.8330658   0.4993102  )

     number of k points=     6  Marzari-Vanderbilt smearing, width (Ry)=  0.0200
                       cart. coord. in units 2pi/alat
        k(    1) = (   0.2500000   0.2500000   0.0833333), wk =   0.3333333
        k(    2) = (   0.2500000   0.2500000  -0.2500000), wk =   0.3333333
        k(    3) = (  -0.2500000  -0.2500000   0.0833333), wk =   0.3333333
        k(    4) = (  -0.2500000   0.2500000  -0.0833333), wk =   0.3333333
        k(    5) = (   0.2500000  -0.2500000  -0.0833333), wk =   0.3333333
        k(    6) = (  -0.2500000   0.2500000   0.2500000), wk =   0.3333333

     Dense  grid:  3792731 G-vectors     FFT dimensions: ( 160, 160, 320)

     Smooth grid:  1341081 G-vectors     FFT dimensions: ( 120, 120, 225)

     Largest allocated arrays     est. size (Mb)     dimensions
        Kohn-Sham Wavefunctions        38.58 Mb     (    5267,  480)
        NL pseudopotentials            76.03 Mb     (    5267,  946)
        Each V/rho on FFT grid          3.91 Mb     (  256000)
        Each G-vector array             0.90 Mb     (  118520)
        G-vector shells                 0.08 Mb     (   10286)
     Largest temporary arrays     est. size (Mb)     dimensions
        Auxiliary wavefunctions       154.31 Mb     (    5267, 1920)
        Each subspace H/S matrix       56.25 Mb     (    1920, 1920)
        Each <psi_i|beta_j> matrix      6.93 Mb     (     946,  480)
        Arrays for rho mixing          31.25 Mb     (  256000,    8)

     Initial potential from superposition of free atoms
     Check: negative starting charge=   -1.944620

     starting charge  799.16392, renormalised to  800.00000

     negative rho (up, down):  1.947E+00 0.000E+00


     ************************************************************************
     *
     * You are using vdW-DF for exchange-correlation in this calculation.
     * Please cite the following three references that made this development
     * possible:
     *
     *   M. Dion, H. Rydberg, E. Schroder, D. C. Langreth, and
     *   B. I. Lundqvist, Phys. Rev. Lett. 92, 246401 (2004).
     *
     *   T. Thonhauser, V. R. Cooper, S. Li, A. Puzder, P. Hyldgaard, and
     *   D. C. Langreth, Phys. Rev. B 76, 125112 (2007).
     *
     *   G. Roman-Perez and J. M. Soler, Phys. Rev. Lett. 103, 096102 (2009).
     *
     *
     * If you are using vdW-DF2, please also cite:
     *
     *   K. Lee, E. D. Murray, L. Kong, B. I. Lundqvist, and
     *   D. C. Langreth, Phys. Rev. B 82, 081101(R) (2010).
     *
     *
     * If you are calculating the stress with vdW-DF, please also cite:
     *
     *   R. Sabatini, E. Kucukbenli, B. Kolb, T. Thonhauser, and
     *   S. de Gironcoli, J. Phys.: Condens. Matter 24, 424209 (2012).
     *
     ************************************************************************

     Carrying out vdW-DF run using the following parameters:

     Nqs =      20    Nr_points =    1024   r_max =   100.000
     q_mesh =
               0.00001000     0.04494208     0.09755937     0.15916263
               0.23128650     0.31572767     0.41458969     0.53033537
               0.66584808     0.82450364     1.01025438     1.22772762
               1.48234092     1.78043706     2.12944203     2.53805004
               3.01644009     3.57652955     4.23227104     5.00000000

     Gradients computed in reciprocal space

     ************************************************************************


     Starting wfc are  654 randomized atomic wfcs

     total cpu time spent up to now is      134.9 secs

     Self-consistent Calculation

     iteration #  1     ecut=    50.00 Ry     beta=0.70
     Davidson diagonalization with overlap
     ethr =  1.00E-02,  avg # of iterations =  3.0

     Threshold (ethr) on eigenvalues was too large:
     Diagonalizing with lowered threshold

     Davidson diagonalization with overlap
     ethr =  4.30E-04,  avg # of iterations =  2.7

     negative rho (up, down):  1.948E+00 0.000E+00

     total cpu time spent up to now is      652.7 secs

     total energy              =   -7422.99553733 Ry
     Harris-Foulkes estimate   =   -7426.08710340 Ry
     estimated scf accuracy    <       3.81279492 Ry

     iteration #  2     ecut=    50.00 Ry     beta=0.70
     Davidson diagonalization with overlap
     ethr =  4.77E-04,  avg # of iterations = 11.2

     negative rho (up, down):  1.941E+00 0.000E+00

     total cpu time spent up to now is     1586.5 secs

     total energy              =   -7414.73889074 Ry
     Harris-Foulkes estimate   =   -7432.74436352 Ry
     estimated scf accuracy    <      94.64814185 Ry

     iteration #  3     ecut=    50.00 Ry     beta=0.70
     Davidson diagonalization with overlap
     ethr =  4.77E-04,  avg # of iterations =  6.0

     negative rho (up, down):  1.952E+00 0.000E+00

     total cpu time spent up to now is     2140.0 secs

     total energy              =   -7424.08815845 Ry
     Harris-Foulkes estimate   =   -7425.88847634 Ry
     estimated scf accuracy    <       7.63439275 Ry

     iteration #  4     ecut=    50.00 Ry     beta=0.70
     Davidson diagonalization with overlap
     ethr =  4.77E-04,  avg # of iterations =  6.0

     negative rho (up, down):  1.958E+00 0.000E+00

     total cpu time spent up to now is     2429.4 secs

     total energy              =   -7425.09569089 Ry
     Harris-Foulkes estimate   =   -7425.48971351 Ry
     estimated scf accuracy    <       1.30160037 Ry

     iteration #  5     ecut=    50.00 Ry     beta=0.70
     Davidson diagonalization with overlap
     ethr =  1.63E-04,  avg # of iterations =  7.0

     negative rho (up, down):  1.962E+00 0.000E+00

     total cpu time spent up to now is     2777.0 secs

     total energy              =   -7424.95344486 Ry
     Harris-Foulkes estimate   =   -7425.64696604 Ry
     estimated scf accuracy    <       6.11583108 Ry

     iteration #  6     ecut=    50.00 Ry     beta=0.70
     Davidson diagonalization with overlap
     ethr =  1.63E-04,  avg # of iterations =  4.2

     negative rho (up, down):  1.968E+00 0.000E+00

     total cpu time spent up to now is     3067.2 secs

     total energy              =   -7425.28777649 Ry
     Harris-Foulkes estimate   =   -7425.32198092 Ry
     estimated scf accuracy    <       0.13721403 Ry

     iteration #  7     ecut=    50.00 Ry     beta=0.70
     Davidson diagonalization with overlap
     ethr =  1.72E-05,  avg # of iterations = 15.3

     negative rho (up, down):  1.970E+00 0.000E+00

     total cpu time spent up to now is     3802.5 secs

     total energy              =   -7425.28577748 Ry
     Harris-Foulkes estimate   =   -7425.30943305 Ry
     estimated scf accuracy    <       0.09758945 Ry

     iteration #  8     ecut=    50.00 Ry     beta=0.70
     Davidson diagonalization with overlap
     ethr =  1.22E-05,  avg # of iterations =  5.2

     negative rho (up, down):  1.971E+00 0.000E+00

     total cpu time spent up to now is     4075.8 secs

     total energy              =   -7425.28557178 Ry
     Harris-Foulkes estimate   =   -7425.30224454 Ry
     estimated scf accuracy    <       0.06954083 Ry

     iteration #  9     ecut=    50.00 Ry     beta=0.70
     Davidson diagonalization with overlap
     ethr =  8.69E-06,  avg # of iterations =  6.2

     negative rho (up, down):  1.972E+00 0.000E+00

     total cpu time spent up to now is     4398.7 secs

     total energy              =   -7425.28523595 Ry
     Harris-Foulkes estimate   =   -7425.29613391 Ry
     estimated scf accuracy    <       0.04479232 Ry

     iteration # 10     ecut=    50.00 Ry     beta=0.70
     Davidson diagonalization with overlap
     ethr =  5.60E-06,  avg # of iterations =  6.2

     negative rho (up, down):  1.973E+00 0.000E+00

     total cpu time spent up to now is     4697.2 secs

     total energy              =   -7425.28711589 Ry
     Harris-Foulkes estimate   =   -7425.29047940 Ry
     estimated scf accuracy    <       0.01098827 Ry

     iteration # 11     ecut=    50.00 Ry     beta=0.70
     Davidson diagonalization with overlap
     ethr =  1.37E-06,  avg # of iterations =  6.5

     negative rho (up, down):  1.974E+00 0.000E+00

     total cpu time spent up to now is     5001.1 secs

     total energy              =   -7425.28720611 Ry
     Harris-Foulkes estimate   =   -7425.28863505 Ry
     estimated scf accuracy    <       0.00562048 Ry

     iteration # 12     ecut=    50.00 Ry     beta=0.70
     Davidson diagonalization with overlap
     ethr =  7.03E-07,  avg # of iterations =  4.5

     negative rho (up, down):  1.975E+00 0.000E+00

     total cpu time spent up to now is     5291.6 secs

     total energy              =   -7425.28610184 Ry
     Harris-Foulkes estimate   =   -7425.28764164 Ry
     estimated scf accuracy    <       0.00209047 Ry

     iteration # 13     ecut=    50.00 Ry     beta=0.70
     Davidson diagonalization with overlap
     ethr =  2.61E-07,  avg # of iterations = 13.7

     negative rho (up, down):  1.975E+00 0.000E+00

     total cpu time spent up to now is     5816.6 secs

     total energy              =   -7425.28583592 Ry
     Harris-Foulkes estimate   =   -7425.28709316 Ry
     estimated scf accuracy    <       0.00544434 Ry

     iteration # 14     ecut=    50.00 Ry     beta=0.70
     Davidson diagonalization with overlap
     ethr =  2.61E-07,  avg # of iterations =  3.0

     negative rho (up, down):  1.975E+00 0.000E+00

     total cpu time spent up to now is     6094.0 secs

     total energy              =   -7425.28636957 Ry
     Harris-Foulkes estimate   =   -7425.28667927 Ry
     estimated scf accuracy    <       0.00130003 Ry

     iteration # 15     ecut=    50.00 Ry     beta=0.70
     Davidson diagonalization with overlap
     ethr =  1.63E-07,  avg # of iterations =  2.0

     negative rho (up, down):  1.975E+00 0.000E+00

     total cpu time spent up to now is     6294.7 secs

     total energy              =   -7425.28642924 Ry
     Harris-Foulkes estimate   =   -7425.28664654 Ry
     estimated scf accuracy    <       0.00098059 Ry

     iteration # 16     ecut=    50.00 Ry     beta=0.70
     Davidson diagonalization with overlap
     ethr =  1.23E-07,  avg # of iterations =  1.0

     negative rho (up, down):  1.974E+00 0.000E+00

     total cpu time spent up to now is     6529.8 secs

     total energy              =   -7425.28648863 Ry
     Harris-Foulkes estimate   =   -7425.28661093 Ry
     estimated scf accuracy    <       0.00094784 Ry

     iteration # 17     ecut=    50.00 Ry     beta=0.70
     Davidson diagonalization with overlap
     ethr =  1.18E-07,  avg # of iterations =  1.0

     negative rho (up, down):  1.974E+00 0.000E+00

     total cpu time spent up to now is     6769.2 secs

     total energy              =   -7425.28654661 Ry
     Harris-Foulkes estimate   =   -7425.28656769 Ry
     estimated scf accuracy    <       0.00007380 Ry

     iteration # 18     ecut=    50.00 Ry     beta=0.70
     Davidson diagonalization with overlap
     ethr =  9.22E-09,  avg # of iterations =  2.0

     negative rho (up, down):  1.974E+00 0.000E+00

     total cpu time spent up to now is     7017.7 secs

     total energy              =   -7425.28655162 Ry
     Harris-Foulkes estimate   =   -7425.28656437 Ry
     estimated scf accuracy    <       0.00004840 Ry

     iteration # 19     ecut=    50.00 Ry     beta=0.70
     Davidson diagonalization with overlap
     ethr =  6.05E-09,  avg # of iterations =  3.0

     negative rho (up, down):  1.974E+00 0.000E+00

     total cpu time spent up to now is     7238.9 secs

     total energy              =   -7425.28655189 Ry
     Harris-Foulkes estimate   =   -7425.28656692 Ry
     estimated scf accuracy    <       0.00008144 Ry

     iteration # 20     ecut=    50.00 Ry     beta=0.70
     Davidson diagonalization with overlap
     ethr =  6.05E-09,  avg # of iterations =  2.0

     negative rho (up, down):  1.974E+00 0.000E+00

     total cpu time spent up to now is     7529.7 secs

     total energy              =   -7425.28655878 Ry
     Harris-Foulkes estimate   =   -7425.28656020 Ry
     estimated scf accuracy    <       0.00000506 Ry

     iteration # 21     ecut=    50.00 Ry     beta=0.70
     Davidson diagonalization with overlap
     ethr =  6.32E-10,  avg # of iterations =  3.0

     negative rho (up, down):  1.974E+00 0.000E+00

     total cpu time spent up to now is     7810.7 secs

     total energy              =   -7425.28655945 Ry
     Harris-Foulkes estimate   =   -7425.28656044 Ry
     estimated scf accuracy    <       0.00000479 Ry

     iteration # 22     ecut=    50.00 Ry     beta=0.70
     Davidson diagonalization with overlap
     ethr =  5.99E-10,  avg # of iterations =  3.0

     negative rho (up, down):  1.974E+00 0.000E+00

     total cpu time spent up to now is     8136.4 secs

     total energy              =   -7425.28656020 Ry
     Harris-Foulkes estimate   =   -7425.28656025 Ry
     estimated scf accuracy    <       0.00000080 Ry

     iteration # 23     ecut=    50.00 Ry     beta=0.70
     Davidson diagonalization with overlap
     ethr =  1.00E-10,  avg # of iterations =  3.0

     negative rho (up, down):  1.974E+00 0.000E+00

     total cpu time spent up to now is     8396.7 secs

     total energy              =   -7425.28656032 Ry
     Harris-Foulkes estimate   =   -7425.28656035 Ry
     estimated scf accuracy    <       0.00000019 Ry

     iteration # 24     ecut=    50.00 Ry     beta=0.70
     Davidson diagonalization with overlap
     ethr =  2.40E-11,  avg # of iterations =  3.0

     negative rho (up, down):  1.974E+00 0.000E+00

     total cpu time spent up to now is     8671.1 secs

     total energy              =   -7425.28656036 Ry
     Harris-Foulkes estimate   =   -7425.28656040 Ry
     estimated scf accuracy    <       0.00000046 Ry

     iteration # 25     ecut=    50.00 Ry     beta=0.70
     Davidson diagonalization with overlap
     ethr =  2.40E-11,  avg # of iterations =  2.2

     negative rho (up, down):  1.974E+00 0.000E+00

     total cpu time spent up to now is     8918.6 secs

     total energy              =   -7425.28656043 Ry
     Harris-Foulkes estimate   =   -7425.28656041 Ry
     estimated scf accuracy    <       0.00000006 Ry

     iteration # 26     ecut=    50.00 Ry     beta=0.70
     Davidson diagonalization with overlap
     ethr =  7.79E-12,  avg # of iterations =  2.0

     negative rho (up, down):  1.974E+00 0.000E+00

     total cpu time spent up to now is     9196.8 secs

     total energy              =   -7425.28656043 Ry
     Harris-Foulkes estimate   =   -7425.28656048 Ry
     estimated scf accuracy    <       0.00000048 Ry

     iteration # 27     ecut=    50.00 Ry     beta=0.70
     Davidson diagonalization with overlap
     ethr =  7.79E-12,  avg # of iterations =  2.0

     negative rho (up, down):  1.974E+00 0.000E+00

     total cpu time spent up to now is     9432.8 secs

     total energy              =   -7425.28656047 Ry
     Harris-Foulkes estimate   =   -7425.28656047 Ry
     estimated scf accuracy    <       0.00000005 Ry

     iteration # 28     ecut=    50.00 Ry     beta=0.70
     Davidson diagonalization with overlap
     ethr =  6.53E-12,  avg # of iterations =  2.0

     negative rho (up, down):  1.974E+00 0.000E+00

     total cpu time spent up to now is     9664.0 secs

     total energy              =   -7425.28656048 Ry
     Harris-Foulkes estimate   =   -7425.28656048 Ry
     estimated scf accuracy    <       0.00000002 Ry

     iteration # 29     ecut=    50.00 Ry     beta=0.70
     Davidson diagonalization with overlap
     ethr =  2.19E-12,  avg # of iterations =  2.0

     negative rho (up, down):  1.974E+00 0.000E+00

     total cpu time spent up to now is     9896.5 secs

     End of self-consistent calculation

          k = 0.2500 0.2500 0.0833 (167653 PWs)   bands (ev):

   -19.3549  -7.1691  -6.7656  -6.2371  -6.2368  -5.8074  -5.3984  -5.3052
    -5.3049  -5.1091  -5.1091  -4.9914  -4.9909  -4.9127  -4.8897  -4.8167
    -4.7316  -4.7282  -4.6892  -4.6890  -4.5281  -4.5112  -4.5104  -4.5102
    -4.5036  -4.4475  -4.4475  -4.4357  -4.4354  -4.3986  -4.3860  -4.3856
    -4.3438  -4.3437  -4.3102  -4.3091  -4.2571  -4.2568  -4.2461  -4.2449
    -4.2399  -4.2266  -4.2265  -4.1849  -4.1671  -4.1670  -4.1602  -4.1601
    -4.1280  -4.0780  -4.0630  -4.0628  -4.0589  -4.0586  -4.0509  -4.0457
    -4.0451  -4.0450  -3.9800  -3.9795  -3.9301  -3.9298  -3.9176  -3.8915
    -3.8914  -3.8711  -3.8691  -3.8685  -3.8644  -3.8612  -3.8123  -3.8123
    -3.7992  -3.7990  -3.6939  -3.6936  -3.6877  -3.6873  -3.6502  -3.6398
    -3.6279  -3.5969  -3.5969  -3.5684  -3.5681  -3.5464  -3.5462  -3.5328
    -3.5324  -3.4778  -3.4777  -3.4584  -3.4445  -3.4320  -3.4308  -3.4306
    -3.4293  -3.4022  -3.4020  -3.3782  -3.3656  -3.3656  -3.3429  -3.3426
    -3.3102  -3.3099  -3.2915  -3.2642  -3.2641  -3.2268  -3.2266  -3.1912
    -3.1839  -3.1829  -3.1690  -3.1688  -3.1639  -3.1638  -3.1242  -3.1158
    -3.0742  -3.0742  -3.0664  -3.0568  -3.0561  -3.0547  -3.0303  -3.0303
    -3.0090  -3.0086  -3.0082  -2.9814  -2.9814  -2.9739  -2.9711  -2.9710
    -2.9354  -2.9302  -2.8954  -2.8951  -2.8943  -2.8914  -2.8912  -2.8123
    -2.8022  -2.7980  -2.7976  -2.7962  -2.7960  -2.7911  -2.7910  -2.7907
    -2.7903  -2.7811  -2.7733  -2.7562  -2.7535  -2.7530  -2.7527  -2.7381
    -2.7332  -2.6952  -2.6945  -2.6943  -2.6903  -2.6899  -2.6719  -2.6716
    -2.6627  -2.6627  -2.6605  -2.6009  -2.6009  -2.5955  -2.5954  -2.5904
    -2.5903  -2.5621  -2.5029  -2.5019  -2.5015  -2.5000  -2.4883  -2.4861
    -2.4812  -2.4702  -2.4700  -2.4333  -2.4328  -2.4242  -2.4237  -2.4233
    -2.4230  -2.3836  -2.3833  -2.3736  -2.3735  -2.3720  -2.3718  -2.3299
    -2.3138  -2.3084  -2.2550  -2.2548  -2.2362  -2.2348  -2.2295  -2.2294
    -2.1808  -2.1802  -2.1570  -2.1405  -2.1264  -2.1256  -2.1255  -2.1035
    -2.1034  -2.0938  -2.0772  -2.0353  -2.0350  -2.0227  -2.0225  -2.0218
    -2.0106  -2.0104  -1.9950  -1.9948  -1.9929  -1.9905  -1.9867  -1.9855
    -1.9848  -1.9729  -1.9726  -1.9550  -1.9548  -1.9526  -1.9466  -1.9435
    -1.9433  -1.9196  -1.9194  -1.9082  -1.9060  -1.9018  -1.9013  -1.8629
    -1.8292  -1.8288  -1.7935  -1.7762  -1.7760  -1.7653  -1.7649  -1.7417
    -1.7414  -1.7268  -1.7265  -1.7251  -1.7250  -1.7221  -1.7216  -1.6894
    -1.6893  -1.6891  -1.6430  -1.6427  -1.6030  -1.6027  -1.5557  -1.5556
    -1.5432  -1.5207  -1.5150  -1.5136  -1.4961  -1.4952  -1.4775  -1.4770
    -1.4724  -1.4722  -1.4706  -1.4701  -1.4698  -1.4671  -1.4471  -1.4470
    -1.4366  -1.4192  -1.3999  -1.3999  -1.3740  -1.3739  -1.3709  -1.3705
    -1.3675  -1.3647  -1.3540  -1.3427  -1.3425  -1.3278  -1.3272  -1.3147
    -1.3045  -1.2909  -1.2905  -1.2598  -1.2595  -1.2515  -1.2514  -1.2162
    -1.2157  -1.2076  -1.2073  -1.1988  -1.1986  -1.1771  -1.1769  -1.1649
    -1.1583  -1.1580  -1.1449  -1.1446  -1.1443  -1.1439  -1.1297  -1.1192
    -1.1185  -1.1113  -1.1112  -1.0991  -1.0945  -1.0942  -1.0876  -1.0486
    -1.0457  -1.0401  -1.0399  -1.0397  -1.0364  -0.9988  -0.9823  -0.9817
    -0.9814  -0.9813  -0.9768  -0.9766  -0.9717  -0.9582  -0.9572  -0.9200
    -0.9196  -0.9127  -0.9126  -0.8897  -0.8896  -0.8798  -0.8500  -0.8423
    -0.8150  -0.8147  -0.7868  -0.7867  -0.7837  -0.7829  -0.7821  -0.7785
    -0.7748  -0.7727  -0.7681  -0.7679  -0.7360  -0.7357  -0.7179  -0.7173
    -0.7123  -0.7120  -0.7107  -0.7104  -0.6917  -0.4135  -0.4074  -0.3504
    -0.3489  -0.3103  -0.1494  -0.0845  -0.0841  -0.0533   0.2347   0.2350
     0.5642   0.5657   0.6638   0.6639   0.7048   0.7056   0.8481   0.8489
     0.9728   0.9740   1.0602   1.6599   1.6780   1.6786   1.7189   1.7220
     1.7658   1.7688   1.8478   1.8485   2.0555   2.0558   2.2893   2.3699
     2.3715   2.3865   2.7659   2.7684   2.8405   2.8427   2.8482   2.8487
     3.0000   3.0006   3.0465   3.1430   3.1446   3.3715   3.3819   3.5103
     3.5373   3.5379   3.8084   3.8095   3.9217   3.9408   3.9409   4.0077
     4.0102   4.1276   4.1285   4.3641   4.3659   4.4528   4.4533   4.5771
     4.5822   4.5996   4.6022   4.6105   4.7678   5.3874   5.3925   5.4351
     5.5076   5.5103   5.6090   5.6890   5.6900   5.7060   5.7290   5.8034
     5.8036   5.8581   5.8586   5.8814   5.9026   5.9903   6.1201   6.1503
     6.1565   6.1699   6.1844   6.1987   6.1999   6.2102   6.2111   6.2377

          k = 0.2500 0.2500-0.2500 (167588 PWs)   bands (ev):

   -19.3549  -7.1691  -6.7656  -6.2371  -6.2368  -5.8074  -5.3984  -5.3052
    -5.3049  -5.1091  -5.1091  -4.9914  -4.9909  -4.9127  -4.8897  -4.8167
    -4.7316  -4.7282  -4.6891  -4.6890  -4.5281  -4.5112  -4.5104  -4.5102
    -4.5036  -4.4475  -4.4475  -4.4357  -4.4354  -4.3986  -4.3860  -4.3856
    -4.3438  -4.3437  -4.3103  -4.3091  -4.2571  -4.2568  -4.2461  -4.2449
    -4.2399  -4.2266  -4.2265  -4.1849  -4.1671  -4.1670  -4.1602  -4.1601
    -4.1280  -4.0780  -4.0630  -4.0628  -4.0589  -4.0586  -4.0509  -4.0457
    -4.0451  -4.0450  -3.9800  -3.9795  -3.9301  -3.9298  -3.9176  -3.8915
    -3.8914  -3.8711  -3.8691  -3.8685  -3.8644  -3.8612  -3.8123  -3.8123
    -3.7992  -3.7990  -3.6939  -3.6936  -3.6877  -3.6873  -3.6502  -3.6398
    -3.6279  -3.5969  -3.5969  -3.5684  -3.5681  -3.5464  -3.5462  -3.5328
    -3.5324  -3.4778  -3.4777  -3.4584  -3.4445  -3.4320  -3.4308  -3.4306
    -3.4293  -3.4022  -3.4020  -3.3782  -3.3656  -3.3655  -3.3429  -3.3426
    -3.3102  -3.3099  -3.2915  -3.2642  -3.2641  -3.2268  -3.2266  -3.1912
    -3.1839  -3.1829  -3.1690  -3.1688  -3.1639  -3.1638  -3.1242  -3.1158
    -3.0742  -3.0742  -3.0664  -3.0568  -3.0561  -3.0547  -3.0303  -3.0303
    -3.0090  -3.0086  -3.0082  -2.9814  -2.9814  -2.9739  -2.9711  -2.9710
    -2.9354  -2.9302  -2.8954  -2.8951  -2.8943  -2.8914  -2.8912  -2.8123
    -2.8022  -2.7980  -2.7976  -2.7962  -2.7960  -2.7911  -2.7910  -2.7907
    -2.7903  -2.7811  -2.7733  -2.7562  -2.7535  -2.7530  -2.7527  -2.7381
    -2.7332  -2.6952  -2.6945  -2.6943  -2.6903  -2.6899  -2.6718  -2.6716
    -2.6627  -2.6626  -2.6605  -2.6009  -2.6009  -2.5955  -2.5954  -2.5904
    -2.5903  -2.5621  -2.5029  -2.5019  -2.5015  -2.5000  -2.4883  -2.4861
    -2.4812  -2.4702  -2.4700  -2.4333  -2.4328  -2.4242  -2.4237  -2.4233
    -2.4230  -2.3836  -2.3833  -2.3736  -2.3735  -2.3720  -2.3718  -2.3299
    -2.3138  -2.3084  -2.2550  -2.2548  -2.2362  -2.2348  -2.2295  -2.2294
    -2.1808  -2.1802  -2.1570  -2.1405  -2.1264  -2.1256  -2.1254  -2.1035
    -2.1034  -2.0938  -2.0772  -2.0353  -2.0350  -2.0227  -2.0225  -2.0218
    -2.0106  -2.0104  -1.9950  -1.9948  -1.9929  -1.9905  -1.9867  -1.9855
    -1.9848  -1.9729  -1.9726  -1.9550  -1.9548  -1.9526  -1.9466  -1.9435
    -1.9433  -1.9196  -1.9194  -1.9082  -1.9060  -1.9018  -1.9013  -1.8630
    -1.8292  -1.8288  -1.7935  -1.7762  -1.7760  -1.7653  -1.7649  -1.7417
    -1.7414  -1.7268  -1.7265  -1.7251  -1.7250  -1.7221  -1.7216  -1.6894
    -1.6893  -1.6891  -1.6430  -1.6427  -1.6030  -1.6027  -1.5557  -1.5556
    -1.5432  -1.5207  -1.5150  -1.5136  -1.4961  -1.4952  -1.4775  -1.4770
    -1.4724  -1.4722  -1.4706  -1.4701  -1.4698  -1.4671  -1.4471  -1.4470
    -1.4366  -1.4192  -1.3999  -1.3999  -1.3740  -1.3739  -1.3709  -1.3705
    -1.3675  -1.3647  -1.3540  -1.3427  -1.3425  -1.3279  -1.3272  -1.3147
    -1.3045  -1.2909  -1.2905  -1.2598  -1.2595  -1.2515  -1.2514  -1.2162
    -1.2157  -1.2076  -1.2073  -1.1988  -1.1986  -1.1771  -1.1769  -1.1649
    -1.1583  -1.1580  -1.1449  -1.1446  -1.1443  -1.1439  -1.1297  -1.1192
    -1.1185  -1.1113  -1.1112  -1.0991  -1.0945  -1.0942  -1.0876  -1.0486
    -1.0457  -1.0401  -1.0399  -1.0398  -1.0364  -0.9988  -0.9823  -0.9817
    -0.9814  -0.9813  -0.9768  -0.9766  -0.9717  -0.9582  -0.9572  -0.9200
    -0.9196  -0.9127  -0.9127  -0.8897  -0.8896  -0.8798  -0.8500  -0.8423
    -0.8150  -0.8147  -0.7868  -0.7867  -0.7837  -0.7830  -0.7821  -0.7785
    -0.7749  -0.7727  -0.7681  -0.7679  -0.7360  -0.7357  -0.7179  -0.7173
    -0.7123  -0.7120  -0.7107  -0.7104  -0.6917  -0.4135  -0.4074  -0.3504
    -0.3489  -0.3103  -0.1494  -0.0845  -0.0841  -0.0533   0.2347   0.2350
     0.5642   0.5656   0.6638   0.6639   0.7048   0.7056   0.8481   0.8489
     0.9728   0.9740   1.0602   1.6599   1.6780   1.6786   1.7189   1.7220
     1.7658   1.7688   1.8478   1.8485   2.0555   2.0558   2.2893   2.3699
     2.3715   2.3865   2.7659   2.7684   2.8405   2.8427   2.8482   2.8487
     3.0000   3.0006   3.0465   3.1430   3.1446   3.3715   3.3820   3.5103
     3.5373   3.5379   3.8084   3.8095   3.9217   3.9408   3.9409   4.0080
     4.0103   4.1276   4.1285   4.3641   4.3659   4.4528   4.4533   4.5771
     4.5822   4.5992   4.6020   4.6084   4.7671   5.3879   5.3909   5.4237
     5.5077   5.5103   5.6434   5.6890   5.6899   5.7165   5.7262   5.8034
     5.8036   5.8581   5.8586   5.8940   5.9043   6.0113   6.1155   6.1561
     6.1699   6.1724   6.1848   6.2004   6.2117   6.2165   6.2375   6.3065

          k =-0.2500-0.2500 0.0833 (167653 PWs)   bands (ev):

   -19.3549  -7.1691  -6.7656  -6.2371  -6.2368  -5.8074  -5.3984  -5.3052
    -5.3049  -5.1091  -5.1091  -4.9914  -4.9909  -4.9127  -4.8897  -4.8167
    -4.7316  -4.7282  -4.6892  -4.6890  -4.5281  -4.5112  -4.5104  -4.5102
    -4.5036  -4.4475  -4.4475  -4.4357  -4.4354  -4.3986  -4.3860  -4.3856
    -4.3438  -4.3437  -4.3102  -4.3091  -4.2571  -4.2568  -4.2461  -4.2449
    -4.2399  -4.2266  -4.2265  -4.1849  -4.1671  -4.1670  -4.1602  -4.1601
    -4.1280  -4.0780  -4.0630  -4.0628  -4.0589  -4.0586  -4.0509  -4.0457
    -4.0451  -4.0450  -3.9800  -3.9795  -3.9301  -3.9298  -3.9176  -3.8915
    -3.8914  -3.8711  -3.8691  -3.8685  -3.8644  -3.8612  -3.8123  -3.8123
    -3.7992  -3.7990  -3.6939  -3.6936  -3.6877  -3.6873  -3.6502  -3.6398
    -3.6279  -3.5969  -3.5969  -3.5684  -3.5681  -3.5464  -3.5462  -3.5328
    -3.5324  -3.4778  -3.4777  -3.4584  -3.4445  -3.4320  -3.4308  -3.4306
    -3.4293  -3.4022  -3.4020  -3.3782  -3.3656  -3.3656  -3.3429  -3.3426
    -3.3102  -3.3099  -3.2915  -3.2642  -3.2641  -3.2268  -3.2266  -3.1912
    -3.1839  -3.1829  -3.1690  -3.1688  -3.1639  -3.1638  -3.1242  -3.1158
    -3.0742  -3.0742  -3.0664  -3.0568  -3.0561  -3.0547  -3.0303  -3.0303
    -3.0090  -3.0086  -3.0082  -2.9814  -2.9814  -2.9739  -2.9711  -2.9710
    -2.9354  -2.9302  -2.8954  -2.8951  -2.8943  -2.8914  -2.8912  -2.8123
    -2.8022  -2.7980  -2.7976  -2.7962  -2.7960  -2.7911  -2.7910  -2.7907
    -2.7903  -2.7811  -2.7733  -2.7562  -2.7535  -2.7530  -2.7527  -2.7381
    -2.7332  -2.6952  -2.6945  -2.6943  -2.6903  -2.6899  -2.6719  -2.6716
    -2.6627  -2.6627  -2.6605  -2.6009  -2.6009  -2.5955  -2.5954  -2.5904
    -2.5903  -2.5621  -2.5029  -2.5019  -2.5015  -2.5000  -2.4883  -2.4861
    -2.4812  -2.4702  -2.4700  -2.4333  -2.4328  -2.4242  -2.4237  -2.4233
    -2.4230  -2.3836  -2.3833  -2.3736  -2.3735  -2.3720  -2.3718  -2.3299
    -2.3138  -2.3084  -2.2550  -2.2548  -2.2362  -2.2348  -2.2295  -2.2294
    -2.1808  -2.1802  -2.1570  -2.1405  -2.1264  -2.1256  -2.1255  -2.1035
    -2.1034  -2.0938  -2.0772  -2.0353  -2.0350  -2.0227  -2.0225  -2.0218
    -2.0106  -2.0104  -1.9950  -1.9948  -1.9929  -1.9905  -1.9867  -1.9855
    -1.9848  -1.9729  -1.9726  -1.9550  -1.9548  -1.9526  -1.9466  -1.9435
    -1.9433  -1.9196  -1.9194  -1.9082  -1.9060  -1.9018  -1.9013  -1.8629
    -1.8292  -1.8288  -1.7935  -1.7762  -1.7760  -1.7653  -1.7649  -1.7417
    -1.7414  -1.7268  -1.7265  -1.7251  -1.7250  -1.7221  -1.7216  -1.6894
    -1.6893  -1.6891  -1.6430  -1.6427  -1.6030  -1.6027  -1.5557  -1.5556
    -1.5432  -1.5207  -1.5150  -1.5136  -1.4961  -1.4952  -1.4775  -1.4770
    -1.4724  -1.4722  -1.4706  -1.4701  -1.4698  -1.4671  -1.4471  -1.4470
    -1.4366  -1.4192  -1.3999  -1.3999  -1.3740  -1.3739  -1.3709  -1.3705
    -1.3675  -1.3647  -1.3540  -1.3427  -1.3425  -1.3278  -1.3272  -1.3147
    -1.3045  -1.2909  -1.2905  -1.2598  -1.2595  -1.2515  -1.2514  -1.2162
    -1.2157  -1.2076  -1.2073  -1.1988  -1.1986  -1.1771  -1.1769  -1.1649
    -1.1583  -1.1580  -1.1449  -1.1446  -1.1443  -1.1439  -1.1297  -1.1192
    -1.1185  -1.1113  -1.1112  -1.0991  -1.0945  -1.0942  -1.0876  -1.0486
    -1.0457  -1.0401  -1.0399  -1.0397  -1.0364  -0.9988  -0.9823  -0.9817
    -0.9814  -0.9813  -0.9768  -0.9766  -0.9717  -0.9582  -0.9572  -0.9200
    -0.9196  -0.9127  -0.9126  -0.8897  -0.8896  -0.8798  -0.8500  -0.8423
    -0.8150  -0.8147  -0.7868  -0.7867  -0.7837  -0.7829  -0.7821  -0.7785
    -0.7748  -0.7727  -0.7681  -0.7679  -0.7360  -0.7357  -0.7179  -0.7173
    -0.7123  -0.7120  -0.7107  -0.7104  -0.6917  -0.4135  -0.4074  -0.3504
    -0.3489  -0.3103  -0.1494  -0.0845  -0.0841  -0.0533   0.2347   0.2350
     0.5642   0.5657   0.6638   0.6639   0.7048   0.7056   0.8481   0.8489
     0.9728   0.9740   1.0602   1.6599   1.6780   1.6786   1.7189   1.7220
     1.7658   1.7688   1.8478   1.8485   2.0555   2.0558   2.2893   2.3699
     2.3715   2.3865   2.7659   2.7684   2.8405   2.8427   2.8482   2.8487
     3.0000   3.0006   3.0465   3.1430   3.1446   3.3715   3.3819   3.5103
     3.5373   3.5379   3.8084   3.8095   3.9217   3.9408   3.9409   4.0077
     4.0102   4.1276   4.1285   4.3641   4.3659   4.4528   4.4533   4.5771
     4.5822   4.5996   4.6022   4.6105   4.7678   5.3875   5.3925   5.4344
     5.5076   5.5102   5.6108   5.6890   5.6900   5.7055   5.7289   5.8034
     5.8036   5.8581   5.8586   5.8811   5.9026   5.9899   6.1174   6.1506
     6.1565   6.1699   6.1844   6.1987   6.2000   6.2108   6.2128   6.2375

          k =-0.2500 0.2500-0.0833 (167653 PWs)   bands (ev):

   -19.3549  -7.1691  -6.7656  -6.2371  -6.2368  -5.8074  -5.3984  -5.3052
    -5.3049  -5.1091  -5.1091  -4.9914  -4.9909  -4.9127  -4.8897  -4.8167
    -4.7316  -4.7282  -4.6892  -4.6890  -4.5281  -4.5112  -4.5104  -4.5102
    -4.5036  -4.4475  -4.4475  -4.4357  -4.4354  -4.3986  -4.3860  -4.3856
    -4.3438  -4.3437  -4.3103  -4.3091  -4.2571  -4.2568  -4.2461  -4.2449
    -4.2399  -4.2266  -4.2265  -4.1849  -4.1671  -4.1670  -4.1602  -4.1601
    -4.1280  -4.0780  -4.0630  -4.0628  -4.0589  -4.0586  -4.0509  -4.0457
    -4.0451  -4.0450  -3.9800  -3.9795  -3.9301  -3.9298  -3.9176  -3.8915
    -3.8914  -3.8711  -3.8691  -3.8685  -3.8645  -3.8612  -3.8123  -3.8123
    -3.7992  -3.7990  -3.6939  -3.6936  -3.6877  -3.6873  -3.6502  -3.6398
    -3.6279  -3.5969  -3.5969  -3.5684  -3.5681  -3.5464  -3.5462  -3.5328
    -3.5324  -3.4778  -3.4776  -3.4584  -3.4445  -3.4320  -3.4308  -3.4306
    -3.4293  -3.4022  -3.4020  -3.3782  -3.3656  -3.3656  -3.3429  -3.3426
    -3.3102  -3.3099  -3.2915  -3.2642  -3.2641  -3.2268  -3.2266  -3.1912
    -3.1839  -3.1829  -3.1691  -3.1688  -3.1639  -3.1638  -3.1242  -3.1158
    -3.0742  -3.0742  -3.0664  -3.0568  -3.0562  -3.0547  -3.0303  -3.0303
    -3.0090  -3.0086  -3.0082  -2.9814  -2.9814  -2.9739  -2.9711  -2.9710
    -2.9354  -2.9302  -2.8954  -2.8951  -2.8943  -2.8914  -2.8912  -2.8123
    -2.8022  -2.7980  -2.7976  -2.7962  -2.7960  -2.7911  -2.7910  -2.7907
    -2.7903  -2.7811  -2.7733  -2.7562  -2.7535  -2.7531  -2.7527  -2.7381
    -2.7332  -2.6952  -2.6945  -2.6942  -2.6903  -2.6899  -2.6718  -2.6716
    -2.6627  -2.6626  -2.6605  -2.6009  -2.6009  -2.5955  -2.5954  -2.5904
    -2.5902  -2.5621  -2.5029  -2.5019  -2.5015  -2.5000  -2.4883  -2.4861
    -2.4812  -2.4702  -2.4700  -2.4333  -2.4328  -2.4242  -2.4237  -2.4233
    -2.4230  -2.3836  -2.3833  -2.3736  -2.3735  -2.3720  -2.3717  -2.3299
    -2.3138  -2.3085  -2.2550  -2.2548  -2.2362  -2.2348  -2.2295  -2.2294
    -2.1808  -2.1802  -2.1570  -2.1405  -2.1264  -2.1256  -2.1255  -2.1035
    -2.1034  -2.0938  -2.0772  -2.0353  -2.0350  -2.0227  -2.0224  -2.0218
    -2.0106  -2.0103  -1.9949  -1.9948  -1.9928  -1.9905  -1.9867  -1.9855
    -1.9848  -1.9729  -1.9726  -1.9549  -1.9548  -1.9526  -1.9466  -1.9435
    -1.9433  -1.9196  -1.9194  -1.9082  -1.9060  -1.9018  -1.9013  -1.8629
    -1.8292  -1.8288  -1.7935  -1.7762  -1.7760  -1.7654  -1.7649  -1.7418
    -1.7414  -1.7268  -1.7264  -1.7252  -1.7250  -1.7222  -1.7216  -1.6894
    -1.6893  -1.6891  -1.6430  -1.6427  -1.6030  -1.6027  -1.5557  -1.5556
    -1.5432  -1.5207  -1.5150  -1.5136  -1.4961  -1.4952  -1.4775  -1.4770
    -1.4724  -1.4722  -1.4705  -1.4703  -1.4697  -1.4671  -1.4471  -1.4470
    -1.4366  -1.4192  -1.3999  -1.3999  -1.3740  -1.3739  -1.3709  -1.3705
    -1.3675  -1.3647  -1.3539  -1.3428  -1.3425  -1.3279  -1.3272  -1.3147
    -1.3045  -1.2909  -1.2905  -1.2598  -1.2595  -1.2516  -1.2514  -1.2161
    -1.2157  -1.2076  -1.2073  -1.1989  -1.1986  -1.1771  -1.1769  -1.1649
    -1.1583  -1.1580  -1.1449  -1.1446  -1.1443  -1.1439  -1.1297  -1.1192
    -1.1185  -1.1113  -1.1112  -1.0991  -1.0944  -1.0943  -1.0876  -1.0486
    -1.0457  -1.0401  -1.0399  -1.0397  -1.0364  -0.9988  -0.9823  -0.9817
    -0.9814  -0.9813  -0.9769  -0.9765  -0.9717  -0.9582  -0.9572  -0.9199
    -0.9196  -0.9127  -0.9127  -0.8897  -0.8896  -0.8798  -0.8500  -0.8423
    -0.8150  -0.8147  -0.7868  -0.7867  -0.7837  -0.7829  -0.7821  -0.7785
    -0.7748  -0.7727  -0.7681  -0.7679  -0.7359  -0.7358  -0.7180  -0.7172
    -0.7123  -0.7120  -0.7106  -0.7105  -0.6917  -0.4135  -0.4074  -0.3504
    -0.3489  -0.3103  -0.1494  -0.0845  -0.0841  -0.0533   0.2348   0.2349
     0.5642   0.5657   0.6638   0.6639   0.7048   0.7056   0.8483   0.8487
     0.9728   0.9740   1.0602   1.6599   1.6780   1.6786   1.7189   1.7220
     1.7657   1.7689   1.8479   1.8484   2.0555   2.0557   2.2893   2.3698
     2.3716   2.3865   2.7658   2.7685   2.8405   2.8427   2.8482   2.8487
     3.0000   3.0006   3.0465   3.1433   3.1442   3.3715   3.3819   3.5103
     3.5374   3.5378   3.8086   3.8093   3.9217   3.9408   3.9408   4.0083
     4.0097   4.1275   4.1285   4.3641   4.3659   4.4530   4.4532   4.5771
     4.5821   4.5997   4.6018   4.6096   4.7691   5.3866   5.3933   5.4373
     5.5086   5.5090   5.6157   5.6892   5.6898   5.6966   5.7287   5.8032
     5.8038   5.8582   5.8586   5.8830   5.9023   5.9770   6.1243   6.1497
     6.1581   6.1693   6.1846   6.2003   6.2007   6.2124   6.2168   6.2358

          k = 0.2500-0.2500-0.0833 (167653 PWs)   bands (ev):

   -19.3549  -7.1691  -6.7656  -6.2371  -6.2368  -5.8074  -5.3984  -5.3052
    -5.3049  -5.1091  -5.1091  -4.9914  -4.9909  -4.9127  -4.8897  -4.8167
    -4.7316  -4.7282  -4.6892  -4.6890  -4.5281  -4.5112  -4.5104  -4.5102
    -4.5036  -4.4475  -4.4475  -4.4357  -4.4354  -4.3986  -4.3860  -4.3856
    -4.3438  -4.3437  -4.3103  -4.3091  -4.2571  -4.2568  -4.2461  -4.2449
    -4.2399  -4.2266  -4.2265  -4.1849  -4.1671  -4.1670  -4.1602  -4.1601
    -4.1280  -4.0780  -4.0630  -4.0628  -4.0589  -4.0586  -4.0509  -4.0457
    -4.0451  -4.0450  -3.9800  -3.9795  -3.9301  -3.9298  -3.9176  -3.8915
    -3.8914  -3.8711  -3.8691  -3.8685  -3.8645  -3.8612  -3.8123  -3.8123
    -3.7992  -3.7990  -3.6939  -3.6936  -3.6877  -3.6873  -3.6502  -3.6398
    -3.6279  -3.5969  -3.5969  -3.5684  -3.5681  -3.5464  -3.5462  -3.5328
    -3.5324  -3.4778  -3.4776  -3.4584  -3.4445  -3.4320  -3.4308  -3.4306
    -3.4293  -3.4022  -3.4020  -3.3782  -3.3656  -3.3656  -3.3429  -3.3426
    -3.3102  -3.3099  -3.2915  -3.2642  -3.2641  -3.2268  -3.2266  -3.1912
    -3.1839  -3.1829  -3.1691  -3.1688  -3.1639  -3.1638  -3.1242  -3.1158
    -3.0742  -3.0742  -3.0664  -3.0568  -3.0562  -3.0547  -3.0303  -3.0303
    -3.0090  -3.0086  -3.0082  -2.9814  -2.9814  -2.9739  -2.9711  -2.9710
    -2.9354  -2.9302  -2.8954  -2.8951  -2.8943  -2.8914  -2.8912  -2.8123
    -2.8022  -2.7980  -2.7976  -2.7962  -2.7960  -2.7911  -2.7910  -2.7907
    -2.7903  -2.7811  -2.7733  -2.7562  -2.7535  -2.7531  -2.7527  -2.7381
    -2.7332  -2.6952  -2.6945  -2.6942  -2.6903  -2.6899  -2.6718  -2.6716
    -2.6627  -2.6626  -2.6605  -2.6009  -2.6009  -2.5955  -2.5954  -2.5904
    -2.5902  -2.5621  -2.5029  -2.5019  -2.5015  -2.5000  -2.4883  -2.4861
    -2.4812  -2.4702  -2.4700  -2.4333  -2.4328  -2.4242  -2.4237  -2.4233
    -2.4230  -2.3836  -2.3833  -2.3736  -2.3735  -2.3720  -2.3717  -2.3299
    -2.3138  -2.3085  -2.2550  -2.2548  -2.2362  -2.2348  -2.2295  -2.2294
    -2.1808  -2.1802  -2.1570  -2.1405  -2.1264  -2.1256  -2.1255  -2.1035
    -2.1034  -2.0938  -2.0772  -2.0353  -2.0350  -2.0227  -2.0224  -2.0218
    -2.0106  -2.0103  -1.9949  -1.9948  -1.9928  -1.9905  -1.9867  -1.9855
    -1.9848  -1.9729  -1.9726  -1.9549  -1.9548  -1.9526  -1.9466  -1.9435
    -1.9433  -1.9196  -1.9194  -1.9082  -1.9060  -1.9018  -1.9013  -1.8629
    -1.8292  -1.8288  -1.7935  -1.7762  -1.7760  -1.7654  -1.7649  -1.7418
    -1.7414  -1.7268  -1.7264  -1.7252  -1.7250  -1.7222  -1.7216  -1.6894
    -1.6893  -1.6891  -1.6430  -1.6427  -1.6030  -1.6027  -1.5557  -1.5556
    -1.5432  -1.5207  -1.5150  -1.5136  -1.4961  -1.4952  -1.4775  -1.4770
    -1.4724  -1.4722  -1.4705  -1.4703  -1.4697  -1.4671  -1.4471  -1.4470
    -1.4366  -1.4192  -1.3999  -1.3999  -1.3740  -1.3739  -1.3709  -1.3705
    -1.3675  -1.3647  -1.3539  -1.3428  -1.3425  -1.3279  -1.3272  -1.3147
    -1.3045  -1.2909  -1.2905  -1.2598  -1.2595  -1.2516  -1.2514  -1.2161
    -1.2157  -1.2076  -1.2073  -1.1989  -1.1986  -1.1771  -1.1769  -1.1649
    -1.1583  -1.1580  -1.1449  -1.1446  -1.1443  -1.1439  -1.1297  -1.1192
    -1.1185  -1.1113  -1.1112  -1.0991  -1.0944  -1.0943  -1.0876  -1.0486
    -1.0457  -1.0401  -1.0399  -1.0397  -1.0364  -0.9988  -0.9823  -0.9817
    -0.9814  -0.9813  -0.9769  -0.9765  -0.9717  -0.9582  -0.9572  -0.9199
    -0.9196  -0.9127  -0.9127  -0.8897  -0.8896  -0.8798  -0.8500  -0.8423
    -0.8150  -0.8147  -0.7868  -0.7867  -0.7837  -0.7829  -0.7821  -0.7785
    -0.7748  -0.7727  -0.7681  -0.7679  -0.7359  -0.7358  -0.7180  -0.7172
    -0.7123  -0.7120  -0.7106  -0.7105  -0.6917  -0.4135  -0.4074  -0.3504
    -0.3489  -0.3103  -0.1494  -0.0845  -0.0841  -0.0533   0.2348   0.2349
     0.5642   0.5657   0.6638   0.6639   0.7048   0.7056   0.8483   0.8487
     0.9728   0.9740   1.0602   1.6599   1.6780   1.6786   1.7189   1.7220
     1.7657   1.7689   1.8479   1.8484   2.0555   2.0557   2.2893   2.3698
     2.3716   2.3865   2.7658   2.7685   2.8405   2.8427   2.8482   2.8487
     3.0000   3.0006   3.0465   3.1433   3.1442   3.3715   3.3819   3.5103
     3.5374   3.5378   3.8086   3.8093   3.9217   3.9408   3.9408   4.0083
     4.0097   4.1275   4.1285   4.3641   4.3659   4.4530   4.4532   4.5771
     4.5821   4.5997   4.6018   4.6096   4.7691   5.3866   5.3932   5.4379
     5.5086   5.5090   5.6140   5.6892   5.6898   5.6973   5.7286   5.8032
     5.8038   5.8582   5.8586   5.8833   5.9023   5.9772   6.1265   6.1493
     6.1582   6.1692   6.1846   6.2003   6.2006   6.2125   6.2154   6.2361

          k =-0.2500 0.2500 0.2500 (167588 PWs)   bands (ev):

   -19.3549  -7.1691  -6.7656  -6.2371  -6.2368  -5.8074  -5.3984  -5.3052
    -5.3049  -5.1091  -5.1091  -4.9914  -4.9909  -4.9127  -4.8897  -4.8167
    -4.7316  -4.7282  -4.6892  -4.6890  -4.5281  -4.5112  -4.5104  -4.5102
    -4.5036  -4.4475  -4.4475  -4.4357  -4.4354  -4.3986  -4.3860  -4.3856
    -4.3438  -4.3437  -4.3103  -4.3091  -4.2571  -4.2568  -4.2461  -4.2449
    -4.2399  -4.2266  -4.2265  -4.1849  -4.1671  -4.1670  -4.1602  -4.1601
    -4.1280  -4.0780  -4.0630  -4.0627  -4.0589  -4.0586  -4.0509  -4.0457
    -4.0451  -4.0450  -3.9800  -3.9795  -3.9301  -3.9298  -3.9176  -3.8915
    -3.8914  -3.8711  -3.8691  -3.8685  -3.8645  -3.8612  -3.8123  -3.8123
    -3.7992  -3.7989  -3.6939  -3.6936  -3.6877  -3.6874  -3.6502  -3.6398
    -3.6279  -3.5970  -3.5969  -3.5684  -3.5681  -3.5464  -3.5462  -3.5328
    -3.5324  -3.4778  -3.4776  -3.4584  -3.4445  -3.4320  -3.4308  -3.4306
    -3.4293  -3.4022  -3.4020  -3.3782  -3.3656  -3.3655  -3.3429  -3.3426
    -3.3102  -3.3099  -3.2915  -3.2642  -3.2641  -3.2268  -3.2266  -3.1912
    -3.1839  -3.1829  -3.1690  -3.1688  -3.1639  -3.1638  -3.1242  -3.1158
    -3.0742  -3.0742  -3.0664  -3.0568  -3.0562  -3.0547  -3.0303  -3.0303
    -3.0090  -3.0086  -3.0082  -2.9814  -2.9814  -2.9739  -2.9711  -2.9710
    -2.9354  -2.9302  -2.8954  -2.8951  -2.8943  -2.8914  -2.8912  -2.8123
    -2.8022  -2.7980  -2.7976  -2.7962  -2.7960  -2.7911  -2.7910  -2.7907
    -2.7903  -2.7811  -2.7733  -2.7562  -2.7535  -2.7531  -2.7527  -2.7381
    -2.7332  -2.6952  -2.6945  -2.6942  -2.6903  -2.6899  -2.6718  -2.6716
    -2.6627  -2.6626  -2.6605  -2.6009  -2.6009  -2.5955  -2.5954  -2.5904
    -2.5902  -2.5621  -2.5029  -2.5019  -2.5015  -2.5000  -2.4883  -2.4861
    -2.4812  -2.4702  -2.4700  -2.4333  -2.4328  -2.4242  -2.4237  -2.4233
    -2.4230  -2.3836  -2.3833  -2.3736  -2.3735  -2.3720  -2.3718  -2.3299
    -2.3138  -2.3085  -2.2550  -2.2548  -2.2362  -2.2348  -2.2295  -2.2294
    -2.1808  -2.1802  -2.1570  -2.1405  -2.1264  -2.1256  -2.1254  -2.1035
    -2.1034  -2.0938  -2.0772  -2.0353  -2.0350  -2.0227  -2.0224  -2.0218
    -2.0106  -2.0103  -1.9949  -1.9948  -1.9928  -1.9905  -1.9867  -1.9855
    -1.9849  -1.9729  -1.9726  -1.9549  -1.9548  -1.9526  -1.9466  -1.9435
    -1.9433  -1.9196  -1.9194  -1.9082  -1.9060  -1.9018  -1.9013  -1.8630
    -1.8291  -1.8288  -1.7935  -1.7762  -1.7760  -1.7654  -1.7649  -1.7417
    -1.7413  -1.7268  -1.7264  -1.7252  -1.7250  -1.7222  -1.7215  -1.6894
    -1.6893  -1.6891  -1.6430  -1.6427  -1.6030  -1.6027  -1.5557  -1.5556
    -1.5432  -1.5207  -1.5150  -1.5136  -1.4961  -1.4952  -1.4775  -1.4770
    -1.4724  -1.4722  -1.4705  -1.4703  -1.4697  -1.4671  -1.4471  -1.4470
    -1.4366  -1.4192  -1.3999  -1.3999  -1.3740  -1.3739  -1.3709  -1.3705
    -1.3675  -1.3647  -1.3539  -1.3428  -1.3425  -1.3279  -1.3272  -1.3147
    -1.3045  -1.2909  -1.2905  -1.2598  -1.2595  -1.2516  -1.2514  -1.2161
    -1.2157  -1.2076  -1.2073  -1.1989  -1.1986  -1.1771  -1.1769  -1.1649
    -1.1583  -1.1580  -1.1449  -1.1446  -1.1443  -1.1438  -1.1297  -1.1192
    -1.1185  -1.1113  -1.1112  -1.0991  -1.0944  -1.0943  -1.0876  -1.0486
    -1.0457  -1.0401  -1.0399  -1.0398  -1.0364  -0.9988  -0.9823  -0.9817
    -0.9814  -0.9813  -0.9769  -0.9765  -0.9717  -0.9582  -0.9572  -0.9199
    -0.9196  -0.9127  -0.9127  -0.8897  -0.8895  -0.8798  -0.8500  -0.8423
    -0.8150  -0.8147  -0.7868  -0.7867  -0.7837  -0.7830  -0.7821  -0.7785
    -0.7748  -0.7727  -0.7681  -0.7679  -0.7359  -0.7358  -0.7180  -0.7172
    -0.7123  -0.7120  -0.7106  -0.7105  -0.6917  -0.4135  -0.4074  -0.3504
    -0.3489  -0.3103  -0.1494  -0.0845  -0.0841  -0.0533   0.2348   0.2349
     0.5642   0.5657   0.6638   0.6639   0.7048   0.7056   0.8483   0.8487
     0.9728   0.9740   1.0602   1.6599   1.6780   1.6786   1.7189   1.7220
     1.7657   1.7689   1.8479   1.8484   2.0555   2.0557   2.2893   2.3698
     2.3716   2.3865   2.7658   2.7685   2.8405   2.8427   2.8482   2.8487
     2.9999   3.0006   3.0465   3.1433   3.1442   3.3715   3.3819   3.5103
     3.5374   3.5378   3.8086   3.8093   3.9217   3.9408   3.9408   4.0085
     4.0098   4.1275   4.1285   4.3641   4.3659   4.4530   4.4532   4.5771
     4.5821   4.5992   4.6014   4.6078   4.7683   5.3871   5.3912   5.4288
     5.5086   5.5093   5.6343   5.6892   5.6898   5.7188   5.7268   5.8031
     5.8039   5.8582   5.8586   5.8956   5.9026   6.0172   6.1044   6.1582
     6.1667   6.1722   6.1846   6.2004   6.2120   6.2193   6.2372   6.3120

     the Fermi energy is     0.9228 ev

!    total energy              =   -7425.28656049 Ry
     Harris-Foulkes estimate   =   -7425.28656048 Ry
     estimated scf accuracy    <          5.2E-09 Ry

     The total energy is the sum of the following terms:

     one-electron contribution =  -48239.60426872 Ry
     hartree contribution      =   24672.33439003 Ry
     xc contribution           =   -3604.19309707 Ry
     ewald contribution        =   19746.17934858 Ry
     smearing contrib. (-TS)   =      -0.00293332 Ry

     convergence has been achieved in  29 iterations

     Writing output data file 2475146.save

     init_run     :    127.02s CPU    134.12s WALL (       1 calls)
     electrons    :   9295.10s CPU   9762.00s WALL (       1 calls)

     Called by init_run:
     wfcinit      :    101.52s CPU    108.01s WALL (       1 calls)
     potinit      :      6.72s CPU      7.06s WALL (       1 calls)

     Called by electrons:
     c_bands      :   7789.40s CPU   8154.79s WALL (      30 calls)
     sum_band     :   1038.00s CPU   1122.43s WALL (      30 calls)
     v_of_rho     :     90.02s CPU    101.28s WALL (      30 calls)
     newd         :    385.96s CPU    391.00s WALL (      30 calls)
     mix_rho      :      2.92s CPU      3.39s WALL (      30 calls)
     vdW_energy   :      9.78s CPU     10.31s WALL (      30 calls)
     vdW_ffts     :     39.54s CPU     45.31s WALL (      60 calls)
     vdW_v        :     12.74s CPU     13.67s WALL (      30 calls)

     Called by c_bands:
     init_us_2    :     13.54s CPU     14.04s WALL (     366 calls)
     cegterg      :   7677.01s CPU   8041.27s WALL (     180 calls)

     Called by *egterg:
     h_psi        :   2760.66s CPU   3090.99s WALL (     988 calls)
     s_psi        :    556.86s CPU    559.47s WALL (     988 calls)
     g_psi        :      5.75s CPU      5.84s WALL (     802 calls)
     cdiaghg      :   2444.23s CPU   2451.77s WALL (     976 calls)

     Called by h_psi:
     add_vuspsi   :    555.94s CPU    558.57s WALL (     988 calls)

     General routines
     calbec       :    903.08s CPU    906.14s WALL (    1168 calls)
     fft          :    126.08s CPU    137.19s WALL (    1980 calls)
     ffts         :      1.16s CPU      1.50s WALL (      60 calls)
     fftw         :   1715.02s CPU   2085.02s WALL (  479712 calls)
     interpolate  :      3.05s CPU      3.88s WALL (      60 calls)
     davcio       :      0.01s CPU      0.15s WALL (       6 calls)

     Parallel routines
     fft_scatter  :   1059.02s CPU   1313.82s WALL (  481752 calls)

     PWSCF        :     2h37m CPU        2h45m WALL


   This run was terminated on:  13:36: 4   1Jul2015            

=------------------------------------------------------------------------------=
   JOB DONE.
=------------------------------------------------------------------------------=
