Setting SGE environment for SCC

     Program PWSCF v.5.1.2 starts on  1Jul2015 at  8:54:25 

     This program is part of the open-source Quantum ESPRESSO suite
     for quantum simulation of materials; please cite
         "P. Giannozzi et al., J. Phys.:Condens. Matter 21 395502 (2009);
          URL http://www.quantum-espresso.org", 
     in publications or presentations arising from this work. More details at
     http://www.quantum-espresso.org/quote

     Parallel version (MPI), running on    32 processors
     R & G space division:  proc/nbgrp/npool/nimage =      32
     Reading input from bridge.O1.Au6165.d.2.5.phi.45.psi.0.in
Warning: card &IONS ignored
Warning: card / ignored
Warning: card &CELL ignored
Warning: card / ignored

     Current dimensions of program PWSCF are:
     Max number of different atomic species (ntypx) = 10
     Max number of k-points (npk) =  40000
     Max angular momentum in pseudopotentials (lmaxx) =  3

     IMPORTANT: XC functional enforced from input :
     Exchange-correlation      = VDW-DF ( 1  4  4  0 1 0)
     Any further DFT definition will be discarded
     Please, verify this is what you really want


     Subspace diagonalization in iterative solution of the eigenvalue problem:
     a serial algorithm will be used


     Parallelization info
     --------------------
     sticks:   dense  smooth     PW     G-vecs:    dense   smooth      PW
     Min         578     289     74               118518    41891    5486
     Max         579     290     75               118533    41932    5497
     Sum       18505    9265   2385              3792731  1341081  175711


     Title: 
     bridge.O1.Au6165.d.2.5.phi.45.psi.0                                        


     bravais-lattice index     =            8
     lattice parameter (alat)  =      24.1233  a.u.
     unit-cell volume          =   28076.2361 (a.u.)^3
     number of atoms/cell      =           75
     number of atomic types    =            3
     number of electrons       =       800.00
     number of Kohn-Sham states=          480
     kinetic-energy cutoff     =      50.0000  Ry
     charge density cutoff     =     400.0000  Ry
     convergence threshold     =      1.0E-08
     mixing beta               =       0.7000
     number of iterations used =            8  plain     mixing
     Exchange-correlation      = VDW-DF ( 1  4  4  0 1 0)

     celldm(1)=  24.123277  celldm(2)=   1.000000  celldm(3)=   2.000000
     celldm(4)=   0.000000  celldm(5)=   0.000000  celldm(6)=   0.000000

     crystal axes: (cart. coord. in units of alat)
               a(1) = (   1.000000   0.000000   0.000000 )  
               a(2) = (   0.000000   1.000000   0.000000 )  
               a(3) = (   0.000000   0.000000   2.000000 )  

     reciprocal axes: (cart. coord. in units 2 pi/alat)
               b(1) = (  1.000000  0.000000  0.000000 )  
               b(2) = (  0.000000  1.000000  0.000000 )  
               b(3) = (  0.000000  0.000000  0.500000 )  


     PseudoPot. # 1 for Au read from file:
     /home/scc/andrejb/qe/pseudo/Au.pbe-nd-van.UPF
     MD5 check sum: 458681b50f36d87ef23c61b04bba420a
     Pseudo is Ultrasoft + core correction, Zval = 11.0
     Generated by new atomic code, or converted to UPF format
     Using radial grid of  985 points,  3 beta functions with: 
                l(1) =   1
                l(2) =   2
                l(3) =   2
     Q(r) pseudized with  8 coefficients,  rinner =    1.100   1.100   1.100
                                                       1.100   1.100

     PseudoPot. # 2 for H  read from file:
     /home/scc/andrejb/qe/pseudo/H.pbe-van_ak.UPF
     MD5 check sum: 403db7282739603aa925980fa9b8608d
     Pseudo is Ultrasoft, Zval =  1.0
     Generated by new atomic code, or converted to UPF format
     Using radial grid of  615 points,  1 beta functions with: 
                l(1) =   0
     Q(r) pseudized with  8 coefficients,  rinner =    0.800

     PseudoPot. # 3 for O  read from file:
     /home/scc/andrejb/qe/pseudo/O.pbe-van_ak.UPF
     MD5 check sum: 4b8c549914a63cae506c6ff22b5af4fe
     Pseudo is Ultrasoft, Zval =  6.0
     Generated by new atomic code, or converted to UPF format
     Using radial grid of  737 points,  4 beta functions with: 
                l(1) =   0
                l(2) =   0
                l(3) =   1
                l(4) =   1
     Q(r) pseudized with  8 coefficients,  rinner =    0.800   0.800   0.800


     vdW kernel table read from file vdW_kernel_table
     MD5 check sum: 48e77a2e26edf626eeb0eaa751ad5cac

     atomic species   valence    mass     pseudopotential
        Au            11.00   196.96657     Au( 1.00)
        H              1.00     1.01000     H ( 1.00)
        O              6.00    16.00000     O ( 1.00)

     No symmetry found



   Cartesian axes

     site n.     atom                  positions (alat units)
         1           O   tau(   1) = (   0.2499161   0.4165269   0.6951590  )
         2           H   tau(   2) = (   0.2443256   0.3555396   0.7406529  )
         3           H   tau(   3) = (   0.2553244   0.4756778   0.7430167  )
         4           Au  tau(   4) = (   0.0000000   0.0000000   0.0000000  )
         5           Au  tau(   5) = (   0.3332217   0.0000000   0.0000000  )
         6           Au  tau(   6) = (   0.6664434   0.0000000   0.0000000  )
         7           Au  tau(   7) = (   0.1666109   0.1666109   0.0000000  )
         8           Au  tau(   8) = (   0.4998326   0.1666109   0.0000000  )
         9           Au  tau(   9) = (   0.8330542   0.1666109   0.0000000  )
        10           Au  tau(  10) = (   0.0000000   0.3332217   0.0000000  )
        11           Au  tau(  11) = (   0.3332217   0.3332217   0.0000000  )
        12           Au  tau(  12) = (   0.6664434   0.3332217   0.0000000  )
        13           Au  tau(  13) = (   0.1666109   0.4998326   0.0000000  )
        14           Au  tau(  14) = (   0.4998326   0.4998326   0.0000000  )
        15           Au  tau(  15) = (   0.8330542   0.4998326   0.0000000  )
        16           Au  tau(  16) = (   0.0000000   0.6664434   0.0000000  )
        17           Au  tau(  17) = (   0.3332217   0.6664434   0.0000000  )
        18           Au  tau(  18) = (   0.6664434   0.6664434   0.0000000  )
        19           Au  tau(  19) = (   0.1666109   0.8330542   0.0000000  )
        20           Au  tau(  20) = (   0.4998326   0.8330542   0.0000000  )
        21           Au  tau(  21) = (   0.8330542   0.8330542   0.0000000  )
        22           Au  tau(  22) = (   0.1666109   0.0000000   0.1666109  )
        23           Au  tau(  23) = (   0.4998326   0.0000000   0.1666109  )
        24           Au  tau(  24) = (   0.8330542   0.0000000   0.1666109  )
        25           Au  tau(  25) = (   0.0000000   0.1666109   0.1666109  )
        26           Au  tau(  26) = (   0.3332217   0.1666109   0.1666109  )
        27           Au  tau(  27) = (   0.6664434   0.1666109   0.1666109  )
        28           Au  tau(  28) = (   0.1666109   0.3332217   0.1666109  )
        29           Au  tau(  29) = (   0.4998326   0.3332217   0.1666109  )
        30           Au  tau(  30) = (   0.8330542   0.3332217   0.1666109  )
        31           Au  tau(  31) = (   0.0000000   0.4998326   0.1666109  )
        32           Au  tau(  32) = (   0.3332217   0.4998326   0.1666109  )
        33           Au  tau(  33) = (   0.6664434   0.4998326   0.1666109  )
        34           Au  tau(  34) = (   0.1666109   0.6664434   0.1666109  )
        35           Au  tau(  35) = (   0.4998326   0.6664434   0.1666109  )
        36           Au  tau(  36) = (   0.8330542   0.6664434   0.1666109  )
        37           Au  tau(  37) = (   0.0000000   0.8330542   0.1666109  )
        38           Au  tau(  38) = (   0.3332217   0.8330542   0.1666109  )
        39           Au  tau(  39) = (   0.6664434   0.8330542   0.1666109  )
        40           Au  tau(  40) = (  -0.0000182  -0.0000182   0.3335478  )
        41           Au  tau(  41) = (   0.3332215  -0.0000181   0.3335473  )
        42           Au  tau(  42) = (   0.6664447  -0.0000183   0.3335481  )
        43           Au  tau(  43) = (  -0.0000181   0.3332215   0.3335473  )
        44           Au  tau(  44) = (   0.3332215   0.3332215   0.3335468  )
        45           Au  tau(  45) = (   0.6664445   0.3332215   0.3335477  )
        46           Au  tau(  46) = (  -0.0000183   0.6664447   0.3335481  )
        47           Au  tau(  47) = (   0.3332215   0.6664445   0.3335477  )
        48           Au  tau(  48) = (   0.6664446   0.6664446   0.3335486  )
        49           Au  tau(  49) = (   0.1666097   0.1666097   0.3335483  )
        50           Au  tau(  50) = (   0.4998320   0.1666098   0.3335477  )
        51           Au  tau(  51) = (   0.8330732   0.1666096   0.3335480  )
        52           Au  tau(  52) = (   0.1666098   0.4998320   0.3335477  )
        53           Au  tau(  53) = (   0.4998322   0.4998322   0.3335470  )
        54           Au  tau(  54) = (   0.8330731   0.4998322   0.3335474  )
        55           Au  tau(  55) = (   0.1666096   0.8330732   0.3335480  )
        56           Au  tau(  56) = (   0.4998322   0.8330731   0.3335474  )
        57           Au  tau(  57) = (   0.8330731   0.8330731   0.3335478  )
        58           Au  tau(  58) = (   0.1666104  -0.0000111   0.4993095  )
        59           Au  tau(  59) = (   0.4998323  -0.0000112   0.4993099  )
        60           Au  tau(  60) = (   0.8330660  -0.0000111   0.4993009  )
        61           Au  tau(  61) = (  -0.0000111   0.1666104   0.4993095  )
        62           Au  tau(  62) = (   0.3332213   0.1666106   0.4993185  )
        63           Au  tau(  63) = (   0.6664437   0.1666106   0.4993187  )
        64           Au  tau(  64) = (   0.1666106   0.3332213   0.4993185  )
        65           Au  tau(  65) = (   0.4998324   0.3332216   0.4993185  )
        66           Au  tau(  66) = (   0.8330658   0.3332215   0.4993102  )
        67           Au  tau(  67) = (  -0.0000112   0.4998323   0.4993099  )
        68           Au  tau(  68) = (   0.3332216   0.4998324   0.4993185  )
        69           Au  tau(  69) = (   0.6664437   0.4998325   0.4993187  )
        70           Au  tau(  70) = (   0.1666106   0.6664437   0.4993187  )
        71           Au  tau(  71) = (   0.4998325   0.6664437   0.4993187  )
        72           Au  tau(  72) = (   0.8330658   0.6664438   0.4993102  )
        73           Au  tau(  73) = (  -0.0000111   0.8330660   0.4993009  )
        74           Au  tau(  74) = (   0.3332215   0.8330658   0.4993102  )
        75           Au  tau(  75) = (   0.6664438   0.8330658   0.4993102  )

     number of k points=     6  Marzari-Vanderbilt smearing, width (Ry)=  0.0200
                       cart. coord. in units 2pi/alat
        k(    1) = (   0.2500000   0.2500000   0.0833333), wk =   0.3333333
        k(    2) = (   0.2500000   0.2500000  -0.2500000), wk =   0.3333333
        k(    3) = (  -0.2500000  -0.2500000   0.0833333), wk =   0.3333333
        k(    4) = (  -0.2500000   0.2500000  -0.0833333), wk =   0.3333333
        k(    5) = (   0.2500000  -0.2500000  -0.0833333), wk =   0.3333333
        k(    6) = (  -0.2500000   0.2500000   0.2500000), wk =   0.3333333

     Dense  grid:  3792731 G-vectors     FFT dimensions: ( 160, 160, 320)

     Smooth grid:  1341081 G-vectors     FFT dimensions: ( 120, 120, 225)

     Largest allocated arrays     est. size (Mb)     dimensions
        Kohn-Sham Wavefunctions        38.58 Mb     (    5267,  480)
        NL pseudopotentials            76.03 Mb     (    5267,  946)
        Each V/rho on FFT grid          3.91 Mb     (  256000)
        Each G-vector array             0.90 Mb     (  118520)
        G-vector shells                 0.08 Mb     (   10286)
     Largest temporary arrays     est. size (Mb)     dimensions
        Auxiliary wavefunctions       154.31 Mb     (    5267, 1920)
        Each subspace H/S matrix       56.25 Mb     (    1920, 1920)
        Each <psi_i|beta_j> matrix      6.93 Mb     (     946,  480)
        Arrays for rho mixing          31.25 Mb     (  256000,    8)

     Initial potential from superposition of free atoms
     Check: negative starting charge=   -1.945142

     starting charge  799.16392, renormalised to  800.00000

     negative rho (up, down):  1.947E+00 0.000E+00


     ************************************************************************
     *
     * You are using vdW-DF for exchange-correlation in this calculation.
     * Please cite the following three references that made this development
     * possible:
     *
     *   M. Dion, H. Rydberg, E. Schroder, D. C. Langreth, and
     *   B. I. Lundqvist, Phys. Rev. Lett. 92, 246401 (2004).
     *
     *   T. Thonhauser, V. R. Cooper, S. Li, A. Puzder, P. Hyldgaard, and
     *   D. C. Langreth, Phys. Rev. B 76, 125112 (2007).
     *
     *   G. Roman-Perez and J. M. Soler, Phys. Rev. Lett. 103, 096102 (2009).
     *
     *
     * If you are using vdW-DF2, please also cite:
     *
     *   K. Lee, E. D. Murray, L. Kong, B. I. Lundqvist, and
     *   D. C. Langreth, Phys. Rev. B 82, 081101(R) (2010).
     *
     *
     * If you are calculating the stress with vdW-DF, please also cite:
     *
     *   R. Sabatini, E. Kucukbenli, B. Kolb, T. Thonhauser, and
     *   S. de Gironcoli, J. Phys.: Condens. Matter 24, 424209 (2012).
     *
     ************************************************************************

     Carrying out vdW-DF run using the following parameters:

     Nqs =      20    Nr_points =    1024   r_max =   100.000
     q_mesh =
               0.00001000     0.04494208     0.09755937     0.15916263
               0.23128650     0.31572767     0.41458969     0.53033537
               0.66584808     0.82450364     1.01025438     1.22772762
               1.48234092     1.78043706     2.12944203     2.53805004
               3.01644009     3.57652955     4.23227104     5.00000000

     Gradients computed in reciprocal space

     ************************************************************************


     Starting wfc are  654 randomized atomic wfcs

     total cpu time spent up to now is      157.4 secs

     Self-consistent Calculation

     iteration #  1     ecut=    50.00 Ry     beta=0.70
     Davidson diagonalization with overlap
     ethr =  1.00E-02,  avg # of iterations =  3.0

     Threshold (ethr) on eigenvalues was too large:
     Diagonalizing with lowered threshold

     Davidson diagonalization with overlap
     ethr =  4.31E-04,  avg # of iterations =  2.3

     negative rho (up, down):  1.947E+00 0.000E+00

     total cpu time spent up to now is      779.1 secs

     total energy              =   -7422.98434577 Ry
     Harris-Foulkes estimate   =   -7426.08802054 Ry
     estimated scf accuracy    <       3.82942890 Ry

     iteration #  2     ecut=    50.00 Ry     beta=0.70
     Davidson diagonalization with overlap
     ethr =  4.79E-04,  avg # of iterations = 11.3

     negative rho (up, down):  1.941E+00 0.000E+00

     total cpu time spent up to now is     1753.6 secs

     total energy              =   -7414.28279350 Ry
     Harris-Foulkes estimate   =   -7432.88933290 Ry
     estimated scf accuracy    <      99.49883411 Ry

     iteration #  3     ecut=    50.00 Ry     beta=0.70
     Davidson diagonalization with overlap
     ethr =  4.79E-04,  avg # of iterations =  6.5

     negative rho (up, down):  1.952E+00 0.000E+00

     total cpu time spent up to now is     2403.6 secs

     total energy              =   -7424.43015116 Ry
     Harris-Foulkes estimate   =   -7425.86995885 Ry
     estimated scf accuracy    <       5.52810548 Ry

     iteration #  4     ecut=    50.00 Ry     beta=0.70
     Davidson diagonalization with overlap
     ethr =  4.79E-04,  avg # of iterations =  5.7

     negative rho (up, down):  1.955E+00 0.000E+00

     total cpu time spent up to now is     2777.2 secs

     total energy              =   -7424.64208379 Ry
     Harris-Foulkes estimate   =   -7425.86496433 Ry
     estimated scf accuracy    <      10.04401503 Ry

     iteration #  5     ecut=    50.00 Ry     beta=0.70
     Davidson diagonalization with overlap
     ethr =  4.79E-04,  avg # of iterations =  5.7

     negative rho (up, down):  1.964E+00 0.000E+00

     total cpu time spent up to now is     3132.1 secs

     total energy              =   -7425.24066725 Ry
     Harris-Foulkes estimate   =   -7425.38919416 Ry
     estimated scf accuracy    <       0.76069634 Ry

     iteration #  6     ecut=    50.00 Ry     beta=0.70
     Davidson diagonalization with overlap
     ethr =  9.51E-05,  avg # of iterations =  4.8

     negative rho (up, down):  1.967E+00 0.000E+00

     total cpu time spent up to now is     3466.6 secs

     total energy              =   -7425.27560094 Ry
     Harris-Foulkes estimate   =   -7425.31250128 Ry
     estimated scf accuracy    <       0.12466656 Ry

     iteration #  7     ecut=    50.00 Ry     beta=0.70
     Davidson diagonalization with overlap
     ethr =  1.56E-05,  avg # of iterations = 11.0

     negative rho (up, down):  1.970E+00 0.000E+00

     total cpu time spent up to now is     3917.7 secs

     total energy              =   -7425.27760061 Ry
     Harris-Foulkes estimate   =   -7425.30416771 Ry
     estimated scf accuracy    <       0.10976922 Ry

     iteration #  8     ecut=    50.00 Ry     beta=0.70
     Davidson diagonalization with overlap
     ethr =  1.37E-05,  avg # of iterations =  3.5

     negative rho (up, down):  1.971E+00 0.000E+00

     total cpu time spent up to now is     4245.4 secs

     total energy              =   -7425.27873148 Ry
     Harris-Foulkes estimate   =   -7425.29935681 Ry
     estimated scf accuracy    <       0.08982903 Ry

     iteration #  9     ecut=    50.00 Ry     beta=0.70
     Davidson diagonalization with overlap
     ethr =  1.12E-05,  avg # of iterations =  7.0

     negative rho (up, down):  1.972E+00 0.000E+00

     total cpu time spent up to now is     4618.6 secs

     total energy              =   -7425.28606076 Ry
     Harris-Foulkes estimate   =   -7425.29253752 Ry
     estimated scf accuracy    <       0.02307259 Ry

     iteration # 10     ecut=    50.00 Ry     beta=0.70
     Davidson diagonalization with overlap
     ethr =  2.88E-06,  avg # of iterations = 11.2

     negative rho (up, down):  1.972E+00 0.000E+00

     total cpu time spent up to now is     5082.6 secs

     total energy              =   -7425.28913240 Ry
     Harris-Foulkes estimate   =   -7425.29054466 Ry
     estimated scf accuracy    <       0.00412593 Ry

     iteration # 11     ecut=    50.00 Ry     beta=0.70
     Davidson diagonalization with overlap
     ethr =  5.16E-07,  avg # of iterations =  3.8

     negative rho (up, down):  1.973E+00 0.000E+00

     total cpu time spent up to now is     5423.4 secs

     total energy              =   -7425.28972568 Ry
     Harris-Foulkes estimate   =   -7425.29016741 Ry
     estimated scf accuracy    <       0.00115588 Ry

     iteration # 12     ecut=    50.00 Ry     beta=0.70
     Davidson diagonalization with overlap
     ethr =  1.44E-07,  avg # of iterations =  2.0

     negative rho (up, down):  1.973E+00 0.000E+00

     total cpu time spent up to now is     5735.3 secs

     total energy              =   -7425.28988027 Ry
     Harris-Foulkes estimate   =   -7425.29003008 Ry
     estimated scf accuracy    <       0.00053013 Ry

     iteration # 13     ecut=    50.00 Ry     beta=0.70
     Davidson diagonalization with overlap
     ethr =  6.63E-08,  avg # of iterations =  2.0

     negative rho (up, down):  1.973E+00 0.000E+00

     total cpu time spent up to now is     6030.4 secs

     total energy              =   -7425.28991987 Ry
     Harris-Foulkes estimate   =   -7425.29002356 Ry
     estimated scf accuracy    <       0.00052682 Ry

     iteration # 14     ecut=    50.00 Ry     beta=0.70
     Davidson diagonalization with overlap
     ethr =  6.59E-08,  avg # of iterations =  2.0

     negative rho (up, down):  1.973E+00 0.000E+00

     total cpu time spent up to now is     6320.0 secs

     total energy              =   -7425.28996444 Ry
     Harris-Foulkes estimate   =   -7425.28998497 Ry
     estimated scf accuracy    <       0.00006878 Ry

     iteration # 15     ecut=    50.00 Ry     beta=0.70
     Davidson diagonalization with overlap
     ethr =  8.60E-09,  avg # of iterations =  2.0

     negative rho (up, down):  1.974E+00 0.000E+00

     total cpu time spent up to now is     6632.3 secs

     total energy              =   -7425.28996648 Ry
     Harris-Foulkes estimate   =   -7425.28998265 Ry
     estimated scf accuracy    <       0.00006016 Ry

     iteration # 16     ecut=    50.00 Ry     beta=0.70
     Davidson diagonalization with overlap
     ethr =  7.52E-09,  avg # of iterations =  2.0

     negative rho (up, down):  1.974E+00 0.000E+00

     total cpu time spent up to now is     6927.5 secs

     total energy              =   -7425.28996188 Ry
     Harris-Foulkes estimate   =   -7425.28999172 Ry
     estimated scf accuracy    <       0.00023860 Ry

     iteration # 17     ecut=    50.00 Ry     beta=0.70
     Davidson diagonalization with overlap
     ethr =  7.52E-09,  avg # of iterations =  2.0

     negative rho (up, down):  1.974E+00 0.000E+00

     total cpu time spent up to now is     7206.1 secs

     total energy              =   -7425.28997433 Ry
     Harris-Foulkes estimate   =   -7425.28997769 Ry
     estimated scf accuracy    <       0.00001231 Ry

     iteration # 18     ecut=    50.00 Ry     beta=0.70
     Davidson diagonalization with overlap
     ethr =  1.54E-09,  avg # of iterations =  2.0

     negative rho (up, down):  1.974E+00 0.000E+00

     total cpu time spent up to now is     7493.2 secs

     total energy              =   -7425.28997546 Ry
     Harris-Foulkes estimate   =   -7425.28997667 Ry
     estimated scf accuracy    <       0.00000434 Ry

     iteration # 19     ecut=    50.00 Ry     beta=0.70
     Davidson diagonalization with overlap
     ethr =  5.43E-10,  avg # of iterations =  2.0

     negative rho (up, down):  1.974E+00 0.000E+00

     total cpu time spent up to now is     7787.0 secs

     total energy              =   -7425.28997552 Ry
     Harris-Foulkes estimate   =   -7425.28997634 Ry
     estimated scf accuracy    <       0.00000231 Ry

     iteration # 20     ecut=    50.00 Ry     beta=0.70
     Davidson diagonalization with overlap
     ethr =  2.89E-10,  avg # of iterations =  2.0

     negative rho (up, down):  1.974E+00 0.000E+00

     total cpu time spent up to now is     8080.2 secs

     total energy              =   -7425.28997556 Ry
     Harris-Foulkes estimate   =   -7425.28997592 Ry
     estimated scf accuracy    <       0.00000048 Ry

     iteration # 21     ecut=    50.00 Ry     beta=0.70
     Davidson diagonalization with overlap
     ethr =  5.98E-11,  avg # of iterations =  2.0

     negative rho (up, down):  1.974E+00 0.000E+00

     total cpu time spent up to now is     8383.1 secs

     total energy              =   -7425.28997556 Ry
     Harris-Foulkes estimate   =   -7425.28997566 Ry
     estimated scf accuracy    <       0.00000009 Ry

     iteration # 22     ecut=    50.00 Ry     beta=0.70
     Davidson diagonalization with overlap
     ethr =  1.08E-11,  avg # of iterations =  3.0

     negative rho (up, down):  1.974E+00 0.000E+00

     total cpu time spent up to now is     8745.5 secs

     total energy              =   -7425.28997552 Ry
     Harris-Foulkes estimate   =   -7425.28997560 Ry
     estimated scf accuracy    <       0.00000007 Ry

     iteration # 23     ecut=    50.00 Ry     beta=0.70
     Davidson diagonalization with overlap
     ethr =  9.22E-12,  avg # of iterations =  2.0

     negative rho (up, down):  1.974E+00 0.000E+00

     total cpu time spent up to now is     9054.4 secs

     total energy              =   -7425.28997548 Ry
     Harris-Foulkes estimate   =   -7425.28997554 Ry
     estimated scf accuracy    <       0.00000010 Ry

     iteration # 24     ecut=    50.00 Ry     beta=0.70
     Davidson diagonalization with overlap
     ethr =  9.22E-12,  avg # of iterations =  2.0

     negative rho (up, down):  1.974E+00 0.000E+00

     total cpu time spent up to now is     9325.8 secs

     total energy              =   -7425.28997546 Ry
     Harris-Foulkes estimate   =   -7425.28997550 Ry
     estimated scf accuracy    <       0.00000004 Ry

     iteration # 25     ecut=    50.00 Ry     beta=0.70
     Davidson diagonalization with overlap
     ethr =  5.33E-12,  avg # of iterations =  2.0

     negative rho (up, down):  1.974E+00 0.000E+00

     total cpu time spent up to now is     9617.5 secs

     total energy              =   -7425.28997544 Ry
     Harris-Foulkes estimate   =   -7425.28997547 Ry
     estimated scf accuracy    <       0.00000001 Ry

     iteration # 26     ecut=    50.00 Ry     beta=0.70
     Davidson diagonalization with overlap
     ethr =  1.43E-12,  avg # of iterations =  2.0

     negative rho (up, down):  1.974E+00 0.000E+00

     total cpu time spent up to now is     9895.0 secs

     total energy              =   -7425.28997545 Ry
     Harris-Foulkes estimate   =   -7425.28997544 Ry
     estimated scf accuracy    <       0.00000002 Ry

     iteration # 27     ecut=    50.00 Ry     beta=0.70
     Davidson diagonalization with overlap
     ethr =  1.43E-12,  avg # of iterations =  2.0

     negative rho (up, down):  1.974E+00 0.000E+00

     total cpu time spent up to now is    10170.3 secs

     End of self-consistent calculation

          k = 0.2500 0.2500 0.0833 (167653 PWs)   bands (ev):

   -20.1884  -7.9898  -6.7026  -6.1744  -6.1738  -5.7440  -5.3445  -5.2424
    -5.2418  -5.0485  -5.0451  -4.9619  -4.9296  -4.8509  -4.8314  -4.7533
    -4.7034  -4.6679  -4.6546  -4.6253  -4.5840  -4.4610  -4.4473  -4.4470
    -4.4410  -4.4394  -4.3838  -4.3809  -4.3727  -4.3704  -4.3338  -4.3238
    -4.3143  -4.2800  -4.2797  -4.2452  -4.2449  -4.1946  -4.1893  -4.1811
    -4.1759  -4.1757  -4.1626  -4.1618  -4.1204  -4.1035  -4.1026  -4.0966
    -4.0939  -4.0632  -4.0159  -3.9997  -3.9979  -3.9960  -3.9884  -3.9823
    -3.9817  -3.9810  -3.9793  -3.9181  -3.9060  -3.8674  -3.8661  -3.8530
    -3.8280  -3.8247  -3.8052  -3.8046  -3.8012  -3.8010  -3.7947  -3.7486
    -3.7479  -3.7362  -3.7343  -3.6316  -3.6286  -3.6250  -3.6159  -3.5862
    -3.5805  -3.5634  -3.5336  -3.5324  -3.5053  -3.5026  -3.4834  -3.4817
    -3.4703  -3.4688  -3.4143  -3.4127  -3.3979  -3.3797  -3.3700  -3.3672
    -3.3667  -3.3640  -3.3392  -3.3364  -3.3028  -3.3004  -3.2814  -3.2780
    -3.2485  -3.2456  -3.2283  -3.2020  -3.2008  -3.1637  -3.1632  -3.1266
    -3.1194  -3.1190  -3.1062  -3.1025  -3.1001  -3.0978  -3.0641  -3.0513
    -3.0113  -3.0109  -3.0023  -2.9938  -2.9924  -2.9911  -2.9677  -2.9669
    -2.9466  -2.9454  -2.9449  -2.9185  -2.9171  -2.9104  -2.9091  -2.9060
    -2.8719  -2.8677  -2.8329  -2.8324  -2.8311  -2.8288  -2.8274  -2.7480
    -2.7383  -2.7352  -2.7338  -2.7331  -2.7318  -2.7290  -2.7283  -2.7270
    -2.7269  -2.7170  -2.7092  -2.6946  -2.6915  -2.6894  -2.6878  -2.6740
    -2.6729  -2.6327  -2.6315  -2.6310  -2.6278  -2.6243  -2.6089  -2.6073
    -2.6011  -2.5993  -2.5963  -2.5445  -2.5376  -2.5334  -2.5312  -2.5306
    -2.5266  -2.4974  -2.4464  -2.4391  -2.4385  -2.4360  -2.4303  -2.4245
    -2.4190  -2.4108  -2.4075  -2.3796  -2.3716  -2.3676  -2.3628  -2.3615
    -2.3582  -2.3294  -2.3219  -2.3135  -2.3112  -2.3095  -2.3082  -2.3005
    -2.2651  -2.2414  -2.2288  -2.1917  -2.1887  -2.1734  -2.1723  -2.1646
    -2.1595  -2.1184  -2.1120  -2.0939  -2.0748  -2.0642  -2.0632  -2.0612
    -2.0400  -2.0383  -2.0305  -2.0139  -1.9749  -1.9719  -1.9597  -1.9587
    -1.9541  -1.9479  -1.9452  -1.9343  -1.9322  -1.9302  -1.9270  -1.9249
    -1.9217  -1.9179  -1.9101  -1.9083  -1.8916  -1.8911  -1.8845  -1.8824
    -1.8803  -1.8780  -1.8567  -1.8559  -1.8446  -1.8436  -1.8386  -1.8324
    -1.7991  -1.7675  -1.7648  -1.7303  -1.7142  -1.7124  -1.7019  -1.7012
    -1.6801  -1.6729  -1.6648  -1.6642  -1.6631  -1.6615  -1.6574  -1.6527
    -1.6266  -1.6253  -1.6215  -1.5813  -1.5777  -1.5405  -1.5388  -1.4929
    -1.4916  -1.4793  -1.4575  -1.4511  -1.4498  -1.4330  -1.4324  -1.4153
    -1.4142  -1.4107  -1.4095  -1.4089  -1.4080  -1.4034  -1.3992  -1.3842
    -1.3836  -1.3673  -1.3568  -1.3389  -1.3384  -1.3119  -1.3114  -1.3092
    -1.3089  -1.3044  -1.2964  -1.2811  -1.2758  -1.2663  -1.2577  -1.2447
    -1.2422  -1.2285  -1.2242  -1.1975  -1.1971  -1.1896  -1.1849  -1.1537
    -1.1502  -1.1447  -1.1401  -1.1372  -1.1333  -1.1142  -1.1137  -1.1030
    -1.0955  -1.0940  -1.0835  -1.0829  -1.0818  -1.0727  -1.0679  -1.0561
    -1.0512  -1.0476  -1.0474  -1.0369  -1.0318  -1.0259  -1.0248  -0.9856
    -0.9817  -0.9783  -0.9757  -0.9755  -0.9706  -0.9366  -0.9204  -0.9185
    -0.9183  -0.9170  -0.9122  -0.9084  -0.9072  -0.8934  -0.8871  -0.8586
    -0.8533  -0.8494  -0.8478  -0.8267  -0.8260  -0.8168  -0.7876  -0.7798
    -0.7523  -0.7518  -0.7239  -0.7235  -0.7199  -0.7197  -0.7183  -0.7139
    -0.7097  -0.7096  -0.7050  -0.7022  -0.6735  -0.6720  -0.6572  -0.6521
    -0.6495  -0.6493  -0.6473  -0.6289  -0.6266  -0.3536  -0.3426  -0.2916
    -0.2700  -0.2460  -0.0832  -0.0223  -0.0189   0.0178   0.2954   0.3056
     0.6220   0.6393   0.7256   0.7303   0.7653   0.7749   0.9072   0.9261
     1.0357   1.0382   1.1270   1.7235   1.7415   1.7422   1.7793   1.7858
     1.8162   1.8418   1.9067   1.9240   2.1155   2.1237   2.3491   2.4263
     2.4429   2.4531   2.8179   2.8362   2.9023   2.9058   2.9103   2.9168
     3.0609   3.0632   3.0803   3.1973   3.2181   3.4348   3.4502   3.5730
     3.5952   3.6046   3.8644   3.8785   3.9720   3.9841   4.0033   4.0073
     4.0427   4.1874   4.1949   4.4262   4.4278   4.4950   4.5123   4.6057
     4.6381   4.6495   4.6596   4.6836   4.8748   5.3788   5.4219   5.4506
     5.5485   5.5740   5.6099   5.6605   5.7465   5.7540   5.7611   5.8581
     5.8625   5.9181   5.9237   5.9518   6.0099   6.0381   6.0892   6.1471
     6.1911   6.2189   6.2258   6.2423   6.2506   6.2560   6.2660   6.2721

          k = 0.2500 0.2500-0.2500 (167588 PWs)   bands (ev):

   -20.1884  -7.9898  -6.7026  -6.1744  -6.1738  -5.7440  -5.3445  -5.2424
    -5.2418  -5.0485  -5.0451  -4.9619  -4.9296  -4.8509  -4.8314  -4.7533
    -4.7034  -4.6679  -4.6546  -4.6253  -4.5840  -4.4610  -4.4473  -4.4470
    -4.4410  -4.4394  -4.3838  -4.3809  -4.3727  -4.3704  -4.3338  -4.3238
    -4.3143  -4.2800  -4.2797  -4.2452  -4.2450  -4.1946  -4.1893  -4.1811
    -4.1759  -4.1757  -4.1626  -4.1618  -4.1204  -4.1035  -4.1026  -4.0966
    -4.0939  -4.0632  -4.0159  -3.9997  -3.9979  -3.9960  -3.9884  -3.9823
    -3.9817  -3.9810  -3.9793  -3.9181  -3.9060  -3.8674  -3.8661  -3.8530
    -3.8280  -3.8247  -3.8052  -3.8046  -3.8012  -3.8010  -3.7947  -3.7486
    -3.7479  -3.7362  -3.7343  -3.6316  -3.6286  -3.6250  -3.6159  -3.5862
    -3.5805  -3.5634  -3.5336  -3.5324  -3.5053  -3.5026  -3.4834  -3.4817
    -3.4703  -3.4688  -3.4143  -3.4127  -3.3979  -3.3797  -3.3700  -3.3672
    -3.3667  -3.3640  -3.3392  -3.3364  -3.3028  -3.3004  -3.2814  -3.2780
    -3.2485  -3.2456  -3.2283  -3.2020  -3.2008  -3.1637  -3.1632  -3.1266
    -3.1194  -3.1190  -3.1062  -3.1025  -3.1001  -3.0978  -3.0641  -3.0513
    -3.0113  -3.0109  -3.0022  -2.9938  -2.9924  -2.9911  -2.9677  -2.9669
    -2.9466  -2.9454  -2.9449  -2.9185  -2.9171  -2.9104  -2.9090  -2.9060
    -2.8719  -2.8677  -2.8329  -2.8324  -2.8311  -2.8288  -2.8274  -2.7480
    -2.7383  -2.7352  -2.7338  -2.7331  -2.7318  -2.7290  -2.7283  -2.7270
    -2.7269  -2.7170  -2.7092  -2.6946  -2.6915  -2.6894  -2.6878  -2.6740
    -2.6729  -2.6327  -2.6315  -2.6310  -2.6278  -2.6243  -2.6088  -2.6073
    -2.6011  -2.5993  -2.5963  -2.5445  -2.5376  -2.5334  -2.5312  -2.5306
    -2.5266  -2.4974  -2.4464  -2.4391  -2.4385  -2.4360  -2.4303  -2.4245
    -2.4190  -2.4108  -2.4075  -2.3796  -2.3716  -2.3676  -2.3628  -2.3615
    -2.3582  -2.3294  -2.3219  -2.3135  -2.3112  -2.3095  -2.3082  -2.3005
    -2.2651  -2.2414  -2.2288  -2.1917  -2.1887  -2.1734  -2.1723  -2.1646
    -2.1595  -2.1184  -2.1120  -2.0940  -2.0748  -2.0642  -2.0632  -2.0611
    -2.0400  -2.0383  -2.0305  -2.0139  -1.9749  -1.9719  -1.9597  -1.9587
    -1.9541  -1.9479  -1.9452  -1.9343  -1.9322  -1.9302  -1.9270  -1.9249
    -1.9217  -1.9179  -1.9101  -1.9083  -1.8916  -1.8911  -1.8845  -1.8824
    -1.8803  -1.8780  -1.8567  -1.8559  -1.8446  -1.8436  -1.8386  -1.8324
    -1.7991  -1.7675  -1.7648  -1.7303  -1.7141  -1.7124  -1.7019  -1.7011
    -1.6801  -1.6729  -1.6648  -1.6642  -1.6631  -1.6615  -1.6574  -1.6527
    -1.6266  -1.6253  -1.6215  -1.5812  -1.5777  -1.5405  -1.5388  -1.4929
    -1.4916  -1.4794  -1.4575  -1.4511  -1.4498  -1.4330  -1.4324  -1.4153
    -1.4142  -1.4107  -1.4095  -1.4089  -1.4080  -1.4034  -1.3992  -1.3842
    -1.3836  -1.3673  -1.3568  -1.3389  -1.3384  -1.3119  -1.3114  -1.3092
    -1.3089  -1.3044  -1.2963  -1.2811  -1.2758  -1.2663  -1.2577  -1.2447
    -1.2422  -1.2285  -1.2242  -1.1975  -1.1971  -1.1896  -1.1849  -1.1537
    -1.1501  -1.1447  -1.1401  -1.1372  -1.1333  -1.1142  -1.1137  -1.1030
    -1.0955  -1.0940  -1.0835  -1.0829  -1.0818  -1.0727  -1.0679  -1.0561
    -1.0512  -1.0476  -1.0474  -1.0369  -1.0318  -1.0259  -1.0248  -0.9856
    -0.9817  -0.9783  -0.9757  -0.9755  -0.9706  -0.9366  -0.9204  -0.9185
    -0.9183  -0.9170  -0.9122  -0.9084  -0.9072  -0.8934  -0.8871  -0.8586
    -0.8533  -0.8494  -0.8478  -0.8267  -0.8260  -0.8168  -0.7876  -0.7798
    -0.7523  -0.7518  -0.7239  -0.7235  -0.7199  -0.7197  -0.7183  -0.7139
    -0.7097  -0.7096  -0.7050  -0.7022  -0.6735  -0.6720  -0.6572  -0.6521
    -0.6495  -0.6493  -0.6473  -0.6289  -0.6266  -0.3536  -0.3426  -0.2916
    -0.2700  -0.2460  -0.0832  -0.0223  -0.0189   0.0178   0.2954   0.3056
     0.6220   0.6393   0.7256   0.7303   0.7653   0.7750   0.9072   0.9261
     1.0357   1.0382   1.1270   1.7235   1.7415   1.7422   1.7793   1.7858
     1.8162   1.8418   1.9067   1.9240   2.1155   2.1237   2.3491   2.4263
     2.4429   2.4531   2.8179   2.8362   2.9023   2.9058   2.9103   2.9168
     3.0609   3.0632   3.0803   3.1973   3.2181   3.4348   3.4502   3.5730
     3.5952   3.6046   3.8644   3.8785   3.9721   3.9842   4.0034   4.0073
     4.0428   4.1874   4.1949   4.4262   4.4278   4.4949   4.5123   4.6052
     4.6380   4.6495   4.6595   4.6835   4.8732   5.3766   5.4094   5.4368
     5.5472   5.5733   5.6248   5.7235   5.7465   5.7520   5.7615   5.8575
     5.8622   5.9181   5.9252   5.9572   5.9821   6.0589   6.0813   6.1800
     6.2024   6.2220   6.2341   6.2426   6.2525   6.2565   6.2676   6.2721

          k =-0.2500-0.2500 0.0833 (167653 PWs)   bands (ev):

   -20.1884  -7.9898  -6.7026  -6.1744  -6.1738  -5.7440  -5.3445  -5.2424
    -5.2418  -5.0485  -5.0451  -4.9619  -4.9296  -4.8509  -4.8314  -4.7533
    -4.7034  -4.6679  -4.6546  -4.6253  -4.5840  -4.4610  -4.4473  -4.4470
    -4.4410  -4.4394  -4.3838  -4.3809  -4.3727  -4.3704  -4.3338  -4.3238
    -4.3143  -4.2800  -4.2797  -4.2452  -4.2449  -4.1946  -4.1893  -4.1811
    -4.1759  -4.1757  -4.1626  -4.1618  -4.1204  -4.1035  -4.1026  -4.0966
    -4.0939  -4.0632  -4.0159  -3.9997  -3.9979  -3.9960  -3.9884  -3.9823
    -3.9817  -3.9810  -3.9793  -3.9181  -3.9060  -3.8674  -3.8661  -3.8530
    -3.8280  -3.8247  -3.8052  -3.8046  -3.8012  -3.8010  -3.7947  -3.7486
    -3.7479  -3.7362  -3.7343  -3.6316  -3.6286  -3.6250  -3.6159  -3.5862
    -3.5805  -3.5634  -3.5336  -3.5324  -3.5053  -3.5026  -3.4834  -3.4817
    -3.4703  -3.4688  -3.4143  -3.4127  -3.3979  -3.3797  -3.3700  -3.3672
    -3.3667  -3.3640  -3.3392  -3.3364  -3.3028  -3.3004  -3.2814  -3.2780
    -3.2485  -3.2456  -3.2283  -3.2020  -3.2008  -3.1637  -3.1632  -3.1266
    -3.1194  -3.1190  -3.1062  -3.1025  -3.1001  -3.0978  -3.0641  -3.0513
    -3.0113  -3.0109  -3.0023  -2.9938  -2.9924  -2.9911  -2.9677  -2.9669
    -2.9466  -2.9454  -2.9449  -2.9185  -2.9171  -2.9104  -2.9091  -2.9060
    -2.8719  -2.8677  -2.8329  -2.8324  -2.8311  -2.8288  -2.8274  -2.7480
    -2.7383  -2.7352  -2.7338  -2.7331  -2.7318  -2.7290  -2.7283  -2.7270
    -2.7269  -2.7170  -2.7092  -2.6946  -2.6915  -2.6894  -2.6878  -2.6740
    -2.6729  -2.6327  -2.6315  -2.6310  -2.6278  -2.6243  -2.6089  -2.6073
    -2.6011  -2.5993  -2.5963  -2.5445  -2.5376  -2.5334  -2.5312  -2.5306
    -2.5266  -2.4974  -2.4464  -2.4391  -2.4385  -2.4360  -2.4303  -2.4245
    -2.4190  -2.4108  -2.4075  -2.3796  -2.3716  -2.3676  -2.3628  -2.3615
    -2.3582  -2.3294  -2.3219  -2.3135  -2.3112  -2.3095  -2.3082  -2.3005
    -2.2651  -2.2414  -2.2288  -2.1917  -2.1887  -2.1734  -2.1723  -2.1646
    -2.1595  -2.1184  -2.1120  -2.0939  -2.0748  -2.0642  -2.0632  -2.0612
    -2.0400  -2.0383  -2.0305  -2.0139  -1.9749  -1.9719  -1.9597  -1.9587
    -1.9541  -1.9479  -1.9452  -1.9343  -1.9322  -1.9302  -1.9270  -1.9249
    -1.9217  -1.9179  -1.9101  -1.9083  -1.8916  -1.8911  -1.8845  -1.8824
    -1.8803  -1.8780  -1.8567  -1.8559  -1.8446  -1.8436  -1.8386  -1.8324
    -1.7991  -1.7675  -1.7648  -1.7303  -1.7142  -1.7124  -1.7019  -1.7012
    -1.6801  -1.6729  -1.6648  -1.6642  -1.6631  -1.6615  -1.6574  -1.6527
    -1.6266  -1.6253  -1.6215  -1.5813  -1.5777  -1.5405  -1.5388  -1.4929
    -1.4916  -1.4793  -1.4575  -1.4511  -1.4498  -1.4330  -1.4324  -1.4153
    -1.4142  -1.4107  -1.4095  -1.4089  -1.4080  -1.4034  -1.3992  -1.3842
    -1.3836  -1.3673  -1.3568  -1.3389  -1.3384  -1.3119  -1.3114  -1.3092
    -1.3089  -1.3044  -1.2964  -1.2811  -1.2758  -1.2663  -1.2577  -1.2447
    -1.2422  -1.2285  -1.2242  -1.1975  -1.1971  -1.1896  -1.1849  -1.1537
    -1.1502  -1.1447  -1.1401  -1.1372  -1.1333  -1.1142  -1.1137  -1.1030
    -1.0955  -1.0940  -1.0835  -1.0829  -1.0818  -1.0727  -1.0679  -1.0561
    -1.0512  -1.0476  -1.0474  -1.0369  -1.0318  -1.0259  -1.0248  -0.9856
    -0.9817  -0.9783  -0.9757  -0.9755  -0.9706  -0.9366  -0.9204  -0.9185
    -0.9183  -0.9170  -0.9122  -0.9084  -0.9072  -0.8934  -0.8871  -0.8586
    -0.8533  -0.8494  -0.8478  -0.8267  -0.8260  -0.8168  -0.7876  -0.7798
    -0.7523  -0.7518  -0.7239  -0.7235  -0.7199  -0.7197  -0.7183  -0.7139
    -0.7097  -0.7096  -0.7050  -0.7022  -0.6735  -0.6720  -0.6572  -0.6521
    -0.6495  -0.6493  -0.6473  -0.6289  -0.6266  -0.3536  -0.3426  -0.2916
    -0.2700  -0.2460  -0.0832  -0.0223  -0.0189   0.0178   0.2954   0.3056
     0.6220   0.6393   0.7256   0.7303   0.7653   0.7749   0.9072   0.9261
     1.0357   1.0382   1.1270   1.7235   1.7415   1.7422   1.7793   1.7858
     1.8162   1.8418   1.9067   1.9240   2.1155   2.1237   2.3491   2.4263
     2.4429   2.4531   2.8179   2.8362   2.9023   2.9058   2.9103   2.9168
     3.0609   3.0632   3.0803   3.1973   3.2181   3.4348   3.4502   3.5730
     3.5952   3.6046   3.8644   3.8785   3.9720   3.9841   4.0033   4.0073
     4.0427   4.1874   4.1949   4.4262   4.4278   4.4950   4.5123   4.6057
     4.6381   4.6495   4.6596   4.6836   4.8748   5.3788   5.4220   5.4505
     5.5485   5.5740   5.6104   5.6602   5.7465   5.7540   5.7612   5.8581
     5.8625   5.9181   5.9236   5.9517   6.0101   6.0371   6.0888   6.1477
     6.1910   6.2191   6.2263   6.2422   6.2506   6.2560   6.2660   6.2720

          k =-0.2500 0.2500-0.0833 (167653 PWs)   bands (ev):

   -20.1884  -7.9898  -6.7027  -6.1743  -6.1735  -5.7447  -5.3450  -5.2441
    -5.2417  -5.0455  -5.0446  -4.9583  -4.9286  -4.8487  -4.8407  -4.7602
    -4.6846  -4.6641  -4.6414  -4.6253  -4.6156  -4.4587  -4.4475  -4.4467
    -4.4458  -4.4394  -4.3839  -4.3833  -4.3720  -4.3686  -4.3345  -4.3229
    -4.3103  -4.2798  -4.2787  -4.2464  -4.2434  -4.1940  -4.1917  -4.1811
    -4.1774  -4.1744  -4.1626  -4.1613  -4.1169  -4.1033  -4.1025  -4.0965
    -4.0955  -4.0595  -4.0095  -3.9993  -3.9982  -3.9970  -3.9913  -3.9873
    -3.9813  -3.9813  -3.9785  -3.9175  -3.9128  -3.8667  -3.8616  -3.8507
    -3.8281  -3.8256  -3.8095  -3.8050  -3.8046  -3.7986  -3.7959  -3.7482
    -3.7470  -3.7356  -3.7342  -3.6308  -3.6278  -3.6245  -3.6201  -3.5856
    -3.5804  -3.5634  -3.5336  -3.5333  -3.5047  -3.5025  -3.4837  -3.4835
    -3.4696  -3.4676  -3.4141  -3.4136  -3.3918  -3.3803  -3.3673  -3.3670
    -3.3663  -3.3639  -3.3396  -3.3394  -3.3021  -3.2998  -3.2812  -3.2806
    -3.2473  -3.2471  -3.2288  -3.2007  -3.1982  -3.1633  -3.1628  -3.1279
    -3.1197  -3.1186  -3.1060  -3.1057  -3.1000  -3.0993  -3.0637  -3.0517
    -3.0114  -3.0103  -3.0023  -2.9937  -2.9927  -2.9913  -2.9677  -2.9668
    -2.9461  -2.9458  -2.9453  -2.9185  -2.9175  -2.9106  -2.9079  -2.9067
    -2.8711  -2.8683  -2.8326  -2.8320  -2.8297  -2.8287  -2.8280  -2.7479
    -2.7386  -2.7348  -2.7342  -2.7332  -2.7329  -2.7283  -2.7274  -2.7271
    -2.7254  -2.7171  -2.7092  -2.6952  -2.6906  -2.6896  -2.6849  -2.6750
    -2.6662  -2.6335  -2.6319  -2.6311  -2.6282  -2.6263  -2.6083  -2.6075
    -2.5999  -2.5986  -2.5964  -2.5433  -2.5382  -2.5333  -2.5319  -2.5291
    -2.5220  -2.5021  -2.4563  -2.4394  -2.4389  -2.4357  -2.4289  -2.4242
    -2.4216  -2.4089  -2.4072  -2.3843  -2.3712  -2.3658  -2.3620  -2.3616
    -2.3595  -2.3313  -2.3213  -2.3157  -2.3106  -2.3099  -2.3071  -2.2912
    -2.2649  -2.2493  -2.2259  -2.1916  -2.1903  -2.1754  -2.1697  -2.1675
    -2.1566  -2.1188  -2.1117  -2.0937  -2.0757  -2.0634  -2.0632  -2.0588
    -2.0406  -2.0389  -2.0308  -2.0143  -1.9755  -1.9726  -1.9601  -1.9595
    -1.9577  -1.9477  -1.9457  -1.9344  -1.9306  -1.9295  -1.9268  -1.9237
    -1.9222  -1.9212  -1.9104  -1.9074  -1.8923  -1.8911  -1.8891  -1.8823
    -1.8798  -1.8790  -1.8570  -1.8554  -1.8443  -1.8425  -1.8372  -1.8341
    -1.7995  -1.7667  -1.7648  -1.7304  -1.7138  -1.7129  -1.7035  -1.6986
    -1.6804  -1.6746  -1.6654  -1.6637  -1.6621  -1.6613  -1.6593  -1.6418
    -1.6260  -1.6254  -1.6234  -1.5811  -1.5775  -1.5412  -1.5377  -1.4935
    -1.4909  -1.4793  -1.4575  -1.4515  -1.4497  -1.4334  -1.4310  -1.4158
    -1.4150  -1.4110  -1.4094  -1.4092  -1.4080  -1.4029  -1.3996  -1.3852
    -1.3832  -1.3705  -1.3567  -1.3383  -1.3352  -1.3121  -1.3115  -1.3092
    -1.3075  -1.3046  -1.2968  -1.2823  -1.2754  -1.2661  -1.2574  -1.2443
    -1.2423  -1.2273  -1.2252  -1.1976  -1.1968  -1.1897  -1.1856  -1.1536
    -1.1524  -1.1448  -1.1424  -1.1372  -1.1306  -1.1144  -1.1140  -1.1027
    -1.0948  -1.0945  -1.0830  -1.0824  -1.0821  -1.0744  -1.0674  -1.0571
    -1.0533  -1.0478  -1.0472  -1.0366  -1.0316  -1.0251  -1.0204  -0.9834
    -0.9830  -0.9784  -0.9759  -0.9737  -0.9730  -0.9366  -0.9201  -0.9196
    -0.9178  -0.9170  -0.9145  -0.9083  -0.8971  -0.8932  -0.8908  -0.8564
    -0.8538  -0.8490  -0.8483  -0.8266  -0.8264  -0.8168  -0.7871  -0.7794
    -0.7524  -0.7512  -0.7240  -0.7234  -0.7197  -0.7196  -0.7185  -0.7138
    -0.7095  -0.7086  -0.7054  -0.7051  -0.6734  -0.6723  -0.6567  -0.6521
    -0.6496  -0.6493  -0.6461  -0.6289  -0.6276  -0.3540  -0.3425  -0.2895
    -0.2716  -0.2460  -0.0865  -0.0218  -0.0205   0.0179   0.2973   0.3042
     0.6244   0.6381   0.7255   0.7297   0.7656   0.7724   0.9118   0.9186
     1.0357   1.0387   1.1268   1.7220   1.7406   1.7435   1.7806   1.7857
     1.8201   1.8429   1.9103   1.9188   2.1163   2.1228   2.3516   2.4280
     2.4455   2.4506   2.8204   2.8376   2.9032   2.9058   2.9108   2.9151
     3.0602   3.0635   3.0824   3.2025   3.2067   3.4360   3.4405   3.5724
     3.5984   3.6047   3.8689   3.8705   3.9779   3.9817   4.0034   4.0088
     4.0448   4.1877   4.1921   4.4226   4.4284   4.4977   4.5104   4.5906
     4.6374   4.6428   4.6564   4.6995   4.8874   5.3823   5.4229   5.4691
     5.5600   5.5706   5.5946   5.6423   5.7483   5.7511   5.7572   5.8583
     5.8679   5.9149   5.9203   5.9610   6.0089   6.0291   6.0976   6.1399
     6.1964   6.2243   6.2353   6.2436   6.2469   6.2543   6.2683   6.2725

          k = 0.2500-0.2500-0.0833 (167653 PWs)   bands (ev):

   -20.1884  -7.9898  -6.7027  -6.1743  -6.1735  -5.7447  -5.3450  -5.2441
    -5.2417  -5.0455  -5.0446  -4.9583  -4.9286  -4.8487  -4.8407  -4.7602
    -4.6846  -4.6641  -4.6414  -4.6253  -4.6156  -4.4587  -4.4475  -4.4467
    -4.4458  -4.4394  -4.3839  -4.3833  -4.3720  -4.3686  -4.3345  -4.3229
    -4.3103  -4.2798  -4.2787  -4.2464  -4.2434  -4.1940  -4.1917  -4.1811
    -4.1774  -4.1744  -4.1626  -4.1613  -4.1169  -4.1033  -4.1025  -4.0965
    -4.0955  -4.0595  -4.0095  -3.9993  -3.9982  -3.9970  -3.9913  -3.9873
    -3.9813  -3.9813  -3.9785  -3.9175  -3.9128  -3.8667  -3.8616  -3.8507
    -3.8281  -3.8256  -3.8095  -3.8050  -3.8046  -3.7986  -3.7959  -3.7482
    -3.7470  -3.7356  -3.7342  -3.6308  -3.6278  -3.6245  -3.6201  -3.5856
    -3.5804  -3.5634  -3.5336  -3.5333  -3.5047  -3.5025  -3.4837  -3.4835
    -3.4696  -3.4676  -3.4141  -3.4136  -3.3918  -3.3803  -3.3673  -3.3670
    -3.3663  -3.3639  -3.3396  -3.3394  -3.3021  -3.2998  -3.2812  -3.2806
    -3.2473  -3.2471  -3.2288  -3.2007  -3.1982  -3.1633  -3.1628  -3.1279
    -3.1197  -3.1186  -3.1060  -3.1057  -3.1000  -3.0993  -3.0637  -3.0517
    -3.0114  -3.0103  -3.0023  -2.9937  -2.9927  -2.9913  -2.9677  -2.9668
    -2.9461  -2.9458  -2.9453  -2.9185  -2.9175  -2.9106  -2.9079  -2.9067
    -2.8711  -2.8683  -2.8326  -2.8320  -2.8297  -2.8287  -2.8280  -2.7479
    -2.7386  -2.7348  -2.7342  -2.7332  -2.7329  -2.7283  -2.7274  -2.7271
    -2.7254  -2.7171  -2.7092  -2.6952  -2.6906  -2.6896  -2.6849  -2.6750
    -2.6662  -2.6335  -2.6319  -2.6311  -2.6282  -2.6263  -2.6083  -2.6075
    -2.5999  -2.5986  -2.5964  -2.5433  -2.5382  -2.5333  -2.5319  -2.5291
    -2.5220  -2.5021  -2.4563  -2.4394  -2.4389  -2.4357  -2.4289  -2.4242
    -2.4216  -2.4089  -2.4072  -2.3843  -2.3712  -2.3658  -2.3620  -2.3616
    -2.3595  -2.3313  -2.3213  -2.3157  -2.3106  -2.3099  -2.3071  -2.2912
    -2.2649  -2.2493  -2.2259  -2.1916  -2.1903  -2.1754  -2.1697  -2.1675
    -2.1566  -2.1188  -2.1117  -2.0937  -2.0757  -2.0634  -2.0632  -2.0588
    -2.0406  -2.0389  -2.0308  -2.0143  -1.9755  -1.9726  -1.9601  -1.9595
    -1.9577  -1.9477  -1.9457  -1.9344  -1.9306  -1.9295  -1.9268  -1.9237
    -1.9222  -1.9212  -1.9104  -1.9074  -1.8923  -1.8911  -1.8891  -1.8823
    -1.8798  -1.8790  -1.8570  -1.8554  -1.8443  -1.8425  -1.8372  -1.8341
    -1.7995  -1.7667  -1.7648  -1.7304  -1.7138  -1.7129  -1.7035  -1.6986
    -1.6804  -1.6746  -1.6654  -1.6637  -1.6621  -1.6613  -1.6593  -1.6418
    -1.6260  -1.6254  -1.6234  -1.5811  -1.5775  -1.5412  -1.5377  -1.4935
    -1.4909  -1.4793  -1.4575  -1.4515  -1.4497  -1.4334  -1.4310  -1.4158
    -1.4150  -1.4110  -1.4094  -1.4092  -1.4080  -1.4029  -1.3996  -1.3852
    -1.3832  -1.3705  -1.3567  -1.3383  -1.3352  -1.3121  -1.3115  -1.3092
    -1.3075  -1.3046  -1.2968  -1.2823  -1.2754  -1.2661  -1.2574  -1.2443
    -1.2423  -1.2273  -1.2252  -1.1976  -1.1968  -1.1897  -1.1856  -1.1536
    -1.1524  -1.1448  -1.1424  -1.1372  -1.1306  -1.1144  -1.1140  -1.1027
    -1.0948  -1.0945  -1.0830  -1.0824  -1.0821  -1.0744  -1.0674  -1.0571
    -1.0533  -1.0478  -1.0472  -1.0366  -1.0316  -1.0251  -1.0204  -0.9834
    -0.9830  -0.9784  -0.9759  -0.9737  -0.9730  -0.9366  -0.9201  -0.9196
    -0.9178  -0.9170  -0.9145  -0.9083  -0.8971  -0.8932  -0.8908  -0.8564
    -0.8538  -0.8490  -0.8483  -0.8266  -0.8264  -0.8168  -0.7871  -0.7794
    -0.7524  -0.7512  -0.7240  -0.7234  -0.7197  -0.7196  -0.7185  -0.7138
    -0.7095  -0.7086  -0.7054  -0.7051  -0.6734  -0.6723  -0.6567  -0.6521
    -0.6496  -0.6493  -0.6461  -0.6289  -0.6276  -0.3540  -0.3425  -0.2895
    -0.2716  -0.2460  -0.0865  -0.0218  -0.0205   0.0179   0.2973   0.3042
     0.6244   0.6381   0.7255   0.7297   0.7656   0.7724   0.9118   0.9186
     1.0357   1.0387   1.1268   1.7220   1.7406   1.7435   1.7806   1.7857
     1.8201   1.8429   1.9103   1.9188   2.1163   2.1228   2.3516   2.4280
     2.4455   2.4506   2.8204   2.8376   2.9032   2.9058   2.9108   2.9151
     3.0602   3.0635   3.0824   3.2025   3.2067   3.4360   3.4405   3.5724
     3.5984   3.6047   3.8689   3.8705   3.9779   3.9817   4.0034   4.0088
     4.0448   4.1877   4.1921   4.4226   4.4284   4.4977   4.5104   4.5906
     4.6374   4.6428   4.6564   4.6995   4.8874   5.3823   5.4228   5.4693
     5.5600   5.5705   5.5941   5.6427   5.7483   5.7511   5.7572   5.8583
     5.8679   5.9149   5.9203   5.9611   6.0088   6.0296   6.0984   6.1393
     6.1966   6.2239   6.2351   6.2439   6.2468   6.2543   6.2683   6.2725

          k =-0.2500 0.2500 0.2500 (167588 PWs)   bands (ev):

   -20.1884  -7.9898  -6.7027  -6.1743  -6.1735  -5.7447  -5.3450  -5.2441
    -5.2417  -5.0455  -5.0446  -4.9583  -4.9286  -4.8487  -4.8407  -4.7602
    -4.6846  -4.6641  -4.6414  -4.6253  -4.6156  -4.4587  -4.4475  -4.4466
    -4.4458  -4.4394  -4.3839  -4.3833  -4.3720  -4.3686  -4.3345  -4.3229
    -4.3103  -4.2798  -4.2787  -4.2464  -4.2434  -4.1940  -4.1917  -4.1811
    -4.1774  -4.1745  -4.1626  -4.1613  -4.1169  -4.1033  -4.1025  -4.0965
    -4.0955  -4.0595  -4.0095  -3.9992  -3.9982  -3.9970  -3.9913  -3.9873
    -3.9813  -3.9813  -3.9785  -3.9175  -3.9128  -3.8667  -3.8616  -3.8507
    -3.8281  -3.8256  -3.8095  -3.8050  -3.8045  -3.7986  -3.7959  -3.7482
    -3.7470  -3.7356  -3.7341  -3.6308  -3.6278  -3.6246  -3.6201  -3.5856
    -3.5804  -3.5634  -3.5336  -3.5333  -3.5047  -3.5025  -3.4837  -3.4835
    -3.4696  -3.4676  -3.4141  -3.4136  -3.3918  -3.3803  -3.3673  -3.3670
    -3.3663  -3.3639  -3.3396  -3.3394  -3.3021  -3.2998  -3.2812  -3.2806
    -3.2473  -3.2471  -3.2288  -3.2007  -3.1982  -3.1633  -3.1628  -3.1279
    -3.1197  -3.1186  -3.1060  -3.1056  -3.1000  -3.0993  -3.0638  -3.0517
    -3.0114  -3.0103  -3.0023  -2.9937  -2.9927  -2.9913  -2.9677  -2.9668
    -2.9461  -2.9458  -2.9453  -2.9185  -2.9174  -2.9106  -2.9079  -2.9067
    -2.8711  -2.8683  -2.8326  -2.8320  -2.8297  -2.8287  -2.8280  -2.7479
    -2.7386  -2.7348  -2.7342  -2.7332  -2.7329  -2.7283  -2.7274  -2.7271
    -2.7254  -2.7171  -2.7092  -2.6952  -2.6906  -2.6896  -2.6849  -2.6750
    -2.6662  -2.6335  -2.6319  -2.6311  -2.6282  -2.6263  -2.6083  -2.6075
    -2.5999  -2.5986  -2.5964  -2.5433  -2.5382  -2.5333  -2.5319  -2.5291
    -2.5220  -2.5021  -2.4562  -2.4394  -2.4389  -2.4357  -2.4289  -2.4242
    -2.4216  -2.4089  -2.4072  -2.3843  -2.3712  -2.3658  -2.3620  -2.3616
    -2.3595  -2.3313  -2.3213  -2.3157  -2.3105  -2.3099  -2.3071  -2.2912
    -2.2649  -2.2493  -2.2259  -2.1916  -2.1903  -2.1754  -2.1698  -2.1675
    -2.1566  -2.1188  -2.1117  -2.0937  -2.0757  -2.0634  -2.0632  -2.0588
    -2.0406  -2.0389  -2.0308  -2.0143  -1.9755  -1.9726  -1.9601  -1.9594
    -1.9577  -1.9477  -1.9457  -1.9344  -1.9306  -1.9295  -1.9268  -1.9237
    -1.9222  -1.9212  -1.9104  -1.9074  -1.8923  -1.8911  -1.8891  -1.8823
    -1.8798  -1.8790  -1.8570  -1.8554  -1.8443  -1.8425  -1.8372  -1.8341
    -1.7995  -1.7667  -1.7648  -1.7304  -1.7138  -1.7129  -1.7035  -1.6986
    -1.6804  -1.6746  -1.6654  -1.6637  -1.6621  -1.6613  -1.6592  -1.6418
    -1.6260  -1.6254  -1.6234  -1.5811  -1.5775  -1.5412  -1.5377  -1.4935
    -1.4910  -1.4793  -1.4575  -1.4515  -1.4497  -1.4334  -1.4310  -1.4158
    -1.4150  -1.4110  -1.4094  -1.4092  -1.4080  -1.4029  -1.3996  -1.3852
    -1.3832  -1.3705  -1.3567  -1.3383  -1.3352  -1.3121  -1.3115  -1.3091
    -1.3075  -1.3046  -1.2967  -1.2823  -1.2754  -1.2661  -1.2574  -1.2443
    -1.2423  -1.2272  -1.2252  -1.1976  -1.1968  -1.1897  -1.1856  -1.1535
    -1.1524  -1.1448  -1.1424  -1.1372  -1.1306  -1.1144  -1.1140  -1.1027
    -1.0948  -1.0945  -1.0830  -1.0824  -1.0821  -1.0744  -1.0674  -1.0571
    -1.0533  -1.0478  -1.0472  -1.0366  -1.0316  -1.0251  -1.0204  -0.9835
    -0.9830  -0.9784  -0.9759  -0.9737  -0.9730  -0.9366  -0.9201  -0.9196
    -0.9178  -0.9170  -0.9145  -0.9083  -0.8971  -0.8932  -0.8908  -0.8564
    -0.8538  -0.8490  -0.8483  -0.8266  -0.8264  -0.8168  -0.7871  -0.7794
    -0.7524  -0.7512  -0.7240  -0.7234  -0.7197  -0.7196  -0.7185  -0.7138
    -0.7095  -0.7086  -0.7054  -0.7051  -0.6734  -0.6723  -0.6567  -0.6521
    -0.6496  -0.6493  -0.6461  -0.6289  -0.6276  -0.3540  -0.3425  -0.2895
    -0.2715  -0.2460  -0.0865  -0.0218  -0.0205   0.0179   0.2973   0.3042
     0.6244   0.6381   0.7255   0.7297   0.7656   0.7724   0.9118   0.9186
     1.0357   1.0387   1.1268   1.7220   1.7406   1.7435   1.7807   1.7857
     1.8201   1.8429   1.9103   1.9188   2.1163   2.1229   2.3516   2.4280
     2.4455   2.4506   2.8204   2.8376   2.9032   2.9058   2.9108   2.9151
     3.0602   3.0635   3.0824   3.2025   3.2067   3.4360   3.4405   3.5724
     3.5984   3.6047   3.8689   3.8705   3.9780   3.9818   4.0034   4.0088
     4.0449   4.1877   4.1921   4.4226   4.4284   4.4976   4.5104   4.5901
     4.6374   4.6428   4.6564   4.6995   4.8856   5.3812   5.4070   5.4562
     5.5592   5.5706   5.5904   5.7322   5.7481   5.7501   5.7562   5.8578
     5.8683   5.9145   5.9206   5.9608   5.9853   6.0443   6.0763   6.1954
     6.2105   6.2292   6.2314   6.2458   6.2496   6.2579   6.2681   6.2724

     the Fermi energy is     0.9882 ev

!    total energy              =   -7425.28997542 Ry
     Harris-Foulkes estimate   =   -7425.28997545 Ry
     estimated scf accuracy    <          9.7E-09 Ry

     The total energy is the sum of the following terms:

     one-electron contribution =  -48853.25996648 Ry
     hartree contribution      =   24980.75620481 Ry
     xc contribution           =   -3604.23427192 Ry
     ewald contribution        =   20051.45089075 Ry
     smearing contrib. (-TS)   =      -0.00283259 Ry

     convergence has been achieved in  27 iterations

     Writing output data file 7240217.save

     init_run     :    147.28s CPU    156.04s WALL (       1 calls)
     electrons    :   9240.26s CPU  10013.45s WALL (       1 calls)

     Called by init_run:
     wfcinit      :    117.01s CPU    124.60s WALL (       1 calls)
     potinit      :      7.45s CPU      7.95s WALL (       1 calls)

     Called by electrons:
     c_bands      :   7483.95s CPU   8158.17s WALL (      28 calls)
     sum_band     :   1177.70s CPU   1256.33s WALL (      28 calls)
     v_of_rho     :    116.74s CPU    129.78s WALL (      28 calls)
     newd         :    472.89s CPU    479.39s WALL (      28 calls)
     mix_rho      :      3.55s CPU      4.05s WALL (      28 calls)
     vdW_energy   :     11.48s CPU     13.21s WALL (      28 calls)
     vdW_ffts     :     55.84s CPU     61.99s WALL (      56 calls)
     vdW_v        :     14.75s CPU     15.68s WALL (      28 calls)

     Called by c_bands:
     init_us_2    :     24.78s CPU     25.14s WALL (     342 calls)
     cegterg      :   7201.34s CPU   7873.61s WALL (     168 calls)

     Called by *egterg:
     h_psi        :   2816.07s CPU   3173.60s WALL (     827 calls)
     s_psi        :    359.79s CPU    374.16s WALL (     827 calls)
     g_psi        :      4.65s CPU      4.68s WALL (     653 calls)
     cdiaghg      :   1445.48s CPU   1449.99s WALL (     815 calls)

     Called by h_psi:
     add_vuspsi   :    361.66s CPU    377.96s WALL (     827 calls)

     General routines
     calbec       :   1091.91s CPU   1095.94s WALL (     995 calls)
     fft          :    131.92s CPU    142.50s WALL (    1848 calls)
     ffts         :      1.88s CPU      2.18s WALL (      56 calls)
     fftw         :   1649.85s CPU   2001.06s WALL (  448992 calls)
     interpolate  :      4.99s CPU      5.78s WALL (      56 calls)
     davcio       :      0.00s CPU      0.25s WALL (       6 calls)

     Parallel routines
     fft_scatter  :   1209.35s CPU   1469.91s WALL (  450896 calls)

     PWSCF        :     2h36m CPU        2h49m WALL


   This run was terminated on:  11:44: 7   1Jul2015            

=------------------------------------------------------------------------------=
   JOB DONE.
=------------------------------------------------------------------------------=
