
     Program PWSCF v.5.1.2 starts on 24Aug2015 at 11:12: 1 

     This program is part of the open-source Quantum ESPRESSO suite
     for quantum simulation of materials; please cite
         "P. Giannozzi et al., J. Phys.:Condens. Matter 21 395502 (2009);
          URL http://www.quantum-espresso.org", 
     in publications or presentations arising from this work. More details at
     http://www.quantum-espresso.org/quote

     Parallel version (MPI), running on    32 processors
     R & G space division:  proc/nbgrp/npool/nimage =      32
     Reading input from bridge.O1.Au6165.d.2.7.phi.0.psi.90.in
Warning: card &IONS ignored
Warning: card / ignored
Warning: card &CELL ignored
Warning: card / ignored

     Current dimensions of program PWSCF are:
     Max number of different atomic species (ntypx) = 10
     Max number of k-points (npk) =  40000
     Max angular momentum in pseudopotentials (lmaxx) =  3

     IMPORTANT: XC functional enforced from input :
     Exchange-correlation      = VDW-DF ( 1  4  4  0 1 0)
     Any further DFT definition will be discarded
     Please, verify this is what you really want


     Subspace diagonalization in iterative solution of the eigenvalue problem:
     a serial algorithm will be used


     Parallelization info
     --------------------
     sticks:   dense  smooth     PW     G-vecs:    dense   smooth      PW
     Min         578     289     74               118518    41891    5486
     Max         579     290     75               118533    41932    5497
     Sum       18505    9265   2385              3792731  1341081  175711


     Title: 
     bridge.O1.Au6165.d.2.7.phi.0.psi.90                                        


     bravais-lattice index     =            8
     lattice parameter (alat)  =      24.1233  a.u.
     unit-cell volume          =   28076.2361 (a.u.)^3
     number of atoms/cell      =           75
     number of atomic types    =            3
     number of electrons       =       800.00
     number of Kohn-Sham states=          480
     kinetic-energy cutoff     =      50.0000  Ry
     charge density cutoff     =     400.0000  Ry
     convergence threshold     =      1.0E-08
     mixing beta               =       0.7000
     number of iterations used =            8  plain     mixing
     Exchange-correlation      = VDW-DF ( 1  4  4  0 1 0)

     celldm(1)=  24.123277  celldm(2)=   1.000000  celldm(3)=   2.000000
     celldm(4)=   0.000000  celldm(5)=   0.000000  celldm(6)=   0.000000

     crystal axes: (cart. coord. in units of alat)
               a(1) = (   1.000000   0.000000   0.000000 )  
               a(2) = (   0.000000   1.000000   0.000000 )  
               a(3) = (   0.000000   0.000000   2.000000 )  

     reciprocal axes: (cart. coord. in units 2 pi/alat)
               b(1) = (  1.000000  0.000000  0.000000 )  
               b(2) = (  0.000000  1.000000  0.000000 )  
               b(3) = (  0.000000  0.000000  0.500000 )  


     PseudoPot. # 1 for Au read from file:
     /home/scc/andrejb/qe/pseudo/Au.pbe-nd-van.UPF
     MD5 check sum: 458681b50f36d87ef23c61b04bba420a
     Pseudo is Ultrasoft + core correction, Zval = 11.0
     Generated by new atomic code, or converted to UPF format
     Using radial grid of  985 points,  3 beta functions with: 
                l(1) =   1
                l(2) =   2
                l(3) =   2
     Q(r) pseudized with  8 coefficients,  rinner =    1.100   1.100   1.100
                                                       1.100   1.100

     PseudoPot. # 2 for H  read from file:
     /home/scc/andrejb/qe/pseudo/H.pbe-van_ak.UPF
     MD5 check sum: 403db7282739603aa925980fa9b8608d
     Pseudo is Ultrasoft, Zval =  1.0
     Generated by new atomic code, or converted to UPF format
     Using radial grid of  615 points,  1 beta functions with: 
                l(1) =   0
     Q(r) pseudized with  8 coefficients,  rinner =    0.800

     PseudoPot. # 3 for O  read from file:
     /home/scc/andrejb/qe/pseudo/O.pbe-van_ak.UPF
     MD5 check sum: 4b8c549914a63cae506c6ff22b5af4fe
     Pseudo is Ultrasoft, Zval =  6.0
     Generated by new atomic code, or converted to UPF format
     Using radial grid of  737 points,  4 beta functions with: 
                l(1) =   0
                l(2) =   0
                l(3) =   1
                l(4) =   1
     Q(r) pseudized with  8 coefficients,  rinner =    0.800   0.800   0.800


     vdW kernel table read from file vdW_kernel_table
     MD5 check sum: 48e77a2e26edf626eeb0eaa751ad5cac

     atomic species   valence    mass     pseudopotential
        Au            11.00   196.96657     Au( 1.00)
        H              1.00     1.01000     H ( 1.00)
        O              6.00    16.00000     O ( 1.00)

     No symmetry found



   Cartesian axes

     site n.     atom                  positions (alat units)
         1           O   tau(   1) = (   0.2499161   0.4165269   0.7108263  )
         2           H   tau(   2) = (   0.2028385   0.3710330   0.6716548  )
         3           H   tau(   3) = (   0.2955663   0.3686692   0.7488279  )
         4           Au  tau(   4) = (   0.0000000   0.0000000   0.0000000  )
         5           Au  tau(   5) = (   0.3332217   0.0000000   0.0000000  )
         6           Au  tau(   6) = (   0.6664434   0.0000000   0.0000000  )
         7           Au  tau(   7) = (   0.1666109   0.1666109   0.0000000  )
         8           Au  tau(   8) = (   0.4998326   0.1666109   0.0000000  )
         9           Au  tau(   9) = (   0.8330542   0.1666109   0.0000000  )
        10           Au  tau(  10) = (   0.0000000   0.3332217   0.0000000  )
        11           Au  tau(  11) = (   0.3332217   0.3332217   0.0000000  )
        12           Au  tau(  12) = (   0.6664434   0.3332217   0.0000000  )
        13           Au  tau(  13) = (   0.1666109   0.4998326   0.0000000  )
        14           Au  tau(  14) = (   0.4998326   0.4998326   0.0000000  )
        15           Au  tau(  15) = (   0.8330542   0.4998326   0.0000000  )
        16           Au  tau(  16) = (   0.0000000   0.6664434   0.0000000  )
        17           Au  tau(  17) = (   0.3332217   0.6664434   0.0000000  )
        18           Au  tau(  18) = (   0.6664434   0.6664434   0.0000000  )
        19           Au  tau(  19) = (   0.1666109   0.8330542   0.0000000  )
        20           Au  tau(  20) = (   0.4998326   0.8330542   0.0000000  )
        21           Au  tau(  21) = (   0.8330542   0.8330542   0.0000000  )
        22           Au  tau(  22) = (   0.1666109   0.0000000   0.1666109  )
        23           Au  tau(  23) = (   0.4998326   0.0000000   0.1666109  )
        24           Au  tau(  24) = (   0.8330542   0.0000000   0.1666109  )
        25           Au  tau(  25) = (   0.0000000   0.1666109   0.1666109  )
        26           Au  tau(  26) = (   0.3332217   0.1666109   0.1666109  )
        27           Au  tau(  27) = (   0.6664434   0.1666109   0.1666109  )
        28           Au  tau(  28) = (   0.1666109   0.3332217   0.1666109  )
        29           Au  tau(  29) = (   0.4998326   0.3332217   0.1666109  )
        30           Au  tau(  30) = (   0.8330542   0.3332217   0.1666109  )
        31           Au  tau(  31) = (   0.0000000   0.4998326   0.1666109  )
        32           Au  tau(  32) = (   0.3332217   0.4998326   0.1666109  )
        33           Au  tau(  33) = (   0.6664434   0.4998326   0.1666109  )
        34           Au  tau(  34) = (   0.1666109   0.6664434   0.1666109  )
        35           Au  tau(  35) = (   0.4998326   0.6664434   0.1666109  )
        36           Au  tau(  36) = (   0.8330542   0.6664434   0.1666109  )
        37           Au  tau(  37) = (   0.0000000   0.8330542   0.1666109  )
        38           Au  tau(  38) = (   0.3332217   0.8330542   0.1666109  )
        39           Au  tau(  39) = (   0.6664434   0.8330542   0.1666109  )
        40           Au  tau(  40) = (  -0.0000182  -0.0000182   0.3335478  )
        41           Au  tau(  41) = (   0.3332215  -0.0000181   0.3335473  )
        42           Au  tau(  42) = (   0.6664447  -0.0000183   0.3335481  )
        43           Au  tau(  43) = (  -0.0000181   0.3332215   0.3335473  )
        44           Au  tau(  44) = (   0.3332215   0.3332215   0.3335468  )
        45           Au  tau(  45) = (   0.6664445   0.3332215   0.3335477  )
        46           Au  tau(  46) = (  -0.0000183   0.6664447   0.3335481  )
        47           Au  tau(  47) = (   0.3332215   0.6664445   0.3335477  )
        48           Au  tau(  48) = (   0.6664446   0.6664446   0.3335486  )
        49           Au  tau(  49) = (   0.1666097   0.1666097   0.3335483  )
        50           Au  tau(  50) = (   0.4998320   0.1666098   0.3335477  )
        51           Au  tau(  51) = (   0.8330732   0.1666096   0.3335480  )
        52           Au  tau(  52) = (   0.1666098   0.4998320   0.3335477  )
        53           Au  tau(  53) = (   0.4998322   0.4998322   0.3335470  )
        54           Au  tau(  54) = (   0.8330731   0.4998322   0.3335474  )
        55           Au  tau(  55) = (   0.1666096   0.8330732   0.3335480  )
        56           Au  tau(  56) = (   0.4998322   0.8330731   0.3335474  )
        57           Au  tau(  57) = (   0.8330731   0.8330731   0.3335478  )
        58           Au  tau(  58) = (   0.1666104  -0.0000111   0.4993095  )
        59           Au  tau(  59) = (   0.4998323  -0.0000112   0.4993099  )
        60           Au  tau(  60) = (   0.8330660  -0.0000111   0.4993009  )
        61           Au  tau(  61) = (  -0.0000111   0.1666104   0.4993095  )
        62           Au  tau(  62) = (   0.3332213   0.1666106   0.4993185  )
        63           Au  tau(  63) = (   0.6664437   0.1666106   0.4993187  )
        64           Au  tau(  64) = (   0.1666106   0.3332213   0.4993185  )
        65           Au  tau(  65) = (   0.4998324   0.3332216   0.4993185  )
        66           Au  tau(  66) = (   0.8330658   0.3332215   0.4993102  )
        67           Au  tau(  67) = (  -0.0000112   0.4998323   0.4993099  )
        68           Au  tau(  68) = (   0.3332216   0.4998324   0.4993185  )
        69           Au  tau(  69) = (   0.6664437   0.4998325   0.4993187  )
        70           Au  tau(  70) = (   0.1666106   0.6664437   0.4993187  )
        71           Au  tau(  71) = (   0.4998325   0.6664437   0.4993187  )
        72           Au  tau(  72) = (   0.8330658   0.6664438   0.4993102  )
        73           Au  tau(  73) = (  -0.0000111   0.8330660   0.4993009  )
        74           Au  tau(  74) = (   0.3332215   0.8330658   0.4993102  )
        75           Au  tau(  75) = (   0.6664438   0.8330658   0.4993102  )

     number of k points=     6  Marzari-Vanderbilt smearing, width (Ry)=  0.0200
                       cart. coord. in units 2pi/alat
        k(    1) = (   0.2500000   0.2500000   0.0833333), wk =   0.3333333
        k(    2) = (   0.2500000   0.2500000  -0.2500000), wk =   0.3333333
        k(    3) = (  -0.2500000  -0.2500000   0.0833333), wk =   0.3333333
        k(    4) = (  -0.2500000   0.2500000  -0.0833333), wk =   0.3333333
        k(    5) = (   0.2500000  -0.2500000  -0.0833333), wk =   0.3333333
        k(    6) = (  -0.2500000   0.2500000   0.2500000), wk =   0.3333333

     Dense  grid:  3792731 G-vectors     FFT dimensions: ( 160, 160, 320)

     Smooth grid:  1341081 G-vectors     FFT dimensions: ( 120, 120, 225)

     Largest allocated arrays     est. size (Mb)     dimensions
        Kohn-Sham Wavefunctions        38.58 Mb     (    5267,  480)
        NL pseudopotentials            76.03 Mb     (    5267,  946)
        Each V/rho on FFT grid          3.91 Mb     (  256000)
        Each G-vector array             0.90 Mb     (  118520)
        G-vector shells                 0.08 Mb     (   10286)
     Largest temporary arrays     est. size (Mb)     dimensions
        Auxiliary wavefunctions       154.31 Mb     (    5267, 1920)
        Each subspace H/S matrix       56.25 Mb     (    1920, 1920)
        Each <psi_i|beta_j> matrix      6.93 Mb     (     946,  480)
        Arrays for rho mixing          31.25 Mb     (  256000,    8)

     Initial potential from superposition of free atoms
     Check: negative starting charge=   -1.945178

     starting charge  799.16392, renormalised to  800.00000

     negative rho (up, down):  1.947E+00 0.000E+00


     ************************************************************************
     *
     * You are using vdW-DF for exchange-correlation in this calculation.
     * Please cite the following three references that made this development
     * possible:
     *
     *   M. Dion, H. Rydberg, E. Schroder, D. C. Langreth, and
     *   B. I. Lundqvist, Phys. Rev. Lett. 92, 246401 (2004).
     *
     *   T. Thonhauser, V. R. Cooper, S. Li, A. Puzder, P. Hyldgaard, and
     *   D. C. Langreth, Phys. Rev. B 76, 125112 (2007).
     *
     *   G. Roman-Perez and J. M. Soler, Phys. Rev. Lett. 103, 096102 (2009).
     *
     *
     * If you are using vdW-DF2, please also cite:
     *
     *   K. Lee, E. D. Murray, L. Kong, B. I. Lundqvist, and
     *   D. C. Langreth, Phys. Rev. B 82, 081101(R) (2010).
     *
     *
     * If you are calculating the stress with vdW-DF, please also cite:
     *
     *   R. Sabatini, E. Kucukbenli, B. Kolb, T. Thonhauser, and
     *   S. de Gironcoli, J. Phys.: Condens. Matter 24, 424209 (2012).
     *
     ************************************************************************

     Carrying out vdW-DF run using the following parameters:

     Nqs =      20    Nr_points =    1024   r_max =   100.000
     q_mesh =
               0.00001000     0.04494208     0.09755937     0.15916263
               0.23128650     0.31572767     0.41458969     0.53033537
               0.66584808     0.82450364     1.01025438     1.22772762
               1.48234092     1.78043706     2.12944203     2.53805004
               3.01644009     3.57652955     4.23227104     5.00000000

     Gradients computed in reciprocal space

     ************************************************************************


     Starting wfc are  654 randomized atomic wfcs

     total cpu time spent up to now is      174.4 secs

     Self-consistent Calculation

     iteration #  1     ecut=    50.00 Ry     beta=0.70
     Davidson diagonalization with overlap
     ethr =  1.00E-02,  avg # of iterations =  3.0

     Threshold (ethr) on eigenvalues was too large:
     Diagonalizing with lowered threshold

     Davidson diagonalization with overlap
     ethr =  4.19E-04,  avg # of iterations =  2.0

     negative rho (up, down):  1.947E+00 0.000E+00

     total cpu time spent up to now is      632.6 secs

     total energy              =   -7423.04576410 Ry
     Harris-Foulkes estimate   =   -7426.06175471 Ry
     estimated scf accuracy    <       3.72657327 Ry

     iteration #  2     ecut=    50.00 Ry     beta=0.70
     Davidson diagonalization with overlap
     ethr =  4.66E-04,  avg # of iterations = 11.3

     negative rho (up, down):  1.942E+00 0.000E+00

     total cpu time spent up to now is     1433.4 secs

     total energy              =   -7415.23216409 Ry
     Harris-Foulkes estimate   =   -7432.57207174 Ry
     estimated scf accuracy    <      90.21574130 Ry

     iteration #  3     ecut=    50.00 Ry     beta=0.70
     Davidson diagonalization with overlap
     ethr =  4.66E-04,  avg # of iterations =  6.0

     negative rho (up, down):  1.953E+00 0.000E+00

     total cpu time spent up to now is     1927.5 secs

     total energy              =   -7424.32990866 Ry
     Harris-Foulkes estimate   =   -7425.85521860 Ry
     estimated scf accuracy    <       5.96753234 Ry

     iteration #  4     ecut=    50.00 Ry     beta=0.70
     Davidson diagonalization with overlap
     ethr =  4.66E-04,  avg # of iterations =  6.0

     negative rho (up, down):  1.956E+00 0.000E+00

     total cpu time spent up to now is     2225.0 secs

     total energy              =   -7424.85174034 Ry
     Harris-Foulkes estimate   =   -7425.64996908 Ry
     estimated scf accuracy    <       4.89971792 Ry

     iteration #  5     ecut=    50.00 Ry     beta=0.70
     Davidson diagonalization with overlap
     ethr =  4.66E-04,  avg # of iterations =  4.7

     negative rho (up, down):  1.964E+00 0.000E+00

     total cpu time spent up to now is     2488.9 secs

     total energy              =   -7425.15366914 Ry
     Harris-Foulkes estimate   =   -7425.48172228 Ry
     estimated scf accuracy    <       2.25995467 Ry

     iteration #  6     ecut=    50.00 Ry     beta=0.70
     Davidson diagonalization with overlap
     ethr =  2.82E-04,  avg # of iterations =  3.2

     negative rho (up, down):  1.967E+00 0.000E+00

     total cpu time spent up to now is     2724.7 secs

     total energy              =   -7425.26954541 Ry
     Harris-Foulkes estimate   =   -7425.32047473 Ry
     estimated scf accuracy    <       0.17485096 Ry

     iteration #  7     ecut=    50.00 Ry     beta=0.70
     Davidson diagonalization with overlap
     ethr =  2.19E-05,  avg # of iterations =  8.3

     negative rho (up, down):  1.970E+00 0.000E+00

     total cpu time spent up to now is     3059.7 secs

     total energy              =   -7425.27509474 Ry
     Harris-Foulkes estimate   =   -7425.31427679 Ry
     estimated scf accuracy    <       0.19301236 Ry

     iteration #  8     ecut=    50.00 Ry     beta=0.70
     Davidson diagonalization with overlap
     ethr =  2.19E-05,  avg # of iterations =  3.0

     negative rho (up, down):  1.971E+00 0.000E+00

     total cpu time spent up to now is     3306.4 secs

     total energy              =   -7425.28232676 Ry
     Harris-Foulkes estimate   =   -7425.30026340 Ry
     estimated scf accuracy    <       0.06999555 Ry

     iteration #  9     ecut=    50.00 Ry     beta=0.70
     Davidson diagonalization with overlap
     ethr =  8.75E-06,  avg # of iterations = 11.0

     negative rho (up, down):  1.972E+00 0.000E+00

     total cpu time spent up to now is     3669.8 secs

     total energy              =   -7425.28571848 Ry
     Harris-Foulkes estimate   =   -7425.29343490 Ry
     estimated scf accuracy    <       0.02435618 Ry

     iteration # 10     ecut=    50.00 Ry     beta=0.70
     Davidson diagonalization with overlap
     ethr =  3.04E-06,  avg # of iterations =  7.0

     negative rho (up, down):  1.973E+00 0.000E+00

     total cpu time spent up to now is     3976.5 secs

     total energy              =   -7425.28796881 Ry
     Harris-Foulkes estimate   =   -7425.29001292 Ry
     estimated scf accuracy    <       0.00536998 Ry

     iteration # 11     ecut=    50.00 Ry     beta=0.70
     Davidson diagonalization with overlap
     ethr =  6.71E-07,  avg # of iterations =  5.2

     negative rho (up, down):  1.973E+00 0.000E+00

     total cpu time spent up to now is     4265.7 secs

     total energy              =   -7425.28864136 Ry
     Harris-Foulkes estimate   =   -7425.28940683 Ry
     estimated scf accuracy    <       0.00225555 Ry

     iteration # 12     ecut=    50.00 Ry     beta=0.70
     Davidson diagonalization with overlap
     ethr =  2.82E-07,  avg # of iterations =  2.0

     negative rho (up, down):  1.974E+00 0.000E+00

     total cpu time spent up to now is     4492.4 secs

     total energy              =   -7425.28863037 Ry
     Harris-Foulkes estimate   =   -7425.28921931 Ry
     estimated scf accuracy    <       0.00189334 Ry

     iteration # 13     ecut=    50.00 Ry     beta=0.70
     Davidson diagonalization with overlap
     ethr =  2.37E-07,  avg # of iterations =  4.8

     negative rho (up, down):  1.974E+00 0.000E+00

     total cpu time spent up to now is     4802.4 secs

     total energy              =   -7425.28830488 Ry
     Harris-Foulkes estimate   =   -7425.28976861 Ry
     estimated scf accuracy    <       0.00775793 Ry

     iteration # 14     ecut=    50.00 Ry     beta=0.70
     Davidson diagonalization with overlap
     ethr =  2.37E-07,  avg # of iterations =  3.0

     negative rho (up, down):  1.974E+00 0.000E+00

     total cpu time spent up to now is     5069.0 secs

     total energy              =   -7425.28899324 Ry
     Harris-Foulkes estimate   =   -7425.28902329 Ry
     estimated scf accuracy    <       0.00008234 Ry

     iteration # 15     ecut=    50.00 Ry     beta=0.70
     Davidson diagonalization with overlap
     ethr =  1.03E-08,  avg # of iterations =  2.0

     negative rho (up, down):  1.974E+00 0.000E+00

     total cpu time spent up to now is     5343.4 secs

     total energy              =   -7425.28898766 Ry
     Harris-Foulkes estimate   =   -7425.28903898 Ry
     estimated scf accuracy    <       0.00034746 Ry

     iteration # 16     ecut=    50.00 Ry     beta=0.70
     Davidson diagonalization with overlap
     ethr =  1.03E-08,  avg # of iterations =  2.0

     negative rho (up, down):  1.974E+00 0.000E+00

     total cpu time spent up to now is     5584.0 secs

     total energy              =   -7425.28900620 Ry
     Harris-Foulkes estimate   =   -7425.28902735 Ry
     estimated scf accuracy    <       0.00011650 Ry

     iteration # 17     ecut=    50.00 Ry     beta=0.70
     Davidson diagonalization with overlap
     ethr =  1.03E-08,  avg # of iterations =  2.0

     negative rho (up, down):  1.974E+00 0.000E+00

     total cpu time spent up to now is     5813.7 secs

     total energy              =   -7425.28901584 Ry
     Harris-Foulkes estimate   =   -7425.28901884 Ry
     estimated scf accuracy    <       0.00001167 Ry

     iteration # 18     ecut=    50.00 Ry     beta=0.70
     Davidson diagonalization with overlap
     ethr =  1.46E-09,  avg # of iterations =  2.0

     negative rho (up, down):  1.974E+00 0.000E+00

     total cpu time spent up to now is     6051.1 secs

     total energy              =   -7425.28901714 Ry
     Harris-Foulkes estimate   =   -7425.28901769 Ry
     estimated scf accuracy    <       0.00000118 Ry

     iteration # 19     ecut=    50.00 Ry     beta=0.70
     Davidson diagonalization with overlap
     ethr =  1.48E-10,  avg # of iterations =  3.0

     negative rho (up, down):  1.974E+00 0.000E+00

     total cpu time spent up to now is     6334.9 secs

     total energy              =   -7425.28901714 Ry
     Harris-Foulkes estimate   =   -7425.28901770 Ry
     estimated scf accuracy    <       0.00000243 Ry

     iteration # 20     ecut=    50.00 Ry     beta=0.70
     Davidson diagonalization with overlap
     ethr =  1.48E-10,  avg # of iterations =  3.0

     negative rho (up, down):  1.974E+00 0.000E+00

     total cpu time spent up to now is     6585.5 secs

     total energy              =   -7425.28901733 Ry
     Harris-Foulkes estimate   =   -7425.28901756 Ry
     estimated scf accuracy    <       0.00000090 Ry

     iteration # 21     ecut=    50.00 Ry     beta=0.70
     Davidson diagonalization with overlap
     ethr =  1.13E-10,  avg # of iterations =  2.0

     negative rho (up, down):  1.974E+00 0.000E+00

     total cpu time spent up to now is     6813.3 secs

     total energy              =   -7425.28901739 Ry
     Harris-Foulkes estimate   =   -7425.28901748 Ry
     estimated scf accuracy    <       0.00000027 Ry

     iteration # 22     ecut=    50.00 Ry     beta=0.70
     Davidson diagonalization with overlap
     ethr =  3.40E-11,  avg # of iterations =  2.0

     negative rho (up, down):  1.974E+00 0.000E+00

     total cpu time spent up to now is     7046.8 secs

     total energy              =   -7425.28901741 Ry
     Harris-Foulkes estimate   =   -7425.28901745 Ry
     estimated scf accuracy    <       0.00000013 Ry

     iteration # 23     ecut=    50.00 Ry     beta=0.70
     Davidson diagonalization with overlap
     ethr =  1.65E-11,  avg # of iterations =  2.0

     negative rho (up, down):  1.974E+00 0.000E+00

     total cpu time spent up to now is     7283.5 secs

     total energy              =   -7425.28901742 Ry
     Harris-Foulkes estimate   =   -7425.28901743 Ry
     estimated scf accuracy    <       0.00000005 Ry

     iteration # 24     ecut=    50.00 Ry     beta=0.70
     Davidson diagonalization with overlap
     ethr =  6.42E-12,  avg # of iterations =  2.0

     negative rho (up, down):  1.974E+00 0.000E+00

     total cpu time spent up to now is     7528.8 secs

     total energy              =   -7425.28901742 Ry
     Harris-Foulkes estimate   =   -7425.28901744 Ry
     estimated scf accuracy    <       0.00000007 Ry

     iteration # 25     ecut=    50.00 Ry     beta=0.70
     Davidson diagonalization with overlap
     ethr =  6.42E-12,  avg # of iterations =  2.0

     negative rho (up, down):  1.974E+00 0.000E+00

     total cpu time spent up to now is     7750.5 secs

     total energy              =   -7425.28901742 Ry
     Harris-Foulkes estimate   =   -7425.28901742 Ry
     estimated scf accuracy    <       0.00000002 Ry

     iteration # 26     ecut=    50.00 Ry     beta=0.70
     Davidson diagonalization with overlap
     ethr =  2.05E-12,  avg # of iterations =  2.0

     negative rho (up, down):  1.974E+00 0.000E+00

     total cpu time spent up to now is     7976.5 secs

     total energy              =   -7425.28901742 Ry
     Harris-Foulkes estimate   =   -7425.28901742 Ry
     estimated scf accuracy    <       0.00000002 Ry

     iteration # 27     ecut=    50.00 Ry     beta=0.70
     Davidson diagonalization with overlap
     ethr =  2.05E-12,  avg # of iterations =  1.0

     negative rho (up, down):  1.974E+00 0.000E+00

     total cpu time spent up to now is     8189.1 secs

     End of self-consistent calculation

          k = 0.2500 0.2500 0.0833 (167653 PWs)   bands (ev):

   -19.6809  -7.5811  -6.8165  -6.2891  -6.2877  -5.8592  -5.4507  -5.3575
    -5.3567  -5.1612  -5.1606  -5.0447  -5.0426  -4.9645  -4.9423  -4.8689
    -4.7840  -4.7797  -4.7414  -4.7407  -4.5810  -4.5645  -4.5624  -4.5619
    -4.5549  -4.4999  -4.4996  -4.4883  -4.4874  -4.4504  -4.4404  -4.4378
    -4.3970  -4.3955  -4.3624  -4.3611  -4.3108  -4.3089  -4.2996  -4.2973
    -4.2914  -4.2793  -4.2782  -4.2387  -4.2195  -4.2193  -4.2120  -4.2117
    -4.1810  -4.1348  -4.1155  -4.1146  -4.1139  -4.1109  -4.1042  -4.0987
    -4.0975  -4.0964  -4.0348  -4.0324  -3.9933  -3.9818  -3.9702  -3.9447
    -3.9443  -3.9280  -3.9222  -3.9200  -3.9171  -3.9137  -3.8676  -3.8646
    -3.8520  -3.8512  -3.8155  -3.7464  -3.7449  -3.7394  -3.7352  -3.7014
    -3.6946  -3.6767  -3.6499  -3.6472  -3.6199  -3.6192  -3.5988  -3.5976
    -3.5863  -3.5843  -3.5296  -3.5288  -3.5139  -3.4947  -3.4857  -3.4846
    -3.4823  -3.4807  -3.4558  -3.4543  -3.4184  -3.4177  -3.3980  -3.3953
    -3.3642  -3.3617  -3.3455  -3.3176  -3.3159  -3.2799  -3.2787  -3.2441
    -3.2354  -3.2349  -3.2225  -3.2209  -3.2156  -3.2152  -3.1798  -3.1669
    -3.1279  -3.1273  -3.1181  -3.1110  -3.1082  -3.1067  -3.0833  -3.0828
    -3.0629  -3.0618  -3.0605  -3.0348  -3.0339  -3.0266  -3.0242  -3.0225
    -2.9870  -2.9847  -2.9492  -2.9477  -2.9470  -2.9445  -2.9432  -2.8638
    -2.8549  -2.8527  -2.8500  -2.8494  -2.8482  -2.8457  -2.8436  -2.8424
    -2.8421  -2.8329  -2.8250  -2.8109  -2.8077  -2.8059  -2.8042  -2.7910
    -2.7869  -2.7489  -2.7482  -2.7466  -2.7444  -2.7419  -2.7241  -2.7236
    -2.7163  -2.7154  -2.7120  -2.6564  -2.6539  -2.6498  -2.6476  -2.6446
    -2.6435  -2.6175  -2.5574  -2.5558  -2.5550  -2.5513  -2.5410  -2.5396
    -2.5364  -2.5251  -2.5229  -2.4958  -2.4857  -2.4815  -2.4781  -2.4773
    -2.4758  -2.4382  -2.4373  -2.4303  -2.4279  -2.4253  -2.4239  -2.3896
    -2.3714  -2.3655  -2.3094  -2.3075  -2.3023  -2.2902  -2.2854  -2.2821
    -2.2427  -2.2327  -2.2102  -2.2045  -2.1828  -2.1802  -2.1772  -2.1591
    -2.1560  -2.1470  -2.1385  -2.1134  -2.0902  -2.0864  -2.0741  -2.0730
    -2.0666  -2.0634  -2.0592  -2.0495  -2.0474  -2.0436  -2.0415  -2.0376
    -2.0364  -2.0296  -2.0273  -2.0190  -2.0072  -2.0065  -2.0001  -1.9967
    -1.9955  -1.9802  -1.9742  -1.9686  -1.9600  -1.9593  -1.9532  -1.9205
    -1.8921  -1.8824  -1.8740  -1.8464  -1.8299  -1.8279  -1.8193  -1.8123
    -1.7953  -1.7854  -1.7808  -1.7792  -1.7776  -1.7767  -1.7742  -1.7493
    -1.7418  -1.7409  -1.7350  -1.6962  -1.6885  -1.6579  -1.6520  -1.6088
    -1.6052  -1.5938  -1.5738  -1.5710  -1.5654  -1.5496  -1.5465  -1.5332
    -1.5294  -1.5259  -1.5254  -1.5237  -1.5227  -1.5200  -1.5112  -1.5011
    -1.4967  -1.4789  -1.4723  -1.4553  -1.4541  -1.4293  -1.4265  -1.4236
    -1.4228  -1.4190  -1.4087  -1.3973  -1.3911  -1.3803  -1.3721  -1.3584
    -1.3532  -1.3428  -1.3373  -1.3148  -1.3121  -1.3057  -1.2949  -1.2695
    -1.2662  -1.2595  -1.2586  -1.2527  -1.2432  -1.2296  -1.2288  -1.2191
    -1.2115  -1.2102  -1.1995  -1.1972  -1.1969  -1.1887  -1.1835  -1.1716
    -1.1701  -1.1631  -1.1624  -1.1514  -1.1467  -1.1411  -1.1344  -1.1016
    -1.1005  -1.0937  -1.0912  -1.0900  -1.0838  -1.0529  -1.0345  -1.0342
    -1.0337  -1.0322  -1.0300  -1.0239  -1.0201  -1.0086  -0.9976  -0.9729
    -0.9697  -0.9651  -0.9634  -0.9424  -0.9419  -0.9324  -0.9038  -0.8950
    -0.8695  -0.8668  -0.8400  -0.8392  -0.8363  -0.8358  -0.8335  -0.8290
    -0.8252  -0.8250  -0.8200  -0.8161  -0.7890  -0.7884  -0.7714  -0.7668
    -0.7659  -0.7639  -0.7623  -0.7444  -0.7381  -0.4710  -0.4571  -0.4024
    -0.3866  -0.3617  -0.1987  -0.1367  -0.1360  -0.0968   0.1814   0.1873
     0.5113   0.5197   0.6108   0.6131   0.6522   0.6564   0.7954   0.8048
     0.9195   0.9227   1.0140   1.6067   1.6255   1.6262   1.6634   1.6710
     1.7114   1.7242   1.7948   1.7999   2.0020   2.0046   2.2370   2.3161
     2.3208   2.3350   2.7108   2.7192   2.7872   2.7882   2.7962   2.7974
     2.9472   2.9474   2.9906   3.0899   3.0931   3.3212   3.3227   3.4568
     3.4831   3.4848   3.7539   3.7559   3.8599   3.8868   3.8881   3.9405
     3.9708   4.0744   4.0770   4.3095   4.3123   4.3985   4.4020   4.5153
     4.5230   4.5454   4.5581   4.6872   5.0834   5.3438   5.3582   5.4500
     5.4532   5.5297   5.6335   5.6364   5.6550   5.7037   5.7378   5.7506
     5.7554   5.8050   5.8080   5.8483   6.0244   6.0818   6.1124   6.1145
     6.1319   6.1388   6.1461   6.1542   6.1562   6.1592   6.1751   6.2199

          k = 0.2500 0.2500-0.2500 (167588 PWs)   bands (ev):

   -19.6809  -7.5811  -6.8165  -6.2891  -6.2877  -5.8592  -5.4507  -5.3575
    -5.3567  -5.1612  -5.1606  -5.0447  -5.0426  -4.9645  -4.9423  -4.8689
    -4.7840  -4.7797  -4.7414  -4.7407  -4.5810  -4.5645  -4.5624  -4.5619
    -4.5549  -4.4999  -4.4996  -4.4883  -4.4874  -4.4504  -4.4404  -4.4378
    -4.3970  -4.3955  -4.3624  -4.3611  -4.3107  -4.3089  -4.2996  -4.2973
    -4.2914  -4.2794  -4.2782  -4.2387  -4.2195  -4.2193  -4.2120  -4.2117
    -4.1810  -4.1348  -4.1155  -4.1146  -4.1139  -4.1109  -4.1042  -4.0987
    -4.0975  -4.0964  -4.0348  -4.0324  -3.9933  -3.9818  -3.9702  -3.9447
    -3.9443  -3.9280  -3.9222  -3.9200  -3.9171  -3.9137  -3.8676  -3.8646
    -3.8520  -3.8512  -3.8155  -3.7464  -3.7449  -3.7394  -3.7352  -3.7014
    -3.6946  -3.6767  -3.6499  -3.6472  -3.6199  -3.6192  -3.5988  -3.5976
    -3.5863  -3.5843  -3.5296  -3.5288  -3.5139  -3.4947  -3.4857  -3.4846
    -3.4823  -3.4807  -3.4558  -3.4543  -3.4184  -3.4177  -3.3980  -3.3953
    -3.3642  -3.3617  -3.3455  -3.3176  -3.3159  -3.2799  -3.2787  -3.2441
    -3.2354  -3.2349  -3.2225  -3.2209  -3.2156  -3.2152  -3.1798  -3.1669
    -3.1279  -3.1273  -3.1181  -3.1110  -3.1082  -3.1067  -3.0833  -3.0828
    -3.0629  -3.0618  -3.0605  -3.0348  -3.0339  -3.0266  -3.0242  -3.0225
    -2.9870  -2.9847  -2.9492  -2.9477  -2.9470  -2.9445  -2.9432  -2.8639
    -2.8549  -2.8527  -2.8500  -2.8494  -2.8482  -2.8457  -2.8436  -2.8424
    -2.8421  -2.8329  -2.8250  -2.8109  -2.8077  -2.8059  -2.8042  -2.7910
    -2.7869  -2.7489  -2.7482  -2.7466  -2.7444  -2.7419  -2.7241  -2.7236
    -2.7163  -2.7154  -2.7120  -2.6564  -2.6539  -2.6498  -2.6476  -2.6446
    -2.6434  -2.6175  -2.5574  -2.5558  -2.5550  -2.5513  -2.5410  -2.5396
    -2.5364  -2.5251  -2.5229  -2.4958  -2.4857  -2.4815  -2.4781  -2.4773
    -2.4758  -2.4382  -2.4373  -2.4303  -2.4279  -2.4253  -2.4239  -2.3896
    -2.3714  -2.3655  -2.3094  -2.3075  -2.3023  -2.2902  -2.2854  -2.2821
    -2.2427  -2.2327  -2.2102  -2.2045  -2.1828  -2.1802  -2.1772  -2.1591
    -2.1560  -2.1470  -2.1385  -2.1134  -2.0902  -2.0864  -2.0741  -2.0730
    -2.0666  -2.0634  -2.0592  -2.0495  -2.0474  -2.0436  -2.0415  -2.0376
    -2.0364  -2.0296  -2.0273  -2.0190  -2.0072  -2.0065  -2.0001  -1.9967
    -1.9955  -1.9802  -1.9742  -1.9686  -1.9600  -1.9593  -1.9532  -1.9206
    -1.8921  -1.8824  -1.8740  -1.8464  -1.8299  -1.8279  -1.8193  -1.8123
    -1.7953  -1.7854  -1.7808  -1.7792  -1.7776  -1.7767  -1.7742  -1.7493
    -1.7418  -1.7410  -1.7350  -1.6962  -1.6885  -1.6579  -1.6520  -1.6088
    -1.6052  -1.5938  -1.5738  -1.5710  -1.5654  -1.5496  -1.5465  -1.5332
    -1.5293  -1.5259  -1.5254  -1.5237  -1.5227  -1.5200  -1.5112  -1.5011
    -1.4967  -1.4789  -1.4723  -1.4553  -1.4541  -1.4293  -1.4265  -1.4236
    -1.4228  -1.4190  -1.4087  -1.3972  -1.3911  -1.3803  -1.3721  -1.3584
    -1.3532  -1.3428  -1.3373  -1.3148  -1.3121  -1.3057  -1.2949  -1.2694
    -1.2662  -1.2595  -1.2586  -1.2527  -1.2432  -1.2296  -1.2288  -1.2191
    -1.2115  -1.2102  -1.1995  -1.1972  -1.1969  -1.1887  -1.1835  -1.1716
    -1.1701  -1.1631  -1.1624  -1.1514  -1.1467  -1.1411  -1.1344  -1.1016
    -1.1005  -1.0937  -1.0912  -1.0900  -1.0838  -1.0529  -1.0345  -1.0342
    -1.0337  -1.0322  -1.0300  -1.0239  -1.0201  -1.0086  -0.9976  -0.9729
    -0.9697  -0.9651  -0.9634  -0.9424  -0.9419  -0.9324  -0.9038  -0.8950
    -0.8695  -0.8668  -0.8400  -0.8392  -0.8363  -0.8358  -0.8335  -0.8291
    -0.8252  -0.8250  -0.8200  -0.8161  -0.7890  -0.7884  -0.7714  -0.7668
    -0.7659  -0.7639  -0.7623  -0.7444  -0.7381  -0.4710  -0.4571  -0.4024
    -0.3866  -0.3617  -0.1987  -0.1367  -0.1360  -0.0968   0.1814   0.1873
     0.5113   0.5197   0.6108   0.6131   0.6522   0.6564   0.7954   0.8048
     0.9195   0.9227   1.0140   1.6067   1.6255   1.6262   1.6634   1.6710
     1.7114   1.7243   1.7948   1.7999   2.0020   2.0046   2.2370   2.3161
     2.3208   2.3350   2.7108   2.7192   2.7872   2.7882   2.7962   2.7974
     2.9472   2.9474   2.9906   3.0899   3.0931   3.3212   3.3227   3.4568
     3.4831   3.4848   3.7539   3.7559   3.8599   3.8868   3.8881   3.9406
     3.9709   4.0744   4.0770   4.3095   4.3123   4.3985   4.4020   4.5153
     4.5230   4.5454   4.5581   4.6873   5.0771   5.3409   5.3545   5.4486
     5.4528   5.5219   5.6337   5.6365   5.6828   5.7173   5.7470   5.7509
     5.7570   5.8049   5.8086   5.8493   6.0387   6.0828   6.1010   6.1158
     6.1309   6.1396   6.1480   6.1550   6.1576   6.1620   6.2085   6.2269

          k =-0.2500-0.2500 0.0833 (167653 PWs)   bands (ev):

   -19.6809  -7.5811  -6.8165  -6.2891  -6.2877  -5.8592  -5.4507  -5.3575
    -5.3567  -5.1612  -5.1606  -5.0447  -5.0426  -4.9645  -4.9423  -4.8689
    -4.7840  -4.7797  -4.7414  -4.7407  -4.5810  -4.5645  -4.5624  -4.5619
    -4.5549  -4.4999  -4.4996  -4.4883  -4.4874  -4.4504  -4.4404  -4.4378
    -4.3970  -4.3955  -4.3624  -4.3611  -4.3108  -4.3089  -4.2996  -4.2973
    -4.2914  -4.2793  -4.2782  -4.2387  -4.2195  -4.2193  -4.2120  -4.2117
    -4.1810  -4.1348  -4.1155  -4.1146  -4.1139  -4.1109  -4.1042  -4.0987
    -4.0975  -4.0964  -4.0348  -4.0324  -3.9933  -3.9818  -3.9702  -3.9447
    -3.9443  -3.9280  -3.9222  -3.9200  -3.9171  -3.9137  -3.8676  -3.8646
    -3.8520  -3.8512  -3.8155  -3.7464  -3.7449  -3.7394  -3.7352  -3.7014
    -3.6946  -3.6767  -3.6499  -3.6472  -3.6199  -3.6192  -3.5988  -3.5976
    -3.5863  -3.5843  -3.5296  -3.5288  -3.5139  -3.4947  -3.4857  -3.4846
    -3.4823  -3.4807  -3.4558  -3.4543  -3.4184  -3.4177  -3.3980  -3.3953
    -3.3642  -3.3617  -3.3455  -3.3176  -3.3159  -3.2799  -3.2787  -3.2441
    -3.2354  -3.2349  -3.2225  -3.2209  -3.2156  -3.2152  -3.1798  -3.1669
    -3.1279  -3.1273  -3.1181  -3.1110  -3.1082  -3.1067  -3.0833  -3.0828
    -3.0629  -3.0618  -3.0605  -3.0348  -3.0339  -3.0266  -3.0242  -3.0225
    -2.9870  -2.9847  -2.9492  -2.9477  -2.9470  -2.9445  -2.9432  -2.8638
    -2.8549  -2.8527  -2.8500  -2.8494  -2.8482  -2.8457  -2.8436  -2.8424
    -2.8421  -2.8329  -2.8250  -2.8109  -2.8077  -2.8059  -2.8042  -2.7910
    -2.7869  -2.7489  -2.7482  -2.7466  -2.7444  -2.7419  -2.7241  -2.7236
    -2.7163  -2.7154  -2.7120  -2.6564  -2.6539  -2.6498  -2.6476  -2.6446
    -2.6435  -2.6175  -2.5574  -2.5558  -2.5550  -2.5513  -2.5410  -2.5396
    -2.5364  -2.5251  -2.5229  -2.4958  -2.4857  -2.4815  -2.4781  -2.4773
    -2.4758  -2.4382  -2.4373  -2.4303  -2.4279  -2.4253  -2.4239  -2.3896
    -2.3714  -2.3655  -2.3094  -2.3075  -2.3023  -2.2902  -2.2854  -2.2821
    -2.2427  -2.2327  -2.2102  -2.2045  -2.1828  -2.1802  -2.1772  -2.1591
    -2.1560  -2.1470  -2.1385  -2.1134  -2.0902  -2.0864  -2.0741  -2.0730
    -2.0666  -2.0634  -2.0592  -2.0495  -2.0474  -2.0436  -2.0415  -2.0376
    -2.0364  -2.0296  -2.0273  -2.0190  -2.0072  -2.0065  -2.0001  -1.9967
    -1.9955  -1.9802  -1.9742  -1.9686  -1.9600  -1.9593  -1.9532  -1.9205
    -1.8921  -1.8824  -1.8740  -1.8464  -1.8299  -1.8279  -1.8193  -1.8123
    -1.7953  -1.7854  -1.7808  -1.7792  -1.7776  -1.7767  -1.7742  -1.7493
    -1.7418  -1.7409  -1.7350  -1.6962  -1.6885  -1.6579  -1.6520  -1.6088
    -1.6052  -1.5938  -1.5738  -1.5710  -1.5654  -1.5496  -1.5465  -1.5332
    -1.5294  -1.5259  -1.5254  -1.5237  -1.5227  -1.5200  -1.5112  -1.5011
    -1.4967  -1.4789  -1.4723  -1.4553  -1.4541  -1.4293  -1.4265  -1.4236
    -1.4228  -1.4190  -1.4087  -1.3973  -1.3911  -1.3803  -1.3721  -1.3584
    -1.3532  -1.3428  -1.3373  -1.3148  -1.3121  -1.3057  -1.2949  -1.2695
    -1.2662  -1.2595  -1.2586  -1.2527  -1.2432  -1.2296  -1.2288  -1.2191
    -1.2115  -1.2102  -1.1995  -1.1972  -1.1969  -1.1887  -1.1835  -1.1716
    -1.1701  -1.1631  -1.1624  -1.1514  -1.1467  -1.1411  -1.1344  -1.1016
    -1.1005  -1.0937  -1.0912  -1.0900  -1.0838  -1.0529  -1.0345  -1.0342
    -1.0337  -1.0322  -1.0300  -1.0239  -1.0201  -1.0086  -0.9976  -0.9729
    -0.9697  -0.9651  -0.9634  -0.9424  -0.9419  -0.9324  -0.9038  -0.8950
    -0.8695  -0.8668  -0.8400  -0.8392  -0.8363  -0.8358  -0.8335  -0.8290
    -0.8252  -0.8250  -0.8200  -0.8161  -0.7890  -0.7884  -0.7714  -0.7668
    -0.7659  -0.7639  -0.7623  -0.7444  -0.7381  -0.4710  -0.4571  -0.4024
    -0.3866  -0.3617  -0.1987  -0.1367  -0.1360  -0.0968   0.1814   0.1873
     0.5113   0.5197   0.6108   0.6131   0.6522   0.6564   0.7954   0.8048
     0.9195   0.9227   1.0140   1.6067   1.6255   1.6262   1.6634   1.6710
     1.7114   1.7242   1.7948   1.7999   2.0020   2.0046   2.2370   2.3161
     2.3208   2.3350   2.7108   2.7192   2.7872   2.7882   2.7962   2.7974
     2.9472   2.9474   2.9906   3.0899   3.0931   3.3212   3.3227   3.4568
     3.4831   3.4848   3.7539   3.7559   3.8599   3.8868   3.8881   3.9405
     3.9708   4.0744   4.0770   4.3095   4.3123   4.3985   4.4020   4.5153
     4.5230   4.5454   4.5581   4.6873   5.0832   5.3437   5.3592   5.4503
     5.4530   5.5270   5.6324   5.6363   5.6590   5.7042   5.7376   5.7506
     5.7556   5.8050   5.8080   5.8482   6.0253   6.0825   6.1104   6.1149
     6.1322   6.1383   6.1459   6.1536   6.1567   6.1596   6.1706   6.2175

          k =-0.2500 0.2500-0.0833 (167653 PWs)   bands (ev):

   -19.6809  -7.5811  -6.8165  -6.2900  -6.2870  -5.8590  -5.4506  -5.3587
    -5.3552  -5.1615  -5.1607  -5.0461  -5.0417  -4.9646  -4.9418  -4.8686
    -4.7839  -4.7801  -4.7422  -4.7409  -4.5810  -4.5648  -4.5637  -4.5605
    -4.5548  -4.5002  -4.4997  -4.4891  -4.4860  -4.4504  -4.4408  -4.4365
    -4.3967  -4.3954  -4.3624  -4.3610  -4.3120  -4.3073  -4.2997  -4.2973
    -4.2914  -4.2790  -4.2783  -4.2387  -4.2206  -4.2187  -4.2127  -4.2108
    -4.1807  -4.1315  -4.1209  -4.1156  -4.1132  -4.1108  -4.1044  -4.0981
    -4.0974  -4.0966  -4.0357  -4.0307  -3.9862  -3.9818  -3.9707  -3.9465
    -3.9437  -3.9360  -3.9207  -3.9202  -3.9166  -3.9136  -3.8662  -3.8646
    -3.8536  -3.8502  -3.8175  -3.7474  -3.7443  -3.7399  -3.7339  -3.7020
    -3.6950  -3.6767  -3.6500  -3.6424  -3.6210  -3.6179  -3.5996  -3.5975
    -3.5877  -3.5832  -3.5304  -3.5288  -3.5151  -3.4940  -3.4863  -3.4848
    -3.4821  -3.4813  -3.4554  -3.4543  -3.4190  -3.4167  -3.3979  -3.3948
    -3.3642  -3.3614  -3.3454  -3.3183  -3.3161  -3.2807  -3.2779  -3.2439
    -3.2350  -3.2349  -3.2223  -3.2203  -3.2163  -3.2152  -3.1799  -3.1667
    -3.1280  -3.1275  -3.1183  -3.1105  -3.1082  -3.1062  -3.0835  -3.0829
    -3.0643  -3.0619  -3.0588  -3.0346  -3.0337  -3.0266  -3.0246  -3.0224
    -2.9872  -2.9845  -2.9509  -2.9479  -2.9466  -2.9445  -2.9433  -2.8640
    -2.8547  -2.8539  -2.8505  -2.8481  -2.8480  -2.8465  -2.8435  -2.8426
    -2.8419  -2.8328  -2.8249  -2.8115  -2.8087  -2.8062  -2.8042  -2.7905
    -2.7881  -2.7491  -2.7480  -2.7465  -2.7449  -2.7406  -2.7253  -2.7225
    -2.7169  -2.7153  -2.7121  -2.6563  -2.6541  -2.6502  -2.6479  -2.6456
    -2.6429  -2.6161  -2.5563  -2.5558  -2.5539  -2.5514  -2.5420  -2.5400
    -2.5341  -2.5248  -2.5227  -2.4931  -2.4842  -2.4836  -2.4807  -2.4767
    -2.4744  -2.4398  -2.4362  -2.4299  -2.4266  -2.4265  -2.4232  -2.3876
    -2.3726  -2.3639  -2.3112  -2.3072  -2.2988  -2.2919  -2.2845  -2.2824
    -2.2379  -2.2319  -2.2100  -2.2004  -2.1834  -2.1807  -2.1774  -2.1620
    -2.1572  -2.1468  -2.1417  -2.1068  -2.0958  -2.0811  -2.0751  -2.0733
    -2.0713  -2.0633  -2.0582  -2.0529  -2.0473  -2.0434  -2.0408  -2.0372
    -2.0355  -2.0289  -2.0254  -2.0147  -2.0082  -2.0056  -2.0033  -1.9975
    -1.9958  -1.9783  -1.9738  -1.9690  -1.9612  -1.9593  -1.9539  -1.9262
    -1.9081  -1.8850  -1.8800  -1.8463  -1.8309  -1.8280  -1.8181  -1.8093
    -1.7957  -1.7910  -1.7807  -1.7793  -1.7781  -1.7771  -1.7739  -1.7443
    -1.7420  -1.7407  -1.7134  -1.6968  -1.6945  -1.6580  -1.6473  -1.6090
    -1.6059  -1.5940  -1.5736  -1.5701  -1.5650  -1.5531  -1.5445  -1.5342
    -1.5315  -1.5281  -1.5249  -1.5240  -1.5218  -1.5207  -1.5147  -1.5017
    -1.4959  -1.4786  -1.4728  -1.4547  -1.4499  -1.4310  -1.4267  -1.4244
    -1.4224  -1.4175  -1.4124  -1.3975  -1.3876  -1.3810  -1.3705  -1.3584
    -1.3508  -1.3464  -1.3333  -1.3148  -1.3113  -1.3052  -1.2974  -1.2726
    -1.2640  -1.2623  -1.2583  -1.2526  -1.2426  -1.2315  -1.2282  -1.2188
    -1.2137  -1.2083  -1.2008  -1.1975  -1.1954  -1.1881  -1.1834  -1.1724
    -1.1674  -1.1641  -1.1625  -1.1512  -1.1490  -1.1419  -1.1301  -1.1001
    -1.0969  -1.0945  -1.0921  -1.0904  -1.0850  -1.0527  -1.0377  -1.0338
    -1.0331  -1.0314  -1.0288  -1.0245  -1.0150  -1.0088  -0.9990  -0.9754
    -0.9665  -0.9646  -0.9611  -0.9431  -0.9413  -0.9321  -0.9034  -0.8950
    -0.8698  -0.8658  -0.8404  -0.8400  -0.8365  -0.8357  -0.8335  -0.8290
    -0.8256  -0.8224  -0.8209  -0.8194  -0.7897  -0.7871  -0.7726  -0.7675
    -0.7653  -0.7636  -0.7626  -0.7455  -0.7348  -0.4714  -0.4570  -0.4054
    -0.3824  -0.3622  -0.2020  -0.1388  -0.1350  -0.0974   0.1803   0.1895
     0.5065   0.5240   0.6098   0.6138   0.6494   0.6570   0.7905   0.8084
     0.9194   0.9232   1.0154   1.6065   1.6249   1.6278   1.6660   1.6706
     1.7022   1.7320   1.7899   1.8067   1.9987   2.0075   2.2385   2.3091
     2.3286   2.3345   2.7000   2.7271   2.7863   2.7901   2.7950   2.7993
     2.9457   2.9488   2.9869   3.0813   3.1037   3.3198   3.3240   3.4549
     3.4775   3.4921   3.7439   3.7623   3.8660   3.8872   3.8904   3.9306
     3.9768   4.0695   4.0788   4.3056   4.3138   4.3970   4.4051   4.5111
     4.5248   4.5393   4.5701   4.6876   5.0835   5.3333   5.3657   5.4493
     5.4606   5.5334   5.6238   5.6414   5.6633   5.7062   5.7211   5.7498
     5.7596   5.7990   5.8071   5.8507   6.0172   6.0885   6.1051   6.1238
     6.1329   6.1359   6.1406   6.1504   6.1576   6.1638   6.1843   6.2102

          k = 0.2500-0.2500-0.0833 (167653 PWs)   bands (ev):

   -19.6809  -7.5811  -6.8165  -6.2900  -6.2870  -5.8590  -5.4506  -5.3587
    -5.3552  -5.1615  -5.1607  -5.0461  -5.0417  -4.9646  -4.9418  -4.8686
    -4.7839  -4.7801  -4.7422  -4.7409  -4.5810  -4.5648  -4.5637  -4.5605
    -4.5548  -4.5002  -4.4997  -4.4891  -4.4860  -4.4504  -4.4408  -4.4365
    -4.3967  -4.3954  -4.3624  -4.3610  -4.3120  -4.3073  -4.2997  -4.2973
    -4.2914  -4.2790  -4.2783  -4.2387  -4.2206  -4.2187  -4.2127  -4.2108
    -4.1807  -4.1315  -4.1209  -4.1156  -4.1132  -4.1108  -4.1044  -4.0981
    -4.0974  -4.0966  -4.0357  -4.0307  -3.9862  -3.9818  -3.9707  -3.9465
    -3.9437  -3.9360  -3.9207  -3.9202  -3.9166  -3.9136  -3.8662  -3.8646
    -3.8536  -3.8502  -3.8175  -3.7474  -3.7443  -3.7399  -3.7339  -3.7020
    -3.6950  -3.6767  -3.6500  -3.6424  -3.6210  -3.6179  -3.5996  -3.5975
    -3.5877  -3.5832  -3.5304  -3.5288  -3.5151  -3.4940  -3.4863  -3.4848
    -3.4821  -3.4813  -3.4554  -3.4543  -3.4190  -3.4167  -3.3979  -3.3948
    -3.3642  -3.3614  -3.3454  -3.3183  -3.3161  -3.2807  -3.2779  -3.2439
    -3.2350  -3.2349  -3.2223  -3.2203  -3.2163  -3.2152  -3.1799  -3.1667
    -3.1280  -3.1275  -3.1183  -3.1105  -3.1082  -3.1062  -3.0835  -3.0829
    -3.0643  -3.0619  -3.0588  -3.0346  -3.0337  -3.0266  -3.0246  -3.0224
    -2.9872  -2.9845  -2.9509  -2.9479  -2.9466  -2.9445  -2.9433  -2.8640
    -2.8547  -2.8539  -2.8505  -2.8481  -2.8480  -2.8465  -2.8435  -2.8426
    -2.8419  -2.8328  -2.8249  -2.8115  -2.8087  -2.8062  -2.8042  -2.7905
    -2.7881  -2.7491  -2.7480  -2.7465  -2.7449  -2.7406  -2.7253  -2.7225
    -2.7169  -2.7153  -2.7121  -2.6563  -2.6541  -2.6502  -2.6479  -2.6456
    -2.6429  -2.6161  -2.5563  -2.5558  -2.5539  -2.5514  -2.5420  -2.5400
    -2.5341  -2.5248  -2.5227  -2.4931  -2.4842  -2.4836  -2.4807  -2.4767
    -2.4744  -2.4398  -2.4362  -2.4299  -2.4266  -2.4265  -2.4232  -2.3876
    -2.3726  -2.3639  -2.3112  -2.3072  -2.2988  -2.2919  -2.2845  -2.2824
    -2.2379  -2.2319  -2.2100  -2.2004  -2.1834  -2.1807  -2.1774  -2.1620
    -2.1572  -2.1468  -2.1417  -2.1068  -2.0958  -2.0811  -2.0751  -2.0733
    -2.0713  -2.0633  -2.0582  -2.0529  -2.0473  -2.0434  -2.0408  -2.0372
    -2.0355  -2.0289  -2.0254  -2.0147  -2.0082  -2.0056  -2.0033  -1.9975
    -1.9958  -1.9783  -1.9738  -1.9690  -1.9612  -1.9593  -1.9539  -1.9262
    -1.9081  -1.8850  -1.8800  -1.8463  -1.8309  -1.8280  -1.8181  -1.8093
    -1.7957  -1.7910  -1.7807  -1.7793  -1.7781  -1.7771  -1.7739  -1.7443
    -1.7420  -1.7407  -1.7134  -1.6968  -1.6945  -1.6580  -1.6473  -1.6090
    -1.6059  -1.5940  -1.5736  -1.5701  -1.5650  -1.5531  -1.5445  -1.5342
    -1.5315  -1.5281  -1.5249  -1.5240  -1.5218  -1.5207  -1.5147  -1.5017
    -1.4959  -1.4786  -1.4728  -1.4547  -1.4499  -1.4310  -1.4267  -1.4244
    -1.4224  -1.4175  -1.4124  -1.3975  -1.3876  -1.3810  -1.3705  -1.3584
    -1.3508  -1.3464  -1.3333  -1.3148  -1.3113  -1.3052  -1.2974  -1.2726
    -1.2640  -1.2623  -1.2583  -1.2526  -1.2426  -1.2315  -1.2282  -1.2188
    -1.2137  -1.2083  -1.2008  -1.1975  -1.1954  -1.1881  -1.1834  -1.1724
    -1.1674  -1.1641  -1.1625  -1.1512  -1.1490  -1.1419  -1.1301  -1.1001
    -1.0969  -1.0945  -1.0921  -1.0904  -1.0850  -1.0527  -1.0377  -1.0338
    -1.0331  -1.0314  -1.0288  -1.0245  -1.0150  -1.0088  -0.9990  -0.9754
    -0.9665  -0.9646  -0.9611  -0.9431  -0.9413  -0.9321  -0.9034  -0.8950
    -0.8698  -0.8658  -0.8404  -0.8400  -0.8365  -0.8357  -0.8335  -0.8290
    -0.8256  -0.8224  -0.8209  -0.8194  -0.7897  -0.7871  -0.7726  -0.7675
    -0.7653  -0.7636  -0.7626  -0.7455  -0.7348  -0.4714  -0.4570  -0.4054
    -0.3824  -0.3622  -0.2020  -0.1388  -0.1350  -0.0974   0.1803   0.1895
     0.5065   0.5240   0.6098   0.6138   0.6494   0.6570   0.7905   0.8084
     0.9194   0.9232   1.0154   1.6065   1.6249   1.6278   1.6660   1.6706
     1.7022   1.7320   1.7899   1.8067   1.9987   2.0075   2.2385   2.3091
     2.3286   2.3345   2.7000   2.7271   2.7863   2.7901   2.7950   2.7993
     2.9457   2.9488   2.9869   3.0813   3.1037   3.3198   3.3240   3.4549
     3.4775   3.4921   3.7439   3.7623   3.8660   3.8872   3.8904   3.9306
     3.9768   4.0695   4.0788   4.3056   4.3138   4.3970   4.4051   4.5111
     4.5248   4.5393   4.5701   4.6876   5.0836   5.3335   5.3651   5.4491
     5.4604   5.5347   5.6240   5.6414   5.6634   5.7050   5.7204   5.7496
     5.7596   5.7990   5.8071   5.8507   6.0155   6.0865   6.1042   6.1240
     6.1337   6.1367   6.1408   6.1503   6.1576   6.1629   6.1906   6.2169

          k =-0.2500 0.2500 0.2500 (167588 PWs)   bands (ev):

   -19.6809  -7.5811  -6.8165  -6.2900  -6.2870  -5.8590  -5.4506  -5.3587
    -5.3552  -5.1615  -5.1607  -5.0461  -5.0417  -4.9646  -4.9418  -4.8686
    -4.7839  -4.7801  -4.7422  -4.7409  -4.5810  -4.5648  -4.5637  -4.5605
    -4.5548  -4.5002  -4.4997  -4.4891  -4.4860  -4.4504  -4.4408  -4.4365
    -4.3967  -4.3954  -4.3624  -4.3610  -4.3120  -4.3073  -4.2997  -4.2973
    -4.2914  -4.2790  -4.2783  -4.2387  -4.2206  -4.2187  -4.2127  -4.2108
    -4.1807  -4.1315  -4.1209  -4.1156  -4.1132  -4.1108  -4.1044  -4.0981
    -4.0974  -4.0966  -4.0357  -4.0307  -3.9862  -3.9818  -3.9707  -3.9465
    -3.9437  -3.9360  -3.9207  -3.9201  -3.9166  -3.9136  -3.8662  -3.8646
    -3.8536  -3.8502  -3.8175  -3.7474  -3.7443  -3.7399  -3.7339  -3.7020
    -3.6950  -3.6767  -3.6500  -3.6424  -3.6210  -3.6179  -3.5996  -3.5975
    -3.5877  -3.5832  -3.5304  -3.5288  -3.5151  -3.4940  -3.4863  -3.4848
    -3.4821  -3.4813  -3.4554  -3.4543  -3.4189  -3.4167  -3.3979  -3.3948
    -3.3642  -3.3614  -3.3454  -3.3183  -3.3161  -3.2807  -3.2779  -3.2439
    -3.2350  -3.2349  -3.2223  -3.2203  -3.2163  -3.2152  -3.1799  -3.1667
    -3.1280  -3.1275  -3.1183  -3.1105  -3.1082  -3.1062  -3.0835  -3.0829
    -3.0643  -3.0619  -3.0588  -3.0346  -3.0337  -3.0266  -3.0246  -3.0224
    -2.9872  -2.9845  -2.9509  -2.9479  -2.9466  -2.9445  -2.9433  -2.8640
    -2.8547  -2.8539  -2.8505  -2.8481  -2.8480  -2.8465  -2.8435  -2.8426
    -2.8419  -2.8328  -2.8249  -2.8115  -2.8087  -2.8062  -2.8042  -2.7905
    -2.7881  -2.7491  -2.7480  -2.7465  -2.7449  -2.7406  -2.7253  -2.7225
    -2.7169  -2.7153  -2.7121  -2.6563  -2.6541  -2.6502  -2.6479  -2.6456
    -2.6428  -2.6161  -2.5563  -2.5558  -2.5539  -2.5514  -2.5420  -2.5400
    -2.5341  -2.5248  -2.5227  -2.4931  -2.4841  -2.4835  -2.4807  -2.4767
    -2.4744  -2.4398  -2.4362  -2.4299  -2.4266  -2.4265  -2.4232  -2.3876
    -2.3726  -2.3639  -2.3112  -2.3072  -2.2988  -2.2919  -2.2845  -2.2824
    -2.2379  -2.2319  -2.2100  -2.2004  -2.1834  -2.1807  -2.1774  -2.1620
    -2.1572  -2.1468  -2.1417  -2.1068  -2.0958  -2.0811  -2.0751  -2.0733
    -2.0713  -2.0633  -2.0582  -2.0529  -2.0473  -2.0434  -2.0408  -2.0372
    -2.0355  -2.0289  -2.0254  -2.0147  -2.0082  -2.0056  -2.0033  -1.9975
    -1.9958  -1.9783  -1.9739  -1.9690  -1.9612  -1.9592  -1.9539  -1.9262
    -1.9081  -1.8850  -1.8800  -1.8463  -1.8309  -1.8280  -1.8181  -1.8093
    -1.7957  -1.7910  -1.7807  -1.7793  -1.7781  -1.7770  -1.7739  -1.7443
    -1.7420  -1.7407  -1.7134  -1.6968  -1.6945  -1.6580  -1.6473  -1.6090
    -1.6059  -1.5940  -1.5736  -1.5701  -1.5650  -1.5531  -1.5445  -1.5342
    -1.5315  -1.5281  -1.5249  -1.5240  -1.5218  -1.5207  -1.5147  -1.5017
    -1.4959  -1.4786  -1.4728  -1.4547  -1.4499  -1.4310  -1.4267  -1.4244
    -1.4224  -1.4175  -1.4124  -1.3975  -1.3876  -1.3810  -1.3705  -1.3584
    -1.3508  -1.3464  -1.3333  -1.3148  -1.3113  -1.3052  -1.2974  -1.2725
    -1.2640  -1.2623  -1.2583  -1.2526  -1.2426  -1.2315  -1.2282  -1.2188
    -1.2137  -1.2083  -1.2008  -1.1975  -1.1954  -1.1881  -1.1834  -1.1724
    -1.1674  -1.1641  -1.1625  -1.1512  -1.1490  -1.1419  -1.1301  -1.1001
    -1.0969  -1.0945  -1.0921  -1.0904  -1.0850  -1.0527  -1.0376  -1.0338
    -1.0331  -1.0314  -1.0288  -1.0245  -1.0150  -1.0088  -0.9990  -0.9754
    -0.9665  -0.9646  -0.9611  -0.9431  -0.9413  -0.9321  -0.9034  -0.8950
    -0.8698  -0.8658  -0.8404  -0.8400  -0.8365  -0.8357  -0.8335  -0.8290
    -0.8255  -0.8224  -0.8209  -0.8194  -0.7897  -0.7871  -0.7726  -0.7675
    -0.7653  -0.7636  -0.7626  -0.7455  -0.7348  -0.4714  -0.4570  -0.4054
    -0.3824  -0.3622  -0.2020  -0.1388  -0.1350  -0.0974   0.1803   0.1895
     0.5065   0.5240   0.6098   0.6138   0.6494   0.6570   0.7905   0.8084
     0.9194   0.9232   1.0154   1.6065   1.6249   1.6278   1.6660   1.6706
     1.7022   1.7320   1.7899   1.8067   1.9987   2.0075   2.2385   2.3091
     2.3286   2.3345   2.7000   2.7271   2.7864   2.7901   2.7950   2.7993
     2.9457   2.9488   2.9869   3.0813   3.1037   3.3198   3.3240   3.4549
     3.4775   3.4921   3.7439   3.7623   3.8660   3.8872   3.8904   3.9307
     3.9769   4.0695   4.0788   4.3056   4.3138   4.3970   4.4051   4.5111
     4.5248   4.5393   4.5701   4.6877   5.0774   5.3309   5.3604   5.4486
     5.4603   5.5291   5.6241   5.6412   5.6824   5.7024   5.7476   5.7522
     5.7669   5.7991   5.8073   5.8508   6.0332   6.0842   6.1003   6.1146
     6.1318   6.1391   6.1506   6.1541   6.1577   6.1726   6.1985   6.2388

     the Fermi energy is     0.8725 ev

!    total energy              =   -7425.28901741 Ry
     Harris-Foulkes estimate   =   -7425.28901742 Ry
     estimated scf accuracy    <          4.4E-09 Ry

     The total energy is the sum of the following terms:

     one-electron contribution =  -48833.12123060 Ry
     hartree contribution      =   24967.47022906 Ry
     xc contribution           =   -3604.24020102 Ry
     ewald contribution        =   20044.60486976 Ry
     smearing contrib. (-TS)   =      -0.00268461 Ry

     convergence has been achieved in  27 iterations

     Writing output data file 5471809.save

     init_run     :    130.72s CPU    170.08s WALL (       1 calls)
     electrons    :   7628.46s CPU   8015.25s WALL (       1 calls)

     Called by init_run:
     wfcinit      :     87.74s CPU    126.00s WALL (       1 calls)
     potinit      :      7.44s CPU      7.97s WALL (       1 calls)

     Called by electrons:
     c_bands      :   5855.42s CPU   6158.34s WALL (      28 calls)
     sum_band     :   1066.70s CPU   1132.29s WALL (      28 calls)
     v_of_rho     :    134.64s CPU    146.37s WALL (      28 calls)
     newd         :    589.91s CPU    596.30s WALL (      28 calls)
     mix_rho      :      4.18s CPU      4.54s WALL (      28 calls)
     vdW_energy   :     10.04s CPU     10.93s WALL (      28 calls)
     vdW_ffts     :     70.70s CPU     76.47s WALL (      56 calls)
     vdW_v        :     15.46s CPU     16.42s WALL (      28 calls)

     Called by c_bands:
     init_us_2    :      8.57s CPU      8.86s WALL (     342 calls)
     cegterg      :   5793.29s CPU   6095.03s WALL (     168 calls)

     Called by *egterg:
     h_psi        :   2750.54s CPU   3002.48s WALL (     819 calls)
     s_psi        :    363.94s CPU    366.88s WALL (     819 calls)
     g_psi        :      4.66s CPU      4.68s WALL (     645 calls)
     cdiaghg      :   1549.84s CPU   1590.03s WALL (     807 calls)

     Called by h_psi:
     add_vuspsi   :    367.74s CPU    371.32s WALL (     819 calls)

     General routines
     calbec       :    538.64s CPU    541.53s WALL (     987 calls)
     fft          :    284.86s CPU    296.68s WALL (    1848 calls)
     ffts         :      2.20s CPU      2.36s WALL (      56 calls)
     fftw         :   2343.13s CPU   2632.15s WALL (  452908 calls)
     interpolate  :      5.46s CPU      6.12s WALL (      56 calls)
     davcio       :      0.00s CPU      0.17s WALL (       6 calls)

     Parallel routines
     fft_scatter  :   2036.30s CPU   2298.10s WALL (  454812 calls)

     PWSCF        :     2h 9m CPU        2h16m WALL


   This run was terminated on:  13:28:39  24Aug2015            

=------------------------------------------------------------------------------=
   JOB DONE.
=------------------------------------------------------------------------------=
