Setting SGE environment for SCC

     Program PWSCF v.5.1.2 starts on  2Jul2015 at  7: 5:11 

     This program is part of the open-source Quantum ESPRESSO suite
     for quantum simulation of materials; please cite
         "P. Giannozzi et al., J. Phys.:Condens. Matter 21 395502 (2009);
          URL http://www.quantum-espresso.org", 
     in publications or presentations arising from this work. More details at
     http://www.quantum-espresso.org/quote

     Parallel version (MPI), running on    32 processors
     R & G space division:  proc/nbgrp/npool/nimage =      32
     Reading input from bridge.H2.Au6165.d.2.3.phi.45.psi.90.in
Warning: card &IONS ignored
Warning: card / ignored
Warning: card &CELL ignored
Warning: card / ignored

     Current dimensions of program PWSCF are:
     Max number of different atomic species (ntypx) = 10
     Max number of k-points (npk) =  40000
     Max angular momentum in pseudopotentials (lmaxx) =  3

     IMPORTANT: XC functional enforced from input :
     Exchange-correlation      = VDW-DF ( 1  4  4  0 1 0)
     Any further DFT definition will be discarded
     Please, verify this is what you really want


     Subspace diagonalization in iterative solution of the eigenvalue problem:
     a serial algorithm will be used


     Parallelization info
     --------------------
     sticks:   dense  smooth     PW     G-vecs:    dense   smooth      PW
     Min         578     289     74               118518    41891    5486
     Max         579     290     75               118533    41932    5497
     Sum       18505    9265   2385              3792731  1341081  175711


     Title: 
     bridge.H2.Au6165.d.2.3.phi.45.psi.90                                       


     bravais-lattice index     =            8
     lattice parameter (alat)  =      24.1233  a.u.
     unit-cell volume          =   28076.2361 (a.u.)^3
     number of atoms/cell      =           75
     number of atomic types    =            3
     number of electrons       =       800.00
     number of Kohn-Sham states=          480
     kinetic-energy cutoff     =      50.0000  Ry
     charge density cutoff     =     400.0000  Ry
     convergence threshold     =      1.0E-08
     mixing beta               =       0.7000
     number of iterations used =            8  plain     mixing
     Exchange-correlation      = VDW-DF ( 1  4  4  0 1 0)

     celldm(1)=  24.123277  celldm(2)=   1.000000  celldm(3)=   2.000000
     celldm(4)=   0.000000  celldm(5)=   0.000000  celldm(6)=   0.000000

     crystal axes: (cart. coord. in units of alat)
               a(1) = (   1.000000   0.000000   0.000000 )  
               a(2) = (   0.000000   1.000000   0.000000 )  
               a(3) = (   0.000000   0.000000   2.000000 )  

     reciprocal axes: (cart. coord. in units 2 pi/alat)
               b(1) = (  1.000000  0.000000  0.000000 )  
               b(2) = (  0.000000  1.000000  0.000000 )  
               b(3) = (  0.000000  0.000000  0.500000 )  


     PseudoPot. # 1 for Au read from file:
     /home/scc/andrejb/qe/pseudo/Au.pbe-nd-van.UPF
     MD5 check sum: 458681b50f36d87ef23c61b04bba420a
     Pseudo is Ultrasoft + core correction, Zval = 11.0
     Generated by new atomic code, or converted to UPF format
     Using radial grid of  985 points,  3 beta functions with: 
                l(1) =   1
                l(2) =   2
                l(3) =   2
     Q(r) pseudized with  8 coefficients,  rinner =    1.100   1.100   1.100
                                                       1.100   1.100

     PseudoPot. # 2 for H  read from file:
     /home/scc/andrejb/qe/pseudo/H.pbe-van_ak.UPF
     MD5 check sum: 403db7282739603aa925980fa9b8608d
     Pseudo is Ultrasoft, Zval =  1.0
     Generated by new atomic code, or converted to UPF format
     Using radial grid of  615 points,  1 beta functions with: 
                l(1) =   0
     Q(r) pseudized with  8 coefficients,  rinner =    0.800

     PseudoPot. # 3 for O  read from file:
     /home/scc/andrejb/qe/pseudo/O.pbe-van_ak.UPF
     MD5 check sum: 4b8c549914a63cae506c6ff22b5af4fe
     Pseudo is Ultrasoft, Zval =  6.0
     Generated by new atomic code, or converted to UPF format
     Using radial grid of  737 points,  4 beta functions with: 
                l(1) =   0
                l(2) =   0
                l(3) =   1
                l(4) =   1
     Q(r) pseudized with  8 coefficients,  rinner =    0.800   0.800   0.800


     vdW kernel table read from file vdW_kernel_table
     MD5 check sum: 48e77a2e26edf626eeb0eaa751ad5cac

     atomic species   valence    mass     pseudopotential
        Au            11.00   196.96657     Au( 1.00)
        H              1.00     1.01000     H ( 1.00)
        O              6.00    16.00000     O ( 1.00)

     No symmetry found



   Cartesian axes

     site n.     atom                  positions (alat units)
         1           O   tau(   1) = (   0.2519727   0.3436714   0.8587086  )
         2           H   tau(   2) = (   0.2499161   0.4165269   0.8361642  )
         3           H   tau(   3) = (   0.2460693   0.3034807   0.7941463  )
         4           Au  tau(   4) = (   0.0000000   0.0000000   0.0000000  )
         5           Au  tau(   5) = (   0.3332217   0.0000000   0.0000000  )
         6           Au  tau(   6) = (   0.6664434   0.0000000   0.0000000  )
         7           Au  tau(   7) = (   0.1666109   0.1666109   0.0000000  )
         8           Au  tau(   8) = (   0.4998326   0.1666109   0.0000000  )
         9           Au  tau(   9) = (   0.8330542   0.1666109   0.0000000  )
        10           Au  tau(  10) = (   0.0000000   0.3332217   0.0000000  )
        11           Au  tau(  11) = (   0.3332217   0.3332217   0.0000000  )
        12           Au  tau(  12) = (   0.6664434   0.3332217   0.0000000  )
        13           Au  tau(  13) = (   0.1666109   0.4998326   0.0000000  )
        14           Au  tau(  14) = (   0.4998326   0.4998326   0.0000000  )
        15           Au  tau(  15) = (   0.8330542   0.4998326   0.0000000  )
        16           Au  tau(  16) = (   0.0000000   0.6664434   0.0000000  )
        17           Au  tau(  17) = (   0.3332217   0.6664434   0.0000000  )
        18           Au  tau(  18) = (   0.6664434   0.6664434   0.0000000  )
        19           Au  tau(  19) = (   0.1666109   0.8330542   0.0000000  )
        20           Au  tau(  20) = (   0.4998326   0.8330542   0.0000000  )
        21           Au  tau(  21) = (   0.8330542   0.8330542   0.0000000  )
        22           Au  tau(  22) = (   0.1666109   0.0000000   0.1666109  )
        23           Au  tau(  23) = (   0.4998326   0.0000000   0.1666109  )
        24           Au  tau(  24) = (   0.8330542   0.0000000   0.1666109  )
        25           Au  tau(  25) = (   0.0000000   0.1666109   0.1666109  )
        26           Au  tau(  26) = (   0.3332217   0.1666109   0.1666109  )
        27           Au  tau(  27) = (   0.6664434   0.1666109   0.1666109  )
        28           Au  tau(  28) = (   0.1666109   0.3332217   0.1666109  )
        29           Au  tau(  29) = (   0.4998326   0.3332217   0.1666109  )
        30           Au  tau(  30) = (   0.8330542   0.3332217   0.1666109  )
        31           Au  tau(  31) = (   0.0000000   0.4998326   0.1666109  )
        32           Au  tau(  32) = (   0.3332217   0.4998326   0.1666109  )
        33           Au  tau(  33) = (   0.6664434   0.4998326   0.1666109  )
        34           Au  tau(  34) = (   0.1666109   0.6664434   0.1666109  )
        35           Au  tau(  35) = (   0.4998326   0.6664434   0.1666109  )
        36           Au  tau(  36) = (   0.8330542   0.6664434   0.1666109  )
        37           Au  tau(  37) = (   0.0000000   0.8330542   0.1666109  )
        38           Au  tau(  38) = (   0.3332217   0.8330542   0.1666109  )
        39           Au  tau(  39) = (   0.6664434   0.8330542   0.1666109  )
        40           Au  tau(  40) = (  -0.0000182  -0.0000182   0.3335478  )
        41           Au  tau(  41) = (   0.3332215  -0.0000181   0.3335473  )
        42           Au  tau(  42) = (   0.6664447  -0.0000183   0.3335481  )
        43           Au  tau(  43) = (  -0.0000181   0.3332215   0.3335473  )
        44           Au  tau(  44) = (   0.3332215   0.3332215   0.3335468  )
        45           Au  tau(  45) = (   0.6664445   0.3332215   0.3335477  )
        46           Au  tau(  46) = (  -0.0000183   0.6664447   0.3335481  )
        47           Au  tau(  47) = (   0.3332215   0.6664445   0.3335477  )
        48           Au  tau(  48) = (   0.6664446   0.6664446   0.3335486  )
        49           Au  tau(  49) = (   0.1666097   0.1666097   0.3335483  )
        50           Au  tau(  50) = (   0.4998320   0.1666098   0.3335477  )
        51           Au  tau(  51) = (   0.8330732   0.1666096   0.3335480  )
        52           Au  tau(  52) = (   0.1666098   0.4998320   0.3335477  )
        53           Au  tau(  53) = (   0.4998322   0.4998322   0.3335470  )
        54           Au  tau(  54) = (   0.8330731   0.4998322   0.3335474  )
        55           Au  tau(  55) = (   0.1666096   0.8330732   0.3335480  )
        56           Au  tau(  56) = (   0.4998322   0.8330731   0.3335474  )
        57           Au  tau(  57) = (   0.8330731   0.8330731   0.3335478  )
        58           Au  tau(  58) = (   0.1666104  -0.0000111   0.4993095  )
        59           Au  tau(  59) = (   0.4998323  -0.0000112   0.4993099  )
        60           Au  tau(  60) = (   0.8330660  -0.0000111   0.4993009  )
        61           Au  tau(  61) = (  -0.0000111   0.1666104   0.4993095  )
        62           Au  tau(  62) = (   0.3332213   0.1666106   0.4993185  )
        63           Au  tau(  63) = (   0.6664437   0.1666106   0.4993187  )
        64           Au  tau(  64) = (   0.1666106   0.3332213   0.4993185  )
        65           Au  tau(  65) = (   0.4998324   0.3332216   0.4993185  )
        66           Au  tau(  66) = (   0.8330658   0.3332215   0.4993102  )
        67           Au  tau(  67) = (  -0.0000112   0.4998323   0.4993099  )
        68           Au  tau(  68) = (   0.3332216   0.4998324   0.4993185  )
        69           Au  tau(  69) = (   0.6664437   0.4998325   0.4993187  )
        70           Au  tau(  70) = (   0.1666106   0.6664437   0.4993187  )
        71           Au  tau(  71) = (   0.4998325   0.6664437   0.4993187  )
        72           Au  tau(  72) = (   0.8330658   0.6664438   0.4993102  )
        73           Au  tau(  73) = (  -0.0000111   0.8330660   0.4993009  )
        74           Au  tau(  74) = (   0.3332215   0.8330658   0.4993102  )
        75           Au  tau(  75) = (   0.6664438   0.8330658   0.4993102  )

     number of k points=     6  Marzari-Vanderbilt smearing, width (Ry)=  0.0200
                       cart. coord. in units 2pi/alat
        k(    1) = (   0.2500000   0.2500000   0.0833333), wk =   0.3333333
        k(    2) = (   0.2500000   0.2500000  -0.2500000), wk =   0.3333333
        k(    3) = (  -0.2500000  -0.2500000   0.0833333), wk =   0.3333333
        k(    4) = (  -0.2500000   0.2500000  -0.0833333), wk =   0.3333333
        k(    5) = (   0.2500000  -0.2500000  -0.0833333), wk =   0.3333333
        k(    6) = (  -0.2500000   0.2500000   0.2500000), wk =   0.3333333

     Dense  grid:  3792731 G-vectors     FFT dimensions: ( 160, 160, 320)

     Smooth grid:  1341081 G-vectors     FFT dimensions: ( 120, 120, 225)

     Largest allocated arrays     est. size (Mb)     dimensions
        Kohn-Sham Wavefunctions        38.58 Mb     (    5267,  480)
        NL pseudopotentials            76.03 Mb     (    5267,  946)
        Each V/rho on FFT grid          3.91 Mb     (  256000)
        Each G-vector array             0.90 Mb     (  118520)
        G-vector shells                 0.08 Mb     (   10286)
     Largest temporary arrays     est. size (Mb)     dimensions
        Auxiliary wavefunctions       154.31 Mb     (    5267, 1920)
        Each subspace H/S matrix       56.25 Mb     (    1920, 1920)
        Each <psi_i|beta_j> matrix      6.93 Mb     (     946,  480)
        Arrays for rho mixing          31.25 Mb     (  256000,    8)

     Initial potential from superposition of free atoms
     Check: negative starting charge=   -1.945002

     starting charge  799.16392, renormalised to  800.00000

     negative rho (up, down):  1.947E+00 0.000E+00


     ************************************************************************
     *
     * You are using vdW-DF for exchange-correlation in this calculation.
     * Please cite the following three references that made this development
     * possible:
     *
     *   M. Dion, H. Rydberg, E. Schroder, D. C. Langreth, and
     *   B. I. Lundqvist, Phys. Rev. Lett. 92, 246401 (2004).
     *
     *   T. Thonhauser, V. R. Cooper, S. Li, A. Puzder, P. Hyldgaard, and
     *   D. C. Langreth, Phys. Rev. B 76, 125112 (2007).
     *
     *   G. Roman-Perez and J. M. Soler, Phys. Rev. Lett. 103, 096102 (2009).
     *
     *
     * If you are using vdW-DF2, please also cite:
     *
     *   K. Lee, E. D. Murray, L. Kong, B. I. Lundqvist, and
     *   D. C. Langreth, Phys. Rev. B 82, 081101(R) (2010).
     *
     *
     * If you are calculating the stress with vdW-DF, please also cite:
     *
     *   R. Sabatini, E. Kucukbenli, B. Kolb, T. Thonhauser, and
     *   S. de Gironcoli, J. Phys.: Condens. Matter 24, 424209 (2012).
     *
     ************************************************************************

     Carrying out vdW-DF run using the following parameters:

     Nqs =      20    Nr_points =    1024   r_max =   100.000
     q_mesh =
               0.00001000     0.04494208     0.09755937     0.15916263
               0.23128650     0.31572767     0.41458969     0.53033537
               0.66584808     0.82450364     1.01025438     1.22772762
               1.48234092     1.78043706     2.12944203     2.53805004
               3.01644009     3.57652955     4.23227104     5.00000000

     Gradients computed in reciprocal space

     ************************************************************************


     Starting wfc are  654 randomized atomic wfcs

     total cpu time spent up to now is      162.3 secs

     Self-consistent Calculation

     iteration #  1     ecut=    50.00 Ry     beta=0.70
     Davidson diagonalization with overlap
     ethr =  1.00E-02,  avg # of iterations =  3.0

     Threshold (ethr) on eigenvalues was too large:
     Diagonalizing with lowered threshold

     Davidson diagonalization with overlap
     ethr =  4.28E-04,  avg # of iterations =  2.2

     negative rho (up, down):  1.948E+00 0.000E+00

     total cpu time spent up to now is      797.5 secs

     total energy              =   -7423.00442634 Ry
     Harris-Foulkes estimate   =   -7426.08432762 Ry
     estimated scf accuracy    <       3.80081092 Ry

     iteration #  2     ecut=    50.00 Ry     beta=0.70
     Davidson diagonalization with overlap
     ethr =  4.75E-04,  avg # of iterations = 11.5

     negative rho (up, down):  1.943E+00 0.000E+00

     total cpu time spent up to now is     1740.5 secs

     total energy              =   -7414.95979280 Ry
     Harris-Foulkes estimate   =   -7432.73572273 Ry
     estimated scf accuracy    <      92.95581513 Ry

     iteration #  3     ecut=    50.00 Ry     beta=0.70
     Davidson diagonalization with overlap
     ethr =  4.75E-04,  avg # of iterations =  6.0

     negative rho (up, down):  1.953E+00 0.000E+00

     total cpu time spent up to now is     2375.4 secs

     total energy              =   -7423.95570385 Ry
     Harris-Foulkes estimate   =   -7425.96791340 Ry
     estimated scf accuracy    <       8.91037065 Ry

     iteration #  4     ecut=    50.00 Ry     beta=0.70
     Davidson diagonalization with overlap
     ethr =  4.75E-04,  avg # of iterations =  6.8

     negative rho (up, down):  1.955E+00 0.000E+00

     total cpu time spent up to now is     2766.6 secs

     total energy              =   -7424.59514603 Ry
     Harris-Foulkes estimate   =   -7425.84397846 Ry
     estimated scf accuracy    <       8.42899631 Ry

     iteration #  5     ecut=    50.00 Ry     beta=0.70
     Davidson diagonalization with overlap
     ethr =  4.75E-04,  avg # of iterations =  6.0

     negative rho (up, down):  1.964E+00 0.000E+00

     total cpu time spent up to now is     3148.4 secs

     total energy              =   -7425.16164843 Ry
     Harris-Foulkes estimate   =   -7425.52160208 Ry
     estimated scf accuracy    <       2.47948591 Ry

     iteration #  6     ecut=    50.00 Ry     beta=0.70
     Davidson diagonalization with overlap
     ethr =  3.10E-04,  avg # of iterations =  5.7

     negative rho (up, down):  1.968E+00 0.000E+00

     total cpu time spent up to now is     3496.0 secs

     total energy              =   -7425.28683563 Ry
     Harris-Foulkes estimate   =   -7425.32499111 Ry
     estimated scf accuracy    <       0.11744889 Ry

     iteration #  7     ecut=    50.00 Ry     beta=0.70
     Davidson diagonalization with overlap
     ethr =  1.47E-05,  avg # of iterations = 10.7

     negative rho (up, down):  1.971E+00 0.000E+00

     total cpu time spent up to now is     3969.6 secs

     total energy              =   -7425.27705275 Ry
     Harris-Foulkes estimate   =   -7425.32970190 Ry
     estimated scf accuracy    <       0.28429052 Ry

     iteration #  8     ecut=    50.00 Ry     beta=0.70
     Davidson diagonalization with overlap
     ethr =  1.47E-05,  avg # of iterations =  3.0

     negative rho (up, down):  1.972E+00 0.000E+00

     total cpu time spent up to now is     4301.5 secs

     total energy              =   -7425.29168958 Ry
     Harris-Foulkes estimate   =   -7425.30542995 Ry
     estimated scf accuracy    <       0.04961753 Ry

     iteration #  9     ecut=    50.00 Ry     beta=0.70
     Davidson diagonalization with overlap
     ethr =  6.20E-06,  avg # of iterations =  5.3

     negative rho (up, down):  1.972E+00 0.000E+00

     total cpu time spent up to now is     4655.7 secs

     total energy              =   -7425.28956873 Ry
     Harris-Foulkes estimate   =   -7425.29974512 Ry
     estimated scf accuracy    <       0.03578863 Ry

     iteration # 10     ecut=    50.00 Ry     beta=0.70
     Davidson diagonalization with overlap
     ethr =  4.47E-06,  avg # of iterations =  4.3

     negative rho (up, down):  1.973E+00 0.000E+00

     total cpu time spent up to now is     5031.7 secs

     total energy              =   -7425.29063684 Ry
     Harris-Foulkes estimate   =   -7425.29378640 Ry
     estimated scf accuracy    <       0.01030529 Ry

     iteration # 11     ecut=    50.00 Ry     beta=0.70
     Davidson diagonalization with overlap
     ethr =  1.29E-06,  avg # of iterations =  7.3

     negative rho (up, down):  1.974E+00 0.000E+00

     total cpu time spent up to now is     5409.6 secs

     total energy              =   -7425.29057821 Ry
     Harris-Foulkes estimate   =   -7425.29197775 Ry
     estimated scf accuracy    <       0.00574709 Ry

     iteration # 12     ecut=    50.00 Ry     beta=0.70
     Davidson diagonalization with overlap
     ethr =  7.18E-07,  avg # of iterations =  2.7

     negative rho (up, down):  1.975E+00 0.000E+00

     total cpu time spent up to now is     5716.0 secs

     total energy              =   -7425.28964203 Ry
     Harris-Foulkes estimate   =   -7425.29103210 Ry
     estimated scf accuracy    <       0.00203714 Ry

     iteration # 13     ecut=    50.00 Ry     beta=0.70
     Davidson diagonalization with overlap
     ethr =  2.55E-07,  avg # of iterations =  6.7

     negative rho (up, down):  1.974E+00 0.000E+00

     total cpu time spent up to now is     6152.9 secs

     total energy              =   -7425.28933670 Ry
     Harris-Foulkes estimate   =   -7425.29078290 Ry
     estimated scf accuracy    <       0.00657382 Ry

     iteration # 14     ecut=    50.00 Ry     beta=0.70
     Davidson diagonalization with overlap
     ethr =  2.55E-07,  avg # of iterations =  3.0

     negative rho (up, down):  1.974E+00 0.000E+00

     total cpu time spent up to now is     6487.5 secs

     total energy              =   -7425.28995389 Ry
     Harris-Foulkes estimate   =   -7425.29020718 Ry
     estimated scf accuracy    <       0.00102414 Ry

     iteration # 15     ecut=    50.00 Ry     beta=0.70
     Davidson diagonalization with overlap
     ethr =  1.28E-07,  avg # of iterations =  2.0

     negative rho (up, down):  1.974E+00 0.000E+00

     total cpu time spent up to now is     6808.3 secs

     total energy              =   -7425.28998957 Ry
     Harris-Foulkes estimate   =   -7425.29019361 Ry
     estimated scf accuracy    <       0.00109383 Ry

     iteration # 16     ecut=    50.00 Ry     beta=0.70
     Davidson diagonalization with overlap
     ethr =  1.28E-07,  avg # of iterations =  1.0

     negative rho (up, down):  1.974E+00 0.000E+00

     total cpu time spent up to now is     7096.6 secs

     total energy              =   -7425.29005316 Ry
     Harris-Foulkes estimate   =   -7425.29017185 Ry
     estimated scf accuracy    <       0.00090758 Ry

     iteration # 17     ecut=    50.00 Ry     beta=0.70
     Davidson diagonalization with overlap
     ethr =  1.13E-07,  avg # of iterations =  1.0

     negative rho (up, down):  1.974E+00 0.000E+00

     total cpu time spent up to now is     7347.6 secs

     total energy              =   -7425.29010893 Ry
     Harris-Foulkes estimate   =   -7425.29012057 Ry
     estimated scf accuracy    <       0.00003045 Ry

     iteration # 18     ecut=    50.00 Ry     beta=0.70
     Davidson diagonalization with overlap
     ethr =  3.81E-09,  avg # of iterations =  3.0

     negative rho (up, down):  1.974E+00 0.000E+00

     total cpu time spent up to now is     7679.8 secs

     total energy              =   -7425.29011323 Ry
     Harris-Foulkes estimate   =   -7425.29011809 Ry
     estimated scf accuracy    <       0.00001884 Ry

     iteration # 19     ecut=    50.00 Ry     beta=0.70
     Davidson diagonalization with overlap
     ethr =  2.36E-09,  avg # of iterations =  2.0

     negative rho (up, down):  1.974E+00 0.000E+00

     total cpu time spent up to now is     7969.3 secs

     total energy              =   -7425.29011356 Ry
     Harris-Foulkes estimate   =   -7425.29011920 Ry
     estimated scf accuracy    <       0.00002842 Ry

     iteration # 20     ecut=    50.00 Ry     beta=0.70
     Davidson diagonalization with overlap
     ethr =  2.36E-09,  avg # of iterations =  2.0

     negative rho (up, down):  1.974E+00 0.000E+00

     total cpu time spent up to now is     8253.5 secs

     total energy              =   -7425.29011634 Ry
     Harris-Foulkes estimate   =   -7425.29011692 Ry
     estimated scf accuracy    <       0.00000226 Ry

     iteration # 21     ecut=    50.00 Ry     beta=0.70
     Davidson diagonalization with overlap
     ethr =  2.82E-10,  avg # of iterations =  2.0

     negative rho (up, down):  1.974E+00 0.000E+00

     total cpu time spent up to now is     8597.1 secs

     total energy              =   -7425.29011659 Ry
     Harris-Foulkes estimate   =   -7425.29011701 Ry
     estimated scf accuracy    <       0.00000182 Ry

     iteration # 22     ecut=    50.00 Ry     beta=0.70
     Davidson diagonalization with overlap
     ethr =  2.27E-10,  avg # of iterations =  2.0

     negative rho (up, down):  1.974E+00 0.000E+00

     total cpu time spent up to now is     8902.9 secs

     total energy              =   -7425.29011688 Ry
     Harris-Foulkes estimate   =   -7425.29011698 Ry
     estimated scf accuracy    <       0.00000071 Ry

     iteration # 23     ecut=    50.00 Ry     beta=0.70
     Davidson diagonalization with overlap
     ethr =  8.91E-11,  avg # of iterations =  3.0

     negative rho (up, down):  1.974E+00 0.000E+00

     total cpu time spent up to now is     9238.4 secs

     total energy              =   -7425.29011694 Ry
     Harris-Foulkes estimate   =   -7425.29011699 Ry
     estimated scf accuracy    <       0.00000013 Ry

     iteration # 24     ecut=    50.00 Ry     beta=0.70
     Davidson diagonalization with overlap
     ethr =  1.66E-11,  avg # of iterations =  3.0

     negative rho (up, down):  1.974E+00 0.000E+00

     total cpu time spent up to now is     9603.6 secs

     total energy              =   -7425.29011696 Ry
     Harris-Foulkes estimate   =   -7425.29011701 Ry
     estimated scf accuracy    <       0.00000037 Ry

     iteration # 25     ecut=    50.00 Ry     beta=0.70
     Davidson diagonalization with overlap
     ethr =  1.66E-11,  avg # of iterations =  2.0

     negative rho (up, down):  1.974E+00 0.000E+00

     total cpu time spent up to now is     9918.7 secs

     total energy              =   -7425.29011700 Ry
     Harris-Foulkes estimate   =   -7425.29011701 Ry
     estimated scf accuracy    <       0.00000008 Ry

     iteration # 26     ecut=    50.00 Ry     beta=0.70
     Davidson diagonalization with overlap
     ethr =  1.02E-11,  avg # of iterations =  2.0

     negative rho (up, down):  1.974E+00 0.000E+00

     total cpu time spent up to now is    10219.4 secs

     total energy              =   -7425.29011702 Ry
     Harris-Foulkes estimate   =   -7425.29011703 Ry
     estimated scf accuracy    <       0.00000021 Ry

     iteration # 27     ecut=    50.00 Ry     beta=0.70
     Davidson diagonalization with overlap
     ethr =  1.02E-11,  avg # of iterations =  2.0

     negative rho (up, down):  1.974E+00 0.000E+00

     total cpu time spent up to now is    10522.2 secs

     total energy              =   -7425.29011703 Ry
     Harris-Foulkes estimate   =   -7425.29011703 Ry
     estimated scf accuracy    <       0.00000002 Ry

     iteration # 28     ecut=    50.00 Ry     beta=0.70
     Davidson diagonalization with overlap
     ethr =  2.52E-12,  avg # of iterations =  2.0

     negative rho (up, down):  1.974E+00 0.000E+00

     total cpu time spent up to now is    10847.8 secs

     End of self-consistent calculation

          k = 0.2500 0.2500 0.0833 (167653 PWs)   bands (ev):

   -19.2039  -7.0212  -6.9152  -6.3868  -6.3862  -5.9570  -5.5479  -5.4549
    -5.4544  -5.2587  -5.2587  -5.1412  -5.1402  -5.0623  -5.0392  -4.9663
    -4.8815  -4.8775  -4.8387  -4.8385  -4.6778  -4.6614  -4.6601  -4.6597
    -4.6526  -4.5971  -4.5970  -4.5853  -4.5849  -4.5482  -4.5357  -4.5350
    -4.4934  -4.4933  -4.4599  -4.4586  -4.4069  -4.4063  -4.3956  -4.3948
    -4.3892  -4.3761  -4.3761  -4.3350  -4.3169  -4.3167  -4.3097  -4.3095
    -4.2771  -4.2277  -4.2126  -4.2123  -4.2088  -4.2082  -4.2007  -4.1949
    -4.1947  -4.1945  -4.1297  -4.1288  -4.0799  -4.0792  -4.0669  -4.0410
    -4.0409  -4.0215  -4.0186  -4.0178  -4.0134  -4.0107  -3.9619  -3.9618
    -3.9489  -3.9485  -3.8436  -3.8430  -3.8375  -3.8368  -3.7998  -3.7912
    -3.7757  -3.7465  -3.7465  -3.7180  -3.7175  -3.6961  -3.6958  -3.6824
    -3.6818  -3.6275  -3.6272  -3.6094  -3.5926  -3.5819  -3.5804  -3.5802
    -3.5786  -3.5517  -3.5514  -3.5153  -3.5152  -3.4929  -3.4924  -3.4595
    -3.4591  -3.4411  -3.4137  -3.4136  -3.3764  -3.3761  -3.3408  -3.3333
    -3.3327  -3.3188  -3.3183  -3.3135  -3.3133  -3.2751  -3.2641  -3.2340
    -3.2238  -3.2233  -3.2159  -3.2062  -3.2057  -3.2040  -3.1799  -3.1798
    -3.1587  -3.1581  -3.1576  -3.1310  -3.1310  -3.1234  -3.1206  -3.1204
    -3.0842  -3.0804  -3.0450  -3.0445  -3.0438  -3.0410  -3.0408  -2.9618
    -2.9518  -2.9475  -2.9469  -2.9459  -2.9454  -2.9409  -2.9406  -2.9404
    -2.9402  -2.9307  -2.9228  -2.9057  -2.9031  -2.9023  -2.9020  -2.8874
    -2.8830  -2.8447  -2.8441  -2.8438  -2.8399  -2.8393  -2.8214  -2.8211
    -2.8123  -2.8123  -2.8101  -2.7504  -2.7503  -2.7451  -2.7450  -2.7400
    -2.7397  -2.7116  -2.6528  -2.6513  -2.6511  -2.6491  -2.6379  -2.6355
    -2.6308  -2.6199  -2.6197  -2.5831  -2.5822  -2.5741  -2.5733  -2.5729
    -2.5724  -2.5331  -2.5327  -2.5231  -2.5230  -2.5216  -2.5212  -2.4794
    -2.4635  -2.4579  -2.4047  -2.4043  -2.3859  -2.3841  -2.3790  -2.3789
    -2.3305  -2.3296  -2.3066  -2.2902  -2.2760  -2.2752  -2.2749  -2.2531
    -2.2529  -2.2432  -2.2267  -2.1864  -2.1857  -2.1716  -2.1708  -2.1707
    -2.1602  -2.1599  -2.1451  -2.1444  -2.1443  -2.1400  -2.1352  -2.1342
    -2.1339  -2.1225  -2.1220  -2.1044  -2.1041  -2.1022  -2.0959  -2.0932
    -2.0929  -2.0693  -2.0688  -2.0577  -2.0556  -2.0512  -2.0505  -2.0126
    -1.9788  -1.9783  -1.9430  -1.9258  -1.9255  -1.9152  -1.9144  -1.8914
    -1.8908  -1.8767  -1.8760  -1.8746  -1.8746  -1.8717  -1.8709  -1.8391
    -1.8389  -1.8386  -1.7928  -1.7923  -1.7527  -1.7523  -1.7052  -1.7049
    -1.6928  -1.6703  -1.6655  -1.6623  -1.6464  -1.6441  -1.6272  -1.6265
    -1.6223  -1.6213  -1.6202  -1.6197  -1.6191  -1.6169  -1.5967  -1.5966
    -1.5860  -1.5687  -1.5500  -1.5499  -1.5232  -1.5229  -1.5205  -1.5199
    -1.5170  -1.5141  -1.4925  -1.4920  -1.4777  -1.4766  -1.4641  -1.4540
    -1.4407  -1.4400  -1.4094  -1.4089  -1.4011  -1.4010  -1.3658  -1.3651
    -1.3574  -1.3568  -1.3484  -1.3480  -1.3267  -1.3263  -1.3145  -1.3080
    -1.3074  -1.2945  -1.2944  -1.2937  -1.2933  -1.2792  -1.2689  -1.2680
    -1.2608  -1.2606  -1.2490  -1.2442  -1.2440  -1.2371  -1.2109  -1.1976
    -1.1956  -1.1911  -1.1880  -1.1875  -1.1874  -1.1484  -1.1320  -1.1310
    -1.1309  -1.1308  -1.1263  -1.1259  -1.1213  -1.1087  -1.1057  -1.0697
    -1.0691  -1.0621  -1.0621  -1.0393  -1.0390  -1.0292  -0.9995  -0.9918
    -0.9647  -0.9641  -0.9364  -0.9363  -0.9339  -0.9330  -0.9311  -0.9274
    -0.9243  -0.9222  -0.9178  -0.9174  -0.8856  -0.8852  -0.8679  -0.8667
    -0.8619  -0.8614  -0.8600  -0.8598  -0.8412  -0.5655  -0.5545  -0.5003
    -0.4978  -0.4599  -0.2989  -0.2341  -0.2336  -0.2027   0.0851   0.0855
     0.4141   0.4167   0.5142   0.5144   0.5550   0.5563   0.6983   0.6996
     0.8228   0.8249   0.9108   1.5102   1.5282   1.5292   1.5673   1.5744
     1.6142   1.6212   1.6981   1.6992   1.9058   1.9063   2.1394   2.2195
     2.2227   2.2369   2.6139   2.6204   2.6920   2.6921   2.6984   2.6993
     2.8502   2.8512   2.8956   2.9928   2.9956   3.2266   3.2276   3.3606
     3.3874   3.3884   3.6578   3.6600   3.7706   3.7912   3.7913   3.8410
     3.8745   3.9775   3.9793   4.2142   4.2165   4.3018   4.3040   4.4282
     4.4312   4.4461   4.4550   4.5905   4.9296   5.2508   5.2730   5.3596
     5.3614   5.4739   5.5386   5.5407   5.5976   5.6481   5.6550   5.6720
     5.6966   5.7084   5.7093   5.7529   5.9755   5.9907   6.0203   6.0385
     6.0477   6.0519   6.0596   6.0613   6.0644   6.1061   6.1319   6.1523

          k = 0.2500 0.2500-0.2500 (167588 PWs)   bands (ev):

   -19.2039  -7.0212  -6.9152  -6.3868  -6.3862  -5.9570  -5.5479  -5.4549
    -5.4544  -5.2587  -5.2587  -5.1412  -5.1402  -5.0623  -5.0392  -4.9663
    -4.8815  -4.8775  -4.8387  -4.8385  -4.6778  -4.6614  -4.6601  -4.6597
    -4.6526  -4.5971  -4.5970  -4.5853  -4.5849  -4.5482  -4.5357  -4.5350
    -4.4934  -4.4933  -4.4599  -4.4586  -4.4069  -4.4063  -4.3956  -4.3948
    -4.3892  -4.3761  -4.3761  -4.3350  -4.3169  -4.3167  -4.3097  -4.3095
    -4.2771  -4.2277  -4.2126  -4.2123  -4.2088  -4.2082  -4.2007  -4.1949
    -4.1947  -4.1945  -4.1297  -4.1288  -4.0799  -4.0792  -4.0669  -4.0410
    -4.0408  -4.0214  -4.0186  -4.0178  -4.0134  -4.0108  -3.9619  -3.9618
    -3.9489  -3.9485  -3.8436  -3.8430  -3.8375  -3.8368  -3.7998  -3.7912
    -3.7757  -3.7465  -3.7465  -3.7180  -3.7175  -3.6961  -3.6958  -3.6824
    -3.6818  -3.6275  -3.6272  -3.6094  -3.5926  -3.5819  -3.5804  -3.5802
    -3.5786  -3.5517  -3.5514  -3.5153  -3.5152  -3.4929  -3.4924  -3.4595
    -3.4591  -3.4411  -3.4137  -3.4136  -3.3763  -3.3761  -3.3408  -3.3333
    -3.3327  -3.3188  -3.3183  -3.3135  -3.3132  -3.2751  -3.2641  -3.2340
    -3.2238  -3.2233  -3.2159  -3.2062  -3.2057  -3.2040  -3.1799  -3.1798
    -3.1587  -3.1581  -3.1576  -3.1310  -3.1310  -3.1234  -3.1206  -3.1204
    -3.0842  -3.0804  -3.0450  -3.0445  -3.0438  -3.0410  -3.0408  -2.9618
    -2.9518  -2.9475  -2.9469  -2.9459  -2.9454  -2.9409  -2.9405  -2.9404
    -2.9402  -2.9307  -2.9228  -2.9057  -2.9031  -2.9023  -2.9020  -2.8874
    -2.8830  -2.8447  -2.8441  -2.8438  -2.8399  -2.8393  -2.8214  -2.8211
    -2.8123  -2.8123  -2.8101  -2.7504  -2.7503  -2.7451  -2.7450  -2.7399
    -2.7397  -2.7116  -2.6528  -2.6513  -2.6511  -2.6491  -2.6379  -2.6355
    -2.6308  -2.6199  -2.6196  -2.5831  -2.5822  -2.5741  -2.5733  -2.5729
    -2.5724  -2.5331  -2.5327  -2.5231  -2.5230  -2.5216  -2.5212  -2.4794
    -2.4635  -2.4579  -2.4047  -2.4043  -2.3859  -2.3841  -2.3790  -2.3789
    -2.3305  -2.3296  -2.3066  -2.2902  -2.2760  -2.2752  -2.2749  -2.2531
    -2.2529  -2.2432  -2.2267  -2.1864  -2.1856  -2.1716  -2.1708  -2.1707
    -2.1602  -2.1599  -2.1451  -2.1444  -2.1443  -2.1400  -2.1352  -2.1342
    -2.1339  -2.1225  -2.1220  -2.1044  -2.1041  -2.1022  -2.0959  -2.0932
    -2.0929  -2.0693  -2.0688  -2.0577  -2.0556  -2.0512  -2.0505  -2.0127
    -1.9788  -1.9783  -1.9430  -1.9258  -1.9255  -1.9152  -1.9144  -1.8914
    -1.8907  -1.8767  -1.8759  -1.8746  -1.8746  -1.8717  -1.8709  -1.8391
    -1.8389  -1.8386  -1.7928  -1.7923  -1.7527  -1.7523  -1.7052  -1.7049
    -1.6928  -1.6703  -1.6655  -1.6623  -1.6464  -1.6441  -1.6272  -1.6265
    -1.6223  -1.6213  -1.6202  -1.6197  -1.6191  -1.6169  -1.5967  -1.5966
    -1.5860  -1.5687  -1.5500  -1.5499  -1.5232  -1.5229  -1.5205  -1.5199
    -1.5170  -1.5141  -1.4925  -1.4920  -1.4778  -1.4766  -1.4641  -1.4540
    -1.4407  -1.4400  -1.4094  -1.4090  -1.4011  -1.4010  -1.3658  -1.3651
    -1.3574  -1.3568  -1.3484  -1.3480  -1.3267  -1.3263  -1.3145  -1.3080
    -1.3074  -1.2945  -1.2944  -1.2937  -1.2933  -1.2792  -1.2689  -1.2680
    -1.2608  -1.2606  -1.2490  -1.2442  -1.2440  -1.2371  -1.2109  -1.1976
    -1.1956  -1.1911  -1.1880  -1.1875  -1.1874  -1.1484  -1.1320  -1.1310
    -1.1309  -1.1308  -1.1263  -1.1259  -1.1213  -1.1087  -1.1057  -1.0697
    -1.0691  -1.0621  -1.0621  -1.0393  -1.0390  -1.0292  -0.9995  -0.9918
    -0.9647  -0.9641  -0.9364  -0.9363  -0.9339  -0.9330  -0.9311  -0.9274
    -0.9243  -0.9222  -0.9178  -0.9174  -0.8856  -0.8852  -0.8679  -0.8667
    -0.8619  -0.8614  -0.8600  -0.8598  -0.8412  -0.5655  -0.5545  -0.5003
    -0.4978  -0.4599  -0.2989  -0.2341  -0.2336  -0.2027   0.0851   0.0855
     0.4141   0.4167   0.5142   0.5144   0.5550   0.5563   0.6983   0.6996
     0.8228   0.8249   0.9108   1.5102   1.5282   1.5292   1.5673   1.5744
     1.6142   1.6212   1.6981   1.6992   1.9058   1.9063   2.1394   2.2195
     2.2227   2.2369   2.6139   2.6204   2.6920   2.6921   2.6984   2.6993
     2.8502   2.8512   2.8956   2.9928   2.9956   3.2266   3.2276   3.3606
     3.3874   3.3884   3.6578   3.6600   3.7706   3.7912   3.7913   3.8410
     3.8745   3.9775   3.9793   4.2142   4.2165   4.3018   4.3040   4.4282
     4.4312   4.4461   4.4550   4.5906   4.9261   5.2505   5.2709   5.3591
     5.3614   5.4633   5.5386   5.5407   5.6043   5.6461   5.6558   5.6685
     5.7084   5.7093   5.7337   5.7533   5.9844   5.9959   6.0214   6.0386
     6.0480   6.0519   6.0597   6.0613   6.0879   6.1232   6.1398   6.1558

          k =-0.2500-0.2500 0.0833 (167653 PWs)   bands (ev):

   -19.2039  -7.0212  -6.9152  -6.3868  -6.3862  -5.9570  -5.5479  -5.4549
    -5.4544  -5.2587  -5.2587  -5.1412  -5.1402  -5.0623  -5.0392  -4.9663
    -4.8815  -4.8775  -4.8387  -4.8385  -4.6778  -4.6614  -4.6601  -4.6597
    -4.6526  -4.5971  -4.5970  -4.5853  -4.5849  -4.5482  -4.5357  -4.5350
    -4.4934  -4.4933  -4.4599  -4.4586  -4.4069  -4.4063  -4.3956  -4.3948
    -4.3892  -4.3761  -4.3761  -4.3350  -4.3169  -4.3167  -4.3097  -4.3095
    -4.2771  -4.2277  -4.2126  -4.2123  -4.2088  -4.2082  -4.2007  -4.1949
    -4.1947  -4.1945  -4.1297  -4.1288  -4.0799  -4.0792  -4.0669  -4.0410
    -4.0409  -4.0215  -4.0186  -4.0178  -4.0134  -4.0107  -3.9619  -3.9618
    -3.9489  -3.9485  -3.8436  -3.8430  -3.8375  -3.8368  -3.7998  -3.7912
    -3.7757  -3.7465  -3.7465  -3.7180  -3.7175  -3.6961  -3.6958  -3.6824
    -3.6818  -3.6275  -3.6272  -3.6094  -3.5926  -3.5819  -3.5804  -3.5802
    -3.5786  -3.5517  -3.5514  -3.5153  -3.5152  -3.4929  -3.4924  -3.4595
    -3.4591  -3.4411  -3.4137  -3.4136  -3.3764  -3.3761  -3.3408  -3.3333
    -3.3327  -3.3188  -3.3183  -3.3135  -3.3133  -3.2751  -3.2641  -3.2340
    -3.2238  -3.2233  -3.2159  -3.2062  -3.2057  -3.2040  -3.1799  -3.1798
    -3.1587  -3.1581  -3.1576  -3.1310  -3.1310  -3.1234  -3.1206  -3.1204
    -3.0842  -3.0804  -3.0450  -3.0445  -3.0438  -3.0410  -3.0408  -2.9618
    -2.9518  -2.9475  -2.9469  -2.9459  -2.9454  -2.9409  -2.9406  -2.9404
    -2.9402  -2.9307  -2.9228  -2.9057  -2.9031  -2.9023  -2.9020  -2.8874
    -2.8830  -2.8447  -2.8441  -2.8438  -2.8399  -2.8393  -2.8214  -2.8211
    -2.8123  -2.8123  -2.8101  -2.7504  -2.7503  -2.7451  -2.7450  -2.7400
    -2.7397  -2.7116  -2.6528  -2.6513  -2.6511  -2.6491  -2.6379  -2.6355
    -2.6308  -2.6199  -2.6197  -2.5831  -2.5822  -2.5741  -2.5733  -2.5729
    -2.5724  -2.5331  -2.5327  -2.5231  -2.5230  -2.5216  -2.5212  -2.4794
    -2.4635  -2.4579  -2.4047  -2.4043  -2.3859  -2.3841  -2.3790  -2.3789
    -2.3305  -2.3296  -2.3066  -2.2902  -2.2760  -2.2752  -2.2749  -2.2531
    -2.2529  -2.2432  -2.2267  -2.1864  -2.1857  -2.1716  -2.1708  -2.1707
    -2.1602  -2.1599  -2.1451  -2.1444  -2.1443  -2.1400  -2.1352  -2.1342
    -2.1339  -2.1225  -2.1220  -2.1044  -2.1041  -2.1022  -2.0959  -2.0932
    -2.0929  -2.0693  -2.0688  -2.0577  -2.0556  -2.0512  -2.0505  -2.0126
    -1.9788  -1.9783  -1.9430  -1.9258  -1.9255  -1.9152  -1.9144  -1.8914
    -1.8908  -1.8767  -1.8760  -1.8746  -1.8746  -1.8717  -1.8709  -1.8391
    -1.8389  -1.8386  -1.7928  -1.7923  -1.7527  -1.7523  -1.7052  -1.7049
    -1.6928  -1.6703  -1.6655  -1.6623  -1.6464  -1.6441  -1.6272  -1.6265
    -1.6223  -1.6213  -1.6202  -1.6197  -1.6191  -1.6169  -1.5967  -1.5966
    -1.5860  -1.5687  -1.5500  -1.5499  -1.5232  -1.5229  -1.5205  -1.5199
    -1.5170  -1.5141  -1.4925  -1.4920  -1.4777  -1.4766  -1.4641  -1.4540
    -1.4407  -1.4400  -1.4094  -1.4089  -1.4011  -1.4010  -1.3658  -1.3651
    -1.3574  -1.3568  -1.3484  -1.3480  -1.3267  -1.3263  -1.3145  -1.3080
    -1.3074  -1.2945  -1.2944  -1.2937  -1.2933  -1.2792  -1.2689  -1.2680
    -1.2608  -1.2606  -1.2490  -1.2442  -1.2440  -1.2371  -1.2109  -1.1976
    -1.1956  -1.1911  -1.1880  -1.1875  -1.1874  -1.1484  -1.1320  -1.1310
    -1.1309  -1.1308  -1.1263  -1.1259  -1.1213  -1.1087  -1.1057  -1.0697
    -1.0691  -1.0621  -1.0621  -1.0393  -1.0390  -1.0292  -0.9995  -0.9918
    -0.9647  -0.9641  -0.9364  -0.9363  -0.9339  -0.9330  -0.9311  -0.9274
    -0.9243  -0.9222  -0.9178  -0.9174  -0.8856  -0.8852  -0.8679  -0.8667
    -0.8619  -0.8614  -0.8600  -0.8598  -0.8412  -0.5655  -0.5545  -0.5003
    -0.4978  -0.4599  -0.2989  -0.2341  -0.2336  -0.2027   0.0851   0.0855
     0.4141   0.4167   0.5142   0.5144   0.5550   0.5563   0.6983   0.6996
     0.8228   0.8249   0.9108   1.5102   1.5282   1.5292   1.5673   1.5744
     1.6142   1.6212   1.6981   1.6992   1.9058   1.9063   2.1394   2.2195
     2.2227   2.2369   2.6139   2.6204   2.6920   2.6921   2.6984   2.6993
     2.8502   2.8512   2.8956   2.9928   2.9956   3.2266   3.2276   3.3606
     3.3874   3.3884   3.6578   3.6600   3.7706   3.7912   3.7913   3.8410
     3.8745   3.9775   3.9793   4.2142   4.2165   4.3018   4.3040   4.4282
     4.4312   4.4461   4.4550   4.5905   4.9296   5.2509   5.2730   5.3596
     5.3614   5.4720   5.5386   5.5407   5.5987   5.6484   5.6549   5.6737
     5.6967   5.7084   5.7093   5.7529   5.9752   5.9905   6.0203   6.0385
     6.0477   6.0519   6.0596   6.0612   6.0643   6.1045   6.1323   6.1519

          k =-0.2500 0.2500-0.0833 (167653 PWs)   bands (ev):

   -19.2039  -7.0212  -6.9152  -6.3868  -6.3862  -5.9570  -5.5479  -5.4549
    -5.4544  -5.2587  -5.2587  -5.1412  -5.1402  -5.0623  -5.0392  -4.9663
    -4.8815  -4.8775  -4.8387  -4.8385  -4.6777  -4.6614  -4.6601  -4.6596
    -4.6526  -4.5971  -4.5970  -4.5853  -4.5849  -4.5482  -4.5357  -4.5350
    -4.4934  -4.4933  -4.4599  -4.4586  -4.4069  -4.4063  -4.3956  -4.3948
    -4.3892  -4.3761  -4.3761  -4.3350  -4.3169  -4.3167  -4.3097  -4.3094
    -4.2771  -4.2277  -4.2127  -4.2123  -4.2088  -4.2082  -4.2007  -4.1949
    -4.1947  -4.1945  -4.1297  -4.1288  -4.0799  -4.0792  -4.0669  -4.0411
    -4.0409  -4.0215  -4.0186  -4.0178  -4.0134  -4.0108  -3.9619  -3.9618
    -3.9489  -3.9485  -3.8436  -3.8430  -3.8375  -3.8368  -3.7998  -3.7912
    -3.7757  -3.7465  -3.7465  -3.7180  -3.7175  -3.6961  -3.6958  -3.6824
    -3.6818  -3.6275  -3.6272  -3.6094  -3.5926  -3.5819  -3.5804  -3.5801
    -3.5786  -3.5517  -3.5514  -3.5153  -3.5152  -3.4928  -3.4924  -3.4595
    -3.4591  -3.4411  -3.4138  -3.4136  -3.3764  -3.3760  -3.3408  -3.3333
    -3.3327  -3.3188  -3.3183  -3.3135  -3.3133  -3.2751  -3.2641  -3.2340
    -3.2238  -3.2233  -3.2159  -3.2063  -3.2056  -3.2041  -3.1799  -3.1798
    -3.1586  -3.1582  -3.1576  -3.1310  -3.1310  -3.1234  -3.1206  -3.1204
    -3.0842  -3.0805  -3.0450  -3.0445  -3.0438  -3.0410  -3.0408  -2.9618
    -2.9518  -2.9475  -2.9469  -2.9458  -2.9454  -2.9409  -2.9406  -2.9403
    -2.9402  -2.9307  -2.9228  -2.9057  -2.9031  -2.9023  -2.9020  -2.8874
    -2.8830  -2.8448  -2.8441  -2.8438  -2.8399  -2.8393  -2.8214  -2.8211
    -2.8123  -2.8123  -2.8101  -2.7504  -2.7503  -2.7451  -2.7450  -2.7399
    -2.7397  -2.7116  -2.6528  -2.6514  -2.6511  -2.6491  -2.6379  -2.6355
    -2.6308  -2.6199  -2.6197  -2.5831  -2.5822  -2.5741  -2.5732  -2.5729
    -2.5724  -2.5331  -2.5327  -2.5231  -2.5230  -2.5216  -2.5212  -2.4794
    -2.4634  -2.4579  -2.4047  -2.4043  -2.3860  -2.3841  -2.3790  -2.3789
    -2.3305  -2.3296  -2.3066  -2.2902  -2.2760  -2.2752  -2.2749  -2.2531
    -2.2529  -2.2432  -2.2267  -2.1864  -2.1856  -2.1716  -2.1709  -2.1706
    -2.1602  -2.1599  -2.1451  -2.1444  -2.1443  -2.1400  -2.1353  -2.1342
    -2.1339  -2.1225  -2.1220  -2.1044  -2.1041  -2.1022  -2.0959  -2.0932
    -2.0929  -2.0693  -2.0688  -2.0577  -2.0556  -2.0512  -2.0505  -2.0126
    -1.9788  -1.9782  -1.9430  -1.9259  -1.9255  -1.9151  -1.9144  -1.8914
    -1.8908  -1.8766  -1.8760  -1.8746  -1.8746  -1.8716  -1.8709  -1.8391
    -1.8389  -1.8386  -1.7928  -1.7923  -1.7527  -1.7522  -1.7051  -1.7049
    -1.6928  -1.6703  -1.6655  -1.6623  -1.6465  -1.6441  -1.6272  -1.6265
    -1.6223  -1.6213  -1.6201  -1.6197  -1.6191  -1.6169  -1.5967  -1.5965
    -1.5860  -1.5687  -1.5499  -1.5499  -1.5232  -1.5229  -1.5205  -1.5199
    -1.5170  -1.5141  -1.4924  -1.4920  -1.4777  -1.4766  -1.4642  -1.4540
    -1.4407  -1.4400  -1.4094  -1.4090  -1.4011  -1.4010  -1.3659  -1.3651
    -1.3574  -1.3568  -1.3484  -1.3480  -1.3267  -1.3263  -1.3145  -1.3080
    -1.3074  -1.2946  -1.2944  -1.2937  -1.2934  -1.2792  -1.2689  -1.2680
    -1.2608  -1.2606  -1.2490  -1.2443  -1.2439  -1.2371  -1.2111  -1.1976
    -1.1955  -1.1911  -1.1880  -1.1875  -1.1874  -1.1484  -1.1321  -1.1310
    -1.1309  -1.1307  -1.1263  -1.1259  -1.1213  -1.1087  -1.1057  -1.0697
    -1.0691  -1.0621  -1.0621  -1.0393  -1.0390  -1.0292  -0.9995  -0.9918
    -0.9646  -0.9641  -0.9364  -0.9363  -0.9339  -0.9330  -0.9311  -0.9274
    -0.9243  -0.9222  -0.9178  -0.9174  -0.8856  -0.8852  -0.8679  -0.8667
    -0.8619  -0.8614  -0.8600  -0.8597  -0.8412  -0.5655  -0.5545  -0.5003
    -0.4979  -0.4599  -0.2990  -0.2342  -0.2336  -0.2027   0.0851   0.0855
     0.4141   0.4167   0.5142   0.5144   0.5550   0.5563   0.6981   0.6997
     0.8228   0.8249   0.9108   1.5103   1.5282   1.5293   1.5674   1.5744
     1.6142   1.6210   1.6979   1.6993   1.9057   1.9064   2.1396   2.2197
     2.2226   2.2369   2.6141   2.6203   2.6920   2.6921   2.6985   2.6993
     2.8501   2.8512   2.8956   2.9921   2.9958   3.2258   3.2276   3.3607
     3.3874   3.3886   3.6574   3.6601   3.7715   3.7912   3.7914   3.8414
     3.8738   3.9775   3.9793   4.2141   4.2166   4.3021   4.3040   4.4287
     4.4307   4.4473   4.4550   4.5903   4.9305   5.2495   5.2742   5.3564
     5.3625   5.4742   5.5384   5.5408   5.5987   5.6487   5.6545   5.6723
     5.6953   5.7081   5.7093   5.7522   5.9752   5.9862   6.0229   6.0378
     6.0473   6.0516   6.0600   6.0613   6.0635   6.1084   6.1312   6.1508

          k = 0.2500-0.2500-0.0833 (167653 PWs)   bands (ev):

   -19.2039  -7.0212  -6.9152  -6.3868  -6.3862  -5.9570  -5.5479  -5.4549
    -5.4544  -5.2587  -5.2587  -5.1412  -5.1402  -5.0623  -5.0392  -4.9663
    -4.8815  -4.8775  -4.8387  -4.8385  -4.6777  -4.6614  -4.6601  -4.6596
    -4.6526  -4.5971  -4.5970  -4.5853  -4.5849  -4.5482  -4.5357  -4.5350
    -4.4934  -4.4933  -4.4599  -4.4586  -4.4069  -4.4063  -4.3956  -4.3948
    -4.3892  -4.3761  -4.3761  -4.3350  -4.3169  -4.3167  -4.3097  -4.3094
    -4.2771  -4.2277  -4.2127  -4.2123  -4.2088  -4.2082  -4.2007  -4.1949
    -4.1947  -4.1945  -4.1297  -4.1288  -4.0799  -4.0792  -4.0669  -4.0411
    -4.0409  -4.0215  -4.0186  -4.0178  -4.0134  -4.0108  -3.9619  -3.9618
    -3.9489  -3.9485  -3.8436  -3.8430  -3.8375  -3.8368  -3.7998  -3.7912
    -3.7757  -3.7465  -3.7465  -3.7180  -3.7175  -3.6961  -3.6958  -3.6824
    -3.6818  -3.6275  -3.6272  -3.6094  -3.5926  -3.5819  -3.5804  -3.5801
    -3.5786  -3.5517  -3.5514  -3.5153  -3.5152  -3.4928  -3.4924  -3.4595
    -3.4591  -3.4411  -3.4138  -3.4136  -3.3764  -3.3760  -3.3408  -3.3333
    -3.3327  -3.3188  -3.3183  -3.3135  -3.3133  -3.2751  -3.2641  -3.2340
    -3.2238  -3.2233  -3.2159  -3.2063  -3.2056  -3.2041  -3.1799  -3.1798
    -3.1586  -3.1582  -3.1576  -3.1310  -3.1310  -3.1234  -3.1206  -3.1204
    -3.0842  -3.0805  -3.0450  -3.0445  -3.0438  -3.0410  -3.0408  -2.9618
    -2.9518  -2.9475  -2.9469  -2.9458  -2.9454  -2.9409  -2.9406  -2.9403
    -2.9402  -2.9307  -2.9228  -2.9057  -2.9031  -2.9023  -2.9020  -2.8874
    -2.8830  -2.8448  -2.8441  -2.8438  -2.8399  -2.8393  -2.8214  -2.8211
    -2.8123  -2.8123  -2.8101  -2.7504  -2.7503  -2.7451  -2.7450  -2.7399
    -2.7397  -2.7116  -2.6528  -2.6514  -2.6511  -2.6491  -2.6379  -2.6355
    -2.6308  -2.6199  -2.6197  -2.5831  -2.5822  -2.5741  -2.5732  -2.5729
    -2.5724  -2.5331  -2.5327  -2.5231  -2.5230  -2.5216  -2.5212  -2.4794
    -2.4634  -2.4579  -2.4047  -2.4043  -2.3860  -2.3841  -2.3790  -2.3789
    -2.3305  -2.3296  -2.3066  -2.2902  -2.2760  -2.2752  -2.2749  -2.2531
    -2.2529  -2.2432  -2.2267  -2.1864  -2.1856  -2.1716  -2.1709  -2.1706
    -2.1602  -2.1599  -2.1451  -2.1444  -2.1443  -2.1400  -2.1353  -2.1342
    -2.1339  -2.1225  -2.1220  -2.1044  -2.1041  -2.1022  -2.0959  -2.0932
    -2.0929  -2.0693  -2.0688  -2.0577  -2.0556  -2.0512  -2.0505  -2.0126
    -1.9788  -1.9782  -1.9430  -1.9259  -1.9255  -1.9151  -1.9144  -1.8914
    -1.8908  -1.8766  -1.8760  -1.8746  -1.8746  -1.8716  -1.8709  -1.8391
    -1.8389  -1.8386  -1.7928  -1.7923  -1.7527  -1.7522  -1.7051  -1.7049
    -1.6928  -1.6703  -1.6655  -1.6623  -1.6465  -1.6441  -1.6272  -1.6265
    -1.6223  -1.6213  -1.6201  -1.6197  -1.6191  -1.6169  -1.5967  -1.5965
    -1.5860  -1.5687  -1.5499  -1.5499  -1.5232  -1.5229  -1.5205  -1.5199
    -1.5170  -1.5141  -1.4924  -1.4920  -1.4777  -1.4766  -1.4642  -1.4540
    -1.4407  -1.4400  -1.4094  -1.4090  -1.4011  -1.4010  -1.3659  -1.3651
    -1.3574  -1.3568  -1.3484  -1.3480  -1.3267  -1.3263  -1.3145  -1.3080
    -1.3074  -1.2946  -1.2944  -1.2937  -1.2934  -1.2792  -1.2689  -1.2680
    -1.2608  -1.2606  -1.2490  -1.2443  -1.2439  -1.2371  -1.2111  -1.1976
    -1.1955  -1.1911  -1.1880  -1.1875  -1.1874  -1.1484  -1.1321  -1.1310
    -1.1309  -1.1307  -1.1263  -1.1259  -1.1213  -1.1087  -1.1057  -1.0697
    -1.0691  -1.0621  -1.0621  -1.0393  -1.0390  -1.0292  -0.9995  -0.9918
    -0.9646  -0.9641  -0.9364  -0.9363  -0.9339  -0.9330  -0.9311  -0.9274
    -0.9243  -0.9222  -0.9178  -0.9174  -0.8856  -0.8852  -0.8679  -0.8667
    -0.8619  -0.8614  -0.8600  -0.8597  -0.8412  -0.5655  -0.5545  -0.5003
    -0.4979  -0.4599  -0.2990  -0.2342  -0.2336  -0.2027   0.0851   0.0855
     0.4141   0.4167   0.5142   0.5144   0.5550   0.5563   0.6981   0.6997
     0.8228   0.8249   0.9108   1.5103   1.5282   1.5293   1.5674   1.5744
     1.6142   1.6210   1.6979   1.6993   1.9057   1.9064   2.1396   2.2197
     2.2226   2.2369   2.6141   2.6203   2.6920   2.6921   2.6985   2.6993
     2.8501   2.8512   2.8956   2.9921   2.9958   3.2258   3.2276   3.3607
     3.3874   3.3886   3.6574   3.6601   3.7715   3.7912   3.7914   3.8414
     3.8738   3.9775   3.9793   4.2141   4.2166   4.3021   4.3040   4.4287
     4.4307   4.4473   4.4550   4.5903   4.9306   5.2494   5.2742   5.3564
     5.3625   5.4757   5.5384   5.5408   5.5975   5.6485   5.6546   5.6706
     5.6960   5.7081   5.7093   5.7522   5.9756   5.9864   6.0229   6.0378
     6.0473   6.0516   6.0600   6.0613   6.0633   6.1094   6.1308   6.1511

          k =-0.2500 0.2500 0.2500 (167588 PWs)   bands (ev):

   -19.2039  -7.0212  -6.9152  -6.3868  -6.3862  -5.9570  -5.5479  -5.4549
    -5.4544  -5.2587  -5.2587  -5.1412  -5.1402  -5.0623  -5.0392  -4.9663
    -4.8815  -4.8775  -4.8387  -4.8385  -4.6777  -4.6614  -4.6601  -4.6596
    -4.6526  -4.5971  -4.5970  -4.5853  -4.5849  -4.5482  -4.5357  -4.5350
    -4.4934  -4.4933  -4.4599  -4.4586  -4.4069  -4.4062  -4.3956  -4.3948
    -4.3892  -4.3761  -4.3761  -4.3350  -4.3169  -4.3167  -4.3097  -4.3094
    -4.2771  -4.2277  -4.2127  -4.2122  -4.2088  -4.2082  -4.2007  -4.1949
    -4.1947  -4.1945  -4.1297  -4.1288  -4.0799  -4.0792  -4.0669  -4.0410
    -4.0409  -4.0215  -4.0186  -4.0178  -4.0134  -4.0108  -3.9619  -3.9618
    -3.9489  -3.9485  -3.8436  -3.8430  -3.8375  -3.8368  -3.7998  -3.7912
    -3.7757  -3.7465  -3.7465  -3.7180  -3.7175  -3.6961  -3.6958  -3.6824
    -3.6818  -3.6275  -3.6272  -3.6094  -3.5926  -3.5819  -3.5804  -3.5801
    -3.5786  -3.5517  -3.5514  -3.5153  -3.5152  -3.4928  -3.4924  -3.4595
    -3.4591  -3.4411  -3.4138  -3.4136  -3.3764  -3.3760  -3.3408  -3.3333
    -3.3327  -3.3188  -3.3183  -3.3135  -3.3133  -3.2751  -3.2641  -3.2340
    -3.2238  -3.2233  -3.2159  -3.2063  -3.2056  -3.2041  -3.1799  -3.1798
    -3.1586  -3.1582  -3.1576  -3.1310  -3.1310  -3.1234  -3.1206  -3.1204
    -3.0842  -3.0805  -3.0450  -3.0445  -3.0438  -3.0410  -3.0408  -2.9618
    -2.9518  -2.9475  -2.9469  -2.9459  -2.9454  -2.9409  -2.9406  -2.9403
    -2.9401  -2.9307  -2.9228  -2.9057  -2.9031  -2.9023  -2.9020  -2.8874
    -2.8829  -2.8448  -2.8441  -2.8438  -2.8399  -2.8393  -2.8214  -2.8210
    -2.8123  -2.8123  -2.8101  -2.7504  -2.7503  -2.7451  -2.7450  -2.7399
    -2.7397  -2.7116  -2.6528  -2.6514  -2.6510  -2.6491  -2.6379  -2.6355
    -2.6308  -2.6199  -2.6197  -2.5831  -2.5822  -2.5741  -2.5732  -2.5729
    -2.5724  -2.5331  -2.5327  -2.5231  -2.5230  -2.5216  -2.5212  -2.4794
    -2.4634  -2.4579  -2.4047  -2.4043  -2.3860  -2.3841  -2.3790  -2.3789
    -2.3305  -2.3296  -2.3066  -2.2902  -2.2760  -2.2752  -2.2749  -2.2531
    -2.2529  -2.2432  -2.2267  -2.1864  -2.1856  -2.1716  -2.1709  -2.1706
    -2.1602  -2.1599  -2.1451  -2.1444  -2.1443  -2.1400  -2.1353  -2.1342
    -2.1339  -2.1225  -2.1220  -2.1044  -2.1041  -2.1022  -2.0959  -2.0932
    -2.0929  -2.0693  -2.0688  -2.0577  -2.0556  -2.0512  -2.0505  -2.0127
    -1.9788  -1.9782  -1.9430  -1.9259  -1.9255  -1.9151  -1.9144  -1.8914
    -1.8908  -1.8766  -1.8760  -1.8746  -1.8746  -1.8716  -1.8709  -1.8391
    -1.8389  -1.8386  -1.7928  -1.7923  -1.7527  -1.7523  -1.7051  -1.7049
    -1.6928  -1.6703  -1.6655  -1.6623  -1.6465  -1.6441  -1.6272  -1.6265
    -1.6223  -1.6213  -1.6201  -1.6197  -1.6191  -1.6169  -1.5967  -1.5965
    -1.5860  -1.5687  -1.5499  -1.5499  -1.5232  -1.5229  -1.5205  -1.5199
    -1.5170  -1.5141  -1.4924  -1.4920  -1.4777  -1.4766  -1.4642  -1.4540
    -1.4407  -1.4400  -1.4094  -1.4090  -1.4011  -1.4010  -1.3659  -1.3651
    -1.3574  -1.3568  -1.3484  -1.3480  -1.3267  -1.3263  -1.3145  -1.3080
    -1.3074  -1.2946  -1.2944  -1.2937  -1.2934  -1.2792  -1.2689  -1.2680
    -1.2608  -1.2606  -1.2490  -1.2443  -1.2439  -1.2371  -1.2111  -1.1976
    -1.1955  -1.1911  -1.1880  -1.1875  -1.1874  -1.1484  -1.1321  -1.1310
    -1.1309  -1.1307  -1.1263  -1.1259  -1.1213  -1.1087  -1.1057  -1.0697
    -1.0691  -1.0621  -1.0621  -1.0393  -1.0390  -1.0292  -0.9995  -0.9918
    -0.9646  -0.9641  -0.9364  -0.9363  -0.9339  -0.9330  -0.9311  -0.9274
    -0.9243  -0.9222  -0.9178  -0.9174  -0.8856  -0.8852  -0.8679  -0.8667
    -0.8619  -0.8614  -0.8600  -0.8597  -0.8412  -0.5655  -0.5545  -0.5003
    -0.4979  -0.4599  -0.2990  -0.2342  -0.2336  -0.2027   0.0851   0.0855
     0.4141   0.4167   0.5142   0.5144   0.5550   0.5563   0.6981   0.6997
     0.8228   0.8249   0.9108   1.5103   1.5282   1.5293   1.5674   1.5744
     1.6142   1.6210   1.6979   1.6993   1.9057   1.9064   2.1396   2.2197
     2.2226   2.2369   2.6141   2.6203   2.6920   2.6921   2.6985   2.6993
     2.8501   2.8512   2.8956   2.9921   2.9958   3.2258   3.2276   3.3607
     3.3874   3.3886   3.6575   3.6601   3.7714   3.7912   3.7914   3.8414
     3.8738   3.9775   3.9793   4.2140   4.2166   4.3021   4.3040   4.4287
     4.4307   4.4473   4.4550   4.5904   4.9271   5.2492   5.2719   5.3563
     5.3622   5.4657   5.5384   5.5408   5.6041   5.6455   5.6554   5.6663
     5.7080   5.7093   5.7346   5.7529   5.9807   5.9957   6.0232   6.0382
     6.0475   6.0517   6.0601   6.0613   6.0873   6.1228   6.1408   6.1589

     the Fermi energy is     0.7733 ev

!    total energy              =   -7425.29011705 Ry
     Harris-Foulkes estimate   =   -7425.29011703 Ry
     estimated scf accuracy    <          5.7E-09 Ry

     The total energy is the sum of the following terms:

     one-electron contribution =  -48401.92214247 Ry
     hartree contribution      =   24749.18397373 Ry
     xc contribution           =   -3604.19562976 Ry
     ewald contribution        =   19831.64660786 Ry
     smearing contrib. (-TS)   =      -0.00292641 Ry

     convergence has been achieved in  28 iterations

     Writing output data file 7817182.save

     init_run     :    151.48s CPU    160.92s WALL (       1 calls)
     electrons    :   9838.84s CPU  10686.02s WALL (       1 calls)

     Called by init_run:
     wfcinit      :    120.72s CPU    129.02s WALL (       1 calls)
     potinit      :      7.88s CPU      8.57s WALL (       1 calls)

     Called by electrons:
     c_bands      :   8000.39s CPU   8739.82s WALL (      29 calls)
     sum_band     :   1268.23s CPU   1355.04s WALL (      29 calls)
     v_of_rho     :    128.02s CPU    141.94s WALL (      29 calls)
     newd         :    452.24s CPU    458.75s WALL (      29 calls)
     mix_rho      :      3.95s CPU      4.36s WALL (      29 calls)
     vdW_energy   :     12.94s CPU     15.11s WALL (      29 calls)
     vdW_ffts     :     60.68s CPU     67.16s WALL (      58 calls)
     vdW_v        :     16.94s CPU     17.88s WALL (      29 calls)

     Called by c_bands:
     init_us_2    :     26.46s CPU     26.85s WALL (     354 calls)
     cegterg      :   7713.24s CPU   8450.36s WALL (     174 calls)

     Called by *egterg:
     h_psi        :   3144.92s CPU   3560.09s WALL (     859 calls)
     s_psi        :    378.22s CPU    401.44s WALL (     859 calls)
     g_psi        :      4.88s CPU      4.89s WALL (     679 calls)
     cdiaghg      :   1490.05s CPU   1494.44s WALL (     847 calls)

     Called by h_psi:
     add_vuspsi   :    380.31s CPU    411.96s WALL (     859 calls)

     General routines
     calbec       :   1109.92s CPU   1113.39s WALL (    1033 calls)
     fft          :    177.12s CPU    188.43s WALL (    1914 calls)
     ffts         :      1.83s CPU      2.25s WALL (      58 calls)
     fftw         :   1826.37s CPU   2201.37s WALL (  465370 calls)
     interpolate  :      4.97s CPU      5.90s WALL (      58 calls)
     davcio       :      0.00s CPU      0.24s WALL (       6 calls)

     Parallel routines
     fft_scatter  :   1370.69s CPU   1646.06s WALL (  467342 calls)

     PWSCF        :     2h46m CPU        3h 1m WALL


   This run was terminated on:  10: 6:15   2Jul2015            

=------------------------------------------------------------------------------=
   JOB DONE.
=------------------------------------------------------------------------------=
