Setting SGE environment for SCC

     Program PWSCF v.5.1.2 starts on  1Jul2015 at 11:44:23 

     This program is part of the open-source Quantum ESPRESSO suite
     for quantum simulation of materials; please cite
         "P. Giannozzi et al., J. Phys.:Condens. Matter 21 395502 (2009);
          URL http://www.quantum-espresso.org", 
     in publications or presentations arising from this work. More details at
     http://www.quantum-espresso.org/quote

     Parallel version (MPI), running on    32 processors
     R & G space division:  proc/nbgrp/npool/nimage =      32
     Reading input from bridge.O1.Au6165.d.2.5.phi.45.psi.90.in
Warning: card &IONS ignored
Warning: card / ignored
Warning: card &CELL ignored
Warning: card / ignored

     Current dimensions of program PWSCF are:
     Max number of different atomic species (ntypx) = 10
     Max number of k-points (npk) =  40000
     Max angular momentum in pseudopotentials (lmaxx) =  3

     IMPORTANT: XC functional enforced from input :
     Exchange-correlation      = VDW-DF ( 1  4  4  0 1 0)
     Any further DFT definition will be discarded
     Please, verify this is what you really want


     Subspace diagonalization in iterative solution of the eigenvalue problem:
     a serial algorithm will be used


     Parallelization info
     --------------------
     sticks:   dense  smooth     PW     G-vecs:    dense   smooth      PW
     Min         578     289     74               118518    41891    5486
     Max         579     290     75               118533    41932    5497
     Sum       18505    9265   2385              3792731  1341081  175711


     Title: 
     bridge.O1.Au6165.d.2.5.phi.45.psi.90                                       


     bravais-lattice index     =            8
     lattice parameter (alat)  =      24.1233  a.u.
     unit-cell volume          =   28076.2361 (a.u.)^3
     number of atoms/cell      =           75
     number of atomic types    =            3
     number of electrons       =       800.00
     number of Kohn-Sham states=          480
     kinetic-energy cutoff     =      50.0000  Ry
     charge density cutoff     =     400.0000  Ry
     convergence threshold     =      1.0E-08
     mixing beta               =       0.7000
     number of iterations used =            8  plain     mixing
     Exchange-correlation      = VDW-DF ( 1  4  4  0 1 0)

     celldm(1)=  24.123277  celldm(2)=   1.000000  celldm(3)=   2.000000
     celldm(4)=   0.000000  celldm(5)=   0.000000  celldm(6)=   0.000000

     crystal axes: (cart. coord. in units of alat)
               a(1) = (   1.000000   0.000000   0.000000 )  
               a(2) = (   0.000000   1.000000   0.000000 )  
               a(3) = (   0.000000   0.000000   2.000000 )  

     reciprocal axes: (cart. coord. in units 2 pi/alat)
               b(1) = (  1.000000  0.000000  0.000000 )  
               b(2) = (  0.000000  1.000000  0.000000 )  
               b(3) = (  0.000000  0.000000  0.500000 )  


     PseudoPot. # 1 for Au read from file:
     /home/scc/andrejb/qe/pseudo/Au.pbe-nd-van.UPF
     MD5 check sum: 458681b50f36d87ef23c61b04bba420a
     Pseudo is Ultrasoft + core correction, Zval = 11.0
     Generated by new atomic code, or converted to UPF format
     Using radial grid of  985 points,  3 beta functions with: 
                l(1) =   1
                l(2) =   2
                l(3) =   2
     Q(r) pseudized with  8 coefficients,  rinner =    1.100   1.100   1.100
                                                       1.100   1.100

     PseudoPot. # 2 for H  read from file:
     /home/scc/andrejb/qe/pseudo/H.pbe-van_ak.UPF
     MD5 check sum: 403db7282739603aa925980fa9b8608d
     Pseudo is Ultrasoft, Zval =  1.0
     Generated by new atomic code, or converted to UPF format
     Using radial grid of  615 points,  1 beta functions with: 
                l(1) =   0
     Q(r) pseudized with  8 coefficients,  rinner =    0.800

     PseudoPot. # 3 for O  read from file:
     /home/scc/andrejb/qe/pseudo/O.pbe-van_ak.UPF
     MD5 check sum: 4b8c549914a63cae506c6ff22b5af4fe
     Pseudo is Ultrasoft, Zval =  6.0
     Generated by new atomic code, or converted to UPF format
     Using radial grid of  737 points,  4 beta functions with: 
                l(1) =   0
                l(2) =   0
                l(3) =   1
                l(4) =   1
     Q(r) pseudized with  8 coefficients,  rinner =    0.800   0.800   0.800


     vdW kernel table read from file vdW_kernel_table
     MD5 check sum: 48e77a2e26edf626eeb0eaa751ad5cac

     atomic species   valence    mass     pseudopotential
        Au            11.00   196.96657     Au( 1.00)
        H              1.00     1.01000     H ( 1.00)
        O              6.00    16.00000     O ( 1.00)

     No symmetry found



   Cartesian axes

     site n.     atom                  positions (alat units)
         1           O   tau(   1) = (   0.2499161   0.4165269   0.6951590  )
         2           H   tau(   2) = (   0.2443256   0.3710330   0.6341717  )
         3           H   tau(   3) = (   0.2553244   0.3686692   0.7543099  )
         4           Au  tau(   4) = (   0.0000000   0.0000000   0.0000000  )
         5           Au  tau(   5) = (   0.3332217   0.0000000   0.0000000  )
         6           Au  tau(   6) = (   0.6664434   0.0000000   0.0000000  )
         7           Au  tau(   7) = (   0.1666109   0.1666109   0.0000000  )
         8           Au  tau(   8) = (   0.4998326   0.1666109   0.0000000  )
         9           Au  tau(   9) = (   0.8330542   0.1666109   0.0000000  )
        10           Au  tau(  10) = (   0.0000000   0.3332217   0.0000000  )
        11           Au  tau(  11) = (   0.3332217   0.3332217   0.0000000  )
        12           Au  tau(  12) = (   0.6664434   0.3332217   0.0000000  )
        13           Au  tau(  13) = (   0.1666109   0.4998326   0.0000000  )
        14           Au  tau(  14) = (   0.4998326   0.4998326   0.0000000  )
        15           Au  tau(  15) = (   0.8330542   0.4998326   0.0000000  )
        16           Au  tau(  16) = (   0.0000000   0.6664434   0.0000000  )
        17           Au  tau(  17) = (   0.3332217   0.6664434   0.0000000  )
        18           Au  tau(  18) = (   0.6664434   0.6664434   0.0000000  )
        19           Au  tau(  19) = (   0.1666109   0.8330542   0.0000000  )
        20           Au  tau(  20) = (   0.4998326   0.8330542   0.0000000  )
        21           Au  tau(  21) = (   0.8330542   0.8330542   0.0000000  )
        22           Au  tau(  22) = (   0.1666109   0.0000000   0.1666109  )
        23           Au  tau(  23) = (   0.4998326   0.0000000   0.1666109  )
        24           Au  tau(  24) = (   0.8330542   0.0000000   0.1666109  )
        25           Au  tau(  25) = (   0.0000000   0.1666109   0.1666109  )
        26           Au  tau(  26) = (   0.3332217   0.1666109   0.1666109  )
        27           Au  tau(  27) = (   0.6664434   0.1666109   0.1666109  )
        28           Au  tau(  28) = (   0.1666109   0.3332217   0.1666109  )
        29           Au  tau(  29) = (   0.4998326   0.3332217   0.1666109  )
        30           Au  tau(  30) = (   0.8330542   0.3332217   0.1666109  )
        31           Au  tau(  31) = (   0.0000000   0.4998326   0.1666109  )
        32           Au  tau(  32) = (   0.3332217   0.4998326   0.1666109  )
        33           Au  tau(  33) = (   0.6664434   0.4998326   0.1666109  )
        34           Au  tau(  34) = (   0.1666109   0.6664434   0.1666109  )
        35           Au  tau(  35) = (   0.4998326   0.6664434   0.1666109  )
        36           Au  tau(  36) = (   0.8330542   0.6664434   0.1666109  )
        37           Au  tau(  37) = (   0.0000000   0.8330542   0.1666109  )
        38           Au  tau(  38) = (   0.3332217   0.8330542   0.1666109  )
        39           Au  tau(  39) = (   0.6664434   0.8330542   0.1666109  )
        40           Au  tau(  40) = (  -0.0000182  -0.0000182   0.3335478  )
        41           Au  tau(  41) = (   0.3332215  -0.0000181   0.3335473  )
        42           Au  tau(  42) = (   0.6664447  -0.0000183   0.3335481  )
        43           Au  tau(  43) = (  -0.0000181   0.3332215   0.3335473  )
        44           Au  tau(  44) = (   0.3332215   0.3332215   0.3335468  )
        45           Au  tau(  45) = (   0.6664445   0.3332215   0.3335477  )
        46           Au  tau(  46) = (  -0.0000183   0.6664447   0.3335481  )
        47           Au  tau(  47) = (   0.3332215   0.6664445   0.3335477  )
        48           Au  tau(  48) = (   0.6664446   0.6664446   0.3335486  )
        49           Au  tau(  49) = (   0.1666097   0.1666097   0.3335483  )
        50           Au  tau(  50) = (   0.4998320   0.1666098   0.3335477  )
        51           Au  tau(  51) = (   0.8330732   0.1666096   0.3335480  )
        52           Au  tau(  52) = (   0.1666098   0.4998320   0.3335477  )
        53           Au  tau(  53) = (   0.4998322   0.4998322   0.3335470  )
        54           Au  tau(  54) = (   0.8330731   0.4998322   0.3335474  )
        55           Au  tau(  55) = (   0.1666096   0.8330732   0.3335480  )
        56           Au  tau(  56) = (   0.4998322   0.8330731   0.3335474  )
        57           Au  tau(  57) = (   0.8330731   0.8330731   0.3335478  )
        58           Au  tau(  58) = (   0.1666104  -0.0000111   0.4993095  )
        59           Au  tau(  59) = (   0.4998323  -0.0000112   0.4993099  )
        60           Au  tau(  60) = (   0.8330660  -0.0000111   0.4993009  )
        61           Au  tau(  61) = (  -0.0000111   0.1666104   0.4993095  )
        62           Au  tau(  62) = (   0.3332213   0.1666106   0.4993185  )
        63           Au  tau(  63) = (   0.6664437   0.1666106   0.4993187  )
        64           Au  tau(  64) = (   0.1666106   0.3332213   0.4993185  )
        65           Au  tau(  65) = (   0.4998324   0.3332216   0.4993185  )
        66           Au  tau(  66) = (   0.8330658   0.3332215   0.4993102  )
        67           Au  tau(  67) = (  -0.0000112   0.4998323   0.4993099  )
        68           Au  tau(  68) = (   0.3332216   0.4998324   0.4993185  )
        69           Au  tau(  69) = (   0.6664437   0.4998325   0.4993187  )
        70           Au  tau(  70) = (   0.1666106   0.6664437   0.4993187  )
        71           Au  tau(  71) = (   0.4998325   0.6664437   0.4993187  )
        72           Au  tau(  72) = (   0.8330658   0.6664438   0.4993102  )
        73           Au  tau(  73) = (  -0.0000111   0.8330660   0.4993009  )
        74           Au  tau(  74) = (   0.3332215   0.8330658   0.4993102  )
        75           Au  tau(  75) = (   0.6664438   0.8330658   0.4993102  )

     number of k points=     6  Marzari-Vanderbilt smearing, width (Ry)=  0.0200
                       cart. coord. in units 2pi/alat
        k(    1) = (   0.2500000   0.2500000   0.0833333), wk =   0.3333333
        k(    2) = (   0.2500000   0.2500000  -0.2500000), wk =   0.3333333
        k(    3) = (  -0.2500000  -0.2500000   0.0833333), wk =   0.3333333
        k(    4) = (  -0.2500000   0.2500000  -0.0833333), wk =   0.3333333
        k(    5) = (   0.2500000  -0.2500000  -0.0833333), wk =   0.3333333
        k(    6) = (  -0.2500000   0.2500000   0.2500000), wk =   0.3333333

     Dense  grid:  3792731 G-vectors     FFT dimensions: ( 160, 160, 320)

     Smooth grid:  1341081 G-vectors     FFT dimensions: ( 120, 120, 225)

     Largest allocated arrays     est. size (Mb)     dimensions
        Kohn-Sham Wavefunctions        38.58 Mb     (    5267,  480)
        NL pseudopotentials            76.03 Mb     (    5267,  946)
        Each V/rho on FFT grid          3.91 Mb     (  256000)
        Each G-vector array             0.90 Mb     (  118520)
        G-vector shells                 0.08 Mb     (   10286)
     Largest temporary arrays     est. size (Mb)     dimensions
        Auxiliary wavefunctions       154.31 Mb     (    5267, 1920)
        Each subspace H/S matrix       56.25 Mb     (    1920, 1920)
        Each <psi_i|beta_j> matrix      6.93 Mb     (     946,  480)
        Arrays for rho mixing          31.25 Mb     (  256000,    8)

     Initial potential from superposition of free atoms
     Check: negative starting charge=   -1.945130

     starting charge  799.16392, renormalised to  800.00000

     negative rho (up, down):  1.947E+00 0.000E+00


     ************************************************************************
     *
     * You are using vdW-DF for exchange-correlation in this calculation.
     * Please cite the following three references that made this development
     * possible:
     *
     *   M. Dion, H. Rydberg, E. Schroder, D. C. Langreth, and
     *   B. I. Lundqvist, Phys. Rev. Lett. 92, 246401 (2004).
     *
     *   T. Thonhauser, V. R. Cooper, S. Li, A. Puzder, P. Hyldgaard, and
     *   D. C. Langreth, Phys. Rev. B 76, 125112 (2007).
     *
     *   G. Roman-Perez and J. M. Soler, Phys. Rev. Lett. 103, 096102 (2009).
     *
     *
     * If you are using vdW-DF2, please also cite:
     *
     *   K. Lee, E. D. Murray, L. Kong, B. I. Lundqvist, and
     *   D. C. Langreth, Phys. Rev. B 82, 081101(R) (2010).
     *
     *
     * If you are calculating the stress with vdW-DF, please also cite:
     *
     *   R. Sabatini, E. Kucukbenli, B. Kolb, T. Thonhauser, and
     *   S. de Gironcoli, J. Phys.: Condens. Matter 24, 424209 (2012).
     *
     ************************************************************************

     Carrying out vdW-DF run using the following parameters:

     Nqs =      20    Nr_points =    1024   r_max =   100.000
     q_mesh =
               0.00001000     0.04494208     0.09755937     0.15916263
               0.23128650     0.31572767     0.41458969     0.53033537
               0.66584808     0.82450364     1.01025438     1.22772762
               1.48234092     1.78043706     2.12944203     2.53805004
               3.01644009     3.57652955     4.23227104     5.00000000

     Gradients computed in reciprocal space

     ************************************************************************


     Starting wfc are  654 randomized atomic wfcs

     total cpu time spent up to now is      159.4 secs

     Self-consistent Calculation

     iteration #  1     ecut=    50.00 Ry     beta=0.70
     Davidson diagonalization with overlap
     ethr =  1.00E-02,  avg # of iterations =  3.0

     Threshold (ethr) on eigenvalues was too large:
     Diagonalizing with lowered threshold

     Davidson diagonalization with overlap
     ethr =  4.14E-04,  avg # of iterations =  2.0

     negative rho (up, down):  1.947E+00 0.000E+00

     total cpu time spent up to now is      764.2 secs

     total energy              =   -7423.05874446 Ry
     Harris-Foulkes estimate   =   -7426.04086795 Ry
     estimated scf accuracy    <       3.68384195 Ry

     iteration #  2     ecut=    50.00 Ry     beta=0.70
     Davidson diagonalization with overlap
     ethr =  4.60E-04,  avg # of iterations = 11.3

     negative rho (up, down):  1.943E+00 0.000E+00

     total cpu time spent up to now is     1681.9 secs

     total energy              =   -7415.49046009 Ry
     Harris-Foulkes estimate   =   -7432.40392153 Ry
     estimated scf accuracy    <      87.20753014 Ry

     iteration #  3     ecut=    50.00 Ry     beta=0.70
     Davidson diagonalization with overlap
     ethr =  4.60E-04,  avg # of iterations =  6.0

     negative rho (up, down):  1.953E+00 0.000E+00

     total cpu time spent up to now is     2274.4 secs

     total energy              =   -7424.33094668 Ry
     Harris-Foulkes estimate   =   -7425.81578733 Ry
     estimated scf accuracy    <       5.77606082 Ry

     iteration #  4     ecut=    50.00 Ry     beta=0.70
     Davidson diagonalization with overlap
     ethr =  4.60E-04,  avg # of iterations =  5.7

     negative rho (up, down):  1.958E+00 0.000E+00

     total cpu time spent up to now is     2602.4 secs

     total energy              =   -7425.03536958 Ry
     Harris-Foulkes estimate   =   -7425.49254017 Ry
     estimated scf accuracy    <       1.87053493 Ry

     iteration #  5     ecut=    50.00 Ry     beta=0.70
     Davidson diagonalization with overlap
     ethr =  2.34E-04,  avg # of iterations =  9.5

     negative rho (up, down):  1.963E+00 0.000E+00

     total cpu time spent up to now is     3009.4 secs

     total energy              =   -7425.04930037 Ry
     Harris-Foulkes estimate   =   -7425.52118454 Ry
     estimated scf accuracy    <       3.75161013 Ry

     iteration #  6     ecut=    50.00 Ry     beta=0.70
     Davidson diagonalization with overlap
     ethr =  2.34E-04,  avg # of iterations =  6.2

     negative rho (up, down):  1.967E+00 0.000E+00

     total cpu time spent up to now is     3339.0 secs

     total energy              =   -7425.25303825 Ry
     Harris-Foulkes estimate   =   -7425.30736808 Ry
     estimated scf accuracy    <       0.21562997 Ry

     iteration #  7     ecut=    50.00 Ry     beta=0.70
     Davidson diagonalization with overlap
     ethr =  2.70E-05,  avg # of iterations =  4.5

     negative rho (up, down):  1.970E+00 0.000E+00

     total cpu time spent up to now is     3671.4 secs

     total energy              =   -7425.25933538 Ry
     Harris-Foulkes estimate   =   -7425.29862433 Ry
     estimated scf accuracy    <       0.19498668 Ry

     iteration #  8     ecut=    50.00 Ry     beta=0.70
     Davidson diagonalization with overlap
     ethr =  2.44E-05,  avg # of iterations =  3.0

     negative rho (up, down):  1.971E+00 0.000E+00

     total cpu time spent up to now is     3956.1 secs

     total energy              =   -7425.26636483 Ry
     Harris-Foulkes estimate   =   -7425.28455353 Ry
     estimated scf accuracy    <       0.07410518 Ry

     iteration #  9     ecut=    50.00 Ry     beta=0.70
     Davidson diagonalization with overlap
     ethr =  9.26E-06,  avg # of iterations =  7.8

     negative rho (up, down):  1.972E+00 0.000E+00

     total cpu time spent up to now is     4320.3 secs

     total energy              =   -7425.26928587 Ry
     Harris-Foulkes estimate   =   -7425.27765039 Ry
     estimated scf accuracy    <       0.02719552 Ry

     iteration # 10     ecut=    50.00 Ry     beta=0.70
     Davidson diagonalization with overlap
     ethr =  3.40E-06,  avg # of iterations =  6.0

     negative rho (up, down):  1.973E+00 0.000E+00

     total cpu time spent up to now is     4654.5 secs

     total energy              =   -7425.27161337 Ry
     Harris-Foulkes estimate   =   -7425.27375174 Ry
     estimated scf accuracy    <       0.00544574 Ry

     iteration # 11     ecut=    50.00 Ry     beta=0.70
     Davidson diagonalization with overlap
     ethr =  6.81E-07,  avg # of iterations =  7.0

     negative rho (up, down):  1.974E+00 0.000E+00

     total cpu time spent up to now is     5039.8 secs

     total energy              =   -7425.27229656 Ry
     Harris-Foulkes estimate   =   -7425.27306849 Ry
     estimated scf accuracy    <       0.00221733 Ry

     iteration # 12     ecut=    50.00 Ry     beta=0.70
     Davidson diagonalization with overlap
     ethr =  2.77E-07,  avg # of iterations =  2.0

     negative rho (up, down):  1.974E+00 0.000E+00

     total cpu time spent up to now is     5337.3 secs

     total energy              =   -7425.27226138 Ry
     Harris-Foulkes estimate   =   -7425.27287002 Ry
     estimated scf accuracy    <       0.00187911 Ry

     iteration # 13     ecut=    50.00 Ry     beta=0.70
     Davidson diagonalization with overlap
     ethr =  2.35E-07,  avg # of iterations =  3.8

     negative rho (up, down):  1.974E+00 0.000E+00

     total cpu time spent up to now is     5719.1 secs

     total energy              =   -7425.27191423 Ry
     Harris-Foulkes estimate   =   -7425.27344763 Ry
     estimated scf accuracy    <       0.00817453 Ry

     iteration # 14     ecut=    50.00 Ry     beta=0.70
     Davidson diagonalization with overlap
     ethr =  2.35E-07,  avg # of iterations =  3.0

     negative rho (up, down):  1.974E+00 0.000E+00

     total cpu time spent up to now is     6063.3 secs

     total energy              =   -7425.27263596 Ry
     Harris-Foulkes estimate   =   -7425.27266738 Ry
     estimated scf accuracy    <       0.00007104 Ry

     iteration # 15     ecut=    50.00 Ry     beta=0.70
     Davidson diagonalization with overlap
     ethr =  8.88E-09,  avg # of iterations =  3.0

     negative rho (up, down):  1.974E+00 0.000E+00

     total cpu time spent up to now is     6479.4 secs

     total energy              =   -7425.27259078 Ry
     Harris-Foulkes estimate   =   -7425.27272030 Ry
     estimated scf accuracy    <       0.00086369 Ry

     iteration # 16     ecut=    50.00 Ry     beta=0.70
     Davidson diagonalization with overlap
     ethr =  8.88E-09,  avg # of iterations =  2.0

     negative rho (up, down):  1.974E+00 0.000E+00

     total cpu time spent up to now is     6810.9 secs

     total energy              =   -7425.27264298 Ry
     Harris-Foulkes estimate   =   -7425.27267801 Ry
     estimated scf accuracy    <       0.00022097 Ry

     iteration # 17     ecut=    50.00 Ry     beta=0.70
     Davidson diagonalization with overlap
     ethr =  8.88E-09,  avg # of iterations =  2.0

     negative rho (up, down):  1.974E+00 0.000E+00

     total cpu time spent up to now is     7115.9 secs

     total energy              =   -7425.27265893 Ry
     Harris-Foulkes estimate   =   -7425.27266377 Ry
     estimated scf accuracy    <       0.00001980 Ry

     iteration # 18     ecut=    50.00 Ry     beta=0.70
     Davidson diagonalization with overlap
     ethr =  2.48E-09,  avg # of iterations =  2.0

     negative rho (up, down):  1.974E+00 0.000E+00

     total cpu time spent up to now is     7398.3 secs

     total energy              =   -7425.27266057 Ry
     Harris-Foulkes estimate   =   -7425.27266243 Ry
     estimated scf accuracy    <       0.00000755 Ry

     iteration # 19     ecut=    50.00 Ry     beta=0.70
     Davidson diagonalization with overlap
     ethr =  9.44E-10,  avg # of iterations =  2.0

     negative rho (up, down):  1.974E+00 0.000E+00

     total cpu time spent up to now is     7691.2 secs

     total energy              =   -7425.27266131 Ry
     Harris-Foulkes estimate   =   -7425.27266191 Ry
     estimated scf accuracy    <       0.00000207 Ry

     iteration # 20     ecut=    50.00 Ry     beta=0.70
     Davidson diagonalization with overlap
     ethr =  2.59E-10,  avg # of iterations =  3.0

     negative rho (up, down):  1.974E+00 0.000E+00

     total cpu time spent up to now is     7999.4 secs

     total energy              =   -7425.27266146 Ry
     Harris-Foulkes estimate   =   -7425.27266180 Ry
     estimated scf accuracy    <       0.00000114 Ry

     iteration # 21     ecut=    50.00 Ry     beta=0.70
     Davidson diagonalization with overlap
     ethr =  1.43E-10,  avg # of iterations =  2.0

     negative rho (up, down):  1.974E+00 0.000E+00

     total cpu time spent up to now is     8271.5 secs

     total energy              =   -7425.27266159 Ry
     Harris-Foulkes estimate   =   -7425.27266169 Ry
     estimated scf accuracy    <       0.00000033 Ry

     iteration # 22     ecut=    50.00 Ry     beta=0.70
     Davidson diagonalization with overlap
     ethr =  4.17E-11,  avg # of iterations =  2.0

     negative rho (up, down):  1.974E+00 0.000E+00

     total cpu time spent up to now is     8558.4 secs

     total energy              =   -7425.27266161 Ry
     Harris-Foulkes estimate   =   -7425.27266165 Ry
     estimated scf accuracy    <       0.00000010 Ry

     iteration # 23     ecut=    50.00 Ry     beta=0.70
     Davidson diagonalization with overlap
     ethr =  1.25E-11,  avg # of iterations =  2.0

     negative rho (up, down):  1.974E+00 0.000E+00

     total cpu time spent up to now is     8850.0 secs

     total energy              =   -7425.27266161 Ry
     Harris-Foulkes estimate   =   -7425.27266164 Ry
     estimated scf accuracy    <       0.00000010 Ry

     iteration # 24     ecut=    50.00 Ry     beta=0.70
     Davidson diagonalization with overlap
     ethr =  1.19E-11,  avg # of iterations =  2.0

     negative rho (up, down):  1.974E+00 0.000E+00

     total cpu time spent up to now is     9137.7 secs

     total energy              =   -7425.27266161 Ry
     Harris-Foulkes estimate   =   -7425.27266163 Ry
     estimated scf accuracy    <       0.00000004 Ry

     iteration # 25     ecut=    50.00 Ry     beta=0.70
     Davidson diagonalization with overlap
     ethr =  4.64E-12,  avg # of iterations =  2.0

     negative rho (up, down):  1.974E+00 0.000E+00

     total cpu time spent up to now is     9429.0 secs

     total energy              =   -7425.27266161 Ry
     Harris-Foulkes estimate   =   -7425.27266162 Ry
     estimated scf accuracy    <       0.00000003 Ry

     iteration # 26     ecut=    50.00 Ry     beta=0.70
     Davidson diagonalization with overlap
     ethr =  3.33E-12,  avg # of iterations =  2.0

     negative rho (up, down):  1.974E+00 0.000E+00

     total cpu time spent up to now is     9715.5 secs

     End of self-consistent calculation

          k = 0.2500 0.2500 0.0833 (167653 PWs)   bands (ev):

   -19.6011  -7.7231  -6.8108  -6.2854  -6.2823  -5.8562  -5.4448  -5.3552
    -5.3534  -5.1587  -5.1567  -5.0404  -5.0369  -4.9613  -4.9397  -4.8666
    -4.7816  -4.7764  -4.7378  -4.7373  -4.5785  -4.5627  -4.5596  -4.5587
    -4.5523  -4.4981  -4.4969  -4.4867  -4.4840  -4.4476  -4.4403  -4.4345
    -4.3954  -4.3928  -4.3596  -4.3585  -4.3093  -4.3057  -4.2969  -4.2952
    -4.2888  -4.2773  -4.2754  -4.2366  -4.2177  -4.2161  -4.2095  -4.2087
    -4.1788  -4.1385  -4.1146  -4.1120  -4.1108  -4.1082  -4.1028  -4.0973
    -4.0947  -4.0933  -4.0343  -4.0301  -4.0026  -3.9785  -3.9669  -3.9462
    -3.9423  -3.9291  -3.9196  -3.9170  -3.9150  -3.9112  -3.8687  -3.8618
    -3.8509  -3.8484  -3.8313  -3.7432  -3.7414  -3.7358  -3.7338  -3.6995
    -3.6901  -3.6726  -3.6473  -3.6424  -3.6171  -3.6162  -3.5964  -3.5930
    -3.5854  -3.5807  -3.5267  -3.5256  -3.5092  -3.4911  -3.4837  -3.4808
    -3.4790  -3.4766  -3.4528  -3.4512  -3.4157  -3.4135  -3.3970  -3.3911
    -3.3622  -3.3578  -3.3448  -3.3154  -3.3123  -3.2788  -3.2756  -3.2405
    -3.2322  -3.2320  -3.2186  -3.2171  -3.2125  -3.2116  -3.1795  -3.1638
    -3.1262  -3.1256  -3.1154  -3.1097  -3.1055  -3.1037  -3.0815  -3.0805
    -3.0629  -3.0600  -3.0572  -3.0322  -3.0313  -3.0243  -3.0222  -3.0184
    -2.9846  -2.9841  -2.9483  -2.9457  -2.9437  -2.9419  -2.9399  -2.8609
    -2.8554  -2.8518  -2.8494  -2.8462  -2.8452  -2.8427  -2.8408  -2.8393
    -2.8387  -2.8298  -2.8221  -2.8090  -2.8038  -2.8021  -2.8006  -2.7879
    -2.7845  -2.7474  -2.7465  -2.7442  -2.7392  -2.7384  -2.7221  -2.7205
    -2.7143  -2.7125  -2.7091  -2.6553  -2.6510  -2.6469  -2.6446  -2.6420
    -2.6391  -2.6126  -2.5564  -2.5551  -2.5528  -2.5483  -2.5389  -2.5372
    -2.5334  -2.5231  -2.5200  -2.4912  -2.4829  -2.4812  -2.4761  -2.4730
    -2.4719  -2.4369  -2.4355  -2.4260  -2.4238  -2.4229  -2.4209  -2.3795
    -2.3683  -2.3584  -2.3089  -2.3043  -2.2897  -2.2883  -2.2809  -2.2774
    -2.2349  -2.2297  -2.2090  -2.2023  -2.1842  -2.1784  -2.1742  -2.1576
    -2.1536  -2.1461  -2.1323  -2.1097  -2.0906  -2.0777  -2.0733  -2.0707
    -2.0690  -2.0606  -2.0600  -2.0463  -2.0438  -2.0416  -2.0390  -2.0343
    -2.0331  -2.0281  -2.0225  -2.0064  -2.0057  -2.0027  -1.9997  -1.9949
    -1.9919  -1.9745  -1.9691  -1.9616  -1.9577  -1.9512  -1.9492  -1.9136
    -1.8935  -1.8797  -1.8657  -1.8444  -1.8285  -1.8265  -1.8130  -1.8073
    -1.7930  -1.7881  -1.7815  -1.7768  -1.7751  -1.7723  -1.7696  -1.7467
    -1.7388  -1.7377  -1.7025  -1.6940  -1.6822  -1.6547  -1.6430  -1.6067
    -1.6041  -1.5919  -1.5716  -1.5632  -1.5583  -1.5481  -1.5431  -1.5288
    -1.5271  -1.5256  -1.5234  -1.5208  -1.5190  -1.5174  -1.5054  -1.4978
    -1.4946  -1.4736  -1.4687  -1.4544  -1.4507  -1.4285  -1.4240  -1.4217
    -1.4199  -1.4163  -1.4080  -1.3941  -1.3856  -1.3762  -1.3695  -1.3616
    -1.3573  -1.3393  -1.3289  -1.3136  -1.3099  -1.3040  -1.2997  -1.2698
    -1.2630  -1.2571  -1.2556  -1.2509  -1.2422  -1.2280  -1.2257  -1.2175
    -1.2074  -1.2053  -1.1995  -1.1940  -1.1935  -1.1825  -1.1812  -1.1698
    -1.1683  -1.1605  -1.1597  -1.1484  -1.1430  -1.1384  -1.1299  -1.0982
    -1.0963  -1.0916  -1.0881  -1.0868  -1.0769  -1.0513  -1.0336  -1.0309
    -1.0299  -1.0288  -1.0243  -1.0213  -1.0171  -1.0060  -1.0048  -0.9697
    -0.9644  -0.9624  -0.9602  -0.9404  -0.9384  -0.9298  -0.9021  -0.8921
    -0.8685  -0.8635  -0.8383  -0.8369  -0.8329  -0.8322  -0.8302  -0.8255
    -0.8243  -0.8227  -0.8177  -0.8165  -0.7867  -0.7851  -0.7681  -0.7652
    -0.7613  -0.7606  -0.7575  -0.7468  -0.7416  -0.4721  -0.4537  -0.3978
    -0.3880  -0.3597  -0.1998  -0.1361  -0.1334  -0.0922   0.1848   0.1898
     0.5155   0.5262   0.6129   0.6140   0.6545   0.6570   0.8017   0.8058
     0.9215   0.9260   1.0215   1.6122   1.6273   1.6294   1.6655   1.6735
     1.7175   1.7341   1.7996   1.8039   2.0040   2.0057   2.2470   2.3197
     2.3276   2.3368   2.7167   2.7297   2.7880   2.7918   2.7977   2.8001
     2.9482   2.9499   3.0055   3.0957   3.1007   3.3238   3.3297   3.4576
     3.4865   3.4882   3.7596   3.7621   3.8734   3.8891   3.8921   3.9590
     3.9851   4.0713   4.0790   4.3084   4.3151   4.4023   4.4113   4.5201
     4.5305   4.5511   4.5676   4.7128   5.1376   5.3535   5.3748   5.4499
     5.4588   5.5379   5.6370   5.6403   5.6676   5.7103   5.7438   5.7547
     5.7635   5.7990   5.8082   5.8490   6.0229   6.1056   6.1185   6.1217
     6.1302   6.1392   6.1484   6.1550   6.1594   6.1622   6.1903   6.2291

          k = 0.2500 0.2500-0.2500 (167588 PWs)   bands (ev):

   -19.6011  -7.7231  -6.8108  -6.2854  -6.2823  -5.8562  -5.4448  -5.3552
    -5.3534  -5.1587  -5.1567  -5.0404  -5.0369  -4.9613  -4.9397  -4.8666
    -4.7816  -4.7764  -4.7378  -4.7373  -4.5785  -4.5627  -4.5596  -4.5587
    -4.5523  -4.4981  -4.4969  -4.4867  -4.4840  -4.4476  -4.4403  -4.4345
    -4.3954  -4.3928  -4.3596  -4.3585  -4.3093  -4.3057  -4.2969  -4.2952
    -4.2888  -4.2773  -4.2754  -4.2366  -4.2177  -4.2161  -4.2095  -4.2087
    -4.1788  -4.1385  -4.1146  -4.1120  -4.1108  -4.1082  -4.1028  -4.0973
    -4.0947  -4.0933  -4.0343  -4.0301  -4.0026  -3.9785  -3.9669  -3.9462
    -3.9423  -3.9291  -3.9196  -3.9170  -3.9150  -3.9112  -3.8687  -3.8618
    -3.8509  -3.8484  -3.8313  -3.7432  -3.7414  -3.7358  -3.7338  -3.6995
    -3.6901  -3.6726  -3.6473  -3.6424  -3.6171  -3.6162  -3.5964  -3.5930
    -3.5854  -3.5807  -3.5267  -3.5257  -3.5092  -3.4911  -3.4837  -3.4808
    -3.4790  -3.4766  -3.4528  -3.4512  -3.4156  -3.4135  -3.3970  -3.3910
    -3.3622  -3.3578  -3.3448  -3.3154  -3.3123  -3.2788  -3.2756  -3.2405
    -3.2322  -3.2320  -3.2186  -3.2171  -3.2125  -3.2116  -3.1795  -3.1638
    -3.1262  -3.1256  -3.1154  -3.1097  -3.1054  -3.1037  -3.0815  -3.0805
    -3.0629  -3.0600  -3.0571  -3.0322  -3.0313  -3.0243  -3.0222  -3.0184
    -2.9846  -2.9841  -2.9483  -2.9457  -2.9437  -2.9419  -2.9399  -2.8609
    -2.8554  -2.8518  -2.8494  -2.8462  -2.8452  -2.8427  -2.8408  -2.8393
    -2.8387  -2.8298  -2.8221  -2.8090  -2.8038  -2.8021  -2.8006  -2.7879
    -2.7845  -2.7474  -2.7464  -2.7442  -2.7392  -2.7384  -2.7220  -2.7205
    -2.7143  -2.7125  -2.7091  -2.6553  -2.6510  -2.6469  -2.6446  -2.6420
    -2.6391  -2.6126  -2.5564  -2.5551  -2.5528  -2.5483  -2.5389  -2.5372
    -2.5334  -2.5231  -2.5200  -2.4912  -2.4829  -2.4812  -2.4761  -2.4730
    -2.4719  -2.4369  -2.4355  -2.4260  -2.4238  -2.4229  -2.4210  -2.3795
    -2.3683  -2.3584  -2.3089  -2.3043  -2.2897  -2.2883  -2.2809  -2.2774
    -2.2349  -2.2296  -2.2090  -2.2023  -2.1842  -2.1784  -2.1742  -2.1576
    -2.1536  -2.1461  -2.1323  -2.1097  -2.0906  -2.0777  -2.0733  -2.0707
    -2.0690  -2.0606  -2.0600  -2.0463  -2.0438  -2.0416  -2.0390  -2.0343
    -2.0331  -2.0281  -2.0225  -2.0064  -2.0057  -2.0027  -1.9997  -1.9949
    -1.9919  -1.9745  -1.9691  -1.9616  -1.9577  -1.9512  -1.9492  -1.9136
    -1.8935  -1.8797  -1.8657  -1.8444  -1.8285  -1.8265  -1.8129  -1.8073
    -1.7929  -1.7881  -1.7815  -1.7768  -1.7751  -1.7723  -1.7696  -1.7467
    -1.7388  -1.7377  -1.7025  -1.6940  -1.6822  -1.6547  -1.6430  -1.6067
    -1.6041  -1.5919  -1.5716  -1.5632  -1.5583  -1.5481  -1.5431  -1.5288
    -1.5271  -1.5256  -1.5234  -1.5208  -1.5190  -1.5174  -1.5054  -1.4979
    -1.4946  -1.4736  -1.4687  -1.4544  -1.4507  -1.4285  -1.4240  -1.4217
    -1.4199  -1.4163  -1.4080  -1.3941  -1.3856  -1.3762  -1.3695  -1.3616
    -1.3573  -1.3393  -1.3289  -1.3136  -1.3099  -1.3040  -1.2997  -1.2698
    -1.2629  -1.2571  -1.2556  -1.2509  -1.2422  -1.2280  -1.2257  -1.2174
    -1.2074  -1.2053  -1.1995  -1.1940  -1.1935  -1.1825  -1.1812  -1.1698
    -1.1683  -1.1605  -1.1597  -1.1484  -1.1430  -1.1384  -1.1299  -1.0982
    -1.0964  -1.0916  -1.0881  -1.0868  -1.0769  -1.0513  -1.0336  -1.0309
    -1.0299  -1.0288  -1.0243  -1.0212  -1.0171  -1.0060  -1.0048  -0.9697
    -0.9644  -0.9624  -0.9602  -0.9404  -0.9384  -0.9298  -0.9021  -0.8921
    -0.8685  -0.8635  -0.8383  -0.8369  -0.8329  -0.8322  -0.8302  -0.8255
    -0.8243  -0.8227  -0.8177  -0.8165  -0.7867  -0.7851  -0.7681  -0.7652
    -0.7613  -0.7606  -0.7575  -0.7468  -0.7416  -0.4721  -0.4537  -0.3978
    -0.3880  -0.3597  -0.1998  -0.1361  -0.1334  -0.0922   0.1848   0.1898
     0.5155   0.5262   0.6129   0.6140   0.6545   0.6570   0.8017   0.8058
     0.9215   0.9260   1.0215   1.6122   1.6273   1.6294   1.6655   1.6735
     1.7175   1.7341   1.7996   1.8039   2.0040   2.0057   2.2470   2.3197
     2.3276   2.3368   2.7167   2.7297   2.7880   2.7918   2.7977   2.8001
     2.9482   2.9499   3.0055   3.0958   3.1007   3.3238   3.3297   3.4576
     3.4865   3.4882   3.7596   3.7621   3.8734   3.8891   3.8921   3.9591
     3.9852   4.0713   4.0790   4.3084   4.3151   4.4023   4.4113   4.5201
     4.5305   4.5511   4.5676   4.7130   5.1288   5.3509   5.3717   5.4499
     5.4569   5.5354   5.6388   5.6416   5.6906   5.7232   5.7486   5.7570
     5.7658   5.8008   5.8083   5.8497   6.0496   6.0833   6.1163   6.1210
     6.1295   6.1430   6.1509   6.1561   6.1615   6.1673   6.2142   6.2426

          k =-0.2500-0.2500 0.0833 (167653 PWs)   bands (ev):

   -19.6011  -7.7231  -6.8108  -6.2854  -6.2823  -5.8562  -5.4448  -5.3552
    -5.3534  -5.1587  -5.1567  -5.0404  -5.0369  -4.9613  -4.9397  -4.8666
    -4.7816  -4.7764  -4.7378  -4.7373  -4.5785  -4.5627  -4.5596  -4.5587
    -4.5523  -4.4981  -4.4969  -4.4867  -4.4840  -4.4476  -4.4403  -4.4345
    -4.3954  -4.3928  -4.3596  -4.3585  -4.3093  -4.3057  -4.2969  -4.2952
    -4.2888  -4.2773  -4.2754  -4.2366  -4.2177  -4.2161  -4.2095  -4.2087
    -4.1788  -4.1385  -4.1146  -4.1120  -4.1108  -4.1082  -4.1028  -4.0973
    -4.0947  -4.0933  -4.0343  -4.0301  -4.0026  -3.9785  -3.9669  -3.9462
    -3.9423  -3.9291  -3.9196  -3.9170  -3.9150  -3.9112  -3.8687  -3.8618
    -3.8509  -3.8484  -3.8313  -3.7432  -3.7414  -3.7358  -3.7338  -3.6995
    -3.6901  -3.6726  -3.6473  -3.6424  -3.6171  -3.6162  -3.5964  -3.5930
    -3.5854  -3.5807  -3.5267  -3.5256  -3.5092  -3.4911  -3.4837  -3.4808
    -3.4790  -3.4766  -3.4528  -3.4512  -3.4157  -3.4135  -3.3970  -3.3911
    -3.3622  -3.3578  -3.3448  -3.3154  -3.3123  -3.2788  -3.2756  -3.2405
    -3.2322  -3.2320  -3.2186  -3.2171  -3.2125  -3.2116  -3.1795  -3.1638
    -3.1262  -3.1256  -3.1154  -3.1097  -3.1055  -3.1037  -3.0815  -3.0805
    -3.0629  -3.0600  -3.0572  -3.0322  -3.0313  -3.0243  -3.0222  -3.0184
    -2.9846  -2.9841  -2.9483  -2.9457  -2.9437  -2.9419  -2.9399  -2.8609
    -2.8554  -2.8518  -2.8494  -2.8462  -2.8452  -2.8427  -2.8408  -2.8393
    -2.8387  -2.8298  -2.8221  -2.8090  -2.8038  -2.8021  -2.8006  -2.7879
    -2.7845  -2.7474  -2.7465  -2.7442  -2.7392  -2.7384  -2.7221  -2.7205
    -2.7143  -2.7125  -2.7091  -2.6553  -2.6510  -2.6469  -2.6446  -2.6420
    -2.6391  -2.6126  -2.5564  -2.5551  -2.5528  -2.5483  -2.5389  -2.5372
    -2.5334  -2.5231  -2.5200  -2.4912  -2.4829  -2.4812  -2.4761  -2.4730
    -2.4719  -2.4369  -2.4355  -2.4260  -2.4238  -2.4229  -2.4209  -2.3795
    -2.3683  -2.3584  -2.3089  -2.3043  -2.2897  -2.2883  -2.2809  -2.2774
    -2.2349  -2.2297  -2.2090  -2.2023  -2.1842  -2.1784  -2.1742  -2.1576
    -2.1536  -2.1461  -2.1323  -2.1097  -2.0906  -2.0777  -2.0733  -2.0707
    -2.0690  -2.0606  -2.0600  -2.0463  -2.0438  -2.0416  -2.0390  -2.0343
    -2.0331  -2.0281  -2.0225  -2.0064  -2.0057  -2.0027  -1.9997  -1.9949
    -1.9919  -1.9745  -1.9691  -1.9616  -1.9577  -1.9512  -1.9492  -1.9136
    -1.8935  -1.8797  -1.8657  -1.8444  -1.8285  -1.8265  -1.8130  -1.8073
    -1.7930  -1.7881  -1.7815  -1.7768  -1.7751  -1.7723  -1.7696  -1.7467
    -1.7388  -1.7377  -1.7025  -1.6940  -1.6822  -1.6547  -1.6430  -1.6067
    -1.6041  -1.5919  -1.5716  -1.5632  -1.5583  -1.5481  -1.5431  -1.5288
    -1.5271  -1.5256  -1.5234  -1.5208  -1.5190  -1.5174  -1.5054  -1.4978
    -1.4946  -1.4736  -1.4687  -1.4544  -1.4507  -1.4285  -1.4240  -1.4217
    -1.4199  -1.4163  -1.4080  -1.3941  -1.3856  -1.3762  -1.3695  -1.3616
    -1.3573  -1.3393  -1.3289  -1.3136  -1.3099  -1.3040  -1.2997  -1.2698
    -1.2630  -1.2571  -1.2556  -1.2509  -1.2422  -1.2280  -1.2257  -1.2175
    -1.2074  -1.2053  -1.1995  -1.1940  -1.1935  -1.1825  -1.1812  -1.1698
    -1.1683  -1.1605  -1.1597  -1.1484  -1.1430  -1.1384  -1.1299  -1.0982
    -1.0963  -1.0916  -1.0881  -1.0868  -1.0769  -1.0513  -1.0336  -1.0309
    -1.0299  -1.0288  -1.0243  -1.0213  -1.0171  -1.0060  -1.0048  -0.9697
    -0.9644  -0.9624  -0.9602  -0.9404  -0.9384  -0.9298  -0.9021  -0.8921
    -0.8685  -0.8635  -0.8383  -0.8369  -0.8329  -0.8322  -0.8302  -0.8255
    -0.8243  -0.8227  -0.8177  -0.8165  -0.7867  -0.7851  -0.7681  -0.7652
    -0.7613  -0.7606  -0.7575  -0.7468  -0.7416  -0.4721  -0.4537  -0.3978
    -0.3880  -0.3597  -0.1998  -0.1361  -0.1334  -0.0922   0.1848   0.1898
     0.5155   0.5262   0.6129   0.6140   0.6545   0.6570   0.8017   0.8058
     0.9215   0.9260   1.0215   1.6122   1.6273   1.6294   1.6655   1.6735
     1.7175   1.7341   1.7996   1.8039   2.0040   2.0057   2.2470   2.3197
     2.3276   2.3368   2.7167   2.7297   2.7880   2.7918   2.7977   2.8001
     2.9482   2.9499   3.0055   3.0957   3.1007   3.3238   3.3297   3.4576
     3.4865   3.4882   3.7596   3.7621   3.8734   3.8891   3.8921   3.9590
     3.9851   4.0713   4.0790   4.3084   4.3151   4.4023   4.4113   4.5201
     4.5305   4.5511   4.5676   4.7129   5.1373   5.3535   5.3758   5.4500
     5.4586   5.5343   5.6368   5.6404   5.6716   5.7113   5.7437   5.7550
     5.7637   5.7989   5.8082   5.8489   6.0246   6.1066   6.1180   6.1201
     6.1304   6.1377   6.1482   6.1545   6.1602   6.1627   6.1813   6.2249

          k =-0.2500 0.2500-0.0833 (167653 PWs)   bands (ev):

   -19.6011  -7.7231  -6.8105  -6.2864  -6.2824  -5.8550  -5.4444  -5.3555
    -5.3517  -5.1592  -5.1579  -5.0430  -5.0364  -4.9617  -4.9374  -4.8652
    -4.7807  -4.7777  -4.7412  -4.7377  -4.5785  -4.5632  -4.5610  -4.5576
    -4.5523  -4.4995  -4.4970  -4.4864  -4.4831  -4.4475  -4.4388  -4.4327
    -4.3947  -4.3926  -4.3599  -4.3578  -4.3102  -4.3043  -4.2971  -4.2947
    -4.2887  -4.2767  -4.2751  -4.2370  -4.2203  -4.2160  -4.2102  -4.2080
    -4.1780  -4.1293  -4.1272  -4.1132  -4.1103  -4.1068  -4.1022  -4.0957
    -4.0944  -4.0933  -4.0345  -4.0275  -3.9917  -3.9781  -3.9700  -3.9502
    -3.9401  -3.9379  -3.9175  -3.9173  -3.9130  -3.9114  -3.8674  -3.8617
    -3.8559  -3.8482  -3.8403  -3.7445  -3.7407  -3.7361  -3.7289  -3.6991
    -3.6912  -3.6727  -3.6470  -3.6352  -3.6172  -3.6144  -3.5970  -3.5936
    -3.5866  -3.5808  -3.5274  -3.5255  -3.5096  -3.4906  -3.4829  -3.4814
    -3.4788  -3.4785  -3.4531  -3.4517  -3.4158  -3.4140  -3.3962  -3.3911
    -3.3618  -3.3578  -3.3448  -3.3147  -3.3131  -3.2791  -3.2755  -3.2406
    -3.2321  -3.2315  -3.2188  -3.2172  -3.2132  -3.2121  -3.1798  -3.1636
    -3.1260  -3.1253  -3.1159  -3.1086  -3.1050  -3.1033  -3.0822  -3.0810
    -3.0630  -3.0602  -3.0561  -3.0318  -3.0310  -3.0241  -3.0218  -3.0190
    -2.9842  -2.9829  -2.9495  -2.9457  -2.9438  -2.9422  -2.9403  -2.8612
    -2.8547  -2.8519  -2.8492  -2.8454  -2.8452  -2.8427  -2.8401  -2.8393
    -2.8386  -2.8298  -2.8220  -2.8098  -2.8037  -2.8016  -2.7995  -2.7880
    -2.7829  -2.7483  -2.7469  -2.7439  -2.7412  -2.7372  -2.7229  -2.7198
    -2.7141  -2.7126  -2.7090  -2.6555  -2.6512  -2.6466  -2.6452  -2.6406
    -2.6384  -2.6145  -2.5572  -2.5534  -2.5527  -2.5482  -2.5384  -2.5370
    -2.5335  -2.5231  -2.5196  -2.4975  -2.4829  -2.4794  -2.4774  -2.4736
    -2.4716  -2.4390  -2.4352  -2.4259  -2.4245  -2.4233  -2.4205  -2.3802
    -2.3642  -2.3636  -2.3083  -2.3039  -2.2908  -2.2874  -2.2811  -2.2785
    -2.2389  -2.2297  -2.2093  -2.2024  -2.1828  -2.1793  -2.1739  -2.1557
    -2.1528  -2.1454  -2.1294  -2.1016  -2.0902  -2.0840  -2.0722  -2.0698
    -2.0668  -2.0621  -2.0594  -2.0457  -2.0445  -2.0423  -2.0378  -2.0347
    -2.0329  -2.0285  -2.0239  -2.0074  -2.0062  -2.0027  -1.9982  -1.9954
    -1.9915  -1.9783  -1.9709  -1.9620  -1.9580  -1.9528  -1.9490  -1.9142
    -1.8913  -1.8799  -1.8487  -1.8447  -1.8278  -1.8249  -1.8151  -1.8073
    -1.7932  -1.7823  -1.7786  -1.7766  -1.7744  -1.7731  -1.7693  -1.7550
    -1.7386  -1.7377  -1.7187  -1.6946  -1.6706  -1.6585  -1.6471  -1.6064
    -1.6025  -1.5921  -1.5719  -1.5630  -1.5592  -1.5457  -1.5432  -1.5324
    -1.5271  -1.5237  -1.5219  -1.5206  -1.5185  -1.5172  -1.5012  -1.4965
    -1.4875  -1.4822  -1.4698  -1.4526  -1.4503  -1.4296  -1.4242  -1.4210
    -1.4181  -1.4140  -1.4036  -1.3964  -1.3879  -1.3765  -1.3711  -1.3627
    -1.3571  -1.3409  -1.3358  -1.3120  -1.3083  -1.3030  -1.2985  -1.2683
    -1.2617  -1.2576  -1.2522  -1.2511  -1.2462  -1.2298  -1.2260  -1.2164
    -1.2086  -1.2048  -1.1999  -1.1943  -1.1924  -1.1892  -1.1805  -1.1691
    -1.1667  -1.1615  -1.1598  -1.1484  -1.1437  -1.1421  -1.1348  -1.0977
    -1.0942  -1.0917  -1.0875  -1.0872  -1.0786  -1.0516  -1.0338  -1.0303
    -1.0298  -1.0282  -1.0241  -1.0234  -1.0185  -1.0059  -0.9978  -0.9722
    -0.9647  -0.9616  -0.9577  -0.9411  -0.9396  -0.9295  -0.9015  -0.8919
    -0.8677  -0.8628  -0.8387  -0.8377  -0.8329  -0.8310  -0.8303  -0.8255
    -0.8235  -0.8211  -0.8197  -0.8167  -0.7873  -0.7849  -0.7668  -0.7651
    -0.7625  -0.7601  -0.7580  -0.7486  -0.7389  -0.4722  -0.4537  -0.3974
    -0.3857  -0.3599  -0.1986  -0.1365  -0.1323  -0.0953   0.1853   0.1902
     0.5135   0.5264   0.6119   0.6153   0.6522   0.6591   0.7997   0.8120
     0.9210   0.9259   1.0215   1.6117   1.6266   1.6296   1.6647   1.6732
     1.7140   1.7370   1.7958   1.8091   2.0014   2.0086   2.2457   2.3145
     2.3315   2.3378   2.7112   2.7324   2.7866   2.7923   2.7975   2.8018
     2.9472   2.9502   3.0037   3.0907   3.1100   3.3236   3.3335   3.4570
     3.4817   3.4939   3.7536   3.7666   3.8736   3.8896   3.8926   3.9533
     3.9910   4.0712   4.0809   4.3069   4.3154   4.4037   4.4098   4.5208
     4.5289   4.5447   4.5711   4.7080   5.1369   5.3528   5.3735   5.4554
     5.4635   5.5341   5.6292   5.6453   5.6752   5.7107   5.7393   5.7562
     5.7611   5.7998   5.8089   5.8546   6.0212   6.0945   6.1154   6.1276
     6.1338   6.1453   6.1492   6.1525   6.1574   6.1618   6.1913   6.2253

          k = 0.2500-0.2500-0.0833 (167653 PWs)   bands (ev):

   -19.6011  -7.7231  -6.8105  -6.2864  -6.2824  -5.8550  -5.4444  -5.3555
    -5.3517  -5.1592  -5.1579  -5.0430  -5.0364  -4.9617  -4.9374  -4.8652
    -4.7807  -4.7777  -4.7412  -4.7377  -4.5785  -4.5632  -4.5610  -4.5576
    -4.5523  -4.4995  -4.4970  -4.4864  -4.4831  -4.4475  -4.4388  -4.4327
    -4.3947  -4.3926  -4.3599  -4.3578  -4.3102  -4.3043  -4.2971  -4.2947
    -4.2887  -4.2767  -4.2751  -4.2370  -4.2203  -4.2160  -4.2102  -4.2080
    -4.1780  -4.1293  -4.1272  -4.1132  -4.1103  -4.1068  -4.1022  -4.0957
    -4.0944  -4.0933  -4.0345  -4.0275  -3.9917  -3.9781  -3.9700  -3.9502
    -3.9401  -3.9379  -3.9175  -3.9173  -3.9130  -3.9114  -3.8674  -3.8617
    -3.8559  -3.8482  -3.8403  -3.7445  -3.7407  -3.7361  -3.7289  -3.6991
    -3.6912  -3.6727  -3.6470  -3.6352  -3.6172  -3.6144  -3.5970  -3.5936
    -3.5866  -3.5808  -3.5274  -3.5255  -3.5096  -3.4906  -3.4829  -3.4814
    -3.4788  -3.4785  -3.4531  -3.4517  -3.4158  -3.4140  -3.3962  -3.3911
    -3.3618  -3.3578  -3.3448  -3.3147  -3.3131  -3.2791  -3.2755  -3.2406
    -3.2321  -3.2315  -3.2188  -3.2172  -3.2132  -3.2121  -3.1798  -3.1636
    -3.1260  -3.1253  -3.1159  -3.1086  -3.1050  -3.1033  -3.0822  -3.0810
    -3.0630  -3.0602  -3.0561  -3.0318  -3.0310  -3.0241  -3.0218  -3.0190
    -2.9842  -2.9829  -2.9495  -2.9457  -2.9438  -2.9422  -2.9403  -2.8612
    -2.8547  -2.8519  -2.8492  -2.8454  -2.8452  -2.8427  -2.8401  -2.8393
    -2.8386  -2.8298  -2.8220  -2.8098  -2.8037  -2.8016  -2.7995  -2.7880
    -2.7829  -2.7483  -2.7469  -2.7439  -2.7412  -2.7372  -2.7229  -2.7198
    -2.7141  -2.7126  -2.7090  -2.6555  -2.6512  -2.6466  -2.6452  -2.6406
    -2.6384  -2.6145  -2.5572  -2.5534  -2.5527  -2.5482  -2.5384  -2.5370
    -2.5335  -2.5231  -2.5196  -2.4975  -2.4829  -2.4794  -2.4774  -2.4736
    -2.4716  -2.4390  -2.4352  -2.4259  -2.4245  -2.4233  -2.4205  -2.3802
    -2.3642  -2.3636  -2.3083  -2.3039  -2.2908  -2.2874  -2.2811  -2.2785
    -2.2389  -2.2297  -2.2093  -2.2024  -2.1828  -2.1793  -2.1739  -2.1557
    -2.1528  -2.1454  -2.1294  -2.1016  -2.0902  -2.0840  -2.0722  -2.0698
    -2.0668  -2.0621  -2.0593  -2.0457  -2.0445  -2.0423  -2.0378  -2.0347
    -2.0329  -2.0285  -2.0239  -2.0074  -2.0062  -2.0027  -1.9982  -1.9954
    -1.9915  -1.9783  -1.9709  -1.9620  -1.9580  -1.9528  -1.9490  -1.9142
    -1.8913  -1.8799  -1.8487  -1.8447  -1.8278  -1.8249  -1.8151  -1.8073
    -1.7932  -1.7823  -1.7786  -1.7766  -1.7744  -1.7731  -1.7693  -1.7550
    -1.7386  -1.7377  -1.7187  -1.6946  -1.6706  -1.6585  -1.6471  -1.6064
    -1.6025  -1.5921  -1.5719  -1.5630  -1.5592  -1.5457  -1.5432  -1.5324
    -1.5271  -1.5237  -1.5219  -1.5206  -1.5185  -1.5172  -1.5012  -1.4965
    -1.4875  -1.4822  -1.4698  -1.4526  -1.4503  -1.4296  -1.4242  -1.4210
    -1.4181  -1.4140  -1.4036  -1.3964  -1.3879  -1.3765  -1.3711  -1.3627
    -1.3571  -1.3409  -1.3358  -1.3120  -1.3083  -1.3030  -1.2985  -1.2683
    -1.2617  -1.2576  -1.2522  -1.2511  -1.2462  -1.2298  -1.2260  -1.2164
    -1.2086  -1.2048  -1.1999  -1.1943  -1.1924  -1.1892  -1.1805  -1.1691
    -1.1667  -1.1615  -1.1598  -1.1484  -1.1437  -1.1421  -1.1348  -1.0977
    -1.0942  -1.0917  -1.0875  -1.0872  -1.0786  -1.0516  -1.0338  -1.0303
    -1.0298  -1.0282  -1.0241  -1.0234  -1.0185  -1.0059  -0.9978  -0.9722
    -0.9647  -0.9616  -0.9577  -0.9411  -0.9396  -0.9295  -0.9015  -0.8919
    -0.8677  -0.8628  -0.8387  -0.8377  -0.8329  -0.8310  -0.8303  -0.8255
    -0.8235  -0.8211  -0.8197  -0.8167  -0.7873  -0.7849  -0.7668  -0.7651
    -0.7625  -0.7601  -0.7580  -0.7486  -0.7389  -0.4722  -0.4537  -0.3974
    -0.3857  -0.3599  -0.1986  -0.1365  -0.1323  -0.0953   0.1853   0.1902
     0.5135   0.5264   0.6119   0.6153   0.6522   0.6591   0.7997   0.8120
     0.9210   0.9259   1.0215   1.6117   1.6266   1.6296   1.6647   1.6732
     1.7140   1.7370   1.7958   1.8091   2.0014   2.0086   2.2457   2.3145
     2.3315   2.3378   2.7112   2.7324   2.7866   2.7923   2.7975   2.8018
     2.9472   2.9502   3.0037   3.0907   3.1100   3.3236   3.3335   3.4570
     3.4817   3.4939   3.7536   3.7666   3.8736   3.8896   3.8926   3.9533
     3.9910   4.0712   4.0809   4.3069   4.3154   4.4037   4.4098   4.5208
     4.5289   4.5447   4.5711   4.7079   5.1372   5.3528   5.3725   5.4554
     5.4635   5.5380   5.6292   5.6452   5.6713   5.7093   5.7393   5.7561
     5.7611   5.7997   5.8089   5.8544   6.0191   6.0937   6.1173   6.1270
     6.1331   6.1465   6.1489   6.1523   6.1586   6.1621   6.2010   6.2327

          k =-0.2500 0.2500 0.2500 (167588 PWs)   bands (ev):

   -19.6011  -7.7231  -6.8105  -6.2864  -6.2824  -5.8550  -5.4444  -5.3555
    -5.3517  -5.1592  -5.1579  -5.0430  -5.0364  -4.9617  -4.9374  -4.8652
    -4.7807  -4.7777  -4.7412  -4.7377  -4.5785  -4.5632  -4.5610  -4.5576
    -4.5523  -4.4995  -4.4970  -4.4864  -4.4831  -4.4475  -4.4388  -4.4327
    -4.3947  -4.3926  -4.3599  -4.3579  -4.3102  -4.3043  -4.2971  -4.2947
    -4.2887  -4.2767  -4.2751  -4.2370  -4.2203  -4.2160  -4.2102  -4.2080
    -4.1780  -4.1293  -4.1272  -4.1132  -4.1103  -4.1068  -4.1022  -4.0957
    -4.0944  -4.0933  -4.0345  -4.0275  -3.9917  -3.9781  -3.9700  -3.9502
    -3.9401  -3.9378  -3.9175  -3.9172  -3.9130  -3.9114  -3.8674  -3.8617
    -3.8559  -3.8482  -3.8403  -3.7445  -3.7407  -3.7362  -3.7289  -3.6991
    -3.6912  -3.6727  -3.6470  -3.6352  -3.6172  -3.6144  -3.5970  -3.5936
    -3.5866  -3.5808  -3.5274  -3.5255  -3.5096  -3.4906  -3.4829  -3.4814
    -3.4788  -3.4785  -3.4531  -3.4517  -3.4158  -3.4140  -3.3962  -3.3911
    -3.3618  -3.3578  -3.3448  -3.3147  -3.3131  -3.2791  -3.2755  -3.2406
    -3.2321  -3.2315  -3.2188  -3.2172  -3.2132  -3.2121  -3.1798  -3.1636
    -3.1260  -3.1253  -3.1159  -3.1086  -3.1050  -3.1033  -3.0822  -3.0810
    -3.0630  -3.0602  -3.0561  -3.0317  -3.0310  -3.0241  -3.0218  -3.0190
    -2.9842  -2.9829  -2.9495  -2.9457  -2.9438  -2.9422  -2.9403  -2.8612
    -2.8547  -2.8519  -2.8492  -2.8454  -2.8452  -2.8427  -2.8401  -2.8393
    -2.8386  -2.8298  -2.8220  -2.8098  -2.8037  -2.8016  -2.7995  -2.7879
    -2.7829  -2.7483  -2.7469  -2.7439  -2.7412  -2.7372  -2.7229  -2.7198
    -2.7141  -2.7126  -2.7090  -2.6555  -2.6512  -2.6466  -2.6452  -2.6406
    -2.6384  -2.6145  -2.5572  -2.5534  -2.5527  -2.5482  -2.5384  -2.5370
    -2.5335  -2.5231  -2.5196  -2.4975  -2.4829  -2.4794  -2.4774  -2.4736
    -2.4716  -2.4390  -2.4352  -2.4259  -2.4245  -2.4233  -2.4205  -2.3802
    -2.3642  -2.3636  -2.3083  -2.3039  -2.2908  -2.2874  -2.2811  -2.2785
    -2.2389  -2.2297  -2.2093  -2.2024  -2.1827  -2.1793  -2.1739  -2.1557
    -2.1528  -2.1455  -2.1294  -2.1016  -2.0902  -2.0840  -2.0722  -2.0698
    -2.0668  -2.0621  -2.0593  -2.0457  -2.0445  -2.0423  -2.0378  -2.0347
    -2.0329  -2.0285  -2.0239  -2.0074  -2.0062  -2.0027  -1.9982  -1.9954
    -1.9915  -1.9783  -1.9709  -1.9620  -1.9580  -1.9528  -1.9490  -1.9142
    -1.8913  -1.8799  -1.8487  -1.8447  -1.8278  -1.8249  -1.8151  -1.8073
    -1.7932  -1.7823  -1.7786  -1.7766  -1.7744  -1.7731  -1.7693  -1.7550
    -1.7386  -1.7377  -1.7187  -1.6946  -1.6706  -1.6585  -1.6471  -1.6064
    -1.6025  -1.5922  -1.5719  -1.5630  -1.5592  -1.5457  -1.5432  -1.5324
    -1.5271  -1.5237  -1.5219  -1.5206  -1.5185  -1.5172  -1.5012  -1.4965
    -1.4875  -1.4822  -1.4698  -1.4526  -1.4503  -1.4296  -1.4242  -1.4210
    -1.4180  -1.4140  -1.4036  -1.3963  -1.3879  -1.3765  -1.3711  -1.3627
    -1.3571  -1.3409  -1.3358  -1.3120  -1.3083  -1.3030  -1.2985  -1.2683
    -1.2617  -1.2576  -1.2522  -1.2511  -1.2462  -1.2298  -1.2260  -1.2164
    -1.2086  -1.2048  -1.1999  -1.1943  -1.1924  -1.1892  -1.1805  -1.1691
    -1.1667  -1.1615  -1.1598  -1.1484  -1.1437  -1.1421  -1.1348  -1.0977
    -1.0942  -1.0917  -1.0875  -1.0872  -1.0786  -1.0516  -1.0338  -1.0303
    -1.0298  -1.0282  -1.0241  -1.0234  -1.0185  -1.0059  -0.9978  -0.9722
    -0.9647  -0.9616  -0.9577  -0.9411  -0.9396  -0.9295  -0.9015  -0.8919
    -0.8677  -0.8628  -0.8387  -0.8377  -0.8329  -0.8310  -0.8303  -0.8255
    -0.8235  -0.8211  -0.8197  -0.8167  -0.7873  -0.7850  -0.7668  -0.7651
    -0.7625  -0.7601  -0.7580  -0.7486  -0.7389  -0.4722  -0.4537  -0.3974
    -0.3857  -0.3599  -0.1986  -0.1365  -0.1323  -0.0953   0.1853   0.1902
     0.5135   0.5264   0.6119   0.6153   0.6522   0.6591   0.7998   0.8120
     0.9210   0.9259   1.0215   1.6117   1.6266   1.6296   1.6647   1.6732
     1.7140   1.7370   1.7958   1.8091   2.0014   2.0086   2.2457   2.3145
     2.3315   2.3378   2.7112   2.7324   2.7866   2.7923   2.7975   2.8018
     2.9472   2.9502   3.0038   3.0907   3.1100   3.3236   3.3335   3.4570
     3.4817   3.4939   3.7536   3.7666   3.8735   3.8896   3.8926   3.9534
     3.9911   4.0712   4.0809   4.3069   4.3154   4.4037   4.4098   4.5208
     4.5289   4.5447   4.5711   4.7081   5.1285   5.3496   5.3690   5.4551
     5.4636   5.5358   5.6292   5.6456   5.6925   5.7190   5.7511   5.7571
     5.7669   5.8002   5.8093   5.8545   6.0470   6.0806   6.1046   6.1281
     6.1375   6.1483   6.1511   6.1534   6.1615   6.1712   6.2128   6.2466

     the Fermi energy is     0.8759 ev

!    total energy              =   -7425.27266160 Ry
     Harris-Foulkes estimate   =   -7425.27266162 Ry
     estimated scf accuracy    <          5.5E-09 Ry

     The total energy is the sum of the following terms:

     one-electron contribution =  -48891.64617555 Ry
     hartree contribution      =   24996.84104831 Ry
     xc contribution           =   -3604.28316721 Ry
     ewald contribution        =   20073.81807412 Ry
     smearing contrib. (-TS)   =      -0.00244128 Ry

     convergence has been achieved in  26 iterations

     Writing output data file 2626147.save

     init_run     :    148.94s CPU    157.72s WALL (       1 calls)
     electrons    :   8866.29s CPU   9556.68s WALL (       1 calls)

     Called by init_run:
     wfcinit      :    118.21s CPU    126.02s WALL (       1 calls)
     potinit      :      7.37s CPU      7.85s WALL (       1 calls)

     Called by electrons:
     c_bands      :   7226.93s CPU   7820.26s WALL (      27 calls)
     sum_band     :   1100.93s CPU   1178.42s WALL (      27 calls)
     v_of_rho     :    111.09s CPU    123.89s WALL (      27 calls)
     newd         :    438.51s CPU    444.64s WALL (      27 calls)
     mix_rho      :      3.28s CPU      3.70s WALL (      27 calls)
     vdW_energy   :     11.74s CPU     13.48s WALL (      27 calls)
     vdW_ffts     :     51.95s CPU     57.80s WALL (      54 calls)
     vdW_v        :     14.26s CPU     15.19s WALL (      27 calls)

     Called by c_bands:
     init_us_2    :     23.19s CPU     23.58s WALL (     330 calls)
     cegterg      :   6976.91s CPU   7568.50s WALL (     162 calls)

     Called by *egterg:
     h_psi        :   2740.44s CPU   3091.32s WALL (     809 calls)
     s_psi        :    351.38s CPU    359.48s WALL (     809 calls)
     g_psi        :      4.58s CPU      4.62s WALL (     641 calls)
     cdiaghg      :   1414.76s CPU   1418.87s WALL (     797 calls)

     Called by h_psi:
     add_vuspsi   :    358.86s CPU    370.50s WALL (     809 calls)

     General routines
     calbec       :   1026.74s CPU   1030.07s WALL (     971 calls)
     fft          :    129.53s CPU    139.89s WALL (    1782 calls)
     ffts         :      1.53s CPU      1.84s WALL (      54 calls)
     fftw         :   1736.60s CPU   2105.57s WALL (  437954 calls)
     interpolate  :      4.52s CPU      5.34s WALL (      54 calls)
     davcio       :      0.00s CPU      0.24s WALL (       6 calls)

     Parallel routines
     fft_scatter  :   1279.08s CPU   1570.06s WALL (  439790 calls)

     PWSCF        :     2h30m CPU        2h42m WALL


   This run was terminated on:  14:26:33   1Jul2015            

=------------------------------------------------------------------------------=
   JOB DONE.
=------------------------------------------------------------------------------=
