
     Program PWSCF v.5.1.2 starts on 30Jun2015 at 22:51:44 

     This program is part of the open-source Quantum ESPRESSO suite
     for quantum simulation of materials; please cite
         "P. Giannozzi et al., J. Phys.:Condens. Matter 21 395502 (2009);
          URL http://www.quantum-espresso.org", 
     in publications or presentations arising from this work. More details at
     http://www.quantum-espresso.org/quote

     Parallel version (MPI), running on    32 processors
     R & G space division:  proc/nbgrp/npool/nimage =      32
     Reading input from bridge.O1.Au6165.d.2.5.phi.0.psi.0.in
Warning: card &IONS ignored
Warning: card / ignored
Warning: card &CELL ignored
Warning: card / ignored

     Current dimensions of program PWSCF are:
     Max number of different atomic species (ntypx) = 10
     Max number of k-points (npk) =  40000
     Max angular momentum in pseudopotentials (lmaxx) =  3

     IMPORTANT: XC functional enforced from input :
     Exchange-correlation      = VDW-DF ( 1  4  4  0 1 0)
     Any further DFT definition will be discarded
     Please, verify this is what you really want


     Subspace diagonalization in iterative solution of the eigenvalue problem:
     a serial algorithm will be used


     Parallelization info
     --------------------
     sticks:   dense  smooth     PW     G-vecs:    dense   smooth      PW
     Min         578     289     74               118518    41891    5486
     Max         579     290     75               118533    41932    5497
     Sum       18505    9265   2385              3792731  1341081  175711


     Title: 
     bridge.O1.Au6165.d.2.5.phi.0.psi.0                                         


     bravais-lattice index     =            8
     lattice parameter (alat)  =      24.1233  a.u.
     unit-cell volume          =   28076.2361 (a.u.)^3
     number of atoms/cell      =           75
     number of atomic types    =            3
     number of electrons       =       800.00
     number of Kohn-Sham states=          480
     kinetic-energy cutoff     =      50.0000  Ry
     charge density cutoff     =     400.0000  Ry
     convergence threshold     =      1.0E-08
     mixing beta               =       0.7000
     number of iterations used =            8  plain     mixing
     Exchange-correlation      = VDW-DF ( 1  4  4  0 1 0)

     celldm(1)=  24.123277  celldm(2)=   1.000000  celldm(3)=   2.000000
     celldm(4)=   0.000000  celldm(5)=   0.000000  celldm(6)=   0.000000

     crystal axes: (cart. coord. in units of alat)
               a(1) = (   1.000000   0.000000   0.000000 )  
               a(2) = (   0.000000   1.000000   0.000000 )  
               a(3) = (   0.000000   0.000000   2.000000 )  

     reciprocal axes: (cart. coord. in units 2 pi/alat)
               b(1) = (  1.000000  0.000000  0.000000 )  
               b(2) = (  0.000000  1.000000  0.000000 )  
               b(3) = (  0.000000  0.000000  0.500000 )  


     PseudoPot. # 1 for Au read from file:
     /home/scc/andrejb/qe/pseudo/Au.pbe-nd-van.UPF
     MD5 check sum: 458681b50f36d87ef23c61b04bba420a
     Pseudo is Ultrasoft + core correction, Zval = 11.0
     Generated by new atomic code, or converted to UPF format
     Using radial grid of  985 points,  3 beta functions with: 
                l(1) =   1
                l(2) =   2
                l(3) =   2
     Q(r) pseudized with  8 coefficients,  rinner =    1.100   1.100   1.100
                                                       1.100   1.100

     PseudoPot. # 2 for H  read from file:
     /home/scc/andrejb/qe/pseudo/H.pbe-van_ak.UPF
     MD5 check sum: 403db7282739603aa925980fa9b8608d
     Pseudo is Ultrasoft, Zval =  1.0
     Generated by new atomic code, or converted to UPF format
     Using radial grid of  615 points,  1 beta functions with: 
                l(1) =   0
     Q(r) pseudized with  8 coefficients,  rinner =    0.800

     PseudoPot. # 3 for O  read from file:
     /home/scc/andrejb/qe/pseudo/O.pbe-van_ak.UPF
     MD5 check sum: 4b8c549914a63cae506c6ff22b5af4fe
     Pseudo is Ultrasoft, Zval =  6.0
     Generated by new atomic code, or converted to UPF format
     Using radial grid of  737 points,  4 beta functions with: 
                l(1) =   0
                l(2) =   0
                l(3) =   1
                l(4) =   1
     Q(r) pseudized with  8 coefficients,  rinner =    0.800   0.800   0.800


     vdW kernel table read from file vdW_kernel_table
     MD5 check sum: 48e77a2e26edf626eeb0eaa751ad5cac

     atomic species   valence    mass     pseudopotential
        Au            11.00   196.96657     Au( 1.00)
        H              1.00     1.01000     H ( 1.00)
        O              6.00    16.00000     O ( 1.00)

     No symmetry found



   Cartesian axes

     site n.     atom                  positions (alat units)
         1           O   tau(   1) = (   0.2499161   0.4165269   0.6951590  )
         2           H   tau(   2) = (   0.2028385   0.3773554   0.7406529  )
         3           H   tau(   3) = (   0.2955663   0.4545286   0.7430167  )
         4           Au  tau(   4) = (   0.0000000   0.0000000   0.0000000  )
         5           Au  tau(   5) = (   0.3332217   0.0000000   0.0000000  )
         6           Au  tau(   6) = (   0.6664434   0.0000000   0.0000000  )
         7           Au  tau(   7) = (   0.1666109   0.1666109   0.0000000  )
         8           Au  tau(   8) = (   0.4998326   0.1666109   0.0000000  )
         9           Au  tau(   9) = (   0.8330542   0.1666109   0.0000000  )
        10           Au  tau(  10) = (   0.0000000   0.3332217   0.0000000  )
        11           Au  tau(  11) = (   0.3332217   0.3332217   0.0000000  )
        12           Au  tau(  12) = (   0.6664434   0.3332217   0.0000000  )
        13           Au  tau(  13) = (   0.1666109   0.4998326   0.0000000  )
        14           Au  tau(  14) = (   0.4998326   0.4998326   0.0000000  )
        15           Au  tau(  15) = (   0.8330542   0.4998326   0.0000000  )
        16           Au  tau(  16) = (   0.0000000   0.6664434   0.0000000  )
        17           Au  tau(  17) = (   0.3332217   0.6664434   0.0000000  )
        18           Au  tau(  18) = (   0.6664434   0.6664434   0.0000000  )
        19           Au  tau(  19) = (   0.1666109   0.8330542   0.0000000  )
        20           Au  tau(  20) = (   0.4998326   0.8330542   0.0000000  )
        21           Au  tau(  21) = (   0.8330542   0.8330542   0.0000000  )
        22           Au  tau(  22) = (   0.1666109   0.0000000   0.1666109  )
        23           Au  tau(  23) = (   0.4998326   0.0000000   0.1666109  )
        24           Au  tau(  24) = (   0.8330542   0.0000000   0.1666109  )
        25           Au  tau(  25) = (   0.0000000   0.1666109   0.1666109  )
        26           Au  tau(  26) = (   0.3332217   0.1666109   0.1666109  )
        27           Au  tau(  27) = (   0.6664434   0.1666109   0.1666109  )
        28           Au  tau(  28) = (   0.1666109   0.3332217   0.1666109  )
        29           Au  tau(  29) = (   0.4998326   0.3332217   0.1666109  )
        30           Au  tau(  30) = (   0.8330542   0.3332217   0.1666109  )
        31           Au  tau(  31) = (   0.0000000   0.4998326   0.1666109  )
        32           Au  tau(  32) = (   0.3332217   0.4998326   0.1666109  )
        33           Au  tau(  33) = (   0.6664434   0.4998326   0.1666109  )
        34           Au  tau(  34) = (   0.1666109   0.6664434   0.1666109  )
        35           Au  tau(  35) = (   0.4998326   0.6664434   0.1666109  )
        36           Au  tau(  36) = (   0.8330542   0.6664434   0.1666109  )
        37           Au  tau(  37) = (   0.0000000   0.8330542   0.1666109  )
        38           Au  tau(  38) = (   0.3332217   0.8330542   0.1666109  )
        39           Au  tau(  39) = (   0.6664434   0.8330542   0.1666109  )
        40           Au  tau(  40) = (  -0.0000182  -0.0000182   0.3335478  )
        41           Au  tau(  41) = (   0.3332215  -0.0000181   0.3335473  )
        42           Au  tau(  42) = (   0.6664447  -0.0000183   0.3335481  )
        43           Au  tau(  43) = (  -0.0000181   0.3332215   0.3335473  )
        44           Au  tau(  44) = (   0.3332215   0.3332215   0.3335468  )
        45           Au  tau(  45) = (   0.6664445   0.3332215   0.3335477  )
        46           Au  tau(  46) = (  -0.0000183   0.6664447   0.3335481  )
        47           Au  tau(  47) = (   0.3332215   0.6664445   0.3335477  )
        48           Au  tau(  48) = (   0.6664446   0.6664446   0.3335486  )
        49           Au  tau(  49) = (   0.1666097   0.1666097   0.3335483  )
        50           Au  tau(  50) = (   0.4998320   0.1666098   0.3335477  )
        51           Au  tau(  51) = (   0.8330732   0.1666096   0.3335480  )
        52           Au  tau(  52) = (   0.1666098   0.4998320   0.3335477  )
        53           Au  tau(  53) = (   0.4998322   0.4998322   0.3335470  )
        54           Au  tau(  54) = (   0.8330731   0.4998322   0.3335474  )
        55           Au  tau(  55) = (   0.1666096   0.8330732   0.3335480  )
        56           Au  tau(  56) = (   0.4998322   0.8330731   0.3335474  )
        57           Au  tau(  57) = (   0.8330731   0.8330731   0.3335478  )
        58           Au  tau(  58) = (   0.1666104  -0.0000111   0.4993095  )
        59           Au  tau(  59) = (   0.4998323  -0.0000112   0.4993099  )
        60           Au  tau(  60) = (   0.8330660  -0.0000111   0.4993009  )
        61           Au  tau(  61) = (  -0.0000111   0.1666104   0.4993095  )
        62           Au  tau(  62) = (   0.3332213   0.1666106   0.4993185  )
        63           Au  tau(  63) = (   0.6664437   0.1666106   0.4993187  )
        64           Au  tau(  64) = (   0.1666106   0.3332213   0.4993185  )
        65           Au  tau(  65) = (   0.4998324   0.3332216   0.4993185  )
        66           Au  tau(  66) = (   0.8330658   0.3332215   0.4993102  )
        67           Au  tau(  67) = (  -0.0000112   0.4998323   0.4993099  )
        68           Au  tau(  68) = (   0.3332216   0.4998324   0.4993185  )
        69           Au  tau(  69) = (   0.6664437   0.4998325   0.4993187  )
        70           Au  tau(  70) = (   0.1666106   0.6664437   0.4993187  )
        71           Au  tau(  71) = (   0.4998325   0.6664437   0.4993187  )
        72           Au  tau(  72) = (   0.8330658   0.6664438   0.4993102  )
        73           Au  tau(  73) = (  -0.0000111   0.8330660   0.4993009  )
        74           Au  tau(  74) = (   0.3332215   0.8330658   0.4993102  )
        75           Au  tau(  75) = (   0.6664438   0.8330658   0.4993102  )

     number of k points=     6  Marzari-Vanderbilt smearing, width (Ry)=  0.0200
                       cart. coord. in units 2pi/alat
        k(    1) = (   0.2500000   0.2500000   0.0833333), wk =   0.3333333
        k(    2) = (   0.2500000   0.2500000  -0.2500000), wk =   0.3333333
        k(    3) = (  -0.2500000  -0.2500000   0.0833333), wk =   0.3333333
        k(    4) = (  -0.2500000   0.2500000  -0.0833333), wk =   0.3333333
        k(    5) = (   0.2500000  -0.2500000  -0.0833333), wk =   0.3333333
        k(    6) = (  -0.2500000   0.2500000   0.2500000), wk =   0.3333333

     Dense  grid:  3792731 G-vectors     FFT dimensions: ( 160, 160, 320)

     Smooth grid:  1341081 G-vectors     FFT dimensions: ( 120, 120, 225)

     Largest allocated arrays     est. size (Mb)     dimensions
        Kohn-Sham Wavefunctions        38.58 Mb     (    5267,  480)
        NL pseudopotentials            76.03 Mb     (    5267,  946)
        Each V/rho on FFT grid          3.91 Mb     (  256000)
        Each G-vector array             0.90 Mb     (  118520)
        G-vector shells                 0.08 Mb     (   10286)
     Largest temporary arrays     est. size (Mb)     dimensions
        Auxiliary wavefunctions       154.31 Mb     (    5267, 1920)
        Each subspace H/S matrix       56.25 Mb     (    1920, 1920)
        Each <psi_i|beta_j> matrix      6.93 Mb     (     946,  480)
        Arrays for rho mixing          31.25 Mb     (  256000,    8)

     Initial potential from superposition of free atoms
     Check: negative starting charge=   -1.945143

     starting charge  799.16392, renormalised to  800.00000

     negative rho (up, down):  1.947E+00 0.000E+00


     ************************************************************************
     *
     * You are using vdW-DF for exchange-correlation in this calculation.
     * Please cite the following three references that made this development
     * possible:
     *
     *   M. Dion, H. Rydberg, E. Schroder, D. C. Langreth, and
     *   B. I. Lundqvist, Phys. Rev. Lett. 92, 246401 (2004).
     *
     *   T. Thonhauser, V. R. Cooper, S. Li, A. Puzder, P. Hyldgaard, and
     *   D. C. Langreth, Phys. Rev. B 76, 125112 (2007).
     *
     *   G. Roman-Perez and J. M. Soler, Phys. Rev. Lett. 103, 096102 (2009).
     *
     *
     * If you are using vdW-DF2, please also cite:
     *
     *   K. Lee, E. D. Murray, L. Kong, B. I. Lundqvist, and
     *   D. C. Langreth, Phys. Rev. B 82, 081101(R) (2010).
     *
     *
     * If you are calculating the stress with vdW-DF, please also cite:
     *
     *   R. Sabatini, E. Kucukbenli, B. Kolb, T. Thonhauser, and
     *   S. de Gironcoli, J. Phys.: Condens. Matter 24, 424209 (2012).
     *
     ************************************************************************

     Carrying out vdW-DF run using the following parameters:

     Nqs =      20    Nr_points =    1024   r_max =   100.000
     q_mesh =
               0.00001000     0.04494208     0.09755937     0.15916263
               0.23128650     0.31572767     0.41458969     0.53033537
               0.66584808     0.82450364     1.01025438     1.22772762
               1.48234092     1.78043706     2.12944203     2.53805004
               3.01644009     3.57652955     4.23227104     5.00000000

     Gradients computed in reciprocal space

     ************************************************************************


     Starting wfc are  654 randomized atomic wfcs

     total cpu time spent up to now is      153.4 secs

     Self-consistent Calculation

     iteration #  1     ecut=    50.00 Ry     beta=0.70
     Davidson diagonalization with overlap
     ethr =  1.00E-02,  avg # of iterations =  3.0

     Threshold (ethr) on eigenvalues was too large:
     Diagonalizing with lowered threshold

     Davidson diagonalization with overlap
     ethr =  4.31E-04,  avg # of iterations =  2.5

     negative rho (up, down):  1.947E+00 0.000E+00

     total cpu time spent up to now is      723.7 secs

     total energy              =   -7422.98163530 Ry
     Harris-Foulkes estimate   =   -7426.08568441 Ry
     estimated scf accuracy    <       3.83007766 Ry

     iteration #  2     ecut=    50.00 Ry     beta=0.70
     Davidson diagonalization with overlap
     ethr =  4.79E-04,  avg # of iterations = 11.3

     negative rho (up, down):  1.941E+00 0.000E+00

     total cpu time spent up to now is     1610.8 secs

     total energy              =   -7414.29998988 Ry
     Harris-Foulkes estimate   =   -7432.88033072 Ry
     estimated scf accuracy    <      99.28445019 Ry

     iteration #  3     ecut=    50.00 Ry     beta=0.70
     Davidson diagonalization with overlap
     ethr =  4.79E-04,  avg # of iterations =  6.5

     negative rho (up, down):  1.951E+00 0.000E+00

     total cpu time spent up to now is     2265.8 secs

     total energy              =   -7424.30153419 Ry
     Harris-Foulkes estimate   =   -7425.86765846 Ry
     estimated scf accuracy    <       6.19309425 Ry

     iteration #  4     ecut=    50.00 Ry     beta=0.70
     Davidson diagonalization with overlap
     ethr =  4.79E-04,  avg # of iterations =  5.8

     negative rho (up, down):  1.955E+00 0.000E+00

     total cpu time spent up to now is     2614.3 secs

     total energy              =   -7424.62129540 Ry
     Harris-Foulkes estimate   =   -7425.87022103 Ry
     estimated scf accuracy    <       9.81405271 Ry

     iteration #  5     ecut=    50.00 Ry     beta=0.70
     Davidson diagonalization with overlap
     ethr =  4.79E-04,  avg # of iterations =  5.3

     negative rho (up, down):  1.963E+00 0.000E+00

     total cpu time spent up to now is     2957.5 secs

     total energy              =   -7425.21851757 Ry
     Harris-Foulkes estimate   =   -7425.41809577 Ry
     estimated scf accuracy    <       1.10435981 Ry

     iteration #  6     ecut=    50.00 Ry     beta=0.70
     Davidson diagonalization with overlap
     ethr =  1.38E-04,  avg # of iterations =  4.0

     negative rho (up, down):  1.967E+00 0.000E+00

     total cpu time spent up to now is     3250.8 secs

     total energy              =   -7425.27207965 Ry
     Harris-Foulkes estimate   =   -7425.31550535 Ry
     estimated scf accuracy    <       0.14612603 Ry

     iteration #  7     ecut=    50.00 Ry     beta=0.70
     Davidson diagonalization with overlap
     ethr =  1.83E-05,  avg # of iterations = 12.0

     negative rho (up, down):  1.969E+00 0.000E+00

     total cpu time spent up to now is     3710.4 secs

     total energy              =   -7425.27518276 Ry
     Harris-Foulkes estimate   =   -7425.30528365 Ry
     estimated scf accuracy    <       0.13034066 Ry

     iteration #  8     ecut=    50.00 Ry     beta=0.70
     Davidson diagonalization with overlap
     ethr =  1.63E-05,  avg # of iterations =  3.0

     negative rho (up, down):  1.971E+00 0.000E+00

     total cpu time spent up to now is     4014.0 secs

     total energy              =   -7425.27645199 Ry
     Harris-Foulkes estimate   =   -7425.29812676 Ry
     estimated scf accuracy    <       0.09282922 Ry

     iteration #  9     ecut=    50.00 Ry     beta=0.70
     Davidson diagonalization with overlap
     ethr =  1.16E-05,  avg # of iterations =  7.7

     negative rho (up, down):  1.972E+00 0.000E+00

     total cpu time spent up to now is     4352.1 secs

     total energy              =   -7425.28285235 Ry
     Harris-Foulkes estimate   =   -7425.29065515 Ry
     estimated scf accuracy    <       0.02695961 Ry

     iteration # 10     ecut=    50.00 Ry     beta=0.70
     Davidson diagonalization with overlap
     ethr =  3.37E-06,  avg # of iterations = 10.5

     negative rho (up, down):  1.972E+00 0.000E+00

     total cpu time spent up to now is     4720.9 secs

     total energy              =   -7425.28606416 Ry
     Harris-Foulkes estimate   =   -7425.28789346 Ry
     estimated scf accuracy    <       0.00509480 Ry

     iteration # 11     ecut=    50.00 Ry     beta=0.70
     Davidson diagonalization with overlap
     ethr =  6.37E-07,  avg # of iterations =  8.8

     negative rho (up, down):  1.973E+00 0.000E+00

     total cpu time spent up to now is     5107.6 secs

     total energy              =   -7425.28683324 Ry
     Harris-Foulkes estimate   =   -7425.28738168 Ry
     estimated scf accuracy    <       0.00152258 Ry

     iteration # 12     ecut=    50.00 Ry     beta=0.70
     Davidson diagonalization with overlap
     ethr =  1.90E-07,  avg # of iterations =  2.0

     negative rho (up, down):  1.973E+00 0.000E+00

     total cpu time spent up to now is     5401.6 secs

     total energy              =   -7425.28703250 Ry
     Harris-Foulkes estimate   =   -7425.28718788 Ry
     estimated scf accuracy    <       0.00041395 Ry

     iteration # 13     ecut=    50.00 Ry     beta=0.70
     Davidson diagonalization with overlap
     ethr =  5.17E-08,  avg # of iterations =  3.0

     negative rho (up, down):  1.974E+00 0.000E+00

     total cpu time spent up to now is     5778.4 secs

     total energy              =   -7425.28697778 Ry
     Harris-Foulkes estimate   =   -7425.28727847 Ry
     estimated scf accuracy    <       0.00140687 Ry

     iteration # 14     ecut=    50.00 Ry     beta=0.70
     Davidson diagonalization with overlap
     ethr =  5.17E-08,  avg # of iterations =  3.0

     negative rho (up, down):  1.974E+00 0.000E+00

     total cpu time spent up to now is     6082.9 secs

     total energy              =   -7425.28710512 Ry
     Harris-Foulkes estimate   =   -7425.28714521 Ry
     estimated scf accuracy    <       0.00017316 Ry

     iteration # 15     ecut=    50.00 Ry     beta=0.70
     Davidson diagonalization with overlap
     ethr =  2.16E-08,  avg # of iterations =  2.0

     negative rho (up, down):  1.974E+00 0.000E+00

     total cpu time spent up to now is     6346.1 secs

     total energy              =   -7425.28709849 Ry
     Harris-Foulkes estimate   =   -7425.28714940 Ry
     estimated scf accuracy    <       0.00026765 Ry

     iteration # 16     ecut=    50.00 Ry     beta=0.70
     Davidson diagonalization with overlap
     ethr =  2.16E-08,  avg # of iterations =  2.0

     negative rho (up, down):  1.974E+00 0.000E+00

     total cpu time spent up to now is     6595.6 secs

     total energy              =   -7425.28710563 Ry
     Harris-Foulkes estimate   =   -7425.28715549 Ry
     estimated scf accuracy    <       0.00037337 Ry

     iteration # 17     ecut=    50.00 Ry     beta=0.70
     Davidson diagonalization with overlap
     ethr =  2.16E-08,  avg # of iterations =  2.0

     negative rho (up, down):  1.974E+00 0.000E+00

     total cpu time spent up to now is     6845.2 secs

     total energy              =   -7425.28712449 Ry
     Harris-Foulkes estimate   =   -7425.28713349 Ry
     estimated scf accuracy    <       0.00004133 Ry

     iteration # 18     ecut=    50.00 Ry     beta=0.70
     Davidson diagonalization with overlap
     ethr =  5.17E-09,  avg # of iterations =  2.0

     negative rho (up, down):  1.974E+00 0.000E+00

     total cpu time spent up to now is     7118.6 secs

     total energy              =   -7425.28712822 Ry
     Harris-Foulkes estimate   =   -7425.28713031 Ry
     estimated scf accuracy    <       0.00000782 Ry

     iteration # 19     ecut=    50.00 Ry     beta=0.70
     Davidson diagonalization with overlap
     ethr =  9.78E-10,  avg # of iterations =  2.0

     negative rho (up, down):  1.974E+00 0.000E+00

     total cpu time spent up to now is     7362.7 secs

     total energy              =   -7425.28712870 Ry
     Harris-Foulkes estimate   =   -7425.28712987 Ry
     estimated scf accuracy    <       0.00000402 Ry

     iteration # 20     ecut=    50.00 Ry     beta=0.70
     Davidson diagonalization with overlap
     ethr =  5.02E-10,  avg # of iterations =  2.0

     negative rho (up, down):  1.974E+00 0.000E+00

     total cpu time spent up to now is     7616.6 secs

     total energy              =   -7425.28712896 Ry
     Harris-Foulkes estimate   =   -7425.28712938 Ry
     estimated scf accuracy    <       0.00000088 Ry

     iteration # 21     ecut=    50.00 Ry     beta=0.70
     Davidson diagonalization with overlap
     ethr =  1.10E-10,  avg # of iterations =  2.0

     negative rho (up, down):  1.974E+00 0.000E+00

     total cpu time spent up to now is     7895.3 secs

     total energy              =   -7425.28712902 Ry
     Harris-Foulkes estimate   =   -7425.28712913 Ry
     estimated scf accuracy    <       0.00000007 Ry

     iteration # 22     ecut=    50.00 Ry     beta=0.70
     Davidson diagonalization with overlap
     ethr =  9.15E-12,  avg # of iterations =  3.0

     negative rho (up, down):  1.974E+00 0.000E+00

     total cpu time spent up to now is     8276.5 secs

     total energy              =   -7425.28712897 Ry
     Harris-Foulkes estimate   =   -7425.28712906 Ry
     estimated scf accuracy    <       0.00000008 Ry

     iteration # 23     ecut=    50.00 Ry     beta=0.70
     Davidson diagonalization with overlap
     ethr =  9.15E-12,  avg # of iterations =  2.0

     negative rho (up, down):  1.974E+00 0.000E+00

     total cpu time spent up to now is     8536.3 secs

     total energy              =   -7425.28712897 Ry
     Harris-Foulkes estimate   =   -7425.28712899 Ry
     estimated scf accuracy    <       0.00000004 Ry

     iteration # 24     ecut=    50.00 Ry     beta=0.70
     Davidson diagonalization with overlap
     ethr =  4.43E-12,  avg # of iterations =  2.0

     negative rho (up, down):  1.974E+00 0.000E+00

     total cpu time spent up to now is     8799.2 secs

     total energy              =   -7425.28712894 Ry
     Harris-Foulkes estimate   =   -7425.28712898 Ry
     estimated scf accuracy    <       0.00000003 Ry

     iteration # 25     ecut=    50.00 Ry     beta=0.70
     Davidson diagonalization with overlap
     ethr =  3.84E-12,  avg # of iterations =  2.0

     negative rho (up, down):  1.974E+00 0.000E+00

     total cpu time spent up to now is     9052.7 secs

     total energy              =   -7425.28712892 Ry
     Harris-Foulkes estimate   =   -7425.28712895 Ry
     estimated scf accuracy    <       0.00000001 Ry

     iteration # 26     ecut=    50.00 Ry     beta=0.70
     Davidson diagonalization with overlap
     ethr =  1.78E-12,  avg # of iterations =  2.0

     negative rho (up, down):  1.974E+00 0.000E+00

     total cpu time spent up to now is     9306.6 secs

     End of self-consistent calculation

          k = 0.2500 0.2500 0.0833 (167653 PWs)   bands (ev):

   -20.1127  -7.9399  -6.7072  -6.1787  -6.1787  -5.7485  -5.3480  -5.2467
    -5.2465  -5.0524  -5.0498  -4.9603  -4.9337  -4.8550  -4.8348  -4.7577
    -4.6887  -4.6725  -4.6546  -4.6298  -4.5664  -4.4646  -4.4517  -4.4515
    -4.4442  -4.4440  -4.3884  -4.3849  -4.3771  -4.3751  -4.3384  -4.3280
    -4.3176  -4.2845  -4.2842  -4.2498  -4.2494  -4.1988  -4.1940  -4.1857
    -4.1803  -4.1791  -4.1672  -4.1662  -4.1246  -4.1077  -4.1074  -4.1012
    -4.0986  -4.0674  -4.0201  -4.0041  -4.0028  -4.0004  -3.9929  -3.9865
    -3.9862  -3.9856  -3.9834  -3.9223  -3.9100  -3.8716  -3.8704  -3.8573
    -3.8326  -3.8292  -3.8098  -3.8091  -3.8059  -3.8052  -3.7990  -3.7532
    -3.7525  -3.7406  -3.7391  -3.6358  -3.6332  -3.6293  -3.6201  -3.5908
    -3.5850  -3.5680  -3.5383  -3.5369  -3.5096  -3.5075  -3.4878  -3.4858
    -3.4746  -3.4736  -3.4188  -3.4173  -3.4028  -3.3843  -3.3746  -3.3716
    -3.3713  -3.3685  -3.3438  -3.3408  -3.3076  -3.3050  -3.2862  -3.2823
    -3.2534  -3.2499  -3.2328  -3.2069  -3.2052  -3.1681  -3.1680  -3.1310
    -3.1241  -3.1237  -3.1107  -3.1069  -3.1046  -3.1022  -3.0687  -3.0559
    -3.0159  -3.0154  -3.0068  -2.9980  -2.9971  -2.9959  -2.9721  -2.9715
    -2.9508  -2.9500  -2.9497  -2.9233  -2.9216  -2.9149  -2.9140  -2.9103
    -2.8767  -2.8723  -2.8369  -2.8368  -2.8350  -2.8336  -2.8317  -2.7526
    -2.7429  -2.7395  -2.7382  -2.7378  -2.7366  -2.7334  -2.7331  -2.7316
    -2.7315  -2.7216  -2.7138  -2.6982  -2.6968  -2.6940  -2.6923  -2.6784
    -2.6782  -2.6368  -2.6359  -2.6355  -2.6320  -2.6276  -2.6133  -2.6120
    -2.6061  -2.6037  -2.6010  -2.5476  -2.5421  -2.5387  -2.5356  -2.5353
    -2.5310  -2.5014  -2.4453  -2.4442  -2.4432  -2.4407  -2.4338  -2.4290
    -2.4234  -2.4135  -2.4122  -2.3760  -2.3726  -2.3718  -2.3669  -2.3663
    -2.3624  -2.3265  -2.3259  -2.3165  -2.3155  -2.3143  -2.3127  -2.2700
    -2.2571  -2.2454  -2.2182  -2.1960  -2.1933  -2.1777  -2.1760  -2.1657
    -2.1552  -2.1207  -2.1177  -2.0984  -2.0795  -2.0686  -2.0676  -2.0619
    -2.0445  -2.0405  -2.0339  -2.0196  -1.9785  -1.9760  -1.9641  -1.9630
    -1.9605  -1.9524  -1.9464  -1.9392  -1.9358  -1.9348  -1.9312  -1.9287
    -1.9264  -1.9255  -1.9143  -1.9126  -1.8964  -1.8950  -1.8891  -1.8863
    -1.8847  -1.8782  -1.8608  -1.8603  -1.8498  -1.8479  -1.8416  -1.8374
    -1.8038  -1.7713  -1.7706  -1.7349  -1.7184  -1.7172  -1.7059  -1.7033
    -1.6843  -1.6782  -1.6690  -1.6678  -1.6677  -1.6663  -1.6616  -1.6467
    -1.6304  -1.6301  -1.6292  -1.5855  -1.5834  -1.5445  -1.5428  -1.4968
    -1.4964  -1.4843  -1.4619  -1.4580  -1.4545  -1.4377  -1.4356  -1.4202
    -1.4192  -1.4148  -1.4146  -1.4137  -1.4132  -1.4058  -1.4046  -1.3881
    -1.3873  -1.3749  -1.3611  -1.3431  -1.3424  -1.3164  -1.3161  -1.3144
    -1.3131  -1.3093  -1.3016  -1.2834  -1.2825  -1.2696  -1.2638  -1.2495
    -1.2466  -1.2328  -1.2319  -1.2020  -1.2015  -1.1937  -1.1892  -1.1571
    -1.1554  -1.1490  -1.1467  -1.1416  -1.1393  -1.1191  -1.1186  -1.1072
    -1.0999  -1.0998  -1.0878  -1.0873  -1.0865  -1.0804  -1.0724  -1.0603
    -1.0577  -1.0522  -1.0521  -1.0418  -1.0351  -1.0317  -1.0297  -0.9898
    -0.9867  -0.9849  -0.9803  -0.9797  -0.9773  -0.9411  -0.9242  -0.9233
    -0.9227  -0.9213  -0.9175  -0.9129  -0.9118  -0.8979  -0.8927  -0.8627
    -0.8606  -0.8540  -0.8531  -0.8312  -0.8310  -0.8213  -0.7921  -0.7843
    -0.7572  -0.7566  -0.7284  -0.7281  -0.7253  -0.7243  -0.7230  -0.7186
    -0.7143  -0.7142  -0.7094  -0.7068  -0.6776  -0.6772  -0.6609  -0.6570
    -0.6546  -0.6537  -0.6512  -0.6340  -0.6333  -0.3581  -0.3474  -0.2942
    -0.2765  -0.2509  -0.0875  -0.0264  -0.0238   0.0121   0.2920   0.2993
     0.6190   0.6316   0.7215   0.7251   0.7615   0.7693   0.9053   0.9195
     1.0311   1.0338   1.1225   1.7177   1.7372   1.7373   1.7768   1.7812
     1.8156   1.8357   1.9038   1.9156   2.1118   2.1179   2.3444   2.4235
     2.4347   2.4481   2.8164   2.8293   2.8984   2.9006   2.9062   2.9110
     3.0574   3.0582   3.0789   3.1956   3.2067   3.4308   3.4388   3.5681
     3.5923   3.5973   3.8628   3.8695   3.9689   3.9755   3.9985   4.0007
     4.0465   4.1838   4.1905   4.4223   4.4227   4.4890   4.5108   4.6201
     4.6334   4.6489   4.6548   4.6868   4.8648   5.3916   5.4116   5.4363
     5.5539   5.5626   5.6113   5.6887   5.7438   5.7451   5.7547   5.8561
     5.8568   5.9145   5.9191   5.9489   5.9931   6.0449   6.0839   6.1674
     6.1794   6.2070   6.2194   6.2391   6.2520   6.2547   6.2674   6.2742

          k = 0.2500 0.2500-0.2500 (167588 PWs)   bands (ev):

   -20.1127  -7.9399  -6.7072  -6.1787  -6.1787  -5.7485  -5.3480  -5.2467
    -5.2465  -5.0524  -5.0498  -4.9603  -4.9337  -4.8550  -4.8348  -4.7577
    -4.6887  -4.6725  -4.6546  -4.6298  -4.5664  -4.4646  -4.4517  -4.4515
    -4.4442  -4.4440  -4.3884  -4.3849  -4.3771  -4.3751  -4.3384  -4.3280
    -4.3176  -4.2845  -4.2842  -4.2498  -4.2494  -4.1988  -4.1940  -4.1857
    -4.1803  -4.1791  -4.1672  -4.1662  -4.1246  -4.1077  -4.1074  -4.1012
    -4.0986  -4.0674  -4.0201  -4.0041  -4.0028  -4.0004  -3.9929  -3.9865
    -3.9862  -3.9856  -3.9834  -3.9223  -3.9100  -3.8716  -3.8704  -3.8573
    -3.8326  -3.8292  -3.8098  -3.8091  -3.8059  -3.8052  -3.7990  -3.7532
    -3.7525  -3.7406  -3.7391  -3.6358  -3.6332  -3.6293  -3.6201  -3.5908
    -3.5850  -3.5680  -3.5383  -3.5369  -3.5096  -3.5075  -3.4878  -3.4858
    -3.4746  -3.4736  -3.4188  -3.4173  -3.4028  -3.3843  -3.3746  -3.3716
    -3.3713  -3.3685  -3.3438  -3.3408  -3.3076  -3.3050  -3.2862  -3.2823
    -3.2534  -3.2499  -3.2328  -3.2069  -3.2052  -3.1681  -3.1680  -3.1310
    -3.1241  -3.1237  -3.1107  -3.1069  -3.1046  -3.1022  -3.0687  -3.0560
    -3.0159  -3.0154  -3.0068  -2.9980  -2.9971  -2.9959  -2.9721  -2.9716
    -2.9508  -2.9500  -2.9497  -2.9233  -2.9216  -2.9148  -2.9140  -2.9103
    -2.8767  -2.8723  -2.8369  -2.8368  -2.8350  -2.8336  -2.8317  -2.7526
    -2.7429  -2.7394  -2.7382  -2.7378  -2.7366  -2.7334  -2.7331  -2.7316
    -2.7315  -2.7216  -2.7139  -2.6982  -2.6968  -2.6940  -2.6923  -2.6783
    -2.6782  -2.6368  -2.6359  -2.6355  -2.6320  -2.6276  -2.6133  -2.6120
    -2.6061  -2.6037  -2.6010  -2.5476  -2.5421  -2.5387  -2.5356  -2.5353
    -2.5310  -2.5014  -2.4453  -2.4442  -2.4432  -2.4407  -2.4338  -2.4290
    -2.4234  -2.4135  -2.4122  -2.3760  -2.3726  -2.3718  -2.3669  -2.3663
    -2.3623  -2.3265  -2.3259  -2.3165  -2.3155  -2.3143  -2.3127  -2.2700
    -2.2571  -2.2454  -2.2182  -2.1960  -2.1933  -2.1777  -2.1760  -2.1657
    -2.1552  -2.1207  -2.1177  -2.0984  -2.0795  -2.0686  -2.0676  -2.0619
    -2.0445  -2.0405  -2.0339  -2.0196  -1.9785  -1.9760  -1.9641  -1.9630
    -1.9605  -1.9524  -1.9464  -1.9392  -1.9358  -1.9348  -1.9313  -1.9287
    -1.9264  -1.9255  -1.9143  -1.9126  -1.8964  -1.8950  -1.8891  -1.8863
    -1.8847  -1.8782  -1.8608  -1.8603  -1.8498  -1.8479  -1.8416  -1.8374
    -1.8038  -1.7713  -1.7706  -1.7349  -1.7184  -1.7172  -1.7059  -1.7033
    -1.6842  -1.6782  -1.6690  -1.6678  -1.6677  -1.6663  -1.6616  -1.6467
    -1.6304  -1.6301  -1.6292  -1.5855  -1.5834  -1.5445  -1.5428  -1.4968
    -1.4964  -1.4843  -1.4619  -1.4580  -1.4545  -1.4377  -1.4356  -1.4202
    -1.4192  -1.4148  -1.4146  -1.4137  -1.4132  -1.4058  -1.4046  -1.3881
    -1.3873  -1.3749  -1.3611  -1.3431  -1.3424  -1.3164  -1.3161  -1.3144
    -1.3131  -1.3093  -1.3016  -1.2834  -1.2825  -1.2696  -1.2638  -1.2495
    -1.2466  -1.2328  -1.2319  -1.2020  -1.2015  -1.1937  -1.1892  -1.1571
    -1.1554  -1.1490  -1.1467  -1.1416  -1.1393  -1.1191  -1.1186  -1.1072
    -1.0999  -1.0998  -1.0878  -1.0873  -1.0865  -1.0804  -1.0724  -1.0603
    -1.0577  -1.0522  -1.0521  -1.0418  -1.0351  -1.0317  -1.0297  -0.9898
    -0.9867  -0.9849  -0.9803  -0.9797  -0.9773  -0.9411  -0.9242  -0.9233
    -0.9227  -0.9213  -0.9175  -0.9129  -0.9118  -0.8979  -0.8927  -0.8627
    -0.8606  -0.8540  -0.8531  -0.8312  -0.8310  -0.8213  -0.7921  -0.7843
    -0.7572  -0.7566  -0.7284  -0.7281  -0.7253  -0.7243  -0.7230  -0.7186
    -0.7143  -0.7142  -0.7094  -0.7068  -0.6776  -0.6772  -0.6609  -0.6570
    -0.6546  -0.6537  -0.6512  -0.6340  -0.6333  -0.3581  -0.3474  -0.2942
    -0.2765  -0.2509  -0.0875  -0.0264  -0.0238   0.0121   0.2920   0.2993
     0.6190   0.6316   0.7215   0.7251   0.7615   0.7693   0.9053   0.9195
     1.0311   1.0338   1.1225   1.7177   1.7372   1.7373   1.7768   1.7812
     1.8156   1.8357   1.9038   1.9156   2.1118   2.1179   2.3444   2.4235
     2.4347   2.4481   2.8164   2.8293   2.8984   2.9006   2.9062   2.9110
     3.0575   3.0582   3.0789   3.1956   3.2067   3.4308   3.4388   3.5681
     3.5923   3.5973   3.8628   3.8695   3.9691   3.9755   3.9985   4.0007
     4.0465   4.1838   4.1905   4.4223   4.4227   4.4889   4.5108   4.6199
     4.6334   4.6489   4.6547   4.6865   4.8630   5.3892   5.4089   5.4132
     5.5537   5.5619   5.6646   5.6959   5.7437   5.7510   5.7546   5.8556
     5.8568   5.9145   5.9210   5.9575   5.9724   6.0659   6.1022   6.1539
     6.1957   6.2145   6.2385   6.2407   6.2512   6.2558   6.2673   6.2683

          k =-0.2500-0.2500 0.0833 (167653 PWs)   bands (ev):

   -20.1127  -7.9399  -6.7072  -6.1787  -6.1787  -5.7485  -5.3480  -5.2467
    -5.2465  -5.0524  -5.0498  -4.9603  -4.9337  -4.8550  -4.8348  -4.7577
    -4.6887  -4.6725  -4.6546  -4.6298  -4.5664  -4.4646  -4.4517  -4.4515
    -4.4442  -4.4440  -4.3884  -4.3849  -4.3771  -4.3751  -4.3384  -4.3280
    -4.3176  -4.2845  -4.2842  -4.2498  -4.2494  -4.1988  -4.1940  -4.1857
    -4.1803  -4.1791  -4.1672  -4.1662  -4.1246  -4.1077  -4.1074  -4.1012
    -4.0986  -4.0674  -4.0201  -4.0041  -4.0028  -4.0004  -3.9929  -3.9865
    -3.9862  -3.9856  -3.9834  -3.9223  -3.9100  -3.8716  -3.8704  -3.8573
    -3.8326  -3.8292  -3.8098  -3.8091  -3.8059  -3.8052  -3.7990  -3.7532
    -3.7525  -3.7406  -3.7391  -3.6358  -3.6332  -3.6293  -3.6201  -3.5908
    -3.5850  -3.5680  -3.5383  -3.5369  -3.5096  -3.5075  -3.4878  -3.4858
    -3.4746  -3.4736  -3.4188  -3.4173  -3.4028  -3.3843  -3.3746  -3.3716
    -3.3713  -3.3685  -3.3438  -3.3408  -3.3076  -3.3050  -3.2862  -3.2823
    -3.2534  -3.2499  -3.2328  -3.2069  -3.2052  -3.1681  -3.1680  -3.1310
    -3.1241  -3.1237  -3.1107  -3.1069  -3.1046  -3.1022  -3.0687  -3.0559
    -3.0159  -3.0154  -3.0068  -2.9980  -2.9971  -2.9959  -2.9721  -2.9715
    -2.9508  -2.9500  -2.9497  -2.9233  -2.9216  -2.9149  -2.9140  -2.9103
    -2.8767  -2.8723  -2.8369  -2.8368  -2.8350  -2.8336  -2.8317  -2.7526
    -2.7429  -2.7395  -2.7382  -2.7378  -2.7366  -2.7334  -2.7331  -2.7316
    -2.7315  -2.7216  -2.7138  -2.6982  -2.6968  -2.6940  -2.6923  -2.6784
    -2.6782  -2.6368  -2.6359  -2.6355  -2.6320  -2.6276  -2.6133  -2.6120
    -2.6061  -2.6037  -2.6010  -2.5476  -2.5421  -2.5387  -2.5356  -2.5353
    -2.5310  -2.5014  -2.4453  -2.4442  -2.4432  -2.4407  -2.4338  -2.4290
    -2.4234  -2.4135  -2.4122  -2.3760  -2.3726  -2.3718  -2.3669  -2.3663
    -2.3624  -2.3265  -2.3259  -2.3165  -2.3155  -2.3143  -2.3127  -2.2700
    -2.2571  -2.2454  -2.2182  -2.1960  -2.1933  -2.1777  -2.1760  -2.1657
    -2.1552  -2.1207  -2.1177  -2.0984  -2.0795  -2.0686  -2.0676  -2.0619
    -2.0445  -2.0405  -2.0339  -2.0196  -1.9785  -1.9760  -1.9641  -1.9630
    -1.9605  -1.9524  -1.9464  -1.9392  -1.9358  -1.9348  -1.9312  -1.9287
    -1.9264  -1.9255  -1.9143  -1.9126  -1.8964  -1.8950  -1.8891  -1.8863
    -1.8847  -1.8782  -1.8608  -1.8603  -1.8498  -1.8479  -1.8416  -1.8374
    -1.8038  -1.7713  -1.7706  -1.7349  -1.7184  -1.7172  -1.7059  -1.7033
    -1.6843  -1.6782  -1.6690  -1.6678  -1.6677  -1.6663  -1.6616  -1.6467
    -1.6304  -1.6301  -1.6292  -1.5855  -1.5834  -1.5445  -1.5428  -1.4968
    -1.4964  -1.4843  -1.4619  -1.4580  -1.4545  -1.4377  -1.4356  -1.4202
    -1.4192  -1.4148  -1.4146  -1.4137  -1.4132  -1.4058  -1.4046  -1.3881
    -1.3873  -1.3749  -1.3611  -1.3431  -1.3424  -1.3164  -1.3161  -1.3144
    -1.3131  -1.3093  -1.3016  -1.2834  -1.2825  -1.2696  -1.2638  -1.2495
    -1.2466  -1.2328  -1.2319  -1.2020  -1.2015  -1.1937  -1.1892  -1.1571
    -1.1554  -1.1490  -1.1467  -1.1416  -1.1393  -1.1191  -1.1186  -1.1072
    -1.0999  -1.0998  -1.0878  -1.0873  -1.0865  -1.0804  -1.0724  -1.0603
    -1.0577  -1.0522  -1.0521  -1.0418  -1.0351  -1.0317  -1.0297  -0.9898
    -0.9867  -0.9849  -0.9803  -0.9797  -0.9773  -0.9411  -0.9242  -0.9233
    -0.9227  -0.9213  -0.9175  -0.9129  -0.9118  -0.8979  -0.8927  -0.8627
    -0.8606  -0.8540  -0.8531  -0.8312  -0.8310  -0.8213  -0.7921  -0.7843
    -0.7572  -0.7566  -0.7284  -0.7281  -0.7253  -0.7243  -0.7230  -0.7186
    -0.7143  -0.7142  -0.7094  -0.7068  -0.6776  -0.6772  -0.6609  -0.6570
    -0.6546  -0.6537  -0.6512  -0.6340  -0.6333  -0.3581  -0.3474  -0.2942
    -0.2765  -0.2509  -0.0875  -0.0264  -0.0238   0.0121   0.2920   0.2993
     0.6190   0.6316   0.7215   0.7251   0.7615   0.7693   0.9053   0.9195
     1.0311   1.0338   1.1225   1.7177   1.7372   1.7373   1.7768   1.7812
     1.8156   1.8357   1.9038   1.9156   2.1118   2.1179   2.3444   2.4235
     2.4347   2.4481   2.8164   2.8293   2.8984   2.9006   2.9062   2.9110
     3.0574   3.0582   3.0789   3.1956   3.2067   3.4308   3.4388   3.5681
     3.5923   3.5973   3.8628   3.8695   3.9690   3.9755   3.9985   4.0007
     4.0465   4.1838   4.1905   4.4223   4.4227   4.4890   4.5108   4.6201
     4.6334   4.6489   4.6548   4.6868   4.8648   5.3916   5.4116   5.4361
     5.5539   5.5627   5.6118   5.6887   5.7438   5.7449   5.7547   5.8561
     5.8568   5.9145   5.9190   5.9488   5.9930   6.0438   6.0840   6.1675
     6.1797   6.2075   6.2197   6.2391   6.2520   6.2547   6.2674   6.2691

          k =-0.2500 0.2500-0.0833 (167653 PWs)   bands (ev):

   -20.1127  -7.9399  -6.7072  -6.1787  -6.1782  -5.7493  -5.3485  -5.2483
    -5.2463  -5.0502  -5.0490  -4.9567  -4.9332  -4.8533  -4.8421  -4.7626
    -4.6809  -4.6687  -4.6356  -4.6295  -4.5953  -4.4614  -4.4521  -4.4513
    -4.4504  -4.4440  -4.3885  -4.3877  -4.3766  -4.3727  -4.3391  -4.3274
    -4.3131  -4.2842  -4.2832  -4.2510  -4.2478  -4.1987  -4.1960  -4.1857
    -4.1815  -4.1784  -4.1671  -4.1657  -4.1209  -4.1078  -4.1070  -4.1011
    -4.1000  -4.0636  -4.0138  -4.0040  -4.0028  -4.0009  -3.9955  -3.9917
    -3.9859  -3.9858  -3.9826  -3.9222  -3.9166  -3.8712  -3.8659  -3.8551
    -3.8325  -3.8300  -3.8133  -3.8096  -3.8091  -3.8031  -3.8002  -3.7528
    -3.7515  -3.7403  -3.7386  -3.6354  -3.6324  -3.6292  -3.6245  -3.5902
    -3.5849  -3.5681  -3.5383  -3.5372  -3.5093  -3.5071  -3.4885  -3.4876
    -3.4743  -3.4720  -3.4188  -3.4183  -3.3959  -3.3848  -3.3719  -3.3716
    -3.3709  -3.3683  -3.3442  -3.3436  -3.3065  -3.3043  -3.2859  -3.2853
    -3.2520  -3.2517  -3.2333  -3.2053  -3.2027  -3.1679  -3.1673  -3.1328
    -3.1242  -3.1232  -3.1108  -3.1106  -3.1046  -3.1039  -3.0683  -3.0563
    -3.0158  -3.0149  -3.0069  -2.9981  -2.9971  -2.9958  -2.9723  -2.9713
    -2.9506  -2.9503  -2.9498  -2.9227  -2.9220  -2.9153  -2.9122  -2.9114
    -2.8757  -2.8727  -2.8371  -2.8368  -2.8342  -2.8332  -2.8327  -2.7525
    -2.7433  -2.7393  -2.7388  -2.7378  -2.7373  -2.7330  -2.7318  -2.7315
    -2.7300  -2.7216  -2.7138  -2.7000  -2.6952  -2.6939  -2.6895  -2.6795
    -2.6703  -2.6375  -2.6359  -2.6356  -2.6323  -2.6319  -2.6129  -2.6120
    -2.6043  -2.6032  -2.6010  -2.5464  -2.5429  -2.5376  -2.5365  -2.5328
    -2.5262  -2.5064  -2.4444  -2.4438  -2.4429  -2.4403  -2.4291  -2.4278
    -2.4236  -2.4121  -2.4119  -2.3855  -2.3759  -2.3682  -2.3668  -2.3663
    -2.3650  -2.3278  -2.3261  -2.3170  -2.3152  -2.3144  -2.3121  -2.2882
    -2.2683  -2.2541  -2.2048  -2.1963  -2.1919  -2.1798  -2.1723  -2.1721
    -2.1518  -2.1235  -2.1046  -2.0985  -2.0696  -2.0686  -2.0676  -2.0569
    -2.0452  -2.0420  -2.0354  -2.0190  -1.9798  -1.9771  -1.9646  -1.9642
    -1.9571  -1.9526  -1.9480  -1.9391  -1.9368  -1.9339  -1.9318  -1.9287
    -1.9268  -1.9247  -1.9148  -1.9094  -1.8969  -1.8950  -1.8920  -1.8848
    -1.8844  -1.8836  -1.8614  -1.8571  -1.8503  -1.8467  -1.8439  -1.8380
    -1.8040  -1.7714  -1.7711  -1.7350  -1.7186  -1.7168  -1.7085  -1.7023
    -1.6852  -1.6730  -1.6703  -1.6677  -1.6669  -1.6653  -1.6626  -1.6451
    -1.6306  -1.6300  -1.6299  -1.5855  -1.5849  -1.5456  -1.5417  -1.4983
    -1.4937  -1.4837  -1.4622  -1.4582  -1.4542  -1.4402  -1.4355  -1.4204
    -1.4188  -1.4155  -1.4151  -1.4141  -1.4127  -1.4089  -1.4057  -1.3897
    -1.3877  -1.3747  -1.3614  -1.3431  -1.3391  -1.3166  -1.3164  -1.3136
    -1.3132  -1.3087  -1.2997  -1.2874  -1.2782  -1.2717  -1.2619  -1.2470
    -1.2467  -1.2334  -1.2300  -1.2023  -1.2017  -1.1949  -1.1892  -1.1593
    -1.1566  -1.1496  -1.1487  -1.1420  -1.1350  -1.1190  -1.1187  -1.1075
    -1.1004  -1.0992  -1.0879  -1.0868  -1.0867  -1.0785  -1.0722  -1.0619
    -1.0573  -1.0524  -1.0521  -1.0400  -1.0379  -1.0300  -1.0252  -0.9885
    -0.9875  -0.9851  -0.9807  -0.9804  -0.9777  -0.9412  -0.9251  -0.9238
    -0.9223  -0.9222  -0.9204  -0.9130  -0.9014  -0.9002  -0.8952  -0.8622
    -0.8586  -0.8538  -0.8531  -0.8313  -0.8310  -0.8214  -0.7920  -0.7842
    -0.7572  -0.7562  -0.7283  -0.7281  -0.7255  -0.7242  -0.7232  -0.7185
    -0.7141  -0.7130  -0.7099  -0.7097  -0.6780  -0.6768  -0.6623  -0.6566
    -0.6540  -0.6537  -0.6534  -0.6333  -0.6315  -0.3584  -0.3473  -0.2964
    -0.2750  -0.2507  -0.0897  -0.0265  -0.0247   0.0137   0.2911   0.3005
     0.6182   0.6341   0.7209   0.7257   0.7608   0.7691   0.9031   0.9148
     1.0311   1.0340   1.1234   1.7182   1.7360   1.7395   1.7756   1.7809
     1.8127   1.8422   1.9033   1.9155   2.1112   2.1187   2.3471   2.4223
     2.4406   2.4466   2.8141   2.8328   2.8981   2.9016   2.9061   2.9109
     3.0569   3.0586   3.0787   3.1992   3.2002   3.4317   3.4320   3.5677
     3.5923   3.6000   3.8641   3.8663   3.9666   3.9942   3.9985   4.0028
     4.0352   4.1828   4.1883   4.4185   4.4239   4.5032   4.5047   4.5745
     4.6350   4.6355   4.6482   4.6992   4.9155   5.3671   5.4236   5.5147
     5.5419   5.5589   5.5743   5.6359   5.7436   5.7464   5.7550   5.8527
     5.8654   5.9115   5.9162   5.9602   6.0129   6.0244   6.1192   6.1325
     6.1947   6.2222   6.2373   6.2398   6.2458   6.2486   6.2663   6.2674

          k = 0.2500-0.2500-0.0833 (167653 PWs)   bands (ev):

   -20.1127  -7.9399  -6.7072  -6.1787  -6.1782  -5.7493  -5.3485  -5.2483
    -5.2463  -5.0502  -5.0490  -4.9567  -4.9332  -4.8533  -4.8421  -4.7626
    -4.6809  -4.6687  -4.6356  -4.6295  -4.5953  -4.4614  -4.4521  -4.4513
    -4.4504  -4.4440  -4.3885  -4.3877  -4.3766  -4.3727  -4.3391  -4.3274
    -4.3131  -4.2842  -4.2832  -4.2510  -4.2478  -4.1987  -4.1960  -4.1857
    -4.1815  -4.1784  -4.1671  -4.1657  -4.1209  -4.1078  -4.1070  -4.1011
    -4.1000  -4.0636  -4.0138  -4.0040  -4.0028  -4.0009  -3.9955  -3.9917
    -3.9859  -3.9858  -3.9826  -3.9222  -3.9166  -3.8712  -3.8659  -3.8551
    -3.8325  -3.8300  -3.8133  -3.8096  -3.8091  -3.8031  -3.8002  -3.7528
    -3.7515  -3.7403  -3.7386  -3.6354  -3.6324  -3.6292  -3.6245  -3.5902
    -3.5849  -3.5681  -3.5383  -3.5372  -3.5093  -3.5071  -3.4885  -3.4876
    -3.4743  -3.4720  -3.4188  -3.4183  -3.3959  -3.3848  -3.3719  -3.3716
    -3.3709  -3.3683  -3.3442  -3.3436  -3.3065  -3.3043  -3.2859  -3.2853
    -3.2520  -3.2517  -3.2333  -3.2053  -3.2027  -3.1679  -3.1673  -3.1328
    -3.1242  -3.1232  -3.1108  -3.1106  -3.1046  -3.1039  -3.0683  -3.0563
    -3.0158  -3.0149  -3.0069  -2.9981  -2.9971  -2.9958  -2.9723  -2.9713
    -2.9506  -2.9503  -2.9498  -2.9227  -2.9220  -2.9153  -2.9122  -2.9114
    -2.8757  -2.8727  -2.8371  -2.8368  -2.8342  -2.8332  -2.8327  -2.7525
    -2.7433  -2.7393  -2.7388  -2.7378  -2.7373  -2.7330  -2.7318  -2.7315
    -2.7300  -2.7216  -2.7138  -2.7000  -2.6952  -2.6939  -2.6895  -2.6795
    -2.6703  -2.6375  -2.6359  -2.6356  -2.6323  -2.6319  -2.6129  -2.6120
    -2.6043  -2.6032  -2.6010  -2.5464  -2.5429  -2.5376  -2.5365  -2.5328
    -2.5262  -2.5064  -2.4444  -2.4438  -2.4429  -2.4403  -2.4291  -2.4278
    -2.4236  -2.4121  -2.4119  -2.3855  -2.3759  -2.3682  -2.3668  -2.3663
    -2.3650  -2.3278  -2.3261  -2.3170  -2.3152  -2.3144  -2.3121  -2.2882
    -2.2683  -2.2541  -2.2048  -2.1963  -2.1919  -2.1798  -2.1723  -2.1721
    -2.1518  -2.1235  -2.1046  -2.0985  -2.0696  -2.0686  -2.0676  -2.0569
    -2.0452  -2.0420  -2.0354  -2.0190  -1.9798  -1.9771  -1.9646  -1.9642
    -1.9571  -1.9526  -1.9480  -1.9391  -1.9368  -1.9339  -1.9318  -1.9287
    -1.9268  -1.9247  -1.9148  -1.9094  -1.8969  -1.8950  -1.8920  -1.8848
    -1.8844  -1.8836  -1.8614  -1.8571  -1.8503  -1.8467  -1.8439  -1.8380
    -1.8040  -1.7714  -1.7711  -1.7350  -1.7186  -1.7168  -1.7085  -1.7023
    -1.6852  -1.6730  -1.6703  -1.6677  -1.6669  -1.6653  -1.6626  -1.6451
    -1.6306  -1.6300  -1.6299  -1.5855  -1.5849  -1.5456  -1.5417  -1.4983
    -1.4937  -1.4837  -1.4622  -1.4582  -1.4542  -1.4402  -1.4355  -1.4204
    -1.4188  -1.4155  -1.4151  -1.4141  -1.4127  -1.4089  -1.4057  -1.3897
    -1.3877  -1.3747  -1.3614  -1.3431  -1.3391  -1.3166  -1.3164  -1.3136
    -1.3132  -1.3087  -1.2997  -1.2874  -1.2782  -1.2717  -1.2619  -1.2470
    -1.2467  -1.2334  -1.2300  -1.2023  -1.2017  -1.1949  -1.1892  -1.1593
    -1.1566  -1.1496  -1.1487  -1.1420  -1.1350  -1.1190  -1.1187  -1.1075
    -1.1004  -1.0992  -1.0879  -1.0868  -1.0867  -1.0785  -1.0722  -1.0619
    -1.0573  -1.0524  -1.0521  -1.0400  -1.0379  -1.0300  -1.0252  -0.9885
    -0.9875  -0.9851  -0.9807  -0.9804  -0.9777  -0.9412  -0.9251  -0.9238
    -0.9223  -0.9222  -0.9204  -0.9130  -0.9014  -0.9002  -0.8952  -0.8622
    -0.8586  -0.8538  -0.8531  -0.8313  -0.8310  -0.8214  -0.7920  -0.7842
    -0.7572  -0.7562  -0.7283  -0.7281  -0.7255  -0.7242  -0.7232  -0.7185
    -0.7141  -0.7130  -0.7099  -0.7097  -0.6780  -0.6768  -0.6623  -0.6566
    -0.6540  -0.6537  -0.6534  -0.6333  -0.6315  -0.3584  -0.3473  -0.2964
    -0.2750  -0.2507  -0.0897  -0.0265  -0.0247   0.0137   0.2911   0.3005
     0.6182   0.6341   0.7209   0.7257   0.7608   0.7691   0.9031   0.9148
     1.0311   1.0340   1.1234   1.7182   1.7360   1.7395   1.7756   1.7809
     1.8127   1.8422   1.9033   1.9155   2.1112   2.1187   2.3471   2.4223
     2.4406   2.4466   2.8141   2.8328   2.8981   2.9016   2.9061   2.9109
     3.0569   3.0586   3.0787   3.1992   3.2002   3.4317   3.4320   3.5677
     3.5923   3.6000   3.8641   3.8663   3.9666   3.9942   3.9985   4.0028
     4.0352   4.1828   4.1883   4.4185   4.4239   4.5032   4.5047   4.5745
     4.6350   4.6355   4.6482   4.6992   4.9155   5.3671   5.4236   5.5145
     5.5421   5.5590   5.5744   5.6359   5.7436   5.7464   5.7550   5.8527
     5.8653   5.9115   5.9162   5.9602   6.0128   6.0244   6.1189   6.1328
     6.1947   6.2223   6.2373   6.2396   6.2460   6.2486   6.2663   6.2674

          k =-0.2500 0.2500 0.2500 (167588 PWs)   bands (ev):

   -20.1127  -7.9399  -6.7072  -6.1787  -6.1782  -5.7493  -5.3485  -5.2483
    -5.2463  -5.0502  -5.0490  -4.9567  -4.9332  -4.8533  -4.8421  -4.7626
    -4.6809  -4.6687  -4.6356  -4.6295  -4.5953  -4.4614  -4.4521  -4.4513
    -4.4504  -4.4440  -4.3885  -4.3877  -4.3766  -4.3727  -4.3391  -4.3274
    -4.3131  -4.2842  -4.2832  -4.2510  -4.2478  -4.1987  -4.1960  -4.1857
    -4.1815  -4.1784  -4.1671  -4.1657  -4.1209  -4.1078  -4.1070  -4.1011
    -4.1000  -4.0636  -4.0138  -4.0040  -4.0028  -4.0009  -3.9955  -3.9917
    -3.9859  -3.9858  -3.9826  -3.9222  -3.9166  -3.8712  -3.8659  -3.8551
    -3.8325  -3.8300  -3.8133  -3.8096  -3.8091  -3.8031  -3.8002  -3.7528
    -3.7515  -3.7403  -3.7386  -3.6354  -3.6324  -3.6292  -3.6245  -3.5902
    -3.5849  -3.5681  -3.5383  -3.5372  -3.5093  -3.5071  -3.4885  -3.4876
    -3.4743  -3.4720  -3.4188  -3.4183  -3.3959  -3.3848  -3.3719  -3.3716
    -3.3709  -3.3683  -3.3442  -3.3436  -3.3065  -3.3043  -3.2859  -3.2853
    -3.2520  -3.2517  -3.2333  -3.2053  -3.2027  -3.1679  -3.1673  -3.1328
    -3.1242  -3.1232  -3.1108  -3.1106  -3.1046  -3.1039  -3.0683  -3.0563
    -3.0158  -3.0149  -3.0069  -2.9981  -2.9971  -2.9958  -2.9723  -2.9713
    -2.9506  -2.9503  -2.9498  -2.9226  -2.9220  -2.9153  -2.9122  -2.9114
    -2.8757  -2.8727  -2.8371  -2.8369  -2.8342  -2.8332  -2.8327  -2.7526
    -2.7433  -2.7393  -2.7387  -2.7378  -2.7373  -2.7330  -2.7318  -2.7315
    -2.7300  -2.7216  -2.7138  -2.7000  -2.6952  -2.6939  -2.6895  -2.6795
    -2.6703  -2.6375  -2.6359  -2.6356  -2.6323  -2.6319  -2.6129  -2.6120
    -2.6043  -2.6032  -2.6010  -2.5464  -2.5429  -2.5376  -2.5365  -2.5328
    -2.5261  -2.5064  -2.4444  -2.4438  -2.4429  -2.4403  -2.4291  -2.4278
    -2.4236  -2.4121  -2.4119  -2.3855  -2.3758  -2.3682  -2.3668  -2.3663
    -2.3650  -2.3278  -2.3261  -2.3170  -2.3152  -2.3144  -2.3121  -2.2882
    -2.2683  -2.2541  -2.2048  -2.1963  -2.1918  -2.1798  -2.1723  -2.1721
    -2.1518  -2.1235  -2.1046  -2.0985  -2.0696  -2.0686  -2.0676  -2.0569
    -2.0452  -2.0420  -2.0354  -2.0190  -1.9798  -1.9771  -1.9646  -1.9642
    -1.9571  -1.9526  -1.9480  -1.9391  -1.9368  -1.9339  -1.9318  -1.9287
    -1.9269  -1.9247  -1.9148  -1.9094  -1.8969  -1.8950  -1.8920  -1.8848
    -1.8844  -1.8836  -1.8614  -1.8571  -1.8503  -1.8467  -1.8439  -1.8380
    -1.8041  -1.7714  -1.7711  -1.7350  -1.7185  -1.7168  -1.7085  -1.7023
    -1.6852  -1.6730  -1.6703  -1.6677  -1.6669  -1.6653  -1.6626  -1.6451
    -1.6306  -1.6300  -1.6299  -1.5854  -1.5849  -1.5457  -1.5417  -1.4983
    -1.4937  -1.4837  -1.4622  -1.4582  -1.4542  -1.4402  -1.4355  -1.4204
    -1.4188  -1.4155  -1.4151  -1.4141  -1.4127  -1.4089  -1.4057  -1.3897
    -1.3877  -1.3747  -1.3614  -1.3431  -1.3391  -1.3166  -1.3164  -1.3136
    -1.3132  -1.3087  -1.2997  -1.2874  -1.2782  -1.2717  -1.2619  -1.2470
    -1.2467  -1.2334  -1.2300  -1.2023  -1.2017  -1.1949  -1.1892  -1.1593
    -1.1566  -1.1496  -1.1487  -1.1420  -1.1350  -1.1190  -1.1186  -1.1075
    -1.1004  -1.0992  -1.0879  -1.0868  -1.0867  -1.0785  -1.0722  -1.0619
    -1.0573  -1.0524  -1.0520  -1.0400  -1.0379  -1.0300  -1.0252  -0.9886
    -0.9875  -0.9851  -0.9807  -0.9804  -0.9777  -0.9412  -0.9251  -0.9238
    -0.9223  -0.9222  -0.9204  -0.9130  -0.9014  -0.9002  -0.8952  -0.8622
    -0.8586  -0.8538  -0.8531  -0.8313  -0.8310  -0.8214  -0.7920  -0.7842
    -0.7572  -0.7562  -0.7283  -0.7281  -0.7255  -0.7242  -0.7232  -0.7185
    -0.7141  -0.7130  -0.7099  -0.7097  -0.6780  -0.6768  -0.6623  -0.6566
    -0.6540  -0.6537  -0.6533  -0.6333  -0.6315  -0.3584  -0.3473  -0.2964
    -0.2750  -0.2507  -0.0897  -0.0265  -0.0247   0.0137   0.2911   0.3005
     0.6182   0.6341   0.7209   0.7257   0.7608   0.7691   0.9031   0.9148
     1.0311   1.0341   1.1234   1.7182   1.7360   1.7395   1.7756   1.7809
     1.8127   1.8422   1.9033   1.9155   2.1112   2.1187   2.3471   2.4223
     2.4406   2.4466   2.8141   2.8328   2.8981   2.9016   2.9061   2.9109
     3.0569   3.0586   3.0787   3.1992   3.2002   3.4317   3.4321   3.5677
     3.5923   3.6000   3.8641   3.8663   3.9666   3.9943   3.9985   4.0028
     4.0353   4.1828   4.1884   4.4185   4.4239   4.5031   4.5047   4.5740
     4.6350   4.6355   4.6482   4.6992   4.9133   5.3666   5.4062   5.5021
     5.5336   5.5588   5.5717   5.7375   5.7436   5.7451   5.7542   5.8521
     5.8665   5.9115   5.9165   5.9602   5.9943   6.0253   6.0819   6.2080
     6.2164   6.2199   6.2250   6.2445   6.2483   6.2554   6.2665   6.2674

     the Fermi energy is     0.9835 ev

!    total energy              =   -7425.28712891 Ry
     Harris-Foulkes estimate   =   -7425.28712893 Ry
     estimated scf accuracy    <          2.5E-09 Ry

     The total energy is the sum of the following terms:

     one-electron contribution =  -48853.07586418 Ry
     hartree contribution      =   24980.55909658 Ry
     xc contribution           =   -3604.23864759 Ry
     ewald contribution        =   20051.47111252 Ry
     smearing contrib. (-TS)   =      -0.00282625 Ry

     convergence has been achieved in  26 iterations

     Writing output data file 4912122.save

     init_run     :    145.72s CPU    151.64s WALL (       1 calls)
     electrons    :   8835.90s CPU   9153.79s WALL (       1 calls)

     Called by init_run:
     wfcinit      :    116.89s CPU    122.09s WALL (       1 calls)
     potinit      :      6.39s CPU      6.71s WALL (       1 calls)

     Called by electrons:
     c_bands      :   7444.73s CPU   7695.71s WALL (      27 calls)
     sum_band     :    989.49s CPU   1043.43s WALL (      27 calls)
     v_of_rho     :     73.98s CPU     82.85s WALL (      27 calls)
     newd         :    338.67s CPU    341.95s WALL (      27 calls)
     mix_rho      :      2.43s CPU      2.82s WALL (      27 calls)
     vdW_energy   :      7.33s CPU      7.80s WALL (      27 calls)
     vdW_ffts     :     32.45s CPU     36.98s WALL (      54 calls)
     vdW_v        :     10.16s CPU     10.91s WALL (      27 calls)

     Called by c_bands:
     init_us_2    :      8.64s CPU      8.90s WALL (     330 calls)
     cegterg      :   7240.74s CPU   7488.85s WALL (     162 calls)

     Called by *egterg:
     h_psi        :   2721.52s CPU   2941.15s WALL (     849 calls)
     s_psi        :    420.35s CPU    421.99s WALL (     849 calls)
     g_psi        :      4.92s CPU      4.94s WALL (     681 calls)
     cdiaghg      :   1693.94s CPU   1698.80s WALL (     837 calls)

     Called by h_psi:
     add_vuspsi   :    421.44s CPU    423.21s WALL (     849 calls)

     General routines
     calbec       :    977.70s CPU    980.50s WALL (    1011 calls)
     fft          :    159.52s CPU    168.32s WALL (    1782 calls)
     ffts         :      1.24s CPU      1.41s WALL (      54 calls)
     fftw         :   1818.97s CPU   2071.23s WALL (  440560 calls)
     interpolate  :      2.90s CPU      3.46s WALL (      54 calls)
     davcio       :      0.00s CPU      0.10s WALL (       6 calls)

     Parallel routines
     fft_scatter  :   1363.47s CPU   1571.24s WALL (  442396 calls)

     PWSCF        :     2h29m CPU        2h35m WALL


   This run was terminated on:   1:27: 2   1Jul2015            

=------------------------------------------------------------------------------=
   JOB DONE.
=------------------------------------------------------------------------------=
