Setting SGE environment for SCC

     Program PWSCF v.5.1.2 starts on 24Aug2015 at 11:24:12 

     This program is part of the open-source Quantum ESPRESSO suite
     for quantum simulation of materials; please cite
         "P. Giannozzi et al., J. Phys.:Condens. Matter 21 395502 (2009);
          URL http://www.quantum-espresso.org", 
     in publications or presentations arising from this work. More details at
     http://www.quantum-espresso.org/quote

     Parallel version (MPI), running on    32 processors
     R & G space division:  proc/nbgrp/npool/nimage =      32
     Reading input from bridge.O1.Au6165.d.2.7.phi.45.psi.90.in
Warning: card &IONS ignored
Warning: card / ignored
Warning: card &CELL ignored
Warning: card / ignored

     Current dimensions of program PWSCF are:
     Max number of different atomic species (ntypx) = 10
     Max number of k-points (npk) =  40000
     Max angular momentum in pseudopotentials (lmaxx) =  3

     IMPORTANT: XC functional enforced from input :
     Exchange-correlation      = VDW-DF ( 1  4  4  0 1 0)
     Any further DFT definition will be discarded
     Please, verify this is what you really want


     Subspace diagonalization in iterative solution of the eigenvalue problem:
     a serial algorithm will be used


     Parallelization info
     --------------------
     sticks:   dense  smooth     PW     G-vecs:    dense   smooth      PW
     Min         578     289     74               118518    41891    5486
     Max         579     290     75               118533    41932    5497
     Sum       18505    9265   2385              3792731  1341081  175711


     Title: 
     bridge.O1.Au6165.d.2.7.phi.45.psi.90                                       


     bravais-lattice index     =            8
     lattice parameter (alat)  =      24.1233  a.u.
     unit-cell volume          =   28076.2361 (a.u.)^3
     number of atoms/cell      =           75
     number of atomic types    =            3
     number of electrons       =       800.00
     number of Kohn-Sham states=          480
     kinetic-energy cutoff     =      50.0000  Ry
     charge density cutoff     =     400.0000  Ry
     convergence threshold     =      1.0E-08
     mixing beta               =       0.7000
     number of iterations used =            8  plain     mixing
     Exchange-correlation      = VDW-DF ( 1  4  4  0 1 0)

     celldm(1)=  24.123277  celldm(2)=   1.000000  celldm(3)=   2.000000
     celldm(4)=   0.000000  celldm(5)=   0.000000  celldm(6)=   0.000000

     crystal axes: (cart. coord. in units of alat)
               a(1) = (   1.000000   0.000000   0.000000 )  
               a(2) = (   0.000000   1.000000   0.000000 )  
               a(3) = (   0.000000   0.000000   2.000000 )  

     reciprocal axes: (cart. coord. in units 2 pi/alat)
               b(1) = (  1.000000  0.000000  0.000000 )  
               b(2) = (  0.000000  1.000000  0.000000 )  
               b(3) = (  0.000000  0.000000  0.500000 )  


     PseudoPot. # 1 for Au read from file:
     /home/scc/andrejb/qe/pseudo/Au.pbe-nd-van.UPF
     MD5 check sum: 458681b50f36d87ef23c61b04bba420a
     Pseudo is Ultrasoft + core correction, Zval = 11.0
     Generated by new atomic code, or converted to UPF format
     Using radial grid of  985 points,  3 beta functions with: 
                l(1) =   1
                l(2) =   2
                l(3) =   2
     Q(r) pseudized with  8 coefficients,  rinner =    1.100   1.100   1.100
                                                       1.100   1.100

     PseudoPot. # 2 for H  read from file:
     /home/scc/andrejb/qe/pseudo/H.pbe-van_ak.UPF
     MD5 check sum: 403db7282739603aa925980fa9b8608d
     Pseudo is Ultrasoft, Zval =  1.0
     Generated by new atomic code, or converted to UPF format
     Using radial grid of  615 points,  1 beta functions with: 
                l(1) =   0
     Q(r) pseudized with  8 coefficients,  rinner =    0.800

     PseudoPot. # 3 for O  read from file:
     /home/scc/andrejb/qe/pseudo/O.pbe-van_ak.UPF
     MD5 check sum: 4b8c549914a63cae506c6ff22b5af4fe
     Pseudo is Ultrasoft, Zval =  6.0
     Generated by new atomic code, or converted to UPF format
     Using radial grid of  737 points,  4 beta functions with: 
                l(1) =   0
                l(2) =   0
                l(3) =   1
                l(4) =   1
     Q(r) pseudized with  8 coefficients,  rinner =    0.800   0.800   0.800


     vdW kernel table read from file vdW_kernel_table
     MD5 check sum: 48e77a2e26edf626eeb0eaa751ad5cac

     atomic species   valence    mass     pseudopotential
        Au            11.00   196.96657     Au( 1.00)
        H              1.00     1.01000     H ( 1.00)
        O              6.00    16.00000     O ( 1.00)

     No symmetry found



   Cartesian axes

     site n.     atom                  positions (alat units)
         1           O   tau(   1) = (   0.2499161   0.4165269   0.7108263  )
         2           H   tau(   2) = (   0.2443256   0.3710330   0.6498389  )
         3           H   tau(   3) = (   0.2553244   0.3686692   0.7699771  )
         4           Au  tau(   4) = (   0.0000000   0.0000000   0.0000000  )
         5           Au  tau(   5) = (   0.3332217   0.0000000   0.0000000  )
         6           Au  tau(   6) = (   0.6664434   0.0000000   0.0000000  )
         7           Au  tau(   7) = (   0.1666109   0.1666109   0.0000000  )
         8           Au  tau(   8) = (   0.4998326   0.1666109   0.0000000  )
         9           Au  tau(   9) = (   0.8330542   0.1666109   0.0000000  )
        10           Au  tau(  10) = (   0.0000000   0.3332217   0.0000000  )
        11           Au  tau(  11) = (   0.3332217   0.3332217   0.0000000  )
        12           Au  tau(  12) = (   0.6664434   0.3332217   0.0000000  )
        13           Au  tau(  13) = (   0.1666109   0.4998326   0.0000000  )
        14           Au  tau(  14) = (   0.4998326   0.4998326   0.0000000  )
        15           Au  tau(  15) = (   0.8330542   0.4998326   0.0000000  )
        16           Au  tau(  16) = (   0.0000000   0.6664434   0.0000000  )
        17           Au  tau(  17) = (   0.3332217   0.6664434   0.0000000  )
        18           Au  tau(  18) = (   0.6664434   0.6664434   0.0000000  )
        19           Au  tau(  19) = (   0.1666109   0.8330542   0.0000000  )
        20           Au  tau(  20) = (   0.4998326   0.8330542   0.0000000  )
        21           Au  tau(  21) = (   0.8330542   0.8330542   0.0000000  )
        22           Au  tau(  22) = (   0.1666109   0.0000000   0.1666109  )
        23           Au  tau(  23) = (   0.4998326   0.0000000   0.1666109  )
        24           Au  tau(  24) = (   0.8330542   0.0000000   0.1666109  )
        25           Au  tau(  25) = (   0.0000000   0.1666109   0.1666109  )
        26           Au  tau(  26) = (   0.3332217   0.1666109   0.1666109  )
        27           Au  tau(  27) = (   0.6664434   0.1666109   0.1666109  )
        28           Au  tau(  28) = (   0.1666109   0.3332217   0.1666109  )
        29           Au  tau(  29) = (   0.4998326   0.3332217   0.1666109  )
        30           Au  tau(  30) = (   0.8330542   0.3332217   0.1666109  )
        31           Au  tau(  31) = (   0.0000000   0.4998326   0.1666109  )
        32           Au  tau(  32) = (   0.3332217   0.4998326   0.1666109  )
        33           Au  tau(  33) = (   0.6664434   0.4998326   0.1666109  )
        34           Au  tau(  34) = (   0.1666109   0.6664434   0.1666109  )
        35           Au  tau(  35) = (   0.4998326   0.6664434   0.1666109  )
        36           Au  tau(  36) = (   0.8330542   0.6664434   0.1666109  )
        37           Au  tau(  37) = (   0.0000000   0.8330542   0.1666109  )
        38           Au  tau(  38) = (   0.3332217   0.8330542   0.1666109  )
        39           Au  tau(  39) = (   0.6664434   0.8330542   0.1666109  )
        40           Au  tau(  40) = (  -0.0000182  -0.0000182   0.3335478  )
        41           Au  tau(  41) = (   0.3332215  -0.0000181   0.3335473  )
        42           Au  tau(  42) = (   0.6664447  -0.0000183   0.3335481  )
        43           Au  tau(  43) = (  -0.0000181   0.3332215   0.3335473  )
        44           Au  tau(  44) = (   0.3332215   0.3332215   0.3335468  )
        45           Au  tau(  45) = (   0.6664445   0.3332215   0.3335477  )
        46           Au  tau(  46) = (  -0.0000183   0.6664447   0.3335481  )
        47           Au  tau(  47) = (   0.3332215   0.6664445   0.3335477  )
        48           Au  tau(  48) = (   0.6664446   0.6664446   0.3335486  )
        49           Au  tau(  49) = (   0.1666097   0.1666097   0.3335483  )
        50           Au  tau(  50) = (   0.4998320   0.1666098   0.3335477  )
        51           Au  tau(  51) = (   0.8330732   0.1666096   0.3335480  )
        52           Au  tau(  52) = (   0.1666098   0.4998320   0.3335477  )
        53           Au  tau(  53) = (   0.4998322   0.4998322   0.3335470  )
        54           Au  tau(  54) = (   0.8330731   0.4998322   0.3335474  )
        55           Au  tau(  55) = (   0.1666096   0.8330732   0.3335480  )
        56           Au  tau(  56) = (   0.4998322   0.8330731   0.3335474  )
        57           Au  tau(  57) = (   0.8330731   0.8330731   0.3335478  )
        58           Au  tau(  58) = (   0.1666104  -0.0000111   0.4993095  )
        59           Au  tau(  59) = (   0.4998323  -0.0000112   0.4993099  )
        60           Au  tau(  60) = (   0.8330660  -0.0000111   0.4993009  )
        61           Au  tau(  61) = (  -0.0000111   0.1666104   0.4993095  )
        62           Au  tau(  62) = (   0.3332213   0.1666106   0.4993185  )
        63           Au  tau(  63) = (   0.6664437   0.1666106   0.4993187  )
        64           Au  tau(  64) = (   0.1666106   0.3332213   0.4993185  )
        65           Au  tau(  65) = (   0.4998324   0.3332216   0.4993185  )
        66           Au  tau(  66) = (   0.8330658   0.3332215   0.4993102  )
        67           Au  tau(  67) = (  -0.0000112   0.4998323   0.4993099  )
        68           Au  tau(  68) = (   0.3332216   0.4998324   0.4993185  )
        69           Au  tau(  69) = (   0.6664437   0.4998325   0.4993187  )
        70           Au  tau(  70) = (   0.1666106   0.6664437   0.4993187  )
        71           Au  tau(  71) = (   0.4998325   0.6664437   0.4993187  )
        72           Au  tau(  72) = (   0.8330658   0.6664438   0.4993102  )
        73           Au  tau(  73) = (  -0.0000111   0.8330660   0.4993009  )
        74           Au  tau(  74) = (   0.3332215   0.8330658   0.4993102  )
        75           Au  tau(  75) = (   0.6664438   0.8330658   0.4993102  )

     number of k points=     6  Marzari-Vanderbilt smearing, width (Ry)=  0.0200
                       cart. coord. in units 2pi/alat
        k(    1) = (   0.2500000   0.2500000   0.0833333), wk =   0.3333333
        k(    2) = (   0.2500000   0.2500000  -0.2500000), wk =   0.3333333
        k(    3) = (  -0.2500000  -0.2500000   0.0833333), wk =   0.3333333
        k(    4) = (  -0.2500000   0.2500000  -0.0833333), wk =   0.3333333
        k(    5) = (   0.2500000  -0.2500000  -0.0833333), wk =   0.3333333
        k(    6) = (  -0.2500000   0.2500000   0.2500000), wk =   0.3333333

     Dense  grid:  3792731 G-vectors     FFT dimensions: ( 160, 160, 320)

     Smooth grid:  1341081 G-vectors     FFT dimensions: ( 120, 120, 225)

     Largest allocated arrays     est. size (Mb)     dimensions
        Kohn-Sham Wavefunctions        38.58 Mb     (    5267,  480)
        NL pseudopotentials            76.03 Mb     (    5267,  946)
        Each V/rho on FFT grid          3.91 Mb     (  256000)
        Each G-vector array             0.90 Mb     (  118520)
        G-vector shells                 0.08 Mb     (   10286)
     Largest temporary arrays     est. size (Mb)     dimensions
        Auxiliary wavefunctions       154.31 Mb     (    5267, 1920)
        Each subspace H/S matrix       56.25 Mb     (    1920, 1920)
        Each <psi_i|beta_j> matrix      6.93 Mb     (     946,  480)
        Arrays for rho mixing          31.25 Mb     (  256000,    8)

     Initial potential from superposition of free atoms
     Check: negative starting charge=   -1.945132

     starting charge  799.16392, renormalised to  800.00000

     negative rho (up, down):  1.947E+00 0.000E+00


     ************************************************************************
     *
     * You are using vdW-DF for exchange-correlation in this calculation.
     * Please cite the following three references that made this development
     * possible:
     *
     *   M. Dion, H. Rydberg, E. Schroder, D. C. Langreth, and
     *   B. I. Lundqvist, Phys. Rev. Lett. 92, 246401 (2004).
     *
     *   T. Thonhauser, V. R. Cooper, S. Li, A. Puzder, P. Hyldgaard, and
     *   D. C. Langreth, Phys. Rev. B 76, 125112 (2007).
     *
     *   G. Roman-Perez and J. M. Soler, Phys. Rev. Lett. 103, 096102 (2009).
     *
     *
     * If you are using vdW-DF2, please also cite:
     *
     *   K. Lee, E. D. Murray, L. Kong, B. I. Lundqvist, and
     *   D. C. Langreth, Phys. Rev. B 82, 081101(R) (2010).
     *
     *
     * If you are calculating the stress with vdW-DF, please also cite:
     *
     *   R. Sabatini, E. Kucukbenli, B. Kolb, T. Thonhauser, and
     *   S. de Gironcoli, J. Phys.: Condens. Matter 24, 424209 (2012).
     *
     ************************************************************************

     Carrying out vdW-DF run using the following parameters:

     Nqs =      20    Nr_points =    1024   r_max =   100.000
     q_mesh =
               0.00001000     0.04494208     0.09755937     0.15916263
               0.23128650     0.31572767     0.41458969     0.53033537
               0.66584808     0.82450364     1.01025438     1.22772762
               1.48234092     1.78043706     2.12944203     2.53805004
               3.01644009     3.57652955     4.23227104     5.00000000

     Gradients computed in reciprocal space

     ************************************************************************


     Starting wfc are  654 randomized atomic wfcs

     total cpu time spent up to now is      139.1 secs

     Self-consistent Calculation

     iteration #  1     ecut=    50.00 Ry     beta=0.70
     Davidson diagonalization with overlap
     ethr =  1.00E-02,  avg # of iterations =  3.0

     Threshold (ethr) on eigenvalues was too large:
     Diagonalizing with lowered threshold

     Davidson diagonalization with overlap
     ethr =  4.16E-04,  avg # of iterations =  2.0

     negative rho (up, down):  1.947E+00 0.000E+00

     total cpu time spent up to now is      586.4 secs

     total energy              =   -7423.06127470 Ry
     Harris-Foulkes estimate   =   -7426.05431551 Ry
     estimated scf accuracy    <       3.69823011 Ry

     iteration #  2     ecut=    50.00 Ry     beta=0.70
     Davidson diagonalization with overlap
     ethr =  4.62E-04,  avg # of iterations = 11.3

     negative rho (up, down):  1.943E+00 0.000E+00

     total cpu time spent up to now is     1352.5 secs

     total energy              =   -7415.43557588 Ry
     Harris-Foulkes estimate   =   -7432.45888308 Ry
     estimated scf accuracy    <      87.95298980 Ry

     iteration #  3     ecut=    50.00 Ry     beta=0.70
     Davidson diagonalization with overlap
     ethr =  4.62E-04,  avg # of iterations =  6.3

     negative rho (up, down):  1.953E+00 0.000E+00

     total cpu time spent up to now is     1831.2 secs

     total energy              =   -7424.20783089 Ry
     Harris-Foulkes estimate   =   -7425.83679815 Ry
     estimated scf accuracy    <       6.58087606 Ry

     iteration #  4     ecut=    50.00 Ry     beta=0.70
     Davidson diagonalization with overlap
     ethr =  4.62E-04,  avg # of iterations =  5.0

     negative rho (up, down):  1.957E+00 0.000E+00

     total cpu time spent up to now is     2094.0 secs

     total energy              =   -7424.96800654 Ry
     Harris-Foulkes estimate   =   -7425.56244278 Ry
     estimated scf accuracy    <       2.68058401 Ry

     iteration #  5     ecut=    50.00 Ry     beta=0.70
     Davidson diagonalization with overlap
     ethr =  3.35E-04,  avg # of iterations =  6.8

     negative rho (up, down):  1.963E+00 0.000E+00

     total cpu time spent up to now is     2381.4 secs

     total energy              =   -7425.03859143 Ry
     Harris-Foulkes estimate   =   -7425.57289878 Ry
     estimated scf accuracy    <       4.24628032 Ry

     iteration #  6     ecut=    50.00 Ry     beta=0.70
     Davidson diagonalization with overlap
     ethr =  3.35E-04,  avg # of iterations =  5.7

     negative rho (up, down):  1.967E+00 0.000E+00

     total cpu time spent up to now is     2647.2 secs

     total energy              =   -7425.26728062 Ry
     Harris-Foulkes estimate   =   -7425.32367997 Ry
     estimated scf accuracy    <       0.21149239 Ry

     iteration #  7     ecut=    50.00 Ry     beta=0.70
     Davidson diagonalization with overlap
     ethr =  2.64E-05,  avg # of iterations =  5.3

     negative rho (up, down):  1.970E+00 0.000E+00

     total cpu time spent up to now is     2936.6 secs

     total energy              =   -7425.27257875 Ry
     Harris-Foulkes estimate   =   -7425.31568995 Ry
     estimated scf accuracy    <       0.22007148 Ry

     iteration #  8     ecut=    50.00 Ry     beta=0.70
     Davidson diagonalization with overlap
     ethr =  2.64E-05,  avg # of iterations =  3.0

     negative rho (up, down):  1.971E+00 0.000E+00

     total cpu time spent up to now is     3174.0 secs

     total energy              =   -7425.27998228 Ry
     Harris-Foulkes estimate   =   -7425.29925699 Ry
     estimated scf accuracy    <       0.08173536 Ry

     iteration #  9     ecut=    50.00 Ry     beta=0.70
     Davidson diagonalization with overlap
     ethr =  1.02E-05,  avg # of iterations =  8.3

     negative rho (up, down):  1.972E+00 0.000E+00

     total cpu time spent up to now is     3494.4 secs

     total energy              =   -7425.28163904 Ry
     Harris-Foulkes estimate   =   -7425.29144567 Ry
     estimated scf accuracy    <       0.03328967 Ry

     iteration # 10     ecut=    50.00 Ry     beta=0.70
     Davidson diagonalization with overlap
     ethr =  4.16E-06,  avg # of iterations =  5.7

     negative rho (up, down):  1.973E+00 0.000E+00

     total cpu time spent up to now is     3769.2 secs

     total energy              =   -7425.28329521 Ry
     Harris-Foulkes estimate   =   -7425.28616570 Ry
     estimated scf accuracy    <       0.00805406 Ry

     iteration # 11     ecut=    50.00 Ry     beta=0.70
     Davidson diagonalization with overlap
     ethr =  1.01E-06,  avg # of iterations =  7.7

     negative rho (up, down):  1.974E+00 0.000E+00

     total cpu time spent up to now is     4068.7 secs

     total energy              =   -7425.28385418 Ry
     Harris-Foulkes estimate   =   -7425.28485919 Ry
     estimated scf accuracy    <       0.00317514 Ry

     iteration # 12     ecut=    50.00 Ry     beta=0.70
     Davidson diagonalization with overlap
     ethr =  3.97E-07,  avg # of iterations =  2.2

     negative rho (up, down):  1.974E+00 0.000E+00

     total cpu time spent up to now is     4302.0 secs

     total energy              =   -7425.28354879 Ry
     Harris-Foulkes estimate   =   -7425.28439644 Ry
     estimated scf accuracy    <       0.00163614 Ry

     iteration # 13     ecut=    50.00 Ry     beta=0.70
     Davidson diagonalization with overlap
     ethr =  2.05E-07,  avg # of iterations =  7.0

     negative rho (up, down):  1.974E+00 0.000E+00

     total cpu time spent up to now is     4712.4 secs

     total energy              =   -7425.28264872 Ry
     Harris-Foulkes estimate   =   -7425.28562322 Ry
     estimated scf accuracy    <       0.01607438 Ry

     iteration # 14     ecut=    50.00 Ry     beta=0.70
     Davidson diagonalization with overlap
     ethr =  2.05E-07,  avg # of iterations =  3.0

     negative rho (up, down):  1.974E+00 0.000E+00

     total cpu time spent up to now is     5005.6 secs

     total energy              =   -7425.28402011 Ry
     Harris-Foulkes estimate   =   -7425.28414505 Ry
     estimated scf accuracy    <       0.00035562 Ry

     iteration # 15     ecut=    50.00 Ry     beta=0.70
     Davidson diagonalization with overlap
     ethr =  4.45E-08,  avg # of iterations =  2.5

     negative rho (up, down):  1.974E+00 0.000E+00

     total cpu time spent up to now is     5257.6 secs

     total energy              =   -7425.28394436 Ry
     Harris-Foulkes estimate   =   -7425.28421999 Ry
     estimated scf accuracy    <       0.00175420 Ry

     iteration # 16     ecut=    50.00 Ry     beta=0.70
     Davidson diagonalization with overlap
     ethr =  4.45E-08,  avg # of iterations =  2.0

     negative rho (up, down):  1.974E+00 0.000E+00

     total cpu time spent up to now is     5493.7 secs

     total energy              =   -7425.28401751 Ry
     Harris-Foulkes estimate   =   -7425.28419652 Ry
     estimated scf accuracy    <       0.00132588 Ry

     iteration # 17     ecut=    50.00 Ry     beta=0.70
     Davidson diagonalization with overlap
     ethr =  4.45E-08,  avg # of iterations =  2.0

     negative rho (up, down):  1.974E+00 0.000E+00

     total cpu time spent up to now is     5718.4 secs

     total energy              =   -7425.28409106 Ry
     Harris-Foulkes estimate   =   -7425.28411687 Ry
     estimated scf accuracy    <       0.00010761 Ry

     iteration # 18     ecut=    50.00 Ry     beta=0.70
     Davidson diagonalization with overlap
     ethr =  1.35E-08,  avg # of iterations =  2.0

     negative rho (up, down):  1.974E+00 0.000E+00

     total cpu time spent up to now is     5939.0 secs

     total energy              =   -7425.28410344 Ry
     Harris-Foulkes estimate   =   -7425.28410886 Ry
     estimated scf accuracy    <       0.00002337 Ry

     iteration # 19     ecut=    50.00 Ry     beta=0.70
     Davidson diagonalization with overlap
     ethr =  2.92E-09,  avg # of iterations =  2.0

     negative rho (up, down):  1.974E+00 0.000E+00

     total cpu time spent up to now is     6161.3 secs

     total energy              =   -7425.28410539 Ry
     Harris-Foulkes estimate   =   -7425.28410764 Ry
     estimated scf accuracy    <       0.00000849 Ry

     iteration # 20     ecut=    50.00 Ry     beta=0.70
     Davidson diagonalization with overlap
     ethr =  1.06E-09,  avg # of iterations =  2.0

     negative rho (up, down):  1.974E+00 0.000E+00

     total cpu time spent up to now is     6379.1 secs

     total energy              =   -7425.28410631 Ry
     Harris-Foulkes estimate   =   -7425.28410713 Ry
     estimated scf accuracy    <       0.00000285 Ry

     iteration # 21     ecut=    50.00 Ry     beta=0.70
     Davidson diagonalization with overlap
     ethr =  3.56E-10,  avg # of iterations =  2.0

     negative rho (up, down):  1.974E+00 0.000E+00

     total cpu time spent up to now is     6598.7 secs

     total energy              =   -7425.28410671 Ry
     Harris-Foulkes estimate   =   -7425.28410681 Ry
     estimated scf accuracy    <       0.00000030 Ry

     iteration # 22     ecut=    50.00 Ry     beta=0.70
     Davidson diagonalization with overlap
     ethr =  3.80E-11,  avg # of iterations =  3.0

     negative rho (up, down):  1.974E+00 0.000E+00

     total cpu time spent up to now is     6891.2 secs

     total energy              =   -7425.28410677 Ry
     Harris-Foulkes estimate   =   -7425.28410684 Ry
     estimated scf accuracy    <       0.00000025 Ry

     iteration # 23     ecut=    50.00 Ry     beta=0.70
     Davidson diagonalization with overlap
     ethr =  3.10E-11,  avg # of iterations =  2.0

     negative rho (up, down):  1.974E+00 0.000E+00

     total cpu time spent up to now is     7120.6 secs

     total energy              =   -7425.28410678 Ry
     Harris-Foulkes estimate   =   -7425.28410684 Ry
     estimated scf accuracy    <       0.00000027 Ry

     iteration # 24     ecut=    50.00 Ry     beta=0.70
     Davidson diagonalization with overlap
     ethr =  3.10E-11,  avg # of iterations =  2.0

     negative rho (up, down):  1.974E+00 0.000E+00

     total cpu time spent up to now is     7344.0 secs

     total energy              =   -7425.28410682 Ry
     Harris-Foulkes estimate   =   -7425.28410682 Ry
     estimated scf accuracy    <       0.00000005 Ry

     iteration # 25     ecut=    50.00 Ry     beta=0.70
     Davidson diagonalization with overlap
     ethr =  6.16E-12,  avg # of iterations =  3.0

     negative rho (up, down):  1.974E+00 0.000E+00

     total cpu time spent up to now is     7632.7 secs

     End of self-consistent calculation

          k = 0.2500 0.2500 0.0833 (167653 PWs)   bands (ev):

   -19.4443  -7.4570  -6.8212  -6.2953  -6.2932  -5.8660  -5.4554  -5.3646
    -5.3633  -5.1683  -5.1670  -5.0501  -5.0479  -4.9713  -4.9489  -4.8759
    -4.7910  -4.7865  -4.7478  -4.7474  -4.5877  -4.5712  -4.5695  -4.5685
    -4.5620  -4.5069  -4.5063  -4.4956  -4.4939  -4.4574  -4.4471  -4.4442
    -4.4037  -4.4025  -4.3692  -4.3681  -4.3180  -4.3153  -4.3060  -4.3043
    -4.2985  -4.2859  -4.2852  -4.2453  -4.2267  -4.2258  -4.2189  -4.2186
    -4.1875  -4.1408  -4.1224  -4.1213  -4.1204  -4.1175  -4.1106  -4.1057
    -4.1044  -4.1033  -4.0418  -4.0384  -3.9960  -3.9883  -3.9767  -3.9520
    -3.9510  -3.9331  -3.9283  -3.9269  -3.9241  -3.9207  -3.8721  -3.8712
    -3.8591  -3.8576  -3.7595  -3.7524  -3.7493  -3.7457  -3.7163  -3.7087
    -3.6874  -3.6646  -3.6563  -3.6362  -3.6262  -3.6236  -3.6056  -3.5949
    -3.5933  -3.5859  -3.5363  -3.5348  -3.5142  -3.5009  -3.4922  -3.4897
    -3.4887  -3.4849  -3.4620  -3.4601  -3.4247  -3.4230  -3.4041  -3.4008
    -3.3699  -3.3678  -3.3530  -3.3240  -3.3218  -3.2875  -3.2854  -3.2500
    -3.2422  -3.2418  -3.2280  -3.2272  -3.2224  -3.2216  -3.1869  -3.1737
    -3.1346  -3.1344  -3.1251  -3.1178  -3.1152  -3.1133  -3.0904  -3.0898
    -3.0707  -3.0691  -3.0669  -3.0414  -3.0407  -3.0335  -3.0310  -3.0287
    -2.9938  -2.9924  -2.9565  -2.9544  -2.9535  -2.9514  -2.9499  -2.8708
    -2.8619  -2.8606  -2.8576  -2.8560  -2.8549  -2.8524  -2.8502  -2.8492
    -2.8488  -2.8397  -2.8319  -2.8171  -2.8130  -2.8119  -2.8106  -2.7975
    -2.7932  -2.7558  -2.7551  -2.7536  -2.7492  -2.7483  -2.7314  -2.7302
    -2.7231  -2.7220  -2.7190  -2.6623  -2.6604  -2.6553  -2.6544  -2.6510
    -2.6489  -2.6221  -2.5634  -2.5631  -2.5619  -2.5582  -2.5477  -2.5463
    -2.5419  -2.5320  -2.5294  -2.4977  -2.4921  -2.4878  -2.4849  -2.4827
    -2.4818  -2.4454  -2.4440  -2.4348  -2.4330  -2.4325  -2.4306  -2.3890
    -2.3747  -2.3685  -2.3165  -2.3138  -2.2978  -2.2968  -2.2897  -2.2876
    -2.2427  -2.2390  -2.2174  -2.2053  -2.1899  -2.1871  -2.1840  -2.1649
    -2.1627  -2.1543  -2.1387  -2.1076  -2.0973  -2.0847  -2.0811  -2.0795
    -2.0758  -2.0699  -2.0659  -2.0549  -2.0532  -2.0503  -2.0476  -2.0441
    -2.0429  -2.0357  -2.0319  -2.0152  -2.0144  -2.0124  -2.0078  -2.0040
    -2.0018  -1.9821  -1.9784  -1.9690  -1.9668  -1.9608  -1.9594  -1.9227
    -1.8919  -1.8885  -1.8540  -1.8440  -1.8370  -1.8342  -1.8230  -1.8082
    -1.8016  -1.7965  -1.7888  -1.7860  -1.7845  -1.7827  -1.7796  -1.7531
    -1.7484  -1.7476  -1.7058  -1.7029  -1.6724  -1.6628  -1.6315  -1.6157
    -1.6101  -1.5990  -1.5806  -1.5727  -1.5662  -1.5564  -1.5502  -1.5368
    -1.5360  -1.5345  -1.5322  -1.5302  -1.5284  -1.5274  -1.5112  -1.5065
    -1.5020  -1.4808  -1.4740  -1.4621  -1.4582  -1.4366  -1.4334  -1.4310
    -1.4295  -1.4252  -1.4164  -1.4032  -1.3956  -1.3859  -1.3772  -1.3705
    -1.3656  -1.3491  -1.3366  -1.3216  -1.3191  -1.3119  -1.3099  -1.2786
    -1.2728  -1.2667  -1.2654  -1.2594  -1.2516  -1.2371  -1.2354  -1.2261
    -1.2169  -1.2151  -1.2075  -1.2034  -1.2030  -1.1935  -1.1904  -1.1793
    -1.1778  -1.1704  -1.1696  -1.1571  -1.1531  -1.1477  -1.1417  -1.1077
    -1.1057  -1.0998  -1.0982  -1.0970  -1.0901  -1.0599  -1.0430  -1.0405
    -1.0397  -1.0391  -1.0344  -1.0312  -1.0281  -1.0164  -1.0154  -0.9790
    -0.9752  -0.9720  -0.9704  -0.9499  -0.9484  -0.9394  -0.9108  -0.9017
    -0.8765  -0.8733  -0.8473  -0.8465  -0.8427  -0.8421  -0.8404  -0.8358
    -0.8332  -0.8322  -0.8282  -0.8265  -0.7962  -0.7948  -0.7772  -0.7740
    -0.7720  -0.7704  -0.7679  -0.7623  -0.7512  -0.4790  -0.4641  -0.4074
    -0.4013  -0.3695  -0.2095  -0.1453  -0.1430  -0.1053   0.1756   0.1779
     0.5061   0.5126   0.6033   0.6044   0.6445   0.6470   0.7916   0.7931
     0.9125   0.9159   1.0092   1.6013   1.6180   1.6197   1.6565   1.6638
     1.7085   1.7208   1.7900   1.7913   1.9943   1.9963   2.2358   2.3097
     2.3155   2.3272   2.7074   2.7172   2.7792   2.7821   2.7880   2.7903
     2.9389   2.9407   2.9960   3.0866   3.0877   3.3141   3.3185   3.4487
     3.4761   3.4788   3.7498   3.7510   3.8621   3.8799   3.8823   3.9507
     3.9753   4.0629   4.0697   4.3002   4.3056   4.3924   4.4008   4.5115
     4.5204   4.5418   4.5537   4.7036   5.1281   5.3475   5.3652   5.4429
     5.4502   5.5308   5.6265   5.6310   5.6656   5.7063   5.7401   5.7467
     5.7566   5.7910   5.7991   5.8403   6.0161   6.0985   6.1113   6.1158
     6.1243   6.1346   6.1400   6.1453   6.1505   6.1520   6.1879   6.2242

          k = 0.2500 0.2500-0.2500 (167588 PWs)   bands (ev):

   -19.4443  -7.4570  -6.8212  -6.2953  -6.2932  -5.8660  -5.4554  -5.3646
    -5.3633  -5.1683  -5.1670  -5.0501  -5.0479  -4.9713  -4.9489  -4.8759
    -4.7910  -4.7865  -4.7478  -4.7474  -4.5877  -4.5712  -4.5695  -4.5685
    -4.5620  -4.5069  -4.5063  -4.4956  -4.4939  -4.4574  -4.4471  -4.4442
    -4.4037  -4.4025  -4.3692  -4.3681  -4.3180  -4.3153  -4.3060  -4.3043
    -4.2985  -4.2859  -4.2852  -4.2453  -4.2267  -4.2258  -4.2189  -4.2186
    -4.1875  -4.1408  -4.1224  -4.1212  -4.1204  -4.1175  -4.1106  -4.1057
    -4.1044  -4.1033  -4.0418  -4.0384  -3.9960  -3.9883  -3.9767  -3.9520
    -3.9510  -3.9331  -3.9283  -3.9269  -3.9241  -3.9207  -3.8721  -3.8712
    -3.8591  -3.8576  -3.7595  -3.7524  -3.7494  -3.7457  -3.7163  -3.7087
    -3.6874  -3.6646  -3.6563  -3.6362  -3.6262  -3.6236  -3.6056  -3.5949
    -3.5933  -3.5859  -3.5363  -3.5348  -3.5142  -3.5009  -3.4922  -3.4897
    -3.4887  -3.4849  -3.4620  -3.4601  -3.4247  -3.4230  -3.4041  -3.4008
    -3.3699  -3.3678  -3.3530  -3.3240  -3.3218  -3.2875  -3.2854  -3.2500
    -3.2422  -3.2418  -3.2280  -3.2272  -3.2224  -3.2216  -3.1869  -3.1737
    -3.1346  -3.1344  -3.1251  -3.1178  -3.1152  -3.1133  -3.0904  -3.0898
    -3.0707  -3.0691  -3.0669  -3.0414  -3.0406  -3.0335  -3.0310  -3.0287
    -2.9938  -2.9924  -2.9565  -2.9544  -2.9535  -2.9514  -2.9499  -2.8708
    -2.8619  -2.8606  -2.8576  -2.8560  -2.8549  -2.8524  -2.8502  -2.8492
    -2.8488  -2.8397  -2.8319  -2.8171  -2.8130  -2.8119  -2.8106  -2.7975
    -2.7932  -2.7558  -2.7551  -2.7536  -2.7492  -2.7483  -2.7314  -2.7302
    -2.7230  -2.7220  -2.7190  -2.6623  -2.6604  -2.6553  -2.6544  -2.6510
    -2.6489  -2.6221  -2.5634  -2.5631  -2.5619  -2.5582  -2.5477  -2.5463
    -2.5419  -2.5319  -2.5294  -2.4977  -2.4921  -2.4878  -2.4849  -2.4827
    -2.4818  -2.4454  -2.4441  -2.4348  -2.4330  -2.4326  -2.4306  -2.3890
    -2.3747  -2.3685  -2.3165  -2.3138  -2.2978  -2.2968  -2.2897  -2.2876
    -2.2427  -2.2390  -2.2174  -2.2053  -2.1899  -2.1871  -2.1840  -2.1649
    -2.1627  -2.1543  -2.1388  -2.1076  -2.0973  -2.0847  -2.0811  -2.0795
    -2.0758  -2.0699  -2.0659  -2.0549  -2.0532  -2.0504  -2.0476  -2.0441
    -2.0429  -2.0357  -2.0319  -2.0152  -2.0144  -2.0124  -2.0078  -2.0040
    -2.0018  -1.9821  -1.9784  -1.9690  -1.9668  -1.9608  -1.9594  -1.9227
    -1.8919  -1.8885  -1.8540  -1.8440  -1.8370  -1.8342  -1.8230  -1.8082
    -1.8016  -1.7965  -1.7888  -1.7860  -1.7845  -1.7827  -1.7796  -1.7531
    -1.7484  -1.7477  -1.7058  -1.7029  -1.6724  -1.6628  -1.6315  -1.6157
    -1.6101  -1.5990  -1.5806  -1.5727  -1.5662  -1.5564  -1.5502  -1.5368
    -1.5360  -1.5345  -1.5322  -1.5302  -1.5284  -1.5274  -1.5112  -1.5065
    -1.5020  -1.4808  -1.4740  -1.4621  -1.4582  -1.4366  -1.4334  -1.4310
    -1.4295  -1.4252  -1.4164  -1.4032  -1.3956  -1.3859  -1.3772  -1.3705
    -1.3656  -1.3491  -1.3366  -1.3216  -1.3191  -1.3119  -1.3099  -1.2785
    -1.2728  -1.2667  -1.2654  -1.2594  -1.2516  -1.2371  -1.2354  -1.2260
    -1.2169  -1.2151  -1.2075  -1.2034  -1.2030  -1.1935  -1.1904  -1.1793
    -1.1778  -1.1704  -1.1696  -1.1571  -1.1531  -1.1477  -1.1417  -1.1077
    -1.1057  -1.0998  -1.0982  -1.0971  -1.0901  -1.0599  -1.0430  -1.0405
    -1.0397  -1.0391  -1.0344  -1.0312  -1.0281  -1.0164  -1.0154  -0.9790
    -0.9752  -0.9720  -0.9704  -0.9499  -0.9484  -0.9394  -0.9108  -0.9017
    -0.8765  -0.8732  -0.8473  -0.8465  -0.8427  -0.8421  -0.8404  -0.8358
    -0.8332  -0.8322  -0.8282  -0.8265  -0.7962  -0.7948  -0.7772  -0.7740
    -0.7720  -0.7704  -0.7679  -0.7623  -0.7512  -0.4790  -0.4641  -0.4074
    -0.4013  -0.3695  -0.2095  -0.1453  -0.1430  -0.1053   0.1756   0.1779
     0.5061   0.5126   0.6033   0.6044   0.6446   0.6470   0.7916   0.7931
     0.9125   0.9159   1.0092   1.6013   1.6180   1.6197   1.6565   1.6638
     1.7085   1.7208   1.7900   1.7913   1.9943   1.9963   2.2358   2.3097
     2.3155   2.3272   2.7074   2.7172   2.7792   2.7821   2.7880   2.7903
     2.9389   2.9407   2.9961   3.0867   3.0877   3.3141   3.3185   3.4487
     3.4761   3.4788   3.7498   3.7510   3.8621   3.8799   3.8823   3.9507
     3.9754   4.0629   4.0697   4.3002   4.3056   4.3924   4.4008   4.5115
     4.5204   4.5418   4.5537   4.7038   5.1193   5.3448   5.3624   5.4430
     5.4488   5.5293   5.6280   5.6313   5.6847   5.7227   5.7418   5.7494
     5.7603   5.7920   5.7991   5.8408   6.0491   6.0784   6.1080   6.1149
     6.1237   6.1353   6.1425   6.1472   6.1515   6.1571   6.2081   6.2351

          k =-0.2500-0.2500 0.0833 (167653 PWs)   bands (ev):

   -19.4443  -7.4570  -6.8212  -6.2953  -6.2932  -5.8660  -5.4554  -5.3646
    -5.3633  -5.1683  -5.1670  -5.0501  -5.0479  -4.9713  -4.9489  -4.8759
    -4.7910  -4.7865  -4.7478  -4.7474  -4.5877  -4.5712  -4.5695  -4.5685
    -4.5620  -4.5069  -4.5063  -4.4956  -4.4939  -4.4574  -4.4471  -4.4442
    -4.4037  -4.4025  -4.3692  -4.3681  -4.3180  -4.3153  -4.3060  -4.3043
    -4.2985  -4.2859  -4.2852  -4.2453  -4.2267  -4.2258  -4.2189  -4.2186
    -4.1875  -4.1408  -4.1224  -4.1213  -4.1204  -4.1175  -4.1106  -4.1057
    -4.1044  -4.1033  -4.0418  -4.0384  -3.9960  -3.9883  -3.9767  -3.9520
    -3.9510  -3.9331  -3.9283  -3.9269  -3.9241  -3.9207  -3.8721  -3.8712
    -3.8591  -3.8576  -3.7595  -3.7524  -3.7493  -3.7457  -3.7163  -3.7087
    -3.6874  -3.6646  -3.6563  -3.6362  -3.6262  -3.6236  -3.6056  -3.5949
    -3.5933  -3.5859  -3.5363  -3.5348  -3.5142  -3.5009  -3.4922  -3.4897
    -3.4887  -3.4849  -3.4620  -3.4601  -3.4247  -3.4230  -3.4041  -3.4008
    -3.3699  -3.3678  -3.3530  -3.3240  -3.3218  -3.2875  -3.2854  -3.2500
    -3.2422  -3.2418  -3.2280  -3.2272  -3.2224  -3.2216  -3.1869  -3.1737
    -3.1346  -3.1344  -3.1251  -3.1178  -3.1152  -3.1133  -3.0904  -3.0898
    -3.0707  -3.0691  -3.0669  -3.0414  -3.0407  -3.0335  -3.0310  -3.0287
    -2.9938  -2.9924  -2.9565  -2.9544  -2.9535  -2.9514  -2.9499  -2.8708
    -2.8619  -2.8606  -2.8576  -2.8560  -2.8549  -2.8524  -2.8502  -2.8492
    -2.8488  -2.8397  -2.8319  -2.8171  -2.8130  -2.8119  -2.8106  -2.7975
    -2.7932  -2.7558  -2.7551  -2.7536  -2.7492  -2.7483  -2.7314  -2.7302
    -2.7231  -2.7220  -2.7190  -2.6623  -2.6604  -2.6553  -2.6544  -2.6510
    -2.6489  -2.6221  -2.5634  -2.5631  -2.5619  -2.5582  -2.5477  -2.5463
    -2.5419  -2.5320  -2.5294  -2.4977  -2.4921  -2.4878  -2.4849  -2.4827
    -2.4818  -2.4454  -2.4440  -2.4348  -2.4330  -2.4325  -2.4306  -2.3890
    -2.3747  -2.3685  -2.3165  -2.3138  -2.2978  -2.2968  -2.2897  -2.2876
    -2.2427  -2.2390  -2.2174  -2.2053  -2.1899  -2.1871  -2.1840  -2.1649
    -2.1627  -2.1543  -2.1387  -2.1076  -2.0973  -2.0847  -2.0811  -2.0795
    -2.0758  -2.0699  -2.0659  -2.0549  -2.0532  -2.0503  -2.0476  -2.0441
    -2.0429  -2.0357  -2.0319  -2.0152  -2.0144  -2.0124  -2.0078  -2.0040
    -2.0018  -1.9821  -1.9784  -1.9690  -1.9668  -1.9608  -1.9594  -1.9227
    -1.8919  -1.8885  -1.8540  -1.8440  -1.8370  -1.8342  -1.8230  -1.8082
    -1.8016  -1.7965  -1.7888  -1.7860  -1.7845  -1.7827  -1.7796  -1.7531
    -1.7484  -1.7476  -1.7058  -1.7029  -1.6724  -1.6628  -1.6315  -1.6157
    -1.6101  -1.5990  -1.5806  -1.5727  -1.5662  -1.5564  -1.5502  -1.5368
    -1.5360  -1.5345  -1.5322  -1.5302  -1.5284  -1.5274  -1.5112  -1.5065
    -1.5020  -1.4808  -1.4740  -1.4621  -1.4582  -1.4366  -1.4334  -1.4310
    -1.4295  -1.4252  -1.4164  -1.4032  -1.3956  -1.3859  -1.3772  -1.3705
    -1.3656  -1.3491  -1.3366  -1.3216  -1.3191  -1.3119  -1.3099  -1.2786
    -1.2728  -1.2667  -1.2654  -1.2594  -1.2516  -1.2371  -1.2354  -1.2261
    -1.2169  -1.2151  -1.2075  -1.2034  -1.2030  -1.1935  -1.1904  -1.1793
    -1.1778  -1.1704  -1.1696  -1.1571  -1.1531  -1.1477  -1.1417  -1.1077
    -1.1057  -1.0998  -1.0982  -1.0970  -1.0901  -1.0599  -1.0430  -1.0405
    -1.0397  -1.0391  -1.0344  -1.0312  -1.0281  -1.0164  -1.0154  -0.9790
    -0.9752  -0.9720  -0.9704  -0.9499  -0.9484  -0.9394  -0.9108  -0.9017
    -0.8765  -0.8733  -0.8473  -0.8465  -0.8427  -0.8421  -0.8404  -0.8358
    -0.8332  -0.8322  -0.8282  -0.8265  -0.7962  -0.7948  -0.7772  -0.7740
    -0.7720  -0.7704  -0.7679  -0.7623  -0.7512  -0.4790  -0.4641  -0.4074
    -0.4013  -0.3695  -0.2095  -0.1453  -0.1430  -0.1053   0.1756   0.1779
     0.5061   0.5126   0.6033   0.6044   0.6445   0.6470   0.7916   0.7931
     0.9125   0.9159   1.0092   1.6013   1.6180   1.6197   1.6565   1.6638
     1.7085   1.7208   1.7900   1.7913   1.9943   1.9963   2.2358   2.3097
     2.3155   2.3272   2.7074   2.7172   2.7792   2.7821   2.7880   2.7903
     2.9389   2.9407   2.9960   3.0866   3.0877   3.3141   3.3185   3.4487
     3.4761   3.4788   3.7498   3.7510   3.8621   3.8799   3.8823   3.9507
     3.9753   4.0629   4.0697   4.3002   4.3056   4.3924   4.4008   4.5115
     4.5204   4.5418   4.5537   4.7036   5.1277   5.3475   5.3663   5.4430
     5.4501   5.5270   5.6260   5.6311   5.6695   5.7079   5.7398   5.7469
     5.7570   5.7910   5.7991   5.8403   6.0178   6.0991   6.1107   6.1144
     6.1244   6.1346   6.1390   6.1450   6.1507   6.1523   6.1790   6.2203

          k =-0.2500 0.2500-0.0833 (167653 PWs)   bands (ev):

   -19.4443  -7.4570  -6.8210  -6.2962  -6.2930  -5.8653  -5.4552  -5.3650
    -5.3620  -5.1685  -5.1677  -5.0519  -5.0471  -4.9715  -4.9478  -4.8753
    -4.7906  -4.7871  -4.7495  -4.7475  -4.5878  -4.5714  -4.5704  -4.5677
    -4.5620  -4.5074  -4.5065  -4.4958  -4.4931  -4.4573  -4.4471  -4.4428
    -4.4035  -4.4023  -4.3694  -4.3678  -4.3187  -4.3143  -4.3061  -4.3042
    -4.2984  -4.2858  -4.2851  -4.2455  -4.2277  -4.2256  -4.2195  -4.2180
    -4.1873  -4.1380  -4.1259  -4.1226  -4.1204  -4.1166  -4.1108  -4.1050
    -4.1043  -4.1033  -4.0423  -4.0372  -3.9922  -3.9876  -3.9775  -3.9524
    -3.9498  -3.9371  -3.9275  -3.9269  -3.9230  -3.9208  -3.8714  -3.8712
    -3.8602  -3.8572  -3.7654  -3.7529  -3.7505  -3.7454  -3.7148  -3.7088
    -3.6882  -3.6711  -3.6564  -3.6316  -3.6257  -3.6172  -3.6057  -3.5957
    -3.5907  -3.5837  -3.5366  -3.5345  -3.5185  -3.4999  -3.4917  -3.4901
    -3.4888  -3.4876  -3.4619  -3.4601  -3.4251  -3.4232  -3.4038  -3.3996
    -3.3702  -3.3670  -3.3529  -3.3240  -3.3229  -3.2878  -3.2852  -3.2499
    -3.2419  -3.2416  -3.2282  -3.2264  -3.2228  -3.2221  -3.1871  -3.1735
    -3.1345  -3.1342  -3.1253  -3.1171  -3.1149  -3.1131  -3.0908  -3.0902
    -3.0712  -3.0692  -3.0659  -3.0411  -3.0405  -3.0334  -3.0309  -3.0289
    -2.9939  -2.9915  -2.9574  -2.9546  -2.9533  -2.9516  -2.9501  -2.8709
    -2.8622  -2.8606  -2.8577  -2.8553  -2.8547  -2.8522  -2.8497  -2.8493
    -2.8487  -2.8397  -2.8319  -2.8176  -2.8130  -2.8116  -2.8101  -2.7974
    -2.7928  -2.7564  -2.7551  -2.7535  -2.7506  -2.7472  -2.7321  -2.7297
    -2.7231  -2.7221  -2.7190  -2.6625  -2.6604  -2.6554  -2.6547  -2.6501
    -2.6487  -2.6228  -2.5634  -2.5625  -2.5616  -2.5582  -2.5477  -2.5460
    -2.5417  -2.5317  -2.5292  -2.5009  -2.4916  -2.4875  -2.4860  -2.4827
    -2.4815  -2.4468  -2.4438  -2.4345  -2.4336  -2.4327  -2.4303  -2.3890
    -2.3735  -2.3704  -2.3163  -2.3135  -2.2986  -2.2961  -2.2897  -2.2881
    -2.2442  -2.2387  -2.2175  -2.2057  -2.1899  -2.1877  -2.1839  -2.1643
    -2.1623  -2.1542  -2.1378  -2.1046  -2.0965  -2.0861  -2.0811  -2.0799
    -2.0734  -2.0705  -2.0654  -2.0545  -2.0537  -2.0505  -2.0469  -2.0442
    -2.0424  -2.0360  -2.0324  -2.0157  -2.0145  -2.0123  -2.0070  -2.0044
    -2.0015  -1.9833  -1.9791  -1.9698  -1.9669  -1.9621  -1.9589  -1.9229
    -1.8933  -1.8882  -1.8537  -1.8406  -1.8364  -1.8301  -1.8237  -1.8091
    -1.8019  -1.7902  -1.7870  -1.7855  -1.7840  -1.7835  -1.7800  -1.7554
    -1.7483  -1.7475  -1.7136  -1.7032  -1.6676  -1.6629  -1.6393  -1.6156
    -1.6088  -1.6004  -1.5807  -1.5726  -1.5672  -1.5552  -1.5489  -1.5406
    -1.5356  -1.5327  -1.5312  -1.5301  -1.5286  -1.5269  -1.5091  -1.5059
    -1.4955  -1.4839  -1.4767  -1.4612  -1.4572  -1.4372  -1.4333  -1.4307
    -1.4280  -1.4236  -1.4106  -1.4031  -1.3989  -1.3859  -1.3795  -1.3711
    -1.3655  -1.3502  -1.3438  -1.3208  -1.3177  -1.3116  -1.3075  -1.2768
    -1.2712  -1.2669  -1.2614  -1.2594  -1.2560  -1.2385  -1.2355  -1.2254
    -1.2182  -1.2148  -1.2077  -1.2039  -1.2022  -1.1994  -1.1898  -1.1784
    -1.1769  -1.1709  -1.1696  -1.1579  -1.1539  -1.1510  -1.1453  -1.1076
    -1.1032  -1.1003  -1.0978  -1.0973  -1.0904  -1.0601  -1.0430  -1.0401
    -1.0398  -1.0381  -1.0349  -1.0330  -1.0293  -1.0157  -1.0091  -0.9813
    -0.9753  -0.9716  -0.9698  -0.9500  -0.9489  -0.9392  -0.9107  -0.9018
    -0.8764  -0.8728  -0.8475  -0.8468  -0.8427  -0.8411  -0.8404  -0.8359
    -0.8328  -0.8312  -0.8293  -0.8264  -0.7965  -0.7946  -0.7764  -0.7753
    -0.7721  -0.7700  -0.7687  -0.7615  -0.7505  -0.4789  -0.4641  -0.4086
    -0.3985  -0.3696  -0.2084  -0.1455  -0.1422  -0.1073   0.1748   0.1792
     0.5031   0.5143   0.6029   0.6052   0.6431   0.6488   0.7883   0.7991
     0.9122   0.9157   1.0094   1.6013   1.6176   1.6195   1.6557   1.6636
     1.7036   1.7245   1.7858   1.7966   1.9925   1.9983   2.2347   2.3052
     2.3194   2.3278   2.7015   2.7207   2.7783   2.7825   2.7878   2.7915
     2.9385   2.9407   2.9940   3.0805   3.0980   3.3139   3.3218   3.4482
     3.4727   3.4828   3.7436   3.7563   3.8628   3.8803   3.8826   3.9447
     3.9806   4.0631   4.0711   4.2996   4.3057   4.3934   4.3999   4.5114
     4.5196   4.5357   4.5573   4.7002   5.1266   5.3462   5.3645   5.4468
     5.4549   5.5268   5.6210   5.6353   5.6724   5.7078   5.7372   5.7468
     5.7534   5.7926   5.7997   5.8449   6.0156   6.0884   6.1096   6.1205
     6.1297   6.1373   6.1397   6.1437   6.1478   6.1513   6.1872   6.2209

          k = 0.2500-0.2500-0.0833 (167653 PWs)   bands (ev):

   -19.4443  -7.4570  -6.8210  -6.2962  -6.2930  -5.8653  -5.4552  -5.3650
    -5.3620  -5.1685  -5.1677  -5.0519  -5.0471  -4.9715  -4.9478  -4.8753
    -4.7906  -4.7871  -4.7495  -4.7475  -4.5878  -4.5714  -4.5704  -4.5677
    -4.5620  -4.5074  -4.5065  -4.4958  -4.4931  -4.4573  -4.4471  -4.4428
    -4.4035  -4.4023  -4.3694  -4.3678  -4.3187  -4.3143  -4.3061  -4.3042
    -4.2984  -4.2858  -4.2851  -4.2455  -4.2277  -4.2256  -4.2195  -4.2180
    -4.1873  -4.1380  -4.1259  -4.1226  -4.1204  -4.1166  -4.1108  -4.1050
    -4.1043  -4.1033  -4.0423  -4.0372  -3.9922  -3.9876  -3.9775  -3.9524
    -3.9498  -3.9371  -3.9275  -3.9269  -3.9230  -3.9208  -3.8714  -3.8712
    -3.8602  -3.8572  -3.7654  -3.7529  -3.7505  -3.7454  -3.7148  -3.7088
    -3.6882  -3.6711  -3.6564  -3.6316  -3.6257  -3.6172  -3.6057  -3.5957
    -3.5907  -3.5837  -3.5366  -3.5345  -3.5185  -3.4999  -3.4917  -3.4901
    -3.4888  -3.4876  -3.4619  -3.4601  -3.4251  -3.4232  -3.4038  -3.3996
    -3.3702  -3.3670  -3.3529  -3.3240  -3.3229  -3.2878  -3.2852  -3.2499
    -3.2419  -3.2416  -3.2282  -3.2264  -3.2228  -3.2221  -3.1871  -3.1735
    -3.1345  -3.1342  -3.1253  -3.1171  -3.1149  -3.1131  -3.0908  -3.0902
    -3.0712  -3.0692  -3.0659  -3.0411  -3.0405  -3.0334  -3.0309  -3.0289
    -2.9939  -2.9915  -2.9574  -2.9546  -2.9533  -2.9516  -2.9501  -2.8709
    -2.8622  -2.8606  -2.8577  -2.8553  -2.8547  -2.8522  -2.8497  -2.8493
    -2.8487  -2.8397  -2.8319  -2.8176  -2.8130  -2.8116  -2.8101  -2.7974
    -2.7928  -2.7564  -2.7551  -2.7535  -2.7506  -2.7472  -2.7321  -2.7297
    -2.7231  -2.7221  -2.7190  -2.6625  -2.6604  -2.6554  -2.6547  -2.6501
    -2.6487  -2.6228  -2.5634  -2.5625  -2.5616  -2.5582  -2.5477  -2.5460
    -2.5417  -2.5317  -2.5292  -2.5009  -2.4916  -2.4875  -2.4860  -2.4827
    -2.4815  -2.4468  -2.4438  -2.4345  -2.4336  -2.4327  -2.4303  -2.3890
    -2.3735  -2.3704  -2.3163  -2.3135  -2.2986  -2.2961  -2.2897  -2.2881
    -2.2442  -2.2387  -2.2175  -2.2057  -2.1899  -2.1877  -2.1839  -2.1643
    -2.1623  -2.1542  -2.1378  -2.1046  -2.0965  -2.0861  -2.0811  -2.0799
    -2.0734  -2.0705  -2.0654  -2.0545  -2.0537  -2.0505  -2.0469  -2.0442
    -2.0424  -2.0360  -2.0324  -2.0157  -2.0145  -2.0123  -2.0070  -2.0044
    -2.0015  -1.9833  -1.9791  -1.9698  -1.9669  -1.9621  -1.9589  -1.9229
    -1.8933  -1.8882  -1.8537  -1.8406  -1.8364  -1.8301  -1.8237  -1.8091
    -1.8019  -1.7902  -1.7870  -1.7855  -1.7840  -1.7835  -1.7800  -1.7554
    -1.7483  -1.7475  -1.7136  -1.7032  -1.6676  -1.6629  -1.6393  -1.6156
    -1.6088  -1.6004  -1.5807  -1.5726  -1.5672  -1.5552  -1.5489  -1.5406
    -1.5356  -1.5327  -1.5312  -1.5301  -1.5286  -1.5269  -1.5091  -1.5059
    -1.4955  -1.4839  -1.4767  -1.4612  -1.4572  -1.4372  -1.4333  -1.4307
    -1.4280  -1.4236  -1.4106  -1.4031  -1.3989  -1.3859  -1.3795  -1.3711
    -1.3655  -1.3502  -1.3438  -1.3208  -1.3177  -1.3116  -1.3075  -1.2768
    -1.2712  -1.2669  -1.2614  -1.2594  -1.2560  -1.2385  -1.2355  -1.2254
    -1.2182  -1.2148  -1.2077  -1.2039  -1.2022  -1.1994  -1.1898  -1.1784
    -1.1769  -1.1709  -1.1696  -1.1579  -1.1539  -1.1510  -1.1453  -1.1076
    -1.1032  -1.1003  -1.0978  -1.0973  -1.0904  -1.0601  -1.0430  -1.0401
    -1.0398  -1.0381  -1.0349  -1.0330  -1.0293  -1.0157  -1.0091  -0.9813
    -0.9753  -0.9716  -0.9698  -0.9500  -0.9489  -0.9392  -0.9107  -0.9018
    -0.8764  -0.8728  -0.8475  -0.8468  -0.8427  -0.8411  -0.8404  -0.8359
    -0.8328  -0.8312  -0.8293  -0.8264  -0.7965  -0.7946  -0.7764  -0.7753
    -0.7721  -0.7700  -0.7687  -0.7615  -0.7505  -0.4789  -0.4641  -0.4086
    -0.3985  -0.3696  -0.2084  -0.1455  -0.1422  -0.1073   0.1748   0.1792
     0.5031   0.5143   0.6029   0.6052   0.6431   0.6488   0.7883   0.7991
     0.9122   0.9157   1.0094   1.6013   1.6176   1.6195   1.6557   1.6636
     1.7036   1.7245   1.7858   1.7966   1.9925   1.9983   2.2347   2.3052
     2.3194   2.3278   2.7015   2.7207   2.7783   2.7825   2.7878   2.7915
     2.9385   2.9407   2.9940   3.0805   3.0980   3.3139   3.3218   3.4482
     3.4727   3.4828   3.7436   3.7563   3.8628   3.8803   3.8826   3.9447
     3.9806   4.0631   4.0711   4.2996   4.3057   4.3934   4.3999   4.5114
     4.5196   4.5357   4.5573   4.7002   5.1269   5.3461   5.3635   5.4468
     5.4549   5.5308   5.6211   5.6352   5.6689   5.7058   5.7374   5.7467
     5.7532   5.7925   5.7997   5.8447   6.0137   6.0881   6.1110   6.1202
     6.1272   6.1386   6.1407   6.1436   6.1489   6.1515   6.1965   6.2279

          k =-0.2500 0.2500 0.2500 (167588 PWs)   bands (ev):

   -19.4443  -7.4570  -6.8210  -6.2962  -6.2930  -5.8653  -5.4552  -5.3650
    -5.3620  -5.1685  -5.1677  -5.0519  -5.0471  -4.9715  -4.9478  -4.8753
    -4.7906  -4.7871  -4.7495  -4.7475  -4.5878  -4.5715  -4.5704  -4.5677
    -4.5620  -4.5074  -4.5065  -4.4958  -4.4931  -4.4573  -4.4471  -4.4428
    -4.4035  -4.4023  -4.3694  -4.3678  -4.3187  -4.3143  -4.3061  -4.3042
    -4.2985  -4.2858  -4.2851  -4.2455  -4.2277  -4.2256  -4.2195  -4.2180
    -4.1873  -4.1380  -4.1259  -4.1226  -4.1204  -4.1166  -4.1108  -4.1050
    -4.1043  -4.1033  -4.0423  -4.0372  -3.9922  -3.9876  -3.9775  -3.9524
    -3.9498  -3.9371  -3.9275  -3.9269  -3.9230  -3.9208  -3.8714  -3.8712
    -3.8601  -3.8572  -3.7654  -3.7529  -3.7505  -3.7454  -3.7148  -3.7088
    -3.6882  -3.6711  -3.6564  -3.6316  -3.6257  -3.6172  -3.6057  -3.5957
    -3.5907  -3.5837  -3.5366  -3.5345  -3.5185  -3.4999  -3.4917  -3.4901
    -3.4888  -3.4876  -3.4619  -3.4601  -3.4251  -3.4232  -3.4038  -3.3996
    -3.3702  -3.3670  -3.3530  -3.3240  -3.3229  -3.2878  -3.2852  -3.2499
    -3.2419  -3.2416  -3.2282  -3.2264  -3.2228  -3.2221  -3.1872  -3.1735
    -3.1345  -3.1342  -3.1253  -3.1171  -3.1148  -3.1131  -3.0908  -3.0902
    -3.0712  -3.0692  -3.0659  -3.0410  -3.0405  -3.0334  -3.0309  -3.0289
    -2.9939  -2.9915  -2.9574  -2.9546  -2.9533  -2.9516  -2.9501  -2.8709
    -2.8622  -2.8606  -2.8577  -2.8553  -2.8547  -2.8522  -2.8497  -2.8493
    -2.8487  -2.8397  -2.8319  -2.8176  -2.8130  -2.8116  -2.8101  -2.7974
    -2.7928  -2.7564  -2.7551  -2.7535  -2.7506  -2.7472  -2.7321  -2.7297
    -2.7230  -2.7221  -2.7190  -2.6625  -2.6604  -2.6554  -2.6547  -2.6501
    -2.6487  -2.6228  -2.5634  -2.5625  -2.5616  -2.5582  -2.5477  -2.5460
    -2.5417  -2.5317  -2.5292  -2.5009  -2.4916  -2.4875  -2.4860  -2.4827
    -2.4815  -2.4468  -2.4438  -2.4345  -2.4336  -2.4327  -2.4303  -2.3890
    -2.3735  -2.3704  -2.3163  -2.3135  -2.2986  -2.2962  -2.2897  -2.2881
    -2.2442  -2.2386  -2.2175  -2.2057  -2.1899  -2.1876  -2.1839  -2.1643
    -2.1623  -2.1542  -2.1378  -2.1046  -2.0965  -2.0861  -2.0811  -2.0799
    -2.0734  -2.0705  -2.0654  -2.0545  -2.0537  -2.0505  -2.0469  -2.0442
    -2.0425  -2.0360  -2.0324  -2.0157  -2.0145  -2.0123  -2.0070  -2.0044
    -2.0015  -1.9833  -1.9792  -1.9698  -1.9669  -1.9621  -1.9589  -1.9229
    -1.8933  -1.8882  -1.8537  -1.8406  -1.8364  -1.8301  -1.8237  -1.8091
    -1.8019  -1.7902  -1.7870  -1.7855  -1.7839  -1.7835  -1.7800  -1.7554
    -1.7483  -1.7475  -1.7136  -1.7032  -1.6676  -1.6629  -1.6393  -1.6156
    -1.6088  -1.6004  -1.5807  -1.5727  -1.5672  -1.5552  -1.5489  -1.5406
    -1.5356  -1.5327  -1.5312  -1.5301  -1.5285  -1.5269  -1.5091  -1.5059
    -1.4955  -1.4839  -1.4767  -1.4612  -1.4572  -1.4372  -1.4333  -1.4307
    -1.4280  -1.4236  -1.4106  -1.4031  -1.3989  -1.3859  -1.3795  -1.3711
    -1.3655  -1.3502  -1.3438  -1.3208  -1.3177  -1.3116  -1.3075  -1.2768
    -1.2712  -1.2669  -1.2614  -1.2594  -1.2560  -1.2385  -1.2355  -1.2254
    -1.2182  -1.2148  -1.2077  -1.2039  -1.2022  -1.1994  -1.1898  -1.1785
    -1.1769  -1.1709  -1.1696  -1.1579  -1.1539  -1.1510  -1.1453  -1.1076
    -1.1032  -1.1003  -1.0978  -1.0973  -1.0904  -1.0601  -1.0430  -1.0401
    -1.0398  -1.0381  -1.0349  -1.0330  -1.0293  -1.0157  -1.0091  -0.9813
    -0.9753  -0.9716  -0.9698  -0.9500  -0.9489  -0.9392  -0.9107  -0.9018
    -0.8764  -0.8727  -0.8475  -0.8468  -0.8427  -0.8411  -0.8404  -0.8359
    -0.8328  -0.8312  -0.8293  -0.8264  -0.7965  -0.7946  -0.7764  -0.7753
    -0.7721  -0.7700  -0.7687  -0.7615  -0.7505  -0.4789  -0.4641  -0.4086
    -0.3985  -0.3696  -0.2084  -0.1455  -0.1422  -0.1073   0.1748   0.1792
     0.5031   0.5143   0.6029   0.6052   0.6431   0.6488   0.7883   0.7991
     0.9122   0.9158   1.0094   1.6013   1.6176   1.6195   1.6557   1.6636
     1.7036   1.7245   1.7858   1.7966   1.9925   1.9983   2.2347   2.3052
     2.3194   2.3278   2.7015   2.7207   2.7783   2.7825   2.7878   2.7915
     2.9385   2.9406   2.9940   3.0805   3.0980   3.3139   3.3218   3.4482
     3.4727   3.4828   3.7436   3.7563   3.8628   3.8803   3.8826   3.9448
     3.9807   4.0631   4.0711   4.2995   4.3057   4.3934   4.3999   4.5114
     4.5196   4.5357   4.5573   4.7004   5.1183   5.3427   5.3608   5.4465
     5.4550   5.5296   5.6212   5.6355   5.6861   5.7188   5.7432   5.7488
     5.7612   5.7929   5.7999   5.8448   6.0464   6.0768   6.0991   6.1207
     6.1297   6.1396   6.1430   6.1445   6.1511   6.1590   6.2073   6.2406

     the Fermi energy is     0.8654 ev

!    total energy              =   -7425.28410682 Ry
     Harris-Foulkes estimate   =   -7425.28410682 Ry
     estimated scf accuracy    <          9.0E-09 Ry

     The total energy is the sum of the following terms:

     one-electron contribution =  -48834.69844318 Ry
     hartree contribution      =   24968.13121967 Ry
     xc contribution           =   -3604.25594253 Ry
     ewald contribution        =   20045.54160235 Ry
     smearing contrib. (-TS)   =      -0.00254313 Ry

     convergence has been achieved in  25 iterations

     Writing output data file 1904083.save

     init_run     :    121.78s CPU    136.86s WALL (       1 calls)
     electrons    :   6961.76s CPU   7494.37s WALL (       1 calls)

     Called by init_run:
     wfcinit      :     80.28s CPU     88.68s WALL (       1 calls)
     potinit      :      7.53s CPU      8.13s WALL (       1 calls)

     Called by electrons:
     c_bands      :   5334.31s CPU   5769.95s WALL (      26 calls)
     sum_band     :   1017.25s CPU   1092.13s WALL (      26 calls)
     v_of_rho     :    134.23s CPU    146.87s WALL (      26 calls)
     newd         :    493.02s CPU    499.63s WALL (      26 calls)
     mix_rho      :      4.06s CPU      4.64s WALL (      26 calls)
     vdW_energy   :     12.84s CPU     14.92s WALL (      26 calls)
     vdW_ffts     :     66.90s CPU     72.72s WALL (      52 calls)
     vdW_v        :     16.14s CPU     17.04s WALL (      26 calls)

     Called by c_bands:
     init_us_2    :     15.78s CPU     16.12s WALL (     318 calls)
     cegterg      :   5276.22s CPU   5710.38s WALL (     156 calls)

     Called by *egterg:
     h_psi        :   2266.72s CPU   2620.68s WALL (     803 calls)
     s_psi        :    351.14s CPU    353.42s WALL (     803 calls)
     g_psi        :      5.77s CPU      5.78s WALL (     641 calls)
     cdiaghg      :   1458.50s CPU   1463.22s WALL (     791 calls)

     Called by h_psi:
     add_vuspsi   :    352.22s CPU    354.92s WALL (     803 calls)

     General routines
     calbec       :    523.96s CPU    526.46s WALL (     959 calls)
     fft          :    192.98s CPU    203.12s WALL (    1716 calls)
     ffts         :      1.96s CPU      2.22s WALL (      52 calls)
     fftw         :   1476.65s CPU   1808.69s WALL (  426956 calls)
     interpolate  :      5.89s CPU      6.74s WALL (      52 calls)
     davcio       :      0.01s CPU      0.25s WALL (       6 calls)

     Parallel routines
     fft_scatter  :   1094.38s CPU   1330.17s WALL (  428724 calls)

     PWSCF        :     1h58m CPU        2h 7m WALL


   This run was terminated on:  13:31:41  24Aug2015            

=------------------------------------------------------------------------------=
   JOB DONE.
=------------------------------------------------------------------------------=
