Setting SGE environment for SCC

     Program PWSCF v.5.1.2 starts on  1Jul2015 at 17:15:29 

     This program is part of the open-source Quantum ESPRESSO suite
     for quantum simulation of materials; please cite
         "P. Giannozzi et al., J. Phys.:Condens. Matter 21 395502 (2009);
          URL http://www.quantum-espresso.org", 
     in publications or presentations arising from this work. More details at
     http://www.quantum-espresso.org/quote

     Parallel version (MPI), running on    32 processors
     R & G space division:  proc/nbgrp/npool/nimage =      32
     Reading input from bridge.H2.Au6165.d.2.0.phi.0.psi.0.in
Warning: card &IONS ignored
Warning: card / ignored
Warning: card &CELL ignored
Warning: card / ignored

     Current dimensions of program PWSCF are:
     Max number of different atomic species (ntypx) = 10
     Max number of k-points (npk) =  40000
     Max angular momentum in pseudopotentials (lmaxx) =  3

     IMPORTANT: XC functional enforced from input :
     Exchange-correlation      = VDW-DF ( 1  4  4  0 1 0)
     Any further DFT definition will be discarded
     Please, verify this is what you really want


     Subspace diagonalization in iterative solution of the eigenvalue problem:
     a serial algorithm will be used


     Parallelization info
     --------------------
     sticks:   dense  smooth     PW     G-vecs:    dense   smooth      PW
     Min         578     289     74               118518    41891    5486
     Max         579     290     75               118533    41932    5497
     Sum       18505    9265   2385              3792731  1341081  175711


     Title: 
     bridge.H2.Au6165.d.2.0.phi.0.psi.0                                         


     bravais-lattice index     =            8
     lattice parameter (alat)  =      24.1233  a.u.
     unit-cell volume          =   28076.2361 (a.u.)^3
     number of atoms/cell      =           75
     number of atomic types    =            3
     number of electrons       =       800.00
     number of Kohn-Sham states=          480
     kinetic-energy cutoff     =      50.0000  Ry
     charge density cutoff     =     400.0000  Ry
     convergence threshold     =      1.0E-08
     mixing beta               =       0.7000
     number of iterations used =            8  plain     mixing
     Exchange-correlation      = VDW-DF ( 1  4  4  0 1 0)

     celldm(1)=  24.123277  celldm(2)=   1.000000  celldm(3)=   2.000000
     celldm(4)=   0.000000  celldm(5)=   0.000000  celldm(6)=   0.000000

     crystal axes: (cart. coord. in units of alat)
               a(1) = (   1.000000   0.000000   0.000000 )  
               a(2) = (   0.000000   1.000000   0.000000 )  
               a(3) = (   0.000000   0.000000   2.000000 )  

     reciprocal axes: (cart. coord. in units 2 pi/alat)
               b(1) = (  1.000000  0.000000  0.000000 )  
               b(2) = (  0.000000  1.000000  0.000000 )  
               b(3) = (  0.000000  0.000000  0.500000 )  


     PseudoPot. # 1 for Au read from file:
     /home/scc/andrejb/qe/pseudo/Au.pbe-nd-van.UPF
     MD5 check sum: 458681b50f36d87ef23c61b04bba420a
     Pseudo is Ultrasoft + core correction, Zval = 11.0
     Generated by new atomic code, or converted to UPF format
     Using radial grid of  985 points,  3 beta functions with: 
                l(1) =   1
                l(2) =   2
                l(3) =   2
     Q(r) pseudized with  8 coefficients,  rinner =    1.100   1.100   1.100
                                                       1.100   1.100

     PseudoPot. # 2 for H  read from file:
     /home/scc/andrejb/qe/pseudo/H.pbe-van_ak.UPF
     MD5 check sum: 403db7282739603aa925980fa9b8608d
     Pseudo is Ultrasoft, Zval =  1.0
     Generated by new atomic code, or converted to UPF format
     Using radial grid of  615 points,  1 beta functions with: 
                l(1) =   0
     Q(r) pseudized with  8 coefficients,  rinner =    0.800

     PseudoPot. # 3 for O  read from file:
     /home/scc/andrejb/qe/pseudo/O.pbe-van_ak.UPF
     MD5 check sum: 4b8c549914a63cae506c6ff22b5af4fe
     Pseudo is Ultrasoft, Zval =  6.0
     Generated by new atomic code, or converted to UPF format
     Using radial grid of  737 points,  4 beta functions with: 
                l(1) =   0
                l(2) =   0
                l(3) =   1
                l(4) =   1
     Q(r) pseudized with  8 coefficients,  rinner =    0.800   0.800   0.800


     vdW kernel table read from file vdW_kernel_table
     MD5 check sum: 48e77a2e26edf626eeb0eaa751ad5cac

     atomic species   valence    mass     pseudopotential
        Au            11.00   196.96657     Au( 1.00)
        H              1.00     1.01000     H ( 1.00)
        O              6.00    16.00000     O ( 1.00)

     No symmetry found



   Cartesian axes

     site n.     atom                  positions (alat units)
         1           O   tau(   1) = (   0.2673116   0.4310139   0.7288464  )
         2           H   tau(   2) = (   0.2499161   0.4165269   0.6559909  )
         3           H   tau(   3) = (   0.2174848   0.3895358   0.7690371  )
         4           Au  tau(   4) = (   0.0000000   0.0000000   0.0000000  )
         5           Au  tau(   5) = (   0.3332217   0.0000000   0.0000000  )
         6           Au  tau(   6) = (   0.6664434   0.0000000   0.0000000  )
         7           Au  tau(   7) = (   0.1666109   0.1666109   0.0000000  )
         8           Au  tau(   8) = (   0.4998326   0.1666109   0.0000000  )
         9           Au  tau(   9) = (   0.8330542   0.1666109   0.0000000  )
        10           Au  tau(  10) = (   0.0000000   0.3332217   0.0000000  )
        11           Au  tau(  11) = (   0.3332217   0.3332217   0.0000000  )
        12           Au  tau(  12) = (   0.6664434   0.3332217   0.0000000  )
        13           Au  tau(  13) = (   0.1666109   0.4998326   0.0000000  )
        14           Au  tau(  14) = (   0.4998326   0.4998326   0.0000000  )
        15           Au  tau(  15) = (   0.8330542   0.4998326   0.0000000  )
        16           Au  tau(  16) = (   0.0000000   0.6664434   0.0000000  )
        17           Au  tau(  17) = (   0.3332217   0.6664434   0.0000000  )
        18           Au  tau(  18) = (   0.6664434   0.6664434   0.0000000  )
        19           Au  tau(  19) = (   0.1666109   0.8330542   0.0000000  )
        20           Au  tau(  20) = (   0.4998326   0.8330542   0.0000000  )
        21           Au  tau(  21) = (   0.8330542   0.8330542   0.0000000  )
        22           Au  tau(  22) = (   0.1666109   0.0000000   0.1666109  )
        23           Au  tau(  23) = (   0.4998326   0.0000000   0.1666109  )
        24           Au  tau(  24) = (   0.8330542   0.0000000   0.1666109  )
        25           Au  tau(  25) = (   0.0000000   0.1666109   0.1666109  )
        26           Au  tau(  26) = (   0.3332217   0.1666109   0.1666109  )
        27           Au  tau(  27) = (   0.6664434   0.1666109   0.1666109  )
        28           Au  tau(  28) = (   0.1666109   0.3332217   0.1666109  )
        29           Au  tau(  29) = (   0.4998326   0.3332217   0.1666109  )
        30           Au  tau(  30) = (   0.8330542   0.3332217   0.1666109  )
        31           Au  tau(  31) = (   0.0000000   0.4998326   0.1666109  )
        32           Au  tau(  32) = (   0.3332217   0.4998326   0.1666109  )
        33           Au  tau(  33) = (   0.6664434   0.4998326   0.1666109  )
        34           Au  tau(  34) = (   0.1666109   0.6664434   0.1666109  )
        35           Au  tau(  35) = (   0.4998326   0.6664434   0.1666109  )
        36           Au  tau(  36) = (   0.8330542   0.6664434   0.1666109  )
        37           Au  tau(  37) = (   0.0000000   0.8330542   0.1666109  )
        38           Au  tau(  38) = (   0.3332217   0.8330542   0.1666109  )
        39           Au  tau(  39) = (   0.6664434   0.8330542   0.1666109  )
        40           Au  tau(  40) = (  -0.0000182  -0.0000182   0.3335478  )
        41           Au  tau(  41) = (   0.3332215  -0.0000181   0.3335473  )
        42           Au  tau(  42) = (   0.6664447  -0.0000183   0.3335481  )
        43           Au  tau(  43) = (  -0.0000181   0.3332215   0.3335473  )
        44           Au  tau(  44) = (   0.3332215   0.3332215   0.3335468  )
        45           Au  tau(  45) = (   0.6664445   0.3332215   0.3335477  )
        46           Au  tau(  46) = (  -0.0000183   0.6664447   0.3335481  )
        47           Au  tau(  47) = (   0.3332215   0.6664445   0.3335477  )
        48           Au  tau(  48) = (   0.6664446   0.6664446   0.3335486  )
        49           Au  tau(  49) = (   0.1666097   0.1666097   0.3335483  )
        50           Au  tau(  50) = (   0.4998320   0.1666098   0.3335477  )
        51           Au  tau(  51) = (   0.8330732   0.1666096   0.3335480  )
        52           Au  tau(  52) = (   0.1666098   0.4998320   0.3335477  )
        53           Au  tau(  53) = (   0.4998322   0.4998322   0.3335470  )
        54           Au  tau(  54) = (   0.8330731   0.4998322   0.3335474  )
        55           Au  tau(  55) = (   0.1666096   0.8330732   0.3335480  )
        56           Au  tau(  56) = (   0.4998322   0.8330731   0.3335474  )
        57           Au  tau(  57) = (   0.8330731   0.8330731   0.3335478  )
        58           Au  tau(  58) = (   0.1666104  -0.0000111   0.4993095  )
        59           Au  tau(  59) = (   0.4998323  -0.0000112   0.4993099  )
        60           Au  tau(  60) = (   0.8330660  -0.0000111   0.4993009  )
        61           Au  tau(  61) = (  -0.0000111   0.1666104   0.4993095  )
        62           Au  tau(  62) = (   0.3332213   0.1666106   0.4993185  )
        63           Au  tau(  63) = (   0.6664437   0.1666106   0.4993187  )
        64           Au  tau(  64) = (   0.1666106   0.3332213   0.4993185  )
        65           Au  tau(  65) = (   0.4998324   0.3332216   0.4993185  )
        66           Au  tau(  66) = (   0.8330658   0.3332215   0.4993102  )
        67           Au  tau(  67) = (  -0.0000112   0.4998323   0.4993099  )
        68           Au  tau(  68) = (   0.3332216   0.4998324   0.4993185  )
        69           Au  tau(  69) = (   0.6664437   0.4998325   0.4993187  )
        70           Au  tau(  70) = (   0.1666106   0.6664437   0.4993187  )
        71           Au  tau(  71) = (   0.4998325   0.6664437   0.4993187  )
        72           Au  tau(  72) = (   0.8330658   0.6664438   0.4993102  )
        73           Au  tau(  73) = (  -0.0000111   0.8330660   0.4993009  )
        74           Au  tau(  74) = (   0.3332215   0.8330658   0.4993102  )
        75           Au  tau(  75) = (   0.6664438   0.8330658   0.4993102  )

     number of k points=     6  Marzari-Vanderbilt smearing, width (Ry)=  0.0200
                       cart. coord. in units 2pi/alat
        k(    1) = (   0.2500000   0.2500000   0.0833333), wk =   0.3333333
        k(    2) = (   0.2500000   0.2500000  -0.2500000), wk =   0.3333333
        k(    3) = (  -0.2500000  -0.2500000   0.0833333), wk =   0.3333333
        k(    4) = (  -0.2500000   0.2500000  -0.0833333), wk =   0.3333333
        k(    5) = (   0.2500000  -0.2500000  -0.0833333), wk =   0.3333333
        k(    6) = (  -0.2500000   0.2500000   0.2500000), wk =   0.3333333

     Dense  grid:  3792731 G-vectors     FFT dimensions: ( 160, 160, 320)

     Smooth grid:  1341081 G-vectors     FFT dimensions: ( 120, 120, 225)

     Largest allocated arrays     est. size (Mb)     dimensions
        Kohn-Sham Wavefunctions        38.58 Mb     (    5267,  480)
        NL pseudopotentials            76.03 Mb     (    5267,  946)
        Each V/rho on FFT grid          3.91 Mb     (  256000)
        Each G-vector array             0.90 Mb     (  118520)
        G-vector shells                 0.08 Mb     (   10286)
     Largest temporary arrays     est. size (Mb)     dimensions
        Auxiliary wavefunctions       154.31 Mb     (    5267, 1920)
        Each subspace H/S matrix       56.25 Mb     (    1920, 1920)
        Each <psi_i|beta_j> matrix      6.93 Mb     (     946,  480)
        Arrays for rho mixing          31.25 Mb     (  256000,    8)

     Initial potential from superposition of free atoms
     Check: negative starting charge=   -1.945151

     starting charge  799.16392, renormalised to  800.00000

     negative rho (up, down):  1.947E+00 0.000E+00


     ************************************************************************
     *
     * You are using vdW-DF for exchange-correlation in this calculation.
     * Please cite the following three references that made this development
     * possible:
     *
     *   M. Dion, H. Rydberg, E. Schroder, D. C. Langreth, and
     *   B. I. Lundqvist, Phys. Rev. Lett. 92, 246401 (2004).
     *
     *   T. Thonhauser, V. R. Cooper, S. Li, A. Puzder, P. Hyldgaard, and
     *   D. C. Langreth, Phys. Rev. B 76, 125112 (2007).
     *
     *   G. Roman-Perez and J. M. Soler, Phys. Rev. Lett. 103, 096102 (2009).
     *
     *
     * If you are using vdW-DF2, please also cite:
     *
     *   K. Lee, E. D. Murray, L. Kong, B. I. Lundqvist, and
     *   D. C. Langreth, Phys. Rev. B 82, 081101(R) (2010).
     *
     *
     * If you are calculating the stress with vdW-DF, please also cite:
     *
     *   R. Sabatini, E. Kucukbenli, B. Kolb, T. Thonhauser, and
     *   S. de Gironcoli, J. Phys.: Condens. Matter 24, 424209 (2012).
     *
     ************************************************************************

     Carrying out vdW-DF run using the following parameters:

     Nqs =      20    Nr_points =    1024   r_max =   100.000
     q_mesh =
               0.00001000     0.04494208     0.09755937     0.15916263
               0.23128650     0.31572767     0.41458969     0.53033537
               0.66584808     0.82450364     1.01025438     1.22772762
               1.48234092     1.78043706     2.12944203     2.53805004
               3.01644009     3.57652955     4.23227104     5.00000000

     Gradients computed in reciprocal space

     ************************************************************************


     Starting wfc are  654 randomized atomic wfcs

     total cpu time spent up to now is      154.1 secs

     Self-consistent Calculation

     iteration #  1     ecut=    50.00 Ry     beta=0.70
     Davidson diagonalization with overlap
     ethr =  1.00E-02,  avg # of iterations =  3.0

     Threshold (ethr) on eigenvalues was too large:
     Diagonalizing with lowered threshold

     Davidson diagonalization with overlap
     ethr =  4.16E-04,  avg # of iterations =  2.0

     negative rho (up, down):  1.947E+00 0.000E+00

     total cpu time spent up to now is      719.0 secs

     total energy              =   -7423.06502370 Ry
     Harris-Foulkes estimate   =   -7426.05783310 Ry
     estimated scf accuracy    <       3.69940231 Ry

     iteration #  2     ecut=    50.00 Ry     beta=0.70
     Davidson diagonalization with overlap
     ethr =  4.62E-04,  avg # of iterations = 11.3

     negative rho (up, down):  1.943E+00 0.000E+00

     total cpu time spent up to now is     1819.2 secs

     total energy              =   -7415.46782455 Ry
     Harris-Foulkes estimate   =   -7432.46022950 Ry
     estimated scf accuracy    <      87.74221381 Ry

     iteration #  3     ecut=    50.00 Ry     beta=0.70
     Davidson diagonalization with overlap
     ethr =  4.62E-04,  avg # of iterations =  6.0

     negative rho (up, down):  1.953E+00 0.000E+00

     total cpu time spent up to now is     2453.8 secs

     total energy              =   -7424.09533028 Ry
     Harris-Foulkes estimate   =   -7425.87430038 Ry
     estimated scf accuracy    <       7.47447300 Ry

     iteration #  4     ecut=    50.00 Ry     beta=0.70
     Davidson diagonalization with overlap
     ethr =  4.62E-04,  avg # of iterations =  5.7

     negative rho (up, down):  1.956E+00 0.000E+00

     total cpu time spent up to now is     2815.5 secs

     total energy              =   -7424.88460054 Ry
     Harris-Foulkes estimate   =   -7425.63141810 Ry
     estimated scf accuracy    <       3.71576055 Ry

     iteration #  5     ecut=    50.00 Ry     beta=0.70
     Davidson diagonalization with overlap
     ethr =  4.62E-04,  avg # of iterations =  6.0

     negative rho (up, down):  1.963E+00 0.000E+00

     total cpu time spent up to now is     3168.5 secs

     total energy              =   -7425.04286638 Ry
     Harris-Foulkes estimate   =   -7425.59733142 Ry
     estimated scf accuracy    <       4.33305214 Ry

     iteration #  6     ecut=    50.00 Ry     beta=0.70
     Davidson diagonalization with overlap
     ethr =  4.62E-04,  avg # of iterations =  3.3

     negative rho (up, down):  1.967E+00 0.000E+00

     total cpu time spent up to now is     3489.0 secs

     total energy              =   -7425.27387851 Ry
     Harris-Foulkes estimate   =   -7425.33113002 Ry
     estimated scf accuracy    <       0.20661454 Ry

     iteration #  7     ecut=    50.00 Ry     beta=0.70
     Davidson diagonalization with overlap
     ethr =  2.58E-05,  avg # of iterations =  5.8

     negative rho (up, down):  1.970E+00 0.000E+00

     total cpu time spent up to now is     3880.9 secs

     total energy              =   -7425.27788027 Ry
     Harris-Foulkes estimate   =   -7425.32531886 Ry
     estimated scf accuracy    <       0.24996801 Ry

     iteration #  8     ecut=    50.00 Ry     beta=0.70
     Davidson diagonalization with overlap
     ethr =  2.58E-05,  avg # of iterations =  4.2

     negative rho (up, down):  1.971E+00 0.000E+00

     total cpu time spent up to now is     4196.9 secs

     total energy              =   -7425.28654595 Ry
     Harris-Foulkes estimate   =   -7425.30608057 Ry
     estimated scf accuracy    <       0.08506447 Ry

     iteration #  9     ecut=    50.00 Ry     beta=0.70
     Davidson diagonalization with overlap
     ethr =  1.06E-05,  avg # of iterations = 12.0

     negative rho (up, down):  1.972E+00 0.000E+00

     total cpu time spent up to now is     4668.6 secs

     total energy              =   -7425.28686568 Ry
     Harris-Foulkes estimate   =   -7425.29769603 Ry
     estimated scf accuracy    <       0.03840559 Ry

     iteration # 10     ecut=    50.00 Ry     beta=0.70
     Davidson diagonalization with overlap
     ethr =  4.80E-06,  avg # of iterations =  6.0

     negative rho (up, down):  1.973E+00 0.000E+00

     total cpu time spent up to now is     5030.7 secs

     total energy              =   -7425.28768399 Ry
     Harris-Foulkes estimate   =   -7425.29126107 Ry
     estimated scf accuracy    <       0.01130564 Ry

     iteration # 11     ecut=    50.00 Ry     beta=0.70
     Davidson diagonalization with overlap
     ethr =  1.41E-06,  avg # of iterations =  7.8

     negative rho (up, down):  1.974E+00 0.000E+00

     total cpu time spent up to now is     5446.4 secs

     total energy              =   -7425.28782126 Ry
     Harris-Foulkes estimate   =   -7425.28928286 Ry
     estimated scf accuracy    <       0.00501776 Ry

     iteration # 12     ecut=    50.00 Ry     beta=0.70
     Davidson diagonalization with overlap
     ethr =  6.27E-07,  avg # of iterations =  3.0

     negative rho (up, down):  1.974E+00 0.000E+00

     total cpu time spent up to now is     5765.0 secs

     total energy              =   -7425.28712704 Ry
     Harris-Foulkes estimate   =   -7425.28836805 Ry
     estimated scf accuracy    <       0.00194302 Ry

     iteration # 13     ecut=    50.00 Ry     beta=0.70
     Davidson diagonalization with overlap
     ethr =  2.43E-07,  avg # of iterations =  6.0

     negative rho (up, down):  1.974E+00 0.000E+00

     total cpu time spent up to now is     6316.7 secs

     total energy              =   -7425.28607488 Ry
     Harris-Foulkes estimate   =   -7425.28960915 Ry
     estimated scf accuracy    <       0.01837182 Ry

     iteration # 14     ecut=    50.00 Ry     beta=0.70
     Davidson diagonalization with overlap
     ethr =  2.43E-07,  avg # of iterations =  3.0

     negative rho (up, down):  1.974E+00 0.000E+00

     total cpu time spent up to now is     6732.4 secs

     total energy              =   -7425.28765897 Ry
     Harris-Foulkes estimate   =   -7425.28795243 Ry
     estimated scf accuracy    <       0.00114653 Ry

     iteration # 15     ecut=    50.00 Ry     beta=0.70
     Davidson diagonalization with overlap
     ethr =  1.43E-07,  avg # of iterations =  2.0

     negative rho (up, down):  1.974E+00 0.000E+00

     total cpu time spent up to now is     7025.0 secs

     total energy              =   -7425.28768000 Ry
     Harris-Foulkes estimate   =   -7425.28792299 Ry
     estimated scf accuracy    <       0.00133382 Ry

     iteration # 16     ecut=    50.00 Ry     beta=0.70
     Davidson diagonalization with overlap
     ethr =  1.43E-07,  avg # of iterations =  2.0

     negative rho (up, down):  1.974E+00 0.000E+00

     total cpu time spent up to now is     7304.8 secs

     total energy              =   -7425.28773370 Ry
     Harris-Foulkes estimate   =   -7425.28794389 Ry
     estimated scf accuracy    <       0.00164931 Ry

     iteration # 17     ecut=    50.00 Ry     beta=0.70
     Davidson diagonalization with overlap
     ethr =  1.43E-07,  avg # of iterations =  1.0

     negative rho (up, down):  1.974E+00 0.000E+00

     total cpu time spent up to now is     7583.8 secs

     total energy              =   -7425.28781691 Ry
     Harris-Foulkes estimate   =   -7425.28785398 Ry
     estimated scf accuracy    <       0.00015069 Ry

     iteration # 18     ecut=    50.00 Ry     beta=0.70
     Davidson diagonalization with overlap
     ethr =  1.88E-08,  avg # of iterations =  2.0

     negative rho (up, down):  1.974E+00 0.000E+00

     total cpu time spent up to now is     7879.0 secs

     total energy              =   -7425.28783463 Ry
     Harris-Foulkes estimate   =   -7425.28784233 Ry
     estimated scf accuracy    <       0.00003318 Ry

     iteration # 19     ecut=    50.00 Ry     beta=0.70
     Davidson diagonalization with overlap
     ethr =  4.15E-09,  avg # of iterations =  2.0

     negative rho (up, down):  1.974E+00 0.000E+00

     total cpu time spent up to now is     8182.0 secs

     total energy              =   -7425.28783742 Ry
     Harris-Foulkes estimate   =   -7425.28784082 Ry
     estimated scf accuracy    <       0.00001340 Ry

     iteration # 20     ecut=    50.00 Ry     beta=0.70
     Davidson diagonalization with overlap
     ethr =  1.68E-09,  avg # of iterations =  2.0

     negative rho (up, down):  1.974E+00 0.000E+00

     total cpu time spent up to now is     8478.3 secs

     total energy              =   -7425.28783886 Ry
     Harris-Foulkes estimate   =   -7425.28784010 Ry
     estimated scf accuracy    <       0.00000444 Ry

     iteration # 21     ecut=    50.00 Ry     beta=0.70
     Davidson diagonalization with overlap
     ethr =  5.55E-10,  avg # of iterations =  2.0

     negative rho (up, down):  1.974E+00 0.000E+00

     total cpu time spent up to now is     8779.9 secs

     total energy              =   -7425.28783954 Ry
     Harris-Foulkes estimate   =   -7425.28783966 Ry
     estimated scf accuracy    <       0.00000059 Ry

     iteration # 22     ecut=    50.00 Ry     beta=0.70
     Davidson diagonalization with overlap
     ethr =  7.37E-11,  avg # of iterations =  3.0

     negative rho (up, down):  1.974E+00 0.000E+00

     total cpu time spent up to now is     9126.0 secs

     total energy              =   -7425.28783966 Ry
     Harris-Foulkes estimate   =   -7425.28783974 Ry
     estimated scf accuracy    <       0.00000036 Ry

     iteration # 23     ecut=    50.00 Ry     beta=0.70
     Davidson diagonalization with overlap
     ethr =  4.56E-11,  avg # of iterations =  3.0

     negative rho (up, down):  1.974E+00 0.000E+00

     total cpu time spent up to now is     9451.3 secs

     total energy              =   -7425.28783967 Ry
     Harris-Foulkes estimate   =   -7425.28783975 Ry
     estimated scf accuracy    <       0.00000028 Ry

     iteration # 24     ecut=    50.00 Ry     beta=0.70
     Davidson diagonalization with overlap
     ethr =  3.44E-11,  avg # of iterations =  2.0

     negative rho (up, down):  1.974E+00 0.000E+00

     total cpu time spent up to now is     9738.7 secs

     total energy              =   -7425.28783972 Ry
     Harris-Foulkes estimate   =   -7425.28783973 Ry
     estimated scf accuracy    <       0.00000016 Ry

     iteration # 25     ecut=    50.00 Ry     beta=0.70
     Davidson diagonalization with overlap
     ethr =  1.97E-11,  avg # of iterations =  2.0

     negative rho (up, down):  1.974E+00 0.000E+00

     total cpu time spent up to now is    10041.5 secs

     total energy              =   -7425.28783975 Ry
     Harris-Foulkes estimate   =   -7425.28783974 Ry
     estimated scf accuracy    <       0.00000005 Ry

     iteration # 26     ecut=    50.00 Ry     beta=0.70
     Davidson diagonalization with overlap
     ethr =  6.39E-12,  avg # of iterations =  2.0

     negative rho (up, down):  1.974E+00 0.000E+00

     total cpu time spent up to now is    10336.0 secs

     total energy              =   -7425.28783975 Ry
     Harris-Foulkes estimate   =   -7425.28783976 Ry
     estimated scf accuracy    <       0.00000007 Ry

     iteration # 27     ecut=    50.00 Ry     beta=0.70
     Davidson diagonalization with overlap
     ethr =  6.39E-12,  avg # of iterations =  2.0

     negative rho (up, down):  1.974E+00 0.000E+00

     total cpu time spent up to now is    10611.3 secs

     total energy              =   -7425.28783975 Ry
     Harris-Foulkes estimate   =   -7425.28783976 Ry
     estimated scf accuracy    <       0.00000003 Ry

     iteration # 28     ecut=    50.00 Ry     beta=0.70
     Davidson diagonalization with overlap
     ethr =  3.83E-12,  avg # of iterations =  2.0

     negative rho (up, down):  1.974E+00 0.000E+00

     total cpu time spent up to now is    10906.4 secs

     total energy              =   -7425.28783975 Ry
     Harris-Foulkes estimate   =   -7425.28783976 Ry
     estimated scf accuracy    <       0.00000003 Ry

     iteration # 29     ecut=    50.00 Ry     beta=0.70
     Davidson diagonalization with overlap
     ethr =  3.83E-12,  avg # of iterations =  2.0

     negative rho (up, down):  1.974E+00 0.000E+00

     total cpu time spent up to now is    11185.1 secs

     End of self-consistent calculation

          k = 0.2500 0.2500 0.0833 (167653 PWs)   bands (ev):

   -19.2113  -7.1800  -6.8625  -6.3369  -6.3366  -5.9082  -5.4984  -5.4071
    -5.4051  -5.2104  -5.2095  -5.0929  -5.0910  -5.0137  -4.9909  -4.9179
    -4.8330  -4.8291  -4.7908  -4.7897  -4.6299  -4.6131  -4.6121  -4.6105
    -4.6041  -4.5488  -4.5485  -4.5377  -4.5357  -4.4999  -4.4889  -4.4858
    -4.4453  -4.4446  -4.4117  -4.4101  -4.3618  -4.3570  -4.3482  -4.3465
    -4.3406  -4.3278  -4.3274  -4.2872  -4.2689  -4.2678  -4.2614  -4.2606
    -4.2293  -4.1809  -4.1666  -4.1645  -4.1630  -4.1588  -4.1522  -4.1474
    -4.1464  -4.1455  -4.0865  -4.0797  -4.0342  -4.0300  -4.0190  -3.9957
    -3.9922  -3.9759  -3.9699  -3.9692  -3.9653  -3.9629  -3.9137  -3.9131
    -3.9015  -3.8995  -3.7982  -3.7939  -3.7925  -3.7874  -3.7513  -3.7468
    -3.7276  -3.6987  -3.6985  -3.6704  -3.6681  -3.6524  -3.6473  -3.6359
    -3.6328  -3.5811  -3.5783  -3.5626  -3.5455  -3.5369  -3.5344  -3.5324
    -3.5311  -3.5088  -3.5036  -3.4686  -3.4674  -3.4491  -3.4479  -3.4157
    -3.4141  -3.3988  -3.3689  -3.3668  -3.3572  -3.3290  -3.3273  -3.2892
    -3.2843  -3.2841  -3.2698  -3.2667  -3.2645  -3.2559  -3.2294  -3.2154
    -3.1763  -3.1757  -3.1671  -3.1590  -3.1571  -3.1555  -3.1321  -3.1318
    -3.1126  -3.1102  -3.1086  -3.0830  -3.0823  -3.0754  -3.0737  -3.0702
    -3.0362  -3.0338  -2.9978  -2.9958  -2.9944  -2.9940  -2.9919  -2.9130
    -2.9034  -2.9022  -2.8997  -2.8977  -2.8967  -2.8946  -2.8919  -2.8916
    -2.8911  -2.8820  -2.8742  -2.8582  -2.8551  -2.8533  -2.8532  -2.8392
    -2.8356  -2.7974  -2.7969  -2.7956  -2.7905  -2.7900  -2.7737  -2.7721
    -2.7652  -2.7637  -2.7615  -2.7033  -2.7029  -2.6973  -2.6965  -2.6929
    -2.6909  -2.6632  -2.6050  -2.6044  -2.6037  -2.6005  -2.5896  -2.5885
    -2.5832  -2.5737  -2.5713  -2.5372  -2.5334  -2.5285  -2.5280  -2.5240
    -2.5232  -2.4865  -2.4853  -2.4760  -2.4750  -2.4744  -2.4726  -2.4305
    -2.4148  -2.4085  -2.3581  -2.3556  -2.3384  -2.3374  -2.3318  -2.3294
    -2.2841  -2.2807  -2.2591  -2.2452  -2.2309  -2.2287  -2.2262  -2.2065
    -2.2047  -2.1961  -2.1791  -2.1468  -2.1388  -2.1259  -2.1220  -2.1218
    -2.1159  -2.1116  -2.1050  -2.0967  -2.0964  -2.0919  -2.0881  -2.0860
    -2.0847  -2.0774  -2.0732  -2.0571  -2.0562  -2.0545  -2.0493  -2.0461
    -2.0437  -2.0237  -2.0197  -2.0100  -2.0090  -2.0025  -2.0017  -1.9644
    -1.9323  -1.9298  -1.8956  -1.8795  -1.8780  -1.8736  -1.8648  -1.8435
    -1.8427  -1.8349  -1.8295  -1.8276  -1.8264  -1.8256  -1.8215  -1.7912
    -1.7904  -1.7900  -1.7454  -1.7443  -1.7091  -1.7026  -1.6585  -1.6568
    -1.6445  -1.6226  -1.6178  -1.6148  -1.5997  -1.5989  -1.5817  -1.5780
    -1.5769  -1.5740  -1.5730  -1.5723  -1.5713  -1.5708  -1.5510  -1.5480
    -1.5376  -1.5220  -1.5039  -1.5032  -1.4781  -1.4747  -1.4741  -1.4713
    -1.4679  -1.4646  -1.4505  -1.4434  -1.4297  -1.4273  -1.4168  -1.4077
    -1.3947  -1.3907  -1.3640  -1.3609  -1.3570  -1.3521  -1.3212  -1.3205
    -1.3099  -1.3078  -1.3015  -1.3008  -1.2810  -1.2777  -1.2701  -1.2624
    -1.2589  -1.2553  -1.2476  -1.2452  -1.2442  -1.2365  -1.2316  -1.2212
    -1.2175  -1.2133  -1.2099  -1.1998  -1.1979  -1.1893  -1.1765  -1.1485
    -1.1474  -1.1438  -1.1414  -1.1394  -1.1333  -1.1011  -1.0848  -1.0824
    -1.0822  -1.0810  -1.0766  -1.0736  -1.0650  -1.0601  -1.0569  -1.0226
    -1.0202  -1.0139  -1.0135  -0.9923  -0.9907  -0.9814  -0.9521  -0.9437
    -0.9191  -0.9150  -0.8896  -0.8887  -0.8850  -0.8850  -0.8826  -0.8784
    -0.8745  -0.8743  -0.8715  -0.8684  -0.8388  -0.8364  -0.8174  -0.8169
    -0.8156  -0.8123  -0.8113  -0.8073  -0.7932  -0.5208  -0.5062  -0.4474
    -0.4460  -0.4120  -0.2525  -0.1882  -0.1845  -0.1506   0.1332   0.1351
     0.4645   0.4671   0.5598   0.5631   0.5998   0.6054   0.7472   0.7526
     0.8705   0.8738   0.9671   1.5585   1.5756   1.5778   1.6168   1.6219
     1.6705   1.6743   1.7448   1.7502   1.9497   1.9555   2.1938   2.2657
     2.2728   2.2850   2.6683   2.6724   2.7370   2.7399   2.7451   2.7486
     2.8954   2.8994   2.9590   3.0389   3.0486   3.2715   3.2745   3.4066
     3.4319   3.4386   3.7046   3.7116   3.8239   3.8375   3.8402   3.9206
     3.9325   4.0183   4.0286   4.2566   4.2643   4.3531   4.3582   4.4760
     4.4768   4.5043   4.5067   4.6737   5.1828   5.3177   5.3394   5.4025
     5.4094   5.5389   5.5815   5.5911   5.6558   5.7025   5.7063   5.7159
     5.7404   5.7427   5.7588   5.7993   6.0122   6.0660   6.0799   6.0842
     6.0950   6.1025   6.1032   6.1093   6.1116   6.1493   6.1914   6.1955

          k = 0.2500 0.2500-0.2500 (167588 PWs)   bands (ev):

   -19.2113  -7.1800  -6.8625  -6.3369  -6.3366  -5.9082  -5.4984  -5.4071
    -5.4051  -5.2104  -5.2095  -5.0929  -5.0910  -5.0137  -4.9909  -4.9179
    -4.8330  -4.8291  -4.7908  -4.7897  -4.6299  -4.6131  -4.6121  -4.6105
    -4.6041  -4.5488  -4.5485  -4.5377  -4.5357  -4.4999  -4.4889  -4.4858
    -4.4453  -4.4446  -4.4117  -4.4101  -4.3618  -4.3570  -4.3482  -4.3465
    -4.3406  -4.3278  -4.3274  -4.2872  -4.2689  -4.2678  -4.2614  -4.2606
    -4.2293  -4.1809  -4.1666  -4.1645  -4.1630  -4.1588  -4.1522  -4.1474
    -4.1464  -4.1455  -4.0865  -4.0797  -4.0342  -4.0300  -4.0190  -3.9957
    -3.9922  -3.9758  -3.9699  -3.9692  -3.9653  -3.9629  -3.9137  -3.9131
    -3.9014  -3.8995  -3.7982  -3.7939  -3.7925  -3.7875  -3.7513  -3.7468
    -3.7276  -3.6987  -3.6985  -3.6704  -3.6681  -3.6525  -3.6473  -3.6359
    -3.6327  -3.5811  -3.5783  -3.5626  -3.5455  -3.5369  -3.5344  -3.5324
    -3.5311  -3.5088  -3.5036  -3.4686  -3.4674  -3.4491  -3.4479  -3.4157
    -3.4141  -3.3988  -3.3689  -3.3667  -3.3572  -3.3289  -3.3272  -3.2892
    -3.2843  -3.2841  -3.2698  -3.2667  -3.2645  -3.2559  -3.2294  -3.2154
    -3.1763  -3.1757  -3.1671  -3.1590  -3.1571  -3.1555  -3.1321  -3.1318
    -3.1126  -3.1102  -3.1086  -3.0830  -3.0822  -3.0754  -3.0737  -3.0701
    -3.0362  -3.0338  -2.9978  -2.9958  -2.9944  -2.9940  -2.9919  -2.9130
    -2.9034  -2.9022  -2.8997  -2.8977  -2.8967  -2.8946  -2.8919  -2.8916
    -2.8911  -2.8820  -2.8742  -2.8582  -2.8551  -2.8533  -2.8532  -2.8392
    -2.8356  -2.7974  -2.7969  -2.7956  -2.7905  -2.7900  -2.7737  -2.7721
    -2.7652  -2.7637  -2.7615  -2.7033  -2.7029  -2.6973  -2.6965  -2.6929
    -2.6909  -2.6632  -2.6050  -2.6044  -2.6037  -2.6005  -2.5897  -2.5885
    -2.5832  -2.5737  -2.5713  -2.5372  -2.5334  -2.5285  -2.5280  -2.5240
    -2.5232  -2.4865  -2.4853  -2.4760  -2.4750  -2.4744  -2.4726  -2.4305
    -2.4148  -2.4085  -2.3581  -2.3556  -2.3385  -2.3374  -2.3318  -2.3294
    -2.2841  -2.2807  -2.2591  -2.2452  -2.2309  -2.2287  -2.2262  -2.2065
    -2.2047  -2.1961  -2.1791  -2.1468  -2.1388  -2.1259  -2.1220  -2.1218
    -2.1159  -2.1116  -2.1050  -2.0967  -2.0964  -2.0919  -2.0881  -2.0860
    -2.0847  -2.0774  -2.0732  -2.0571  -2.0562  -2.0545  -2.0494  -2.0461
    -2.0437  -2.0237  -2.0197  -2.0100  -2.0090  -2.0025  -2.0017  -1.9644
    -1.9323  -1.9298  -1.8956  -1.8795  -1.8780  -1.8736  -1.8648  -1.8435
    -1.8427  -1.8349  -1.8295  -1.8276  -1.8264  -1.8256  -1.8215  -1.7912
    -1.7904  -1.7900  -1.7454  -1.7443  -1.7091  -1.7026  -1.6585  -1.6568
    -1.6445  -1.6226  -1.6178  -1.6148  -1.5997  -1.5989  -1.5817  -1.5780
    -1.5769  -1.5740  -1.5730  -1.5723  -1.5713  -1.5708  -1.5510  -1.5480
    -1.5376  -1.5220  -1.5039  -1.5032  -1.4781  -1.4747  -1.4741  -1.4713
    -1.4679  -1.4646  -1.4505  -1.4434  -1.4297  -1.4273  -1.4168  -1.4077
    -1.3947  -1.3907  -1.3640  -1.3609  -1.3570  -1.3521  -1.3212  -1.3205
    -1.3099  -1.3078  -1.3015  -1.3008  -1.2810  -1.2777  -1.2701  -1.2624
    -1.2589  -1.2553  -1.2476  -1.2452  -1.2442  -1.2365  -1.2316  -1.2212
    -1.2175  -1.2133  -1.2099  -1.1998  -1.1979  -1.1893  -1.1765  -1.1485
    -1.1474  -1.1438  -1.1414  -1.1394  -1.1333  -1.1011  -1.0848  -1.0824
    -1.0822  -1.0810  -1.0766  -1.0736  -1.0650  -1.0601  -1.0569  -1.0226
    -1.0202  -1.0139  -1.0135  -0.9923  -0.9907  -0.9814  -0.9521  -0.9437
    -0.9191  -0.9150  -0.8896  -0.8887  -0.8850  -0.8850  -0.8827  -0.8784
    -0.8745  -0.8743  -0.8715  -0.8684  -0.8388  -0.8364  -0.8174  -0.8169
    -0.8156  -0.8123  -0.8113  -0.8072  -0.7932  -0.5208  -0.5062  -0.4474
    -0.4460  -0.4120  -0.2525  -0.1882  -0.1845  -0.1506   0.1332   0.1351
     0.4645   0.4671   0.5598   0.5631   0.5998   0.6054   0.7472   0.7526
     0.8705   0.8738   0.9671   1.5585   1.5756   1.5778   1.6168   1.6219
     1.6705   1.6743   1.7448   1.7502   1.9497   1.9555   2.1938   2.2657
     2.2728   2.2850   2.6683   2.6724   2.7370   2.7399   2.7451   2.7486
     2.8954   2.8994   2.9590   3.0389   3.0486   3.2715   3.2745   3.4066
     3.4319   3.4386   3.7046   3.7116   3.8239   3.8375   3.8402   3.9207
     3.9325   4.0183   4.0286   4.2566   4.2643   4.3531   4.3582   4.4760
     4.4768   4.5043   4.5067   4.6738   5.1730   5.3179   5.3330   5.4017
     5.4094   5.5434   5.5823   5.5911   5.6635   5.7048   5.7059   5.7237
     5.7396   5.7587   5.7669   5.7995   6.0322   6.0689   6.0805   6.0835
     6.0957   6.1023   6.1037   6.1090   6.1121   6.1438   6.1871   6.2319

          k =-0.2500-0.2500 0.0833 (167653 PWs)   bands (ev):

   -19.2113  -7.1800  -6.8625  -6.3369  -6.3366  -5.9082  -5.4984  -5.4071
    -5.4051  -5.2104  -5.2095  -5.0929  -5.0910  -5.0137  -4.9909  -4.9179
    -4.8330  -4.8291  -4.7908  -4.7897  -4.6299  -4.6131  -4.6121  -4.6105
    -4.6041  -4.5488  -4.5485  -4.5377  -4.5357  -4.4999  -4.4889  -4.4858
    -4.4453  -4.4446  -4.4117  -4.4101  -4.3618  -4.3570  -4.3482  -4.3465
    -4.3406  -4.3278  -4.3274  -4.2872  -4.2689  -4.2678  -4.2614  -4.2606
    -4.2293  -4.1809  -4.1666  -4.1645  -4.1630  -4.1588  -4.1522  -4.1474
    -4.1464  -4.1455  -4.0865  -4.0797  -4.0342  -4.0300  -4.0190  -3.9957
    -3.9922  -3.9759  -3.9699  -3.9692  -3.9653  -3.9629  -3.9137  -3.9131
    -3.9015  -3.8995  -3.7982  -3.7939  -3.7925  -3.7874  -3.7513  -3.7468
    -3.7276  -3.6987  -3.6985  -3.6704  -3.6681  -3.6524  -3.6473  -3.6359
    -3.6328  -3.5811  -3.5783  -3.5626  -3.5455  -3.5369  -3.5344  -3.5324
    -3.5311  -3.5088  -3.5036  -3.4686  -3.4674  -3.4491  -3.4479  -3.4157
    -3.4141  -3.3988  -3.3689  -3.3668  -3.3572  -3.3290  -3.3273  -3.2892
    -3.2843  -3.2841  -3.2698  -3.2667  -3.2645  -3.2559  -3.2294  -3.2154
    -3.1763  -3.1757  -3.1671  -3.1590  -3.1571  -3.1555  -3.1321  -3.1318
    -3.1126  -3.1102  -3.1086  -3.0830  -3.0823  -3.0754  -3.0737  -3.0702
    -3.0362  -3.0338  -2.9978  -2.9958  -2.9944  -2.9940  -2.9919  -2.9130
    -2.9034  -2.9022  -2.8997  -2.8977  -2.8967  -2.8946  -2.8919  -2.8916
    -2.8911  -2.8820  -2.8742  -2.8582  -2.8551  -2.8533  -2.8532  -2.8392
    -2.8356  -2.7974  -2.7969  -2.7956  -2.7905  -2.7900  -2.7737  -2.7721
    -2.7652  -2.7637  -2.7615  -2.7033  -2.7029  -2.6973  -2.6965  -2.6929
    -2.6909  -2.6632  -2.6050  -2.6044  -2.6037  -2.6005  -2.5896  -2.5885
    -2.5832  -2.5737  -2.5713  -2.5372  -2.5334  -2.5285  -2.5280  -2.5240
    -2.5232  -2.4865  -2.4853  -2.4760  -2.4750  -2.4744  -2.4726  -2.4305
    -2.4148  -2.4085  -2.3581  -2.3556  -2.3384  -2.3374  -2.3318  -2.3294
    -2.2841  -2.2807  -2.2591  -2.2452  -2.2309  -2.2287  -2.2262  -2.2065
    -2.2047  -2.1961  -2.1791  -2.1468  -2.1388  -2.1259  -2.1220  -2.1218
    -2.1159  -2.1116  -2.1050  -2.0967  -2.0964  -2.0919  -2.0881  -2.0860
    -2.0847  -2.0774  -2.0732  -2.0571  -2.0562  -2.0545  -2.0493  -2.0461
    -2.0437  -2.0237  -2.0197  -2.0100  -2.0090  -2.0025  -2.0017  -1.9644
    -1.9323  -1.9298  -1.8956  -1.8795  -1.8780  -1.8736  -1.8648  -1.8435
    -1.8427  -1.8349  -1.8295  -1.8276  -1.8264  -1.8256  -1.8215  -1.7912
    -1.7904  -1.7900  -1.7454  -1.7443  -1.7091  -1.7026  -1.6585  -1.6568
    -1.6445  -1.6226  -1.6178  -1.6148  -1.5997  -1.5989  -1.5817  -1.5780
    -1.5769  -1.5740  -1.5730  -1.5723  -1.5713  -1.5708  -1.5510  -1.5480
    -1.5376  -1.5220  -1.5039  -1.5032  -1.4781  -1.4747  -1.4741  -1.4713
    -1.4679  -1.4646  -1.4505  -1.4434  -1.4297  -1.4273  -1.4168  -1.4077
    -1.3947  -1.3907  -1.3640  -1.3609  -1.3570  -1.3521  -1.3212  -1.3205
    -1.3099  -1.3078  -1.3015  -1.3008  -1.2810  -1.2777  -1.2701  -1.2624
    -1.2589  -1.2553  -1.2476  -1.2452  -1.2442  -1.2365  -1.2316  -1.2212
    -1.2175  -1.2133  -1.2099  -1.1998  -1.1979  -1.1893  -1.1765  -1.1485
    -1.1474  -1.1438  -1.1414  -1.1394  -1.1333  -1.1011  -1.0848  -1.0824
    -1.0822  -1.0810  -1.0766  -1.0736  -1.0650  -1.0601  -1.0569  -1.0226
    -1.0202  -1.0139  -1.0135  -0.9923  -0.9907  -0.9814  -0.9521  -0.9437
    -0.9191  -0.9150  -0.8896  -0.8887  -0.8850  -0.8850  -0.8826  -0.8784
    -0.8745  -0.8743  -0.8715  -0.8684  -0.8388  -0.8364  -0.8174  -0.8169
    -0.8156  -0.8123  -0.8113  -0.8073  -0.7932  -0.5208  -0.5062  -0.4474
    -0.4460  -0.4120  -0.2525  -0.1882  -0.1845  -0.1506   0.1332   0.1351
     0.4645   0.4671   0.5598   0.5631   0.5998   0.6054   0.7472   0.7526
     0.8705   0.8738   0.9671   1.5585   1.5756   1.5778   1.6168   1.6219
     1.6705   1.6743   1.7448   1.7502   1.9497   1.9555   2.1938   2.2657
     2.2728   2.2850   2.6683   2.6724   2.7370   2.7399   2.7451   2.7486
     2.8954   2.8994   2.9590   3.0389   3.0486   3.2715   3.2745   3.4066
     3.4319   3.4386   3.7046   3.7116   3.8239   3.8375   3.8402   3.9206
     3.9325   4.0183   4.0286   4.2566   4.2643   4.3531   4.3582   4.4760
     4.4768   4.5043   4.5067   4.6737   5.1823   5.3177   5.3407   5.4024
     5.4094   5.5348   5.5813   5.5911   5.6571   5.7034   5.7064   5.7203
     5.7403   5.7427   5.7588   5.7992   6.0138   6.0662   6.0801   6.0836
     6.0954   6.1012   6.1028   6.1092   6.1119   6.1495   6.1821   6.1935

          k =-0.2500 0.2500-0.0833 (167653 PWs)   bands (ev):

   -19.2113  -7.1801  -6.8623  -6.3384  -6.3356  -5.9078  -5.4983  -5.4069
    -5.4049  -5.2103  -5.2101  -5.0940  -5.0901  -5.0136  -4.9906  -4.9178
    -4.8331  -4.8290  -4.7910  -4.7897  -4.6302  -4.6129  -4.6119  -4.6106
    -4.6042  -4.5491  -4.5486  -4.5376  -4.5360  -4.4996  -4.4890  -4.4858
    -4.4452  -4.4445  -4.4114  -4.4103  -4.3599  -4.3573  -4.3490  -4.3463
    -4.3407  -4.3278  -4.3273  -4.2886  -4.2692  -4.2680  -4.2613  -4.2606
    -4.2305  -4.1818  -4.1647  -4.1636  -4.1631  -4.1591  -4.1523  -4.1469
    -4.1465  -4.1457  -4.0833  -4.0801  -4.0343  -4.0305  -4.0195  -3.9937
    -3.9924  -3.9750  -3.9697  -3.9691  -3.9661  -3.9629  -3.9139  -3.9133
    -3.9018  -3.8999  -3.7992  -3.7944  -3.7908  -3.7879  -3.7513  -3.7469
    -3.7276  -3.7008  -3.6984  -3.6707  -3.6683  -3.6498  -3.6475  -3.6381
    -3.6337  -3.5795  -3.5784  -3.5724  -3.5450  -3.5374  -3.5326  -3.5316
    -3.5306  -3.5052  -3.5034  -3.4721  -3.4669  -3.4487  -3.4443  -3.4187
    -3.4109  -3.3986  -3.3803  -3.3657  -3.3442  -3.3280  -3.3220  -3.2922
    -3.2843  -3.2821  -3.2698  -3.2696  -3.2645  -3.2638  -3.2290  -3.2155
    -3.1762  -3.1746  -3.1675  -3.1581  -3.1569  -3.1557  -3.1325  -3.1323
    -3.1119  -3.1105  -3.1088  -3.0831  -3.0817  -3.0754  -3.0724  -3.0706
    -3.0357  -3.0330  -2.9974  -2.9963  -2.9961  -2.9934  -2.9924  -2.9130
    -2.9037  -2.9010  -2.8992  -2.8982  -2.8971  -2.8929  -2.8921  -2.8916
    -2.8911  -2.8820  -2.8742  -2.8592  -2.8550  -2.8530  -2.8513  -2.8393
    -2.8333  -2.7979  -2.7962  -2.7958  -2.7919  -2.7905  -2.7736  -2.7723
    -2.7647  -2.7641  -2.7613  -2.7040  -2.7025  -2.6970  -2.6967  -2.6918
    -2.6894  -2.6646  -2.6047  -2.6043  -2.6030  -2.6004  -2.5897  -2.5876
    -2.5823  -2.5731  -2.5712  -2.5408  -2.5342  -2.5280  -2.5263  -2.5251
    -2.5242  -2.4881  -2.4857  -2.4757  -2.4755  -2.4741  -2.4729  -2.4308
    -2.4147  -2.4124  -2.3572  -2.3560  -2.3392  -2.3365  -2.3317  -2.3305
    -2.2850  -2.2811  -2.2594  -2.2452  -2.2313  -2.2285  -2.2260  -2.2057
    -2.2044  -2.1960  -2.1787  -2.1422  -2.1383  -2.1267  -2.1237  -2.1218
    -2.1142  -2.1122  -2.1020  -2.0962  -2.0950  -2.0927  -2.0890  -2.0863
    -2.0853  -2.0765  -2.0751  -2.0569  -2.0563  -2.0541  -2.0485  -2.0459
    -2.0441  -2.0231  -2.0217  -2.0095  -2.0087  -2.0027  -2.0012  -1.9646
    -1.9324  -1.9302  -1.8956  -1.8791  -1.8783  -1.8699  -1.8658  -1.8469
    -1.8432  -1.8312  -1.8281  -1.8261  -1.8258  -1.8256  -1.8222  -1.7915
    -1.7904  -1.7899  -1.7463  -1.7446  -1.7070  -1.7043  -1.6596  -1.6574
    -1.6448  -1.6230  -1.6180  -1.6148  -1.5995  -1.5971  -1.5820  -1.5801
    -1.5772  -1.5747  -1.5729  -1.5719  -1.5703  -1.5693  -1.5505  -1.5481
    -1.5367  -1.5218  -1.5053  -1.5035  -1.4805  -1.4777  -1.4738  -1.4724
    -1.4713  -1.4650  -1.4454  -1.4428  -1.4321  -1.4281  -1.4170  -1.4075
    -1.3935  -1.3917  -1.3646  -1.3618  -1.3550  -1.3537  -1.3193  -1.3178
    -1.3099  -1.3083  -1.3024  -1.3008  -1.2798  -1.2785  -1.2689  -1.2658
    -1.2606  -1.2571  -1.2485  -1.2458  -1.2451  -1.2327  -1.2241  -1.2206
    -1.2152  -1.2127  -1.2113  -1.1961  -1.1953  -1.1901  -1.1750  -1.1498
    -1.1477  -1.1426  -1.1401  -1.1400  -1.1388  -1.1020  -1.0837  -1.0825
    -1.0822  -1.0807  -1.0769  -1.0736  -1.0728  -1.0597  -1.0577  -1.0229
    -1.0204  -1.0144  -1.0129  -0.9920  -0.9909  -0.9816  -0.9536  -0.9440
    -0.9187  -0.9157  -0.8891  -0.8881  -0.8853  -0.8851  -0.8826  -0.8783
    -0.8745  -0.8733  -0.8710  -0.8687  -0.8380  -0.8370  -0.8190  -0.8163
    -0.8140  -0.8119  -0.8111  -0.8100  -0.7936  -0.5204  -0.5062  -0.4505
    -0.4440  -0.4116  -0.2494  -0.1865  -0.1849  -0.1495   0.1326   0.1345
     0.4623   0.4697   0.5615   0.5624   0.6025   0.6059   0.7465   0.7517
     0.8701   0.8733   0.9674   1.5595   1.5757   1.5763   1.6118   1.6216
     1.6642   1.6808   1.7448   1.7502   1.9516   1.9544   2.1928   2.2652
     2.2739   2.2855   2.6623   2.6766   2.7369   2.7393   2.7459   2.7483
     2.8969   2.8981   2.9569   3.0413   3.0530   3.2729   3.2787   3.4066
     3.4325   3.4371   3.7046   3.7132   3.8165   3.8384   3.8397   3.9109
     3.9454   4.0230   4.0282   4.2603   4.2622   4.3521   4.3576   4.4680
     4.4796   4.4944   4.5088   4.6675   5.1775   5.3262   5.3316   5.4073
     5.4158   5.5317   5.5848   5.5931   5.6540   5.6994   5.7025   5.7105
     5.7542   5.7570   5.7601   5.8048   6.0261   6.0564   6.0745   6.0921
     6.0967   6.1015   6.1043   6.1058   6.1091   6.1571   6.1672   6.2122

          k = 0.2500-0.2500-0.0833 (167653 PWs)   bands (ev):

   -19.2113  -7.1801  -6.8623  -6.3384  -6.3356  -5.9078  -5.4983  -5.4069
    -5.4049  -5.2103  -5.2101  -5.0940  -5.0901  -5.0136  -4.9906  -4.9178
    -4.8331  -4.8290  -4.7910  -4.7897  -4.6302  -4.6129  -4.6119  -4.6106
    -4.6042  -4.5491  -4.5486  -4.5376  -4.5360  -4.4996  -4.4890  -4.4858
    -4.4452  -4.4445  -4.4114  -4.4103  -4.3599  -4.3573  -4.3490  -4.3463
    -4.3407  -4.3278  -4.3273  -4.2886  -4.2692  -4.2680  -4.2613  -4.2606
    -4.2305  -4.1818  -4.1647  -4.1636  -4.1631  -4.1591  -4.1523  -4.1469
    -4.1465  -4.1457  -4.0833  -4.0801  -4.0343  -4.0305  -4.0195  -3.9937
    -3.9924  -3.9750  -3.9697  -3.9691  -3.9661  -3.9629  -3.9139  -3.9133
    -3.9018  -3.8999  -3.7992  -3.7944  -3.7908  -3.7879  -3.7513  -3.7469
    -3.7276  -3.7008  -3.6984  -3.6707  -3.6683  -3.6498  -3.6475  -3.6381
    -3.6337  -3.5795  -3.5784  -3.5724  -3.5450  -3.5374  -3.5326  -3.5316
    -3.5306  -3.5052  -3.5034  -3.4721  -3.4669  -3.4487  -3.4443  -3.4187
    -3.4109  -3.3986  -3.3803  -3.3657  -3.3442  -3.3280  -3.3220  -3.2922
    -3.2843  -3.2821  -3.2698  -3.2696  -3.2645  -3.2638  -3.2290  -3.2155
    -3.1762  -3.1746  -3.1675  -3.1581  -3.1569  -3.1557  -3.1325  -3.1323
    -3.1119  -3.1105  -3.1088  -3.0831  -3.0817  -3.0754  -3.0724  -3.0706
    -3.0357  -3.0330  -2.9974  -2.9963  -2.9961  -2.9934  -2.9924  -2.9130
    -2.9037  -2.9010  -2.8992  -2.8982  -2.8971  -2.8929  -2.8921  -2.8916
    -2.8911  -2.8820  -2.8742  -2.8592  -2.8550  -2.8530  -2.8513  -2.8393
    -2.8333  -2.7979  -2.7962  -2.7958  -2.7919  -2.7905  -2.7736  -2.7723
    -2.7647  -2.7641  -2.7613  -2.7040  -2.7025  -2.6970  -2.6967  -2.6918
    -2.6894  -2.6646  -2.6047  -2.6043  -2.6030  -2.6004  -2.5897  -2.5876
    -2.5823  -2.5731  -2.5712  -2.5408  -2.5342  -2.5280  -2.5263  -2.5251
    -2.5242  -2.4881  -2.4857  -2.4757  -2.4755  -2.4741  -2.4729  -2.4308
    -2.4147  -2.4124  -2.3572  -2.3560  -2.3392  -2.3365  -2.3317  -2.3305
    -2.2850  -2.2811  -2.2594  -2.2452  -2.2313  -2.2285  -2.2260  -2.2057
    -2.2044  -2.1960  -2.1787  -2.1422  -2.1383  -2.1267  -2.1237  -2.1218
    -2.1142  -2.1122  -2.1020  -2.0962  -2.0950  -2.0927  -2.0890  -2.0863
    -2.0853  -2.0765  -2.0751  -2.0569  -2.0563  -2.0541  -2.0485  -2.0459
    -2.0441  -2.0231  -2.0217  -2.0095  -2.0087  -2.0027  -2.0012  -1.9646
    -1.9324  -1.9302  -1.8956  -1.8791  -1.8783  -1.8699  -1.8658  -1.8469
    -1.8432  -1.8312  -1.8281  -1.8261  -1.8258  -1.8256  -1.8222  -1.7915
    -1.7904  -1.7899  -1.7463  -1.7446  -1.7070  -1.7043  -1.6596  -1.6574
    -1.6448  -1.6230  -1.6180  -1.6148  -1.5995  -1.5971  -1.5820  -1.5801
    -1.5772  -1.5747  -1.5729  -1.5719  -1.5703  -1.5693  -1.5505  -1.5481
    -1.5367  -1.5218  -1.5053  -1.5035  -1.4805  -1.4777  -1.4738  -1.4724
    -1.4713  -1.4650  -1.4454  -1.4428  -1.4321  -1.4281  -1.4170  -1.4075
    -1.3935  -1.3917  -1.3646  -1.3618  -1.3550  -1.3537  -1.3193  -1.3178
    -1.3099  -1.3083  -1.3024  -1.3008  -1.2798  -1.2785  -1.2689  -1.2658
    -1.2606  -1.2571  -1.2485  -1.2458  -1.2451  -1.2327  -1.2241  -1.2206
    -1.2152  -1.2127  -1.2113  -1.1961  -1.1953  -1.1901  -1.1750  -1.1498
    -1.1477  -1.1426  -1.1401  -1.1400  -1.1388  -1.1020  -1.0837  -1.0825
    -1.0822  -1.0807  -1.0769  -1.0736  -1.0728  -1.0597  -1.0577  -1.0229
    -1.0204  -1.0144  -1.0129  -0.9920  -0.9909  -0.9816  -0.9536  -0.9440
    -0.9187  -0.9157  -0.8891  -0.8881  -0.8853  -0.8851  -0.8826  -0.8783
    -0.8745  -0.8733  -0.8710  -0.8687  -0.8380  -0.8370  -0.8190  -0.8163
    -0.8140  -0.8119  -0.8111  -0.8100  -0.7936  -0.5204  -0.5062  -0.4505
    -0.4440  -0.4116  -0.2494  -0.1865  -0.1849  -0.1495   0.1326   0.1345
     0.4623   0.4697   0.5615   0.5624   0.6025   0.6059   0.7465   0.7517
     0.8701   0.8733   0.9674   1.5595   1.5757   1.5763   1.6118   1.6216
     1.6642   1.6808   1.7448   1.7502   1.9516   1.9544   2.1928   2.2652
     2.2739   2.2855   2.6623   2.6766   2.7369   2.7393   2.7459   2.7483
     2.8969   2.8981   2.9569   3.0413   3.0530   3.2729   3.2787   3.4066
     3.4325   3.4371   3.7046   3.7132   3.8165   3.8384   3.8397   3.9109
     3.9454   4.0230   4.0282   4.2603   4.2622   4.3521   4.3576   4.4680
     4.4796   4.4944   4.5088   4.6675   5.1775   5.3261   5.3318   5.4073
     5.4158   5.5314   5.5848   5.5932   5.6541   5.6998   5.7024   5.7105
     5.7542   5.7570   5.7602   5.8048   6.0262   6.0565   6.0744   6.0920
     6.0969   6.1015   6.1045   6.1057   6.1091   6.1572   6.1665   6.2116

          k =-0.2500 0.2500 0.2500 (167588 PWs)   bands (ev):

   -19.2113  -7.1801  -6.8623  -6.3384  -6.3356  -5.9078  -5.4983  -5.4069
    -5.4049  -5.2103  -5.2101  -5.0940  -5.0901  -5.0136  -4.9907  -4.9178
    -4.8331  -4.8290  -4.7910  -4.7897  -4.6302  -4.6129  -4.6119  -4.6106
    -4.6042  -4.5491  -4.5486  -4.5376  -4.5360  -4.4996  -4.4890  -4.4857
    -4.4452  -4.4445  -4.4114  -4.4103  -4.3599  -4.3573  -4.3490  -4.3463
    -4.3407  -4.3278  -4.3273  -4.2886  -4.2692  -4.2680  -4.2613  -4.2606
    -4.2305  -4.1818  -4.1647  -4.1636  -4.1630  -4.1591  -4.1523  -4.1469
    -4.1465  -4.1457  -4.0833  -4.0801  -4.0343  -4.0305  -4.0195  -3.9937
    -3.9924  -3.9750  -3.9697  -3.9691  -3.9661  -3.9629  -3.9139  -3.9133
    -3.9018  -3.8999  -3.7992  -3.7944  -3.7908  -3.7879  -3.7513  -3.7469
    -3.7276  -3.7008  -3.6984  -3.6707  -3.6683  -3.6498  -3.6476  -3.6381
    -3.6337  -3.5795  -3.5784  -3.5724  -3.5450  -3.5374  -3.5326  -3.5316
    -3.5306  -3.5052  -3.5034  -3.4721  -3.4669  -3.4487  -3.4443  -3.4187
    -3.4109  -3.3986  -3.3803  -3.3657  -3.3442  -3.3280  -3.3220  -3.2922
    -3.2843  -3.2821  -3.2698  -3.2696  -3.2645  -3.2638  -3.2291  -3.2155
    -3.1762  -3.1746  -3.1675  -3.1581  -3.1569  -3.1557  -3.1325  -3.1323
    -3.1119  -3.1105  -3.1088  -3.0831  -3.0817  -3.0754  -3.0724  -3.0706
    -3.0357  -3.0330  -2.9974  -2.9963  -2.9961  -2.9934  -2.9924  -2.9131
    -2.9038  -2.9010  -2.8992  -2.8982  -2.8971  -2.8929  -2.8921  -2.8916
    -2.8911  -2.8820  -2.8742  -2.8592  -2.8550  -2.8530  -2.8513  -2.8393
    -2.8333  -2.7979  -2.7962  -2.7958  -2.7919  -2.7905  -2.7736  -2.7723
    -2.7647  -2.7641  -2.7613  -2.7040  -2.7025  -2.6970  -2.6967  -2.6918
    -2.6894  -2.6646  -2.6047  -2.6043  -2.6030  -2.6004  -2.5897  -2.5876
    -2.5823  -2.5731  -2.5712  -2.5408  -2.5342  -2.5280  -2.5263  -2.5251
    -2.5241  -2.4881  -2.4857  -2.4757  -2.4755  -2.4741  -2.4729  -2.4308
    -2.4147  -2.4124  -2.3572  -2.3559  -2.3392  -2.3365  -2.3317  -2.3305
    -2.2850  -2.2811  -2.2594  -2.2452  -2.2313  -2.2285  -2.2260  -2.2057
    -2.2044  -2.1960  -2.1787  -2.1422  -2.1382  -2.1267  -2.1237  -2.1218
    -2.1142  -2.1122  -2.1020  -2.0962  -2.0950  -2.0927  -2.0890  -2.0863
    -2.0853  -2.0765  -2.0751  -2.0569  -2.0563  -2.0541  -2.0485  -2.0459
    -2.0441  -2.0231  -2.0217  -2.0095  -2.0087  -2.0027  -2.0012  -1.9646
    -1.9324  -1.9302  -1.8956  -1.8791  -1.8783  -1.8699  -1.8658  -1.8469
    -1.8432  -1.8312  -1.8281  -1.8261  -1.8258  -1.8255  -1.8222  -1.7915
    -1.7904  -1.7899  -1.7463  -1.7446  -1.7070  -1.7043  -1.6596  -1.6574
    -1.6448  -1.6230  -1.6180  -1.6148  -1.5995  -1.5971  -1.5820  -1.5801
    -1.5772  -1.5747  -1.5729  -1.5719  -1.5703  -1.5693  -1.5505  -1.5481
    -1.5367  -1.5218  -1.5053  -1.5035  -1.4804  -1.4777  -1.4738  -1.4724
    -1.4713  -1.4650  -1.4454  -1.4428  -1.4321  -1.4281  -1.4170  -1.4075
    -1.3935  -1.3917  -1.3646  -1.3618  -1.3550  -1.3537  -1.3193  -1.3178
    -1.3099  -1.3083  -1.3024  -1.3008  -1.2798  -1.2785  -1.2689  -1.2658
    -1.2606  -1.2571  -1.2485  -1.2458  -1.2450  -1.2327  -1.2241  -1.2206
    -1.2152  -1.2127  -1.2113  -1.1961  -1.1953  -1.1901  -1.1750  -1.1498
    -1.1477  -1.1426  -1.1401  -1.1400  -1.1388  -1.1020  -1.0837  -1.0825
    -1.0822  -1.0807  -1.0769  -1.0736  -1.0728  -1.0597  -1.0577  -1.0229
    -1.0204  -1.0144  -1.0129  -0.9920  -0.9909  -0.9816  -0.9536  -0.9440
    -0.9186  -0.9157  -0.8891  -0.8881  -0.8854  -0.8851  -0.8826  -0.8783
    -0.8745  -0.8733  -0.8710  -0.8687  -0.8380  -0.8371  -0.8190  -0.8163
    -0.8140  -0.8119  -0.8111  -0.8100  -0.7936  -0.5204  -0.5062  -0.4505
    -0.4440  -0.4116  -0.2494  -0.1865  -0.1849  -0.1495   0.1326   0.1345
     0.4623   0.4697   0.5615   0.5624   0.6025   0.6059   0.7465   0.7517
     0.8701   0.8733   0.9674   1.5595   1.5757   1.5763   1.6118   1.6216
     1.6642   1.6808   1.7448   1.7502   1.9517   1.9544   2.1928   2.2652
     2.2739   2.2855   2.6623   2.6766   2.7369   2.7393   2.7459   2.7483
     2.8969   2.8981   2.9569   3.0413   3.0530   3.2729   3.2787   3.4066
     3.4325   3.4371   3.7046   3.7132   3.8165   3.8384   3.8397   3.9110
     3.9454   4.0230   4.0282   4.2603   4.2622   4.3521   4.3576   4.4680
     4.4796   4.4944   4.5088   4.6676   5.1687   5.3203   5.3298   5.4069
     5.4158   5.5360   5.5848   5.5936   5.6609   5.7000   5.7065   5.7386
     5.7542   5.7562   5.7607   5.8048   6.0507   6.0561   6.0737   6.0889
     6.0960   6.1021   6.1046   6.1090   6.1188   6.1335   6.1930   6.2273

     the Fermi energy is     0.8227 ev

!    total energy              =   -7425.28783976 Ry
     Harris-Foulkes estimate   =   -7425.28783976 Ry
     estimated scf accuracy    <          1.7E-09 Ry

     The total energy is the sum of the following terms:

     one-electron contribution =  -48782.47128607 Ry
     hartree contribution      =   24940.86221328 Ry
     xc contribution           =   -3604.24429015 Ry
     ewald contribution        =   20020.56804252 Ry
     smearing contrib. (-TS)   =      -0.00251935 Ry

     convergence has been achieved in  29 iterations

     Writing output data file 4711429.save

     init_run     :    146.89s CPU    153.15s WALL (       1 calls)
     electrons    :  10648.46s CPU  11031.84s WALL (       1 calls)

     Called by init_run:
     wfcinit      :    114.20s CPU    119.64s WALL (       1 calls)
     potinit      :      8.68s CPU      9.12s WALL (       1 calls)

     Called by electrons:
     c_bands      :   8856.25s CPU   9159.60s WALL (      30 calls)
     sum_band     :   1196.84s CPU   1259.53s WALL (      30 calls)
     v_of_rho     :    183.54s CPU    195.23s WALL (      30 calls)
     newd         :    418.38s CPU    422.94s WALL (      30 calls)
     mix_rho      :      5.75s CPU      6.28s WALL (      30 calls)
     vdW_energy   :      9.20s CPU      9.70s WALL (      30 calls)
     vdW_ffts     :    105.62s CPU    111.87s WALL (      60 calls)
     vdW_v        :     21.90s CPU     22.94s WALL (      30 calls)

     Called by c_bands:
     init_us_2    :     11.24s CPU     11.64s WALL (     366 calls)
     cegterg      :   8710.77s CPU   9012.95s WALL (     180 calls)

     Called by *egterg:
     h_psi        :   3327.96s CPU   3598.76s WALL (     883 calls)
     s_psi        :    652.84s CPU    654.95s WALL (     883 calls)
     g_psi        :      6.45s CPU      6.45s WALL (     697 calls)
     cdiaghg      :   2321.10s CPU   2326.54s WALL (     871 calls)

     Called by h_psi:
     add_vuspsi   :    654.44s CPU    656.69s WALL (     883 calls)

     General routines
     calbec       :   1107.23s CPU   1110.02s WALL (    1063 calls)
     fft          :    225.96s CPU    237.68s WALL (    1980 calls)
     ffts         :      4.96s CPU      5.29s WALL (      60 calls)
     fftw         :   2166.36s CPU   2472.31s WALL (  481398 calls)
     interpolate  :     10.35s CPU     11.18s WALL (      60 calls)
     davcio       :      0.01s CPU      0.13s WALL (       6 calls)

     Parallel routines
     fft_scatter  :   1491.54s CPU   1731.34s WALL (  483438 calls)

     PWSCF        :     3h 0m CPU        3h 6m WALL


   This run was terminated on:  20:22: 6   1Jul2015            

=------------------------------------------------------------------------------=
   JOB DONE.
=------------------------------------------------------------------------------=
