Setting SGE environment for SCC

     Program PWSCF v.5.1.2 starts on  1Jul2015 at 14:19:11 

     This program is part of the open-source Quantum ESPRESSO suite
     for quantum simulation of materials; please cite
         "P. Giannozzi et al., J. Phys.:Condens. Matter 21 395502 (2009);
          URL http://www.quantum-espresso.org", 
     in publications or presentations arising from this work. More details at
     http://www.quantum-espresso.org/quote

     Parallel version (MPI), running on    32 processors
     R & G space division:  proc/nbgrp/npool/nimage =      32
     Reading input from bridge.O1.Au6165.d.2.7.phi.45.psi.90.in
Warning: card &IONS ignored
Warning: card / ignored
Warning: card &CELL ignored
Warning: card / ignored

     Current dimensions of program PWSCF are:
     Max number of different atomic species (ntypx) = 10
     Max number of k-points (npk) =  40000
     Max angular momentum in pseudopotentials (lmaxx) =  3

     IMPORTANT: XC functional enforced from input :
     Exchange-correlation      = VDW-DF ( 1  4  4  0 1 0)
     Any further DFT definition will be discarded
     Please, verify this is what you really want


     Subspace diagonalization in iterative solution of the eigenvalue problem:
     a serial algorithm will be used


     Parallelization info
     --------------------
     sticks:   dense  smooth     PW     G-vecs:    dense   smooth      PW
     Min         578     289     74               118518    41891    5486
     Max         579     290     75               118533    41932    5497
     Sum       18505    9265   2385              3792731  1341081  175711


     Title: 
     bridge.O1.Au6165.d.2.7.phi.45.psi.90                                       


     bravais-lattice index     =            8
     lattice parameter (alat)  =      24.1233  a.u.
     unit-cell volume          =   28076.2361 (a.u.)^3
     number of atoms/cell      =           75
     number of atomic types    =            3
     number of electrons       =       800.00
     number of Kohn-Sham states=          480
     kinetic-energy cutoff     =      50.0000  Ry
     charge density cutoff     =     400.0000  Ry
     convergence threshold     =      1.0E-08
     mixing beta               =       0.7000
     number of iterations used =            8  plain     mixing
     Exchange-correlation      = VDW-DF ( 1  4  4  0 1 0)

     celldm(1)=  24.123277  celldm(2)=   1.000000  celldm(3)=   2.000000
     celldm(4)=   0.000000  celldm(5)=   0.000000  celldm(6)=   0.000000

     crystal axes: (cart. coord. in units of alat)
               a(1) = (   1.000000   0.000000   0.000000 )  
               a(2) = (   0.000000   1.000000   0.000000 )  
               a(3) = (   0.000000   0.000000   2.000000 )  

     reciprocal axes: (cart. coord. in units 2 pi/alat)
               b(1) = (  1.000000  0.000000  0.000000 )  
               b(2) = (  0.000000  1.000000  0.000000 )  
               b(3) = (  0.000000  0.000000  0.500000 )  


     PseudoPot. # 1 for Au read from file:
     /home/scc/andrejb/qe/pseudo/Au.pbe-nd-van.UPF
     MD5 check sum: 458681b50f36d87ef23c61b04bba420a
     Pseudo is Ultrasoft + core correction, Zval = 11.0
     Generated by new atomic code, or converted to UPF format
     Using radial grid of  985 points,  3 beta functions with: 
                l(1) =   1
                l(2) =   2
                l(3) =   2
     Q(r) pseudized with  8 coefficients,  rinner =    1.100   1.100   1.100
                                                       1.100   1.100

     PseudoPot. # 2 for H  read from file:
     /home/scc/andrejb/qe/pseudo/H.pbe-van_ak.UPF
     MD5 check sum: 403db7282739603aa925980fa9b8608d
     Pseudo is Ultrasoft, Zval =  1.0
     Generated by new atomic code, or converted to UPF format
     Using radial grid of  615 points,  1 beta functions with: 
                l(1) =   0
     Q(r) pseudized with  8 coefficients,  rinner =    0.800

     PseudoPot. # 3 for O  read from file:
     /home/scc/andrejb/qe/pseudo/O.pbe-van_ak.UPF
     MD5 check sum: 4b8c549914a63cae506c6ff22b5af4fe
     Pseudo is Ultrasoft, Zval =  6.0
     Generated by new atomic code, or converted to UPF format
     Using radial grid of  737 points,  4 beta functions with: 
                l(1) =   0
                l(2) =   0
                l(3) =   1
                l(4) =   1
     Q(r) pseudized with  8 coefficients,  rinner =    0.800   0.800   0.800


     vdW kernel table read from file vdW_kernel_table
     MD5 check sum: 48e77a2e26edf626eeb0eaa751ad5cac

     atomic species   valence    mass     pseudopotential
        Au            11.00   196.96657     Au( 1.00)
        H              1.00     1.01000     H ( 1.00)
        O              6.00    16.00000     O ( 1.00)

     No symmetry found



   Cartesian axes

     site n.     atom                  positions (alat units)
         1           O   tau(   1) = (   0.2499161   0.4165269   0.9066668  )
         2           H   tau(   2) = (   0.2443256   0.3710330   0.8456795  )
         3           H   tau(   3) = (   0.2553244   0.3686692   0.9658177  )
         4           Au  tau(   4) = (   0.0000000   0.0000000   0.0000000  )
         5           Au  tau(   5) = (   0.3332217   0.0000000   0.0000000  )
         6           Au  tau(   6) = (   0.6664434   0.0000000   0.0000000  )
         7           Au  tau(   7) = (   0.1666109   0.1666109   0.0000000  )
         8           Au  tau(   8) = (   0.4998326   0.1666109   0.0000000  )
         9           Au  tau(   9) = (   0.8330542   0.1666109   0.0000000  )
        10           Au  tau(  10) = (   0.0000000   0.3332217   0.0000000  )
        11           Au  tau(  11) = (   0.3332217   0.3332217   0.0000000  )
        12           Au  tau(  12) = (   0.6664434   0.3332217   0.0000000  )
        13           Au  tau(  13) = (   0.1666109   0.4998326   0.0000000  )
        14           Au  tau(  14) = (   0.4998326   0.4998326   0.0000000  )
        15           Au  tau(  15) = (   0.8330542   0.4998326   0.0000000  )
        16           Au  tau(  16) = (   0.0000000   0.6664434   0.0000000  )
        17           Au  tau(  17) = (   0.3332217   0.6664434   0.0000000  )
        18           Au  tau(  18) = (   0.6664434   0.6664434   0.0000000  )
        19           Au  tau(  19) = (   0.1666109   0.8330542   0.0000000  )
        20           Au  tau(  20) = (   0.4998326   0.8330542   0.0000000  )
        21           Au  tau(  21) = (   0.8330542   0.8330542   0.0000000  )
        22           Au  tau(  22) = (   0.1666109   0.0000000   0.1666109  )
        23           Au  tau(  23) = (   0.4998326   0.0000000   0.1666109  )
        24           Au  tau(  24) = (   0.8330542   0.0000000   0.1666109  )
        25           Au  tau(  25) = (   0.0000000   0.1666109   0.1666109  )
        26           Au  tau(  26) = (   0.3332217   0.1666109   0.1666109  )
        27           Au  tau(  27) = (   0.6664434   0.1666109   0.1666109  )
        28           Au  tau(  28) = (   0.1666109   0.3332217   0.1666109  )
        29           Au  tau(  29) = (   0.4998326   0.3332217   0.1666109  )
        30           Au  tau(  30) = (   0.8330542   0.3332217   0.1666109  )
        31           Au  tau(  31) = (   0.0000000   0.4998326   0.1666109  )
        32           Au  tau(  32) = (   0.3332217   0.4998326   0.1666109  )
        33           Au  tau(  33) = (   0.6664434   0.4998326   0.1666109  )
        34           Au  tau(  34) = (   0.1666109   0.6664434   0.1666109  )
        35           Au  tau(  35) = (   0.4998326   0.6664434   0.1666109  )
        36           Au  tau(  36) = (   0.8330542   0.6664434   0.1666109  )
        37           Au  tau(  37) = (   0.0000000   0.8330542   0.1666109  )
        38           Au  tau(  38) = (   0.3332217   0.8330542   0.1666109  )
        39           Au  tau(  39) = (   0.6664434   0.8330542   0.1666109  )
        40           Au  tau(  40) = (  -0.0000182  -0.0000182   0.3335478  )
        41           Au  tau(  41) = (   0.3332215  -0.0000181   0.3335473  )
        42           Au  tau(  42) = (   0.6664447  -0.0000183   0.3335481  )
        43           Au  tau(  43) = (  -0.0000181   0.3332215   0.3335473  )
        44           Au  tau(  44) = (   0.3332215   0.3332215   0.3335468  )
        45           Au  tau(  45) = (   0.6664445   0.3332215   0.3335477  )
        46           Au  tau(  46) = (  -0.0000183   0.6664447   0.3335481  )
        47           Au  tau(  47) = (   0.3332215   0.6664445   0.3335477  )
        48           Au  tau(  48) = (   0.6664446   0.6664446   0.3335486  )
        49           Au  tau(  49) = (   0.1666097   0.1666097   0.3335483  )
        50           Au  tau(  50) = (   0.4998320   0.1666098   0.3335477  )
        51           Au  tau(  51) = (   0.8330732   0.1666096   0.3335480  )
        52           Au  tau(  52) = (   0.1666098   0.4998320   0.3335477  )
        53           Au  tau(  53) = (   0.4998322   0.4998322   0.3335470  )
        54           Au  tau(  54) = (   0.8330731   0.4998322   0.3335474  )
        55           Au  tau(  55) = (   0.1666096   0.8330732   0.3335480  )
        56           Au  tau(  56) = (   0.4998322   0.8330731   0.3335474  )
        57           Au  tau(  57) = (   0.8330731   0.8330731   0.3335478  )
        58           Au  tau(  58) = (   0.1666104  -0.0000111   0.4993095  )
        59           Au  tau(  59) = (   0.4998323  -0.0000112   0.4993099  )
        60           Au  tau(  60) = (   0.8330660  -0.0000111   0.4993009  )
        61           Au  tau(  61) = (  -0.0000111   0.1666104   0.4993095  )
        62           Au  tau(  62) = (   0.3332213   0.1666106   0.4993185  )
        63           Au  tau(  63) = (   0.6664437   0.1666106   0.4993187  )
        64           Au  tau(  64) = (   0.1666106   0.3332213   0.4993185  )
        65           Au  tau(  65) = (   0.4998324   0.3332216   0.4993185  )
        66           Au  tau(  66) = (   0.8330658   0.3332215   0.4993102  )
        67           Au  tau(  67) = (  -0.0000112   0.4998323   0.4993099  )
        68           Au  tau(  68) = (   0.3332216   0.4998324   0.4993185  )
        69           Au  tau(  69) = (   0.6664437   0.4998325   0.4993187  )
        70           Au  tau(  70) = (   0.1666106   0.6664437   0.4993187  )
        71           Au  tau(  71) = (   0.4998325   0.6664437   0.4993187  )
        72           Au  tau(  72) = (   0.8330658   0.6664438   0.4993102  )
        73           Au  tau(  73) = (  -0.0000111   0.8330660   0.4993009  )
        74           Au  tau(  74) = (   0.3332215   0.8330658   0.4993102  )
        75           Au  tau(  75) = (   0.6664438   0.8330658   0.4993102  )

     number of k points=     6  Marzari-Vanderbilt smearing, width (Ry)=  0.0200
                       cart. coord. in units 2pi/alat
        k(    1) = (   0.2500000   0.2500000   0.0833333), wk =   0.3333333
        k(    2) = (   0.2500000   0.2500000  -0.2500000), wk =   0.3333333
        k(    3) = (  -0.2500000  -0.2500000   0.0833333), wk =   0.3333333
        k(    4) = (  -0.2500000   0.2500000  -0.0833333), wk =   0.3333333
        k(    5) = (   0.2500000  -0.2500000  -0.0833333), wk =   0.3333333
        k(    6) = (  -0.2500000   0.2500000   0.2500000), wk =   0.3333333

     Dense  grid:  3792731 G-vectors     FFT dimensions: ( 160, 160, 320)

     Smooth grid:  1341081 G-vectors     FFT dimensions: ( 120, 120, 225)

     Largest allocated arrays     est. size (Mb)     dimensions
        Kohn-Sham Wavefunctions        38.58 Mb     (    5267,  480)
        NL pseudopotentials            76.03 Mb     (    5267,  946)
        Each V/rho on FFT grid          3.91 Mb     (  256000)
        Each G-vector array             0.90 Mb     (  118520)
        G-vector shells                 0.08 Mb     (   10286)
     Largest temporary arrays     est. size (Mb)     dimensions
        Auxiliary wavefunctions       154.31 Mb     (    5267, 1920)
        Each subspace H/S matrix       56.25 Mb     (    1920, 1920)
        Each <psi_i|beta_j> matrix      6.93 Mb     (     946,  480)
        Arrays for rho mixing          31.25 Mb     (  256000,    8)

     Initial potential from superposition of free atoms
     Check: negative starting charge=   -1.944776

     starting charge  799.16392, renormalised to  800.00000

     negative rho (up, down):  1.947E+00 0.000E+00


     ************************************************************************
     *
     * You are using vdW-DF for exchange-correlation in this calculation.
     * Please cite the following three references that made this development
     * possible:
     *
     *   M. Dion, H. Rydberg, E. Schroder, D. C. Langreth, and
     *   B. I. Lundqvist, Phys. Rev. Lett. 92, 246401 (2004).
     *
     *   T. Thonhauser, V. R. Cooper, S. Li, A. Puzder, P. Hyldgaard, and
     *   D. C. Langreth, Phys. Rev. B 76, 125112 (2007).
     *
     *   G. Roman-Perez and J. M. Soler, Phys. Rev. Lett. 103, 096102 (2009).
     *
     *
     * If you are using vdW-DF2, please also cite:
     *
     *   K. Lee, E. D. Murray, L. Kong, B. I. Lundqvist, and
     *   D. C. Langreth, Phys. Rev. B 82, 081101(R) (2010).
     *
     *
     * If you are calculating the stress with vdW-DF, please also cite:
     *
     *   R. Sabatini, E. Kucukbenli, B. Kolb, T. Thonhauser, and
     *   S. de Gironcoli, J. Phys.: Condens. Matter 24, 424209 (2012).
     *
     ************************************************************************

     Carrying out vdW-DF run using the following parameters:

     Nqs =      20    Nr_points =    1024   r_max =   100.000
     q_mesh =
               0.00001000     0.04494208     0.09755937     0.15916263
               0.23128650     0.31572767     0.41458969     0.53033537
               0.66584808     0.82450364     1.01025438     1.22772762
               1.48234092     1.78043706     2.12944203     2.53805004
               3.01644009     3.57652955     4.23227104     5.00000000

     Gradients computed in reciprocal space

     ************************************************************************


     Starting wfc are  654 randomized atomic wfcs

     total cpu time spent up to now is      191.4 secs

     Self-consistent Calculation

     iteration #  1     ecut=    50.00 Ry     beta=0.70
     Davidson diagonalization with overlap
     ethr =  1.00E-02,  avg # of iterations =  3.0

     Threshold (ethr) on eigenvalues was too large:
     Diagonalizing with lowered threshold

     Davidson diagonalization with overlap
     ethr =  4.29E-04,  avg # of iterations =  2.3

     negative rho (up, down):  1.948E+00 0.000E+00

     total cpu time spent up to now is      796.5 secs

     total energy              =   -7422.99730672 Ry
     Harris-Foulkes estimate   =   -7426.08634959 Ry
     estimated scf accuracy    <       3.81024580 Ry

     iteration #  2     ecut=    50.00 Ry     beta=0.70
     Davidson diagonalization with overlap
     ethr =  4.76E-04,  avg # of iterations = 11.3

     negative rho (up, down):  1.942E+00 0.000E+00

     total cpu time spent up to now is     1886.2 secs

     total energy              =   -7414.84341855 Ry
     Harris-Foulkes estimate   =   -7432.74335797 Ry
     estimated scf accuracy    <      93.78442889 Ry

     iteration #  3     ecut=    50.00 Ry     beta=0.70
     Davidson diagonalization with overlap
     ethr =  4.76E-04,  avg # of iterations =  6.0

     negative rho (up, down):  1.953E+00 0.000E+00

     total cpu time spent up to now is     2557.8 secs

     total energy              =   -7424.03940662 Ry
     Harris-Foulkes estimate   =   -7425.91860309 Ry
     estimated scf accuracy    <       8.08226620 Ry

     iteration #  4     ecut=    50.00 Ry     beta=0.70
     Davidson diagonalization with overlap
     ethr =  4.76E-04,  avg # of iterations =  6.3

     negative rho (up, down):  1.955E+00 0.000E+00

     total cpu time spent up to now is     2938.4 secs

     total energy              =   -7424.83028272 Ry
     Harris-Foulkes estimate   =   -7425.63608673 Ry
     estimated scf accuracy    <       4.15884874 Ry

     iteration #  5     ecut=    50.00 Ry     beta=0.70
     Davidson diagonalization with overlap
     ethr =  4.76E-04,  avg # of iterations =  6.0

     negative rho (up, down):  1.963E+00 0.000E+00

     total cpu time spent up to now is     3320.0 secs

     total energy              =   -7425.05330976 Ry
     Harris-Foulkes estimate   =   -7425.60473921 Ry
     estimated scf accuracy    <       4.45878847 Ry

     iteration #  6     ecut=    50.00 Ry     beta=0.70
     Davidson diagonalization with overlap
     ethr =  4.76E-04,  avg # of iterations =  2.0

     negative rho (up, down):  1.969E+00 0.000E+00

     total cpu time spent up to now is     3589.9 secs

     total energy              =   -7425.28807592 Ry
     Harris-Foulkes estimate   =   -7425.32028010 Ry
     estimated scf accuracy    <       0.10192016 Ry

     iteration #  7     ecut=    50.00 Ry     beta=0.70
     Davidson diagonalization with overlap
     ethr =  1.27E-05,  avg # of iterations =  8.8

     negative rho (up, down):  1.970E+00 0.000E+00

     total cpu time spent up to now is     4106.0 secs

     total energy              =   -7425.28005993 Ry
     Harris-Foulkes estimate   =   -7425.31870884 Ry
     estimated scf accuracy    <       0.19662675 Ry

     iteration #  8     ecut=    50.00 Ry     beta=0.70
     Davidson diagonalization with overlap
     ethr =  1.27E-05,  avg # of iterations =  3.5

     negative rho (up, down):  1.972E+00 0.000E+00

     total cpu time spent up to now is     4440.1 secs

     total energy              =   -7425.28851543 Ry
     Harris-Foulkes estimate   =   -7425.30317633 Ry
     estimated scf accuracy    <       0.05687970 Ry

     iteration #  9     ecut=    50.00 Ry     beta=0.70
     Davidson diagonalization with overlap
     ethr =  7.11E-06,  avg # of iterations =  7.2

     negative rho (up, down):  1.972E+00 0.000E+00

     total cpu time spent up to now is     4836.4 secs

     total energy              =   -7425.28680901 Ry
     Harris-Foulkes estimate   =   -7425.29670544 Ry
     estimated scf accuracy    <       0.03592625 Ry

     iteration # 10     ecut=    50.00 Ry     beta=0.70
     Davidson diagonalization with overlap
     ethr =  4.49E-06,  avg # of iterations =  5.5

     negative rho (up, down):  1.974E+00 0.000E+00

     total cpu time spent up to now is     5165.1 secs

     total energy              =   -7425.28795492 Ry
     Harris-Foulkes estimate   =   -7425.29119904 Ry
     estimated scf accuracy    <       0.01027022 Ry

     iteration # 11     ecut=    50.00 Ry     beta=0.70
     Davidson diagonalization with overlap
     ethr =  1.28E-06,  avg # of iterations =  7.5

     negative rho (up, down):  1.974E+00 0.000E+00

     total cpu time spent up to now is     5539.1 secs

     total energy              =   -7425.28791813 Ry
     Harris-Foulkes estimate   =   -7425.28926133 Ry
     estimated scf accuracy    <       0.00550538 Ry

     iteration # 12     ecut=    50.00 Ry     beta=0.70
     Davidson diagonalization with overlap
     ethr =  6.88E-07,  avg # of iterations =  2.0

     negative rho (up, down):  1.975E+00 0.000E+00

     total cpu time spent up to now is     5810.9 secs

     total energy              =   -7425.28685742 Ry
     Harris-Foulkes estimate   =   -7425.28833456 Ry
     estimated scf accuracy    <       0.00207484 Ry

     iteration # 13     ecut=    50.00 Ry     beta=0.70
     Davidson diagonalization with overlap
     ethr =  2.59E-07,  avg # of iterations =  8.2

     negative rho (up, down):  1.974E+00 0.000E+00

     total cpu time spent up to now is     6229.3 secs

     total energy              =   -7425.28698072 Ry
     Harris-Foulkes estimate   =   -7425.28744238 Ry
     estimated scf accuracy    <       0.00132432 Ry

     iteration # 14     ecut=    50.00 Ry     beta=0.70
     Davidson diagonalization with overlap
     ethr =  1.66E-07,  avg # of iterations =  2.0

     negative rho (up, down):  1.974E+00 0.000E+00

     total cpu time spent up to now is     6513.7 secs

     total energy              =   -7425.28712806 Ry
     Harris-Foulkes estimate   =   -7425.28734788 Ry
     estimated scf accuracy    <       0.00091122 Ry

     iteration # 15     ecut=    50.00 Ry     beta=0.70
     Davidson diagonalization with overlap
     ethr =  1.14E-07,  avg # of iterations =  2.0

     negative rho (up, down):  1.974E+00 0.000E+00

     total cpu time spent up to now is     6781.0 secs

     total energy              =   -7425.28718003 Ry
     Harris-Foulkes estimate   =   -7425.28732932 Ry
     estimated scf accuracy    <       0.00070204 Ry

     iteration # 16     ecut=    50.00 Ry     beta=0.70
     Davidson diagonalization with overlap
     ethr =  8.78E-08,  avg # of iterations =  2.0

     negative rho (up, down):  1.974E+00 0.000E+00

     total cpu time spent up to now is     7069.9 secs

     total energy              =   -7425.28721823 Ry
     Harris-Foulkes estimate   =   -7425.28729566 Ry
     estimated scf accuracy    <       0.00055586 Ry

     iteration # 17     ecut=    50.00 Ry     beta=0.70
     Davidson diagonalization with overlap
     ethr =  6.95E-08,  avg # of iterations =  1.0

     negative rho (up, down):  1.974E+00 0.000E+00

     total cpu time spent up to now is     7329.8 secs

     total energy              =   -7425.28725630 Ry
     Harris-Foulkes estimate   =   -7425.28727112 Ry
     estimated scf accuracy    <       0.00007744 Ry

     iteration # 18     ecut=    50.00 Ry     beta=0.70
     Davidson diagonalization with overlap
     ethr =  9.68E-09,  avg # of iterations =  1.0

     negative rho (up, down):  1.974E+00 0.000E+00

     total cpu time spent up to now is     7587.8 secs

     total energy              =   -7425.28726343 Ry
     Harris-Foulkes estimate   =   -7425.28726550 Ry
     estimated scf accuracy    <       0.00000773 Ry

     iteration # 19     ecut=    50.00 Ry     beta=0.70
     Davidson diagonalization with overlap
     ethr =  9.67E-10,  avg # of iterations =  3.0

     negative rho (up, down):  1.974E+00 0.000E+00

     total cpu time spent up to now is     7920.3 secs

     total energy              =   -7425.28726465 Ry
     Harris-Foulkes estimate   =   -7425.28726554 Ry
     estimated scf accuracy    <       0.00000274 Ry

     iteration # 20     ecut=    50.00 Ry     beta=0.70
     Davidson diagonalization with overlap
     ethr =  3.42E-10,  avg # of iterations =  2.0

     negative rho (up, down):  1.974E+00 0.000E+00

     total cpu time spent up to now is     8233.7 secs

     total energy              =   -7425.28726514 Ry
     Harris-Foulkes estimate   =   -7425.28726544 Ry
     estimated scf accuracy    <       0.00000166 Ry

     iteration # 21     ecut=    50.00 Ry     beta=0.70
     Davidson diagonalization with overlap
     ethr =  2.08E-10,  avg # of iterations =  2.0

     negative rho (up, down):  1.974E+00 0.000E+00

     total cpu time spent up to now is     8518.8 secs

     total energy              =   -7425.28726537 Ry
     Harris-Foulkes estimate   =   -7425.28726554 Ry
     estimated scf accuracy    <       0.00000119 Ry

     iteration # 22     ecut=    50.00 Ry     beta=0.70
     Davidson diagonalization with overlap
     ethr =  1.49E-10,  avg # of iterations =  2.0

     negative rho (up, down):  1.974E+00 0.000E+00

     total cpu time spent up to now is     8809.1 secs

     total energy              =   -7425.28726548 Ry
     Harris-Foulkes estimate   =   -7425.28726562 Ry
     estimated scf accuracy    <       0.00000081 Ry

     iteration # 23     ecut=    50.00 Ry     beta=0.70
     Davidson diagonalization with overlap
     ethr =  1.01E-10,  avg # of iterations =  2.0

     negative rho (up, down):  1.974E+00 0.000E+00

     total cpu time spent up to now is     9069.3 secs

     total energy              =   -7425.28726557 Ry
     Harris-Foulkes estimate   =   -7425.28726558 Ry
     estimated scf accuracy    <       0.00000008 Ry

     iteration # 24     ecut=    50.00 Ry     beta=0.70
     Davidson diagonalization with overlap
     ethr =  9.95E-12,  avg # of iterations =  3.0

     negative rho (up, down):  1.974E+00 0.000E+00

     total cpu time spent up to now is     9419.4 secs

     total energy              =   -7425.28726560 Ry
     Harris-Foulkes estimate   =   -7425.28726560 Ry
     estimated scf accuracy    <       0.00000011 Ry

     iteration # 25     ecut=    50.00 Ry     beta=0.70
     Davidson diagonalization with overlap
     ethr =  9.95E-12,  avg # of iterations =  2.0

     negative rho (up, down):  1.974E+00 0.000E+00

     total cpu time spent up to now is     9691.9 secs

     total energy              =   -7425.28726563 Ry
     Harris-Foulkes estimate   =   -7425.28726561 Ry
     estimated scf accuracy    <       0.00000004 Ry

     iteration # 26     ecut=    50.00 Ry     beta=0.70
     Davidson diagonalization with overlap
     ethr =  5.18E-12,  avg # of iterations =  2.0

     negative rho (up, down):  1.974E+00 0.000E+00

     total cpu time spent up to now is     9997.2 secs

     total energy              =   -7425.28726564 Ry
     Harris-Foulkes estimate   =   -7425.28726564 Ry
     estimated scf accuracy    <       0.00000008 Ry

     iteration # 27     ecut=    50.00 Ry     beta=0.70
     Davidson diagonalization with overlap
     ethr =  5.18E-12,  avg # of iterations =  1.2

     negative rho (up, down):  1.974E+00 0.000E+00

     total cpu time spent up to now is    10263.9 secs

     total energy              =   -7425.28726564 Ry
     Harris-Foulkes estimate   =   -7425.28726565 Ry
     estimated scf accuracy    <       0.00000003 Ry

     iteration # 28     ecut=    50.00 Ry     beta=0.70
     Davidson diagonalization with overlap
     ethr =  3.29E-12,  avg # of iterations =  2.0

     negative rho (up, down):  1.974E+00 0.000E+00

     total cpu time spent up to now is    10545.5 secs

     End of self-consistent calculation

          k = 0.2500 0.2500 0.0833 (167653 PWs)   bands (ev):

   -19.2693  -7.0847  -6.8467  -6.3182  -6.3178  -5.8884  -5.4794  -5.3863
    -5.3860  -5.1902  -5.1901  -5.0724  -5.0719  -4.9938  -4.9707  -4.8978
    -4.8128  -4.8091  -4.7702  -4.7701  -4.6092  -4.5926  -4.5915  -4.5912
    -4.5844  -4.5286  -4.5285  -4.5167  -4.5165  -4.4797  -4.4670  -4.4667
    -4.4249  -4.4248  -4.3914  -4.3901  -4.3382  -4.3379  -4.3271  -4.3262
    -4.3208  -4.3076  -4.3076  -4.2662  -4.2482  -4.2481  -4.2412  -4.2411
    -4.2088  -4.1591  -4.1440  -4.1439  -4.1400  -4.1397  -4.1321  -4.1265
    -4.1261  -4.1261  -4.0610  -4.0605  -4.0112  -4.0108  -3.9985  -3.9725
    -3.9724  -3.9526  -3.9501  -3.9494  -3.9452  -3.9423  -3.8934  -3.8933
    -3.8803  -3.8801  -3.7750  -3.7746  -3.7688  -3.7684  -3.7313  -3.7218
    -3.7080  -3.6780  -3.6780  -3.6494  -3.6491  -3.6275  -3.6273  -3.6138
    -3.6135  -3.5589  -3.5587  -3.5402  -3.5248  -3.5132  -3.5118  -3.5117
    -3.5102  -3.4832  -3.4830  -3.4467  -3.4467  -3.4241  -3.4238  -3.3910
    -3.3908  -3.3726  -3.3452  -3.3451  -3.3078  -3.3077  -3.2914  -3.2723
    -3.2648  -3.2641  -3.2501  -3.2499  -3.2449  -3.2448  -3.2059  -3.1962
    -3.1553  -3.1553  -3.1474  -3.1378  -3.1373  -3.1357  -3.1114  -3.1113
    -3.0902  -3.0895  -3.0893  -3.0625  -3.0625  -3.0549  -3.0521  -3.0520
    -3.0161  -3.0116  -2.9764  -2.9761  -2.9753  -2.9724  -2.9723  -2.8933
    -2.8833  -2.8789  -2.8786  -2.8773  -2.8770  -2.8722  -2.8721  -2.8718
    -2.8717  -2.8621  -2.8543  -2.8372  -2.8346  -2.8340  -2.8337  -2.8190
    -2.8143  -2.7762  -2.7756  -2.7753  -2.7713  -2.7710  -2.7528  -2.7527
    -2.7438  -2.7437  -2.7416  -2.6819  -2.6819  -2.6766  -2.6765  -2.6714
    -2.6713  -2.6432  -2.5841  -2.5829  -2.5826  -2.5808  -2.5694  -2.5671
    -2.5623  -2.5513  -2.5512  -2.5144  -2.5139  -2.5053  -2.5048  -2.5043
    -2.5040  -2.4646  -2.4644  -2.4546  -2.4545  -2.4530  -2.4528  -2.4109
    -2.3949  -2.3894  -2.3361  -2.3359  -2.3173  -2.3157  -2.3105  -2.3104
    -2.2618  -2.2613  -2.2381  -2.2216  -2.2074  -2.2067  -2.2066  -2.1846
    -2.1845  -2.1748  -2.1582  -2.1170  -2.1166  -2.1031  -2.1030  -2.1027
    -2.0916  -2.0914  -2.0760  -2.0759  -2.0751  -2.0715  -2.0666  -2.0664
    -2.0659  -2.0539  -2.0536  -2.0359  -2.0358  -2.0337  -2.0275  -2.0246
    -2.0244  -2.0006  -2.0004  -1.9892  -1.9871  -1.9827  -1.9823  -1.9441
    -1.9102  -1.9099  -1.8745  -1.8573  -1.8571  -1.8464  -1.8460  -1.8228
    -1.8224  -1.8079  -1.8075  -1.8062  -1.8061  -1.8031  -1.8026  -1.7704
    -1.7704  -1.7701  -1.7241  -1.7238  -1.6840  -1.6838  -1.6367  -1.6365
    -1.6243  -1.6018  -1.5965  -1.5942  -1.5775  -1.5759  -1.5585  -1.5582
    -1.5535  -1.5530  -1.5515  -1.5514  -1.5507  -1.5483  -1.5281  -1.5281
    -1.5176  -1.5002  -1.4812  -1.4811  -1.4548  -1.4547  -1.4519  -1.4516
    -1.4485  -1.4457  -1.4239  -1.4236  -1.4090  -1.4083  -1.3958  -1.3855
    -1.3719  -1.3716  -1.3408  -1.3405  -1.3326  -1.3325  -1.2972  -1.2968
    -1.2887  -1.2884  -1.2799  -1.2796  -1.2703  -1.2581  -1.2579  -1.2460
    -1.2393  -1.2391  -1.2259  -1.2257  -1.2253  -1.2250  -1.2107  -1.2003
    -1.1995  -1.1923  -1.1922  -1.1802  -1.1755  -1.1753  -1.1686  -1.1294
    -1.1271  -1.1219  -1.1203  -1.1198  -1.1183  -1.0799  -1.0634  -1.0627
    -1.0624  -1.0623  -1.0578  -1.0576  -1.0528  -1.0398  -1.0377  -1.0010
    -1.0006  -0.9937  -0.9937  -0.9708  -0.9706  -0.9608  -0.9310  -0.9233
    -0.8960  -0.8957  -0.8679  -0.8678  -0.8651  -0.8638  -0.8633  -0.8592
    -0.8559  -0.8537  -0.8492  -0.8489  -0.8170  -0.8168  -0.7991  -0.7984
    -0.7933  -0.7930  -0.7916  -0.7915  -0.7727  -0.4958  -0.4872  -0.4315
    -0.4299  -0.3914  -0.2304  -0.1655  -0.1652  -0.1343   0.1537   0.1539
     0.4831   0.4847   0.5828   0.5829   0.6238   0.6246   0.7671   0.7678
     0.8915   0.8932   0.9789   1.5789   1.5969   1.5977   1.6369   1.6420
     1.6836   1.6884   1.7668   1.7674   1.9745   1.9747   2.2080   2.2887
     2.2906   2.3054   2.6836   2.6879   2.7601   2.7611   2.7671   2.7676
     2.9188   2.9197   2.9633   3.0616   3.0635   3.2935   3.2976   3.4293
     3.4563   3.4568   3.7268   3.7282   3.8397   3.8597   3.8598   3.9070
     3.9393   4.0465   4.0475   4.2838   4.2841   4.3689   4.3727   4.4966
     4.4999   4.5144   4.5227   4.6105   4.7719   5.3170   5.3217   5.4263
     5.4292   5.4528   5.6077   5.6088   5.6278   5.6885   5.7101   5.7236
     5.7268   5.7771   5.7776   5.8210   5.9115   6.0408   6.0593   6.0892
     6.1051   6.1130   6.1166   6.1198   6.1284   6.1300   6.1345   6.1804

          k = 0.2500 0.2500-0.2500 (167588 PWs)   bands (ev):

   -19.2693  -7.0847  -6.8467  -6.3182  -6.3178  -5.8884  -5.4794  -5.3863
    -5.3860  -5.1902  -5.1901  -5.0724  -5.0719  -4.9938  -4.9707  -4.8978
    -4.8128  -4.8091  -4.7702  -4.7701  -4.6092  -4.5926  -4.5915  -4.5912
    -4.5844  -4.5286  -4.5285  -4.5167  -4.5165  -4.4797  -4.4670  -4.4667
    -4.4249  -4.4248  -4.3914  -4.3902  -4.3382  -4.3379  -4.3271  -4.3262
    -4.3208  -4.3076  -4.3076  -4.2662  -4.2482  -4.2481  -4.2412  -4.2411
    -4.2088  -4.1591  -4.1440  -4.1439  -4.1400  -4.1397  -4.1321  -4.1265
    -4.1261  -4.1261  -4.0610  -4.0605  -4.0112  -4.0108  -3.9985  -3.9725
    -3.9724  -3.9526  -3.9501  -3.9494  -3.9452  -3.9423  -3.8934  -3.8933
    -3.8803  -3.8801  -3.7750  -3.7746  -3.7688  -3.7684  -3.7313  -3.7218
    -3.7080  -3.6780  -3.6780  -3.6494  -3.6491  -3.6275  -3.6273  -3.6138
    -3.6135  -3.5589  -3.5587  -3.5402  -3.5248  -3.5132  -3.5118  -3.5117
    -3.5102  -3.4832  -3.4830  -3.4467  -3.4467  -3.4241  -3.4238  -3.3910
    -3.3908  -3.3726  -3.3452  -3.3451  -3.3078  -3.3077  -3.2914  -3.2723
    -3.2648  -3.2641  -3.2501  -3.2499  -3.2449  -3.2448  -3.2059  -3.1962
    -3.1553  -3.1553  -3.1474  -3.1378  -3.1373  -3.1357  -3.1114  -3.1113
    -3.0902  -3.0895  -3.0893  -3.0625  -3.0625  -3.0549  -3.0521  -3.0520
    -3.0161  -3.0116  -2.9764  -2.9761  -2.9753  -2.9724  -2.9723  -2.8934
    -2.8833  -2.8789  -2.8786  -2.8773  -2.8770  -2.8722  -2.8721  -2.8718
    -2.8717  -2.8621  -2.8543  -2.8372  -2.8346  -2.8340  -2.8337  -2.8190
    -2.8143  -2.7762  -2.7756  -2.7753  -2.7713  -2.7710  -2.7528  -2.7527
    -2.7438  -2.7437  -2.7416  -2.6819  -2.6819  -2.6766  -2.6765  -2.6714
    -2.6713  -2.6432  -2.5841  -2.5829  -2.5826  -2.5808  -2.5694  -2.5671
    -2.5623  -2.5513  -2.5512  -2.5143  -2.5139  -2.5053  -2.5048  -2.5043
    -2.5040  -2.4646  -2.4644  -2.4546  -2.4545  -2.4530  -2.4528  -2.4109
    -2.3949  -2.3894  -2.3361  -2.3359  -2.3173  -2.3157  -2.3105  -2.3104
    -2.2618  -2.2613  -2.2381  -2.2216  -2.2074  -2.2067  -2.2065  -2.1846
    -2.1845  -2.1748  -2.1582  -2.1170  -2.1166  -2.1031  -2.1030  -2.1027
    -2.0916  -2.0914  -2.0760  -2.0759  -2.0751  -2.0715  -2.0666  -2.0664
    -2.0659  -2.0539  -2.0536  -2.0359  -2.0358  -2.0337  -2.0275  -2.0246
    -2.0244  -2.0007  -2.0004  -1.9892  -1.9871  -1.9827  -1.9823  -1.9441
    -1.9102  -1.9099  -1.8745  -1.8573  -1.8571  -1.8464  -1.8460  -1.8228
    -1.8224  -1.8079  -1.8075  -1.8062  -1.8061  -1.8030  -1.8026  -1.7705
    -1.7704  -1.7701  -1.7241  -1.7238  -1.6840  -1.6838  -1.6367  -1.6365
    -1.6243  -1.6018  -1.5965  -1.5942  -1.5775  -1.5759  -1.5585  -1.5582
    -1.5535  -1.5530  -1.5515  -1.5514  -1.5507  -1.5483  -1.5281  -1.5281
    -1.5176  -1.5002  -1.4812  -1.4811  -1.4548  -1.4547  -1.4519  -1.4515
    -1.4485  -1.4457  -1.4239  -1.4236  -1.4090  -1.4083  -1.3958  -1.3855
    -1.3719  -1.3716  -1.3408  -1.3406  -1.3326  -1.3325  -1.2972  -1.2968
    -1.2887  -1.2884  -1.2799  -1.2796  -1.2703  -1.2581  -1.2579  -1.2460
    -1.2393  -1.2391  -1.2259  -1.2257  -1.2253  -1.2250  -1.2107  -1.2003
    -1.1995  -1.1923  -1.1922  -1.1801  -1.1755  -1.1753  -1.1686  -1.1294
    -1.1271  -1.1219  -1.1203  -1.1198  -1.1183  -1.0799  -1.0634  -1.0627
    -1.0624  -1.0623  -1.0578  -1.0576  -1.0528  -1.0398  -1.0377  -1.0010
    -1.0006  -0.9937  -0.9937  -0.9708  -0.9706  -0.9608  -0.9310  -0.9233
    -0.8960  -0.8957  -0.8679  -0.8678  -0.8651  -0.8638  -0.8633  -0.8592
    -0.8559  -0.8537  -0.8492  -0.8489  -0.8170  -0.8168  -0.7991  -0.7984
    -0.7933  -0.7930  -0.7916  -0.7915  -0.7727  -0.4958  -0.4872  -0.4315
    -0.4299  -0.3914  -0.2304  -0.1655  -0.1652  -0.1343   0.1537   0.1539
     0.4831   0.4847   0.5828   0.5829   0.6238   0.6246   0.7671   0.7678
     0.8915   0.8932   0.9789   1.5789   1.5969   1.5977   1.6369   1.6420
     1.6836   1.6884   1.7668   1.7674   1.9745   1.9747   2.2080   2.2887
     2.2906   2.3054   2.6836   2.6879   2.7601   2.7611   2.7671   2.7676
     2.9188   2.9197   2.9633   3.0616   3.0635   3.2935   3.2976   3.4293
     3.4563   3.4568   3.7268   3.7282   3.8397   3.8597   3.8598   3.9072
     3.9393   4.0465   4.0475   4.2838   4.2841   4.3689   4.3727   4.4966
     4.4999   4.5144   4.5227   4.6098   4.7687   5.3147   5.3220   5.4251
     5.4287   5.4523   5.6078   5.6088   5.6562   5.6877   5.7213   5.7243
     5.7371   5.7771   5.7776   5.8210   5.8920   6.0207   6.0694   6.0897
     6.1051   6.1106   6.1182   6.1198   6.1284   6.1648   6.1834   6.2468

          k =-0.2500-0.2500 0.0833 (167653 PWs)   bands (ev):

   -19.2693  -7.0847  -6.8467  -6.3182  -6.3178  -5.8884  -5.4794  -5.3863
    -5.3860  -5.1902  -5.1901  -5.0724  -5.0719  -4.9938  -4.9707  -4.8978
    -4.8128  -4.8091  -4.7702  -4.7701  -4.6092  -4.5926  -4.5915  -4.5912
    -4.5844  -4.5286  -4.5285  -4.5167  -4.5165  -4.4797  -4.4670  -4.4667
    -4.4249  -4.4248  -4.3914  -4.3901  -4.3382  -4.3379  -4.3271  -4.3262
    -4.3208  -4.3076  -4.3076  -4.2662  -4.2482  -4.2481  -4.2412  -4.2411
    -4.2088  -4.1591  -4.1440  -4.1439  -4.1400  -4.1397  -4.1321  -4.1265
    -4.1261  -4.1261  -4.0610  -4.0605  -4.0112  -4.0108  -3.9985  -3.9725
    -3.9724  -3.9526  -3.9501  -3.9494  -3.9452  -3.9423  -3.8934  -3.8933
    -3.8803  -3.8801  -3.7750  -3.7746  -3.7688  -3.7684  -3.7313  -3.7218
    -3.7080  -3.6780  -3.6780  -3.6494  -3.6491  -3.6275  -3.6273  -3.6138
    -3.6135  -3.5589  -3.5587  -3.5402  -3.5248  -3.5132  -3.5118  -3.5117
    -3.5102  -3.4832  -3.4830  -3.4467  -3.4467  -3.4241  -3.4238  -3.3910
    -3.3908  -3.3726  -3.3452  -3.3451  -3.3078  -3.3077  -3.2914  -3.2723
    -3.2648  -3.2641  -3.2501  -3.2499  -3.2449  -3.2448  -3.2059  -3.1962
    -3.1553  -3.1553  -3.1474  -3.1378  -3.1373  -3.1357  -3.1114  -3.1113
    -3.0902  -3.0895  -3.0893  -3.0625  -3.0625  -3.0549  -3.0521  -3.0520
    -3.0161  -3.0116  -2.9764  -2.9761  -2.9753  -2.9724  -2.9723  -2.8933
    -2.8833  -2.8789  -2.8786  -2.8773  -2.8770  -2.8722  -2.8721  -2.8718
    -2.8717  -2.8621  -2.8543  -2.8372  -2.8346  -2.8340  -2.8337  -2.8190
    -2.8143  -2.7762  -2.7756  -2.7753  -2.7713  -2.7710  -2.7528  -2.7527
    -2.7438  -2.7437  -2.7416  -2.6819  -2.6819  -2.6766  -2.6765  -2.6714
    -2.6713  -2.6432  -2.5841  -2.5829  -2.5826  -2.5808  -2.5694  -2.5671
    -2.5623  -2.5513  -2.5512  -2.5144  -2.5139  -2.5053  -2.5048  -2.5043
    -2.5040  -2.4646  -2.4644  -2.4546  -2.4545  -2.4530  -2.4528  -2.4109
    -2.3949  -2.3894  -2.3361  -2.3359  -2.3173  -2.3157  -2.3105  -2.3104
    -2.2618  -2.2613  -2.2381  -2.2216  -2.2074  -2.2067  -2.2066  -2.1846
    -2.1845  -2.1748  -2.1582  -2.1170  -2.1166  -2.1031  -2.1030  -2.1027
    -2.0916  -2.0914  -2.0760  -2.0759  -2.0751  -2.0715  -2.0666  -2.0664
    -2.0659  -2.0539  -2.0536  -2.0359  -2.0358  -2.0337  -2.0275  -2.0246
    -2.0244  -2.0006  -2.0004  -1.9892  -1.9871  -1.9827  -1.9823  -1.9441
    -1.9102  -1.9099  -1.8745  -1.8573  -1.8571  -1.8464  -1.8460  -1.8228
    -1.8224  -1.8079  -1.8075  -1.8062  -1.8061  -1.8031  -1.8026  -1.7704
    -1.7704  -1.7701  -1.7241  -1.7238  -1.6840  -1.6838  -1.6367  -1.6365
    -1.6243  -1.6018  -1.5965  -1.5942  -1.5775  -1.5759  -1.5585  -1.5582
    -1.5535  -1.5530  -1.5515  -1.5514  -1.5507  -1.5483  -1.5281  -1.5281
    -1.5176  -1.5002  -1.4812  -1.4811  -1.4548  -1.4547  -1.4519  -1.4516
    -1.4485  -1.4457  -1.4239  -1.4236  -1.4090  -1.4083  -1.3958  -1.3855
    -1.3719  -1.3716  -1.3408  -1.3405  -1.3326  -1.3325  -1.2972  -1.2968
    -1.2887  -1.2884  -1.2799  -1.2796  -1.2703  -1.2581  -1.2579  -1.2460
    -1.2393  -1.2391  -1.2259  -1.2257  -1.2253  -1.2250  -1.2107  -1.2003
    -1.1995  -1.1923  -1.1922  -1.1802  -1.1755  -1.1753  -1.1686  -1.1294
    -1.1271  -1.1219  -1.1203  -1.1198  -1.1183  -1.0799  -1.0634  -1.0627
    -1.0624  -1.0623  -1.0578  -1.0576  -1.0528  -1.0398  -1.0377  -1.0010
    -1.0006  -0.9937  -0.9937  -0.9708  -0.9706  -0.9608  -0.9310  -0.9233
    -0.8960  -0.8957  -0.8679  -0.8678  -0.8651  -0.8638  -0.8633  -0.8592
    -0.8559  -0.8537  -0.8492  -0.8489  -0.8170  -0.8168  -0.7991  -0.7984
    -0.7933  -0.7930  -0.7916  -0.7915  -0.7727  -0.4958  -0.4872  -0.4315
    -0.4299  -0.3914  -0.2304  -0.1655  -0.1652  -0.1343   0.1537   0.1539
     0.4831   0.4847   0.5828   0.5829   0.6238   0.6246   0.7671   0.7678
     0.8915   0.8932   0.9789   1.5789   1.5969   1.5977   1.6369   1.6420
     1.6836   1.6884   1.7668   1.7674   1.9745   1.9747   2.2080   2.2887
     2.2906   2.3054   2.6836   2.6879   2.7601   2.7611   2.7671   2.7676
     2.9188   2.9197   2.9633   3.0616   3.0635   3.2935   3.2976   3.4293
     3.4563   3.4568   3.7268   3.7282   3.8397   3.8597   3.8598   3.9071
     3.9393   4.0465   4.0475   4.2838   4.2841   4.3689   4.3727   4.4966
     4.4999   4.5144   4.5227   4.6106   4.7718   5.3178   5.3218   5.4261
     5.4291   5.4482   5.6077   5.6088   5.6349   5.6931   5.7095   5.7238
     5.7270   5.7771   5.7776   5.8210   5.9050   6.0337   6.0600   6.0892
     6.1051   6.1126   6.1168   6.1198   6.1275   6.1284   6.1861   6.1940

          k =-0.2500 0.2500-0.0833 (167653 PWs)   bands (ev):

   -19.2693  -7.0847  -6.8467  -6.3182  -6.3178  -5.8884  -5.4794  -5.3863
    -5.3859  -5.1902  -5.1901  -5.0725  -5.0719  -4.9938  -4.9707  -4.8978
    -4.8128  -4.8091  -4.7702  -4.7701  -4.6092  -4.5926  -4.5915  -4.5912
    -4.5844  -4.5286  -4.5285  -4.5168  -4.5165  -4.4797  -4.4671  -4.4666
    -4.4249  -4.4248  -4.3914  -4.3901  -4.3383  -4.3378  -4.3271  -4.3262
    -4.3208  -4.3076  -4.3076  -4.2662  -4.2483  -4.2481  -4.2412  -4.2411
    -4.2088  -4.1591  -4.1441  -4.1438  -4.1400  -4.1397  -4.1321  -4.1265
    -4.1261  -4.1261  -4.0610  -4.0605  -4.0112  -4.0108  -3.9985  -3.9725
    -3.9724  -3.9526  -3.9501  -3.9494  -3.9452  -3.9423  -3.8934  -3.8933
    -3.8803  -3.8800  -3.7750  -3.7746  -3.7688  -3.7684  -3.7313  -3.7218
    -3.7080  -3.6780  -3.6780  -3.6494  -3.6491  -3.6275  -3.6273  -3.6138
    -3.6134  -3.5589  -3.5587  -3.5402  -3.5248  -3.5132  -3.5118  -3.5117
    -3.5102  -3.4832  -3.4830  -3.4467  -3.4467  -3.4241  -3.4238  -3.3910
    -3.3908  -3.3726  -3.3452  -3.3451  -3.3079  -3.3076  -3.2914  -3.2723
    -3.2648  -3.2641  -3.2501  -3.2498  -3.2449  -3.2448  -3.2059  -3.1962
    -3.1553  -3.1553  -3.1474  -3.1378  -3.1372  -3.1358  -3.1114  -3.1113
    -3.0901  -3.0897  -3.0891  -3.0625  -3.0625  -3.0549  -3.0521  -3.0520
    -3.0161  -3.0116  -2.9764  -2.9761  -2.9753  -2.9724  -2.9723  -2.8933
    -2.8833  -2.8790  -2.8785  -2.8773  -2.8770  -2.8722  -2.8720  -2.8719
    -2.8716  -2.8621  -2.8543  -2.8372  -2.8346  -2.8340  -2.8337  -2.8190
    -2.8144  -2.7762  -2.7756  -2.7753  -2.7714  -2.7709  -2.7529  -2.7526
    -2.7438  -2.7437  -2.7416  -2.6819  -2.6819  -2.6765  -2.6765  -2.6714
    -2.6713  -2.6431  -2.5841  -2.5829  -2.5825  -2.5808  -2.5694  -2.5671
    -2.5623  -2.5513  -2.5512  -2.5144  -2.5138  -2.5053  -2.5048  -2.5043
    -2.5040  -2.4646  -2.4643  -2.4546  -2.4545  -2.4531  -2.4528  -2.4109
    -2.3949  -2.3894  -2.3361  -2.3359  -2.3173  -2.3157  -2.3105  -2.3104
    -2.2619  -2.2612  -2.2381  -2.2216  -2.2074  -2.2067  -2.2065  -2.1846
    -2.1845  -2.1748  -2.1582  -2.1170  -2.1166  -2.1032  -2.1029  -2.1027
    -2.0916  -2.0914  -2.0760  -2.0759  -2.0751  -2.0716  -2.0666  -2.0665
    -2.0658  -2.0539  -2.0536  -2.0359  -2.0357  -2.0336  -2.0275  -2.0246
    -2.0244  -2.0007  -2.0004  -1.9892  -1.9871  -1.9828  -1.9822  -1.9441
    -1.9103  -1.9098  -1.8745  -1.8573  -1.8570  -1.8464  -1.8460  -1.8228
    -1.8224  -1.8079  -1.8075  -1.8061  -1.8061  -1.8031  -1.8026  -1.7705
    -1.7704  -1.7701  -1.7241  -1.7238  -1.6841  -1.6838  -1.6367  -1.6365
    -1.6243  -1.6018  -1.5965  -1.5942  -1.5775  -1.5759  -1.5585  -1.5581
    -1.5535  -1.5530  -1.5516  -1.5514  -1.5507  -1.5483  -1.5281  -1.5281
    -1.5176  -1.5002  -1.4812  -1.4811  -1.4548  -1.4547  -1.4519  -1.4515
    -1.4484  -1.4457  -1.4239  -1.4236  -1.4090  -1.4082  -1.3958  -1.3855
    -1.3720  -1.3716  -1.3408  -1.3405  -1.3326  -1.3325  -1.2973  -1.2968
    -1.2887  -1.2884  -1.2798  -1.2796  -1.2703  -1.2581  -1.2579  -1.2460
    -1.2393  -1.2390  -1.2259  -1.2256  -1.2253  -1.2249  -1.2107  -1.2003
    -1.1995  -1.1923  -1.1922  -1.1802  -1.1755  -1.1753  -1.1686  -1.1294
    -1.1271  -1.1219  -1.1203  -1.1198  -1.1183  -1.0799  -1.0634  -1.0627
    -1.0624  -1.0623  -1.0578  -1.0577  -1.0528  -1.0398  -1.0377  -1.0010
    -1.0006  -0.9937  -0.9937  -0.9708  -0.9706  -0.9608  -0.9310  -0.9233
    -0.8961  -0.8957  -0.8679  -0.8678  -0.8651  -0.8638  -0.8633  -0.8592
    -0.8559  -0.8537  -0.8492  -0.8489  -0.8170  -0.8168  -0.7992  -0.7983
    -0.7933  -0.7930  -0.7916  -0.7914  -0.7727  -0.4958  -0.4872  -0.4317
    -0.4298  -0.3914  -0.2304  -0.1655  -0.1651  -0.1343   0.1536   0.1540
     0.4829   0.4848   0.5827   0.5829   0.6237   0.6246   0.7669   0.7680
     0.8915   0.8932   0.9789   1.5789   1.5969   1.5977   1.6369   1.6420
     1.6832   1.6887   1.7667   1.7676   1.9744   1.9748   2.2079   2.2886
     2.2907   2.3054   2.6833   2.6882   2.7601   2.7612   2.7671   2.7677
     2.9188   2.9197   2.9632   3.0613   3.0639   3.2935   3.2977   3.4293
     3.4561   3.4570   3.7264   3.7286   3.8397   3.8597   3.8598   3.9064
     3.9399   4.0464   4.0476   4.2838   4.2841   4.3688   4.3727   4.4965
     4.4999   4.5144   4.5229   4.6109   4.7710   5.3161   5.3231   5.4265
     5.4292   5.4494   5.6075   5.6091   5.6317   5.6916   5.7106   5.7239
     5.7269   5.7770   5.7777   5.8210   5.9060   6.0343   6.0627   6.0893
     6.1051   6.1112   6.1164   6.1200   6.1284   6.1335   6.1820   6.1948

          k = 0.2500-0.2500-0.0833 (167653 PWs)   bands (ev):

   -19.2693  -7.0847  -6.8467  -6.3182  -6.3178  -5.8884  -5.4794  -5.3863
    -5.3859  -5.1902  -5.1901  -5.0725  -5.0719  -4.9938  -4.9707  -4.8978
    -4.8128  -4.8091  -4.7702  -4.7701  -4.6092  -4.5926  -4.5915  -4.5912
    -4.5844  -4.5286  -4.5285  -4.5168  -4.5165  -4.4797  -4.4671  -4.4666
    -4.4249  -4.4248  -4.3914  -4.3901  -4.3383  -4.3378  -4.3271  -4.3262
    -4.3208  -4.3076  -4.3076  -4.2662  -4.2483  -4.2481  -4.2412  -4.2411
    -4.2088  -4.1591  -4.1441  -4.1438  -4.1400  -4.1397  -4.1321  -4.1265
    -4.1261  -4.1261  -4.0610  -4.0605  -4.0112  -4.0108  -3.9985  -3.9725
    -3.9724  -3.9526  -3.9501  -3.9494  -3.9452  -3.9423  -3.8934  -3.8933
    -3.8803  -3.8800  -3.7750  -3.7746  -3.7688  -3.7684  -3.7313  -3.7218
    -3.7080  -3.6780  -3.6780  -3.6494  -3.6491  -3.6275  -3.6273  -3.6138
    -3.6134  -3.5589  -3.5587  -3.5402  -3.5248  -3.5132  -3.5118  -3.5117
    -3.5102  -3.4832  -3.4830  -3.4467  -3.4467  -3.4241  -3.4238  -3.3910
    -3.3908  -3.3726  -3.3452  -3.3451  -3.3079  -3.3076  -3.2914  -3.2723
    -3.2648  -3.2641  -3.2501  -3.2498  -3.2449  -3.2448  -3.2059  -3.1962
    -3.1553  -3.1553  -3.1474  -3.1378  -3.1372  -3.1358  -3.1114  -3.1113
    -3.0901  -3.0897  -3.0891  -3.0625  -3.0625  -3.0549  -3.0521  -3.0520
    -3.0161  -3.0116  -2.9764  -2.9761  -2.9753  -2.9724  -2.9723  -2.8933
    -2.8833  -2.8790  -2.8785  -2.8773  -2.8770  -2.8722  -2.8720  -2.8719
    -2.8716  -2.8621  -2.8543  -2.8372  -2.8346  -2.8340  -2.8337  -2.8190
    -2.8144  -2.7762  -2.7756  -2.7753  -2.7714  -2.7709  -2.7529  -2.7526
    -2.7438  -2.7437  -2.7416  -2.6819  -2.6819  -2.6765  -2.6765  -2.6714
    -2.6713  -2.6431  -2.5841  -2.5829  -2.5825  -2.5808  -2.5694  -2.5671
    -2.5623  -2.5513  -2.5512  -2.5144  -2.5138  -2.5053  -2.5048  -2.5043
    -2.5040  -2.4646  -2.4643  -2.4546  -2.4545  -2.4531  -2.4528  -2.4109
    -2.3949  -2.3894  -2.3361  -2.3359  -2.3173  -2.3157  -2.3105  -2.3104
    -2.2619  -2.2612  -2.2381  -2.2216  -2.2074  -2.2067  -2.2065  -2.1846
    -2.1845  -2.1748  -2.1582  -2.1170  -2.1166  -2.1032  -2.1029  -2.1027
    -2.0916  -2.0914  -2.0760  -2.0759  -2.0751  -2.0716  -2.0666  -2.0665
    -2.0658  -2.0539  -2.0536  -2.0359  -2.0357  -2.0336  -2.0275  -2.0246
    -2.0244  -2.0007  -2.0004  -1.9892  -1.9871  -1.9828  -1.9822  -1.9441
    -1.9103  -1.9098  -1.8745  -1.8573  -1.8570  -1.8464  -1.8460  -1.8228
    -1.8224  -1.8079  -1.8075  -1.8061  -1.8061  -1.8031  -1.8026  -1.7705
    -1.7704  -1.7701  -1.7241  -1.7238  -1.6841  -1.6838  -1.6367  -1.6365
    -1.6243  -1.6018  -1.5965  -1.5942  -1.5775  -1.5759  -1.5585  -1.5581
    -1.5535  -1.5530  -1.5516  -1.5514  -1.5507  -1.5483  -1.5281  -1.5281
    -1.5176  -1.5002  -1.4812  -1.4811  -1.4548  -1.4547  -1.4519  -1.4515
    -1.4484  -1.4457  -1.4239  -1.4236  -1.4090  -1.4082  -1.3958  -1.3855
    -1.3720  -1.3716  -1.3408  -1.3405  -1.3326  -1.3325  -1.2973  -1.2968
    -1.2887  -1.2884  -1.2798  -1.2796  -1.2703  -1.2581  -1.2579  -1.2460
    -1.2393  -1.2390  -1.2259  -1.2256  -1.2253  -1.2249  -1.2107  -1.2003
    -1.1995  -1.1923  -1.1922  -1.1802  -1.1755  -1.1753  -1.1686  -1.1294
    -1.1271  -1.1219  -1.1203  -1.1198  -1.1183  -1.0799  -1.0634  -1.0627
    -1.0624  -1.0623  -1.0578  -1.0577  -1.0528  -1.0398  -1.0377  -1.0010
    -1.0006  -0.9937  -0.9937  -0.9708  -0.9706  -0.9608  -0.9310  -0.9233
    -0.8961  -0.8957  -0.8679  -0.8678  -0.8651  -0.8638  -0.8633  -0.8592
    -0.8559  -0.8537  -0.8492  -0.8489  -0.8170  -0.8168  -0.7992  -0.7983
    -0.7933  -0.7930  -0.7916  -0.7914  -0.7727  -0.4958  -0.4872  -0.4317
    -0.4298  -0.3914  -0.2304  -0.1655  -0.1651  -0.1343   0.1536   0.1540
     0.4829   0.4848   0.5827   0.5829   0.6237   0.6246   0.7669   0.7680
     0.8915   0.8932   0.9789   1.5789   1.5969   1.5977   1.6369   1.6420
     1.6832   1.6887   1.7667   1.7676   1.9744   1.9748   2.2079   2.2886
     2.2907   2.3054   2.6833   2.6882   2.7601   2.7612   2.7671   2.7677
     2.9188   2.9197   2.9632   3.0613   3.0639   3.2935   3.2977   3.4293
     3.4561   3.4570   3.7264   3.7286   3.8397   3.8597   3.8598   3.9064
     3.9399   4.0464   4.0476   4.2838   4.2841   4.3688   4.3727   4.4965
     4.4999   4.5144   4.5229   4.6109   4.7710   5.3157   5.3229   5.4265
     5.4293   5.4510   5.6075   5.6091   5.6300   5.6893   5.7108   5.7238
     5.7264   5.7770   5.7777   5.8211   5.9109   6.0339   6.0634   6.0894
     6.1050   6.1115   6.1165   6.1199   6.1284   6.1345   6.1815   6.1935

          k =-0.2500 0.2500 0.2500 (167588 PWs)   bands (ev):

   -19.2693  -7.0847  -6.8467  -6.3182  -6.3178  -5.8884  -5.4794  -5.3863
    -5.3859  -5.1902  -5.1901  -5.0725  -5.0719  -4.9938  -4.9707  -4.8978
    -4.8128  -4.8091  -4.7702  -4.7701  -4.6092  -4.5926  -4.5915  -4.5912
    -4.5844  -4.5286  -4.5285  -4.5168  -4.5165  -4.4797  -4.4671  -4.4666
    -4.4249  -4.4248  -4.3914  -4.3902  -4.3383  -4.3378  -4.3271  -4.3262
    -4.3208  -4.3076  -4.3076  -4.2662  -4.2483  -4.2481  -4.2412  -4.2411
    -4.2088  -4.1591  -4.1441  -4.1438  -4.1400  -4.1397  -4.1321  -4.1265
    -4.1261  -4.1261  -4.0610  -4.0605  -4.0112  -4.0108  -3.9985  -3.9725
    -3.9724  -3.9526  -3.9501  -3.9494  -3.9452  -3.9423  -3.8934  -3.8933
    -3.8803  -3.8800  -3.7750  -3.7746  -3.7688  -3.7684  -3.7313  -3.7218
    -3.7080  -3.6780  -3.6780  -3.6494  -3.6491  -3.6275  -3.6273  -3.6138
    -3.6134  -3.5589  -3.5587  -3.5402  -3.5248  -3.5132  -3.5118  -3.5117
    -3.5102  -3.4832  -3.4830  -3.4467  -3.4467  -3.4241  -3.4238  -3.3910
    -3.3908  -3.3726  -3.3452  -3.3451  -3.3078  -3.3076  -3.2914  -3.2723
    -3.2648  -3.2641  -3.2501  -3.2498  -3.2449  -3.2448  -3.2059  -3.1962
    -3.1553  -3.1553  -3.1474  -3.1378  -3.1372  -3.1358  -3.1114  -3.1113
    -3.0901  -3.0897  -3.0891  -3.0625  -3.0625  -3.0549  -3.0521  -3.0520
    -3.0161  -3.0116  -2.9764  -2.9761  -2.9753  -2.9724  -2.9723  -2.8934
    -2.8833  -2.8790  -2.8785  -2.8773  -2.8770  -2.8722  -2.8720  -2.8719
    -2.8716  -2.8621  -2.8543  -2.8372  -2.8346  -2.8340  -2.8337  -2.8190
    -2.8144  -2.7762  -2.7756  -2.7753  -2.7714  -2.7709  -2.7529  -2.7526
    -2.7438  -2.7437  -2.7416  -2.6819  -2.6819  -2.6765  -2.6765  -2.6714
    -2.6713  -2.6432  -2.5841  -2.5829  -2.5825  -2.5808  -2.5694  -2.5671
    -2.5623  -2.5513  -2.5511  -2.5144  -2.5138  -2.5053  -2.5048  -2.5043
    -2.5040  -2.4646  -2.4644  -2.4546  -2.4545  -2.4531  -2.4528  -2.4109
    -2.3949  -2.3894  -2.3361  -2.3359  -2.3173  -2.3157  -2.3105  -2.3104
    -2.2619  -2.2612  -2.2381  -2.2216  -2.2074  -2.2067  -2.2065  -2.1846
    -2.1844  -2.1748  -2.1582  -2.1170  -2.1166  -2.1032  -2.1029  -2.1027
    -2.0916  -2.0914  -2.0760  -2.0759  -2.0751  -2.0716  -2.0666  -2.0665
    -2.0658  -2.0539  -2.0536  -2.0359  -2.0357  -2.0337  -2.0275  -2.0246
    -2.0244  -2.0007  -2.0004  -1.9892  -1.9871  -1.9827  -1.9822  -1.9441
    -1.9103  -1.9098  -1.8745  -1.8573  -1.8570  -1.8464  -1.8460  -1.8228
    -1.8224  -1.8079  -1.8075  -1.8061  -1.8061  -1.8031  -1.8026  -1.7705
    -1.7704  -1.7701  -1.7241  -1.7238  -1.6841  -1.6838  -1.6367  -1.6365
    -1.6243  -1.6018  -1.5965  -1.5942  -1.5775  -1.5759  -1.5585  -1.5581
    -1.5535  -1.5530  -1.5516  -1.5514  -1.5507  -1.5483  -1.5281  -1.5281
    -1.5176  -1.5002  -1.4812  -1.4811  -1.4548  -1.4547  -1.4519  -1.4515
    -1.4484  -1.4457  -1.4239  -1.4236  -1.4090  -1.4082  -1.3958  -1.3855
    -1.3720  -1.3716  -1.3408  -1.3405  -1.3326  -1.3325  -1.2973  -1.2968
    -1.2887  -1.2884  -1.2798  -1.2796  -1.2703  -1.2581  -1.2579  -1.2460
    -1.2393  -1.2390  -1.2259  -1.2256  -1.2253  -1.2249  -1.2107  -1.2003
    -1.1995  -1.1923  -1.1921  -1.1802  -1.1755  -1.1753  -1.1686  -1.1294
    -1.1271  -1.1219  -1.1203  -1.1198  -1.1183  -1.0799  -1.0634  -1.0627
    -1.0624  -1.0623  -1.0578  -1.0577  -1.0528  -1.0398  -1.0377  -1.0010
    -1.0006  -0.9937  -0.9937  -0.9708  -0.9706  -0.9608  -0.9310  -0.9233
    -0.8960  -0.8957  -0.8679  -0.8678  -0.8651  -0.8638  -0.8633  -0.8592
    -0.8559  -0.8537  -0.8492  -0.8489  -0.8170  -0.8168  -0.7992  -0.7983
    -0.7933  -0.7930  -0.7916  -0.7914  -0.7727  -0.4958  -0.4872  -0.4317
    -0.4297  -0.3914  -0.2304  -0.1655  -0.1651  -0.1343   0.1537   0.1540
     0.4829   0.4848   0.5827   0.5829   0.6237   0.6246   0.7669   0.7680
     0.8915   0.8932   0.9789   1.5789   1.5969   1.5977   1.6369   1.6420
     1.6832   1.6887   1.7667   1.7676   1.9744   1.9748   2.2079   2.2886
     2.2907   2.3054   2.6833   2.6882   2.7601   2.7612   2.7671   2.7677
     2.9188   2.9197   2.9632   3.0613   3.0639   3.2935   3.2977   3.4293
     3.4561   3.4570   3.7264   3.7286   3.8397   3.8597   3.8598   3.9066
     3.9399   4.0464   4.0476   4.2838   4.2841   4.3688   4.3727   4.4965
     4.4999   4.5143   4.5229   4.6102   4.7678   5.3134   5.3231   5.4252
     5.4292   5.4519   5.6076   5.6091   5.6552   5.6888   5.7214   5.7240
     5.7374   5.7770   5.7777   5.8209   5.8916   6.0198   6.0729   6.0890
     6.1052   6.1114   6.1184   6.1199   6.1284   6.1633   6.1835   6.2453

     the Fermi energy is     0.8418 ev

!    total energy              =   -7425.28726566 Ry
     Harris-Foulkes estimate   =   -7425.28726565 Ry
     estimated scf accuracy    <          4.1E-09 Ry

     The total energy is the sum of the following terms:

     one-electron contribution =  -48263.05761189 Ry
     hartree contribution      =   24681.72752211 Ry
     xc contribution           =   -3604.19317604 Ry
     ewald contribution        =   19760.23894534 Ry
     smearing contrib. (-TS)   =      -0.00294518 Ry

     convergence has been achieved in  28 iterations

     Writing output data file 9959202.save

     init_run     :    184.27s CPU    190.37s WALL (       1 calls)
     electrons    :   9983.39s CPU  10354.77s WALL (       1 calls)

     Called by init_run:
     wfcinit      :    145.84s CPU    151.16s WALL (       1 calls)
     potinit      :     15.24s CPU     15.68s WALL (       1 calls)

     Called by electrons:
     c_bands      :   8256.58s CPU   8544.24s WALL (      29 calls)
     sum_band     :   1132.57s CPU   1198.07s WALL (      29 calls)
     v_of_rho     :    209.24s CPU    220.72s WALL (      29 calls)
     newd         :    397.44s CPU    402.01s WALL (      29 calls)
     mix_rho      :      4.63s CPU      5.09s WALL (      29 calls)
     vdW_energy   :      8.78s CPU      9.32s WALL (      29 calls)
     vdW_ffts     :    128.75s CPU    134.79s WALL (      58 calls)
     vdW_v        :     24.66s CPU     25.55s WALL (      29 calls)

     Called by c_bands:
     init_us_2    :     12.03s CPU     12.32s WALL (     354 calls)
     cegterg      :   8118.98s CPU   8405.62s WALL (     174 calls)

     Called by *egterg:
     h_psi        :   3145.74s CPU   3402.45s WALL (     833 calls)
     s_psi        :    608.89s CPU    610.96s WALL (     833 calls)
     g_psi        :      6.07s CPU      6.10s WALL (     653 calls)
     cdiaghg      :   2119.85s CPU   2124.81s WALL (     821 calls)

     Called by h_psi:
     add_vuspsi   :    610.63s CPU    612.73s WALL (     833 calls)

     General routines
     calbec       :   1056.56s CPU   1059.25s WALL (    1007 calls)
     fft          :    237.47s CPU    248.97s WALL (    1914 calls)
     ffts         :      4.57s CPU      4.87s WALL (      58 calls)
     fftw         :   2035.14s CPU   2330.67s WALL (  463322 calls)
     interpolate  :      9.95s CPU     10.74s WALL (      58 calls)
     davcio       :      0.00s CPU      0.13s WALL (       6 calls)

     Parallel routines
     fft_scatter  :   1418.06s CPU   1644.57s WALL (  465294 calls)

     PWSCF        :     2h49m CPU        2h55m WALL


   This run was terminated on:  17:15: 8   1Jul2015            

=------------------------------------------------------------------------------=
   JOB DONE.
=------------------------------------------------------------------------------=
