Setting SGE environment for SCC

     Program PWSCF v.5.1.2 starts on 24Aug2015 at 11:11:55 

     This program is part of the open-source Quantum ESPRESSO suite
     for quantum simulation of materials; please cite
         "P. Giannozzi et al., J. Phys.:Condens. Matter 21 395502 (2009);
          URL http://www.quantum-espresso.org", 
     in publications or presentations arising from this work. More details at
     http://www.quantum-espresso.org/quote

     Parallel version (MPI), running on    32 processors
     R & G space division:  proc/nbgrp/npool/nimage =      32
     Reading input from bridge.O1.Au6165.d.2.7.phi.45.psi.0.in
Warning: card &IONS ignored
Warning: card / ignored
Warning: card &CELL ignored
Warning: card / ignored

     Current dimensions of program PWSCF are:
     Max number of different atomic species (ntypx) = 10
     Max number of k-points (npk) =  40000
     Max angular momentum in pseudopotentials (lmaxx) =  3

     IMPORTANT: XC functional enforced from input :
     Exchange-correlation      = VDW-DF ( 1  4  4  0 1 0)
     Any further DFT definition will be discarded
     Please, verify this is what you really want


     Subspace diagonalization in iterative solution of the eigenvalue problem:
     a serial algorithm will be used


     Parallelization info
     --------------------
     sticks:   dense  smooth     PW     G-vecs:    dense   smooth      PW
     Min         578     289     74               118518    41891    5486
     Max         579     290     75               118533    41932    5497
     Sum       18505    9265   2385              3792731  1341081  175711


     Title: 
     bridge.O1.Au6165.d.2.7.phi.45.psi.0                                        


     bravais-lattice index     =            8
     lattice parameter (alat)  =      24.1233  a.u.
     unit-cell volume          =   28076.2361 (a.u.)^3
     number of atoms/cell      =           75
     number of atomic types    =            3
     number of electrons       =       800.00
     number of Kohn-Sham states=          480
     kinetic-energy cutoff     =      50.0000  Ry
     charge density cutoff     =     400.0000  Ry
     convergence threshold     =      1.0E-08
     mixing beta               =       0.7000
     number of iterations used =            8  plain     mixing
     Exchange-correlation      = VDW-DF ( 1  4  4  0 1 0)

     celldm(1)=  24.123277  celldm(2)=   1.000000  celldm(3)=   2.000000
     celldm(4)=   0.000000  celldm(5)=   0.000000  celldm(6)=   0.000000

     crystal axes: (cart. coord. in units of alat)
               a(1) = (   1.000000   0.000000   0.000000 )  
               a(2) = (   0.000000   1.000000   0.000000 )  
               a(3) = (   0.000000   0.000000   2.000000 )  

     reciprocal axes: (cart. coord. in units 2 pi/alat)
               b(1) = (  1.000000  0.000000  0.000000 )  
               b(2) = (  0.000000  1.000000  0.000000 )  
               b(3) = (  0.000000  0.000000  0.500000 )  


     PseudoPot. # 1 for Au read from file:
     /home/scc/andrejb/qe/pseudo/Au.pbe-nd-van.UPF
     MD5 check sum: 458681b50f36d87ef23c61b04bba420a
     Pseudo is Ultrasoft + core correction, Zval = 11.0
     Generated by new atomic code, or converted to UPF format
     Using radial grid of  985 points,  3 beta functions with: 
                l(1) =   1
                l(2) =   2
                l(3) =   2
     Q(r) pseudized with  8 coefficients,  rinner =    1.100   1.100   1.100
                                                       1.100   1.100

     PseudoPot. # 2 for H  read from file:
     /home/scc/andrejb/qe/pseudo/H.pbe-van_ak.UPF
     MD5 check sum: 403db7282739603aa925980fa9b8608d
     Pseudo is Ultrasoft, Zval =  1.0
     Generated by new atomic code, or converted to UPF format
     Using radial grid of  615 points,  1 beta functions with: 
                l(1) =   0
     Q(r) pseudized with  8 coefficients,  rinner =    0.800

     PseudoPot. # 3 for O  read from file:
     /home/scc/andrejb/qe/pseudo/O.pbe-van_ak.UPF
     MD5 check sum: 4b8c549914a63cae506c6ff22b5af4fe
     Pseudo is Ultrasoft, Zval =  6.0
     Generated by new atomic code, or converted to UPF format
     Using radial grid of  737 points,  4 beta functions with: 
                l(1) =   0
                l(2) =   0
                l(3) =   1
                l(4) =   1
     Q(r) pseudized with  8 coefficients,  rinner =    0.800   0.800   0.800


     vdW kernel table read from file vdW_kernel_table
     MD5 check sum: 48e77a2e26edf626eeb0eaa751ad5cac

     atomic species   valence    mass     pseudopotential
        Au            11.00   196.96657     Au( 1.00)
        H              1.00     1.01000     H ( 1.00)
        O              6.00    16.00000     O ( 1.00)

     No symmetry found



   Cartesian axes

     site n.     atom                  positions (alat units)
         1           O   tau(   1) = (   0.2499161   0.4165269   0.7108263  )
         2           H   tau(   2) = (   0.2443256   0.3555396   0.7563202  )
         3           H   tau(   3) = (   0.2553244   0.4756778   0.7586839  )
         4           Au  tau(   4) = (   0.0000000   0.0000000   0.0000000  )
         5           Au  tau(   5) = (   0.3332217   0.0000000   0.0000000  )
         6           Au  tau(   6) = (   0.6664434   0.0000000   0.0000000  )
         7           Au  tau(   7) = (   0.1666109   0.1666109   0.0000000  )
         8           Au  tau(   8) = (   0.4998326   0.1666109   0.0000000  )
         9           Au  tau(   9) = (   0.8330542   0.1666109   0.0000000  )
        10           Au  tau(  10) = (   0.0000000   0.3332217   0.0000000  )
        11           Au  tau(  11) = (   0.3332217   0.3332217   0.0000000  )
        12           Au  tau(  12) = (   0.6664434   0.3332217   0.0000000  )
        13           Au  tau(  13) = (   0.1666109   0.4998326   0.0000000  )
        14           Au  tau(  14) = (   0.4998326   0.4998326   0.0000000  )
        15           Au  tau(  15) = (   0.8330542   0.4998326   0.0000000  )
        16           Au  tau(  16) = (   0.0000000   0.6664434   0.0000000  )
        17           Au  tau(  17) = (   0.3332217   0.6664434   0.0000000  )
        18           Au  tau(  18) = (   0.6664434   0.6664434   0.0000000  )
        19           Au  tau(  19) = (   0.1666109   0.8330542   0.0000000  )
        20           Au  tau(  20) = (   0.4998326   0.8330542   0.0000000  )
        21           Au  tau(  21) = (   0.8330542   0.8330542   0.0000000  )
        22           Au  tau(  22) = (   0.1666109   0.0000000   0.1666109  )
        23           Au  tau(  23) = (   0.4998326   0.0000000   0.1666109  )
        24           Au  tau(  24) = (   0.8330542   0.0000000   0.1666109  )
        25           Au  tau(  25) = (   0.0000000   0.1666109   0.1666109  )
        26           Au  tau(  26) = (   0.3332217   0.1666109   0.1666109  )
        27           Au  tau(  27) = (   0.6664434   0.1666109   0.1666109  )
        28           Au  tau(  28) = (   0.1666109   0.3332217   0.1666109  )
        29           Au  tau(  29) = (   0.4998326   0.3332217   0.1666109  )
        30           Au  tau(  30) = (   0.8330542   0.3332217   0.1666109  )
        31           Au  tau(  31) = (   0.0000000   0.4998326   0.1666109  )
        32           Au  tau(  32) = (   0.3332217   0.4998326   0.1666109  )
        33           Au  tau(  33) = (   0.6664434   0.4998326   0.1666109  )
        34           Au  tau(  34) = (   0.1666109   0.6664434   0.1666109  )
        35           Au  tau(  35) = (   0.4998326   0.6664434   0.1666109  )
        36           Au  tau(  36) = (   0.8330542   0.6664434   0.1666109  )
        37           Au  tau(  37) = (   0.0000000   0.8330542   0.1666109  )
        38           Au  tau(  38) = (   0.3332217   0.8330542   0.1666109  )
        39           Au  tau(  39) = (   0.6664434   0.8330542   0.1666109  )
        40           Au  tau(  40) = (  -0.0000182  -0.0000182   0.3335478  )
        41           Au  tau(  41) = (   0.3332215  -0.0000181   0.3335473  )
        42           Au  tau(  42) = (   0.6664447  -0.0000183   0.3335481  )
        43           Au  tau(  43) = (  -0.0000181   0.3332215   0.3335473  )
        44           Au  tau(  44) = (   0.3332215   0.3332215   0.3335468  )
        45           Au  tau(  45) = (   0.6664445   0.3332215   0.3335477  )
        46           Au  tau(  46) = (  -0.0000183   0.6664447   0.3335481  )
        47           Au  tau(  47) = (   0.3332215   0.6664445   0.3335477  )
        48           Au  tau(  48) = (   0.6664446   0.6664446   0.3335486  )
        49           Au  tau(  49) = (   0.1666097   0.1666097   0.3335483  )
        50           Au  tau(  50) = (   0.4998320   0.1666098   0.3335477  )
        51           Au  tau(  51) = (   0.8330732   0.1666096   0.3335480  )
        52           Au  tau(  52) = (   0.1666098   0.4998320   0.3335477  )
        53           Au  tau(  53) = (   0.4998322   0.4998322   0.3335470  )
        54           Au  tau(  54) = (   0.8330731   0.4998322   0.3335474  )
        55           Au  tau(  55) = (   0.1666096   0.8330732   0.3335480  )
        56           Au  tau(  56) = (   0.4998322   0.8330731   0.3335474  )
        57           Au  tau(  57) = (   0.8330731   0.8330731   0.3335478  )
        58           Au  tau(  58) = (   0.1666104  -0.0000111   0.4993095  )
        59           Au  tau(  59) = (   0.4998323  -0.0000112   0.4993099  )
        60           Au  tau(  60) = (   0.8330660  -0.0000111   0.4993009  )
        61           Au  tau(  61) = (  -0.0000111   0.1666104   0.4993095  )
        62           Au  tau(  62) = (   0.3332213   0.1666106   0.4993185  )
        63           Au  tau(  63) = (   0.6664437   0.1666106   0.4993187  )
        64           Au  tau(  64) = (   0.1666106   0.3332213   0.4993185  )
        65           Au  tau(  65) = (   0.4998324   0.3332216   0.4993185  )
        66           Au  tau(  66) = (   0.8330658   0.3332215   0.4993102  )
        67           Au  tau(  67) = (  -0.0000112   0.4998323   0.4993099  )
        68           Au  tau(  68) = (   0.3332216   0.4998324   0.4993185  )
        69           Au  tau(  69) = (   0.6664437   0.4998325   0.4993187  )
        70           Au  tau(  70) = (   0.1666106   0.6664437   0.4993187  )
        71           Au  tau(  71) = (   0.4998325   0.6664437   0.4993187  )
        72           Au  tau(  72) = (   0.8330658   0.6664438   0.4993102  )
        73           Au  tau(  73) = (  -0.0000111   0.8330660   0.4993009  )
        74           Au  tau(  74) = (   0.3332215   0.8330658   0.4993102  )
        75           Au  tau(  75) = (   0.6664438   0.8330658   0.4993102  )

     number of k points=     6  Marzari-Vanderbilt smearing, width (Ry)=  0.0200
                       cart. coord. in units 2pi/alat
        k(    1) = (   0.2500000   0.2500000   0.0833333), wk =   0.3333333
        k(    2) = (   0.2500000   0.2500000  -0.2500000), wk =   0.3333333
        k(    3) = (  -0.2500000  -0.2500000   0.0833333), wk =   0.3333333
        k(    4) = (  -0.2500000   0.2500000  -0.0833333), wk =   0.3333333
        k(    5) = (   0.2500000  -0.2500000  -0.0833333), wk =   0.3333333
        k(    6) = (  -0.2500000   0.2500000   0.2500000), wk =   0.3333333

     Dense  grid:  3792731 G-vectors     FFT dimensions: ( 160, 160, 320)

     Smooth grid:  1341081 G-vectors     FFT dimensions: ( 120, 120, 225)

     Largest allocated arrays     est. size (Mb)     dimensions
        Kohn-Sham Wavefunctions        38.58 Mb     (    5267,  480)
        NL pseudopotentials            76.03 Mb     (    5267,  946)
        Each V/rho on FFT grid          3.91 Mb     (  256000)
        Each G-vector array             0.90 Mb     (  118520)
        G-vector shells                 0.08 Mb     (   10286)
     Largest temporary arrays     est. size (Mb)     dimensions
        Auxiliary wavefunctions       154.31 Mb     (    5267, 1920)
        Each subspace H/S matrix       56.25 Mb     (    1920, 1920)
        Each <psi_i|beta_j> matrix      6.93 Mb     (     946,  480)
        Arrays for rho mixing          31.25 Mb     (  256000,    8)

     Initial potential from superposition of free atoms
     Check: negative starting charge=   -1.945112

     starting charge  799.16392, renormalised to  800.00000

     negative rho (up, down):  1.947E+00 0.000E+00


     ************************************************************************
     *
     * You are using vdW-DF for exchange-correlation in this calculation.
     * Please cite the following three references that made this development
     * possible:
     *
     *   M. Dion, H. Rydberg, E. Schroder, D. C. Langreth, and
     *   B. I. Lundqvist, Phys. Rev. Lett. 92, 246401 (2004).
     *
     *   T. Thonhauser, V. R. Cooper, S. Li, A. Puzder, P. Hyldgaard, and
     *   D. C. Langreth, Phys. Rev. B 76, 125112 (2007).
     *
     *   G. Roman-Perez and J. M. Soler, Phys. Rev. Lett. 103, 096102 (2009).
     *
     *
     * If you are using vdW-DF2, please also cite:
     *
     *   K. Lee, E. D. Murray, L. Kong, B. I. Lundqvist, and
     *   D. C. Langreth, Phys. Rev. B 82, 081101(R) (2010).
     *
     *
     * If you are calculating the stress with vdW-DF, please also cite:
     *
     *   R. Sabatini, E. Kucukbenli, B. Kolb, T. Thonhauser, and
     *   S. de Gironcoli, J. Phys.: Condens. Matter 24, 424209 (2012).
     *
     ************************************************************************

     Carrying out vdW-DF run using the following parameters:

     Nqs =      20    Nr_points =    1024   r_max =   100.000
     q_mesh =
               0.00001000     0.04494208     0.09755937     0.15916263
               0.23128650     0.31572767     0.41458969     0.53033537
               0.66584808     0.82450364     1.01025438     1.22772762
               1.48234092     1.78043706     2.12944203     2.53805004
               3.01644009     3.57652955     4.23227104     5.00000000

     Gradients computed in reciprocal space

     ************************************************************************


     Starting wfc are  654 randomized atomic wfcs

     total cpu time spent up to now is      138.2 secs

     Self-consistent Calculation

     iteration #  1     ecut=    50.00 Ry     beta=0.70
     Davidson diagonalization with overlap
     ethr =  1.00E-02,  avg # of iterations =  3.0

     Threshold (ethr) on eigenvalues was too large:
     Diagonalizing with lowered threshold

     Davidson diagonalization with overlap
     ethr =  4.30E-04,  avg # of iterations =  2.8

     negative rho (up, down):  1.947E+00 0.000E+00

     total cpu time spent up to now is      618.1 secs

     total energy              =   -7422.99408703 Ry
     Harris-Foulkes estimate   =   -7426.09150064 Ry
     estimated scf accuracy    <       3.82181900 Ry

     iteration #  2     ecut=    50.00 Ry     beta=0.70
     Davidson diagonalization with overlap
     ethr =  4.78E-04,  avg # of iterations = 11.3

     negative rho (up, down):  1.941E+00 0.000E+00

     total cpu time spent up to now is     1407.0 secs

     total energy              =   -7414.41228562 Ry
     Harris-Foulkes estimate   =   -7432.84255420 Ry
     estimated scf accuracy    <      98.09831903 Ry

     iteration #  3     ecut=    50.00 Ry     beta=0.70
     Davidson diagonalization with overlap
     ethr =  4.78E-04,  avg # of iterations =  6.2

     negative rho (up, down):  1.951E+00 0.000E+00

     total cpu time spent up to now is     1895.5 secs

     total energy              =   -7424.25278306 Ry
     Harris-Foulkes estimate   =   -7425.86906566 Ry
     estimated scf accuracy    <       6.49870442 Ry

     iteration #  4     ecut=    50.00 Ry     beta=0.70
     Davidson diagonalization with overlap
     ethr =  4.78E-04,  avg # of iterations =  6.0

     negative rho (up, down):  1.955E+00 0.000E+00

     total cpu time spent up to now is     2187.7 secs

     total energy              =   -7424.72732616 Ry
     Harris-Foulkes estimate   =   -7425.77301341 Ry
     estimated scf accuracy    <       7.33300461 Ry

     iteration #  5     ecut=    50.00 Ry     beta=0.70
     Davidson diagonalization with overlap
     ethr =  4.78E-04,  avg # of iterations =  7.3

     negative rho (up, down):  1.963E+00 0.000E+00

     total cpu time spent up to now is     2492.8 secs

     total energy              =   -7425.19121630 Ry
     Harris-Foulkes estimate   =   -7425.46499296 Ry
     estimated scf accuracy    <       1.74425966 Ry

     iteration #  6     ecut=    50.00 Ry     beta=0.70
     Davidson diagonalization with overlap
     ethr =  2.18E-04,  avg # of iterations =  3.0

     negative rho (up, down):  1.967E+00 0.000E+00

     total cpu time spent up to now is     2730.3 secs

     total energy              =   -7425.27969172 Ry
     Harris-Foulkes estimate   =   -7425.32432921 Ry
     estimated scf accuracy    <       0.14728516 Ry

     iteration #  7     ecut=    50.00 Ry     beta=0.70
     Davidson diagonalization with overlap
     ethr =  1.84E-05,  avg # of iterations = 11.0

     negative rho (up, down):  1.969E+00 0.000E+00

     total cpu time spent up to now is     3107.7 secs

     total energy              =   -7425.28237581 Ry
     Harris-Foulkes estimate   =   -7425.31467097 Ry
     estimated scf accuracy    <       0.14128373 Ry

     iteration #  8     ecut=    50.00 Ry     beta=0.70
     Davidson diagonalization with overlap
     ethr =  1.77E-05,  avg # of iterations =  3.0

     negative rho (up, down):  1.971E+00 0.000E+00

     total cpu time spent up to now is     3350.2 secs

     total energy              =   -7425.28419291 Ry
     Harris-Foulkes estimate   =   -7425.30549893 Ry
     estimated scf accuracy    <       0.09119855 Ry

     iteration #  9     ecut=    50.00 Ry     beta=0.70
     Davidson diagonalization with overlap
     ethr =  1.14E-05,  avg # of iterations =  8.7

     negative rho (up, down):  1.972E+00 0.000E+00

     total cpu time spent up to now is     3674.0 secs

     total energy              =   -7425.28936457 Ry
     Harris-Foulkes estimate   =   -7425.29830870 Ry
     estimated scf accuracy    <       0.03198529 Ry

     iteration # 10     ecut=    50.00 Ry     beta=0.70
     Davidson diagonalization with overlap
     ethr =  4.00E-06,  avg # of iterations =  7.8

     negative rho (up, down):  1.972E+00 0.000E+00

     total cpu time spent up to now is     3992.1 secs

     total energy              =   -7425.29239098 Ry
     Harris-Foulkes estimate   =   -7425.29463110 Ry
     estimated scf accuracy    <       0.00612026 Ry

     iteration # 11     ecut=    50.00 Ry     beta=0.70
     Davidson diagonalization with overlap
     ethr =  7.65E-07,  avg # of iterations =  7.5

     negative rho (up, down):  1.973E+00 0.000E+00

     total cpu time spent up to now is     4311.9 secs

     total energy              =   -7425.29324268 Ry
     Harris-Foulkes estimate   =   -7425.29388449 Ry
     estimated scf accuracy    <       0.00192663 Ry

     iteration # 12     ecut=    50.00 Ry     beta=0.70
     Davidson diagonalization with overlap
     ethr =  2.41E-07,  avg # of iterations =  2.0

     negative rho (up, down):  1.974E+00 0.000E+00

     total cpu time spent up to now is     4544.4 secs

     total energy              =   -7425.29333896 Ry
     Harris-Foulkes estimate   =   -7425.29363871 Ry
     estimated scf accuracy    <       0.00060601 Ry

     iteration # 13     ecut=    50.00 Ry     beta=0.70
     Davidson diagonalization with overlap
     ethr =  7.58E-08,  avg # of iterations =  4.0

     negative rho (up, down):  1.974E+00 0.000E+00

     total cpu time spent up to now is     4895.3 secs

     total energy              =   -7425.29305652 Ry
     Harris-Foulkes estimate   =   -7425.29400916 Ry
     estimated scf accuracy    <       0.00462094 Ry

     iteration # 14     ecut=    50.00 Ry     beta=0.70
     Davidson diagonalization with overlap
     ethr =  7.58E-08,  avg # of iterations =  3.0

     negative rho (up, down):  1.974E+00 0.000E+00

     total cpu time spent up to now is     5187.8 secs

     total energy              =   -7425.29347741 Ry
     Harris-Foulkes estimate   =   -7425.29356415 Ry
     estimated scf accuracy    <       0.00038188 Ry

     iteration # 15     ecut=    50.00 Ry     beta=0.70
     Davidson diagonalization with overlap
     ethr =  4.77E-08,  avg # of iterations =  2.0

     negative rho (up, down):  1.974E+00 0.000E+00

     total cpu time spent up to now is     5415.2 secs

     total energy              =   -7425.29349369 Ry
     Harris-Foulkes estimate   =   -7425.29354502 Ry
     estimated scf accuracy    <       0.00022137 Ry

     iteration # 16     ecut=    50.00 Ry     beta=0.70
     Davidson diagonalization with overlap
     ethr =  2.77E-08,  avg # of iterations =  2.0

     negative rho (up, down):  1.974E+00 0.000E+00

     total cpu time spent up to now is     5641.6 secs

     total energy              =   -7425.29348774 Ry
     Harris-Foulkes estimate   =   -7425.29357508 Ry
     estimated scf accuracy    <       0.00072304 Ry

     iteration # 17     ecut=    50.00 Ry     beta=0.70
     Davidson diagonalization with overlap
     ethr =  2.77E-08,  avg # of iterations =  1.0

     negative rho (up, down):  1.974E+00 0.000E+00

     total cpu time spent up to now is     5860.2 secs

     total energy              =   -7425.29352638 Ry
     Harris-Foulkes estimate   =   -7425.29353098 Ry
     estimated scf accuracy    <       0.00001690 Ry

     iteration # 18     ecut=    50.00 Ry     beta=0.70
     Davidson diagonalization with overlap
     ethr =  2.11E-09,  avg # of iterations =  2.0

     negative rho (up, down):  1.974E+00 0.000E+00

     total cpu time spent up to now is     6096.5 secs

     total energy              =   -7425.29352835 Ry
     Harris-Foulkes estimate   =   -7425.29353038 Ry
     estimated scf accuracy    <       0.00000839 Ry

     iteration # 19     ecut=    50.00 Ry     beta=0.70
     Davidson diagonalization with overlap
     ethr =  1.05E-09,  avg # of iterations =  2.0

     negative rho (up, down):  1.974E+00 0.000E+00

     total cpu time spent up to now is     6331.7 secs

     total energy              =   -7425.29352880 Ry
     Harris-Foulkes estimate   =   -7425.29352994 Ry
     estimated scf accuracy    <       0.00000463 Ry

     iteration # 20     ecut=    50.00 Ry     beta=0.70
     Davidson diagonalization with overlap
     ethr =  5.78E-10,  avg # of iterations =  2.0

     negative rho (up, down):  1.974E+00 0.000E+00

     total cpu time spent up to now is     6562.6 secs

     total energy              =   -7425.29352919 Ry
     Harris-Foulkes estimate   =   -7425.29352954 Ry
     estimated scf accuracy    <       0.00000111 Ry

     iteration # 21     ecut=    50.00 Ry     beta=0.70
     Davidson diagonalization with overlap
     ethr =  1.39E-10,  avg # of iterations =  2.0

     negative rho (up, down):  1.974E+00 0.000E+00

     total cpu time spent up to now is     6784.5 secs

     total energy              =   -7425.29352931 Ry
     Harris-Foulkes estimate   =   -7425.29352939 Ry
     estimated scf accuracy    <       0.00000012 Ry

     iteration # 22     ecut=    50.00 Ry     beta=0.70
     Davidson diagonalization with overlap
     ethr =  1.51E-11,  avg # of iterations =  3.0

     negative rho (up, down):  1.974E+00 0.000E+00

     total cpu time spent up to now is     7087.7 secs

     total energy              =   -7425.29352930 Ry
     Harris-Foulkes estimate   =   -7425.29352937 Ry
     estimated scf accuracy    <       0.00000011 Ry

     iteration # 23     ecut=    50.00 Ry     beta=0.70
     Davidson diagonalization with overlap
     ethr =  1.41E-11,  avg # of iterations =  2.0

     negative rho (up, down):  1.974E+00 0.000E+00

     total cpu time spent up to now is     7316.5 secs

     total energy              =   -7425.29352932 Ry
     Harris-Foulkes estimate   =   -7425.29352933 Ry
     estimated scf accuracy    <       0.00000003 Ry

     iteration # 24     ecut=    50.00 Ry     beta=0.70
     Davidson diagonalization with overlap
     ethr =  3.21E-12,  avg # of iterations =  2.0

     negative rho (up, down):  1.974E+00 0.000E+00

     total cpu time spent up to now is     7564.6 secs

     total energy              =   -7425.29352932 Ry
     Harris-Foulkes estimate   =   -7425.29352933 Ry
     estimated scf accuracy    <       0.00000003 Ry

     iteration # 25     ecut=    50.00 Ry     beta=0.70
     Davidson diagonalization with overlap
     ethr =  3.21E-12,  avg # of iterations =  2.0

     negative rho (up, down):  1.974E+00 0.000E+00

     total cpu time spent up to now is     7792.1 secs

     total energy              =   -7425.29352931 Ry
     Harris-Foulkes estimate   =   -7425.29352932 Ry
     estimated scf accuracy    <       0.00000002 Ry

     iteration # 26     ecut=    50.00 Ry     beta=0.70
     Davidson diagonalization with overlap
     ethr =  2.55E-12,  avg # of iterations =  2.0

     negative rho (up, down):  1.974E+00 0.000E+00

     total cpu time spent up to now is     8024.7 secs

     End of self-consistent calculation

          k = 0.2500 0.2500 0.0833 (167653 PWs)   bands (ev):

   -19.9748  -7.7784  -6.7101  -6.1822  -6.1808  -5.7516  -5.3464  -5.2502
    -5.2487  -5.0538  -5.0530  -4.9438  -4.9372  -4.8570  -4.8356  -4.7608
    -4.6757  -4.6737  -4.6386  -4.6333  -4.4775  -4.4570  -4.4552  -4.4543
    -4.4474  -4.3993  -4.3916  -4.3805  -4.3789  -4.3620  -4.3411  -4.3314
    -4.2974  -4.2879  -4.2871  -4.2531  -4.2513  -4.2023  -4.1969  -4.1889
    -4.1837  -4.1761  -4.1705  -4.1680  -4.1262  -4.1110  -4.1106  -4.1046
    -4.1017  -4.0696  -4.0232  -4.0076  -4.0060  -4.0037  -3.9963  -3.9899
    -3.9896  -3.9890  -3.9849  -3.9257  -3.9124  -3.8751  -3.8736  -3.8606
    -3.8358  -3.8327  -3.8132  -3.8126  -3.8089  -3.8085  -3.8027  -3.7564
    -3.7558  -3.7440  -3.7421  -3.6392  -3.6360  -3.6328  -3.6249  -3.5941
    -3.5865  -3.5716  -3.5413  -3.5403  -3.5132  -3.5107  -3.4911  -3.4895
    -3.4780  -3.4763  -3.4222  -3.4208  -3.4044  -3.3879  -3.3772  -3.3751
    -3.3745  -3.3723  -3.3469  -3.3447  -3.3103  -3.3085  -3.2880  -3.2863
    -3.2552  -3.2538  -3.2360  -3.2090  -3.2085  -3.1715  -3.1708  -3.1346
    -3.1275  -3.1269  -3.1138  -3.1106  -3.1080  -3.1065  -3.0704  -3.0594
    -3.0188  -3.0186  -3.0102  -3.0014  -3.0002  -2.9986  -2.9752  -2.9746
    -2.9542  -2.9532  -2.9522  -2.9259  -2.9251  -2.9181  -2.9159  -2.9143
    -2.8796  -2.8751  -2.8403  -2.8397  -2.8387  -2.8360  -2.8353  -2.7560
    -2.7462  -2.7430  -2.7411  -2.7403  -2.7399  -2.7361  -2.7354  -2.7350
    -2.7348  -2.7250  -2.7172  -2.7012  -2.6985  -2.6974  -2.6954  -2.6819
    -2.6790  -2.6398  -2.6389  -2.6387  -2.6356  -2.6320  -2.6166  -2.6151
    -2.6076  -2.6070  -2.6043  -2.5466  -2.5451  -2.5398  -2.5388  -2.5371
    -2.5343  -2.5054  -2.4478  -2.4466  -2.4459  -2.4438  -2.4326  -2.4323
    -2.4259  -2.4157  -2.4150  -2.3792  -2.3757  -2.3710  -2.3702  -2.3684
    -2.3668  -2.3294  -2.3289  -2.3186  -2.3178  -2.3172  -2.3162  -2.2733
    -2.2653  -2.2504  -2.2004  -2.1993  -2.1817  -2.1808  -2.1766  -2.1711
    -2.1281  -2.1217  -2.1019  -2.0954  -2.0821  -2.0711  -2.0709  -2.0615
    -2.0476  -2.0418  -2.0371  -2.0194  -1.9816  -1.9777  -1.9675  -1.9667
    -1.9623  -1.9555  -1.9514  -1.9405  -1.9395  -1.9374  -1.9346  -1.9323
    -1.9298  -1.9241  -1.9177  -1.9150  -1.8990  -1.8985  -1.8941  -1.8896
    -1.8881  -1.8846  -1.8642  -1.8633  -1.8522  -1.8508  -1.8460  -1.8416
    -1.8069  -1.7749  -1.7722  -1.7380  -1.7215  -1.7200  -1.7097  -1.7084
    -1.6873  -1.6818  -1.6722  -1.6712  -1.6704  -1.6690  -1.6659  -1.6599
    -1.6343  -1.6333  -1.6300  -1.5886  -1.5857  -1.5479  -1.5463  -1.5005
    -1.4992  -1.4871  -1.4652  -1.4588  -1.4577  -1.4406  -1.4398  -1.4229
    -1.4213  -1.4181  -1.4168  -1.4165  -1.4149  -1.4114  -1.4081  -1.3917
    -1.3913  -1.3770  -1.3642  -1.3457  -1.3454  -1.3194  -1.3189  -1.3164
    -1.3160  -1.3119  -1.3049  -1.2883  -1.2843  -1.2737  -1.2666  -1.2544
    -1.2495  -1.2362  -1.2329  -1.2047  -1.2046  -1.1968  -1.1935  -1.1614
    -1.1580  -1.1525  -1.1489  -1.1444  -1.1418  -1.1219  -1.1212  -1.1102
    -1.1032  -1.1020  -1.0909  -1.0903  -1.0889  -1.0825  -1.0750  -1.0635
    -1.0610  -1.0556  -1.0552  -1.0441  -1.0395  -1.0350  -1.0325  -0.9932
    -0.9895  -0.9853  -0.9837  -0.9834  -0.9799  -0.9439  -0.9281  -0.9261
    -0.9259  -0.9244  -0.9207  -0.9163  -0.9161  -0.9012  -0.8984  -0.8659
    -0.8618  -0.8572  -0.8561  -0.8344  -0.8337  -0.8244  -0.7949  -0.7872
    -0.7600  -0.7591  -0.7314  -0.7313  -0.7277  -0.7272  -0.7265  -0.7221
    -0.7175  -0.7172  -0.7128  -0.7109  -0.6810  -0.6797  -0.6644  -0.6598
    -0.6571  -0.6569  -0.6553  -0.6419  -0.6364  -0.3600  -0.3509  -0.2987
    -0.2814  -0.2543  -0.0922  -0.0298  -0.0271   0.0073   0.2883   0.2953
     0.6151   0.6292   0.7183   0.7214   0.7580   0.7653   0.9002   0.9142
     1.0282   1.0301   1.1185   1.7154   1.7338   1.7342   1.7722   1.7778
     1.8107   1.8335   1.8998   1.9127   2.1086   2.1142   2.3424   2.4197
     2.4334   2.4439   2.8119   2.8288   2.8950   2.8982   2.9026   2.9074
     3.0546   3.0556   3.0783   3.1913   3.2089   3.4269   3.4411   3.5651
     3.5887   3.5958   3.8582   3.8697   3.9728   3.9860   3.9960   4.0010
     4.0396   4.1802   4.1866   4.4190   4.4204   4.4920   4.5054   4.6025
     4.6314   4.6414   4.6511   4.6717   4.8587   5.3855   5.4215   5.4513
     5.5459   5.5672   5.6059   5.6626   5.7398   5.7498   5.7522   5.8522
     5.8557   5.9111   5.9154   5.9485   6.0081   6.0331   6.0906   6.1498
     6.1875   6.2146   6.2219   6.2364   6.2467   6.2492   6.2608   6.2672

          k = 0.2500 0.2500-0.2500 (167588 PWs)   bands (ev):

   -19.9748  -7.7784  -6.7101  -6.1822  -6.1808  -5.7516  -5.3464  -5.2502
    -5.2487  -5.0538  -5.0530  -4.9438  -4.9371  -4.8570  -4.8356  -4.7608
    -4.6757  -4.6737  -4.6386  -4.6333  -4.4775  -4.4570  -4.4552  -4.4543
    -4.4474  -4.3993  -4.3917  -4.3805  -4.3789  -4.3620  -4.3411  -4.3314
    -4.2974  -4.2879  -4.2871  -4.2531  -4.2513  -4.2023  -4.1969  -4.1889
    -4.1837  -4.1761  -4.1705  -4.1680  -4.1263  -4.1110  -4.1106  -4.1046
    -4.1017  -4.0696  -4.0232  -4.0076  -4.0060  -4.0037  -3.9963  -3.9899
    -3.9896  -3.9890  -3.9849  -3.9257  -3.9124  -3.8751  -3.8736  -3.8606
    -3.8358  -3.8327  -3.8132  -3.8126  -3.8089  -3.8085  -3.8027  -3.7564
    -3.7558  -3.7440  -3.7421  -3.6392  -3.6360  -3.6328  -3.6249  -3.5941
    -3.5865  -3.5716  -3.5413  -3.5403  -3.5132  -3.5107  -3.4911  -3.4895
    -3.4780  -3.4763  -3.4222  -3.4208  -3.4044  -3.3879  -3.3772  -3.3751
    -3.3745  -3.3723  -3.3469  -3.3447  -3.3103  -3.3084  -3.2880  -3.2863
    -3.2552  -3.2538  -3.2360  -3.2090  -3.2085  -3.1715  -3.1708  -3.1346
    -3.1275  -3.1269  -3.1138  -3.1106  -3.1080  -3.1065  -3.0704  -3.0594
    -3.0188  -3.0186  -3.0102  -3.0014  -3.0002  -2.9986  -2.9752  -2.9746
    -2.9542  -2.9532  -2.9522  -2.9259  -2.9251  -2.9181  -2.9159  -2.9143
    -2.8796  -2.8751  -2.8403  -2.8397  -2.8387  -2.8360  -2.8353  -2.7560
    -2.7462  -2.7430  -2.7411  -2.7403  -2.7399  -2.7361  -2.7354  -2.7350
    -2.7348  -2.7250  -2.7172  -2.7012  -2.6985  -2.6974  -2.6954  -2.6819
    -2.6790  -2.6398  -2.6389  -2.6387  -2.6356  -2.6320  -2.6166  -2.6151
    -2.6076  -2.6070  -2.6043  -2.5466  -2.5451  -2.5398  -2.5388  -2.5371
    -2.5343  -2.5054  -2.4478  -2.4466  -2.4459  -2.4438  -2.4326  -2.4323
    -2.4259  -2.4156  -2.4150  -2.3792  -2.3757  -2.3710  -2.3702  -2.3684
    -2.3668  -2.3294  -2.3289  -2.3186  -2.3178  -2.3172  -2.3162  -2.2733
    -2.2653  -2.2504  -2.2004  -2.1993  -2.1817  -2.1808  -2.1766  -2.1711
    -2.1281  -2.1217  -2.1019  -2.0954  -2.0821  -2.0711  -2.0709  -2.0615
    -2.0475  -2.0418  -2.0371  -2.0194  -1.9816  -1.9777  -1.9675  -1.9667
    -1.9623  -1.9555  -1.9514  -1.9405  -1.9395  -1.9374  -1.9346  -1.9323
    -1.9298  -1.9241  -1.9177  -1.9150  -1.8990  -1.8985  -1.8941  -1.8897
    -1.8881  -1.8846  -1.8642  -1.8633  -1.8522  -1.8508  -1.8460  -1.8416
    -1.8069  -1.7749  -1.7722  -1.7380  -1.7215  -1.7200  -1.7097  -1.7084
    -1.6873  -1.6818  -1.6722  -1.6712  -1.6704  -1.6690  -1.6659  -1.6599
    -1.6343  -1.6333  -1.6300  -1.5886  -1.5857  -1.5479  -1.5463  -1.5005
    -1.4992  -1.4871  -1.4652  -1.4588  -1.4577  -1.4406  -1.4398  -1.4229
    -1.4213  -1.4181  -1.4168  -1.4165  -1.4149  -1.4114  -1.4081  -1.3917
    -1.3913  -1.3770  -1.3642  -1.3457  -1.3454  -1.3194  -1.3189  -1.3164
    -1.3160  -1.3119  -1.3049  -1.2883  -1.2843  -1.2737  -1.2666  -1.2544
    -1.2495  -1.2362  -1.2329  -1.2048  -1.2046  -1.1968  -1.1935  -1.1614
    -1.1580  -1.1525  -1.1489  -1.1444  -1.1418  -1.1219  -1.1212  -1.1102
    -1.1032  -1.1020  -1.0909  -1.0903  -1.0889  -1.0825  -1.0750  -1.0635
    -1.0611  -1.0556  -1.0552  -1.0441  -1.0395  -1.0350  -1.0325  -0.9932
    -0.9895  -0.9853  -0.9837  -0.9834  -0.9799  -0.9439  -0.9280  -0.9261
    -0.9259  -0.9244  -0.9206  -0.9163  -0.9161  -0.9012  -0.8984  -0.8659
    -0.8618  -0.8572  -0.8561  -0.8343  -0.8337  -0.8244  -0.7949  -0.7872
    -0.7600  -0.7591  -0.7314  -0.7313  -0.7277  -0.7273  -0.7265  -0.7221
    -0.7175  -0.7172  -0.7128  -0.7109  -0.6810  -0.6797  -0.6644  -0.6598
    -0.6571  -0.6569  -0.6553  -0.6419  -0.6364  -0.3600  -0.3509  -0.2986
    -0.2814  -0.2543  -0.0922  -0.0298  -0.0271   0.0073   0.2883   0.2953
     0.6151   0.6292   0.7183   0.7214   0.7580   0.7653   0.9002   0.9142
     1.0282   1.0301   1.1185   1.7154   1.7338   1.7342   1.7722   1.7779
     1.8107   1.8335   1.8998   1.9127   2.1086   2.1142   2.3424   2.4197
     2.4334   2.4439   2.8119   2.8288   2.8950   2.8982   2.9026   2.9074
     3.0546   3.0556   3.0783   3.1913   3.2089   3.4269   3.4411   3.5651
     3.5887   3.5958   3.8582   3.8697   3.9728   3.9861   3.9960   4.0010
     4.0397   4.1802   4.1866   4.4190   4.4204   4.4918   4.5054   4.6019
     4.6314   4.6414   4.6510   4.6716   4.8573   5.3834   5.4099   5.4364
     5.5452   5.5666   5.6229   5.7226   5.7398   5.7475   5.7516   5.8518
     5.8556   5.9111   5.9163   5.9531   5.9837   6.0624   6.0758   6.1811
     6.1988   6.2171   6.2287   6.2366   6.2478   6.2510   6.2627   6.2809

          k =-0.2500-0.2500 0.0833 (167653 PWs)   bands (ev):

   -19.9748  -7.7784  -6.7101  -6.1822  -6.1808  -5.7516  -5.3464  -5.2502
    -5.2487  -5.0538  -5.0530  -4.9438  -4.9372  -4.8570  -4.8356  -4.7608
    -4.6757  -4.6737  -4.6386  -4.6333  -4.4775  -4.4570  -4.4552  -4.4543
    -4.4474  -4.3993  -4.3916  -4.3805  -4.3789  -4.3620  -4.3411  -4.3314
    -4.2974  -4.2879  -4.2871  -4.2531  -4.2513  -4.2023  -4.1969  -4.1889
    -4.1837  -4.1761  -4.1705  -4.1680  -4.1262  -4.1110  -4.1106  -4.1046
    -4.1017  -4.0696  -4.0232  -4.0076  -4.0060  -4.0037  -3.9963  -3.9899
    -3.9896  -3.9890  -3.9849  -3.9257  -3.9124  -3.8751  -3.8736  -3.8606
    -3.8358  -3.8327  -3.8132  -3.8126  -3.8089  -3.8085  -3.8027  -3.7564
    -3.7558  -3.7440  -3.7421  -3.6392  -3.6360  -3.6328  -3.6249  -3.5941
    -3.5865  -3.5716  -3.5413  -3.5403  -3.5132  -3.5107  -3.4911  -3.4895
    -3.4780  -3.4763  -3.4222  -3.4208  -3.4044  -3.3879  -3.3772  -3.3751
    -3.3745  -3.3723  -3.3469  -3.3447  -3.3103  -3.3085  -3.2880  -3.2863
    -3.2552  -3.2538  -3.2360  -3.2090  -3.2085  -3.1715  -3.1708  -3.1346
    -3.1275  -3.1269  -3.1138  -3.1106  -3.1080  -3.1065  -3.0704  -3.0594
    -3.0188  -3.0186  -3.0102  -3.0014  -3.0002  -2.9986  -2.9752  -2.9746
    -2.9542  -2.9532  -2.9522  -2.9259  -2.9251  -2.9181  -2.9159  -2.9143
    -2.8796  -2.8751  -2.8403  -2.8397  -2.8387  -2.8360  -2.8353  -2.7560
    -2.7462  -2.7430  -2.7411  -2.7403  -2.7399  -2.7361  -2.7354  -2.7350
    -2.7348  -2.7250  -2.7172  -2.7012  -2.6985  -2.6974  -2.6954  -2.6819
    -2.6790  -2.6398  -2.6389  -2.6387  -2.6356  -2.6320  -2.6166  -2.6151
    -2.6076  -2.6070  -2.6043  -2.5466  -2.5451  -2.5398  -2.5388  -2.5371
    -2.5343  -2.5054  -2.4478  -2.4466  -2.4459  -2.4438  -2.4326  -2.4323
    -2.4259  -2.4157  -2.4150  -2.3792  -2.3757  -2.3710  -2.3702  -2.3684
    -2.3668  -2.3294  -2.3289  -2.3186  -2.3178  -2.3172  -2.3162  -2.2733
    -2.2653  -2.2504  -2.2004  -2.1993  -2.1817  -2.1808  -2.1766  -2.1711
    -2.1281  -2.1217  -2.1019  -2.0954  -2.0821  -2.0711  -2.0709  -2.0615
    -2.0476  -2.0418  -2.0371  -2.0194  -1.9816  -1.9777  -1.9675  -1.9667
    -1.9623  -1.9555  -1.9514  -1.9405  -1.9395  -1.9374  -1.9346  -1.9323
    -1.9298  -1.9241  -1.9177  -1.9150  -1.8990  -1.8985  -1.8941  -1.8896
    -1.8881  -1.8846  -1.8642  -1.8633  -1.8522  -1.8508  -1.8460  -1.8416
    -1.8069  -1.7749  -1.7722  -1.7380  -1.7215  -1.7200  -1.7097  -1.7084
    -1.6873  -1.6818  -1.6722  -1.6712  -1.6704  -1.6690  -1.6659  -1.6599
    -1.6343  -1.6333  -1.6300  -1.5886  -1.5857  -1.5479  -1.5463  -1.5005
    -1.4992  -1.4871  -1.4652  -1.4588  -1.4577  -1.4406  -1.4398  -1.4229
    -1.4213  -1.4181  -1.4168  -1.4165  -1.4149  -1.4114  -1.4081  -1.3917
    -1.3913  -1.3770  -1.3642  -1.3457  -1.3454  -1.3194  -1.3189  -1.3164
    -1.3160  -1.3119  -1.3049  -1.2883  -1.2843  -1.2737  -1.2666  -1.2544
    -1.2495  -1.2362  -1.2329  -1.2047  -1.2046  -1.1968  -1.1935  -1.1614
    -1.1580  -1.1525  -1.1489  -1.1444  -1.1418  -1.1219  -1.1212  -1.1102
    -1.1032  -1.1020  -1.0909  -1.0903  -1.0889  -1.0825  -1.0750  -1.0635
    -1.0610  -1.0556  -1.0552  -1.0441  -1.0395  -1.0350  -1.0325  -0.9932
    -0.9895  -0.9853  -0.9837  -0.9834  -0.9799  -0.9439  -0.9281  -0.9261
    -0.9259  -0.9244  -0.9207  -0.9163  -0.9161  -0.9012  -0.8984  -0.8659
    -0.8618  -0.8572  -0.8561  -0.8344  -0.8337  -0.8244  -0.7949  -0.7872
    -0.7600  -0.7591  -0.7314  -0.7313  -0.7277  -0.7272  -0.7265  -0.7221
    -0.7175  -0.7172  -0.7128  -0.7109  -0.6810  -0.6797  -0.6644  -0.6598
    -0.6571  -0.6569  -0.6553  -0.6419  -0.6364  -0.3600  -0.3509  -0.2987
    -0.2814  -0.2543  -0.0922  -0.0298  -0.0271   0.0073   0.2883   0.2953
     0.6151   0.6292   0.7183   0.7214   0.7580   0.7653   0.9002   0.9142
     1.0282   1.0301   1.1185   1.7154   1.7338   1.7342   1.7722   1.7778
     1.8107   1.8335   1.8998   1.9127   2.1086   2.1142   2.3424   2.4197
     2.4334   2.4439   2.8119   2.8288   2.8950   2.8982   2.9026   2.9074
     3.0546   3.0556   3.0783   3.1913   3.2089   3.4269   3.4411   3.5651
     3.5887   3.5958   3.8582   3.8697   3.9728   3.9860   3.9960   4.0010
     4.0396   4.1802   4.1866   4.4190   4.4204   4.4920   4.5054   4.6025
     4.6314   4.6414   4.6512   4.6717   4.8587   5.3855   5.4215   5.4511
     5.5460   5.5672   5.6065   5.6623   5.7398   5.7497   5.7522   5.8522
     5.8557   5.9111   5.9154   5.9485   6.0085   6.0320   6.0899   6.1505
     6.1874   6.2147   6.2225   6.2363   6.2467   6.2492   6.2608   6.2672

          k =-0.2500 0.2500-0.0833 (167653 PWs)   bands (ev):

   -19.9748  -7.7784  -6.7101  -6.1815  -6.1812  -5.7519  -5.3466  -5.2498
    -5.2496  -5.0534  -5.0527  -4.9430  -4.9365  -4.8566  -4.8375  -4.7620
    -4.6768  -4.6721  -4.6342  -4.6331  -4.4790  -4.4554  -4.4546  -4.4538
    -4.4475  -4.3996  -4.3913  -4.3898  -4.3799  -4.3657  -4.3425  -4.3307
    -4.2974  -4.2877  -4.2801  -4.2543  -4.2492  -4.2018  -4.1989  -4.1890
    -4.1840  -4.1777  -4.1705  -4.1671  -4.1220  -4.1112  -4.1101  -4.1043
    -4.1036  -4.0656  -4.0165  -4.0072  -4.0062  -4.0040  -3.9976  -3.9951
    -3.9892  -3.9891  -3.9857  -3.9253  -3.9187  -3.8746  -3.8692  -3.8582
    -3.8357  -3.8333  -3.8165  -3.8130  -3.8125  -3.8062  -3.8044  -3.7562
    -3.7549  -3.7436  -3.7421  -3.6386  -3.6352  -3.6324  -3.6283  -3.5936
    -3.5865  -3.5716  -3.5414  -3.5409  -3.5127  -3.5106  -3.4913  -3.4908
    -3.4774  -3.4754  -3.4220  -3.4214  -3.4002  -3.3883  -3.3752  -3.3750
    -3.3739  -3.3729  -3.3471  -3.3467  -3.3099  -3.3081  -3.2881  -3.2876
    -3.2550  -3.2542  -3.2363  -3.2085  -3.2066  -3.1711  -3.1706  -3.1354
    -3.1277  -3.1266  -3.1137  -3.1129  -3.1080  -3.1072  -3.0702  -3.0597
    -3.0189  -3.0181  -3.0103  -3.0013  -3.0004  -2.9987  -2.9751  -2.9745
    -2.9537  -2.9534  -2.9527  -2.9259  -2.9254  -2.9183  -2.9155  -2.9145
    -2.8791  -2.8755  -2.8401  -2.8393  -2.8377  -2.8360  -2.8358  -2.7559
    -2.7464  -2.7425  -2.7417  -2.7408  -2.7403  -2.7358  -2.7352  -2.7350
    -2.7335  -2.7250  -2.7172  -2.7016  -2.6982  -2.6975  -2.6933  -2.6827
    -2.6752  -2.6401  -2.6390  -2.6388  -2.6353  -2.6336  -2.6162  -2.6154
    -2.6073  -2.6062  -2.6043  -2.5462  -2.5457  -2.5401  -2.5397  -2.5360
    -2.5311  -2.5076  -2.4483  -2.4468  -2.4464  -2.4437  -2.4324  -2.4303
    -2.4284  -2.4153  -2.4149  -2.3800  -2.3784  -2.3704  -2.3691  -2.3688
    -2.3668  -2.3296  -2.3285  -2.3188  -2.3182  -2.3174  -2.3151  -2.2742
    -2.2599  -2.2572  -2.1996  -2.1991  -2.1826  -2.1814  -2.1751  -2.1727
    -2.1356  -2.1263  -2.1025  -2.0979  -2.0756  -2.0710  -2.0707  -2.0507
    -2.0477  -2.0408  -2.0371  -2.0216  -1.9813  -1.9802  -1.9676  -1.9673
    -1.9632  -1.9552  -1.9534  -1.9408  -1.9380  -1.9370  -1.9344  -1.9310
    -1.9303  -1.9274  -1.9177  -1.9139  -1.8997  -1.8984  -1.8961  -1.8898
    -1.8873  -1.8873  -1.8643  -1.8628  -1.8515  -1.8501  -1.8449  -1.8407
    -1.8070  -1.7738  -1.7725  -1.7380  -1.7212  -1.7203  -1.7110  -1.7068
    -1.6877  -1.6818  -1.6726  -1.6712  -1.6695  -1.6686  -1.6668  -1.6554
    -1.6339  -1.6333  -1.6314  -1.5884  -1.5854  -1.5480  -1.5460  -1.5009
    -1.4986  -1.4871  -1.4652  -1.4592  -1.4576  -1.4407  -1.4390  -1.4227
    -1.4223  -1.4182  -1.4170  -1.4165  -1.4151  -1.4108  -1.4088  -1.3923
    -1.3911  -1.3786  -1.3641  -1.3454  -1.3433  -1.3192  -1.3189  -1.3165
    -1.3149  -1.3122  -1.3053  -1.2892  -1.2838  -1.2736  -1.2662  -1.2545
    -1.2496  -1.2348  -1.2342  -1.2051  -1.2041  -1.1969  -1.1938  -1.1608
    -1.1601  -1.1525  -1.1504  -1.1445  -1.1399  -1.1218  -1.1216  -1.1100
    -1.1026  -1.1025  -1.0904  -1.0900  -1.0893  -1.0834  -1.0747  -1.0644
    -1.0618  -1.0556  -1.0551  -1.0438  -1.0390  -1.0326  -1.0321  -0.9917
    -0.9909  -0.9850  -0.9840  -0.9823  -0.9815  -0.9439  -0.9277  -0.9269
    -0.9255  -0.9250  -0.9222  -0.9161  -0.9096  -0.9015  -0.9007  -0.8644
    -0.8625  -0.8569  -0.8565  -0.8343  -0.8339  -0.8244  -0.7946  -0.7870
    -0.7601  -0.7588  -0.7316  -0.7310  -0.7276  -0.7271  -0.7266  -0.7220
    -0.7173  -0.7171  -0.7130  -0.7125  -0.6808  -0.6800  -0.6642  -0.6599
    -0.6573  -0.6568  -0.6541  -0.6432  -0.6361  -0.3602  -0.3508  -0.2974
    -0.2827  -0.2542  -0.0942  -0.0295  -0.0282   0.0077   0.2895   0.2943
     0.6167   0.6284   0.7183   0.7209   0.7583   0.7637   0.9035   0.9086
     1.0282   1.0304   1.1185   1.7148   1.7332   1.7352   1.7733   1.7778
     1.8131   1.8339   1.9026   1.9086   2.1093   2.1135   2.3444   2.4208
     2.4353   2.4425   2.8135   2.8302   2.8962   2.8974   2.9031   2.9062
     3.0538   3.0562   3.0798   3.1964   3.1988   3.4278   3.4333   3.5649
     3.5912   3.5956   3.8622   3.8631   3.9736   3.9886   3.9959   4.0026
     4.0405   4.1804   4.1846   4.4169   4.4203   4.4951   4.5039   4.5907
     4.6308   4.6361   4.6491   4.6837   4.8682   5.3866   5.4229   5.4675
     5.5545   5.5639   5.5951   5.6455   5.7421   5.7438   5.7531   5.8520
     5.8599   5.9094   5.9126   5.9544   6.0078   6.0254   6.1004   6.1434
     6.1915   6.2185   6.2304   6.2373   6.2428   6.2482   6.2610   6.2693

          k = 0.2500-0.2500-0.0833 (167653 PWs)   bands (ev):

   -19.9748  -7.7784  -6.7101  -6.1815  -6.1812  -5.7519  -5.3466  -5.2498
    -5.2496  -5.0534  -5.0527  -4.9430  -4.9365  -4.8566  -4.8375  -4.7620
    -4.6768  -4.6721  -4.6342  -4.6331  -4.4790  -4.4554  -4.4546  -4.4538
    -4.4475  -4.3996  -4.3913  -4.3898  -4.3799  -4.3657  -4.3425  -4.3307
    -4.2974  -4.2877  -4.2801  -4.2543  -4.2492  -4.2018  -4.1989  -4.1890
    -4.1840  -4.1777  -4.1705  -4.1671  -4.1220  -4.1112  -4.1101  -4.1043
    -4.1036  -4.0656  -4.0165  -4.0072  -4.0062  -4.0040  -3.9976  -3.9951
    -3.9892  -3.9891  -3.9857  -3.9253  -3.9187  -3.8746  -3.8692  -3.8582
    -3.8357  -3.8333  -3.8165  -3.8130  -3.8125  -3.8062  -3.8044  -3.7562
    -3.7549  -3.7436  -3.7421  -3.6386  -3.6352  -3.6324  -3.6283  -3.5936
    -3.5865  -3.5716  -3.5414  -3.5409  -3.5127  -3.5106  -3.4913  -3.4908
    -3.4774  -3.4754  -3.4220  -3.4214  -3.4002  -3.3883  -3.3752  -3.3750
    -3.3739  -3.3729  -3.3471  -3.3467  -3.3099  -3.3081  -3.2881  -3.2876
    -3.2550  -3.2542  -3.2363  -3.2085  -3.2066  -3.1711  -3.1706  -3.1354
    -3.1277  -3.1266  -3.1137  -3.1129  -3.1080  -3.1072  -3.0702  -3.0597
    -3.0189  -3.0181  -3.0103  -3.0013  -3.0004  -2.9987  -2.9751  -2.9745
    -2.9537  -2.9534  -2.9527  -2.9259  -2.9254  -2.9183  -2.9155  -2.9145
    -2.8791  -2.8755  -2.8401  -2.8393  -2.8377  -2.8360  -2.8358  -2.7559
    -2.7464  -2.7425  -2.7417  -2.7408  -2.7403  -2.7358  -2.7352  -2.7350
    -2.7335  -2.7250  -2.7172  -2.7016  -2.6982  -2.6975  -2.6933  -2.6827
    -2.6752  -2.6401  -2.6390  -2.6388  -2.6353  -2.6336  -2.6162  -2.6154
    -2.6073  -2.6062  -2.6043  -2.5462  -2.5457  -2.5401  -2.5397  -2.5360
    -2.5311  -2.5076  -2.4483  -2.4468  -2.4464  -2.4437  -2.4324  -2.4303
    -2.4284  -2.4153  -2.4149  -2.3800  -2.3784  -2.3704  -2.3691  -2.3688
    -2.3668  -2.3296  -2.3285  -2.3188  -2.3182  -2.3174  -2.3151  -2.2742
    -2.2599  -2.2572  -2.1996  -2.1991  -2.1826  -2.1814  -2.1751  -2.1727
    -2.1356  -2.1263  -2.1025  -2.0979  -2.0756  -2.0710  -2.0707  -2.0507
    -2.0477  -2.0408  -2.0371  -2.0216  -1.9813  -1.9802  -1.9676  -1.9673
    -1.9632  -1.9552  -1.9534  -1.9408  -1.9380  -1.9370  -1.9344  -1.9310
    -1.9303  -1.9274  -1.9177  -1.9139  -1.8997  -1.8984  -1.8961  -1.8898
    -1.8873  -1.8873  -1.8643  -1.8628  -1.8515  -1.8501  -1.8449  -1.8407
    -1.8070  -1.7738  -1.7725  -1.7380  -1.7212  -1.7203  -1.7110  -1.7068
    -1.6877  -1.6818  -1.6726  -1.6712  -1.6695  -1.6686  -1.6668  -1.6554
    -1.6339  -1.6333  -1.6314  -1.5884  -1.5854  -1.5480  -1.5460  -1.5009
    -1.4986  -1.4871  -1.4652  -1.4592  -1.4576  -1.4407  -1.4390  -1.4227
    -1.4223  -1.4182  -1.4170  -1.4165  -1.4151  -1.4108  -1.4088  -1.3923
    -1.3911  -1.3786  -1.3641  -1.3454  -1.3433  -1.3192  -1.3189  -1.3165
    -1.3149  -1.3122  -1.3053  -1.2892  -1.2838  -1.2736  -1.2662  -1.2545
    -1.2496  -1.2348  -1.2342  -1.2051  -1.2041  -1.1969  -1.1938  -1.1608
    -1.1601  -1.1525  -1.1504  -1.1445  -1.1399  -1.1218  -1.1216  -1.1100
    -1.1026  -1.1025  -1.0904  -1.0900  -1.0893  -1.0834  -1.0747  -1.0644
    -1.0618  -1.0556  -1.0551  -1.0438  -1.0390  -1.0326  -1.0321  -0.9917
    -0.9909  -0.9850  -0.9840  -0.9823  -0.9815  -0.9439  -0.9277  -0.9269
    -0.9255  -0.9250  -0.9222  -0.9161  -0.9096  -0.9015  -0.9007  -0.8644
    -0.8625  -0.8569  -0.8565  -0.8343  -0.8339  -0.8244  -0.7946  -0.7870
    -0.7601  -0.7588  -0.7316  -0.7310  -0.7276  -0.7271  -0.7266  -0.7220
    -0.7173  -0.7171  -0.7130  -0.7125  -0.6808  -0.6800  -0.6642  -0.6599
    -0.6573  -0.6568  -0.6541  -0.6432  -0.6361  -0.3602  -0.3508  -0.2974
    -0.2827  -0.2542  -0.0942  -0.0295  -0.0282   0.0077   0.2895   0.2943
     0.6167   0.6284   0.7183   0.7209   0.7583   0.7637   0.9035   0.9086
     1.0282   1.0304   1.1185   1.7148   1.7332   1.7352   1.7733   1.7778
     1.8131   1.8339   1.9026   1.9086   2.1093   2.1135   2.3444   2.4208
     2.4353   2.4425   2.8135   2.8302   2.8962   2.8974   2.9031   2.9062
     3.0538   3.0562   3.0798   3.1964   3.1988   3.4278   3.4333   3.5649
     3.5912   3.5956   3.8622   3.8631   3.9736   3.9886   3.9959   4.0026
     4.0405   4.1804   4.1846   4.4169   4.4203   4.4951   4.5039   4.5907
     4.6308   4.6361   4.6491   4.6837   4.8682   5.3866   5.4228   5.4678
     5.5545   5.5639   5.5945   5.6459   5.7421   5.7438   5.7530   5.8520
     5.8599   5.9094   5.9126   5.9545   6.0076   6.0260   6.1013   6.1426
     6.1916   6.2182   6.2301   6.2376   6.2428   6.2482   6.2610   6.2695

          k =-0.2500 0.2500 0.2500 (167588 PWs)   bands (ev):

   -19.9748  -7.7784  -6.7101  -6.1815  -6.1812  -5.7519  -5.3466  -5.2498
    -5.2496  -5.0534  -5.0527  -4.9430  -4.9365  -4.8566  -4.8375  -4.7620
    -4.6768  -4.6721  -4.6342  -4.6331  -4.4790  -4.4554  -4.4546  -4.4538
    -4.4475  -4.3996  -4.3913  -4.3898  -4.3799  -4.3657  -4.3425  -4.3307
    -4.2974  -4.2877  -4.2801  -4.2543  -4.2492  -4.2018  -4.1989  -4.1890
    -4.1840  -4.1777  -4.1705  -4.1671  -4.1220  -4.1112  -4.1101  -4.1043
    -4.1036  -4.0656  -4.0165  -4.0072  -4.0062  -4.0040  -3.9976  -3.9951
    -3.9892  -3.9891  -3.9857  -3.9253  -3.9187  -3.8746  -3.8692  -3.8582
    -3.8357  -3.8333  -3.8165  -3.8130  -3.8125  -3.8062  -3.8044  -3.7562
    -3.7549  -3.7436  -3.7421  -3.6386  -3.6352  -3.6324  -3.6283  -3.5936
    -3.5865  -3.5716  -3.5414  -3.5409  -3.5127  -3.5106  -3.4913  -3.4908
    -3.4774  -3.4754  -3.4220  -3.4214  -3.4002  -3.3883  -3.3752  -3.3750
    -3.3739  -3.3729  -3.3471  -3.3467  -3.3099  -3.3081  -3.2881  -3.2876
    -3.2550  -3.2542  -3.2363  -3.2084  -3.2066  -3.1711  -3.1706  -3.1354
    -3.1277  -3.1266  -3.1137  -3.1129  -3.1080  -3.1072  -3.0702  -3.0597
    -3.0189  -3.0181  -3.0103  -3.0013  -3.0004  -2.9987  -2.9751  -2.9745
    -2.9537  -2.9534  -2.9527  -2.9259  -2.9254  -2.9183  -2.9155  -2.9145
    -2.8791  -2.8755  -2.8401  -2.8393  -2.8377  -2.8360  -2.8358  -2.7560
    -2.7464  -2.7425  -2.7417  -2.7408  -2.7404  -2.7358  -2.7352  -2.7350
    -2.7335  -2.7250  -2.7172  -2.7016  -2.6982  -2.6975  -2.6933  -2.6826
    -2.6752  -2.6401  -2.6390  -2.6388  -2.6353  -2.6336  -2.6162  -2.6154
    -2.6073  -2.6062  -2.6044  -2.5462  -2.5457  -2.5401  -2.5397  -2.5360
    -2.5311  -2.5076  -2.4483  -2.4468  -2.4464  -2.4437  -2.4324  -2.4303
    -2.4284  -2.4153  -2.4149  -2.3800  -2.3784  -2.3704  -2.3691  -2.3688
    -2.3668  -2.3297  -2.3285  -2.3188  -2.3182  -2.3174  -2.3151  -2.2742
    -2.2599  -2.2572  -2.1996  -2.1991  -2.1826  -2.1814  -2.1751  -2.1727
    -2.1356  -2.1263  -2.1026  -2.0979  -2.0756  -2.0710  -2.0707  -2.0507
    -2.0477  -2.0408  -2.0371  -2.0216  -1.9813  -1.9801  -1.9675  -1.9673
    -1.9632  -1.9552  -1.9534  -1.9408  -1.9380  -1.9370  -1.9344  -1.9310
    -1.9303  -1.9274  -1.9177  -1.9139  -1.8997  -1.8984  -1.8961  -1.8898
    -1.8873  -1.8872  -1.8643  -1.8628  -1.8515  -1.8501  -1.8449  -1.8407
    -1.8070  -1.7738  -1.7725  -1.7380  -1.7212  -1.7203  -1.7109  -1.7068
    -1.6877  -1.6818  -1.6726  -1.6712  -1.6695  -1.6686  -1.6668  -1.6554
    -1.6339  -1.6333  -1.6314  -1.5884  -1.5854  -1.5481  -1.5460  -1.5009
    -1.4987  -1.4871  -1.4652  -1.4592  -1.4576  -1.4407  -1.4390  -1.4227
    -1.4223  -1.4182  -1.4170  -1.4165  -1.4151  -1.4108  -1.4088  -1.3923
    -1.3911  -1.3786  -1.3641  -1.3454  -1.3433  -1.3192  -1.3189  -1.3165
    -1.3149  -1.3122  -1.3053  -1.2892  -1.2838  -1.2736  -1.2662  -1.2545
    -1.2496  -1.2348  -1.2342  -1.2052  -1.2041  -1.1969  -1.1938  -1.1608
    -1.1601  -1.1525  -1.1504  -1.1445  -1.1399  -1.1218  -1.1216  -1.1100
    -1.1026  -1.1025  -1.0904  -1.0900  -1.0893  -1.0833  -1.0747  -1.0644
    -1.0618  -1.0556  -1.0551  -1.0438  -1.0390  -1.0326  -1.0321  -0.9917
    -0.9909  -0.9850  -0.9840  -0.9823  -0.9815  -0.9439  -0.9277  -0.9269
    -0.9255  -0.9250  -0.9222  -0.9161  -0.9096  -0.9015  -0.9007  -0.8644
    -0.8625  -0.8569  -0.8565  -0.8343  -0.8339  -0.8244  -0.7946  -0.7870
    -0.7601  -0.7588  -0.7316  -0.7310  -0.7276  -0.7271  -0.7266  -0.7220
    -0.7173  -0.7171  -0.7130  -0.7125  -0.6809  -0.6800  -0.6642  -0.6599
    -0.6573  -0.6568  -0.6541  -0.6432  -0.6361  -0.3602  -0.3508  -0.2974
    -0.2827  -0.2542  -0.0942  -0.0295  -0.0282   0.0077   0.2895   0.2943
     0.6167   0.6284   0.7183   0.7209   0.7583   0.7637   0.9035   0.9086
     1.0282   1.0304   1.1185   1.7148   1.7332   1.7352   1.7733   1.7778
     1.8131   1.8339   1.9026   1.9086   2.1093   2.1135   2.3444   2.4208
     2.4353   2.4425   2.8135   2.8302   2.8962   2.8974   2.9031   2.9062
     3.0538   3.0562   3.0798   3.1964   3.1988   3.4278   3.4333   3.5649
     3.5912   3.5956   3.8622   3.8631   3.9736   3.9887   3.9959   4.0026
     4.0406   4.1804   4.1847   4.4169   4.4203   4.4949   4.5039   4.5901
     4.6308   4.6361   4.6491   4.6836   4.8667   5.3854   5.4085   5.4535
     5.5540   5.5641   5.5935   5.7300   5.7420   5.7436   5.7503   5.8517
     5.8603   5.9092   5.9128   5.9544   5.9870   6.0525   6.0704   6.1949
     6.2049   6.2241   6.2250   6.2403   6.2447   6.2526   6.2605   6.2642

     the Fermi energy is     0.9797 ev

!    total energy              =   -7425.29352931 Ry
     Harris-Foulkes estimate   =   -7425.29352932 Ry
     estimated scf accuracy    <          3.2E-09 Ry

     The total energy is the sum of the following terms:

     one-electron contribution =  -48797.64100763 Ry
     hartree contribution      =   24952.78686141 Ry
     xc contribution           =   -3604.22270627 Ry
     ewald contribution        =   20023.78616086 Ry
     smearing contrib. (-TS)   =      -0.00283767 Ry

     convergence has been achieved in  26 iterations

     Writing output data file 7239981.save

     init_run     :    124.48s CPU    133.39s WALL (       1 calls)
     electrons    :   7447.75s CPU   7887.00s WALL (       1 calls)

     Called by init_run:
     wfcinit      :     85.50s CPU     91.86s WALL (       1 calls)
     potinit      :      7.87s CPU      8.29s WALL (       1 calls)

     Called by electrons:
     c_bands      :   5641.74s CPU   5988.56s WALL (      27 calls)
     sum_band     :   1094.64s CPU   1169.37s WALL (      27 calls)
     v_of_rho     :    158.21s CPU    169.54s WALL (      27 calls)
     newd         :    570.50s CPU    575.94s WALL (      27 calls)
     mix_rho      :      4.28s CPU      4.77s WALL (      27 calls)
     vdW_energy   :      9.05s CPU      9.72s WALL (      27 calls)
     vdW_ffts     :     90.19s CPU     95.78s WALL (      54 calls)
     vdW_v        :     18.87s CPU     19.72s WALL (      27 calls)

     Called by c_bands:
     init_us_2    :     12.71s CPU     13.06s WALL (     330 calls)
     cegterg      :   5577.42s CPU   5923.29s WALL (     162 calls)

     Called by *egterg:
     h_psi        :   2426.11s CPU   2740.90s WALL (     832 calls)
     s_psi        :    359.33s CPU    361.36s WALL (     832 calls)
     g_psi        :      4.52s CPU      4.55s WALL (     664 calls)
     cdiaghg      :   1546.82s CPU   1551.77s WALL (     820 calls)

     Called by h_psi:
     add_vuspsi   :    361.78s CPU    363.97s WALL (     832 calls)

     General routines
     calbec       :    561.21s CPU    563.48s WALL (     994 calls)
     fft          :    404.93s CPU    416.43s WALL (    1782 calls)
     ffts         :      3.14s CPU      3.45s WALL (      54 calls)
     fftw         :   1868.77s CPU   2218.07s WALL (  443548 calls)
     interpolate  :      7.34s CPU      8.13s WALL (      54 calls)
     davcio       :      0.00s CPU      0.20s WALL (       6 calls)

     Parallel routines
     fft_scatter  :   1659.77s CPU   1956.22s WALL (  445384 calls)

     PWSCF        :     2h 6m CPU        2h13m WALL


   This run was terminated on:  13:25:51  24Aug2015            

=------------------------------------------------------------------------------=
   JOB DONE.
=------------------------------------------------------------------------------=
