
     Program PWSCF v.5.1.2 starts on 23Aug2015 at 23:40:19 

     This program is part of the open-source Quantum ESPRESSO suite
     for quantum simulation of materials; please cite
         "P. Giannozzi et al., J. Phys.:Condens. Matter 21 395502 (2009);
          URL http://www.quantum-espresso.org", 
     in publications or presentations arising from this work. More details at
     http://www.quantum-espresso.org/quote

     Parallel version (MPI), running on    32 processors
     R & G space division:  proc/nbgrp/npool/nimage =      32
     Reading input from bridge.H2.Au6165.d.2.3.phi.0.psi.90.in
Warning: card &IONS ignored
Warning: card / ignored
Warning: card &CELL ignored
Warning: card / ignored

     Current dimensions of program PWSCF are:
     Max number of different atomic species (ntypx) = 10
     Max number of k-points (npk) =  40000
     Max angular momentum in pseudopotentials (lmaxx) =  3

     IMPORTANT: XC functional enforced from input :
     Exchange-correlation      = VDW-DF ( 1  4  4  0 1 0)
     Any further DFT definition will be discarded
     Please, verify this is what you really want


     Subspace diagonalization in iterative solution of the eigenvalue problem:
     a serial algorithm will be used


     Parallelization info
     --------------------
     sticks:   dense  smooth     PW     G-vecs:    dense   smooth      PW
     Min         578     289     74               118518    41891    5486
     Max         579     290     75               118533    41932    5497
     Sum       18505    9265   2385              3792731  1341081  175711


     Title: 
     bridge.H2.Au6165.d.2.3.phi.0.psi.90                                        


     bravais-lattice index     =            8
     lattice parameter (alat)  =      24.1233  a.u.
     unit-cell volume          =   28076.2361 (a.u.)^3
     number of atoms/cell      =           75
     number of atomic types    =            3
     number of electrons       =       800.00
     number of Kohn-Sham states=          480
     kinetic-energy cutoff     =      50.0000  Ry
     charge density cutoff     =     400.0000  Ry
     convergence threshold     =      1.0E-08
     mixing beta               =       0.7000
     number of iterations used =            8  plain     mixing
     Exchange-correlation      = VDW-DF ( 1  4  4  0 1 0)

     celldm(1)=  24.123277  celldm(2)=   1.000000  celldm(3)=   2.000000
     celldm(4)=   0.000000  celldm(5)=   0.000000  celldm(6)=   0.000000

     crystal axes: (cart. coord. in units of alat)
               a(1) = (   1.000000   0.000000   0.000000 )  
               a(2) = (   0.000000   1.000000   0.000000 )  
               a(3) = (   0.000000   0.000000   2.000000 )  

     reciprocal axes: (cart. coord. in units 2 pi/alat)
               b(1) = (  1.000000  0.000000  0.000000 )  
               b(2) = (  0.000000  1.000000  0.000000 )  
               b(3) = (  0.000000  0.000000  0.500000 )  


     PseudoPot. # 1 for Au read from file:
     /home/scc/andrejb/qe/pseudo/Au.pbe-nd-van.UPF
     MD5 check sum: 458681b50f36d87ef23c61b04bba420a
     Pseudo is Ultrasoft + core correction, Zval = 11.0
     Generated by new atomic code, or converted to UPF format
     Using radial grid of  985 points,  3 beta functions with: 
                l(1) =   1
                l(2) =   2
                l(3) =   2
     Q(r) pseudized with  8 coefficients,  rinner =    1.100   1.100   1.100
                                                       1.100   1.100

     PseudoPot. # 2 for H  read from file:
     /home/scc/andrejb/qe/pseudo/H.pbe-van_ak.UPF
     MD5 check sum: 403db7282739603aa925980fa9b8608d
     Pseudo is Ultrasoft, Zval =  1.0
     Generated by new atomic code, or converted to UPF format
     Using radial grid of  615 points,  1 beta functions with: 
                l(1) =   0
     Q(r) pseudized with  8 coefficients,  rinner =    0.800

     PseudoPot. # 3 for O  read from file:
     /home/scc/andrejb/qe/pseudo/O.pbe-van_ak.UPF
     MD5 check sum: 4b8c549914a63cae506c6ff22b5af4fe
     Pseudo is Ultrasoft, Zval =  6.0
     Generated by new atomic code, or converted to UPF format
     Using radial grid of  737 points,  4 beta functions with: 
                l(1) =   0
                l(2) =   0
                l(3) =   1
                l(4) =   1
     Q(r) pseudized with  8 coefficients,  rinner =    0.800   0.800   0.800


     vdW kernel table read from file vdW_kernel_table
     MD5 check sum: 48e77a2e26edf626eeb0eaa751ad5cac

     atomic species   valence    mass     pseudopotential
        Au            11.00   196.96657     Au( 1.00)
        H              1.00     1.01000     H ( 1.00)
        O              6.00    16.00000     O ( 1.00)

     No symmetry found



   Cartesian axes

     site n.     atom                  positions (alat units)
         1           O   tau(   1) = (   0.2673116   0.3436714   0.6939789  )
         2           H   tau(   2) = (   0.2499161   0.4165269   0.6794918  )
         3           H   tau(   3) = (   0.2174848   0.3034807   0.6525007  )
         4           Au  tau(   4) = (   0.0000000   0.0000000   0.0000000  )
         5           Au  tau(   5) = (   0.3332217   0.0000000   0.0000000  )
         6           Au  tau(   6) = (   0.6664434   0.0000000   0.0000000  )
         7           Au  tau(   7) = (   0.1666109   0.1666109   0.0000000  )
         8           Au  tau(   8) = (   0.4998326   0.1666109   0.0000000  )
         9           Au  tau(   9) = (   0.8330542   0.1666109   0.0000000  )
        10           Au  tau(  10) = (   0.0000000   0.3332217   0.0000000  )
        11           Au  tau(  11) = (   0.3332217   0.3332217   0.0000000  )
        12           Au  tau(  12) = (   0.6664434   0.3332217   0.0000000  )
        13           Au  tau(  13) = (   0.1666109   0.4998326   0.0000000  )
        14           Au  tau(  14) = (   0.4998326   0.4998326   0.0000000  )
        15           Au  tau(  15) = (   0.8330542   0.4998326   0.0000000  )
        16           Au  tau(  16) = (   0.0000000   0.6664434   0.0000000  )
        17           Au  tau(  17) = (   0.3332217   0.6664434   0.0000000  )
        18           Au  tau(  18) = (   0.6664434   0.6664434   0.0000000  )
        19           Au  tau(  19) = (   0.1666109   0.8330542   0.0000000  )
        20           Au  tau(  20) = (   0.4998326   0.8330542   0.0000000  )
        21           Au  tau(  21) = (   0.8330542   0.8330542   0.0000000  )
        22           Au  tau(  22) = (   0.1666109   0.0000000   0.1666109  )
        23           Au  tau(  23) = (   0.4998326   0.0000000   0.1666109  )
        24           Au  tau(  24) = (   0.8330542   0.0000000   0.1666109  )
        25           Au  tau(  25) = (   0.0000000   0.1666109   0.1666109  )
        26           Au  tau(  26) = (   0.3332217   0.1666109   0.1666109  )
        27           Au  tau(  27) = (   0.6664434   0.1666109   0.1666109  )
        28           Au  tau(  28) = (   0.1666109   0.3332217   0.1666109  )
        29           Au  tau(  29) = (   0.4998326   0.3332217   0.1666109  )
        30           Au  tau(  30) = (   0.8330542   0.3332217   0.1666109  )
        31           Au  tau(  31) = (   0.0000000   0.4998326   0.1666109  )
        32           Au  tau(  32) = (   0.3332217   0.4998326   0.1666109  )
        33           Au  tau(  33) = (   0.6664434   0.4998326   0.1666109  )
        34           Au  tau(  34) = (   0.1666109   0.6664434   0.1666109  )
        35           Au  tau(  35) = (   0.4998326   0.6664434   0.1666109  )
        36           Au  tau(  36) = (   0.8330542   0.6664434   0.1666109  )
        37           Au  tau(  37) = (   0.0000000   0.8330542   0.1666109  )
        38           Au  tau(  38) = (   0.3332217   0.8330542   0.1666109  )
        39           Au  tau(  39) = (   0.6664434   0.8330542   0.1666109  )
        40           Au  tau(  40) = (  -0.0000182  -0.0000182   0.3335478  )
        41           Au  tau(  41) = (   0.3332215  -0.0000181   0.3335473  )
        42           Au  tau(  42) = (   0.6664447  -0.0000183   0.3335481  )
        43           Au  tau(  43) = (  -0.0000181   0.3332215   0.3335473  )
        44           Au  tau(  44) = (   0.3332215   0.3332215   0.3335468  )
        45           Au  tau(  45) = (   0.6664445   0.3332215   0.3335477  )
        46           Au  tau(  46) = (  -0.0000183   0.6664447   0.3335481  )
        47           Au  tau(  47) = (   0.3332215   0.6664445   0.3335477  )
        48           Au  tau(  48) = (   0.6664446   0.6664446   0.3335486  )
        49           Au  tau(  49) = (   0.1666097   0.1666097   0.3335483  )
        50           Au  tau(  50) = (   0.4998320   0.1666098   0.3335477  )
        51           Au  tau(  51) = (   0.8330732   0.1666096   0.3335480  )
        52           Au  tau(  52) = (   0.1666098   0.4998320   0.3335477  )
        53           Au  tau(  53) = (   0.4998322   0.4998322   0.3335470  )
        54           Au  tau(  54) = (   0.8330731   0.4998322   0.3335474  )
        55           Au  tau(  55) = (   0.1666096   0.8330732   0.3335480  )
        56           Au  tau(  56) = (   0.4998322   0.8330731   0.3335474  )
        57           Au  tau(  57) = (   0.8330731   0.8330731   0.3335478  )
        58           Au  tau(  58) = (   0.1666104  -0.0000111   0.4993095  )
        59           Au  tau(  59) = (   0.4998323  -0.0000112   0.4993099  )
        60           Au  tau(  60) = (   0.8330660  -0.0000111   0.4993009  )
        61           Au  tau(  61) = (  -0.0000111   0.1666104   0.4993095  )
        62           Au  tau(  62) = (   0.3332213   0.1666106   0.4993185  )
        63           Au  tau(  63) = (   0.6664437   0.1666106   0.4993187  )
        64           Au  tau(  64) = (   0.1666106   0.3332213   0.4993185  )
        65           Au  tau(  65) = (   0.4998324   0.3332216   0.4993185  )
        66           Au  tau(  66) = (   0.8330658   0.3332215   0.4993102  )
        67           Au  tau(  67) = (  -0.0000112   0.4998323   0.4993099  )
        68           Au  tau(  68) = (   0.3332216   0.4998324   0.4993185  )
        69           Au  tau(  69) = (   0.6664437   0.4998325   0.4993187  )
        70           Au  tau(  70) = (   0.1666106   0.6664437   0.4993187  )
        71           Au  tau(  71) = (   0.4998325   0.6664437   0.4993187  )
        72           Au  tau(  72) = (   0.8330658   0.6664438   0.4993102  )
        73           Au  tau(  73) = (  -0.0000111   0.8330660   0.4993009  )
        74           Au  tau(  74) = (   0.3332215   0.8330658   0.4993102  )
        75           Au  tau(  75) = (   0.6664438   0.8330658   0.4993102  )

     number of k points=     6  Marzari-Vanderbilt smearing, width (Ry)=  0.0200
                       cart. coord. in units 2pi/alat
        k(    1) = (   0.2500000   0.2500000   0.0833333), wk =   0.3333333
        k(    2) = (   0.2500000   0.2500000  -0.2500000), wk =   0.3333333
        k(    3) = (  -0.2500000  -0.2500000   0.0833333), wk =   0.3333333
        k(    4) = (  -0.2500000   0.2500000  -0.0833333), wk =   0.3333333
        k(    5) = (   0.2500000  -0.2500000  -0.0833333), wk =   0.3333333
        k(    6) = (  -0.2500000   0.2500000   0.2500000), wk =   0.3333333

     Dense  grid:  3792731 G-vectors     FFT dimensions: ( 160, 160, 320)

     Smooth grid:  1341081 G-vectors     FFT dimensions: ( 120, 120, 225)

     Largest allocated arrays     est. size (Mb)     dimensions
        Kohn-Sham Wavefunctions        38.58 Mb     (    5267,  480)
        NL pseudopotentials            76.03 Mb     (    5267,  946)
        Each V/rho on FFT grid          3.91 Mb     (  256000)
        Each G-vector array             0.90 Mb     (  118520)
        G-vector shells                 0.08 Mb     (   10286)
     Largest temporary arrays     est. size (Mb)     dimensions
        Auxiliary wavefunctions       154.31 Mb     (    5267, 1920)
        Each subspace H/S matrix       56.25 Mb     (    1920, 1920)
        Each <psi_i|beta_j> matrix      6.93 Mb     (     946,  480)
        Arrays for rho mixing          31.25 Mb     (  256000,    8)

     Initial potential from superposition of free atoms
     Check: negative starting charge=   -1.945232

     starting charge  799.16392, renormalised to  800.00000

     negative rho (up, down):  1.947E+00 0.000E+00


     ************************************************************************
     *
     * You are using vdW-DF for exchange-correlation in this calculation.
     * Please cite the following three references that made this development
     * possible:
     *
     *   M. Dion, H. Rydberg, E. Schroder, D. C. Langreth, and
     *   B. I. Lundqvist, Phys. Rev. Lett. 92, 246401 (2004).
     *
     *   T. Thonhauser, V. R. Cooper, S. Li, A. Puzder, P. Hyldgaard, and
     *   D. C. Langreth, Phys. Rev. B 76, 125112 (2007).
     *
     *   G. Roman-Perez and J. M. Soler, Phys. Rev. Lett. 103, 096102 (2009).
     *
     *
     * If you are using vdW-DF2, please also cite:
     *
     *   K. Lee, E. D. Murray, L. Kong, B. I. Lundqvist, and
     *   D. C. Langreth, Phys. Rev. B 82, 081101(R) (2010).
     *
     *
     * If you are calculating the stress with vdW-DF, please also cite:
     *
     *   R. Sabatini, E. Kucukbenli, B. Kolb, T. Thonhauser, and
     *   S. de Gironcoli, J. Phys.: Condens. Matter 24, 424209 (2012).
     *
     ************************************************************************

     Carrying out vdW-DF run using the following parameters:

     Nqs =      20    Nr_points =    1024   r_max =   100.000
     q_mesh =
               0.00001000     0.04494208     0.09755937     0.15916263
               0.23128650     0.31572767     0.41458969     0.53033537
               0.66584808     0.82450364     1.01025438     1.22772762
               1.48234092     1.78043706     2.12944203     2.53805004
               3.01644009     3.57652955     4.23227104     5.00000000

     Gradients computed in reciprocal space

     ************************************************************************


     Starting wfc are  654 randomized atomic wfcs

     total cpu time spent up to now is      124.0 secs

     Self-consistent Calculation

     iteration #  1     ecut=    50.00 Ry     beta=0.70
     Davidson diagonalization with overlap
     ethr =  1.00E-02,  avg # of iterations =  3.0

     Threshold (ethr) on eigenvalues was too large:
     Diagonalizing with lowered threshold

     Davidson diagonalization with overlap
     ethr =  4.11E-04,  avg # of iterations =  2.0

     negative rho (up, down):  1.947E+00 0.000E+00

     total cpu time spent up to now is      551.7 secs

     total energy              =   -7423.06166918 Ry
     Harris-Foulkes estimate   =   -7426.02724677 Ry
     estimated scf accuracy    <       3.66734704 Ry

     iteration #  2     ecut=    50.00 Ry     beta=0.70
     Davidson diagonalization with overlap
     ethr =  4.58E-04,  avg # of iterations = 11.5

     negative rho (up, down):  1.943E+00 0.000E+00

     total cpu time spent up to now is     1268.6 secs

     total energy              =   -7415.54247555 Ry
     Harris-Foulkes estimate   =   -7432.39109898 Ry
     estimated scf accuracy    <      86.98054832 Ry

     iteration #  3     ecut=    50.00 Ry     beta=0.70
     Davidson diagonalization with overlap
     ethr =  4.58E-04,  avg # of iterations =  6.0

     negative rho (up, down):  1.954E+00 0.000E+00

     total cpu time spent up to now is     1726.5 secs

     total energy              =   -7424.21697269 Ry
     Harris-Foulkes estimate   =   -7425.85265470 Ry
     estimated scf accuracy    <       6.56703543 Ry

     iteration #  4     ecut=    50.00 Ry     beta=0.70
     Davidson diagonalization with overlap
     ethr =  4.58E-04,  avg # of iterations =  5.8

     negative rho (up, down):  1.956E+00 0.000E+00

     total cpu time spent up to now is     1991.0 secs

     total energy              =   -7424.82087625 Ry
     Harris-Foulkes estimate   =   -7425.65144595 Ry
     estimated scf accuracy    <       4.85006925 Ry

     iteration #  5     ecut=    50.00 Ry     beta=0.70
     Davidson diagonalization with overlap
     ethr =  4.58E-04,  avg # of iterations =  5.3

     negative rho (up, down):  1.963E+00 0.000E+00

     total cpu time spent up to now is     2257.6 secs

     total energy              =   -7425.09676320 Ry
     Harris-Foulkes estimate   =   -7425.50071813 Ry
     estimated scf accuracy    <       2.86035133 Ry

     iteration #  6     ecut=    50.00 Ry     beta=0.70
     Davidson diagonalization with overlap
     ethr =  3.58E-04,  avg # of iterations =  2.5

     negative rho (up, down):  1.966E+00 0.000E+00

     total cpu time spent up to now is     2479.3 secs

     total energy              =   -7425.24647617 Ry
     Harris-Foulkes estimate   =   -7425.30703865 Ry
     estimated scf accuracy    <       0.22172637 Ry

     iteration #  7     ecut=    50.00 Ry     beta=0.70
     Davidson diagonalization with overlap
     ethr =  2.77E-05,  avg # of iterations =  6.0

     negative rho (up, down):  1.969E+00 0.000E+00

     total cpu time spent up to now is     2763.7 secs

     total energy              =   -7425.25564745 Ry
     Harris-Foulkes estimate   =   -7425.29829303 Ry
     estimated scf accuracy    <       0.21894431 Ry

     iteration #  8     ecut=    50.00 Ry     beta=0.70
     Davidson diagonalization with overlap
     ethr =  2.74E-05,  avg # of iterations =  3.0

     negative rho (up, down):  1.971E+00 0.000E+00

     total cpu time spent up to now is     2988.5 secs

     total energy              =   -7425.26352540 Ry
     Harris-Foulkes estimate   =   -7425.28196209 Ry
     estimated scf accuracy    <       0.07376188 Ry

     iteration #  9     ecut=    50.00 Ry     beta=0.70
     Davidson diagonalization with overlap
     ethr =  9.22E-06,  avg # of iterations =  4.3

     negative rho (up, down):  1.972E+00 0.000E+00

     total cpu time spent up to now is     3240.5 secs

     total energy              =   -7425.26598630 Ry
     Harris-Foulkes estimate   =   -7425.27458422 Ry
     estimated scf accuracy    <       0.02798325 Ry

     iteration # 10     ecut=    50.00 Ry     beta=0.70
     Davidson diagonalization with overlap
     ethr =  3.50E-06,  avg # of iterations = 12.2

     negative rho (up, down):  1.972E+00 0.000E+00

     total cpu time spent up to now is     3594.8 secs

     total energy              =   -7425.26812467 Ry
     Harris-Foulkes estimate   =   -7425.27037174 Ry
     estimated scf accuracy    <       0.00611231 Ry

     iteration # 11     ecut=    50.00 Ry     beta=0.70
     Davidson diagonalization with overlap
     ethr =  7.64E-07,  avg # of iterations =  5.8

     negative rho (up, down):  1.973E+00 0.000E+00

     total cpu time spent up to now is     3867.4 secs

     total energy              =   -7425.26874624 Ry
     Harris-Foulkes estimate   =   -7425.26962759 Ry
     estimated scf accuracy    <       0.00264157 Ry

     iteration # 12     ecut=    50.00 Ry     beta=0.70
     Davidson diagonalization with overlap
     ethr =  3.30E-07,  avg # of iterations =  2.0

     negative rho (up, down):  1.973E+00 0.000E+00

     total cpu time spent up to now is     4084.1 secs

     total energy              =   -7425.26864193 Ry
     Harris-Foulkes estimate   =   -7425.26939958 Ry
     estimated scf accuracy    <       0.00234413 Ry

     iteration # 13     ecut=    50.00 Ry     beta=0.70
     Davidson diagonalization with overlap
     ethr =  2.93E-07,  avg # of iterations =  6.3

     negative rho (up, down):  1.973E+00 0.000E+00

     total cpu time spent up to now is     4397.2 secs

     total energy              =   -7425.26818239 Ry
     Harris-Foulkes estimate   =   -7425.27016465 Ry
     estimated scf accuracy    <       0.01057107 Ry

     iteration # 14     ecut=    50.00 Ry     beta=0.70
     Davidson diagonalization with overlap
     ethr =  2.93E-07,  avg # of iterations =  3.0

     negative rho (up, down):  1.973E+00 0.000E+00

     total cpu time spent up to now is     4651.1 secs

     total energy              =   -7425.26911632 Ry
     Harris-Foulkes estimate   =   -7425.26915028 Ry
     estimated scf accuracy    <       0.00008676 Ry

     iteration # 15     ecut=    50.00 Ry     beta=0.70
     Davidson diagonalization with overlap
     ethr =  1.08E-08,  avg # of iterations =  3.0

     negative rho (up, down):  1.973E+00 0.000E+00

     total cpu time spent up to now is     4939.8 secs

     total energy              =   -7425.26909588 Ry
     Harris-Foulkes estimate   =   -7425.26918034 Ry
     estimated scf accuracy    <       0.00057907 Ry

     iteration # 16     ecut=    50.00 Ry     beta=0.70
     Davidson diagonalization with overlap
     ethr =  1.08E-08,  avg # of iterations =  2.0

     negative rho (up, down):  1.973E+00 0.000E+00

     total cpu time spent up to now is     5163.6 secs

     total energy              =   -7425.26912717 Ry
     Harris-Foulkes estimate   =   -7425.26915981 Ry
     estimated scf accuracy    <       0.00018485 Ry

     iteration # 17     ecut=    50.00 Ry     beta=0.70
     Davidson diagonalization with overlap
     ethr =  1.08E-08,  avg # of iterations =  2.0

     negative rho (up, down):  1.973E+00 0.000E+00

     total cpu time spent up to now is     5378.9 secs

     total energy              =   -7425.26914206 Ry
     Harris-Foulkes estimate   =   -7425.26914655 Ry
     estimated scf accuracy    <       0.00001796 Ry

     iteration # 18     ecut=    50.00 Ry     beta=0.70
     Davidson diagonalization with overlap
     ethr =  2.24E-09,  avg # of iterations =  2.0

     negative rho (up, down):  1.973E+00 0.000E+00

     total cpu time spent up to now is     5601.1 secs

     total energy              =   -7425.26914406 Ry
     Harris-Foulkes estimate   =   -7425.26914485 Ry
     estimated scf accuracy    <       0.00000193 Ry

     iteration # 19     ecut=    50.00 Ry     beta=0.70
     Davidson diagonalization with overlap
     ethr =  2.41E-10,  avg # of iterations =  3.0

     negative rho (up, down):  1.973E+00 0.000E+00

     total cpu time spent up to now is     5866.1 secs

     total energy              =   -7425.26914419 Ry
     Harris-Foulkes estimate   =   -7425.26914483 Ry
     estimated scf accuracy    <       0.00000241 Ry

     iteration # 20     ecut=    50.00 Ry     beta=0.70
     Davidson diagonalization with overlap
     ethr =  2.41E-10,  avg # of iterations =  3.0

     negative rho (up, down):  1.973E+00 0.000E+00

     total cpu time spent up to now is     6091.5 secs

     total energy              =   -7425.26914436 Ry
     Harris-Foulkes estimate   =   -7425.26914473 Ry
     estimated scf accuracy    <       0.00000164 Ry

     iteration # 21     ecut=    50.00 Ry     beta=0.70
     Davidson diagonalization with overlap
     ethr =  2.05E-10,  avg # of iterations =  2.0

     negative rho (up, down):  1.973E+00 0.000E+00

     total cpu time spent up to now is     6310.8 secs

     total energy              =   -7425.26914449 Ry
     Harris-Foulkes estimate   =   -7425.26914462 Ry
     estimated scf accuracy    <       0.00000045 Ry

     iteration # 22     ecut=    50.00 Ry     beta=0.70
     Davidson diagonalization with overlap
     ethr =  5.60E-11,  avg # of iterations =  2.0

     negative rho (up, down):  1.973E+00 0.000E+00

     total cpu time spent up to now is     6534.8 secs

     total energy              =   -7425.26914453 Ry
     Harris-Foulkes estimate   =   -7425.26914458 Ry
     estimated scf accuracy    <       0.00000017 Ry

     iteration # 23     ecut=    50.00 Ry     beta=0.70
     Davidson diagonalization with overlap
     ethr =  2.08E-11,  avg # of iterations =  2.0

     negative rho (up, down):  1.973E+00 0.000E+00

     total cpu time spent up to now is     6749.6 secs

     total energy              =   -7425.26914453 Ry
     Harris-Foulkes estimate   =   -7425.26914456 Ry
     estimated scf accuracy    <       0.00000008 Ry

     iteration # 24     ecut=    50.00 Ry     beta=0.70
     Davidson diagonalization with overlap
     ethr =  9.81E-12,  avg # of iterations =  2.0

     negative rho (up, down):  1.973E+00 0.000E+00

     total cpu time spent up to now is     6987.0 secs

     total energy              =   -7425.26914454 Ry
     Harris-Foulkes estimate   =   -7425.26914456 Ry
     estimated scf accuracy    <       0.00000009 Ry

     iteration # 25     ecut=    50.00 Ry     beta=0.70
     Davidson diagonalization with overlap
     ethr =  9.81E-12,  avg # of iterations =  2.0

     negative rho (up, down):  1.973E+00 0.000E+00

     total cpu time spent up to now is     7209.5 secs

     total energy              =   -7425.26914455 Ry
     Harris-Foulkes estimate   =   -7425.26914455 Ry
     estimated scf accuracy    <       0.00000003 Ry

     iteration # 26     ecut=    50.00 Ry     beta=0.70
     Davidson diagonalization with overlap
     ethr =  3.46E-12,  avg # of iterations =  2.0

     negative rho (up, down):  1.973E+00 0.000E+00

     total cpu time spent up to now is     7426.2 secs

     total energy              =   -7425.26914455 Ry
     Harris-Foulkes estimate   =   -7425.26914455 Ry
     estimated scf accuracy    <       0.00000004 Ry

     iteration # 27     ecut=    50.00 Ry     beta=0.70
     Davidson diagonalization with overlap
     ethr =  3.46E-12,  avg # of iterations =  1.0

     negative rho (up, down):  1.973E+00 0.000E+00

     total cpu time spent up to now is     7629.7 secs

     End of self-consistent calculation

          k = 0.2500 0.2500 0.0833 (167653 PWs)   bands (ev):

   -19.6957  -7.6178  -6.8719  -6.3460  -6.3416  -5.9136  -5.5101  -5.4138
    -5.4098  -5.2164  -5.2158  -5.1113  -5.0960  -5.0190  -4.9978  -4.9232
    -4.8388  -4.8360  -4.8015  -4.7947  -4.6373  -4.6218  -4.6182  -4.6152
    -4.6088  -4.5590  -4.5543  -4.5439  -4.5406  -4.5064  -4.5032  -4.4908
    -4.4528  -4.4495  -4.4188  -4.4156  -4.3763  -4.3618  -4.3566  -4.3521
    -4.3458  -4.3371  -4.3323  -4.2985  -4.2801  -4.2740  -4.2676  -4.2655
    -4.2464  -4.2239  -4.1853  -4.1699  -4.1677  -4.1642  -4.1588  -4.1534
    -4.1518  -4.1501  -4.1052  -4.0849  -4.0692  -4.0349  -4.0287  -4.0189
    -3.9975  -3.9950  -3.9746  -3.9741  -3.9712  -3.9684  -3.9390  -3.9192
    -3.9088  -3.9065  -3.9039  -3.8023  -3.7992  -3.7923  -3.7834  -3.7586
    -3.7541  -3.7302  -3.7054  -3.6967  -3.6730  -3.6726  -3.6537  -3.6512
    -3.6439  -3.6380  -3.5845  -3.5831  -3.5719  -3.5473  -3.5421  -3.5386
    -3.5359  -3.5335  -3.5099  -3.5074  -3.4741  -3.4675  -3.4579  -3.4487
    -3.4220  -3.4151  -3.4022  -3.3742  -3.3705  -3.3364  -3.3326  -3.2985
    -3.2894  -3.2882  -3.2772  -3.2752  -3.2693  -3.2683  -3.2389  -3.2200
    -3.1834  -3.1814  -3.1723  -3.1640  -3.1625  -3.1608  -3.1390  -3.1381
    -3.1201  -3.1173  -3.1138  -3.0898  -3.0883  -3.0817  -3.0809  -3.0756
    -3.0418  -3.0413  -3.0067  -3.0031  -3.0017  -2.9997  -2.9976  -2.9184
    -2.9136  -2.9094  -2.9072  -2.9026  -2.9020  -2.8994  -2.8984  -2.8966
    -2.8955  -2.8869  -2.8791  -2.8682  -2.8624  -2.8589  -2.8576  -2.8449
    -2.8439  -2.8060  -2.8034  -2.8012  -2.7982  -2.7949  -2.7801  -2.7773
    -2.7732  -2.7707  -2.7661  -2.7164  -2.7100  -2.7065  -2.7036  -2.6993
    -2.6957  -2.6719  -2.6146  -2.6124  -2.6091  -2.6054  -2.5978  -2.5945
    -2.5900  -2.5809  -2.5776  -2.5529  -2.5439  -2.5397  -2.5361  -2.5315
    -2.5293  -2.4956  -2.4924  -2.4842  -2.4820  -2.4811  -2.4778  -2.4437
    -2.4278  -2.4184  -2.3667  -2.3633  -2.3552  -2.3467  -2.3403  -2.3372
    -2.3010  -2.2866  -2.2713  -2.2653  -2.2447  -2.2354  -2.2310  -2.2148
    -2.2116  -2.2030  -2.1870  -2.1713  -2.1535  -2.1413  -2.1303  -2.1269
    -2.1261  -2.1194  -2.1170  -2.1047  -2.1023  -2.0989  -2.0960  -2.0915
    -2.0900  -2.0875  -2.0811  -2.0681  -2.0625  -2.0594  -2.0573  -2.0525
    -2.0491  -2.0329  -2.0279  -2.0166  -2.0157  -2.0129  -2.0061  -1.9715
    -1.9495  -1.9385  -1.9307  -1.9015  -1.8877  -1.8834  -1.8733  -1.8631
    -1.8503  -1.8462  -1.8389  -1.8350  -1.8319  -1.8303  -1.8276  -1.7980
    -1.7958  -1.7949  -1.7564  -1.7508  -1.7337  -1.7131  -1.6942  -1.6638
    -1.6566  -1.6443  -1.6289  -1.6252  -1.6193  -1.6076  -1.5993  -1.5897
    -1.5840  -1.5819  -1.5792  -1.5778  -1.5770  -1.5751  -1.5646  -1.5575
    -1.5485  -1.5322  -1.5266  -1.5123  -1.5060  -1.4863  -1.4809  -1.4789
    -1.4767  -1.4726  -1.4657  -1.4540  -1.4409  -1.4344  -1.4248  -1.4152
    -1.4031  -1.3964  -1.3836  -1.3719  -1.3668  -1.3617  -1.3420  -1.3235
    -1.3170  -1.3137  -1.3126  -1.3086  -1.2982  -1.2861  -1.2828  -1.2748
    -1.2669  -1.2634  -1.2574  -1.2516  -1.2502  -1.2400  -1.2386  -1.2267
    -1.2219  -1.2195  -1.2159  -1.2072  -1.2026  -1.1956  -1.1794  -1.1564
    -1.1529  -1.1509  -1.1465  -1.1437  -1.1378  -1.1090  -1.0906  -1.0876
    -1.0867  -1.0855  -1.0828  -1.0789  -1.0681  -1.0629  -1.0479  -1.0284
    -1.0264  -1.0194  -1.0169  -0.9985  -0.9964  -0.9869  -0.9600  -0.9498
    -0.9271  -0.9205  -0.8963  -0.8953  -0.8909  -0.8901  -0.8869  -0.8824
    -0.8807  -0.8798  -0.8738  -0.8692  -0.8444  -0.8420  -0.8251  -0.8225
    -0.8184  -0.8175  -0.8154  -0.7990  -0.7841  -0.5309  -0.5099  -0.4541
    -0.4358  -0.4156  -0.2519  -0.1926  -0.1895  -0.1456   0.1277   0.1346
     0.4582   0.4677   0.5557   0.5584   0.5973   0.6024   0.7442   0.7524
     0.8638   0.8693   0.9647   1.5540   1.5699   1.5729   1.6083   1.6170
     1.6595   1.6772   1.7389   1.7467   1.9457   1.9499   2.1864   2.2590
     2.2700   2.2812   2.6537   2.6707   2.7313   2.7329   2.7406   2.7439
     2.8912   2.8928   2.9429   3.0339   3.0436   3.2657   3.2703   3.3994
     3.4238   3.4325   3.6960   3.7061   3.8129   3.8323   3.8344   3.8920
     3.9293   4.0155   4.0241   4.2494   4.2581   4.3451   4.3525   4.4657
     4.4689   4.4862   4.5037   4.6585   5.2550   5.3171   5.3567   5.3967
     5.4030   5.5690   5.5855   5.6149   5.6559   5.6905   5.6979   5.7105
     5.7446   5.7467   5.7559   5.7954   6.0339   6.0430   6.0682   6.0782
     6.0896   6.0954   6.1046   6.1157   6.1431   6.1641   6.1733   6.2010

          k = 0.2500 0.2500-0.2500 (167588 PWs)   bands (ev):

   -19.6957  -7.6178  -6.8719  -6.3460  -6.3416  -5.9136  -5.5101  -5.4138
    -5.4098  -5.2164  -5.2158  -5.1113  -5.0960  -5.0190  -4.9978  -4.9232
    -4.8388  -4.8360  -4.8015  -4.7947  -4.6373  -4.6218  -4.6182  -4.6152
    -4.6088  -4.5591  -4.5543  -4.5439  -4.5406  -4.5064  -4.5032  -4.4908
    -4.4528  -4.4495  -4.4188  -4.4156  -4.3763  -4.3618  -4.3566  -4.3521
    -4.3458  -4.3371  -4.3323  -4.2985  -4.2801  -4.2740  -4.2676  -4.2655
    -4.2464  -4.2239  -4.1853  -4.1699  -4.1677  -4.1642  -4.1588  -4.1534
    -4.1518  -4.1501  -4.1052  -4.0849  -4.0692  -4.0349  -4.0287  -4.0189
    -3.9975  -3.9950  -3.9746  -3.9741  -3.9712  -3.9684  -3.9390  -3.9192
    -3.9088  -3.9065  -3.9039  -3.8023  -3.7992  -3.7923  -3.7834  -3.7586
    -3.7541  -3.7302  -3.7054  -3.6967  -3.6730  -3.6726  -3.6537  -3.6512
    -3.6439  -3.6380  -3.5845  -3.5831  -3.5719  -3.5473  -3.5421  -3.5386
    -3.5359  -3.5335  -3.5099  -3.5074  -3.4741  -3.4675  -3.4579  -3.4487
    -3.4219  -3.4151  -3.4022  -3.3742  -3.3705  -3.3364  -3.3326  -3.2985
    -3.2894  -3.2882  -3.2772  -3.2752  -3.2693  -3.2683  -3.2389  -3.2200
    -3.1834  -3.1814  -3.1723  -3.1640  -3.1625  -3.1608  -3.1390  -3.1381
    -3.1201  -3.1173  -3.1138  -3.0897  -3.0883  -3.0817  -3.0809  -3.0756
    -3.0418  -3.0413  -3.0067  -3.0031  -3.0017  -2.9997  -2.9976  -2.9184
    -2.9136  -2.9094  -2.9072  -2.9026  -2.9020  -2.8994  -2.8984  -2.8966
    -2.8954  -2.8869  -2.8791  -2.8682  -2.8624  -2.8589  -2.8576  -2.8449
    -2.8439  -2.8060  -2.8034  -2.8012  -2.7982  -2.7949  -2.7801  -2.7773
    -2.7732  -2.7707  -2.7661  -2.7164  -2.7100  -2.7065  -2.7036  -2.6993
    -2.6956  -2.6719  -2.6146  -2.6124  -2.6091  -2.6054  -2.5978  -2.5945
    -2.5900  -2.5809  -2.5776  -2.5529  -2.5439  -2.5397  -2.5361  -2.5315
    -2.5293  -2.4956  -2.4924  -2.4842  -2.4820  -2.4811  -2.4778  -2.4437
    -2.4278  -2.4184  -2.3667  -2.3633  -2.3552  -2.3467  -2.3403  -2.3372
    -2.3010  -2.2866  -2.2713  -2.2653  -2.2447  -2.2354  -2.2310  -2.2148
    -2.2116  -2.2030  -2.1870  -2.1713  -2.1535  -2.1413  -2.1303  -2.1269
    -2.1261  -2.1194  -2.1170  -2.1047  -2.1023  -2.0989  -2.0960  -2.0915
    -2.0900  -2.0875  -2.0811  -2.0681  -2.0625  -2.0594  -2.0573  -2.0525
    -2.0491  -2.0329  -2.0279  -2.0166  -2.0157  -2.0129  -2.0061  -1.9715
    -1.9495  -1.9385  -1.9307  -1.9015  -1.8877  -1.8834  -1.8733  -1.8631
    -1.8503  -1.8462  -1.8389  -1.8350  -1.8319  -1.8303  -1.8276  -1.7980
    -1.7958  -1.7949  -1.7564  -1.7508  -1.7337  -1.7131  -1.6942  -1.6638
    -1.6566  -1.6443  -1.6289  -1.6252  -1.6193  -1.6076  -1.5993  -1.5897
    -1.5840  -1.5819  -1.5792  -1.5778  -1.5770  -1.5751  -1.5646  -1.5575
    -1.5485  -1.5322  -1.5266  -1.5123  -1.5060  -1.4863  -1.4809  -1.4789
    -1.4767  -1.4726  -1.4657  -1.4540  -1.4409  -1.4344  -1.4248  -1.4153
    -1.4031  -1.3964  -1.3836  -1.3719  -1.3668  -1.3617  -1.3419  -1.3234
    -1.3170  -1.3137  -1.3126  -1.3086  -1.2982  -1.2861  -1.2828  -1.2748
    -1.2669  -1.2634  -1.2574  -1.2516  -1.2502  -1.2400  -1.2386  -1.2267
    -1.2219  -1.2195  -1.2159  -1.2072  -1.2026  -1.1956  -1.1794  -1.1564
    -1.1529  -1.1509  -1.1465  -1.1438  -1.1378  -1.1090  -1.0906  -1.0876
    -1.0867  -1.0855  -1.0828  -1.0789  -1.0681  -1.0629  -1.0479  -1.0284
    -1.0264  -1.0194  -1.0169  -0.9985  -0.9964  -0.9869  -0.9600  -0.9498
    -0.9271  -0.9205  -0.8963  -0.8953  -0.8909  -0.8901  -0.8869  -0.8824
    -0.8807  -0.8798  -0.8738  -0.8692  -0.8444  -0.8420  -0.8251  -0.8225
    -0.8184  -0.8175  -0.8154  -0.7990  -0.7841  -0.5309  -0.5099  -0.4541
    -0.4358  -0.4156  -0.2519  -0.1926  -0.1895  -0.1456   0.1277   0.1346
     0.4582   0.4677   0.5557   0.5584   0.5973   0.6024   0.7442   0.7524
     0.8638   0.8693   0.9647   1.5540   1.5699   1.5729   1.6083   1.6170
     1.6595   1.6772   1.7389   1.7467   1.9457   1.9499   2.1864   2.2590
     2.2700   2.2812   2.6537   2.6706   2.7313   2.7329   2.7406   2.7439
     2.8912   2.8928   2.9429   3.0339   3.0437   3.2657   3.2703   3.3994
     3.4238   3.4325   3.6960   3.7061   3.8129   3.8323   3.8344   3.8921
     3.9294   4.0155   4.0241   4.2494   4.2581   4.3451   4.3525   4.4657
     4.4689   4.4862   4.5037   4.6586   5.2523   5.3169   5.3367   5.3964
     5.4023   5.5689   5.5854   5.6143   5.6715   5.6964   5.6996   5.7274
     5.7441   5.7534   5.7706   5.7957   6.0338   6.0423   6.0682   6.0786
     6.0896   6.0954   6.1046   6.1131   6.1372   6.1580   6.1983   6.2598

          k =-0.2500-0.2500 0.0833 (167653 PWs)   bands (ev):

   -19.6957  -7.6178  -6.8719  -6.3460  -6.3416  -5.9136  -5.5101  -5.4138
    -5.4098  -5.2164  -5.2158  -5.1113  -5.0960  -5.0190  -4.9978  -4.9232
    -4.8388  -4.8360  -4.8015  -4.7947  -4.6373  -4.6218  -4.6182  -4.6152
    -4.6088  -4.5590  -4.5543  -4.5439  -4.5406  -4.5064  -4.5032  -4.4908
    -4.4528  -4.4495  -4.4188  -4.4156  -4.3763  -4.3618  -4.3566  -4.3521
    -4.3458  -4.3371  -4.3323  -4.2985  -4.2801  -4.2740  -4.2676  -4.2655
    -4.2464  -4.2239  -4.1853  -4.1699  -4.1677  -4.1642  -4.1588  -4.1534
    -4.1518  -4.1501  -4.1052  -4.0849  -4.0692  -4.0349  -4.0287  -4.0189
    -3.9975  -3.9950  -3.9746  -3.9741  -3.9712  -3.9684  -3.9390  -3.9192
    -3.9088  -3.9065  -3.9039  -3.8023  -3.7992  -3.7923  -3.7834  -3.7586
    -3.7541  -3.7302  -3.7054  -3.6967  -3.6730  -3.6726  -3.6537  -3.6512
    -3.6439  -3.6380  -3.5845  -3.5831  -3.5719  -3.5473  -3.5421  -3.5386
    -3.5359  -3.5335  -3.5099  -3.5074  -3.4741  -3.4675  -3.4579  -3.4487
    -3.4220  -3.4151  -3.4022  -3.3742  -3.3705  -3.3364  -3.3326  -3.2985
    -3.2894  -3.2882  -3.2772  -3.2752  -3.2693  -3.2683  -3.2389  -3.2200
    -3.1834  -3.1814  -3.1723  -3.1640  -3.1625  -3.1608  -3.1390  -3.1381
    -3.1201  -3.1173  -3.1138  -3.0898  -3.0883  -3.0817  -3.0809  -3.0756
    -3.0418  -3.0413  -3.0067  -3.0031  -3.0017  -2.9997  -2.9976  -2.9184
    -2.9136  -2.9094  -2.9072  -2.9026  -2.9020  -2.8994  -2.8984  -2.8966
    -2.8955  -2.8869  -2.8791  -2.8682  -2.8624  -2.8589  -2.8576  -2.8449
    -2.8439  -2.8060  -2.8034  -2.8012  -2.7982  -2.7949  -2.7801  -2.7773
    -2.7732  -2.7707  -2.7661  -2.7164  -2.7100  -2.7065  -2.7036  -2.6993
    -2.6957  -2.6719  -2.6146  -2.6124  -2.6091  -2.6054  -2.5978  -2.5945
    -2.5900  -2.5809  -2.5776  -2.5529  -2.5439  -2.5397  -2.5361  -2.5315
    -2.5293  -2.4956  -2.4924  -2.4842  -2.4820  -2.4811  -2.4778  -2.4437
    -2.4278  -2.4184  -2.3667  -2.3633  -2.3552  -2.3467  -2.3403  -2.3372
    -2.3010  -2.2866  -2.2713  -2.2653  -2.2447  -2.2354  -2.2310  -2.2148
    -2.2116  -2.2030  -2.1870  -2.1713  -2.1535  -2.1413  -2.1303  -2.1269
    -2.1261  -2.1194  -2.1170  -2.1047  -2.1023  -2.0989  -2.0960  -2.0915
    -2.0900  -2.0875  -2.0811  -2.0681  -2.0625  -2.0594  -2.0573  -2.0525
    -2.0491  -2.0329  -2.0279  -2.0166  -2.0157  -2.0129  -2.0061  -1.9715
    -1.9495  -1.9385  -1.9307  -1.9015  -1.8877  -1.8834  -1.8733  -1.8631
    -1.8503  -1.8462  -1.8389  -1.8350  -1.8319  -1.8303  -1.8276  -1.7980
    -1.7958  -1.7949  -1.7564  -1.7508  -1.7337  -1.7131  -1.6942  -1.6638
    -1.6566  -1.6443  -1.6289  -1.6252  -1.6193  -1.6076  -1.5993  -1.5897
    -1.5840  -1.5819  -1.5792  -1.5778  -1.5770  -1.5751  -1.5646  -1.5575
    -1.5485  -1.5322  -1.5266  -1.5123  -1.5060  -1.4863  -1.4809  -1.4789
    -1.4767  -1.4726  -1.4657  -1.4540  -1.4409  -1.4344  -1.4248  -1.4152
    -1.4031  -1.3964  -1.3836  -1.3719  -1.3668  -1.3617  -1.3420  -1.3235
    -1.3170  -1.3137  -1.3126  -1.3086  -1.2982  -1.2861  -1.2828  -1.2748
    -1.2669  -1.2634  -1.2574  -1.2516  -1.2502  -1.2400  -1.2386  -1.2267
    -1.2219  -1.2195  -1.2159  -1.2072  -1.2026  -1.1956  -1.1794  -1.1564
    -1.1529  -1.1509  -1.1465  -1.1437  -1.1378  -1.1090  -1.0906  -1.0876
    -1.0867  -1.0855  -1.0828  -1.0789  -1.0681  -1.0629  -1.0479  -1.0284
    -1.0264  -1.0194  -1.0169  -0.9985  -0.9964  -0.9869  -0.9600  -0.9498
    -0.9271  -0.9205  -0.8963  -0.8953  -0.8909  -0.8901  -0.8869  -0.8824
    -0.8807  -0.8798  -0.8738  -0.8692  -0.8444  -0.8420  -0.8251  -0.8225
    -0.8184  -0.8175  -0.8154  -0.7990  -0.7841  -0.5309  -0.5099  -0.4541
    -0.4358  -0.4156  -0.2519  -0.1926  -0.1895  -0.1456   0.1277   0.1346
     0.4582   0.4677   0.5557   0.5584   0.5973   0.6024   0.7442   0.7524
     0.8638   0.8693   0.9647   1.5540   1.5699   1.5729   1.6083   1.6170
     1.6595   1.6772   1.7389   1.7467   1.9457   1.9499   2.1864   2.2590
     2.2700   2.2812   2.6537   2.6707   2.7313   2.7329   2.7406   2.7439
     2.8912   2.8928   2.9429   3.0339   3.0436   3.2657   3.2703   3.3994
     3.4238   3.4325   3.6960   3.7061   3.8129   3.8323   3.8344   3.8920
     3.9293   4.0155   4.0241   4.2494   4.2581   4.3451   4.3525   4.4657
     4.4689   4.4862   4.5037   4.6585   5.2550   5.3171   5.3567   5.3967
     5.4030   5.5690   5.5855   5.6143   5.6560   5.6909   5.6980   5.7109
     5.7444   5.7467   5.7559   5.7954   6.0342   6.0426   6.0682   6.0781
     6.0895   6.0954   6.1046   6.1161   6.1433   6.1637   6.1734   6.2008

          k =-0.2500 0.2500-0.0833 (167653 PWs)   bands (ev):

   -19.6957  -7.6178  -6.8721  -6.3449  -6.3419  -5.9145  -5.5105  -5.4143
    -5.4103  -5.2160  -5.2146  -5.1088  -5.0965  -5.0188  -5.0000  -4.9246
    -4.8392  -4.8342  -4.7977  -4.7947  -4.6377  -4.6213  -4.6175  -4.6156
    -4.6089  -4.5589  -4.5543  -4.5457  -4.5410  -4.5085  -4.5047  -4.4914
    -4.4533  -4.4497  -4.4183  -4.4162  -4.3742  -4.3626  -4.3580  -4.3521
    -4.3464  -4.3372  -4.3325  -4.3022  -4.2771  -4.2737  -4.2667  -4.2658
    -4.2503  -4.2154  -4.1790  -4.1696  -4.1680  -4.1650  -4.1597  -4.1540
    -4.1521  -4.1504  -4.1042  -4.0860  -4.0802  -4.0356  -4.0252  -4.0089
    -3.9985  -3.9930  -3.9759  -3.9741  -3.9733  -3.9687  -3.9439  -3.9188
    -3.9077  -3.9055  -3.9037  -3.8012  -3.7995  -3.7932  -3.7845  -3.7586
    -3.7533  -3.7301  -3.7055  -3.6989  -3.6732  -3.6719  -3.6542  -3.6522
    -3.6439  -3.6385  -3.5845  -3.5832  -3.5674  -3.5476  -3.5412  -3.5374
    -3.5362  -3.5341  -3.5100  -3.5088  -3.4738  -3.4678  -3.4575  -3.4504
    -3.4210  -3.4159  -3.4022  -3.3728  -3.3704  -3.3358  -3.3330  -3.2989
    -3.2894  -3.2883  -3.2772  -3.2757  -3.2694  -3.2683  -3.2390  -3.2203
    -3.1834  -3.1810  -3.1724  -3.1637  -3.1625  -3.1612  -3.1392  -3.1381
    -3.1194  -3.1175  -3.1144  -3.0895  -3.0888  -3.0815  -3.0808  -3.0762
    -3.0418  -3.0410  -3.0062  -3.0023  -3.0019  -2.9998  -2.9977  -2.9183
    -2.9125  -2.9093  -2.9070  -2.9033  -2.9025  -2.9001  -2.8973  -2.8966
    -2.8957  -2.8869  -2.8791  -2.8681  -2.8617  -2.8586  -2.8570  -2.8453
    -2.8436  -2.8054  -2.8033  -2.8014  -2.7982  -2.7957  -2.7800  -2.7775
    -2.7726  -2.7709  -2.7660  -2.7169  -2.7100  -2.7061  -2.7030  -2.6994
    -2.6953  -2.6724  -2.6159  -2.6118  -2.6094  -2.6053  -2.5975  -2.5948
    -2.5896  -2.5811  -2.5781  -2.5543  -2.5425  -2.5406  -2.5342  -2.5322
    -2.5298  -2.4959  -2.4928  -2.4845  -2.4824  -2.4803  -2.4780  -2.4452
    -2.4264  -2.4179  -2.3672  -2.3629  -2.3542  -2.3473  -2.3399  -2.3372
    -2.3001  -2.2875  -2.2697  -2.2656  -2.2425  -2.2366  -2.2310  -2.2146
    -2.2122  -2.2028  -2.1867  -2.1682  -2.1540  -2.1437  -2.1309  -2.1277
    -2.1263  -2.1185  -2.1166  -2.1040  -2.1015  -2.0995  -2.0971  -2.0912
    -2.0910  -2.0872  -2.0823  -2.0675  -2.0630  -2.0600  -2.0575  -2.0520
    -2.0496  -2.0325  -2.0285  -2.0170  -2.0152  -2.0123  -2.0069  -1.9715
    -1.9533  -1.9369  -1.9340  -1.9017  -1.8868  -1.8838  -1.8733  -1.8627
    -1.8507  -1.8451  -1.8378  -1.8350  -1.8317  -1.8297  -1.8281  -1.7970
    -1.7963  -1.7950  -1.7550  -1.7512  -1.7324  -1.7147  -1.6932  -1.6644
    -1.6554  -1.6442  -1.6293  -1.6251  -1.6192  -1.6097  -1.5988  -1.5878
    -1.5864  -1.5827  -1.5805  -1.5783  -1.5770  -1.5751  -1.5662  -1.5579
    -1.5487  -1.5308  -1.5271  -1.5120  -1.5043  -1.4861  -1.4819  -1.4780
    -1.4771  -1.4729  -1.4652  -1.4552  -1.4392  -1.4346  -1.4245  -1.4150
    -1.4015  -1.3980  -1.3821  -1.3718  -1.3668  -1.3617  -1.3411  -1.3271
    -1.3162  -1.3138  -1.3125  -1.3082  -1.2964  -1.2861  -1.2830  -1.2758
    -1.2679  -1.2627  -1.2565  -1.2517  -1.2509  -1.2399  -1.2378  -1.2282
    -1.2212  -1.2184  -1.2156  -1.2061  -1.2034  -1.1959  -1.1774  -1.1580
    -1.1515  -1.1496  -1.1482  -1.1434  -1.1377  -1.1094  -1.0906  -1.0877
    -1.0871  -1.0856  -1.0833  -1.0786  -1.0669  -1.0632  -1.0473  -1.0279
    -1.0254  -1.0194  -1.0166  -0.9983  -0.9966  -0.9871  -0.9604  -0.9493
    -0.9263  -0.9212  -0.8960  -0.8949  -0.8920  -0.8900  -0.8869  -0.8822
    -0.8798  -0.8792  -0.8745  -0.8701  -0.8441  -0.8424  -0.8259  -0.8225
    -0.8185  -0.8179  -0.8160  -0.7990  -0.7824  -0.5310  -0.5099  -0.4549
    -0.4346  -0.4161  -0.2531  -0.1923  -0.1904  -0.1453   0.1265   0.1362
     0.4584   0.4679   0.5546   0.5594   0.5970   0.6016   0.7415   0.7539
     0.8638   0.8695   0.9648   1.5534   1.5693   1.5740   1.6086   1.6169
     1.6623   1.6751   1.7378   1.7483   1.9439   1.9514   2.1870   2.2613
     2.2678   2.2805   2.6592   2.6654   2.7293   2.7352   2.7412   2.7434
     2.8900   2.8938   2.9444   3.0368   3.0387   3.2643   3.2720   3.4003
     3.4229   3.4334   3.6974   3.7044   3.8119   3.8318   3.8349   3.9054
     3.9165   4.0147   4.0222   4.2472   4.2594   4.3462   4.3523   4.4630
     4.4743   4.4912   4.4967   4.6571   5.2697   5.2979   5.3625   5.3957
     5.4047   5.5693   5.5819   5.6224   5.6602   5.6915   5.6994   5.7239
     5.7271   5.7422   5.7541   5.7959   6.0281   6.0596   6.0677   6.0765
     6.0899   6.0975   6.1044   6.1124   6.1477   6.1603   6.1758   6.1913

          k = 0.2500-0.2500-0.0833 (167653 PWs)   bands (ev):

   -19.6957  -7.6178  -6.8721  -6.3449  -6.3419  -5.9145  -5.5105  -5.4143
    -5.4103  -5.2160  -5.2146  -5.1088  -5.0965  -5.0188  -5.0000  -4.9246
    -4.8392  -4.8342  -4.7977  -4.7947  -4.6377  -4.6213  -4.6175  -4.6156
    -4.6089  -4.5589  -4.5543  -4.5457  -4.5410  -4.5085  -4.5047  -4.4914
    -4.4533  -4.4497  -4.4183  -4.4162  -4.3742  -4.3626  -4.3580  -4.3521
    -4.3464  -4.3372  -4.3325  -4.3022  -4.2771  -4.2737  -4.2667  -4.2658
    -4.2503  -4.2154  -4.1790  -4.1696  -4.1680  -4.1650  -4.1597  -4.1540
    -4.1521  -4.1504  -4.1042  -4.0860  -4.0802  -4.0356  -4.0252  -4.0089
    -3.9985  -3.9930  -3.9759  -3.9741  -3.9733  -3.9687  -3.9439  -3.9188
    -3.9077  -3.9055  -3.9037  -3.8012  -3.7995  -3.7932  -3.7845  -3.7586
    -3.7533  -3.7301  -3.7055  -3.6989  -3.6732  -3.6719  -3.6542  -3.6522
    -3.6439  -3.6385  -3.5845  -3.5832  -3.5674  -3.5476  -3.5412  -3.5374
    -3.5362  -3.5341  -3.5100  -3.5088  -3.4738  -3.4678  -3.4575  -3.4504
    -3.4210  -3.4159  -3.4022  -3.3728  -3.3704  -3.3358  -3.3330  -3.2989
    -3.2894  -3.2883  -3.2772  -3.2757  -3.2694  -3.2683  -3.2390  -3.2203
    -3.1834  -3.1810  -3.1724  -3.1637  -3.1625  -3.1612  -3.1392  -3.1381
    -3.1194  -3.1175  -3.1144  -3.0895  -3.0888  -3.0815  -3.0808  -3.0762
    -3.0418  -3.0410  -3.0062  -3.0023  -3.0019  -2.9998  -2.9977  -2.9183
    -2.9125  -2.9093  -2.9070  -2.9033  -2.9025  -2.9001  -2.8973  -2.8966
    -2.8957  -2.8869  -2.8791  -2.8681  -2.8617  -2.8586  -2.8570  -2.8453
    -2.8436  -2.8054  -2.8033  -2.8014  -2.7982  -2.7957  -2.7800  -2.7775
    -2.7726  -2.7709  -2.7660  -2.7169  -2.7100  -2.7061  -2.7030  -2.6994
    -2.6953  -2.6724  -2.6159  -2.6118  -2.6094  -2.6053  -2.5975  -2.5948
    -2.5896  -2.5811  -2.5781  -2.5543  -2.5425  -2.5406  -2.5342  -2.5322
    -2.5298  -2.4959  -2.4928  -2.4845  -2.4824  -2.4803  -2.4780  -2.4452
    -2.4264  -2.4179  -2.3672  -2.3629  -2.3542  -2.3473  -2.3399  -2.3372
    -2.3001  -2.2875  -2.2697  -2.2656  -2.2425  -2.2366  -2.2310  -2.2146
    -2.2122  -2.2028  -2.1867  -2.1682  -2.1540  -2.1437  -2.1309  -2.1277
    -2.1263  -2.1185  -2.1166  -2.1040  -2.1015  -2.0995  -2.0971  -2.0912
    -2.0910  -2.0872  -2.0823  -2.0675  -2.0630  -2.0600  -2.0575  -2.0520
    -2.0496  -2.0325  -2.0285  -2.0170  -2.0152  -2.0123  -2.0069  -1.9715
    -1.9533  -1.9369  -1.9340  -1.9017  -1.8868  -1.8838  -1.8733  -1.8627
    -1.8507  -1.8451  -1.8378  -1.8350  -1.8317  -1.8297  -1.8281  -1.7970
    -1.7963  -1.7950  -1.7550  -1.7512  -1.7324  -1.7147  -1.6932  -1.6644
    -1.6554  -1.6442  -1.6293  -1.6251  -1.6192  -1.6097  -1.5988  -1.5878
    -1.5864  -1.5827  -1.5805  -1.5783  -1.5770  -1.5751  -1.5662  -1.5579
    -1.5487  -1.5308  -1.5271  -1.5120  -1.5043  -1.4861  -1.4819  -1.4780
    -1.4771  -1.4729  -1.4652  -1.4552  -1.4392  -1.4346  -1.4245  -1.4150
    -1.4015  -1.3980  -1.3821  -1.3718  -1.3668  -1.3617  -1.3411  -1.3271
    -1.3162  -1.3138  -1.3125  -1.3082  -1.2964  -1.2861  -1.2830  -1.2758
    -1.2679  -1.2627  -1.2565  -1.2517  -1.2509  -1.2399  -1.2378  -1.2282
    -1.2212  -1.2184  -1.2156  -1.2061  -1.2034  -1.1959  -1.1774  -1.1580
    -1.1515  -1.1496  -1.1482  -1.1434  -1.1377  -1.1094  -1.0906  -1.0877
    -1.0871  -1.0856  -1.0833  -1.0786  -1.0669  -1.0632  -1.0473  -1.0279
    -1.0254  -1.0194  -1.0166  -0.9983  -0.9966  -0.9871  -0.9604  -0.9493
    -0.9263  -0.9212  -0.8960  -0.8949  -0.8920  -0.8900  -0.8869  -0.8822
    -0.8798  -0.8792  -0.8745  -0.8701  -0.8441  -0.8424  -0.8259  -0.8225
    -0.8185  -0.8179  -0.8160  -0.7990  -0.7824  -0.5310  -0.5099  -0.4549
    -0.4346  -0.4161  -0.2531  -0.1923  -0.1904  -0.1453   0.1265   0.1362
     0.4584   0.4679   0.5546   0.5594   0.5970   0.6016   0.7415   0.7539
     0.8638   0.8695   0.9648   1.5534   1.5693   1.5740   1.6086   1.6169
     1.6623   1.6751   1.7378   1.7483   1.9439   1.9514   2.1870   2.2613
     2.2678   2.2805   2.6592   2.6654   2.7293   2.7352   2.7412   2.7434
     2.8900   2.8938   2.9444   3.0368   3.0387   3.2643   3.2720   3.4003
     3.4229   3.4334   3.6974   3.7044   3.8119   3.8318   3.8349   3.9054
     3.9165   4.0147   4.0222   4.2472   4.2594   4.3462   4.3523   4.4630
     4.4743   4.4912   4.4967   4.6571   5.2697   5.2979   5.3626   5.3957
     5.4047   5.5693   5.5821   5.6223   5.6594   5.6918   5.6994   5.7238
     5.7272   5.7422   5.7542   5.7959   6.0284   6.0596   6.0676   6.0765
     6.0900   6.0975   6.1044   6.1130   6.1500   6.1604   6.1757   6.1878

          k =-0.2500 0.2500 0.2500 (167588 PWs)   bands (ev):

   -19.6957  -7.6178  -6.8721  -6.3449  -6.3419  -5.9145  -5.5105  -5.4143
    -5.4103  -5.2160  -5.2146  -5.1088  -5.0965  -5.0188  -5.0000  -4.9246
    -4.8392  -4.8342  -4.7977  -4.7947  -4.6377  -4.6213  -4.6175  -4.6156
    -4.6089  -4.5589  -4.5543  -4.5457  -4.5410  -4.5085  -4.5047  -4.4914
    -4.4533  -4.4497  -4.4183  -4.4162  -4.3742  -4.3626  -4.3580  -4.3522
    -4.3464  -4.3372  -4.3325  -4.3022  -4.2771  -4.2737  -4.2667  -4.2658
    -4.2503  -4.2154  -4.1790  -4.1696  -4.1680  -4.1650  -4.1597  -4.1540
    -4.1521  -4.1504  -4.1042  -4.0860  -4.0802  -4.0356  -4.0252  -4.0089
    -3.9985  -3.9930  -3.9759  -3.9741  -3.9733  -3.9687  -3.9439  -3.9188
    -3.9077  -3.9055  -3.9037  -3.8012  -3.7995  -3.7932  -3.7846  -3.7586
    -3.7533  -3.7301  -3.7055  -3.6989  -3.6732  -3.6719  -3.6542  -3.6522
    -3.6439  -3.6385  -3.5845  -3.5832  -3.5674  -3.5476  -3.5412  -3.5374
    -3.5362  -3.5341  -3.5100  -3.5088  -3.4738  -3.4678  -3.4575  -3.4504
    -3.4210  -3.4159  -3.4022  -3.3728  -3.3704  -3.3358  -3.3330  -3.2989
    -3.2894  -3.2883  -3.2772  -3.2757  -3.2694  -3.2683  -3.2391  -3.2203
    -3.1834  -3.1809  -3.1724  -3.1637  -3.1625  -3.1612  -3.1392  -3.1381
    -3.1194  -3.1175  -3.1144  -3.0895  -3.0888  -3.0815  -3.0808  -3.0762
    -3.0418  -3.0410  -3.0062  -3.0023  -3.0019  -2.9998  -2.9976  -2.9183
    -2.9125  -2.9093  -2.9070  -2.9033  -2.9025  -2.9001  -2.8973  -2.8966
    -2.8957  -2.8869  -2.8791  -2.8681  -2.8617  -2.8586  -2.8570  -2.8453
    -2.8436  -2.8054  -2.8033  -2.8014  -2.7982  -2.7957  -2.7800  -2.7775
    -2.7726  -2.7709  -2.7660  -2.7169  -2.7100  -2.7061  -2.7030  -2.6994
    -2.6953  -2.6724  -2.6159  -2.6118  -2.6094  -2.6053  -2.5975  -2.5948
    -2.5896  -2.5811  -2.5781  -2.5543  -2.5425  -2.5406  -2.5341  -2.5322
    -2.5298  -2.4959  -2.4928  -2.4845  -2.4824  -2.4803  -2.4780  -2.4452
    -2.4264  -2.4179  -2.3672  -2.3629  -2.3542  -2.3473  -2.3399  -2.3372
    -2.3001  -2.2874  -2.2697  -2.2656  -2.2425  -2.2366  -2.2309  -2.2146
    -2.2122  -2.2028  -2.1867  -2.1682  -2.1540  -2.1437  -2.1309  -2.1277
    -2.1263  -2.1185  -2.1166  -2.1040  -2.1015  -2.0995  -2.0971  -2.0912
    -2.0910  -2.0872  -2.0823  -2.0675  -2.0630  -2.0600  -2.0575  -2.0520
    -2.0496  -2.0325  -2.0285  -2.0170  -2.0152  -2.0123  -2.0069  -1.9715
    -1.9533  -1.9369  -1.9340  -1.9018  -1.8868  -1.8838  -1.8733  -1.8627
    -1.8507  -1.8451  -1.8378  -1.8350  -1.8317  -1.8297  -1.8281  -1.7970
    -1.7963  -1.7950  -1.7550  -1.7512  -1.7324  -1.7147  -1.6932  -1.6644
    -1.6554  -1.6442  -1.6293  -1.6251  -1.6192  -1.6098  -1.5988  -1.5878
    -1.5864  -1.5827  -1.5805  -1.5783  -1.5770  -1.5751  -1.5662  -1.5579
    -1.5487  -1.5308  -1.5271  -1.5120  -1.5043  -1.4861  -1.4819  -1.4780
    -1.4771  -1.4729  -1.4652  -1.4552  -1.4392  -1.4346  -1.4245  -1.4151
    -1.4015  -1.3980  -1.3821  -1.3718  -1.3668  -1.3617  -1.3411  -1.3271
    -1.3162  -1.3138  -1.3125  -1.3082  -1.2964  -1.2861  -1.2830  -1.2758
    -1.2679  -1.2627  -1.2565  -1.2516  -1.2509  -1.2399  -1.2378  -1.2282
    -1.2212  -1.2184  -1.2156  -1.2061  -1.2034  -1.1959  -1.1774  -1.1580
    -1.1515  -1.1496  -1.1482  -1.1434  -1.1377  -1.1093  -1.0906  -1.0877
    -1.0871  -1.0856  -1.0832  -1.0785  -1.0669  -1.0632  -1.0473  -1.0279
    -1.0254  -1.0194  -1.0166  -0.9983  -0.9966  -0.9871  -0.9604  -0.9493
    -0.9263  -0.9212  -0.8960  -0.8949  -0.8920  -0.8900  -0.8869  -0.8822
    -0.8798  -0.8792  -0.8745  -0.8701  -0.8441  -0.8424  -0.8259  -0.8225
    -0.8185  -0.8179  -0.8159  -0.7990  -0.7824  -0.5310  -0.5099  -0.4549
    -0.4346  -0.4161  -0.2531  -0.1923  -0.1903  -0.1453   0.1265   0.1362
     0.4584   0.4679   0.5546   0.5594   0.5970   0.6016   0.7415   0.7539
     0.8638   0.8695   0.9648   1.5534   1.5693   1.5740   1.6087   1.6169
     1.6623   1.6751   1.7378   1.7483   1.9439   1.9514   2.1870   2.2613
     2.2678   2.2805   2.6592   2.6654   2.7293   2.7352   2.7412   2.7434
     2.8900   2.8938   2.9444   3.0368   3.0387   3.2643   3.2720   3.4003
     3.4229   3.4334   3.6975   3.7044   3.8119   3.8318   3.8349   3.9055
     3.9165   4.0147   4.0222   4.2472   4.2594   4.3462   4.3523   4.4630
     4.4743   4.4912   4.4967   4.6573   5.2658   5.2981   5.3425   5.3957
     5.4046   5.5691   5.5819   5.6243   5.6785   5.6948   5.7069   5.7097
     5.7416   5.7520   5.7739   5.7957   6.0287   6.0598   6.0679   6.0767
     6.0900   6.0975   6.1044   6.1125   6.1326   6.1705   6.1775   6.2761

     the Fermi energy is     0.8192 ev

!    total energy              =   -7425.26914454 Ry
     Harris-Foulkes estimate   =   -7425.26914455 Ry
     estimated scf accuracy    <          5.7E-09 Ry

     The total energy is the sum of the following terms:

     one-electron contribution =  -48915.24291430 Ry
     hartree contribution      =   25006.94425405 Ry
     xc contribution           =   -3604.27936402 Ry
     ewald contribution        =   20087.31137480 Ry
     smearing contrib. (-TS)   =      -0.00249507 Ry

     convergence has been achieved in  27 iterations

     Writing output data file 6660265.save

     init_run     :    113.96s CPU    122.31s WALL (       1 calls)
     electrons    :   7026.08s CPU   7511.75s WALL (       1 calls)

     Called by init_run:
     wfcinit      :     77.10s CPU     84.62s WALL (       1 calls)
     potinit      :      7.34s CPU      7.80s WALL (       1 calls)

     Called by electrons:
     c_bands      :   5198.57s CPU   5582.09s WALL (      28 calls)
     sum_band     :   1118.12s CPU   1194.21s WALL (      28 calls)
     v_of_rho     :    140.19s CPU    152.62s WALL (      28 calls)
     newd         :    587.68s CPU    595.35s WALL (      28 calls)
     mix_rho      :      3.72s CPU      4.07s WALL (      28 calls)
     vdW_energy   :     12.16s CPU     13.76s WALL (      28 calls)
     vdW_ffts     :     73.10s CPU     79.40s WALL (      56 calls)
     vdW_v        :     16.96s CPU     17.86s WALL (      28 calls)

     Called by c_bands:
     init_us_2    :     17.11s CPU     17.53s WALL (     342 calls)
     cegterg      :   5145.50s CPU   5527.99s WALL (     168 calls)

     Called by *egterg:
     h_psi        :   2294.38s CPU   2641.76s WALL (     815 calls)
     s_psi        :    366.72s CPU    368.86s WALL (     815 calls)
     g_psi        :      4.54s CPU      4.56s WALL (     641 calls)
     cdiaghg      :   1394.27s CPU   1398.79s WALL (     803 calls)

     Called by h_psi:
     add_vuspsi   :    371.94s CPU    374.20s WALL (     815 calls)

     General routines
     calbec       :    533.41s CPU    536.37s WALL (     983 calls)
     fft          :    174.70s CPU    185.09s WALL (    1848 calls)
     ffts         :      1.73s CPU      1.92s WALL (      56 calls)
     fftw         :   1454.74s CPU   1767.61s WALL (  452494 calls)
     interpolate  :      5.31s CPU      5.99s WALL (      56 calls)
     davcio       :      0.00s CPU      0.24s WALL (       6 calls)

     Parallel routines
     fft_scatter  :   1031.16s CPU   1251.05s WALL (  454398 calls)

     PWSCF        :     1h59m CPU        2h 7m WALL


   This run was terminated on:   1:48: 7  24Aug2015            

=------------------------------------------------------------------------------=
   JOB DONE.
=------------------------------------------------------------------------------=
