
     Program PWSCF v.5.1.2 starts on  1Jul2015 at 21:57:42 

     This program is part of the open-source Quantum ESPRESSO suite
     for quantum simulation of materials; please cite
         "P. Giannozzi et al., J. Phys.:Condens. Matter 21 395502 (2009);
          URL http://www.quantum-espresso.org", 
     in publications or presentations arising from this work. More details at
     http://www.quantum-espresso.org/quote

     Parallel version (MPI), running on    32 processors
     R & G space division:  proc/nbgrp/npool/nimage =      32
     Reading input from bridge.H2.Au6165.d.2.0.phi.0.psi.90.in
Warning: card &IONS ignored
Warning: card / ignored
Warning: card &CELL ignored
Warning: card / ignored

     Current dimensions of program PWSCF are:
     Max number of different atomic species (ntypx) = 10
     Max number of k-points (npk) =  40000
     Max angular momentum in pseudopotentials (lmaxx) =  3

     IMPORTANT: XC functional enforced from input :
     Exchange-correlation      = VDW-DF ( 1  4  4  0 1 0)
     Any further DFT definition will be discarded
     Please, verify this is what you really want


     Subspace diagonalization in iterative solution of the eigenvalue problem:
     a serial algorithm will be used


     Parallelization info
     --------------------
     sticks:   dense  smooth     PW     G-vecs:    dense   smooth      PW
     Min         578     289     74               118518    41891    5486
     Max         579     290     75               118533    41932    5497
     Sum       18505    9265   2385              3792731  1341081  175711


     Title: 
     bridge.H2.Au6165.d.2.0.phi.0.psi.90                                        


     bravais-lattice index     =            8
     lattice parameter (alat)  =      24.1233  a.u.
     unit-cell volume          =   28076.2361 (a.u.)^3
     number of atoms/cell      =           75
     number of atomic types    =            3
     number of electrons       =       800.00
     number of Kohn-Sham states=          480
     kinetic-energy cutoff     =      50.0000  Ry
     charge density cutoff     =     400.0000  Ry
     convergence threshold     =      1.0E-08
     mixing beta               =       0.7000
     number of iterations used =            8  plain     mixing
     Exchange-correlation      = VDW-DF ( 1  4  4  0 1 0)

     celldm(1)=  24.123277  celldm(2)=   1.000000  celldm(3)=   2.000000
     celldm(4)=   0.000000  celldm(5)=   0.000000  celldm(6)=   0.000000

     crystal axes: (cart. coord. in units of alat)
               a(1) = (   1.000000   0.000000   0.000000 )  
               a(2) = (   0.000000   1.000000   0.000000 )  
               a(3) = (   0.000000   0.000000   2.000000 )  

     reciprocal axes: (cart. coord. in units 2 pi/alat)
               b(1) = (  1.000000  0.000000  0.000000 )  
               b(2) = (  0.000000  1.000000  0.000000 )  
               b(3) = (  0.000000  0.000000  0.500000 )  


     PseudoPot. # 1 for Au read from file:
     /home/scc/andrejb/qe/pseudo/Au.pbe-nd-van.UPF
     MD5 check sum: 458681b50f36d87ef23c61b04bba420a
     Pseudo is Ultrasoft + core correction, Zval = 11.0
     Generated by new atomic code, or converted to UPF format
     Using radial grid of  985 points,  3 beta functions with: 
                l(1) =   1
                l(2) =   2
                l(3) =   2
     Q(r) pseudized with  8 coefficients,  rinner =    1.100   1.100   1.100
                                                       1.100   1.100

     PseudoPot. # 2 for H  read from file:
     /home/scc/andrejb/qe/pseudo/H.pbe-van_ak.UPF
     MD5 check sum: 403db7282739603aa925980fa9b8608d
     Pseudo is Ultrasoft, Zval =  1.0
     Generated by new atomic code, or converted to UPF format
     Using radial grid of  615 points,  1 beta functions with: 
                l(1) =   0
     Q(r) pseudized with  8 coefficients,  rinner =    0.800

     PseudoPot. # 3 for O  read from file:
     /home/scc/andrejb/qe/pseudo/O.pbe-van_ak.UPF
     MD5 check sum: 4b8c549914a63cae506c6ff22b5af4fe
     Pseudo is Ultrasoft, Zval =  6.0
     Generated by new atomic code, or converted to UPF format
     Using radial grid of  737 points,  4 beta functions with: 
                l(1) =   0
                l(2) =   0
                l(3) =   1
                l(4) =   1
     Q(r) pseudized with  8 coefficients,  rinner =    0.800   0.800   0.800


     vdW kernel table read from file vdW_kernel_table
     MD5 check sum: 48e77a2e26edf626eeb0eaa751ad5cac

     atomic species   valence    mass     pseudopotential
        Au            11.00   196.96657     Au( 1.00)
        H              1.00     1.01000     H ( 1.00)
        O              6.00    16.00000     O ( 1.00)

     No symmetry found



   Cartesian axes

     site n.     atom                  positions (alat units)
         1           O   tau(   1) = (   0.2673116   0.3436714   0.6704780  )
         2           H   tau(   2) = (   0.2499161   0.4165269   0.6559909  )
         3           H   tau(   3) = (   0.2174848   0.3034807   0.6289999  )
         4           Au  tau(   4) = (   0.0000000   0.0000000   0.0000000  )
         5           Au  tau(   5) = (   0.3332217   0.0000000   0.0000000  )
         6           Au  tau(   6) = (   0.6664434   0.0000000   0.0000000  )
         7           Au  tau(   7) = (   0.1666109   0.1666109   0.0000000  )
         8           Au  tau(   8) = (   0.4998326   0.1666109   0.0000000  )
         9           Au  tau(   9) = (   0.8330542   0.1666109   0.0000000  )
        10           Au  tau(  10) = (   0.0000000   0.3332217   0.0000000  )
        11           Au  tau(  11) = (   0.3332217   0.3332217   0.0000000  )
        12           Au  tau(  12) = (   0.6664434   0.3332217   0.0000000  )
        13           Au  tau(  13) = (   0.1666109   0.4998326   0.0000000  )
        14           Au  tau(  14) = (   0.4998326   0.4998326   0.0000000  )
        15           Au  tau(  15) = (   0.8330542   0.4998326   0.0000000  )
        16           Au  tau(  16) = (   0.0000000   0.6664434   0.0000000  )
        17           Au  tau(  17) = (   0.3332217   0.6664434   0.0000000  )
        18           Au  tau(  18) = (   0.6664434   0.6664434   0.0000000  )
        19           Au  tau(  19) = (   0.1666109   0.8330542   0.0000000  )
        20           Au  tau(  20) = (   0.4998326   0.8330542   0.0000000  )
        21           Au  tau(  21) = (   0.8330542   0.8330542   0.0000000  )
        22           Au  tau(  22) = (   0.1666109   0.0000000   0.1666109  )
        23           Au  tau(  23) = (   0.4998326   0.0000000   0.1666109  )
        24           Au  tau(  24) = (   0.8330542   0.0000000   0.1666109  )
        25           Au  tau(  25) = (   0.0000000   0.1666109   0.1666109  )
        26           Au  tau(  26) = (   0.3332217   0.1666109   0.1666109  )
        27           Au  tau(  27) = (   0.6664434   0.1666109   0.1666109  )
        28           Au  tau(  28) = (   0.1666109   0.3332217   0.1666109  )
        29           Au  tau(  29) = (   0.4998326   0.3332217   0.1666109  )
        30           Au  tau(  30) = (   0.8330542   0.3332217   0.1666109  )
        31           Au  tau(  31) = (   0.0000000   0.4998326   0.1666109  )
        32           Au  tau(  32) = (   0.3332217   0.4998326   0.1666109  )
        33           Au  tau(  33) = (   0.6664434   0.4998326   0.1666109  )
        34           Au  tau(  34) = (   0.1666109   0.6664434   0.1666109  )
        35           Au  tau(  35) = (   0.4998326   0.6664434   0.1666109  )
        36           Au  tau(  36) = (   0.8330542   0.6664434   0.1666109  )
        37           Au  tau(  37) = (   0.0000000   0.8330542   0.1666109  )
        38           Au  tau(  38) = (   0.3332217   0.8330542   0.1666109  )
        39           Au  tau(  39) = (   0.6664434   0.8330542   0.1666109  )
        40           Au  tau(  40) = (  -0.0000182  -0.0000182   0.3335478  )
        41           Au  tau(  41) = (   0.3332215  -0.0000181   0.3335473  )
        42           Au  tau(  42) = (   0.6664447  -0.0000183   0.3335481  )
        43           Au  tau(  43) = (  -0.0000181   0.3332215   0.3335473  )
        44           Au  tau(  44) = (   0.3332215   0.3332215   0.3335468  )
        45           Au  tau(  45) = (   0.6664445   0.3332215   0.3335477  )
        46           Au  tau(  46) = (  -0.0000183   0.6664447   0.3335481  )
        47           Au  tau(  47) = (   0.3332215   0.6664445   0.3335477  )
        48           Au  tau(  48) = (   0.6664446   0.6664446   0.3335486  )
        49           Au  tau(  49) = (   0.1666097   0.1666097   0.3335483  )
        50           Au  tau(  50) = (   0.4998320   0.1666098   0.3335477  )
        51           Au  tau(  51) = (   0.8330732   0.1666096   0.3335480  )
        52           Au  tau(  52) = (   0.1666098   0.4998320   0.3335477  )
        53           Au  tau(  53) = (   0.4998322   0.4998322   0.3335470  )
        54           Au  tau(  54) = (   0.8330731   0.4998322   0.3335474  )
        55           Au  tau(  55) = (   0.1666096   0.8330732   0.3335480  )
        56           Au  tau(  56) = (   0.4998322   0.8330731   0.3335474  )
        57           Au  tau(  57) = (   0.8330731   0.8330731   0.3335478  )
        58           Au  tau(  58) = (   0.1666104  -0.0000111   0.4993095  )
        59           Au  tau(  59) = (   0.4998323  -0.0000112   0.4993099  )
        60           Au  tau(  60) = (   0.8330660  -0.0000111   0.4993009  )
        61           Au  tau(  61) = (  -0.0000111   0.1666104   0.4993095  )
        62           Au  tau(  62) = (   0.3332213   0.1666106   0.4993185  )
        63           Au  tau(  63) = (   0.6664437   0.1666106   0.4993187  )
        64           Au  tau(  64) = (   0.1666106   0.3332213   0.4993185  )
        65           Au  tau(  65) = (   0.4998324   0.3332216   0.4993185  )
        66           Au  tau(  66) = (   0.8330658   0.3332215   0.4993102  )
        67           Au  tau(  67) = (  -0.0000112   0.4998323   0.4993099  )
        68           Au  tau(  68) = (   0.3332216   0.4998324   0.4993185  )
        69           Au  tau(  69) = (   0.6664437   0.4998325   0.4993187  )
        70           Au  tau(  70) = (   0.1666106   0.6664437   0.4993187  )
        71           Au  tau(  71) = (   0.4998325   0.6664437   0.4993187  )
        72           Au  tau(  72) = (   0.8330658   0.6664438   0.4993102  )
        73           Au  tau(  73) = (  -0.0000111   0.8330660   0.4993009  )
        74           Au  tau(  74) = (   0.3332215   0.8330658   0.4993102  )
        75           Au  tau(  75) = (   0.6664438   0.8330658   0.4993102  )

     number of k points=     6  Marzari-Vanderbilt smearing, width (Ry)=  0.0200
                       cart. coord. in units 2pi/alat
        k(    1) = (   0.2500000   0.2500000   0.0833333), wk =   0.3333333
        k(    2) = (   0.2500000   0.2500000  -0.2500000), wk =   0.3333333
        k(    3) = (  -0.2500000  -0.2500000   0.0833333), wk =   0.3333333
        k(    4) = (  -0.2500000   0.2500000  -0.0833333), wk =   0.3333333
        k(    5) = (   0.2500000  -0.2500000  -0.0833333), wk =   0.3333333
        k(    6) = (  -0.2500000   0.2500000   0.2500000), wk =   0.3333333

     Dense  grid:  3792731 G-vectors     FFT dimensions: ( 160, 160, 320)

     Smooth grid:  1341081 G-vectors     FFT dimensions: ( 120, 120, 225)

     Largest allocated arrays     est. size (Mb)     dimensions
        Kohn-Sham Wavefunctions        38.58 Mb     (    5267,  480)
        NL pseudopotentials            76.03 Mb     (    5267,  946)
        Each V/rho on FFT grid          3.91 Mb     (  256000)
        Each G-vector array             0.90 Mb     (  118520)
        G-vector shells                 0.08 Mb     (   10286)
     Largest temporary arrays     est. size (Mb)     dimensions
        Auxiliary wavefunctions       154.31 Mb     (    5267, 1920)
        Each subspace H/S matrix       56.25 Mb     (    1920, 1920)
        Each <psi_i|beta_j> matrix      6.93 Mb     (     946,  480)
        Arrays for rho mixing          31.25 Mb     (  256000,    8)

     Initial potential from superposition of free atoms
     Check: negative starting charge=   -1.945183

     starting charge  799.16392, renormalised to  800.00000

     negative rho (up, down):  1.947E+00 0.000E+00


     ************************************************************************
     *
     * You are using vdW-DF for exchange-correlation in this calculation.
     * Please cite the following three references that made this development
     * possible:
     *
     *   M. Dion, H. Rydberg, E. Schroder, D. C. Langreth, and
     *   B. I. Lundqvist, Phys. Rev. Lett. 92, 246401 (2004).
     *
     *   T. Thonhauser, V. R. Cooper, S. Li, A. Puzder, P. Hyldgaard, and
     *   D. C. Langreth, Phys. Rev. B 76, 125112 (2007).
     *
     *   G. Roman-Perez and J. M. Soler, Phys. Rev. Lett. 103, 096102 (2009).
     *
     *
     * If you are using vdW-DF2, please also cite:
     *
     *   K. Lee, E. D. Murray, L. Kong, B. I. Lundqvist, and
     *   D. C. Langreth, Phys. Rev. B 82, 081101(R) (2010).
     *
     *
     * If you are calculating the stress with vdW-DF, please also cite:
     *
     *   R. Sabatini, E. Kucukbenli, B. Kolb, T. Thonhauser, and
     *   S. de Gironcoli, J. Phys.: Condens. Matter 24, 424209 (2012).
     *
     ************************************************************************

     Carrying out vdW-DF run using the following parameters:

     Nqs =      20    Nr_points =    1024   r_max =   100.000
     q_mesh =
               0.00001000     0.04494208     0.09755937     0.15916263
               0.23128650     0.31572767     0.41458969     0.53033537
               0.66584808     0.82450364     1.01025438     1.22772762
               1.48234092     1.78043706     2.12944203     2.53805004
               3.01644009     3.57652955     4.23227104     5.00000000

     Gradients computed in reciprocal space

     ************************************************************************


     Starting wfc are  654 randomized atomic wfcs

     total cpu time spent up to now is      122.6 secs

     Self-consistent Calculation

     iteration #  1     ecut=    50.00 Ry     beta=0.70
     Davidson diagonalization with overlap
     ethr =  1.00E-02,  avg # of iterations =  3.0

     Threshold (ethr) on eigenvalues was too large:
     Diagonalizing with lowered threshold

     Davidson diagonalization with overlap
     ethr =  4.07E-04,  avg # of iterations =  2.0

     negative rho (up, down):  1.947E+00 0.000E+00

     total cpu time spent up to now is      541.7 secs

     total energy              =   -7423.03731764 Ry
     Harris-Foulkes estimate   =   -7425.97848362 Ry
     estimated scf accuracy    <       3.63596904 Ry

     iteration #  2     ecut=    50.00 Ry     beta=0.70
     Davidson diagonalization with overlap
     ethr =  4.54E-04,  avg # of iterations = 11.3

     negative rho (up, down):  1.942E+00 0.000E+00

     total cpu time spent up to now is     1195.1 secs

     total energy              =   -7415.66155242 Ry
     Harris-Foulkes estimate   =   -7432.25010842 Ry
     estimated scf accuracy    <      85.16698689 Ry

     iteration #  3     ecut=    50.00 Ry     beta=0.70
     Davidson diagonalization with overlap
     ethr =  4.54E-04,  avg # of iterations =  6.0

     negative rho (up, down):  1.953E+00 0.000E+00

     total cpu time spent up to now is     1635.7 secs

     total energy              =   -7424.30947049 Ry
     Harris-Foulkes estimate   =   -7425.80133979 Ry
     estimated scf accuracy    <       5.77344002 Ry

     iteration #  4     ecut=    50.00 Ry     beta=0.70
     Davidson diagonalization with overlap
     ethr =  4.54E-04,  avg # of iterations =  3.0

     negative rho (up, down):  1.957E+00 0.000E+00

     total cpu time spent up to now is     1863.3 secs

     total energy              =   -7424.88958297 Ry
     Harris-Foulkes estimate   =   -7425.51930733 Ry
     estimated scf accuracy    <       3.24699104 Ry

     iteration #  5     ecut=    50.00 Ry     beta=0.70
     Davidson diagonalization with overlap
     ethr =  4.06E-04,  avg # of iterations =  5.0

     negative rho (up, down):  1.963E+00 0.000E+00

     total cpu time spent up to now is     2111.8 secs

     total energy              =   -7425.04150363 Ry
     Harris-Foulkes estimate   =   -7425.44404821 Ry
     estimated scf accuracy    <       2.95762842 Ry

     iteration #  6     ecut=    50.00 Ry     beta=0.70
     Davidson diagonalization with overlap
     ethr =  3.70E-04,  avg # of iterations =  3.0

     negative rho (up, down):  1.966E+00 0.000E+00

     total cpu time spent up to now is     2326.9 secs

     total energy              =   -7425.19883112 Ry
     Harris-Foulkes estimate   =   -7425.26092394 Ry
     estimated scf accuracy    <       0.24209435 Ry

     iteration #  7     ecut=    50.00 Ry     beta=0.70
     Davidson diagonalization with overlap
     ethr =  3.03E-05,  avg # of iterations = 12.2

     negative rho (up, down):  1.969E+00 0.000E+00

     total cpu time spent up to now is     2673.5 secs

     total energy              =   -7425.21093652 Ry
     Harris-Foulkes estimate   =   -7425.25021655 Ry
     estimated scf accuracy    <       0.19807762 Ry

     iteration #  8     ecut=    50.00 Ry     beta=0.70
     Davidson diagonalization with overlap
     ethr =  2.48E-05,  avg # of iterations =  4.5

     negative rho (up, down):  1.971E+00 0.000E+00

     total cpu time spent up to now is     2900.3 secs

     total energy              =   -7425.21919287 Ry
     Harris-Foulkes estimate   =   -7425.23577421 Ry
     estimated scf accuracy    <       0.06308489 Ry

     iteration #  9     ecut=    50.00 Ry     beta=0.70
     Davidson diagonalization with overlap
     ethr =  7.89E-06,  avg # of iterations =  6.5

     negative rho (up, down):  1.972E+00 0.000E+00

     total cpu time spent up to now is     3164.9 secs

     total energy              =   -7425.22244758 Ry
     Harris-Foulkes estimate   =   -7425.22996740 Ry
     estimated scf accuracy    <       0.02386455 Ry

     iteration # 10     ecut=    50.00 Ry     beta=0.70
     Davidson diagonalization with overlap
     ethr =  2.98E-06,  avg # of iterations =  6.2

     negative rho (up, down):  1.972E+00 0.000E+00

     total cpu time spent up to now is     3445.4 secs

     total energy              =   -7425.22515375 Ry
     Harris-Foulkes estimate   =   -7425.22682806 Ry
     estimated scf accuracy    <       0.00408775 Ry

     iteration # 11     ecut=    50.00 Ry     beta=0.70
     Davidson diagonalization with overlap
     ethr =  5.11E-07,  avg # of iterations =  2.7

     negative rho (up, down):  1.973E+00 0.000E+00

     total cpu time spent up to now is     3679.9 secs

     total energy              =   -7425.22575291 Ry
     Harris-Foulkes estimate   =   -7425.22651614 Ry
     estimated scf accuracy    <       0.00215678 Ry

     iteration # 12     ecut=    50.00 Ry     beta=0.70
     Davidson diagonalization with overlap
     ethr =  2.70E-07,  avg # of iterations =  2.5

     negative rho (up, down):  1.973E+00 0.000E+00

     total cpu time spent up to now is     3909.5 secs

     total energy              =   -7425.22585082 Ry
     Harris-Foulkes estimate   =   -7425.22640366 Ry
     estimated scf accuracy    <       0.00240747 Ry

     iteration # 13     ecut=    50.00 Ry     beta=0.70
     Davidson diagonalization with overlap
     ethr =  2.70E-07,  avg # of iterations =  2.5

     negative rho (up, down):  1.973E+00 0.000E+00

     total cpu time spent up to now is     4129.0 secs

     total energy              =   -7425.22591782 Ry
     Harris-Foulkes estimate   =   -7425.22643118 Ry
     estimated scf accuracy    <       0.00255192 Ry

     iteration # 14     ecut=    50.00 Ry     beta=0.70
     Davidson diagonalization with overlap
     ethr =  2.70E-07,  avg # of iterations =  2.0

     negative rho (up, down):  1.973E+00 0.000E+00

     total cpu time spent up to now is     4346.4 secs

     total energy              =   -7425.22615818 Ry
     Harris-Foulkes estimate   =   -7425.22617987 Ry
     estimated scf accuracy    <       0.00006061 Ry

     iteration # 15     ecut=    50.00 Ry     beta=0.70
     Davidson diagonalization with overlap
     ethr =  7.58E-09,  avg # of iterations =  3.0

     negative rho (up, down):  1.973E+00 0.000E+00

     total cpu time spent up to now is     4618.8 secs

     total energy              =   -7425.22614724 Ry
     Harris-Foulkes estimate   =   -7425.22619665 Ry
     estimated scf accuracy    <       0.00029614 Ry

     iteration # 16     ecut=    50.00 Ry     beta=0.70
     Davidson diagonalization with overlap
     ethr =  7.58E-09,  avg # of iterations =  2.0

     negative rho (up, down):  1.973E+00 0.000E+00

     total cpu time spent up to now is     4836.4 secs

     total energy              =   -7425.22616347 Ry
     Harris-Foulkes estimate   =   -7425.22619071 Ry
     estimated scf accuracy    <       0.00017853 Ry

     iteration # 17     ecut=    50.00 Ry     beta=0.70
     Davidson diagonalization with overlap
     ethr =  7.58E-09,  avg # of iterations =  2.0

     negative rho (up, down):  1.973E+00 0.000E+00

     total cpu time spent up to now is     5043.8 secs

     total energy              =   -7425.22617323 Ry
     Harris-Foulkes estimate   =   -7425.22618096 Ry
     estimated scf accuracy    <       0.00003726 Ry

     iteration # 18     ecut=    50.00 Ry     beta=0.70
     Davidson diagonalization with overlap
     ethr =  4.66E-09,  avg # of iterations =  2.0

     negative rho (up, down):  1.973E+00 0.000E+00

     total cpu time spent up to now is     5260.8 secs

     total energy              =   -7425.22617678 Ry
     Harris-Foulkes estimate   =   -7425.22617784 Ry
     estimated scf accuracy    <       0.00000372 Ry

     iteration # 19     ecut=    50.00 Ry     beta=0.70
     Davidson diagonalization with overlap
     ethr =  4.65E-10,  avg # of iterations =  2.0

     negative rho (up, down):  1.973E+00 0.000E+00

     total cpu time spent up to now is     5466.3 secs

     total energy              =   -7425.22617703 Ry
     Harris-Foulkes estimate   =   -7425.22617754 Ry
     estimated scf accuracy    <       0.00000124 Ry

     iteration # 20     ecut=    50.00 Ry     beta=0.70
     Davidson diagonalization with overlap
     ethr =  1.54E-10,  avg # of iterations =  2.0

     negative rho (up, down):  1.973E+00 0.000E+00

     total cpu time spent up to now is     5689.4 secs

     total energy              =   -7425.22617708 Ry
     Harris-Foulkes estimate   =   -7425.22617749 Ry
     estimated scf accuracy    <       0.00000130 Ry

     iteration # 21     ecut=    50.00 Ry     beta=0.70
     Davidson diagonalization with overlap
     ethr =  1.54E-10,  avg # of iterations =  2.0

     negative rho (up, down):  1.973E+00 0.000E+00

     total cpu time spent up to now is     5897.7 secs

     total energy              =   -7425.22617722 Ry
     Harris-Foulkes estimate   =   -7425.22617731 Ry
     estimated scf accuracy    <       0.00000021 Ry

     iteration # 22     ecut=    50.00 Ry     beta=0.70
     Davidson diagonalization with overlap
     ethr =  2.61E-11,  avg # of iterations =  2.0

     negative rho (up, down):  1.973E+00 0.000E+00

     total cpu time spent up to now is     6104.5 secs

     total energy              =   -7425.22617722 Ry
     Harris-Foulkes estimate   =   -7425.22617726 Ry
     estimated scf accuracy    <       0.00000005 Ry

     iteration # 23     ecut=    50.00 Ry     beta=0.70
     Davidson diagonalization with overlap
     ethr =  6.57E-12,  avg # of iterations =  2.0

     negative rho (up, down):  1.973E+00 0.000E+00

     total cpu time spent up to now is     6310.9 secs

     total energy              =   -7425.22617722 Ry
     Harris-Foulkes estimate   =   -7425.22617723 Ry
     estimated scf accuracy    <       0.00000002 Ry

     iteration # 24     ecut=    50.00 Ry     beta=0.70
     Davidson diagonalization with overlap
     ethr =  2.52E-12,  avg # of iterations =  3.0

     negative rho (up, down):  1.973E+00 0.000E+00

     total cpu time spent up to now is     6592.8 secs

     total energy              =   -7425.22617720 Ry
     Harris-Foulkes estimate   =   -7425.22617724 Ry
     estimated scf accuracy    <       0.00000013 Ry

     iteration # 25     ecut=    50.00 Ry     beta=0.70
     Davidson diagonalization with overlap
     ethr =  2.52E-12,  avg # of iterations =  3.0

     negative rho (up, down):  1.973E+00 0.000E+00

     total cpu time spent up to now is     6859.6 secs

     End of self-consistent calculation

          k = 0.2500 0.2500 0.0833 (167653 PWs)   bands (ev):

   -20.0768  -8.1332  -6.8618  -6.3383  -6.3303  -5.9032  -5.5092  -5.4068
    -5.3986  -5.2148  -5.2057  -5.1322  -5.0853  -5.0106  -4.9911  -4.9161
    -4.8620  -4.8281  -4.8088  -4.7838  -4.7059  -4.6302  -4.6089  -4.6041
    -4.5985  -4.5923  -4.5446  -4.5361  -4.5294  -4.5252  -4.4941  -4.4802
    -4.4656  -4.4392  -4.4336  -4.4055  -4.4001  -4.3653  -4.3506  -4.3464
    -4.3416  -4.3347  -4.3215  -4.3160  -4.2874  -4.2646  -4.2605  -4.2550
    -4.2524  -4.2252  -4.1775  -4.1611  -4.1566  -4.1545  -4.1498  -4.1446
    -4.1419  -4.1388  -4.1264  -4.0868  -4.0738  -4.0261  -4.0237  -4.0136
    -3.9900  -3.9874  -3.9654  -3.9634  -3.9608  -3.9588  -3.9542  -3.9097
    -3.9040  -3.8997  -3.8937  -3.7974  -3.7895  -3.7837  -3.7802  -3.7638
    -3.7442  -3.7189  -3.6977  -3.6878  -3.6643  -3.6610  -3.6475  -3.6443
    -3.6371  -3.6272  -3.5768  -3.5735  -3.5676  -3.5390  -3.5358  -3.5295
    -3.5247  -3.5231  -3.5043  -3.4978  -3.4666  -3.4600  -3.4562  -3.4395
    -3.4159  -3.4048  -3.3969  -3.3677  -3.3608  -3.3287  -3.3220  -3.2922
    -3.2794  -3.2768  -3.2712  -3.2654  -3.2583  -3.2575  -3.2365  -3.2091
    -3.1793  -3.1734  -3.1636  -3.1586  -3.1525  -3.1502  -3.1326  -3.1292
    -3.1163  -3.1089  -3.1032  -3.0839  -3.0799  -3.0761  -3.0712  -3.0649
    -3.0359  -3.0318  -3.0029  -2.9992  -2.9926  -2.9890  -2.9870  -2.9171
    -2.9128  -2.9039  -2.8999  -2.8948  -2.8917  -2.8914  -2.8870  -2.8855
    -2.8837  -2.8768  -2.8714  -2.8671  -2.8548  -2.8495  -2.8464  -2.8372
    -2.8347  -2.8081  -2.7971  -2.7919  -2.7888  -2.7836  -2.7742  -2.7671
    -2.7654  -2.7612  -2.7548  -2.7274  -2.7051  -2.6989  -2.6949  -2.6883
    -2.6852  -2.6656  -2.6274  -2.6089  -2.6012  -2.5949  -2.5906  -2.5854
    -2.5833  -2.5719  -2.5678  -2.5584  -2.5448  -2.5311  -2.5282  -2.5223
    -2.5184  -2.4900  -2.4842  -2.4789  -2.4735  -2.4713  -2.4671  -2.4504
    -2.4235  -2.4063  -2.3745  -2.3614  -2.3491  -2.3394  -2.3321  -2.3276
    -2.3059  -2.2803  -2.2743  -2.2576  -2.2451  -2.2257  -2.2198  -2.2088
    -2.2041  -2.1965  -2.1806  -2.1789  -2.1537  -2.1382  -2.1266  -2.1190
    -2.1153  -2.1137  -2.1079  -2.0973  -2.0932  -2.0910  -2.0869  -2.0822
    -2.0792  -2.0776  -2.0721  -2.0596  -2.0534  -2.0495  -2.0472  -2.0427
    -2.0382  -2.0263  -2.0194  -2.0082  -2.0067  -2.0017  -1.9940  -1.9650
    -1.9603  -1.9288  -1.9225  -1.8930  -1.8815  -1.8751  -1.8644  -1.8541
    -1.8415  -1.8395  -1.8328  -1.8266  -1.8215  -1.8188  -1.8160  -1.7873
    -1.7853  -1.7837  -1.7498  -1.7414  -1.7298  -1.7065  -1.6870  -1.6546
    -1.6506  -1.6367  -1.6217  -1.6173  -1.6089  -1.6023  -1.5918  -1.5819
    -1.5767  -1.5716  -1.5696  -1.5674  -1.5668  -1.5634  -1.5542  -1.5495
    -1.5375  -1.5262  -1.5177  -1.5072  -1.4963  -1.4799  -1.4710  -1.4688
    -1.4662  -1.4624  -1.4572  -1.4484  -1.4291  -1.4243  -1.4142  -1.4089
    -1.3938  -1.3858  -1.3741  -1.3654  -1.3573  -1.3542  -1.3336  -1.3154
    -1.3087  -1.3037  -1.3022  -1.3001  -1.2878  -1.2754  -1.2723  -1.2662
    -1.2574  -1.2527  -1.2499  -1.2411  -1.2393  -1.2301  -1.2272  -1.2169
    -1.2102  -1.2098  -1.2040  -1.1982  -1.1924  -1.1848  -1.1646  -1.1483
    -1.1432  -1.1413  -1.1344  -1.1321  -1.1228  -1.1016  -1.0810  -1.0769
    -1.0750  -1.0743  -1.0719  -1.0680  -1.0573  -1.0520  -1.0291  -1.0176
    -1.0161  -1.0086  -1.0038  -0.9888  -0.9862  -0.9761  -0.9522  -0.9393
    -0.9215  -0.9097  -0.8883  -0.8862  -0.8802  -0.8793  -0.8754  -0.8736
    -0.8695  -0.8693  -0.8631  -0.8559  -0.8343  -0.8313  -0.8149  -0.8135
    -0.8070  -0.8062  -0.8029  -0.7883  -0.7514  -0.5277  -0.4978  -0.4420
    -0.4212  -0.4014  -0.2382  -0.1825  -0.1784  -0.1253   0.1382   0.1513
     0.4699   0.4829   0.5653   0.5706   0.6082   0.6161   0.7581   0.7704
     0.8723   0.8811   0.9793   1.5658   1.5792   1.5852   1.6182   1.6275
     1.6719   1.6928   1.7508   1.7613   1.9558   1.9623   2.1987   2.2711
     2.2842   2.2939   2.6650   2.6828   2.7397   2.7419   2.7532   2.7556
     2.9005   2.9033   2.9546   3.0479   3.0536   3.2775   3.2820   3.4093
     3.4338   3.4449   3.7071   3.7172   3.8259   3.8424   3.8459   3.9062
     3.9390   4.0253   4.0352   4.2567   4.2683   4.3557   4.3656   4.4751
     4.4803   4.4987   4.5183   4.6714   5.2792   5.3281   5.3715   5.4046
     5.4097   5.5766   5.5974   5.6357   5.6642   5.6997   5.7079   5.7213
     5.7519   5.7561   5.7652   5.8054   6.0426   6.0530   6.0773   6.0884
     6.0980   6.1047   6.1163   6.1309   6.1539   6.1740   6.1749   6.2109

          k = 0.2500 0.2500-0.2500 (167588 PWs)   bands (ev):

   -20.0768  -8.1332  -6.8618  -6.3383  -6.3303  -5.9032  -5.5092  -5.4068
    -5.3986  -5.2148  -5.2057  -5.1322  -5.0853  -5.0106  -4.9911  -4.9161
    -4.8620  -4.8281  -4.8088  -4.7838  -4.7059  -4.6302  -4.6089  -4.6041
    -4.5985  -4.5923  -4.5446  -4.5361  -4.5294  -4.5252  -4.4941  -4.4802
    -4.4656  -4.4392  -4.4336  -4.4055  -4.4001  -4.3653  -4.3506  -4.3464
    -4.3416  -4.3347  -4.3215  -4.3160  -4.2874  -4.2646  -4.2605  -4.2550
    -4.2524  -4.2252  -4.1775  -4.1611  -4.1566  -4.1545  -4.1498  -4.1446
    -4.1419  -4.1388  -4.1264  -4.0868  -4.0738  -4.0261  -4.0237  -4.0136
    -3.9899  -3.9874  -3.9654  -3.9634  -3.9608  -3.9588  -3.9542  -3.9097
    -3.9040  -3.8997  -3.8937  -3.7974  -3.7896  -3.7837  -3.7802  -3.7638
    -3.7442  -3.7189  -3.6977  -3.6878  -3.6643  -3.6610  -3.6475  -3.6443
    -3.6371  -3.6272  -3.5768  -3.5735  -3.5676  -3.5391  -3.5358  -3.5295
    -3.5247  -3.5231  -3.5043  -3.4978  -3.4666  -3.4600  -3.4562  -3.4395
    -3.4159  -3.4048  -3.3969  -3.3677  -3.3608  -3.3287  -3.3220  -3.2922
    -3.2794  -3.2768  -3.2712  -3.2654  -3.2583  -3.2575  -3.2365  -3.2091
    -3.1793  -3.1734  -3.1636  -3.1586  -3.1525  -3.1502  -3.1326  -3.1292
    -3.1163  -3.1089  -3.1032  -3.0839  -3.0798  -3.0761  -3.0712  -3.0649
    -3.0359  -3.0318  -3.0029  -2.9992  -2.9926  -2.9890  -2.9870  -2.9171
    -2.9128  -2.9039  -2.8999  -2.8948  -2.8917  -2.8914  -2.8870  -2.8855
    -2.8837  -2.8768  -2.8714  -2.8671  -2.8548  -2.8495  -2.8464  -2.8372
    -2.8347  -2.8081  -2.7971  -2.7919  -2.7888  -2.7836  -2.7742  -2.7671
    -2.7654  -2.7612  -2.7548  -2.7274  -2.7051  -2.6989  -2.6949  -2.6883
    -2.6851  -2.6656  -2.6274  -2.6089  -2.6012  -2.5949  -2.5906  -2.5854
    -2.5833  -2.5719  -2.5678  -2.5584  -2.5448  -2.5311  -2.5282  -2.5223
    -2.5184  -2.4900  -2.4842  -2.4789  -2.4735  -2.4713  -2.4671  -2.4504
    -2.4235  -2.4063  -2.3745  -2.3614  -2.3491  -2.3394  -2.3321  -2.3276
    -2.3059  -2.2803  -2.2743  -2.2576  -2.2451  -2.2257  -2.2198  -2.2088
    -2.2041  -2.1965  -2.1806  -2.1789  -2.1537  -2.1382  -2.1266  -2.1190
    -2.1153  -2.1137  -2.1079  -2.0973  -2.0932  -2.0910  -2.0869  -2.0822
    -2.0792  -2.0776  -2.0721  -2.0596  -2.0534  -2.0495  -2.0472  -2.0427
    -2.0382  -2.0263  -2.0194  -2.0082  -2.0067  -2.0017  -1.9940  -1.9650
    -1.9603  -1.9288  -1.9225  -1.8930  -1.8815  -1.8751  -1.8644  -1.8541
    -1.8415  -1.8395  -1.8328  -1.8266  -1.8215  -1.8188  -1.8160  -1.7873
    -1.7853  -1.7837  -1.7498  -1.7414  -1.7298  -1.7065  -1.6870  -1.6546
    -1.6506  -1.6367  -1.6217  -1.6173  -1.6089  -1.6023  -1.5918  -1.5819
    -1.5767  -1.5716  -1.5696  -1.5673  -1.5668  -1.5633  -1.5542  -1.5495
    -1.5375  -1.5262  -1.5177  -1.5072  -1.4963  -1.4799  -1.4710  -1.4687
    -1.4662  -1.4624  -1.4572  -1.4484  -1.4291  -1.4243  -1.4142  -1.4089
    -1.3938  -1.3858  -1.3741  -1.3654  -1.3573  -1.3542  -1.3336  -1.3154
    -1.3087  -1.3037  -1.3022  -1.3001  -1.2878  -1.2754  -1.2723  -1.2662
    -1.2574  -1.2527  -1.2499  -1.2411  -1.2393  -1.2301  -1.2272  -1.2169
    -1.2102  -1.2098  -1.2040  -1.1982  -1.1924  -1.1848  -1.1646  -1.1483
    -1.1432  -1.1413  -1.1344  -1.1321  -1.1227  -1.1016  -1.0810  -1.0769
    -1.0750  -1.0743  -1.0719  -1.0680  -1.0573  -1.0520  -1.0291  -1.0176
    -1.0161  -1.0086  -1.0038  -0.9888  -0.9862  -0.9761  -0.9522  -0.9393
    -0.9215  -0.9097  -0.8883  -0.8862  -0.8802  -0.8793  -0.8754  -0.8736
    -0.8695  -0.8693  -0.8631  -0.8559  -0.8343  -0.8314  -0.8149  -0.8135
    -0.8070  -0.8062  -0.8029  -0.7883  -0.7514  -0.5277  -0.4978  -0.4420
    -0.4212  -0.4014  -0.2382  -0.1825  -0.1784  -0.1253   0.1382   0.1513
     0.4699   0.4829   0.5653   0.5706   0.6082   0.6161   0.7581   0.7704
     0.8723   0.8811   0.9793   1.5658   1.5792   1.5852   1.6182   1.6275
     1.6719   1.6928   1.7508   1.7613   1.9558   1.9623   2.1987   2.2711
     2.2842   2.2939   2.6650   2.6828   2.7397   2.7420   2.7532   2.7556
     2.9005   2.9033   2.9546   3.0479   3.0536   3.2775   3.2820   3.4093
     3.4338   3.4449   3.7071   3.7172   3.8259   3.8424   3.8459   3.9063
     3.9390   4.0253   4.0352   4.2567   4.2683   4.3557   4.3656   4.4751
     4.4803   4.4987   4.5183   4.6715   5.2777   5.3279   5.3479   5.4046
     5.4088   5.5764   5.5973   5.6343   5.6890   5.7055   5.7096   5.7334
     5.7519   5.7633   5.7781   5.8063   6.0423   6.0516   6.0773   6.0886
     6.0980   6.1046   6.1163   6.1265   6.1411   6.1699   6.2089   6.2722

          k =-0.2500-0.2500 0.0833 (167653 PWs)   bands (ev):

   -20.0768  -8.1332  -6.8618  -6.3383  -6.3303  -5.9032  -5.5092  -5.4068
    -5.3986  -5.2148  -5.2057  -5.1322  -5.0853  -5.0106  -4.9911  -4.9161
    -4.8620  -4.8281  -4.8088  -4.7838  -4.7059  -4.6302  -4.6089  -4.6041
    -4.5985  -4.5923  -4.5446  -4.5361  -4.5294  -4.5252  -4.4941  -4.4802
    -4.4656  -4.4392  -4.4336  -4.4055  -4.4001  -4.3653  -4.3506  -4.3464
    -4.3416  -4.3347  -4.3215  -4.3160  -4.2874  -4.2646  -4.2605  -4.2550
    -4.2524  -4.2252  -4.1775  -4.1611  -4.1566  -4.1545  -4.1498  -4.1446
    -4.1419  -4.1388  -4.1264  -4.0868  -4.0738  -4.0261  -4.0237  -4.0136
    -3.9900  -3.9874  -3.9654  -3.9634  -3.9608  -3.9588  -3.9542  -3.9097
    -3.9040  -3.8997  -3.8937  -3.7974  -3.7895  -3.7837  -3.7802  -3.7638
    -3.7442  -3.7189  -3.6977  -3.6878  -3.6643  -3.6610  -3.6475  -3.6443
    -3.6371  -3.6272  -3.5768  -3.5735  -3.5676  -3.5391  -3.5358  -3.5295
    -3.5247  -3.5231  -3.5043  -3.4978  -3.4666  -3.4600  -3.4562  -3.4395
    -3.4159  -3.4048  -3.3969  -3.3677  -3.3608  -3.3287  -3.3220  -3.2922
    -3.2794  -3.2768  -3.2712  -3.2654  -3.2583  -3.2575  -3.2365  -3.2091
    -3.1793  -3.1734  -3.1636  -3.1586  -3.1525  -3.1502  -3.1326  -3.1292
    -3.1163  -3.1089  -3.1032  -3.0839  -3.0799  -3.0761  -3.0712  -3.0649
    -3.0359  -3.0318  -3.0029  -2.9992  -2.9926  -2.9890  -2.9870  -2.9171
    -2.9128  -2.9039  -2.8999  -2.8948  -2.8917  -2.8914  -2.8870  -2.8855
    -2.8837  -2.8768  -2.8714  -2.8671  -2.8548  -2.8495  -2.8464  -2.8372
    -2.8347  -2.8081  -2.7971  -2.7919  -2.7888  -2.7836  -2.7742  -2.7671
    -2.7654  -2.7612  -2.7548  -2.7274  -2.7051  -2.6989  -2.6949  -2.6883
    -2.6852  -2.6656  -2.6274  -2.6089  -2.6012  -2.5949  -2.5906  -2.5854
    -2.5833  -2.5719  -2.5678  -2.5584  -2.5448  -2.5311  -2.5282  -2.5223
    -2.5184  -2.4900  -2.4842  -2.4789  -2.4735  -2.4713  -2.4671  -2.4504
    -2.4235  -2.4063  -2.3745  -2.3614  -2.3491  -2.3394  -2.3321  -2.3276
    -2.3059  -2.2803  -2.2743  -2.2576  -2.2451  -2.2257  -2.2198  -2.2088
    -2.2041  -2.1965  -2.1806  -2.1789  -2.1537  -2.1382  -2.1266  -2.1190
    -2.1153  -2.1137  -2.1079  -2.0973  -2.0932  -2.0910  -2.0869  -2.0822
    -2.0792  -2.0776  -2.0721  -2.0596  -2.0534  -2.0495  -2.0472  -2.0427
    -2.0382  -2.0263  -2.0194  -2.0082  -2.0067  -2.0017  -1.9940  -1.9650
    -1.9603  -1.9288  -1.9225  -1.8930  -1.8815  -1.8751  -1.8644  -1.8541
    -1.8415  -1.8395  -1.8328  -1.8266  -1.8215  -1.8188  -1.8160  -1.7873
    -1.7853  -1.7837  -1.7498  -1.7414  -1.7298  -1.7065  -1.6870  -1.6546
    -1.6506  -1.6367  -1.6217  -1.6173  -1.6089  -1.6023  -1.5918  -1.5819
    -1.5767  -1.5716  -1.5696  -1.5674  -1.5668  -1.5634  -1.5542  -1.5495
    -1.5375  -1.5262  -1.5177  -1.5072  -1.4963  -1.4799  -1.4710  -1.4688
    -1.4662  -1.4624  -1.4572  -1.4484  -1.4291  -1.4243  -1.4142  -1.4089
    -1.3938  -1.3858  -1.3741  -1.3654  -1.3573  -1.3542  -1.3336  -1.3154
    -1.3087  -1.3037  -1.3022  -1.3001  -1.2878  -1.2754  -1.2723  -1.2662
    -1.2574  -1.2527  -1.2499  -1.2411  -1.2393  -1.2301  -1.2272  -1.2169
    -1.2102  -1.2098  -1.2040  -1.1982  -1.1924  -1.1848  -1.1646  -1.1483
    -1.1432  -1.1413  -1.1344  -1.1321  -1.1228  -1.1016  -1.0810  -1.0769
    -1.0750  -1.0743  -1.0719  -1.0680  -1.0573  -1.0520  -1.0291  -1.0176
    -1.0161  -1.0086  -1.0038  -0.9888  -0.9862  -0.9761  -0.9522  -0.9393
    -0.9215  -0.9097  -0.8883  -0.8862  -0.8802  -0.8793  -0.8754  -0.8736
    -0.8695  -0.8693  -0.8631  -0.8559  -0.8343  -0.8313  -0.8149  -0.8135
    -0.8070  -0.8062  -0.8029  -0.7883  -0.7514  -0.5277  -0.4978  -0.4420
    -0.4212  -0.4014  -0.2382  -0.1825  -0.1784  -0.1253   0.1382   0.1513
     0.4699   0.4829   0.5653   0.5706   0.6082   0.6161   0.7581   0.7704
     0.8723   0.8811   0.9793   1.5658   1.5792   1.5852   1.6182   1.6275
     1.6719   1.6928   1.7508   1.7613   1.9558   1.9623   2.1987   2.2711
     2.2842   2.2939   2.6650   2.6828   2.7397   2.7419   2.7532   2.7556
     2.9005   2.9033   2.9546   3.0479   3.0536   3.2775   3.2820   3.4093
     3.4338   3.4449   3.7071   3.7172   3.8259   3.8424   3.8459   3.9062
     3.9390   4.0253   4.0352   4.2567   4.2683   4.3557   4.3656   4.4751
     4.4803   4.4987   4.5183   4.6714   5.2792   5.3281   5.3714   5.4046
     5.4097   5.5766   5.5973   5.6354   5.6646   5.6997   5.7079   5.7214
     5.7518   5.7562   5.7652   5.8054   6.0425   6.0529   6.0772   6.0883
     6.0980   6.1047   6.1163   6.1316   6.1541   6.1718   6.1762   6.2112

          k =-0.2500 0.2500-0.0833 (167653 PWs)   bands (ev):

   -20.0768  -8.1332  -6.8622  -6.3363  -6.3303  -5.9058  -5.5107  -5.4092
    -5.3992  -5.2068  -5.2050  -5.1274  -5.0854  -5.0100  -5.0014  -4.9229
    -4.8421  -4.8247  -4.8006  -4.7840  -4.7322  -4.6296  -4.6079  -4.6048
    -4.5991  -4.5966  -4.5449  -4.5386  -4.5300  -4.5241  -4.4945  -4.4807
    -4.4606  -4.4394  -4.4311  -4.4062  -4.3977  -4.3671  -4.3514  -4.3456
    -4.3412  -4.3336  -4.3217  -4.3157  -4.2832  -4.2643  -4.2606  -4.2553
    -4.2532  -4.2217  -4.1739  -4.1613  -4.1569  -4.1555  -4.1545  -4.1451
    -4.1425  -4.1393  -4.1277  -4.0885  -4.0749  -4.0248  -4.0165  -4.0143
    -3.9916  -3.9873  -3.9689  -3.9642  -3.9617  -3.9587  -3.9521  -3.9092
    -3.9028  -3.8992  -3.8941  -3.7962  -3.7892  -3.7843  -3.7813  -3.7658
    -3.7437  -3.7189  -3.6978  -3.6892  -3.6632  -3.6618  -3.6472  -3.6438
    -3.6396  -3.6280  -3.5775  -3.5731  -3.5638  -3.5380  -3.5347  -3.5278
    -3.5255  -3.5240  -3.5033  -3.4991  -3.4679  -3.4589  -3.4568  -3.4417
    -3.4148  -3.4059  -3.3967  -3.3655  -3.3611  -3.3282  -3.3228  -3.2925
    -3.2795  -3.2768  -3.2706  -3.2663  -3.2584  -3.2576  -3.2372  -3.2094
    -3.1792  -3.1722  -3.1646  -3.1576  -3.1527  -3.1509  -3.1330  -3.1291
    -3.1149  -3.1094  -3.1039  -3.0823  -3.0805  -3.0759  -3.0718  -3.0658
    -3.0356  -3.0316  -3.0034  -2.9969  -2.9931  -2.9894  -2.9869  -2.9157
    -2.9117  -2.9040  -2.8996  -2.8950  -2.8927  -2.8917  -2.8860  -2.8856
    -2.8840  -2.8764  -2.8713  -2.8674  -2.8531  -2.8491  -2.8460  -2.8378
    -2.8355  -2.8056  -2.7976  -2.7922  -2.7890  -2.7847  -2.7744  -2.7671
    -2.7646  -2.7615  -2.7546  -2.7286  -2.7039  -2.6991  -2.6938  -2.6886
    -2.6844  -2.6662  -2.6299  -2.6075  -2.6006  -2.5946  -2.5900  -2.5854
    -2.5827  -2.5717  -2.5696  -2.5595  -2.5428  -2.5327  -2.5267  -2.5229
    -2.5189  -2.4905  -2.4857  -2.4806  -2.4735  -2.4704  -2.4672  -2.4520
    -2.4203  -2.4062  -2.3725  -2.3597  -2.3489  -2.3400  -2.3324  -2.3271
    -2.3042  -2.2798  -2.2745  -2.2584  -2.2410  -2.2284  -2.2198  -2.2090
    -2.2047  -2.1958  -2.1820  -2.1756  -2.1582  -2.1400  -2.1268  -2.1181
    -2.1154  -2.1133  -2.1088  -2.0964  -2.0932  -2.0911  -2.0882  -2.0825
    -2.0802  -2.0773  -2.0741  -2.0586  -2.0536  -2.0497  -2.0479  -2.0423
    -2.0388  -2.0259  -2.0200  -2.0083  -2.0059  -2.0008  -1.9950  -1.9707
    -1.9604  -1.9269  -1.9256  -1.8935  -1.8802  -1.8753  -1.8642  -1.8535
    -1.8418  -1.8375  -1.8317  -1.8264  -1.8213  -1.8192  -1.8161  -1.7872
    -1.7850  -1.7836  -1.7482  -1.7420  -1.7273  -1.7103  -1.6863  -1.6556
    -1.6478  -1.6374  -1.6232  -1.6158  -1.6087  -1.6045  -1.5903  -1.5815
    -1.5778  -1.5736  -1.5722  -1.5683  -1.5666  -1.5635  -1.5557  -1.5501
    -1.5377  -1.5239  -1.5183  -1.5063  -1.4948  -1.4784  -1.4728  -1.4679
    -1.4663  -1.4629  -1.4559  -1.4507  -1.4274  -1.4243  -1.4140  -1.4084
    -1.3927  -1.3874  -1.3724  -1.3652  -1.3571  -1.3537  -1.3320  -1.3196
    -1.3077  -1.3039  -1.3017  -1.2993  -1.2854  -1.2759  -1.2726  -1.2682
    -1.2588  -1.2518  -1.2486  -1.2413  -1.2403  -1.2300  -1.2269  -1.2189
    -1.2102  -1.2081  -1.2032  -1.1970  -1.1927  -1.1855  -1.1629  -1.1496
    -1.1416  -1.1395  -1.1366  -1.1317  -1.1226  -1.1024  -1.0810  -1.0770
    -1.0759  -1.0741  -1.0725  -1.0676  -1.0560  -1.0523  -1.0292  -1.0190
    -1.0118  -1.0086  -1.0018  -0.9887  -0.9867  -0.9765  -0.9530  -0.9383
    -0.9202  -0.9108  -0.8878  -0.8855  -0.8817  -0.8792  -0.8753  -0.8716
    -0.8694  -0.8692  -0.8641  -0.8568  -0.8343  -0.8318  -0.8152  -0.8135
    -0.8075  -0.8063  -0.8037  -0.7882  -0.7487  -0.5279  -0.4977  -0.4428
    -0.4184  -0.4027  -0.2402  -0.1823  -0.1799  -0.1260   0.1374   0.1531
     0.4693   0.4836   0.5637   0.5722   0.6072   0.6145   0.7557   0.7718
     0.8722   0.8814   0.9793   1.5633   1.5783   1.5870   1.6189   1.6275
     1.6733   1.6935   1.7494   1.7649   1.9528   1.9645   2.1993   2.2724
     2.2824   2.2916   2.6704   2.6764   2.7378   2.7449   2.7533   2.7560
     2.8990   2.9048   2.9556   3.0466   3.0554   3.2776   3.2866   3.4099
     3.4312   3.4463   3.7085   3.7160   3.8243   3.8410   3.8466   3.9165
     3.9289   4.0226   4.0326   4.2530   4.2707   4.3571   4.3645   4.4716
     4.4862   4.5033   4.5112   4.6700   5.2915   5.3106   5.3751   5.4035
     5.4185   5.5780   5.5932   5.6405   5.6683   5.7004   5.7091   5.7317
     5.7360   5.7494   5.7650   5.8070   6.0349   6.0697   6.0805   6.0856
     6.1010   6.1064   6.1160   6.1271   6.1607   6.1653   6.1851   6.1998

          k = 0.2500-0.2500-0.0833 (167653 PWs)   bands (ev):

   -20.0768  -8.1332  -6.8622  -6.3363  -6.3303  -5.9058  -5.5107  -5.4092
    -5.3992  -5.2068  -5.2050  -5.1274  -5.0854  -5.0100  -5.0014  -4.9229
    -4.8421  -4.8247  -4.8006  -4.7840  -4.7322  -4.6296  -4.6079  -4.6048
    -4.5991  -4.5966  -4.5449  -4.5386  -4.5300  -4.5241  -4.4945  -4.4807
    -4.4606  -4.4394  -4.4311  -4.4062  -4.3977  -4.3671  -4.3514  -4.3456
    -4.3412  -4.3336  -4.3217  -4.3157  -4.2832  -4.2643  -4.2606  -4.2553
    -4.2532  -4.2217  -4.1739  -4.1613  -4.1569  -4.1555  -4.1545  -4.1451
    -4.1425  -4.1393  -4.1277  -4.0885  -4.0749  -4.0248  -4.0165  -4.0143
    -3.9916  -3.9873  -3.9689  -3.9642  -3.9617  -3.9587  -3.9521  -3.9092
    -3.9028  -3.8992  -3.8941  -3.7962  -3.7892  -3.7843  -3.7813  -3.7658
    -3.7437  -3.7189  -3.6978  -3.6892  -3.6632  -3.6618  -3.6472  -3.6438
    -3.6396  -3.6280  -3.5775  -3.5731  -3.5638  -3.5380  -3.5347  -3.5278
    -3.5255  -3.5240  -3.5033  -3.4991  -3.4679  -3.4589  -3.4568  -3.4417
    -3.4148  -3.4059  -3.3967  -3.3655  -3.3611  -3.3282  -3.3228  -3.2925
    -3.2795  -3.2768  -3.2706  -3.2663  -3.2584  -3.2576  -3.2372  -3.2094
    -3.1792  -3.1722  -3.1646  -3.1576  -3.1527  -3.1509  -3.1330  -3.1291
    -3.1149  -3.1094  -3.1039  -3.0823  -3.0805  -3.0759  -3.0718  -3.0658
    -3.0356  -3.0316  -3.0034  -2.9969  -2.9931  -2.9894  -2.9869  -2.9157
    -2.9117  -2.9040  -2.8996  -2.8950  -2.8927  -2.8917  -2.8860  -2.8856
    -2.8840  -2.8764  -2.8713  -2.8674  -2.8531  -2.8491  -2.8460  -2.8378
    -2.8355  -2.8056  -2.7976  -2.7922  -2.7890  -2.7847  -2.7744  -2.7671
    -2.7646  -2.7615  -2.7546  -2.7286  -2.7039  -2.6991  -2.6938  -2.6886
    -2.6844  -2.6662  -2.6299  -2.6075  -2.6006  -2.5946  -2.5900  -2.5854
    -2.5827  -2.5717  -2.5696  -2.5595  -2.5428  -2.5327  -2.5267  -2.5229
    -2.5189  -2.4905  -2.4857  -2.4806  -2.4735  -2.4704  -2.4672  -2.4520
    -2.4203  -2.4062  -2.3725  -2.3597  -2.3489  -2.3400  -2.3324  -2.3271
    -2.3042  -2.2798  -2.2745  -2.2584  -2.2410  -2.2284  -2.2198  -2.2090
    -2.2047  -2.1958  -2.1820  -2.1756  -2.1582  -2.1400  -2.1268  -2.1181
    -2.1154  -2.1133  -2.1088  -2.0964  -2.0932  -2.0911  -2.0882  -2.0825
    -2.0802  -2.0773  -2.0741  -2.0586  -2.0536  -2.0497  -2.0479  -2.0423
    -2.0388  -2.0259  -2.0200  -2.0083  -2.0059  -2.0008  -1.9950  -1.9707
    -1.9604  -1.9269  -1.9256  -1.8935  -1.8802  -1.8753  -1.8642  -1.8535
    -1.8418  -1.8375  -1.8317  -1.8264  -1.8213  -1.8192  -1.8161  -1.7872
    -1.7850  -1.7836  -1.7482  -1.7420  -1.7273  -1.7103  -1.6863  -1.6556
    -1.6478  -1.6374  -1.6232  -1.6158  -1.6087  -1.6045  -1.5903  -1.5815
    -1.5778  -1.5736  -1.5722  -1.5683  -1.5666  -1.5635  -1.5557  -1.5501
    -1.5377  -1.5239  -1.5183  -1.5063  -1.4948  -1.4784  -1.4728  -1.4679
    -1.4663  -1.4629  -1.4559  -1.4507  -1.4274  -1.4243  -1.4140  -1.4084
    -1.3927  -1.3874  -1.3724  -1.3652  -1.3571  -1.3537  -1.3320  -1.3196
    -1.3077  -1.3039  -1.3017  -1.2993  -1.2854  -1.2759  -1.2726  -1.2682
    -1.2588  -1.2518  -1.2486  -1.2413  -1.2403  -1.2300  -1.2269  -1.2189
    -1.2102  -1.2081  -1.2032  -1.1970  -1.1927  -1.1855  -1.1629  -1.1496
    -1.1416  -1.1395  -1.1366  -1.1317  -1.1226  -1.1024  -1.0810  -1.0770
    -1.0759  -1.0741  -1.0725  -1.0676  -1.0560  -1.0523  -1.0292  -1.0190
    -1.0118  -1.0086  -1.0018  -0.9887  -0.9867  -0.9765  -0.9530  -0.9383
    -0.9202  -0.9108  -0.8878  -0.8855  -0.8817  -0.8792  -0.8753  -0.8716
    -0.8694  -0.8692  -0.8641  -0.8568  -0.8343  -0.8318  -0.8152  -0.8135
    -0.8075  -0.8063  -0.8037  -0.7882  -0.7487  -0.5279  -0.4977  -0.4428
    -0.4184  -0.4027  -0.2402  -0.1823  -0.1799  -0.1260   0.1374   0.1531
     0.4693   0.4836   0.5637   0.5722   0.6072   0.6145   0.7557   0.7718
     0.8722   0.8814   0.9793   1.5633   1.5783   1.5870   1.6189   1.6275
     1.6733   1.6935   1.7494   1.7649   1.9528   1.9645   2.1993   2.2724
     2.2824   2.2916   2.6704   2.6764   2.7378   2.7449   2.7533   2.7560
     2.8990   2.9048   2.9556   3.0466   3.0554   3.2776   3.2866   3.4099
     3.4312   3.4463   3.7085   3.7160   3.8243   3.8410   3.8466   3.9165
     3.9289   4.0226   4.0326   4.2530   4.2707   4.3571   4.3645   4.4716
     4.4862   4.5033   4.5112   4.6700   5.2916   5.3106   5.3750   5.4036
     5.4185   5.5780   5.5933   5.6407   5.6673   5.7007   5.7091   5.7320
     5.7360   5.7494   5.7651   5.8070   6.0349   6.0697   6.0802   6.0856
     6.1010   6.1063   6.1160   6.1278   6.1621   6.1663   6.1847   6.1972

          k =-0.2500 0.2500 0.2500 (167588 PWs)   bands (ev):

   -20.0768  -8.1332  -6.8622  -6.3363  -6.3303  -5.9058  -5.5107  -5.4092
    -5.3992  -5.2068  -5.2050  -5.1274  -5.0854  -5.0100  -5.0014  -4.9229
    -4.8421  -4.8247  -4.8006  -4.7840  -4.7322  -4.6296  -4.6079  -4.6048
    -4.5991  -4.5966  -4.5449  -4.5386  -4.5300  -4.5241  -4.4945  -4.4807
    -4.4606  -4.4394  -4.4311  -4.4062  -4.3977  -4.3671  -4.3514  -4.3456
    -4.3412  -4.3336  -4.3217  -4.3157  -4.2832  -4.2643  -4.2606  -4.2553
    -4.2532  -4.2217  -4.1739  -4.1613  -4.1569  -4.1555  -4.1545  -4.1451
    -4.1425  -4.1393  -4.1277  -4.0885  -4.0749  -4.0248  -4.0165  -4.0143
    -3.9916  -3.9873  -3.9689  -3.9642  -3.9617  -3.9587  -3.9521  -3.9092
    -3.9028  -3.8992  -3.8941  -3.7963  -3.7892  -3.7843  -3.7813  -3.7658
    -3.7437  -3.7189  -3.6978  -3.6892  -3.6632  -3.6618  -3.6472  -3.6438
    -3.6396  -3.6280  -3.5775  -3.5731  -3.5638  -3.5380  -3.5347  -3.5278
    -3.5255  -3.5240  -3.5033  -3.4991  -3.4679  -3.4589  -3.4568  -3.4417
    -3.4148  -3.4059  -3.3967  -3.3655  -3.3611  -3.3282  -3.3228  -3.2925
    -3.2795  -3.2768  -3.2706  -3.2663  -3.2584  -3.2576  -3.2372  -3.2094
    -3.1792  -3.1722  -3.1646  -3.1576  -3.1527  -3.1508  -3.1330  -3.1291
    -3.1149  -3.1094  -3.1039  -3.0823  -3.0805  -3.0759  -3.0718  -3.0658
    -3.0356  -3.0316  -3.0034  -2.9969  -2.9931  -2.9894  -2.9869  -2.9157
    -2.9117  -2.9040  -2.8996  -2.8950  -2.8927  -2.8917  -2.8860  -2.8856
    -2.8840  -2.8764  -2.8713  -2.8674  -2.8531  -2.8491  -2.8460  -2.8378
    -2.8355  -2.8056  -2.7976  -2.7922  -2.7890  -2.7847  -2.7744  -2.7671
    -2.7646  -2.7615  -2.7546  -2.7286  -2.7039  -2.6991  -2.6938  -2.6886
    -2.6844  -2.6662  -2.6299  -2.6075  -2.6006  -2.5946  -2.5900  -2.5854
    -2.5827  -2.5717  -2.5696  -2.5595  -2.5428  -2.5327  -2.5267  -2.5229
    -2.5189  -2.4905  -2.4857  -2.4806  -2.4735  -2.4704  -2.4672  -2.4520
    -2.4203  -2.4062  -2.3725  -2.3597  -2.3488  -2.3400  -2.3324  -2.3271
    -2.3042  -2.2798  -2.2745  -2.2584  -2.2410  -2.2284  -2.2198  -2.2090
    -2.2047  -2.1958  -2.1820  -2.1756  -2.1582  -2.1400  -2.1268  -2.1181
    -2.1154  -2.1133  -2.1088  -2.0964  -2.0932  -2.0911  -2.0882  -2.0825
    -2.0802  -2.0773  -2.0741  -2.0586  -2.0536  -2.0497  -2.0479  -2.0423
    -2.0388  -2.0259  -2.0200  -2.0083  -2.0059  -2.0008  -1.9950  -1.9707
    -1.9605  -1.9269  -1.9256  -1.8935  -1.8802  -1.8753  -1.8642  -1.8535
    -1.8418  -1.8375  -1.8317  -1.8264  -1.8213  -1.8192  -1.8161  -1.7872
    -1.7850  -1.7836  -1.7482  -1.7420  -1.7273  -1.7103  -1.6863  -1.6556
    -1.6479  -1.6375  -1.6232  -1.6158  -1.6087  -1.6045  -1.5904  -1.5815
    -1.5778  -1.5736  -1.5722  -1.5683  -1.5666  -1.5635  -1.5557  -1.5501
    -1.5377  -1.5239  -1.5183  -1.5063  -1.4948  -1.4784  -1.4728  -1.4679
    -1.4663  -1.4629  -1.4559  -1.4507  -1.4274  -1.4243  -1.4140  -1.4084
    -1.3927  -1.3874  -1.3724  -1.3652  -1.3571  -1.3537  -1.3320  -1.3196
    -1.3077  -1.3039  -1.3017  -1.2993  -1.2854  -1.2758  -1.2726  -1.2682
    -1.2588  -1.2518  -1.2486  -1.2413  -1.2403  -1.2300  -1.2269  -1.2189
    -1.2102  -1.2081  -1.2032  -1.1970  -1.1927  -1.1855  -1.1629  -1.1496
    -1.1416  -1.1395  -1.1366  -1.1317  -1.1226  -1.1024  -1.0810  -1.0770
    -1.0758  -1.0741  -1.0725  -1.0675  -1.0560  -1.0523  -1.0292  -1.0190
    -1.0118  -1.0086  -1.0018  -0.9887  -0.9867  -0.9765  -0.9530  -0.9383
    -0.9202  -0.9108  -0.8878  -0.8855  -0.8818  -0.8792  -0.8753  -0.8716
    -0.8693  -0.8692  -0.8641  -0.8568  -0.8343  -0.8318  -0.8152  -0.8135
    -0.8075  -0.8063  -0.8037  -0.7882  -0.7487  -0.5279  -0.4977  -0.4428
    -0.4184  -0.4027  -0.2402  -0.1823  -0.1799  -0.1260   0.1374   0.1531
     0.4693   0.4836   0.5637   0.5722   0.6072   0.6145   0.7557   0.7718
     0.8722   0.8815   0.9793   1.5633   1.5783   1.5870   1.6189   1.6275
     1.6733   1.6935   1.7494   1.7649   1.9528   1.9646   2.1993   2.2724
     2.2824   2.2916   2.6704   2.6764   2.7378   2.7449   2.7533   2.7560
     2.8990   2.9048   2.9556   3.0466   3.0554   3.2776   3.2866   3.4099
     3.4312   3.4463   3.7085   3.7160   3.8243   3.8410   3.8466   3.9166
     3.9289   4.0226   4.0326   4.2530   4.2707   4.3571   4.3645   4.4716
     4.4862   4.5033   4.5112   4.6701   5.2893   5.3107   5.3514   5.4035
     5.4185   5.5778   5.5932   5.6415   5.6941   5.7055   5.7145   5.7199
     5.7482   5.7616   5.7794   5.8068   6.0347   6.0700   6.0807   6.0858
     6.1010   6.1064   6.1160   6.1256   6.1376   6.1811   6.1932   6.2846

     the Fermi energy is     0.8321 ev

!    total energy              =   -7425.22617719 Ry
     Harris-Foulkes estimate   =   -7425.22617721 Ry
     estimated scf accuracy    <          6.5E-09 Ry

     The total energy is the sum of the following terms:

     one-electron contribution =  -49004.46956932 Ry
     hartree contribution      =   25051.74758256 Ry
     xc contribution           =   -3604.34802716 Ry
     ewald contribution        =   20131.84624572 Ry
     smearing contrib. (-TS)   =      -0.00240900 Ry

     convergence has been achieved in  25 iterations

     Writing output data file 7959552.save

     init_run     :    111.43s CPU    120.16s WALL (       1 calls)
     electrons    :   6315.22s CPU   6737.42s WALL (       1 calls)

     Called by init_run:
     wfcinit      :     74.25s CPU     81.34s WALL (       1 calls)
     potinit      :      8.46s CPU      9.60s WALL (       1 calls)

     Called by electrons:
     c_bands      :   4706.36s CPU   5042.85s WALL (      26 calls)
     sum_band     :    992.93s CPU   1065.17s WALL (      26 calls)
     v_of_rho     :    118.80s CPU    127.89s WALL (      26 calls)
     newd         :    514.93s CPU    519.73s WALL (      26 calls)
     mix_rho      :      3.43s CPU      3.72s WALL (      26 calls)
     vdW_energy   :      8.59s CPU      9.15s WALL (      26 calls)
     vdW_ffts     :     62.35s CPU     67.19s WALL (      52 calls)
     vdW_v        :     15.48s CPU     16.18s WALL (      26 calls)

     Called by c_bands:
     init_us_2    :     19.15s CPU     19.44s WALL (     318 calls)
     cegterg      :   4596.32s CPU   4931.96s WALL (     156 calls)

     Called by *egterg:
     h_psi        :   1995.52s CPU   2302.82s WALL (     746 calls)
     s_psi        :    227.90s CPU    229.41s WALL (     746 calls)
     g_psi        :      4.75s CPU      4.76s WALL (     584 calls)
     cdiaghg      :   1110.71s CPU   1114.42s WALL (     734 calls)

     Called by h_psi:
     add_vuspsi   :    226.84s CPU    228.31s WALL (     746 calls)

     General routines
     calbec       :    517.69s CPU    525.07s WALL (     902 calls)
     fft          :    356.50s CPU    365.60s WALL (    1716 calls)
     ffts         :      1.82s CPU      2.04s WALL (      52 calls)
     fftw         :   1278.09s CPU   1553.40s WALL (  426008 calls)
     interpolate  :      4.66s CPU      5.19s WALL (      52 calls)
     davcio       :      0.01s CPU      0.13s WALL (       6 calls)

     Parallel routines
     fft_scatter  :   1113.82s CPU   1310.54s WALL (  427776 calls)

     PWSCF        :     1h47m CPU        1h54m WALL


   This run was terminated on:  23:52:16   1Jul2015            

=------------------------------------------------------------------------------=
   JOB DONE.
=------------------------------------------------------------------------------=
