
     Program PWSCF v.5.1.2 starts on 24Aug2015 at 11: 3:34 

     This program is part of the open-source Quantum ESPRESSO suite
     for quantum simulation of materials; please cite
         "P. Giannozzi et al., J. Phys.:Condens. Matter 21 395502 (2009);
          URL http://www.quantum-espresso.org", 
     in publications or presentations arising from this work. More details at
     http://www.quantum-espresso.org/quote

     Parallel version (MPI), running on    32 processors
     R & G space division:  proc/nbgrp/npool/nimage =      32
     Reading input from bridge.O1.Au6165.d.2.7.phi.0.psi.0.in
Warning: card &IONS ignored
Warning: card / ignored
Warning: card &CELL ignored
Warning: card / ignored

     Current dimensions of program PWSCF are:
     Max number of different atomic species (ntypx) = 10
     Max number of k-points (npk) =  40000
     Max angular momentum in pseudopotentials (lmaxx) =  3

     IMPORTANT: XC functional enforced from input :
     Exchange-correlation      = VDW-DF ( 1  4  4  0 1 0)
     Any further DFT definition will be discarded
     Please, verify this is what you really want


     Subspace diagonalization in iterative solution of the eigenvalue problem:
     a serial algorithm will be used


     Parallelization info
     --------------------
     sticks:   dense  smooth     PW     G-vecs:    dense   smooth      PW
     Min         578     289     74               118518    41891    5486
     Max         579     290     75               118533    41932    5497
     Sum       18505    9265   2385              3792731  1341081  175711


     Title: 
     bridge.O1.Au6165.d.2.7.phi.0.psi.0                                         


     bravais-lattice index     =            8
     lattice parameter (alat)  =      24.1233  a.u.
     unit-cell volume          =   28076.2361 (a.u.)^3
     number of atoms/cell      =           75
     number of atomic types    =            3
     number of electrons       =       800.00
     number of Kohn-Sham states=          480
     kinetic-energy cutoff     =      50.0000  Ry
     charge density cutoff     =     400.0000  Ry
     convergence threshold     =      1.0E-08
     mixing beta               =       0.7000
     number of iterations used =            8  plain     mixing
     Exchange-correlation      = VDW-DF ( 1  4  4  0 1 0)

     celldm(1)=  24.123277  celldm(2)=   1.000000  celldm(3)=   2.000000
     celldm(4)=   0.000000  celldm(5)=   0.000000  celldm(6)=   0.000000

     crystal axes: (cart. coord. in units of alat)
               a(1) = (   1.000000   0.000000   0.000000 )  
               a(2) = (   0.000000   1.000000   0.000000 )  
               a(3) = (   0.000000   0.000000   2.000000 )  

     reciprocal axes: (cart. coord. in units 2 pi/alat)
               b(1) = (  1.000000  0.000000  0.000000 )  
               b(2) = (  0.000000  1.000000  0.000000 )  
               b(3) = (  0.000000  0.000000  0.500000 )  


     PseudoPot. # 1 for Au read from file:
     /home/scc/andrejb/qe/pseudo/Au.pbe-nd-van.UPF
     MD5 check sum: 458681b50f36d87ef23c61b04bba420a
     Pseudo is Ultrasoft + core correction, Zval = 11.0
     Generated by new atomic code, or converted to UPF format
     Using radial grid of  985 points,  3 beta functions with: 
                l(1) =   1
                l(2) =   2
                l(3) =   2
     Q(r) pseudized with  8 coefficients,  rinner =    1.100   1.100   1.100
                                                       1.100   1.100

     PseudoPot. # 2 for H  read from file:
     /home/scc/andrejb/qe/pseudo/H.pbe-van_ak.UPF
     MD5 check sum: 403db7282739603aa925980fa9b8608d
     Pseudo is Ultrasoft, Zval =  1.0
     Generated by new atomic code, or converted to UPF format
     Using radial grid of  615 points,  1 beta functions with: 
                l(1) =   0
     Q(r) pseudized with  8 coefficients,  rinner =    0.800

     PseudoPot. # 3 for O  read from file:
     /home/scc/andrejb/qe/pseudo/O.pbe-van_ak.UPF
     MD5 check sum: 4b8c549914a63cae506c6ff22b5af4fe
     Pseudo is Ultrasoft, Zval =  6.0
     Generated by new atomic code, or converted to UPF format
     Using radial grid of  737 points,  4 beta functions with: 
                l(1) =   0
                l(2) =   0
                l(3) =   1
                l(4) =   1
     Q(r) pseudized with  8 coefficients,  rinner =    0.800   0.800   0.800


     vdW kernel table read from file vdW_kernel_table
     MD5 check sum: 48e77a2e26edf626eeb0eaa751ad5cac

     atomic species   valence    mass     pseudopotential
        Au            11.00   196.96657     Au( 1.00)
        H              1.00     1.01000     H ( 1.00)
        O              6.00    16.00000     O ( 1.00)

     No symmetry found



   Cartesian axes

     site n.     atom                  positions (alat units)
         1           O   tau(   1) = (   0.2499161   0.4165269   0.7108263  )
         2           H   tau(   2) = (   0.2028385   0.3773554   0.7563202  )
         3           H   tau(   3) = (   0.2955663   0.4545286   0.7586839  )
         4           Au  tau(   4) = (   0.0000000   0.0000000   0.0000000  )
         5           Au  tau(   5) = (   0.3332217   0.0000000   0.0000000  )
         6           Au  tau(   6) = (   0.6664434   0.0000000   0.0000000  )
         7           Au  tau(   7) = (   0.1666109   0.1666109   0.0000000  )
         8           Au  tau(   8) = (   0.4998326   0.1666109   0.0000000  )
         9           Au  tau(   9) = (   0.8330542   0.1666109   0.0000000  )
        10           Au  tau(  10) = (   0.0000000   0.3332217   0.0000000  )
        11           Au  tau(  11) = (   0.3332217   0.3332217   0.0000000  )
        12           Au  tau(  12) = (   0.6664434   0.3332217   0.0000000  )
        13           Au  tau(  13) = (   0.1666109   0.4998326   0.0000000  )
        14           Au  tau(  14) = (   0.4998326   0.4998326   0.0000000  )
        15           Au  tau(  15) = (   0.8330542   0.4998326   0.0000000  )
        16           Au  tau(  16) = (   0.0000000   0.6664434   0.0000000  )
        17           Au  tau(  17) = (   0.3332217   0.6664434   0.0000000  )
        18           Au  tau(  18) = (   0.6664434   0.6664434   0.0000000  )
        19           Au  tau(  19) = (   0.1666109   0.8330542   0.0000000  )
        20           Au  tau(  20) = (   0.4998326   0.8330542   0.0000000  )
        21           Au  tau(  21) = (   0.8330542   0.8330542   0.0000000  )
        22           Au  tau(  22) = (   0.1666109   0.0000000   0.1666109  )
        23           Au  tau(  23) = (   0.4998326   0.0000000   0.1666109  )
        24           Au  tau(  24) = (   0.8330542   0.0000000   0.1666109  )
        25           Au  tau(  25) = (   0.0000000   0.1666109   0.1666109  )
        26           Au  tau(  26) = (   0.3332217   0.1666109   0.1666109  )
        27           Au  tau(  27) = (   0.6664434   0.1666109   0.1666109  )
        28           Au  tau(  28) = (   0.1666109   0.3332217   0.1666109  )
        29           Au  tau(  29) = (   0.4998326   0.3332217   0.1666109  )
        30           Au  tau(  30) = (   0.8330542   0.3332217   0.1666109  )
        31           Au  tau(  31) = (   0.0000000   0.4998326   0.1666109  )
        32           Au  tau(  32) = (   0.3332217   0.4998326   0.1666109  )
        33           Au  tau(  33) = (   0.6664434   0.4998326   0.1666109  )
        34           Au  tau(  34) = (   0.1666109   0.6664434   0.1666109  )
        35           Au  tau(  35) = (   0.4998326   0.6664434   0.1666109  )
        36           Au  tau(  36) = (   0.8330542   0.6664434   0.1666109  )
        37           Au  tau(  37) = (   0.0000000   0.8330542   0.1666109  )
        38           Au  tau(  38) = (   0.3332217   0.8330542   0.1666109  )
        39           Au  tau(  39) = (   0.6664434   0.8330542   0.1666109  )
        40           Au  tau(  40) = (  -0.0000182  -0.0000182   0.3335478  )
        41           Au  tau(  41) = (   0.3332215  -0.0000181   0.3335473  )
        42           Au  tau(  42) = (   0.6664447  -0.0000183   0.3335481  )
        43           Au  tau(  43) = (  -0.0000181   0.3332215   0.3335473  )
        44           Au  tau(  44) = (   0.3332215   0.3332215   0.3335468  )
        45           Au  tau(  45) = (   0.6664445   0.3332215   0.3335477  )
        46           Au  tau(  46) = (  -0.0000183   0.6664447   0.3335481  )
        47           Au  tau(  47) = (   0.3332215   0.6664445   0.3335477  )
        48           Au  tau(  48) = (   0.6664446   0.6664446   0.3335486  )
        49           Au  tau(  49) = (   0.1666097   0.1666097   0.3335483  )
        50           Au  tau(  50) = (   0.4998320   0.1666098   0.3335477  )
        51           Au  tau(  51) = (   0.8330732   0.1666096   0.3335480  )
        52           Au  tau(  52) = (   0.1666098   0.4998320   0.3335477  )
        53           Au  tau(  53) = (   0.4998322   0.4998322   0.3335470  )
        54           Au  tau(  54) = (   0.8330731   0.4998322   0.3335474  )
        55           Au  tau(  55) = (   0.1666096   0.8330732   0.3335480  )
        56           Au  tau(  56) = (   0.4998322   0.8330731   0.3335474  )
        57           Au  tau(  57) = (   0.8330731   0.8330731   0.3335478  )
        58           Au  tau(  58) = (   0.1666104  -0.0000111   0.4993095  )
        59           Au  tau(  59) = (   0.4998323  -0.0000112   0.4993099  )
        60           Au  tau(  60) = (   0.8330660  -0.0000111   0.4993009  )
        61           Au  tau(  61) = (  -0.0000111   0.1666104   0.4993095  )
        62           Au  tau(  62) = (   0.3332213   0.1666106   0.4993185  )
        63           Au  tau(  63) = (   0.6664437   0.1666106   0.4993187  )
        64           Au  tau(  64) = (   0.1666106   0.3332213   0.4993185  )
        65           Au  tau(  65) = (   0.4998324   0.3332216   0.4993185  )
        66           Au  tau(  66) = (   0.8330658   0.3332215   0.4993102  )
        67           Au  tau(  67) = (  -0.0000112   0.4998323   0.4993099  )
        68           Au  tau(  68) = (   0.3332216   0.4998324   0.4993185  )
        69           Au  tau(  69) = (   0.6664437   0.4998325   0.4993187  )
        70           Au  tau(  70) = (   0.1666106   0.6664437   0.4993187  )
        71           Au  tau(  71) = (   0.4998325   0.6664437   0.4993187  )
        72           Au  tau(  72) = (   0.8330658   0.6664438   0.4993102  )
        73           Au  tau(  73) = (  -0.0000111   0.8330660   0.4993009  )
        74           Au  tau(  74) = (   0.3332215   0.8330658   0.4993102  )
        75           Au  tau(  75) = (   0.6664438   0.8330658   0.4993102  )

     number of k points=     6  Marzari-Vanderbilt smearing, width (Ry)=  0.0200
                       cart. coord. in units 2pi/alat
        k(    1) = (   0.2500000   0.2500000   0.0833333), wk =   0.3333333
        k(    2) = (   0.2500000   0.2500000  -0.2500000), wk =   0.3333333
        k(    3) = (  -0.2500000  -0.2500000   0.0833333), wk =   0.3333333
        k(    4) = (  -0.2500000   0.2500000  -0.0833333), wk =   0.3333333
        k(    5) = (   0.2500000  -0.2500000  -0.0833333), wk =   0.3333333
        k(    6) = (  -0.2500000   0.2500000   0.2500000), wk =   0.3333333

     Dense  grid:  3792731 G-vectors     FFT dimensions: ( 160, 160, 320)

     Smooth grid:  1341081 G-vectors     FFT dimensions: ( 120, 120, 225)

     Largest allocated arrays     est. size (Mb)     dimensions
        Kohn-Sham Wavefunctions        38.58 Mb     (    5267,  480)
        NL pseudopotentials            76.03 Mb     (    5267,  946)
        Each V/rho on FFT grid          3.91 Mb     (  256000)
        Each G-vector array             0.90 Mb     (  118520)
        G-vector shells                 0.08 Mb     (   10286)
     Largest temporary arrays     est. size (Mb)     dimensions
        Auxiliary wavefunctions       154.31 Mb     (    5267, 1920)
        Each subspace H/S matrix       56.25 Mb     (    1920, 1920)
        Each <psi_i|beta_j> matrix      6.93 Mb     (     946,  480)
        Arrays for rho mixing          31.25 Mb     (  256000,    8)

     Initial potential from superposition of free atoms
     Check: negative starting charge=   -1.945101

     starting charge  799.16392, renormalised to  800.00000

     negative rho (up, down):  1.947E+00 0.000E+00


     ************************************************************************
     *
     * You are using vdW-DF for exchange-correlation in this calculation.
     * Please cite the following three references that made this development
     * possible:
     *
     *   M. Dion, H. Rydberg, E. Schroder, D. C. Langreth, and
     *   B. I. Lundqvist, Phys. Rev. Lett. 92, 246401 (2004).
     *
     *   T. Thonhauser, V. R. Cooper, S. Li, A. Puzder, P. Hyldgaard, and
     *   D. C. Langreth, Phys. Rev. B 76, 125112 (2007).
     *
     *   G. Roman-Perez and J. M. Soler, Phys. Rev. Lett. 103, 096102 (2009).
     *
     *
     * If you are using vdW-DF2, please also cite:
     *
     *   K. Lee, E. D. Murray, L. Kong, B. I. Lundqvist, and
     *   D. C. Langreth, Phys. Rev. B 82, 081101(R) (2010).
     *
     *
     * If you are calculating the stress with vdW-DF, please also cite:
     *
     *   R. Sabatini, E. Kucukbenli, B. Kolb, T. Thonhauser, and
     *   S. de Gironcoli, J. Phys.: Condens. Matter 24, 424209 (2012).
     *
     ************************************************************************

     Carrying out vdW-DF run using the following parameters:

     Nqs =      20    Nr_points =    1024   r_max =   100.000
     q_mesh =
               0.00001000     0.04494208     0.09755937     0.15916263
               0.23128650     0.31572767     0.41458969     0.53033537
               0.66584808     0.82450364     1.01025438     1.22772762
               1.48234092     1.78043706     2.12944203     2.53805004
               3.01644009     3.57652955     4.23227104     5.00000000

     Gradients computed in reciprocal space

     ************************************************************************


     Starting wfc are  654 randomized atomic wfcs

     total cpu time spent up to now is      135.9 secs

     Self-consistent Calculation

     iteration #  1     ecut=    50.00 Ry     beta=0.70
     Davidson diagonalization with overlap
     ethr =  1.00E-02,  avg # of iterations =  3.0

     Threshold (ethr) on eigenvalues was too large:
     Diagonalizing with lowered threshold

     Davidson diagonalization with overlap
     ethr =  4.30E-04,  avg # of iterations =  2.5

     negative rho (up, down):  1.947E+00 0.000E+00

     total cpu time spent up to now is      582.7 secs

     total energy              =   -7422.99240517 Ry
     Harris-Foulkes estimate   =   -7426.09035762 Ry
     estimated scf accuracy    <       3.82265349 Ry

     iteration #  2     ecut=    50.00 Ry     beta=0.70
     Davidson diagonalization with overlap
     ethr =  4.78E-04,  avg # of iterations = 11.3

     negative rho (up, down):  1.941E+00 0.000E+00

     total cpu time spent up to now is     1346.8 secs

     total energy              =   -7414.42034800 Ry
     Harris-Foulkes estimate   =   -7432.83759850 Ry
     estimated scf accuracy    <      97.99041368 Ry

     iteration #  3     ecut=    50.00 Ry     beta=0.70
     Davidson diagonalization with overlap
     ethr =  4.78E-04,  avg # of iterations =  6.0

     negative rho (up, down):  1.951E+00 0.000E+00

     total cpu time spent up to now is     1842.0 secs

     total energy              =   -7424.16333494 Ry
     Harris-Foulkes estimate   =   -7425.87017967 Ry
     estimated scf accuracy    <       7.02911132 Ry

     iteration #  4     ecut=    50.00 Ry     beta=0.70
     Davidson diagonalization with overlap
     ethr =  4.78E-04,  avg # of iterations =  6.5

     negative rho (up, down):  1.954E+00 0.000E+00

     total cpu time spent up to now is     2139.9 secs

     total energy              =   -7424.70964356 Ry
     Harris-Foulkes estimate   =   -7425.78167477 Ry
     estimated scf accuracy    <       7.27780090 Ry

     iteration #  5     ecut=    50.00 Ry     beta=0.70
     Davidson diagonalization with overlap
     ethr =  4.78E-04,  avg # of iterations =  6.7

     negative rho (up, down):  1.962E+00 0.000E+00

     total cpu time spent up to now is     2426.0 secs

     total energy              =   -7425.16866617 Ry
     Harris-Foulkes estimate   =   -7425.49028753 Ry
     estimated scf accuracy    <       2.12483907 Ry

     iteration #  6     ecut=    50.00 Ry     beta=0.70
     Davidson diagonalization with overlap
     ethr =  2.66E-04,  avg # of iterations =  4.0

     negative rho (up, down):  1.966E+00 0.000E+00

     total cpu time spent up to now is     2674.3 secs

     total energy              =   -7425.27772004 Ry
     Harris-Foulkes estimate   =   -7425.32638581 Ry
     estimated scf accuracy    <       0.16189151 Ry

     iteration #  7     ecut=    50.00 Ry     beta=0.70
     Davidson diagonalization with overlap
     ethr =  2.02E-05,  avg # of iterations = 12.2

     negative rho (up, down):  1.969E+00 0.000E+00

     total cpu time spent up to now is     3087.5 secs

     total energy              =   -7425.28114912 Ry
     Harris-Foulkes estimate   =   -7425.31617081 Ry
     estimated scf accuracy    <       0.15846480 Ry

     iteration #  8     ecut=    50.00 Ry     beta=0.70
     Davidson diagonalization with overlap
     ethr =  1.98E-05,  avg # of iterations =  3.0

     negative rho (up, down):  1.970E+00 0.000E+00

     total cpu time spent up to now is     3325.6 secs

     total energy              =   -7425.28347548 Ry
     Harris-Foulkes estimate   =   -7425.30541229 Ry
     estimated scf accuracy    <       0.09463691 Ry

     iteration #  9     ecut=    50.00 Ry     beta=0.70
     Davidson diagonalization with overlap
     ethr =  1.18E-05,  avg # of iterations =  9.8

     negative rho (up, down):  1.972E+00 0.000E+00

     total cpu time spent up to now is     3651.7 secs

     total energy              =   -7425.28792745 Ry
     Harris-Foulkes estimate   =   -7425.29771651 Ry
     estimated scf accuracy    <       0.03479567 Ry

     iteration # 10     ecut=    50.00 Ry     beta=0.70
     Davidson diagonalization with overlap
     ethr =  4.35E-06,  avg # of iterations =  8.2

     negative rho (up, down):  1.972E+00 0.000E+00

     total cpu time spent up to now is     3959.4 secs

     total energy              =   -7425.29069445 Ry
     Harris-Foulkes estimate   =   -7425.29329201 Ry
     estimated scf accuracy    <       0.00714660 Ry

     iteration # 11     ecut=    50.00 Ry     beta=0.70
     Davidson diagonalization with overlap
     ethr =  8.93E-07,  avg # of iterations = 10.8

     negative rho (up, down):  1.973E+00 0.000E+00

     total cpu time spent up to now is     4304.4 secs

     total energy              =   -7425.29154309 Ry
     Harris-Foulkes estimate   =   -7425.29229419 Ry
     estimated scf accuracy    <       0.00241212 Ry

     iteration # 12     ecut=    50.00 Ry     beta=0.70
     Davidson diagonalization with overlap
     ethr =  3.02E-07,  avg # of iterations =  2.0

     negative rho (up, down):  1.974E+00 0.000E+00

     total cpu time spent up to now is     4537.3 secs

     total energy              =   -7425.29153186 Ry
     Harris-Foulkes estimate   =   -7425.29196572 Ry
     estimated scf accuracy    <       0.00074594 Ry

     iteration # 13     ecut=    50.00 Ry     beta=0.70
     Davidson diagonalization with overlap
     ethr =  9.32E-08,  avg # of iterations =  7.8

     negative rho (up, down):  1.974E+00 0.000E+00

     total cpu time spent up to now is     4969.1 secs

     total energy              =   -7425.29121844 Ry
     Harris-Foulkes estimate   =   -7425.29238948 Ry
     estimated scf accuracy    <       0.00512177 Ry

     iteration # 14     ecut=    50.00 Ry     beta=0.70
     Davidson diagonalization with overlap
     ethr =  9.32E-08,  avg # of iterations =  3.0

     negative rho (up, down):  1.974E+00 0.000E+00

     total cpu time spent up to now is     5280.3 secs

     total energy              =   -7425.29174137 Ry
     Harris-Foulkes estimate   =   -7425.29181085 Ry
     estimated scf accuracy    <       0.00024366 Ry

     iteration # 15     ecut=    50.00 Ry     beta=0.70
     Davidson diagonalization with overlap
     ethr =  3.05E-08,  avg # of iterations =  2.8

     negative rho (up, down):  1.974E+00 0.000E+00

     total cpu time spent up to now is     5520.1 secs

     total energy              =   -7425.29175725 Ry
     Harris-Foulkes estimate   =   -7425.29181464 Ry
     estimated scf accuracy    <       0.00029238 Ry

     iteration # 16     ecut=    50.00 Ry     beta=0.70
     Davidson diagonalization with overlap
     ethr =  3.05E-08,  avg # of iterations =  2.0

     negative rho (up, down):  1.974E+00 0.000E+00

     total cpu time spent up to now is     5747.0 secs

     total energy              =   -7425.29175125 Ry
     Harris-Foulkes estimate   =   -7425.29183009 Ry
     estimated scf accuracy    <       0.00067160 Ry

     iteration # 17     ecut=    50.00 Ry     beta=0.70
     Davidson diagonalization with overlap
     ethr =  3.05E-08,  avg # of iterations =  1.0

     negative rho (up, down):  1.974E+00 0.000E+00

     total cpu time spent up to now is     5952.0 secs

     total energy              =   -7425.29178883 Ry
     Harris-Foulkes estimate   =   -7425.29179193 Ry
     estimated scf accuracy    <       0.00000902 Ry

     iteration # 18     ecut=    50.00 Ry     beta=0.70
     Davidson diagonalization with overlap
     ethr =  1.13E-09,  avg # of iterations =  3.0

     negative rho (up, down):  1.974E+00 0.000E+00

     total cpu time spent up to now is     6223.1 secs

     total energy              =   -7425.29179006 Ry
     Harris-Foulkes estimate   =   -7425.29179168 Ry
     estimated scf accuracy    <       0.00000597 Ry

     iteration # 19     ecut=    50.00 Ry     beta=0.70
     Davidson diagonalization with overlap
     ethr =  7.46E-10,  avg # of iterations =  2.0

     negative rho (up, down):  1.974E+00 0.000E+00

     total cpu time spent up to now is     6445.2 secs

     total energy              =   -7425.29179033 Ry
     Harris-Foulkes estimate   =   -7425.29179159 Ry
     estimated scf accuracy    <       0.00000659 Ry

     iteration # 20     ecut=    50.00 Ry     beta=0.70
     Davidson diagonalization with overlap
     ethr =  7.46E-10,  avg # of iterations =  2.0

     negative rho (up, down):  1.974E+00 0.000E+00

     total cpu time spent up to now is     6666.7 secs

     total energy              =   -7425.29179098 Ry
     Harris-Foulkes estimate   =   -7425.29179103 Ry
     estimated scf accuracy    <       0.00000027 Ry

     iteration # 21     ecut=    50.00 Ry     beta=0.70
     Davidson diagonalization with overlap
     ethr =  3.35E-11,  avg # of iterations =  3.0

     negative rho (up, down):  1.974E+00 0.000E+00

     total cpu time spent up to now is     6945.0 secs

     total energy              =   -7425.29179103 Ry
     Harris-Foulkes estimate   =   -7425.29179107 Ry
     estimated scf accuracy    <       0.00000019 Ry

     iteration # 22     ecut=    50.00 Ry     beta=0.70
     Davidson diagonalization with overlap
     ethr =  2.36E-11,  avg # of iterations =  2.0

     negative rho (up, down):  1.974E+00 0.000E+00

     total cpu time spent up to now is     7169.0 secs

     total energy              =   -7425.29179106 Ry
     Harris-Foulkes estimate   =   -7425.29179107 Ry
     estimated scf accuracy    <       0.00000006 Ry

     iteration # 23     ecut=    50.00 Ry     beta=0.70
     Davidson diagonalization with overlap
     ethr =  7.09E-12,  avg # of iterations =  3.0

     negative rho (up, down):  1.974E+00 0.000E+00

     total cpu time spent up to now is     7404.1 secs

     total energy              =   -7425.29179107 Ry
     Harris-Foulkes estimate   =   -7425.29179107 Ry
     estimated scf accuracy    <       0.00000002 Ry

     iteration # 24     ecut=    50.00 Ry     beta=0.70
     Davidson diagonalization with overlap
     ethr =  1.89E-12,  avg # of iterations =  2.3

     negative rho (up, down):  1.974E+00 0.000E+00

     total cpu time spent up to now is     7682.2 secs

     total energy              =   -7425.29179107 Ry
     Harris-Foulkes estimate   =   -7425.29179107 Ry
     estimated scf accuracy    <       0.00000003 Ry

     iteration # 25     ecut=    50.00 Ry     beta=0.70
     Davidson diagonalization with overlap
     ethr =  1.89E-12,  avg # of iterations =  2.0

     negative rho (up, down):  1.974E+00 0.000E+00

     total cpu time spent up to now is     7907.6 secs

     End of self-consistent calculation

          k = 0.2500 0.2500 0.0833 (167653 PWs)   bands (ev):

   -19.9234  -7.7422  -6.7134  -6.1852  -6.1844  -5.7549  -5.3495  -5.2533
    -5.2523  -5.0571  -5.0565  -4.9467  -4.9401  -4.8604  -4.8388  -4.7641
    -4.6791  -4.6768  -4.6413  -4.6366  -4.4796  -4.4600  -4.4583  -4.4578
    -4.4508  -4.3996  -4.3950  -4.3836  -4.3824  -4.3558  -4.3439  -4.3344
    -4.2919  -4.2912  -4.2846  -4.2565  -4.2529  -4.2053  -4.2002  -4.1923
    -4.1871  -4.1771  -4.1739  -4.1687  -4.1286  -4.1141  -4.1139  -4.1078
    -4.1048  -4.0722  -4.0263  -4.0108  -4.0096  -4.0069  -3.9995  -3.9931
    -3.9928  -3.9923  -3.9867  -3.9287  -3.9146  -3.8782  -3.8770  -3.8637
    -3.8392  -3.8359  -3.8166  -3.8160  -3.8123  -3.8114  -3.8056  -3.7598
    -3.7592  -3.7471  -3.7457  -3.6423  -3.6395  -3.6359  -3.6279  -3.5974
    -3.5898  -3.5749  -3.5447  -3.5436  -3.5163  -3.5143  -3.4943  -3.4927
    -3.4811  -3.4798  -3.4255  -3.4242  -3.4079  -3.3912  -3.3805  -3.3783
    -3.3779  -3.3756  -3.3501  -3.3479  -3.3138  -3.3118  -3.2915  -3.2894
    -3.2587  -3.2569  -3.2393  -3.2126  -3.2118  -3.1747  -3.1743  -3.1379
    -3.1309  -3.1303  -3.1171  -3.1140  -3.1113  -3.1098  -3.0737  -3.0628
    -3.0222  -3.0218  -3.0136  -3.0045  -3.0036  -3.0021  -2.9784  -2.9780
    -2.9572  -2.9565  -2.9559  -2.9294  -2.9285  -2.9214  -2.9194  -2.9175
    -2.8830  -2.8784  -2.8434  -2.8428  -2.8418  -2.8395  -2.8386  -2.7594
    -2.7495  -2.7460  -2.7443  -2.7439  -2.7435  -2.7393  -2.7388  -2.7383
    -2.7383  -2.7284  -2.7206  -2.7043  -2.7020  -2.7008  -2.6988  -2.6852
    -2.6827  -2.6430  -2.6423  -2.6420  -2.6386  -2.6351  -2.6197  -2.6187
    -2.6111  -2.6102  -2.6077  -2.5500  -2.5484  -2.5434  -2.5422  -2.5409
    -2.5375  -2.5085  -2.4507  -2.4501  -2.4494  -2.4472  -2.4364  -2.4357
    -2.4293  -2.4189  -2.4184  -2.3821  -2.3792  -2.3736  -2.3731  -2.3719
    -2.3698  -2.3324  -2.3318  -2.3218  -2.3211  -2.3207  -2.3195  -2.2766
    -2.2626  -2.2533  -2.2033  -2.2024  -2.1852  -2.1840  -2.1797  -2.1738
    -2.1305  -2.1251  -2.1050  -2.0870  -2.0832  -2.0744  -2.0742  -2.0567
    -2.0509  -2.0422  -2.0255  -2.0128  -1.9841  -1.9785  -1.9706  -1.9692
    -1.9676  -1.9587  -1.9488  -1.9440  -1.9415  -1.9401  -1.9368  -1.9350
    -1.9326  -1.9307  -1.9209  -1.9174  -1.9026  -1.9009  -1.8974  -1.8924
    -1.8913  -1.8799  -1.8675  -1.8656  -1.8561  -1.8536  -1.8463  -1.8454
    -1.8103  -1.7777  -1.7765  -1.7413  -1.7246  -1.7236  -1.7127  -1.7092
    -1.6902  -1.6860  -1.6753  -1.6739  -1.6734  -1.6728  -1.6690  -1.6533
    -1.6369  -1.6367  -1.6360  -1.5917  -1.5900  -1.5510  -1.5493  -1.5032
    -1.5028  -1.4907  -1.4684  -1.4639  -1.4611  -1.4441  -1.4421  -1.4258
    -1.4256  -1.4211  -1.4207  -1.4197  -1.4192  -1.4136  -1.4119  -1.3948
    -1.3938  -1.3821  -1.3674  -1.3488  -1.3484  -1.3225  -1.3224  -1.3199
    -1.3194  -1.3155  -1.3090  -1.2900  -1.2893  -1.2760  -1.2712  -1.2579
    -1.2527  -1.2392  -1.2386  -1.2079  -1.2079  -1.1997  -1.1966  -1.1638
    -1.1619  -1.1556  -1.1533  -1.1476  -1.1465  -1.1252  -1.1251  -1.1134
    -1.1063  -1.1063  -1.0941  -1.0935  -1.0923  -1.0883  -1.0783  -1.0666
    -1.0653  -1.0588  -1.0587  -1.0478  -1.0418  -1.0398  -1.0359  -0.9963
    -0.9932  -0.9901  -0.9870  -0.9867  -0.9841  -0.9472  -0.9308  -0.9296
    -0.9293  -0.9279  -0.9240  -0.9199  -0.9194  -0.9045  -0.9025  -0.8689
    -0.8670  -0.8605  -0.8599  -0.8375  -0.8374  -0.8277  -0.7983  -0.7905
    -0.7631  -0.7631  -0.7347  -0.7346  -0.7311  -0.7310  -0.7299  -0.7255
    -0.7208  -0.7205  -0.7160  -0.7144  -0.6841  -0.6834  -0.6671  -0.6635
    -0.6607  -0.6603  -0.6579  -0.6473  -0.6397  -0.3633  -0.3543  -0.3004
    -0.2863  -0.2578  -0.0953  -0.0328  -0.0307   0.0031   0.2859   0.2907
     0.6132   0.6235   0.7153   0.7177   0.7554   0.7611   0.8990   0.9092
     1.0248   1.0269   1.1152   1.7112   1.7305   1.7308   1.7704   1.7745
     1.8107   1.8285   1.8978   1.9066   2.1059   2.1099   2.3390   2.4178
     2.4271   2.4405   2.8113   2.8234   2.8921   2.8944   2.8997   2.9032
     3.0517   3.0521   3.0775   3.1905   3.2000   3.4240   3.4332   3.5616
     3.5866   3.5904   3.8571   3.8633   3.9693   3.9795   3.9922   3.9947
     4.0436   4.1777   4.1833   4.4160   4.4168   4.4861   4.5045   4.6177
     4.6277   4.6439   4.6481   4.6731   4.8473   5.3973   5.4106   5.4373
     5.5502   5.5582   5.6089   5.6913   5.7381   5.7422   5.7472   5.8510
     5.8513   5.9086   5.9121   5.9470   5.9955   6.0417   6.0803   6.1683
     6.1799   6.2041   6.2160   6.2336   6.2471   6.2510   6.2628   6.2648

          k = 0.2500 0.2500-0.2500 (167588 PWs)   bands (ev):

   -19.9234  -7.7422  -6.7134  -6.1852  -6.1844  -5.7549  -5.3495  -5.2533
    -5.2523  -5.0571  -5.0565  -4.9467  -4.9401  -4.8604  -4.8388  -4.7641
    -4.6791  -4.6768  -4.6413  -4.6366  -4.4796  -4.4600  -4.4583  -4.4578
    -4.4508  -4.3996  -4.3950  -4.3836  -4.3824  -4.3558  -4.3439  -4.3344
    -4.2919  -4.2912  -4.2846  -4.2565  -4.2529  -4.2053  -4.2002  -4.1923
    -4.1871  -4.1771  -4.1739  -4.1687  -4.1286  -4.1141  -4.1139  -4.1078
    -4.1048  -4.0722  -4.0263  -4.0108  -4.0096  -4.0069  -3.9995  -3.9931
    -3.9928  -3.9923  -3.9867  -3.9287  -3.9146  -3.8782  -3.8770  -3.8637
    -3.8392  -3.8359  -3.8166  -3.8160  -3.8123  -3.8114  -3.8056  -3.7598
    -3.7592  -3.7471  -3.7457  -3.6423  -3.6395  -3.6359  -3.6279  -3.5974
    -3.5898  -3.5749  -3.5447  -3.5436  -3.5163  -3.5143  -3.4943  -3.4927
    -3.4811  -3.4798  -3.4255  -3.4242  -3.4079  -3.3913  -3.3805  -3.3783
    -3.3779  -3.3756  -3.3501  -3.3479  -3.3138  -3.3118  -3.2914  -3.2894
    -3.2587  -3.2569  -3.2393  -3.2126  -3.2118  -3.1747  -3.1743  -3.1379
    -3.1309  -3.1303  -3.1171  -3.1140  -3.1113  -3.1098  -3.0737  -3.0628
    -3.0222  -3.0218  -3.0136  -3.0045  -3.0036  -3.0021  -2.9784  -2.9780
    -2.9572  -2.9565  -2.9559  -2.9294  -2.9285  -2.9214  -2.9194  -2.9175
    -2.8830  -2.8784  -2.8434  -2.8428  -2.8418  -2.8395  -2.8386  -2.7594
    -2.7495  -2.7460  -2.7443  -2.7439  -2.7435  -2.7393  -2.7388  -2.7383
    -2.7383  -2.7284  -2.7206  -2.7044  -2.7019  -2.7008  -2.6988  -2.6852
    -2.6826  -2.6430  -2.6423  -2.6420  -2.6386  -2.6351  -2.6197  -2.6187
    -2.6111  -2.6102  -2.6077  -2.5500  -2.5484  -2.5434  -2.5422  -2.5409
    -2.5375  -2.5085  -2.4507  -2.4501  -2.4494  -2.4472  -2.4364  -2.4357
    -2.4293  -2.4189  -2.4184  -2.3821  -2.3792  -2.3736  -2.3731  -2.3719
    -2.3698  -2.3325  -2.3318  -2.3218  -2.3211  -2.3207  -2.3195  -2.2767
    -2.2626  -2.2533  -2.2033  -2.2024  -2.1852  -2.1840  -2.1797  -2.1738
    -2.1305  -2.1250  -2.1050  -2.0870  -2.0832  -2.0744  -2.0742  -2.0567
    -2.0509  -2.0422  -2.0255  -2.0128  -1.9841  -1.9785  -1.9706  -1.9692
    -1.9676  -1.9587  -1.9488  -1.9440  -1.9415  -1.9401  -1.9368  -1.9350
    -1.9326  -1.9307  -1.9209  -1.9174  -1.9026  -1.9009  -1.8974  -1.8924
    -1.8913  -1.8799  -1.8675  -1.8656  -1.8561  -1.8536  -1.8463  -1.8454
    -1.8103  -1.7777  -1.7765  -1.7413  -1.7246  -1.7236  -1.7127  -1.7092
    -1.6902  -1.6860  -1.6752  -1.6739  -1.6734  -1.6728  -1.6690  -1.6532
    -1.6369  -1.6367  -1.6360  -1.5917  -1.5900  -1.5510  -1.5493  -1.5032
    -1.5028  -1.4908  -1.4684  -1.4639  -1.4611  -1.4441  -1.4421  -1.4258
    -1.4256  -1.4211  -1.4207  -1.4197  -1.4192  -1.4136  -1.4119  -1.3948
    -1.3938  -1.3821  -1.3674  -1.3488  -1.3484  -1.3225  -1.3224  -1.3199
    -1.3194  -1.3155  -1.3090  -1.2900  -1.2893  -1.2760  -1.2712  -1.2579
    -1.2527  -1.2392  -1.2386  -1.2079  -1.2079  -1.1997  -1.1966  -1.1638
    -1.1619  -1.1556  -1.1533  -1.1476  -1.1465  -1.1252  -1.1251  -1.1134
    -1.1063  -1.1063  -1.0941  -1.0935  -1.0923  -1.0883  -1.0783  -1.0666
    -1.0654  -1.0588  -1.0587  -1.0478  -1.0418  -1.0398  -1.0359  -0.9963
    -0.9932  -0.9901  -0.9871  -0.9867  -0.9841  -0.9472  -0.9308  -0.9296
    -0.9292  -0.9279  -0.9240  -0.9199  -0.9194  -0.9045  -0.9025  -0.8689
    -0.8670  -0.8605  -0.8599  -0.8375  -0.8374  -0.8277  -0.7983  -0.7905
    -0.7631  -0.7631  -0.7347  -0.7346  -0.7311  -0.7310  -0.7299  -0.7255
    -0.7208  -0.7205  -0.7160  -0.7144  -0.6841  -0.6834  -0.6671  -0.6635
    -0.6607  -0.6603  -0.6579  -0.6473  -0.6397  -0.3633  -0.3543  -0.3004
    -0.2863  -0.2578  -0.0953  -0.0328  -0.0307   0.0031   0.2859   0.2907
     0.6132   0.6235   0.7153   0.7177   0.7554   0.7611   0.8990   0.9092
     1.0248   1.0269   1.1152   1.7112   1.7305   1.7308   1.7704   1.7745
     1.8107   1.8285   1.8978   1.9066   2.1059   2.1099   2.3390   2.4178
     2.4271   2.4405   2.8113   2.8234   2.8921   2.8944   2.8997   2.9032
     3.0517   3.0521   3.0776   3.1905   3.2001   3.4240   3.4332   3.5616
     3.5866   3.5905   3.8571   3.8633   3.9693   3.9796   3.9922   3.9947
     4.0437   4.1777   4.1833   4.4160   4.4167   4.4860   4.5045   4.6174
     4.6277   4.6439   4.6480   4.6727   4.8458   5.3952   5.4091   5.4126
     5.5501   5.5576   5.6662   5.6946   5.7379   5.7452   5.7485   5.8506
     5.8513   5.9086   5.9131   5.9519   5.9793   6.0634   6.1014   6.1557
     6.1931   6.2109   6.2330   6.2365   6.2463   6.2520   6.2605   6.2634

          k =-0.2500-0.2500 0.0833 (167653 PWs)   bands (ev):

   -19.9234  -7.7422  -6.7134  -6.1852  -6.1844  -5.7549  -5.3495  -5.2533
    -5.2523  -5.0571  -5.0565  -4.9467  -4.9401  -4.8604  -4.8388  -4.7641
    -4.6791  -4.6768  -4.6413  -4.6366  -4.4796  -4.4600  -4.4583  -4.4578
    -4.4508  -4.3996  -4.3950  -4.3836  -4.3824  -4.3558  -4.3439  -4.3344
    -4.2919  -4.2912  -4.2846  -4.2565  -4.2529  -4.2053  -4.2002  -4.1923
    -4.1871  -4.1771  -4.1739  -4.1687  -4.1286  -4.1141  -4.1139  -4.1078
    -4.1048  -4.0722  -4.0263  -4.0108  -4.0096  -4.0069  -3.9995  -3.9931
    -3.9928  -3.9923  -3.9867  -3.9287  -3.9146  -3.8782  -3.8770  -3.8637
    -3.8392  -3.8359  -3.8166  -3.8160  -3.8123  -3.8114  -3.8056  -3.7598
    -3.7592  -3.7471  -3.7457  -3.6423  -3.6395  -3.6359  -3.6279  -3.5974
    -3.5898  -3.5749  -3.5447  -3.5436  -3.5163  -3.5143  -3.4943  -3.4927
    -3.4811  -3.4798  -3.4255  -3.4242  -3.4079  -3.3912  -3.3805  -3.3783
    -3.3779  -3.3756  -3.3501  -3.3479  -3.3138  -3.3118  -3.2915  -3.2894
    -3.2587  -3.2569  -3.2393  -3.2126  -3.2118  -3.1747  -3.1743  -3.1379
    -3.1309  -3.1303  -3.1171  -3.1140  -3.1113  -3.1098  -3.0737  -3.0628
    -3.0222  -3.0218  -3.0136  -3.0045  -3.0036  -3.0021  -2.9784  -2.9780
    -2.9572  -2.9565  -2.9559  -2.9294  -2.9285  -2.9214  -2.9194  -2.9175
    -2.8830  -2.8784  -2.8434  -2.8428  -2.8418  -2.8395  -2.8386  -2.7594
    -2.7495  -2.7460  -2.7443  -2.7439  -2.7435  -2.7393  -2.7388  -2.7383
    -2.7383  -2.7284  -2.7206  -2.7043  -2.7020  -2.7008  -2.6988  -2.6852
    -2.6827  -2.6430  -2.6423  -2.6420  -2.6386  -2.6351  -2.6197  -2.6187
    -2.6111  -2.6102  -2.6077  -2.5500  -2.5484  -2.5434  -2.5422  -2.5409
    -2.5375  -2.5085  -2.4507  -2.4501  -2.4494  -2.4472  -2.4364  -2.4357
    -2.4293  -2.4189  -2.4184  -2.3821  -2.3792  -2.3736  -2.3731  -2.3719
    -2.3698  -2.3324  -2.3318  -2.3218  -2.3211  -2.3207  -2.3195  -2.2766
    -2.2626  -2.2533  -2.2033  -2.2024  -2.1852  -2.1840  -2.1797  -2.1738
    -2.1305  -2.1251  -2.1050  -2.0870  -2.0832  -2.0744  -2.0742  -2.0567
    -2.0509  -2.0422  -2.0255  -2.0128  -1.9841  -1.9785  -1.9706  -1.9692
    -1.9676  -1.9587  -1.9488  -1.9440  -1.9415  -1.9401  -1.9368  -1.9350
    -1.9326  -1.9307  -1.9209  -1.9174  -1.9026  -1.9009  -1.8974  -1.8924
    -1.8913  -1.8799  -1.8675  -1.8656  -1.8561  -1.8536  -1.8463  -1.8454
    -1.8103  -1.7777  -1.7765  -1.7413  -1.7246  -1.7236  -1.7127  -1.7092
    -1.6902  -1.6860  -1.6753  -1.6739  -1.6734  -1.6728  -1.6690  -1.6533
    -1.6369  -1.6367  -1.6360  -1.5917  -1.5900  -1.5510  -1.5493  -1.5032
    -1.5028  -1.4907  -1.4684  -1.4639  -1.4611  -1.4441  -1.4421  -1.4258
    -1.4256  -1.4211  -1.4207  -1.4197  -1.4192  -1.4136  -1.4119  -1.3948
    -1.3938  -1.3821  -1.3674  -1.3488  -1.3484  -1.3225  -1.3224  -1.3199
    -1.3194  -1.3155  -1.3090  -1.2900  -1.2893  -1.2760  -1.2712  -1.2579
    -1.2527  -1.2392  -1.2386  -1.2079  -1.2079  -1.1997  -1.1966  -1.1638
    -1.1619  -1.1556  -1.1533  -1.1476  -1.1465  -1.1252  -1.1251  -1.1134
    -1.1063  -1.1063  -1.0941  -1.0935  -1.0923  -1.0883  -1.0783  -1.0666
    -1.0653  -1.0588  -1.0587  -1.0478  -1.0418  -1.0398  -1.0359  -0.9963
    -0.9932  -0.9901  -0.9870  -0.9867  -0.9841  -0.9472  -0.9308  -0.9296
    -0.9293  -0.9279  -0.9240  -0.9199  -0.9194  -0.9045  -0.9025  -0.8689
    -0.8670  -0.8605  -0.8599  -0.8375  -0.8374  -0.8277  -0.7983  -0.7905
    -0.7631  -0.7631  -0.7347  -0.7346  -0.7311  -0.7310  -0.7299  -0.7255
    -0.7208  -0.7205  -0.7160  -0.7144  -0.6841  -0.6834  -0.6671  -0.6635
    -0.6607  -0.6603  -0.6579  -0.6473  -0.6397  -0.3633  -0.3543  -0.3004
    -0.2863  -0.2578  -0.0953  -0.0328  -0.0307   0.0031   0.2859   0.2907
     0.6132   0.6235   0.7153   0.7177   0.7554   0.7611   0.8990   0.9092
     1.0248   1.0269   1.1152   1.7112   1.7305   1.7308   1.7704   1.7745
     1.8107   1.8285   1.8978   1.9066   2.1059   2.1099   2.3390   2.4178
     2.4271   2.4405   2.8113   2.8234   2.8921   2.8944   2.8997   2.9032
     3.0517   3.0521   3.0775   3.1905   3.2000   3.4240   3.4332   3.5616
     3.5866   3.5904   3.8571   3.8633   3.9693   3.9795   3.9922   3.9947
     4.0436   4.1777   4.1833   4.4160   4.4168   4.4861   4.5045   4.6177
     4.6277   4.6439   4.6481   4.6731   4.8473   5.3973   5.4106   5.4370
     5.5502   5.5582   5.6095   5.6913   5.7381   5.7420   5.7472   5.8510
     5.8513   5.9086   5.9121   5.9469   5.9956   6.0402   6.0804   6.1683
     6.1802   6.2046   6.2164   6.2336   6.2471   6.2510   6.2628   6.2648

          k =-0.2500 0.2500-0.0833 (167653 PWs)   bands (ev):

   -19.9234  -7.7422  -6.7135  -6.1849  -6.1845  -5.7553  -5.3497  -5.2531
    -5.2530  -5.0568  -5.0559  -4.9455  -4.9398  -4.8600  -4.8405  -4.7652
    -4.6800  -4.6754  -4.6375  -4.6363  -4.4807  -4.4587  -4.4580  -4.4571
    -4.4508  -4.3975  -4.3945  -4.3902  -4.3833  -4.3615  -4.3459  -4.3341
    -4.2962  -4.2910  -4.2757  -4.2577  -4.2501  -4.2053  -4.2020  -4.1923
    -4.1873  -4.1789  -4.1738  -4.1683  -4.1237  -4.1145  -4.1132  -4.1077
    -4.1069  -4.0677  -4.0193  -4.0107  -4.0095  -4.0069  -4.0002  -3.9984
    -3.9926  -3.9924  -3.9879  -3.9287  -3.9210  -3.8780  -3.8722  -3.8611
    -3.8390  -3.8363  -3.8195  -3.8163  -3.8159  -3.8095  -3.8073  -3.7596
    -3.7582  -3.7470  -3.7453  -3.6420  -3.6384  -3.6358  -3.6313  -3.5970
    -3.5897  -3.5750  -3.5449  -3.5440  -3.5161  -3.5139  -3.4948  -3.4939
    -3.4809  -3.4786  -3.4255  -3.4248  -3.4031  -3.3916  -3.3786  -3.3783
    -3.3773  -3.3761  -3.3506  -3.3498  -3.3131  -3.3113  -3.2916  -3.2909
    -3.2585  -3.2574  -3.2396  -3.2118  -3.2099  -3.1745  -3.1739  -3.1389
    -3.1310  -3.1300  -3.1172  -3.1164  -3.1113  -3.1105  -3.0734  -3.0631
    -3.0222  -3.0215  -3.0136  -3.0046  -3.0036  -3.0021  -2.9785  -2.9778
    -2.9571  -2.9567  -2.9559  -2.9291  -2.9287  -2.9217  -2.9188  -2.9178
    -2.8825  -2.8787  -2.8435  -2.8428  -2.8409  -2.8393  -2.8392  -2.7593
    -2.7498  -2.7459  -2.7449  -2.7442  -2.7436  -2.7393  -2.7386  -2.7382
    -2.7367  -2.7283  -2.7205  -2.7051  -2.7016  -2.7007  -2.6966  -2.6859
    -2.6783  -2.6434  -2.6423  -2.6420  -2.6385  -2.6373  -2.6196  -2.6187
    -2.6107  -2.6096  -2.6077  -2.5496  -2.5491  -2.5435  -2.5431  -2.5391
    -2.5342  -2.5111  -2.4507  -2.4500  -2.4492  -2.4471  -2.4357  -2.4334
    -2.4298  -2.4183  -2.4181  -2.3828  -2.3822  -2.3731  -2.3725  -2.3723
    -2.3705  -2.3324  -2.3320  -2.3217  -2.3215  -2.3207  -2.3184  -2.2777
    -2.2648  -2.2607  -2.2029  -2.2025  -2.1854  -2.1846  -2.1783  -2.1762
    -2.1362  -2.1299  -2.1049  -2.0967  -2.0747  -2.0744  -2.0738  -2.0515
    -2.0511  -2.0417  -2.0251  -2.0028  -1.9846  -1.9835  -1.9708  -1.9707
    -1.9594  -1.9590  -1.9490  -1.9438  -1.9429  -1.9411  -1.9382  -1.9348
    -1.9337  -1.9290  -1.9208  -1.9124  -1.9030  -1.9011  -1.8969  -1.8910
    -1.8907  -1.8869  -1.8674  -1.8612  -1.8565  -1.8527  -1.8504  -1.8421
    -1.8102  -1.7777  -1.7770  -1.7413  -1.7247  -1.7230  -1.7147  -1.7093
    -1.6912  -1.6786  -1.6763  -1.6741  -1.6733  -1.6716  -1.6694  -1.6580
    -1.6370  -1.6366  -1.6364  -1.5916  -1.5910  -1.5513  -1.5489  -1.5044
    -1.5006  -1.4902  -1.4686  -1.4641  -1.4609  -1.4458  -1.4422  -1.4260
    -1.4251  -1.4216  -1.4209  -1.4201  -1.4188  -1.4154  -1.4132  -1.3956
    -1.3943  -1.3818  -1.3675  -1.3490  -1.3462  -1.3225  -1.3224  -1.3198
    -1.3191  -1.3151  -1.3075  -1.2930  -1.2859  -1.2779  -1.2694  -1.2566
    -1.2529  -1.2392  -1.2377  -1.2086  -1.2076  -1.2007  -1.1965  -1.1649
    -1.1633  -1.1560  -1.1550  -1.1480  -1.1431  -1.1252  -1.1250  -1.1134
    -1.1064  -1.1060  -1.0940  -1.0933  -1.0926  -1.0862  -1.0782  -1.0679
    -1.0648  -1.0590  -1.0586  -1.0464  -1.0437  -1.0360  -1.0356  -0.9950
    -0.9946  -0.9903  -0.9872  -0.9861  -0.9857  -0.9472  -0.9315  -0.9298
    -0.9289  -0.9287  -0.9266  -0.9194  -0.9120  -0.9073  -0.9040  -0.8684
    -0.8660  -0.8603  -0.8600  -0.8378  -0.8372  -0.8277  -0.7981  -0.7904
    -0.7636  -0.7624  -0.7348  -0.7344  -0.7313  -0.7310  -0.7300  -0.7254
    -0.7205  -0.7204  -0.7164  -0.7158  -0.6842  -0.6832  -0.6683  -0.6631
    -0.6605  -0.6599  -0.6594  -0.6457  -0.6396  -0.3635  -0.3542  -0.3025
    -0.2852  -0.2576  -0.0966  -0.0329  -0.0312   0.0047   0.2851   0.2916
     0.6122   0.6257   0.7150   0.7180   0.7547   0.7614   0.8973   0.9058
     1.0248   1.0271   1.1160   1.7121   1.7298   1.7322   1.7697   1.7744
     1.8073   1.8336   1.8976   1.9061   2.1056   2.1105   2.3411   2.4166
     2.4321   2.4395   2.8086   2.8272   2.8925   2.8943   2.8996   2.9031
     3.0510   3.0527   3.0770   3.1932   3.1948   3.4248   3.4269   3.5615
     3.5868   3.5922   3.8583   3.8602   3.9664   3.9923   3.9944   4.0021
     4.0321   4.1768   4.1820   4.4139   4.4170   4.4991   4.5003   4.5749
     4.6291   4.6301   4.6427   4.6847   4.8922   5.3730   5.4242   5.5093
     5.5452   5.5548   5.5741   5.6359   5.7382   5.7406   5.7513   5.8478
     5.8583   5.9069   5.9096   5.9538   6.0142   6.0171   6.1236   6.1359
     6.1906   6.2166   6.2330   6.2359   6.2417   6.2436   6.2597   6.2606

          k = 0.2500-0.2500-0.0833 (167653 PWs)   bands (ev):

   -19.9234  -7.7422  -6.7135  -6.1849  -6.1845  -5.7553  -5.3497  -5.2531
    -5.2530  -5.0568  -5.0559  -4.9455  -4.9398  -4.8600  -4.8405  -4.7652
    -4.6800  -4.6754  -4.6375  -4.6363  -4.4807  -4.4587  -4.4580  -4.4571
    -4.4508  -4.3975  -4.3945  -4.3902  -4.3833  -4.3615  -4.3459  -4.3341
    -4.2962  -4.2910  -4.2757  -4.2577  -4.2501  -4.2053  -4.2020  -4.1923
    -4.1873  -4.1789  -4.1738  -4.1683  -4.1237  -4.1145  -4.1132  -4.1077
    -4.1069  -4.0677  -4.0193  -4.0107  -4.0095  -4.0069  -4.0002  -3.9984
    -3.9926  -3.9924  -3.9879  -3.9287  -3.9210  -3.8780  -3.8722  -3.8611
    -3.8390  -3.8363  -3.8195  -3.8163  -3.8159  -3.8095  -3.8073  -3.7596
    -3.7582  -3.7470  -3.7453  -3.6420  -3.6384  -3.6358  -3.6313  -3.5970
    -3.5897  -3.5750  -3.5449  -3.5440  -3.5161  -3.5139  -3.4948  -3.4939
    -3.4809  -3.4786  -3.4255  -3.4248  -3.4031  -3.3916  -3.3786  -3.3783
    -3.3773  -3.3761  -3.3506  -3.3498  -3.3131  -3.3113  -3.2916  -3.2909
    -3.2585  -3.2574  -3.2396  -3.2118  -3.2099  -3.1745  -3.1739  -3.1389
    -3.1310  -3.1300  -3.1172  -3.1164  -3.1113  -3.1105  -3.0734  -3.0631
    -3.0222  -3.0215  -3.0136  -3.0046  -3.0036  -3.0021  -2.9785  -2.9778
    -2.9571  -2.9567  -2.9559  -2.9291  -2.9287  -2.9217  -2.9188  -2.9178
    -2.8825  -2.8787  -2.8435  -2.8428  -2.8409  -2.8393  -2.8392  -2.7593
    -2.7498  -2.7459  -2.7449  -2.7442  -2.7436  -2.7393  -2.7386  -2.7382
    -2.7367  -2.7283  -2.7205  -2.7051  -2.7016  -2.7007  -2.6966  -2.6859
    -2.6783  -2.6434  -2.6423  -2.6420  -2.6385  -2.6373  -2.6196  -2.6187
    -2.6107  -2.6096  -2.6077  -2.5496  -2.5491  -2.5435  -2.5431  -2.5391
    -2.5342  -2.5111  -2.4507  -2.4500  -2.4492  -2.4471  -2.4357  -2.4334
    -2.4298  -2.4183  -2.4181  -2.3828  -2.3822  -2.3731  -2.3725  -2.3723
    -2.3705  -2.3324  -2.3320  -2.3217  -2.3215  -2.3207  -2.3184  -2.2777
    -2.2648  -2.2607  -2.2029  -2.2025  -2.1854  -2.1846  -2.1783  -2.1762
    -2.1362  -2.1299  -2.1049  -2.0967  -2.0747  -2.0744  -2.0738  -2.0515
    -2.0511  -2.0417  -2.0251  -2.0028  -1.9846  -1.9835  -1.9708  -1.9707
    -1.9594  -1.9590  -1.9490  -1.9438  -1.9429  -1.9411  -1.9382  -1.9348
    -1.9337  -1.9290  -1.9208  -1.9124  -1.9030  -1.9011  -1.8969  -1.8910
    -1.8907  -1.8869  -1.8674  -1.8612  -1.8565  -1.8527  -1.8504  -1.8421
    -1.8102  -1.7777  -1.7770  -1.7413  -1.7247  -1.7230  -1.7147  -1.7093
    -1.6912  -1.6786  -1.6763  -1.6741  -1.6733  -1.6716  -1.6694  -1.6580
    -1.6370  -1.6366  -1.6364  -1.5916  -1.5910  -1.5513  -1.5489  -1.5044
    -1.5006  -1.4902  -1.4686  -1.4641  -1.4609  -1.4458  -1.4422  -1.4260
    -1.4251  -1.4216  -1.4209  -1.4201  -1.4188  -1.4154  -1.4132  -1.3956
    -1.3943  -1.3818  -1.3675  -1.3490  -1.3462  -1.3225  -1.3224  -1.3198
    -1.3191  -1.3151  -1.3075  -1.2930  -1.2859  -1.2779  -1.2694  -1.2566
    -1.2529  -1.2392  -1.2377  -1.2086  -1.2076  -1.2007  -1.1965  -1.1649
    -1.1633  -1.1560  -1.1550  -1.1480  -1.1431  -1.1252  -1.1250  -1.1134
    -1.1064  -1.1060  -1.0940  -1.0933  -1.0926  -1.0862  -1.0782  -1.0679
    -1.0648  -1.0590  -1.0586  -1.0464  -1.0437  -1.0360  -1.0356  -0.9950
    -0.9946  -0.9903  -0.9872  -0.9861  -0.9857  -0.9472  -0.9315  -0.9298
    -0.9289  -0.9287  -0.9266  -0.9194  -0.9120  -0.9073  -0.9040  -0.8684
    -0.8660  -0.8603  -0.8600  -0.8378  -0.8372  -0.8277  -0.7981  -0.7904
    -0.7636  -0.7624  -0.7348  -0.7344  -0.7313  -0.7310  -0.7300  -0.7254
    -0.7205  -0.7204  -0.7164  -0.7158  -0.6842  -0.6832  -0.6683  -0.6631
    -0.6605  -0.6599  -0.6594  -0.6457  -0.6396  -0.3635  -0.3542  -0.3025
    -0.2852  -0.2576  -0.0966  -0.0329  -0.0312   0.0047   0.2851   0.2916
     0.6122   0.6257   0.7150   0.7180   0.7547   0.7614   0.8973   0.9058
     1.0248   1.0271   1.1160   1.7121   1.7298   1.7322   1.7697   1.7744
     1.8073   1.8336   1.8976   1.9061   2.1056   2.1105   2.3411   2.4166
     2.4321   2.4395   2.8086   2.8272   2.8925   2.8943   2.8996   2.9031
     3.0510   3.0527   3.0770   3.1932   3.1948   3.4248   3.4269   3.5615
     3.5868   3.5922   3.8583   3.8602   3.9664   3.9923   3.9944   4.0021
     4.0321   4.1768   4.1820   4.4139   4.4170   4.4991   4.5003   4.5749
     4.6291   4.6301   4.6427   4.6847   4.8922   5.3730   5.4242   5.5092
     5.5453   5.5549   5.5742   5.6359   5.7382   5.7406   5.7513   5.8477
     5.8583   5.9069   5.9096   5.9538   6.0140   6.0172   6.1232   6.1363
     6.1906   6.2166   6.2330   6.2358   6.2419   6.2436   6.2597   6.2606

          k =-0.2500 0.2500 0.2500 (167588 PWs)   bands (ev):

   -19.9234  -7.7422  -6.7135  -6.1849  -6.1845  -5.7553  -5.3497  -5.2531
    -5.2530  -5.0568  -5.0559  -4.9455  -4.9398  -4.8600  -4.8405  -4.7652
    -4.6800  -4.6754  -4.6375  -4.6363  -4.4807  -4.4587  -4.4580  -4.4571
    -4.4508  -4.3975  -4.3945  -4.3902  -4.3833  -4.3615  -4.3459  -4.3341
    -4.2962  -4.2910  -4.2757  -4.2577  -4.2501  -4.2053  -4.2020  -4.1923
    -4.1873  -4.1789  -4.1738  -4.1683  -4.1237  -4.1145  -4.1132  -4.1077
    -4.1069  -4.0677  -4.0193  -4.0107  -4.0095  -4.0069  -4.0002  -3.9984
    -3.9926  -3.9924  -3.9879  -3.9287  -3.9210  -3.8780  -3.8722  -3.8611
    -3.8390  -3.8363  -3.8195  -3.8163  -3.8158  -3.8095  -3.8073  -3.7596
    -3.7582  -3.7470  -3.7453  -3.6420  -3.6384  -3.6358  -3.6313  -3.5970
    -3.5897  -3.5750  -3.5449  -3.5440  -3.5161  -3.5139  -3.4948  -3.4939
    -3.4809  -3.4786  -3.4255  -3.4248  -3.4031  -3.3916  -3.3786  -3.3783
    -3.3773  -3.3761  -3.3506  -3.3498  -3.3131  -3.3113  -3.2916  -3.2909
    -3.2585  -3.2574  -3.2396  -3.2118  -3.2099  -3.1745  -3.1739  -3.1389
    -3.1310  -3.1300  -3.1172  -3.1164  -3.1113  -3.1105  -3.0735  -3.0631
    -3.0222  -3.0214  -3.0136  -3.0046  -3.0036  -3.0021  -2.9785  -2.9779
    -2.9571  -2.9567  -2.9559  -2.9291  -2.9287  -2.9217  -2.9188  -2.9178
    -2.8825  -2.8787  -2.8435  -2.8428  -2.8409  -2.8393  -2.8392  -2.7593
    -2.7498  -2.7459  -2.7449  -2.7442  -2.7436  -2.7393  -2.7385  -2.7382
    -2.7367  -2.7283  -2.7206  -2.7051  -2.7016  -2.7007  -2.6966  -2.6859
    -2.6783  -2.6434  -2.6423  -2.6420  -2.6385  -2.6373  -2.6196  -2.6187
    -2.6107  -2.6096  -2.6077  -2.5496  -2.5491  -2.5435  -2.5431  -2.5390
    -2.5342  -2.5111  -2.4507  -2.4500  -2.4492  -2.4471  -2.4357  -2.4334
    -2.4298  -2.4183  -2.4181  -2.3828  -2.3822  -2.3731  -2.3725  -2.3722
    -2.3705  -2.3324  -2.3320  -2.3217  -2.3215  -2.3207  -2.3184  -2.2777
    -2.2648  -2.2607  -2.2029  -2.2025  -2.1854  -2.1847  -2.1783  -2.1762
    -2.1362  -2.1299  -2.1049  -2.0967  -2.0747  -2.0744  -2.0738  -2.0515
    -2.0511  -2.0417  -2.0251  -2.0028  -1.9846  -1.9835  -1.9708  -1.9707
    -1.9594  -1.9590  -1.9490  -1.9438  -1.9429  -1.9411  -1.9382  -1.9348
    -1.9337  -1.9290  -1.9208  -1.9124  -1.9030  -1.9012  -1.8969  -1.8910
    -1.8907  -1.8869  -1.8674  -1.8612  -1.8565  -1.8527  -1.8503  -1.8421
    -1.8103  -1.7777  -1.7770  -1.7413  -1.7247  -1.7230  -1.7146  -1.7092
    -1.6912  -1.6786  -1.6763  -1.6741  -1.6733  -1.6716  -1.6693  -1.6580
    -1.6370  -1.6366  -1.6364  -1.5916  -1.5910  -1.5513  -1.5489  -1.5044
    -1.5006  -1.4902  -1.4686  -1.4641  -1.4609  -1.4458  -1.4423  -1.4260
    -1.4251  -1.4216  -1.4209  -1.4201  -1.4188  -1.4154  -1.4132  -1.3956
    -1.3944  -1.3818  -1.3675  -1.3490  -1.3462  -1.3225  -1.3224  -1.3198
    -1.3191  -1.3151  -1.3075  -1.2930  -1.2858  -1.2779  -1.2694  -1.2566
    -1.2529  -1.2392  -1.2377  -1.2086  -1.2076  -1.2007  -1.1965  -1.1649
    -1.1633  -1.1560  -1.1550  -1.1480  -1.1431  -1.1252  -1.1250  -1.1134
    -1.1064  -1.1060  -1.0940  -1.0933  -1.0926  -1.0862  -1.0782  -1.0679
    -1.0648  -1.0590  -1.0586  -1.0464  -1.0437  -1.0360  -1.0356  -0.9950
    -0.9946  -0.9903  -0.9872  -0.9861  -0.9857  -0.9472  -0.9315  -0.9298
    -0.9289  -0.9287  -0.9266  -0.9194  -0.9120  -0.9073  -0.9040  -0.8684
    -0.8660  -0.8603  -0.8600  -0.8378  -0.8372  -0.8277  -0.7981  -0.7904
    -0.7636  -0.7623  -0.7348  -0.7344  -0.7313  -0.7310  -0.7300  -0.7254
    -0.7205  -0.7204  -0.7164  -0.7158  -0.6842  -0.6832  -0.6683  -0.6631
    -0.6605  -0.6599  -0.6594  -0.6457  -0.6396  -0.3635  -0.3542  -0.3025
    -0.2852  -0.2576  -0.0966  -0.0329  -0.0312   0.0047   0.2851   0.2916
     0.6122   0.6257   0.7150   0.7180   0.7547   0.7614   0.8973   0.9059
     1.0248   1.0271   1.1160   1.7121   1.7298   1.7322   1.7697   1.7744
     1.8073   1.8336   1.8976   1.9061   2.1056   2.1105   2.3411   2.4166
     2.4321   2.4396   2.8086   2.8272   2.8925   2.8943   2.8996   2.9031
     3.0510   3.0527   3.0770   3.1932   3.1949   3.4248   3.4269   3.5615
     3.5868   3.5922   3.8583   3.8602   3.9664   3.9923   3.9945   4.0023
     4.0322   4.1768   4.1820   4.4139   4.4170   4.4991   4.5003   4.5743
     4.6290   4.6300   4.6427   4.6846   4.8903   5.3727   5.4079   5.4963
     5.5385   5.5545   5.5686   5.7358   5.7383   5.7398   5.7494   5.8473
     5.8594   5.9069   5.9098   5.9538   5.9942   6.0359   6.0755   6.2036
     6.2117   6.2189   6.2194   6.2400   6.2443   6.2509   6.2600   6.2606

     the Fermi energy is     0.9763 ev

!    total energy              =   -7425.29179107 Ry
     Harris-Foulkes estimate   =   -7425.29179108 Ry
     estimated scf accuracy    <          8.1E-09 Ry

     The total energy is the sum of the following terms:

     one-electron contribution =  -48797.50229264 Ry
     hartree contribution      =   24952.63941737 Ry
     xc contribution           =   -3604.22547993 Ry
     ewald contribution        =   20023.79939773 Ry
     smearing contrib. (-TS)   =      -0.00283360 Ry

     convergence has been achieved in  25 iterations

     Writing output data file 9913049.save

     init_run     :    124.38s CPU    133.71s WALL (       1 calls)
     electrons    :   7261.29s CPU   7773.22s WALL (       1 calls)

     Called by init_run:
     wfcinit      :     89.46s CPU     97.77s WALL (       1 calls)
     potinit      :      7.09s CPU      7.60s WALL (       1 calls)

     Called by electrons:
     c_bands      :   5638.02s CPU   6055.30s WALL (      26 calls)
     sum_band     :   1015.78s CPU   1089.97s WALL (      26 calls)
     v_of_rho     :    132.71s CPU    144.46s WALL (      26 calls)
     newd         :    491.00s CPU    497.35s WALL (      26 calls)
     mix_rho      :      4.05s CPU      4.33s WALL (      26 calls)
     vdW_energy   :     11.90s CPU     13.89s WALL (      26 calls)
     vdW_ffts     :     67.14s CPU     72.68s WALL (      52 calls)
     vdW_v        :     16.56s CPU     17.35s WALL (      26 calls)

     Called by c_bands:
     init_us_2    :     18.72s CPU     19.09s WALL (     318 calls)
     cegterg      :   5574.25s CPU   5989.47s WALL (     156 calls)

     Called by *egterg:
     h_psi        :   2298.30s CPU   2645.45s WALL (     894 calls)
     s_psi        :    359.65s CPU    361.90s WALL (     894 calls)
     g_psi        :      5.86s CPU      5.93s WALL (     732 calls)
     cdiaghg      :   1676.03s CPU   1681.45s WALL (     882 calls)

     Called by h_psi:
     add_vuspsi   :    365.03s CPU    367.71s WALL (     894 calls)

     General routines
     calbec       :    549.81s CPU    552.91s WALL (    1050 calls)
     fft          :    149.52s CPU    158.88s WALL (    1716 calls)
     ffts         :      2.07s CPU      2.34s WALL (      52 calls)
     fftw         :   1474.77s CPU   1804.12s WALL (  431576 calls)
     interpolate  :      5.80s CPU      6.58s WALL (      52 calls)
     davcio       :      0.00s CPU      0.32s WALL (       6 calls)

     Parallel routines
     fft_scatter  :   1042.76s CPU   1279.43s WALL (  433344 calls)

     PWSCF        :     2h 3m CPU        2h11m WALL


   This run was terminated on:  13:15:34  24Aug2015            

=------------------------------------------------------------------------------=
   JOB DONE.
=------------------------------------------------------------------------------=
