Setting SGE environment for SCC

     Program PWSCF v.5.1.2 starts on  1Jul2015 at 20:22:12 

     This program is part of the open-source Quantum ESPRESSO suite
     for quantum simulation of materials; please cite
         "P. Giannozzi et al., J. Phys.:Condens. Matter 21 395502 (2009);
          URL http://www.quantum-espresso.org", 
     in publications or presentations arising from this work. More details at
     http://www.quantum-espresso.org/quote

     Parallel version (MPI), running on    32 processors
     R & G space division:  proc/nbgrp/npool/nimage =      32
     Reading input from bridge.H2.Au6165.d.2.3.phi.0.psi.0.in
Warning: card &IONS ignored
Warning: card / ignored
Warning: card &CELL ignored
Warning: card / ignored

     Current dimensions of program PWSCF are:
     Max number of different atomic species (ntypx) = 10
     Max number of k-points (npk) =  40000
     Max angular momentum in pseudopotentials (lmaxx) =  3

     IMPORTANT: XC functional enforced from input :
     Exchange-correlation      = VDW-DF ( 1  4  4  0 1 0)
     Any further DFT definition will be discarded
     Please, verify this is what you really want


     Subspace diagonalization in iterative solution of the eigenvalue problem:
     a serial algorithm will be used


     Parallelization info
     --------------------
     sticks:   dense  smooth     PW     G-vecs:    dense   smooth      PW
     Min         578     289     74               118518    41891    5486
     Max         579     290     75               118533    41932    5497
     Sum       18505    9265   2385              3792731  1341081  175711


     Title: 
     bridge.H2.Au6165.d.2.3.phi.0.psi.0                                         


     bravais-lattice index     =            8
     lattice parameter (alat)  =      24.1233  a.u.
     unit-cell volume          =   28076.2361 (a.u.)^3
     number of atoms/cell      =           75
     number of atomic types    =            3
     number of electrons       =       800.00
     number of Kohn-Sham states=          480
     kinetic-energy cutoff     =      50.0000  Ry
     charge density cutoff     =     400.0000  Ry
     convergence threshold     =      1.0E-08
     mixing beta               =       0.7000
     number of iterations used =            8  plain     mixing
     Exchange-correlation      = VDW-DF ( 1  4  4  0 1 0)

     celldm(1)=  24.123277  celldm(2)=   1.000000  celldm(3)=   2.000000
     celldm(4)=   0.000000  celldm(5)=   0.000000  celldm(6)=   0.000000

     crystal axes: (cart. coord. in units of alat)
               a(1) = (   1.000000   0.000000   0.000000 )  
               a(2) = (   0.000000   1.000000   0.000000 )  
               a(3) = (   0.000000   0.000000   2.000000 )  

     reciprocal axes: (cart. coord. in units 2 pi/alat)
               b(1) = (  1.000000  0.000000  0.000000 )  
               b(2) = (  0.000000  1.000000  0.000000 )  
               b(3) = (  0.000000  0.000000  0.500000 )  


     PseudoPot. # 1 for Au read from file:
     /home/scc/andrejb/qe/pseudo/Au.pbe-nd-van.UPF
     MD5 check sum: 458681b50f36d87ef23c61b04bba420a
     Pseudo is Ultrasoft + core correction, Zval = 11.0
     Generated by new atomic code, or converted to UPF format
     Using radial grid of  985 points,  3 beta functions with: 
                l(1) =   1
                l(2) =   2
                l(3) =   2
     Q(r) pseudized with  8 coefficients,  rinner =    1.100   1.100   1.100
                                                       1.100   1.100

     PseudoPot. # 2 for H  read from file:
     /home/scc/andrejb/qe/pseudo/H.pbe-van_ak.UPF
     MD5 check sum: 403db7282739603aa925980fa9b8608d
     Pseudo is Ultrasoft, Zval =  1.0
     Generated by new atomic code, or converted to UPF format
     Using radial grid of  615 points,  1 beta functions with: 
                l(1) =   0
     Q(r) pseudized with  8 coefficients,  rinner =    0.800

     PseudoPot. # 3 for O  read from file:
     /home/scc/andrejb/qe/pseudo/O.pbe-van_ak.UPF
     MD5 check sum: 4b8c549914a63cae506c6ff22b5af4fe
     Pseudo is Ultrasoft, Zval =  6.0
     Generated by new atomic code, or converted to UPF format
     Using radial grid of  737 points,  4 beta functions with: 
                l(1) =   0
                l(2) =   0
                l(3) =   1
                l(4) =   1
     Q(r) pseudized with  8 coefficients,  rinner =    0.800   0.800   0.800


     vdW kernel table read from file vdW_kernel_table
     MD5 check sum: 48e77a2e26edf626eeb0eaa751ad5cac

     atomic species   valence    mass     pseudopotential
        Au            11.00   196.96657     Au( 1.00)
        H              1.00     1.01000     H ( 1.00)
        O              6.00    16.00000     O ( 1.00)

     No symmetry found



   Cartesian axes

     site n.     atom                  positions (alat units)
         1           O   tau(   1) = (   0.2673116   0.4310139   0.9090197  )
         2           H   tau(   2) = (   0.2499161   0.4165269   0.8361642  )
         3           H   tau(   3) = (   0.2174848   0.3895358   0.9492104  )
         4           Au  tau(   4) = (   0.0000000   0.0000000   0.0000000  )
         5           Au  tau(   5) = (   0.3332217   0.0000000   0.0000000  )
         6           Au  tau(   6) = (   0.6664434   0.0000000   0.0000000  )
         7           Au  tau(   7) = (   0.1666109   0.1666109   0.0000000  )
         8           Au  tau(   8) = (   0.4998326   0.1666109   0.0000000  )
         9           Au  tau(   9) = (   0.8330542   0.1666109   0.0000000  )
        10           Au  tau(  10) = (   0.0000000   0.3332217   0.0000000  )
        11           Au  tau(  11) = (   0.3332217   0.3332217   0.0000000  )
        12           Au  tau(  12) = (   0.6664434   0.3332217   0.0000000  )
        13           Au  tau(  13) = (   0.1666109   0.4998326   0.0000000  )
        14           Au  tau(  14) = (   0.4998326   0.4998326   0.0000000  )
        15           Au  tau(  15) = (   0.8330542   0.4998326   0.0000000  )
        16           Au  tau(  16) = (   0.0000000   0.6664434   0.0000000  )
        17           Au  tau(  17) = (   0.3332217   0.6664434   0.0000000  )
        18           Au  tau(  18) = (   0.6664434   0.6664434   0.0000000  )
        19           Au  tau(  19) = (   0.1666109   0.8330542   0.0000000  )
        20           Au  tau(  20) = (   0.4998326   0.8330542   0.0000000  )
        21           Au  tau(  21) = (   0.8330542   0.8330542   0.0000000  )
        22           Au  tau(  22) = (   0.1666109   0.0000000   0.1666109  )
        23           Au  tau(  23) = (   0.4998326   0.0000000   0.1666109  )
        24           Au  tau(  24) = (   0.8330542   0.0000000   0.1666109  )
        25           Au  tau(  25) = (   0.0000000   0.1666109   0.1666109  )
        26           Au  tau(  26) = (   0.3332217   0.1666109   0.1666109  )
        27           Au  tau(  27) = (   0.6664434   0.1666109   0.1666109  )
        28           Au  tau(  28) = (   0.1666109   0.3332217   0.1666109  )
        29           Au  tau(  29) = (   0.4998326   0.3332217   0.1666109  )
        30           Au  tau(  30) = (   0.8330542   0.3332217   0.1666109  )
        31           Au  tau(  31) = (   0.0000000   0.4998326   0.1666109  )
        32           Au  tau(  32) = (   0.3332217   0.4998326   0.1666109  )
        33           Au  tau(  33) = (   0.6664434   0.4998326   0.1666109  )
        34           Au  tau(  34) = (   0.1666109   0.6664434   0.1666109  )
        35           Au  tau(  35) = (   0.4998326   0.6664434   0.1666109  )
        36           Au  tau(  36) = (   0.8330542   0.6664434   0.1666109  )
        37           Au  tau(  37) = (   0.0000000   0.8330542   0.1666109  )
        38           Au  tau(  38) = (   0.3332217   0.8330542   0.1666109  )
        39           Au  tau(  39) = (   0.6664434   0.8330542   0.1666109  )
        40           Au  tau(  40) = (  -0.0000182  -0.0000182   0.3335478  )
        41           Au  tau(  41) = (   0.3332215  -0.0000181   0.3335473  )
        42           Au  tau(  42) = (   0.6664447  -0.0000183   0.3335481  )
        43           Au  tau(  43) = (  -0.0000181   0.3332215   0.3335473  )
        44           Au  tau(  44) = (   0.3332215   0.3332215   0.3335468  )
        45           Au  tau(  45) = (   0.6664445   0.3332215   0.3335477  )
        46           Au  tau(  46) = (  -0.0000183   0.6664447   0.3335481  )
        47           Au  tau(  47) = (   0.3332215   0.6664445   0.3335477  )
        48           Au  tau(  48) = (   0.6664446   0.6664446   0.3335486  )
        49           Au  tau(  49) = (   0.1666097   0.1666097   0.3335483  )
        50           Au  tau(  50) = (   0.4998320   0.1666098   0.3335477  )
        51           Au  tau(  51) = (   0.8330732   0.1666096   0.3335480  )
        52           Au  tau(  52) = (   0.1666098   0.4998320   0.3335477  )
        53           Au  tau(  53) = (   0.4998322   0.4998322   0.3335470  )
        54           Au  tau(  54) = (   0.8330731   0.4998322   0.3335474  )
        55           Au  tau(  55) = (   0.1666096   0.8330732   0.3335480  )
        56           Au  tau(  56) = (   0.4998322   0.8330731   0.3335474  )
        57           Au  tau(  57) = (   0.8330731   0.8330731   0.3335478  )
        58           Au  tau(  58) = (   0.1666104  -0.0000111   0.4993095  )
        59           Au  tau(  59) = (   0.4998323  -0.0000112   0.4993099  )
        60           Au  tau(  60) = (   0.8330660  -0.0000111   0.4993009  )
        61           Au  tau(  61) = (  -0.0000111   0.1666104   0.4993095  )
        62           Au  tau(  62) = (   0.3332213   0.1666106   0.4993185  )
        63           Au  tau(  63) = (   0.6664437   0.1666106   0.4993187  )
        64           Au  tau(  64) = (   0.1666106   0.3332213   0.4993185  )
        65           Au  tau(  65) = (   0.4998324   0.3332216   0.4993185  )
        66           Au  tau(  66) = (   0.8330658   0.3332215   0.4993102  )
        67           Au  tau(  67) = (  -0.0000112   0.4998323   0.4993099  )
        68           Au  tau(  68) = (   0.3332216   0.4998324   0.4993185  )
        69           Au  tau(  69) = (   0.6664437   0.4998325   0.4993187  )
        70           Au  tau(  70) = (   0.1666106   0.6664437   0.4993187  )
        71           Au  tau(  71) = (   0.4998325   0.6664437   0.4993187  )
        72           Au  tau(  72) = (   0.8330658   0.6664438   0.4993102  )
        73           Au  tau(  73) = (  -0.0000111   0.8330660   0.4993009  )
        74           Au  tau(  74) = (   0.3332215   0.8330658   0.4993102  )
        75           Au  tau(  75) = (   0.6664438   0.8330658   0.4993102  )

     number of k points=     6  Marzari-Vanderbilt smearing, width (Ry)=  0.0200
                       cart. coord. in units 2pi/alat
        k(    1) = (   0.2500000   0.2500000   0.0833333), wk =   0.3333333
        k(    2) = (   0.2500000   0.2500000  -0.2500000), wk =   0.3333333
        k(    3) = (  -0.2500000  -0.2500000   0.0833333), wk =   0.3333333
        k(    4) = (  -0.2500000   0.2500000  -0.0833333), wk =   0.3333333
        k(    5) = (   0.2500000  -0.2500000  -0.0833333), wk =   0.3333333
        k(    6) = (  -0.2500000   0.2500000   0.2500000), wk =   0.3333333

     Dense  grid:  3792731 G-vectors     FFT dimensions: ( 160, 160, 320)

     Smooth grid:  1341081 G-vectors     FFT dimensions: ( 120, 120, 225)

     Largest allocated arrays     est. size (Mb)     dimensions
        Kohn-Sham Wavefunctions        38.58 Mb     (    5267,  480)
        NL pseudopotentials            76.03 Mb     (    5267,  946)
        Each V/rho on FFT grid          3.91 Mb     (  256000)
        Each G-vector array             0.90 Mb     (  118520)
        G-vector shells                 0.08 Mb     (   10286)
     Largest temporary arrays     est. size (Mb)     dimensions
        Auxiliary wavefunctions       154.31 Mb     (    5267, 1920)
        Each subspace H/S matrix       56.25 Mb     (    1920, 1920)
        Each <psi_i|beta_j> matrix      6.93 Mb     (     946,  480)
        Arrays for rho mixing          31.25 Mb     (  256000,    8)

     Initial potential from superposition of free atoms
     Check: negative starting charge=   -1.944802

     starting charge  799.16392, renormalised to  800.00000

     negative rho (up, down):  1.947E+00 0.000E+00


     ************************************************************************
     *
     * You are using vdW-DF for exchange-correlation in this calculation.
     * Please cite the following three references that made this development
     * possible:
     *
     *   M. Dion, H. Rydberg, E. Schroder, D. C. Langreth, and
     *   B. I. Lundqvist, Phys. Rev. Lett. 92, 246401 (2004).
     *
     *   T. Thonhauser, V. R. Cooper, S. Li, A. Puzder, P. Hyldgaard, and
     *   D. C. Langreth, Phys. Rev. B 76, 125112 (2007).
     *
     *   G. Roman-Perez and J. M. Soler, Phys. Rev. Lett. 103, 096102 (2009).
     *
     *
     * If you are using vdW-DF2, please also cite:
     *
     *   K. Lee, E. D. Murray, L. Kong, B. I. Lundqvist, and
     *   D. C. Langreth, Phys. Rev. B 82, 081101(R) (2010).
     *
     *
     * If you are calculating the stress with vdW-DF, please also cite:
     *
     *   R. Sabatini, E. Kucukbenli, B. Kolb, T. Thonhauser, and
     *   S. de Gironcoli, J. Phys.: Condens. Matter 24, 424209 (2012).
     *
     ************************************************************************

     Carrying out vdW-DF run using the following parameters:

     Nqs =      20    Nr_points =    1024   r_max =   100.000
     q_mesh =
               0.00001000     0.04494208     0.09755937     0.15916263
               0.23128650     0.31572767     0.41458969     0.53033537
               0.66584808     0.82450364     1.01025438     1.22772762
               1.48234092     1.78043706     2.12944203     2.53805004
               3.01644009     3.57652955     4.23227104     5.00000000

     Gradients computed in reciprocal space

     ************************************************************************


     Starting wfc are  654 randomized atomic wfcs

     total cpu time spent up to now is      173.6 secs

     Self-consistent Calculation

     iteration #  1     ecut=    50.00 Ry     beta=0.70
     Davidson diagonalization with overlap
     ethr =  1.00E-02,  avg # of iterations =  3.0

     Threshold (ethr) on eigenvalues was too large:
     Diagonalizing with lowered threshold

     Davidson diagonalization with overlap
     ethr =  4.29E-04,  avg # of iterations =  2.5

     negative rho (up, down):  1.948E+00 0.000E+00

     total cpu time spent up to now is      781.7 secs

     total energy              =   -7422.99757147 Ry
     Harris-Foulkes estimate   =   -7426.08605995 Ry
     estimated scf accuracy    <       3.80964665 Ry

     iteration #  2     ecut=    50.00 Ry     beta=0.70
     Davidson diagonalization with overlap
     ethr =  4.76E-04,  avg # of iterations = 11.3

     negative rho (up, down):  1.942E+00 0.000E+00

     total cpu time spent up to now is     1824.3 secs

     total energy              =   -7414.85847164 Ry
     Harris-Foulkes estimate   =   -7432.74538527 Ry
     estimated scf accuracy    <      93.70107766 Ry

     iteration #  3     ecut=    50.00 Ry     beta=0.70
     Davidson diagonalization with overlap
     ethr =  4.76E-04,  avg # of iterations =  6.0

     negative rho (up, down):  1.954E+00 0.000E+00

     total cpu time spent up to now is     2519.3 secs

     total energy              =   -7424.01486007 Ry
     Harris-Foulkes estimate   =   -7425.93478772 Ry
     estimated scf accuracy    <       8.32801581 Ry

     iteration #  4     ecut=    50.00 Ry     beta=0.70
     Davidson diagonalization with overlap
     ethr =  4.76E-04,  avg # of iterations =  6.2

     negative rho (up, down):  1.955E+00 0.000E+00

     total cpu time spent up to now is     2896.1 secs

     total energy              =   -7424.75694053 Ry
     Harris-Foulkes estimate   =   -7425.69573614 Ry
     estimated scf accuracy    <       5.35883159 Ry

     iteration #  5     ecut=    50.00 Ry     beta=0.70
     Davidson diagonalization with overlap
     ethr =  4.76E-04,  avg # of iterations =  6.5

     negative rho (up, down):  1.964E+00 0.000E+00

     total cpu time spent up to now is     3262.5 secs

     total energy              =   -7425.09564064 Ry
     Harris-Foulkes estimate   =   -7425.57243563 Ry
     estimated scf accuracy    <       3.68724853 Ry

     iteration #  6     ecut=    50.00 Ry     beta=0.70
     Davidson diagonalization with overlap
     ethr =  4.61E-04,  avg # of iterations =  2.0

     negative rho (up, down):  1.969E+00 0.000E+00

     total cpu time spent up to now is     3522.1 secs

     total energy              =   -7425.28801419 Ry
     Harris-Foulkes estimate   =   -7425.32036140 Ry
     estimated scf accuracy    <       0.10087227 Ry

     iteration #  7     ecut=    50.00 Ry     beta=0.70
     Davidson diagonalization with overlap
     ethr =  1.26E-05,  avg # of iterations =  8.2

     negative rho (up, down):  1.971E+00 0.000E+00

     total cpu time spent up to now is     3997.7 secs

     total energy              =   -7425.27846166 Ry
     Harris-Foulkes estimate   =   -7425.32084808 Ry
     estimated scf accuracy    <       0.22122880 Ry

     iteration #  8     ecut=    50.00 Ry     beta=0.70
     Davidson diagonalization with overlap
     ethr =  1.26E-05,  avg # of iterations =  3.3

     negative rho (up, down):  1.972E+00 0.000E+00

     total cpu time spent up to now is     4312.8 secs

     total energy              =   -7425.28893877 Ry
     Harris-Foulkes estimate   =   -7425.30289209 Ry
     estimated scf accuracy    <       0.05194532 Ry

     iteration #  9     ecut=    50.00 Ry     beta=0.70
     Davidson diagonalization with overlap
     ethr =  6.49E-06,  avg # of iterations =  6.2

     negative rho (up, down):  1.972E+00 0.000E+00

     total cpu time spent up to now is     4683.6 secs

     total energy              =   -7425.28694406 Ry
     Harris-Foulkes estimate   =   -7425.29663158 Ry
     estimated scf accuracy    <       0.03498107 Ry

     iteration # 10     ecut=    50.00 Ry     beta=0.70
     Davidson diagonalization with overlap
     ethr =  4.37E-06,  avg # of iterations =  5.0

     negative rho (up, down):  1.974E+00 0.000E+00

     total cpu time spent up to now is     5021.5 secs

     total energy              =   -7425.28807009 Ry
     Harris-Foulkes estimate   =   -7425.29125194 Ry
     estimated scf accuracy    <       0.01014779 Ry

     iteration # 11     ecut=    50.00 Ry     beta=0.70
     Davidson diagonalization with overlap
     ethr =  1.27E-06,  avg # of iterations =  6.5

     negative rho (up, down):  1.974E+00 0.000E+00

     total cpu time spent up to now is     5396.1 secs

     total energy              =   -7425.28805379 Ry
     Harris-Foulkes estimate   =   -7425.28931011 Ry
     estimated scf accuracy    <       0.00532083 Ry

     iteration # 12     ecut=    50.00 Ry     beta=0.70
     Davidson diagonalization with overlap
     ethr =  6.65E-07,  avg # of iterations =  1.0

     negative rho (up, down):  1.975E+00 0.000E+00

     total cpu time spent up to now is     5663.9 secs

     total energy              =   -7425.28698754 Ry
     Harris-Foulkes estimate   =   -7425.28845692 Ry
     estimated scf accuracy    <       0.00208085 Ry

     iteration # 13     ecut=    50.00 Ry     beta=0.70
     Davidson diagonalization with overlap
     ethr =  2.60E-07,  avg # of iterations = 10.7

     negative rho (up, down):  1.974E+00 0.000E+00

     total cpu time spent up to now is     6099.3 secs

     total energy              =   -7425.28698994 Ry
     Harris-Foulkes estimate   =   -7425.28767148 Ry
     estimated scf accuracy    <       0.00245398 Ry

     iteration # 14     ecut=    50.00 Ry     beta=0.70
     Davidson diagonalization with overlap
     ethr =  2.60E-07,  avg # of iterations =  2.0

     negative rho (up, down):  1.974E+00 0.000E+00

     total cpu time spent up to now is     6399.6 secs

     total energy              =   -7425.28724435 Ry
     Harris-Foulkes estimate   =   -7425.28750129 Ry
     estimated scf accuracy    <       0.00116551 Ry

     iteration # 15     ecut=    50.00 Ry     beta=0.70
     Davidson diagonalization with overlap
     ethr =  1.46E-07,  avg # of iterations =  2.0

     negative rho (up, down):  1.974E+00 0.000E+00

     total cpu time spent up to now is     6666.9 secs

     total energy              =   -7425.28735150 Ry
     Harris-Foulkes estimate   =   -7425.28743976 Ry
     estimated scf accuracy    <       0.00033399 Ry

     iteration # 16     ecut=    50.00 Ry     beta=0.70
     Davidson diagonalization with overlap
     ethr =  4.17E-08,  avg # of iterations =  2.0

     negative rho (up, down):  1.974E+00 0.000E+00

     total cpu time spent up to now is     6963.7 secs

     total energy              =   -7425.28737341 Ry
     Harris-Foulkes estimate   =   -7425.28741467 Ry
     estimated scf accuracy    <       0.00019628 Ry

     iteration # 17     ecut=    50.00 Ry     beta=0.70
     Davidson diagonalization with overlap
     ethr =  2.45E-08,  avg # of iterations =  1.0

     negative rho (up, down):  1.974E+00 0.000E+00

     total cpu time spent up to now is     7235.0 secs

     total energy              =   -7425.28738730 Ry
     Harris-Foulkes estimate   =   -7425.28741402 Ry
     estimated scf accuracy    <       0.00020086 Ry

     iteration # 18     ecut=    50.00 Ry     beta=0.70
     Davidson diagonalization with overlap
     ethr =  2.45E-08,  avg # of iterations =  1.0

     negative rho (up, down):  1.974E+00 0.000E+00

     total cpu time spent up to now is     7498.7 secs

     total energy              =   -7425.28740024 Ry
     Harris-Foulkes estimate   =   -7425.28740207 Ry
     estimated scf accuracy    <       0.00000681 Ry

     iteration # 19     ecut=    50.00 Ry     beta=0.70
     Davidson diagonalization with overlap
     ethr =  8.51E-10,  avg # of iterations =  3.0

     negative rho (up, down):  1.974E+00 0.000E+00

     total cpu time spent up to now is     7851.8 secs

     total energy              =   -7425.28740127 Ry
     Harris-Foulkes estimate   =   -7425.28740223 Ry
     estimated scf accuracy    <       0.00000302 Ry

     iteration # 20     ecut=    50.00 Ry     beta=0.70
     Davidson diagonalization with overlap
     ethr =  3.78E-10,  avg # of iterations =  2.0

     negative rho (up, down):  1.974E+00 0.000E+00

     total cpu time spent up to now is     8182.5 secs

     total energy              =   -7425.28740178 Ry
     Harris-Foulkes estimate   =   -7425.28740213 Ry
     estimated scf accuracy    <       0.00000184 Ry

     iteration # 21     ecut=    50.00 Ry     beta=0.70
     Davidson diagonalization with overlap
     ethr =  2.30E-10,  avg # of iterations =  2.0

     negative rho (up, down):  1.974E+00 0.000E+00

     total cpu time spent up to now is     8480.8 secs

     total energy              =   -7425.28740201 Ry
     Harris-Foulkes estimate   =   -7425.28740220 Ry
     estimated scf accuracy    <       0.00000124 Ry

     iteration # 22     ecut=    50.00 Ry     beta=0.70
     Davidson diagonalization with overlap
     ethr =  1.55E-10,  avg # of iterations =  2.0

     negative rho (up, down):  1.974E+00 0.000E+00

     total cpu time spent up to now is     8770.6 secs

     total energy              =   -7425.28740213 Ry
     Harris-Foulkes estimate   =   -7425.28740226 Ry
     estimated scf accuracy    <       0.00000073 Ry

     iteration # 23     ecut=    50.00 Ry     beta=0.70
     Davidson diagonalization with overlap
     ethr =  9.11E-11,  avg # of iterations =  2.0

     negative rho (up, down):  1.974E+00 0.000E+00

     total cpu time spent up to now is     9074.5 secs

     total energy              =   -7425.28740222 Ry
     Harris-Foulkes estimate   =   -7425.28740222 Ry
     estimated scf accuracy    <       0.00000008 Ry

     iteration # 24     ecut=    50.00 Ry     beta=0.70
     Davidson diagonalization with overlap
     ethr =  1.01E-11,  avg # of iterations =  3.0

     negative rho (up, down):  1.974E+00 0.000E+00

     total cpu time spent up to now is     9434.7 secs

     total energy              =   -7425.28740223 Ry
     Harris-Foulkes estimate   =   -7425.28740226 Ry
     estimated scf accuracy    <       0.00000025 Ry

     iteration # 25     ecut=    50.00 Ry     beta=0.70
     Davidson diagonalization with overlap
     ethr =  1.01E-11,  avg # of iterations =  5.8

     negative rho (up, down):  1.974E+00 0.000E+00

     total cpu time spent up to now is     9788.0 secs

     total energy              =   -7425.28740228 Ry
     Harris-Foulkes estimate   =   -7425.28740226 Ry
     estimated scf accuracy    <       0.00000004 Ry

     iteration # 26     ecut=    50.00 Ry     beta=0.70
     Davidson diagonalization with overlap
     ethr =  5.55E-12,  avg # of iterations =  2.0

     negative rho (up, down):  1.974E+00 0.000E+00

     total cpu time spent up to now is    10072.0 secs

     total energy              =   -7425.28740229 Ry
     Harris-Foulkes estimate   =   -7425.28740229 Ry
     estimated scf accuracy    <       0.00000002 Ry

     iteration # 27     ecut=    50.00 Ry     beta=0.70
     Davidson diagonalization with overlap
     ethr =  2.71E-12,  avg # of iterations =  2.0

     negative rho (up, down):  1.974E+00 0.000E+00

     total cpu time spent up to now is    10353.6 secs

     total energy              =   -7425.28740229 Ry
     Harris-Foulkes estimate   =   -7425.28740229 Ry
     estimated scf accuracy    <       0.00000004 Ry

     iteration # 28     ecut=    50.00 Ry     beta=0.70
     Davidson diagonalization with overlap
     ethr =  2.71E-12,  avg # of iterations =  1.0

     negative rho (up, down):  1.974E+00 0.000E+00

     total cpu time spent up to now is    10613.9 secs

     End of self-consistent calculation

          k = 0.2500 0.2500 0.0833 (167653 PWs)   bands (ev):

   -19.2477  -7.0632  -6.8696  -6.3411  -6.3407  -5.9113  -5.5023  -5.4092
    -5.4088  -5.2130  -5.2130  -5.0954  -5.0947  -5.0166  -4.9936  -4.9206
    -4.8358  -4.8320  -4.7930  -4.7929  -4.6321  -4.6156  -4.6144  -4.6141
    -4.6071  -4.5515  -4.5514  -4.5396  -4.5393  -4.5026  -4.4899  -4.4894
    -4.4477  -4.4477  -4.4143  -4.4130  -4.3611  -4.3607  -4.3499  -4.3491
    -4.3436  -4.3305  -4.3304  -4.2892  -4.2712  -4.2710  -4.2641  -4.2639
    -4.2316  -4.1820  -4.1670  -4.1667  -4.1629  -4.1626  -4.1550  -4.1493
    -4.1490  -4.1489  -4.0839  -4.0833  -4.0341  -4.0336  -4.0214  -3.9954
    -3.9953  -3.9756  -3.9730  -3.9723  -3.9679  -3.9651  -3.9162  -3.9162
    -3.9032  -3.9029  -3.7979  -3.7974  -3.7917  -3.7912  -3.7542  -3.7450
    -3.7306  -3.7009  -3.7008  -3.6723  -3.6719  -3.6504  -3.6502  -3.6367
    -3.6363  -3.5818  -3.5816  -3.5633  -3.5474  -3.5361  -3.5347  -3.5346
    -3.5330  -3.5060  -3.5058  -3.4696  -3.4696  -3.4470  -3.4467  -3.4138
    -3.4136  -3.3954  -3.3681  -3.3680  -3.3307  -3.3305  -3.2951  -3.2877
    -3.2870  -3.2732  -3.2727  -3.2701  -3.2677  -3.2676  -3.2290  -3.2188
    -3.1781  -3.1781  -3.1703  -3.1607  -3.1601  -3.1586  -3.1342  -3.1342
    -3.1130  -3.1125  -3.1121  -3.0854  -3.0853  -3.0778  -3.0750  -3.0749
    -3.0388  -3.0346  -2.9993  -2.9989  -2.9982  -2.9953  -2.9952  -2.9162
    -2.9062  -2.9018  -2.9014  -2.9002  -2.8999  -2.8951  -2.8949  -2.8947
    -2.8946  -2.8850  -2.8772  -2.8601  -2.8575  -2.8568  -2.8565  -2.8418
    -2.8372  -2.7991  -2.7984  -2.7982  -2.7942  -2.7937  -2.7757  -2.7755
    -2.7666  -2.7666  -2.7645  -2.7048  -2.7047  -2.6994  -2.6994  -2.6942
    -2.6942  -2.6660  -2.6071  -2.6057  -2.6054  -2.6036  -2.5922  -2.5899
    -2.5851  -2.5742  -2.5740  -2.5373  -2.5367  -2.5282  -2.5277  -2.5271
    -2.5269  -2.4875  -2.4872  -2.4774  -2.4774  -2.4759  -2.4757  -2.4338
    -2.4178  -2.4123  -2.3590  -2.3587  -2.3402  -2.3385  -2.3333  -2.3333
    -2.2847  -2.2841  -2.2609  -2.2445  -2.2302  -2.2296  -2.2294  -2.2074
    -2.2073  -2.1976  -2.1811  -2.1402  -2.1397  -2.1260  -2.1255  -2.1255
    -2.1145  -2.1143  -2.0989  -2.0987  -2.0984  -2.0944  -2.0895  -2.0890
    -2.0886  -2.0768  -2.0764  -2.0588  -2.0586  -2.0565  -2.0503  -2.0475
    -2.0473  -2.0235  -2.0232  -2.0121  -2.0100  -2.0056  -2.0050  -1.9670
    -1.9331  -1.9327  -1.8974  -1.8802  -1.8799  -1.8692  -1.8689  -1.8456
    -1.8452  -1.8307  -1.8304  -1.8290  -1.8290  -1.8259  -1.8255  -1.7933
    -1.7933  -1.7930  -1.7470  -1.7467  -1.7070  -1.7066  -1.6595  -1.6594
    -1.6471  -1.6246  -1.6195  -1.6169  -1.6005  -1.5986  -1.5814  -1.5809
    -1.5764  -1.5758  -1.5745  -1.5741  -1.5736  -1.5712  -1.5510  -1.5509
    -1.5405  -1.5231  -1.5041  -1.5041  -1.4776  -1.4775  -1.4748  -1.4744
    -1.4713  -1.4686  -1.4468  -1.4464  -1.4319  -1.4311  -1.4186  -1.4084
    -1.3949  -1.3944  -1.3637  -1.3634  -1.3555  -1.3554  -1.3201  -1.3196
    -1.3116  -1.3112  -1.3027  -1.3024  -1.2810  -1.2807  -1.2688  -1.2622
    -1.2619  -1.2501  -1.2486  -1.2484  -1.2482  -1.2476  -1.2335  -1.2232
    -1.2223  -1.2152  -1.2150  -1.2030  -1.1984  -1.1981  -1.1915  -1.1521
    -1.1501  -1.1451  -1.1429  -1.1423  -1.1415  -1.1027  -1.0863  -1.0855
    -1.0853  -1.0852  -1.0806  -1.0806  -1.0756  -1.0629  -1.0604  -1.0239
    -1.0234  -1.0166  -1.0165  -0.9936  -0.9935  -0.9836  -0.9539  -0.9462
    -0.9189  -0.9186  -0.8907  -0.8907  -0.8881  -0.8869  -0.8859  -0.8820
    -0.8787  -0.8766  -0.8720  -0.8718  -0.8399  -0.8396  -0.8221  -0.8211
    -0.8162  -0.8159  -0.8145  -0.8143  -0.7956  -0.5191  -0.5096  -0.4546
    -0.4526  -0.4143  -0.2533  -0.1884  -0.1880  -0.1572   0.1308   0.1311
     0.4600   0.4620   0.5599   0.5600   0.6008   0.6018   0.7439   0.7452
     0.8686   0.8704   0.9561   1.5560   1.5739   1.5748   1.6138   1.6195
     1.6601   1.6661   1.7437   1.7448   1.9515   1.9520   2.1851   2.2657
     2.2679   2.2826   2.6602   2.6655   2.7374   2.7381   2.7442   2.7448
     2.8959   2.8969   2.9403   3.0380   3.0412   3.2716   3.2735   3.4064
     3.4333   3.4342   3.7032   3.7059   3.8173   3.8368   3.8370   3.8823
     3.9181   4.0235   4.0247   4.2605   4.2616   4.3461   4.3499   4.4741
     4.4767   4.4928   4.5003   4.6038   4.7821   5.2967   5.3015   5.4038
     5.4067   5.4534   5.5845   5.5863   5.6238   5.6853   5.6928   5.7031
     5.7090   5.7539   5.7549   5.7978   5.9359   6.0292   6.0444   6.0669
     6.0830   6.0932   6.0971   6.1060   6.1067   6.1206   6.1226   6.1744

          k = 0.2500 0.2500-0.2500 (167588 PWs)   bands (ev):

   -19.2477  -7.0632  -6.8696  -6.3411  -6.3407  -5.9113  -5.5023  -5.4092
    -5.4088  -5.2130  -5.2130  -5.0954  -5.0947  -5.0166  -4.9936  -4.9206
    -4.8358  -4.8320  -4.7930  -4.7929  -4.6321  -4.6156  -4.6144  -4.6141
    -4.6071  -4.5515  -4.5514  -4.5396  -4.5393  -4.5026  -4.4899  -4.4894
    -4.4477  -4.4477  -4.4143  -4.4130  -4.3611  -4.3607  -4.3499  -4.3491
    -4.3436  -4.3305  -4.3304  -4.2892  -4.2712  -4.2710  -4.2641  -4.2639
    -4.2316  -4.1820  -4.1670  -4.1667  -4.1629  -4.1626  -4.1550  -4.1493
    -4.1490  -4.1489  -4.0839  -4.0833  -4.0341  -4.0336  -4.0214  -3.9954
    -3.9953  -3.9756  -3.9730  -3.9723  -3.9679  -3.9651  -3.9162  -3.9162
    -3.9032  -3.9029  -3.7979  -3.7974  -3.7917  -3.7912  -3.7542  -3.7450
    -3.7306  -3.7009  -3.7008  -3.6723  -3.6719  -3.6504  -3.6502  -3.6367
    -3.6363  -3.5818  -3.5816  -3.5633  -3.5474  -3.5361  -3.5347  -3.5345
    -3.5330  -3.5060  -3.5058  -3.4696  -3.4695  -3.4470  -3.4467  -3.4138
    -3.4136  -3.3954  -3.3681  -3.3680  -3.3307  -3.3305  -3.2951  -3.2877
    -3.2870  -3.2732  -3.2727  -3.2701  -3.2677  -3.2676  -3.2290  -3.2188
    -3.1781  -3.1781  -3.1703  -3.1607  -3.1601  -3.1586  -3.1342  -3.1342
    -3.1130  -3.1125  -3.1121  -3.0853  -3.0853  -3.0778  -3.0749  -3.0749
    -3.0388  -3.0346  -2.9993  -2.9989  -2.9982  -2.9953  -2.9952  -2.9162
    -2.9062  -2.9018  -2.9014  -2.9002  -2.8999  -2.8951  -2.8949  -2.8947
    -2.8945  -2.8850  -2.8772  -2.8601  -2.8575  -2.8568  -2.8565  -2.8418
    -2.8372  -2.7991  -2.7984  -2.7982  -2.7942  -2.7937  -2.7757  -2.7755
    -2.7666  -2.7666  -2.7645  -2.7048  -2.7047  -2.6994  -2.6994  -2.6942
    -2.6942  -2.6660  -2.6071  -2.6057  -2.6054  -2.6036  -2.5922  -2.5899
    -2.5851  -2.5742  -2.5740  -2.5373  -2.5367  -2.5282  -2.5277  -2.5271
    -2.5269  -2.4875  -2.4872  -2.4774  -2.4774  -2.4759  -2.4757  -2.4338
    -2.4178  -2.4123  -2.3590  -2.3587  -2.3402  -2.3385  -2.3334  -2.3333
    -2.2847  -2.2841  -2.2610  -2.2445  -2.2302  -2.2296  -2.2294  -2.2074
    -2.2073  -2.1976  -2.1811  -2.1402  -2.1397  -2.1260  -2.1255  -2.1255
    -2.1145  -2.1143  -2.0989  -2.0987  -2.0984  -2.0944  -2.0895  -2.0890
    -2.0886  -2.0768  -2.0764  -2.0588  -2.0586  -2.0565  -2.0503  -2.0475
    -2.0473  -2.0235  -2.0233  -2.0121  -2.0100  -2.0056  -2.0050  -1.9670
    -1.9331  -1.9327  -1.8974  -1.8802  -1.8799  -1.8692  -1.8689  -1.8456
    -1.8452  -1.8307  -1.8304  -1.8290  -1.8290  -1.8258  -1.8255  -1.7933
    -1.7933  -1.7930  -1.7470  -1.7467  -1.7070  -1.7066  -1.6595  -1.6594
    -1.6472  -1.6246  -1.6195  -1.6169  -1.6005  -1.5986  -1.5814  -1.5809
    -1.5764  -1.5758  -1.5745  -1.5741  -1.5736  -1.5712  -1.5510  -1.5509
    -1.5405  -1.5231  -1.5041  -1.5041  -1.4776  -1.4775  -1.4748  -1.4743
    -1.4713  -1.4686  -1.4468  -1.4464  -1.4319  -1.4311  -1.4186  -1.4084
    -1.3949  -1.3944  -1.3637  -1.3634  -1.3555  -1.3554  -1.3201  -1.3196
    -1.3116  -1.3112  -1.3027  -1.3024  -1.2810  -1.2807  -1.2688  -1.2622
    -1.2619  -1.2501  -1.2486  -1.2484  -1.2482  -1.2476  -1.2335  -1.2232
    -1.2223  -1.2151  -1.2150  -1.2030  -1.1984  -1.1981  -1.1915  -1.1522
    -1.1501  -1.1451  -1.1429  -1.1423  -1.1414  -1.1027  -1.0863  -1.0855
    -1.0853  -1.0852  -1.0806  -1.0806  -1.0756  -1.0629  -1.0604  -1.0239
    -1.0234  -1.0166  -1.0165  -0.9936  -0.9934  -0.9836  -0.9539  -0.9462
    -0.9189  -0.9186  -0.8907  -0.8907  -0.8881  -0.8869  -0.8859  -0.8820
    -0.8787  -0.8766  -0.8720  -0.8718  -0.8399  -0.8396  -0.8221  -0.8211
    -0.8162  -0.8159  -0.8145  -0.8143  -0.7956  -0.5191  -0.5096  -0.4546
    -0.4526  -0.4143  -0.2533  -0.1884  -0.1880  -0.1572   0.1308   0.1311
     0.4600   0.4620   0.5599   0.5600   0.6008   0.6018   0.7439   0.7452
     0.8686   0.8704   0.9561   1.5560   1.5739   1.5749   1.6138   1.6195
     1.6601   1.6661   1.7437   1.7448   1.9515   1.9520   2.1851   2.2657
     2.2679   2.2826   2.6602   2.6655   2.7374   2.7381   2.7442   2.7448
     2.8959   2.8968   2.9403   3.0380   3.0412   3.2716   3.2735   3.4064
     3.4333   3.4342   3.7032   3.7059   3.8173   3.8368   3.8370   3.8825
     3.9182   4.0235   4.0247   4.2605   4.2616   4.3460   4.3499   4.4741
     4.4767   4.4928   4.5003   4.6034   4.7790   5.2944   5.3017   5.4028
     5.4067   5.4515   5.5845   5.5863   5.6390   5.6787   5.6994   5.7029
     5.7343   5.7539   5.7549   5.7979   5.9470   6.0101   6.0494   6.0666
     6.0830   6.0928   6.0972   6.1060   6.1067   6.1081   6.1512   6.1658

          k =-0.2500-0.2500 0.0833 (167653 PWs)   bands (ev):

   -19.2477  -7.0632  -6.8696  -6.3411  -6.3407  -5.9113  -5.5023  -5.4092
    -5.4088  -5.2130  -5.2130  -5.0954  -5.0947  -5.0166  -4.9936  -4.9206
    -4.8358  -4.8320  -4.7930  -4.7929  -4.6321  -4.6156  -4.6144  -4.6141
    -4.6071  -4.5515  -4.5514  -4.5396  -4.5393  -4.5026  -4.4899  -4.4894
    -4.4477  -4.4477  -4.4143  -4.4130  -4.3611  -4.3607  -4.3499  -4.3491
    -4.3436  -4.3305  -4.3304  -4.2892  -4.2712  -4.2710  -4.2641  -4.2639
    -4.2316  -4.1820  -4.1670  -4.1667  -4.1629  -4.1626  -4.1550  -4.1493
    -4.1490  -4.1489  -4.0839  -4.0833  -4.0341  -4.0336  -4.0214  -3.9954
    -3.9953  -3.9756  -3.9730  -3.9723  -3.9679  -3.9651  -3.9162  -3.9162
    -3.9032  -3.9029  -3.7979  -3.7974  -3.7917  -3.7912  -3.7542  -3.7450
    -3.7306  -3.7009  -3.7008  -3.6723  -3.6719  -3.6504  -3.6502  -3.6367
    -3.6363  -3.5818  -3.5816  -3.5633  -3.5474  -3.5361  -3.5347  -3.5346
    -3.5330  -3.5060  -3.5058  -3.4696  -3.4696  -3.4470  -3.4467  -3.4138
    -3.4136  -3.3954  -3.3681  -3.3680  -3.3307  -3.3305  -3.2951  -3.2877
    -3.2870  -3.2732  -3.2727  -3.2701  -3.2677  -3.2676  -3.2290  -3.2188
    -3.1781  -3.1781  -3.1703  -3.1607  -3.1601  -3.1586  -3.1342  -3.1342
    -3.1130  -3.1125  -3.1121  -3.0854  -3.0853  -3.0778  -3.0750  -3.0749
    -3.0388  -3.0346  -2.9993  -2.9989  -2.9982  -2.9953  -2.9952  -2.9162
    -2.9062  -2.9018  -2.9014  -2.9002  -2.8999  -2.8951  -2.8949  -2.8947
    -2.8946  -2.8850  -2.8772  -2.8601  -2.8575  -2.8568  -2.8565  -2.8418
    -2.8372  -2.7991  -2.7984  -2.7982  -2.7942  -2.7937  -2.7757  -2.7755
    -2.7666  -2.7666  -2.7645  -2.7048  -2.7047  -2.6994  -2.6994  -2.6942
    -2.6942  -2.6660  -2.6071  -2.6057  -2.6054  -2.6036  -2.5922  -2.5899
    -2.5851  -2.5742  -2.5740  -2.5373  -2.5367  -2.5282  -2.5277  -2.5271
    -2.5269  -2.4875  -2.4872  -2.4774  -2.4774  -2.4759  -2.4757  -2.4338
    -2.4178  -2.4123  -2.3590  -2.3587  -2.3402  -2.3385  -2.3333  -2.3333
    -2.2847  -2.2841  -2.2609  -2.2445  -2.2302  -2.2296  -2.2294  -2.2074
    -2.2073  -2.1976  -2.1811  -2.1402  -2.1397  -2.1260  -2.1255  -2.1255
    -2.1145  -2.1143  -2.0989  -2.0987  -2.0984  -2.0944  -2.0895  -2.0890
    -2.0886  -2.0768  -2.0764  -2.0588  -2.0586  -2.0565  -2.0503  -2.0475
    -2.0473  -2.0235  -2.0232  -2.0121  -2.0100  -2.0056  -2.0050  -1.9670
    -1.9331  -1.9327  -1.8974  -1.8802  -1.8799  -1.8692  -1.8689  -1.8456
    -1.8452  -1.8307  -1.8304  -1.8290  -1.8290  -1.8259  -1.8255  -1.7933
    -1.7933  -1.7930  -1.7470  -1.7467  -1.7070  -1.7066  -1.6595  -1.6594
    -1.6471  -1.6246  -1.6195  -1.6169  -1.6005  -1.5986  -1.5814  -1.5809
    -1.5764  -1.5758  -1.5745  -1.5741  -1.5736  -1.5712  -1.5510  -1.5509
    -1.5405  -1.5231  -1.5041  -1.5041  -1.4776  -1.4775  -1.4748  -1.4744
    -1.4713  -1.4686  -1.4468  -1.4464  -1.4319  -1.4311  -1.4186  -1.4084
    -1.3949  -1.3944  -1.3637  -1.3634  -1.3555  -1.3554  -1.3201  -1.3196
    -1.3116  -1.3112  -1.3027  -1.3024  -1.2810  -1.2807  -1.2688  -1.2622
    -1.2619  -1.2501  -1.2486  -1.2484  -1.2482  -1.2476  -1.2335  -1.2232
    -1.2223  -1.2152  -1.2150  -1.2030  -1.1984  -1.1981  -1.1915  -1.1521
    -1.1501  -1.1451  -1.1429  -1.1423  -1.1415  -1.1027  -1.0863  -1.0855
    -1.0853  -1.0852  -1.0806  -1.0806  -1.0756  -1.0629  -1.0604  -1.0239
    -1.0234  -1.0166  -1.0165  -0.9936  -0.9935  -0.9836  -0.9539  -0.9462
    -0.9189  -0.9186  -0.8907  -0.8907  -0.8881  -0.8869  -0.8859  -0.8820
    -0.8787  -0.8766  -0.8720  -0.8718  -0.8399  -0.8396  -0.8221  -0.8211
    -0.8162  -0.8159  -0.8145  -0.8143  -0.7956  -0.5191  -0.5096  -0.4546
    -0.4526  -0.4143  -0.2533  -0.1884  -0.1880  -0.1572   0.1308   0.1311
     0.4600   0.4620   0.5599   0.5600   0.6008   0.6018   0.7439   0.7452
     0.8686   0.8704   0.9561   1.5560   1.5739   1.5748   1.6138   1.6195
     1.6601   1.6661   1.7437   1.7448   1.9515   1.9520   2.1851   2.2657
     2.2679   2.2826   2.6602   2.6655   2.7374   2.7381   2.7442   2.7448
     2.8959   2.8969   2.9403   3.0380   3.0412   3.2716   3.2735   3.4064
     3.4333   3.4342   3.7032   3.7059   3.8173   3.8368   3.8370   3.8823
     3.9181   4.0235   4.0247   4.2605   4.2616   4.3461   4.3499   4.4741
     4.4767   4.4928   4.5003   4.6037   4.7822   5.2968   5.3015   5.4039
     5.4067   5.4557   5.5844   5.5863   5.6208   5.6835   5.6928   5.7030
     5.7089   5.7539   5.7549   5.7980   5.9324   6.0335   6.0443   6.0670
     6.0830   6.0933   6.0971   6.1060   6.1067   6.1205   6.1298   6.1747

          k =-0.2500 0.2500-0.0833 (167653 PWs)   bands (ev):

   -19.2477  -7.0632  -6.8696  -6.3411  -6.3407  -5.9113  -5.5023  -5.4092
    -5.4088  -5.2130  -5.2130  -5.0953  -5.0947  -5.0166  -4.9936  -4.9206
    -4.8358  -4.8320  -4.7930  -4.7929  -4.6321  -4.6156  -4.6144  -4.6141
    -4.6071  -4.5515  -4.5514  -4.5396  -4.5393  -4.5026  -4.4899  -4.4895
    -4.4477  -4.4477  -4.4143  -4.4130  -4.3611  -4.3607  -4.3499  -4.3491
    -4.3436  -4.3305  -4.3305  -4.2892  -4.2712  -4.2710  -4.2641  -4.2639
    -4.2316  -4.1820  -4.1670  -4.1667  -4.1629  -4.1626  -4.1550  -4.1493
    -4.1490  -4.1489  -4.0839  -4.0833  -4.0341  -4.0337  -4.0214  -3.9954
    -3.9953  -3.9755  -3.9730  -3.9723  -3.9679  -3.9651  -3.9162  -3.9162
    -3.9032  -3.9029  -3.7979  -3.7974  -3.7917  -3.7913  -3.7542  -3.7450
    -3.7306  -3.7009  -3.7008  -3.6723  -3.6720  -3.6504  -3.6502  -3.6367
    -3.6363  -3.5818  -3.5816  -3.5633  -3.5474  -3.5361  -3.5347  -3.5345
    -3.5330  -3.5060  -3.5058  -3.4696  -3.4696  -3.4470  -3.4467  -3.4139
    -3.4136  -3.3954  -3.3681  -3.3680  -3.3307  -3.3305  -3.2951  -3.2877
    -3.2870  -3.2731  -3.2727  -3.2703  -3.2677  -3.2676  -3.2290  -3.2188
    -3.1781  -3.1781  -3.1703  -3.1607  -3.1601  -3.1587  -3.1342  -3.1342
    -3.1130  -3.1125  -3.1120  -3.0854  -3.0853  -3.0778  -3.0750  -3.0749
    -3.0388  -3.0346  -2.9993  -2.9990  -2.9982  -2.9953  -2.9952  -2.9162
    -2.9061  -2.9018  -2.9014  -2.9001  -2.8999  -2.8951  -2.8949  -2.8948
    -2.8945  -2.8850  -2.8772  -2.8601  -2.8575  -2.8569  -2.8565  -2.8418
    -2.8373  -2.7991  -2.7984  -2.7982  -2.7942  -2.7938  -2.7757  -2.7755
    -2.7666  -2.7666  -2.7645  -2.7047  -2.7047  -2.6994  -2.6993  -2.6943
    -2.6941  -2.6660  -2.6070  -2.6058  -2.6054  -2.6036  -2.5922  -2.5899
    -2.5851  -2.5742  -2.5740  -2.5372  -2.5367  -2.5282  -2.5277  -2.5272
    -2.5269  -2.4875  -2.4872  -2.4774  -2.4774  -2.4759  -2.4757  -2.4338
    -2.4178  -2.4123  -2.3590  -2.3587  -2.3402  -2.3385  -2.3334  -2.3332
    -2.2847  -2.2841  -2.2609  -2.2444  -2.2302  -2.2296  -2.2294  -2.2074
    -2.2073  -2.1976  -2.1811  -2.1401  -2.1397  -2.1259  -2.1255  -2.1254
    -2.1145  -2.1143  -2.0989  -2.0987  -2.0983  -2.0944  -2.0894  -2.0890
    -2.0887  -2.0767  -2.0765  -2.0587  -2.0586  -2.0565  -2.0503  -2.0475
    -2.0473  -2.0235  -2.0233  -2.0121  -2.0100  -2.0056  -2.0050  -1.9670
    -1.9331  -1.9327  -1.8974  -1.8801  -1.8799  -1.8693  -1.8688  -1.8457
    -1.8452  -1.8308  -1.8304  -1.8290  -1.8289  -1.8259  -1.8254  -1.7933
    -1.7932  -1.7930  -1.7470  -1.7467  -1.7069  -1.7067  -1.6595  -1.6594
    -1.6471  -1.6246  -1.6195  -1.6169  -1.6005  -1.5986  -1.5814  -1.5810
    -1.5764  -1.5758  -1.5745  -1.5741  -1.5736  -1.5712  -1.5510  -1.5509
    -1.5405  -1.5231  -1.5041  -1.5041  -1.4776  -1.4775  -1.4747  -1.4744
    -1.4713  -1.4686  -1.4468  -1.4464  -1.4319  -1.4311  -1.4186  -1.4084
    -1.3948  -1.3945  -1.3637  -1.3634  -1.3555  -1.3553  -1.3200  -1.3196
    -1.3116  -1.3113  -1.3027  -1.3024  -1.2810  -1.2807  -1.2688  -1.2622
    -1.2619  -1.2506  -1.2488  -1.2483  -1.2479  -1.2472  -1.2335  -1.2232
    -1.2223  -1.2151  -1.2150  -1.2030  -1.1983  -1.1982  -1.1915  -1.1522
    -1.1500  -1.1451  -1.1429  -1.1423  -1.1414  -1.1027  -1.0863  -1.0856
    -1.0853  -1.0852  -1.0808  -1.0805  -1.0756  -1.0629  -1.0604  -1.0239
    -1.0235  -1.0165  -1.0165  -0.9936  -0.9934  -0.9836  -0.9539  -0.9462
    -0.9189  -0.9186  -0.8908  -0.8906  -0.8881  -0.8869  -0.8859  -0.8820
    -0.8787  -0.8766  -0.8720  -0.8718  -0.8399  -0.8396  -0.8221  -0.8211
    -0.8162  -0.8159  -0.8145  -0.8143  -0.7956  -0.5191  -0.5096  -0.4545
    -0.4526  -0.4143  -0.2533  -0.1884  -0.1880  -0.1572   0.1309   0.1310
     0.4601   0.4620   0.5599   0.5600   0.6009   0.6018   0.7443   0.7449
     0.8685   0.8704   0.9561   1.5560   1.5740   1.5748   1.6136   1.6195
     1.6603   1.6659   1.7440   1.7446   1.9516   1.9519   2.1850   2.2657
     2.2679   2.2826   2.6602   2.6654   2.7374   2.7381   2.7442   2.7448
     2.8959   2.8968   2.9404   3.0390   3.0405   3.2716   3.2741   3.4064
     3.4334   3.4339   3.7040   3.7053   3.8160   3.8368   3.8369   3.8836
     3.9177   4.0236   4.0247   4.2606   4.2616   4.3461   4.3498   4.4737
     4.4774   4.4901   4.5001   4.6015   4.7865   5.2979   5.3015   5.4045
     5.4066   5.4552   5.5850   5.5859   5.6237   5.6791   5.6950   5.7028
     5.7112   5.7543   5.7548   5.7985   5.9360   6.0236   6.0471   6.0673
     6.0829   6.0941   6.0971   6.1060   6.1064   6.1197   6.1292   6.1744

          k = 0.2500-0.2500-0.0833 (167653 PWs)   bands (ev):

   -19.2477  -7.0632  -6.8696  -6.3411  -6.3407  -5.9113  -5.5023  -5.4092
    -5.4088  -5.2130  -5.2130  -5.0953  -5.0947  -5.0166  -4.9936  -4.9206
    -4.8358  -4.8320  -4.7930  -4.7929  -4.6321  -4.6156  -4.6144  -4.6141
    -4.6071  -4.5515  -4.5514  -4.5396  -4.5393  -4.5026  -4.4899  -4.4895
    -4.4477  -4.4477  -4.4143  -4.4130  -4.3611  -4.3607  -4.3499  -4.3491
    -4.3436  -4.3305  -4.3305  -4.2892  -4.2712  -4.2710  -4.2641  -4.2639
    -4.2316  -4.1820  -4.1670  -4.1667  -4.1629  -4.1626  -4.1550  -4.1493
    -4.1490  -4.1489  -4.0839  -4.0833  -4.0341  -4.0337  -4.0214  -3.9954
    -3.9953  -3.9755  -3.9730  -3.9723  -3.9679  -3.9651  -3.9162  -3.9162
    -3.9032  -3.9029  -3.7979  -3.7974  -3.7917  -3.7913  -3.7542  -3.7450
    -3.7306  -3.7009  -3.7008  -3.6723  -3.6720  -3.6504  -3.6502  -3.6367
    -3.6363  -3.5818  -3.5816  -3.5633  -3.5474  -3.5361  -3.5347  -3.5345
    -3.5330  -3.5060  -3.5058  -3.4696  -3.4696  -3.4470  -3.4467  -3.4139
    -3.4136  -3.3954  -3.3681  -3.3680  -3.3307  -3.3305  -3.2951  -3.2877
    -3.2870  -3.2731  -3.2727  -3.2703  -3.2677  -3.2676  -3.2290  -3.2188
    -3.1781  -3.1781  -3.1703  -3.1607  -3.1601  -3.1587  -3.1342  -3.1342
    -3.1130  -3.1125  -3.1120  -3.0854  -3.0853  -3.0778  -3.0750  -3.0749
    -3.0388  -3.0346  -2.9993  -2.9990  -2.9982  -2.9953  -2.9952  -2.9162
    -2.9061  -2.9018  -2.9014  -2.9001  -2.8999  -2.8951  -2.8949  -2.8948
    -2.8945  -2.8850  -2.8772  -2.8601  -2.8575  -2.8569  -2.8565  -2.8418
    -2.8373  -2.7991  -2.7984  -2.7982  -2.7942  -2.7938  -2.7757  -2.7755
    -2.7666  -2.7666  -2.7645  -2.7047  -2.7047  -2.6994  -2.6993  -2.6943
    -2.6941  -2.6660  -2.6070  -2.6058  -2.6054  -2.6036  -2.5922  -2.5899
    -2.5851  -2.5742  -2.5740  -2.5372  -2.5367  -2.5282  -2.5277  -2.5272
    -2.5269  -2.4875  -2.4872  -2.4774  -2.4774  -2.4759  -2.4757  -2.4338
    -2.4178  -2.4123  -2.3590  -2.3587  -2.3402  -2.3385  -2.3334  -2.3332
    -2.2847  -2.2841  -2.2609  -2.2444  -2.2302  -2.2296  -2.2294  -2.2074
    -2.2073  -2.1976  -2.1811  -2.1401  -2.1397  -2.1259  -2.1255  -2.1254
    -2.1145  -2.1143  -2.0989  -2.0987  -2.0983  -2.0944  -2.0894  -2.0890
    -2.0887  -2.0767  -2.0765  -2.0587  -2.0586  -2.0565  -2.0503  -2.0475
    -2.0473  -2.0235  -2.0233  -2.0121  -2.0100  -2.0056  -2.0050  -1.9670
    -1.9331  -1.9327  -1.8974  -1.8801  -1.8799  -1.8693  -1.8688  -1.8457
    -1.8452  -1.8308  -1.8304  -1.8290  -1.8289  -1.8259  -1.8254  -1.7933
    -1.7932  -1.7930  -1.7470  -1.7467  -1.7069  -1.7067  -1.6595  -1.6594
    -1.6471  -1.6246  -1.6195  -1.6169  -1.6005  -1.5986  -1.5814  -1.5810
    -1.5764  -1.5758  -1.5745  -1.5741  -1.5736  -1.5712  -1.5510  -1.5509
    -1.5405  -1.5231  -1.5041  -1.5041  -1.4776  -1.4775  -1.4747  -1.4744
    -1.4713  -1.4686  -1.4468  -1.4464  -1.4319  -1.4311  -1.4186  -1.4084
    -1.3948  -1.3945  -1.3637  -1.3634  -1.3555  -1.3553  -1.3200  -1.3196
    -1.3116  -1.3113  -1.3027  -1.3024  -1.2810  -1.2807  -1.2688  -1.2622
    -1.2619  -1.2506  -1.2488  -1.2483  -1.2479  -1.2472  -1.2335  -1.2232
    -1.2223  -1.2151  -1.2150  -1.2030  -1.1983  -1.1982  -1.1915  -1.1522
    -1.1500  -1.1451  -1.1429  -1.1423  -1.1414  -1.1027  -1.0863  -1.0856
    -1.0853  -1.0852  -1.0808  -1.0805  -1.0756  -1.0629  -1.0604  -1.0239
    -1.0235  -1.0165  -1.0165  -0.9936  -0.9934  -0.9836  -0.9539  -0.9462
    -0.9189  -0.9186  -0.8908  -0.8906  -0.8881  -0.8869  -0.8859  -0.8820
    -0.8787  -0.8766  -0.8720  -0.8718  -0.8399  -0.8396  -0.8221  -0.8211
    -0.8162  -0.8159  -0.8145  -0.8143  -0.7956  -0.5191  -0.5096  -0.4545
    -0.4526  -0.4143  -0.2533  -0.1884  -0.1880  -0.1572   0.1309   0.1310
     0.4601   0.4620   0.5599   0.5600   0.6009   0.6018   0.7443   0.7449
     0.8685   0.8704   0.9561   1.5560   1.5740   1.5748   1.6136   1.6195
     1.6603   1.6659   1.7440   1.7446   1.9516   1.9519   2.1850   2.2657
     2.2679   2.2826   2.6602   2.6654   2.7374   2.7381   2.7442   2.7448
     2.8959   2.8968   2.9404   3.0390   3.0405   3.2716   3.2741   3.4064
     3.4334   3.4339   3.7040   3.7053   3.8160   3.8368   3.8369   3.8836
     3.9177   4.0236   4.0247   4.2606   4.2616   4.3461   4.3498   4.4737
     4.4774   4.4901   4.5001   4.6015   4.7865   5.2979   5.3014   5.4045
     5.4066   5.4554   5.5850   5.5859   5.6235   5.6790   5.6950   5.7028
     5.7111   5.7543   5.7548   5.7985   5.9357   6.0238   6.0472   6.0673
     6.0829   6.0941   6.0971   6.1060   6.1065   6.1200   6.1299   6.1744

          k =-0.2500 0.2500 0.2500 (167588 PWs)   bands (ev):

   -19.2477  -7.0632  -6.8696  -6.3411  -6.3407  -5.9113  -5.5023  -5.4092
    -5.4088  -5.2130  -5.2130  -5.0953  -5.0947  -5.0166  -4.9936  -4.9206
    -4.8358  -4.8320  -4.7930  -4.7929  -4.6321  -4.6156  -4.6144  -4.6141
    -4.6071  -4.5515  -4.5514  -4.5396  -4.5393  -4.5026  -4.4899  -4.4895
    -4.4477  -4.4477  -4.4143  -4.4130  -4.3611  -4.3607  -4.3499  -4.3491
    -4.3436  -4.3305  -4.3305  -4.2892  -4.2712  -4.2710  -4.2641  -4.2639
    -4.2316  -4.1820  -4.1670  -4.1667  -4.1629  -4.1626  -4.1550  -4.1493
    -4.1490  -4.1489  -4.0839  -4.0833  -4.0341  -4.0337  -4.0214  -3.9954
    -3.9953  -3.9755  -3.9730  -3.9723  -3.9679  -3.9651  -3.9162  -3.9162
    -3.9032  -3.9029  -3.7979  -3.7974  -3.7917  -3.7913  -3.7542  -3.7450
    -3.7306  -3.7009  -3.7008  -3.6723  -3.6720  -3.6504  -3.6502  -3.6367
    -3.6363  -3.5818  -3.5816  -3.5633  -3.5474  -3.5361  -3.5347  -3.5345
    -3.5330  -3.5060  -3.5058  -3.4696  -3.4696  -3.4470  -3.4467  -3.4138
    -3.4136  -3.3954  -3.3681  -3.3680  -3.3307  -3.3305  -3.2951  -3.2877
    -3.2870  -3.2731  -3.2727  -3.2703  -3.2677  -3.2676  -3.2290  -3.2188
    -3.1781  -3.1781  -3.1703  -3.1607  -3.1601  -3.1587  -3.1342  -3.1342
    -3.1130  -3.1125  -3.1120  -3.0853  -3.0853  -3.0778  -3.0750  -3.0749
    -3.0388  -3.0346  -2.9993  -2.9990  -2.9982  -2.9953  -2.9952  -2.9162
    -2.9061  -2.9018  -2.9014  -2.9001  -2.8999  -2.8951  -2.8949  -2.8948
    -2.8945  -2.8850  -2.8772  -2.8601  -2.8575  -2.8569  -2.8565  -2.8418
    -2.8373  -2.7991  -2.7984  -2.7982  -2.7942  -2.7938  -2.7757  -2.7755
    -2.7666  -2.7666  -2.7645  -2.7047  -2.7047  -2.6994  -2.6993  -2.6943
    -2.6941  -2.6660  -2.6070  -2.6058  -2.6054  -2.6036  -2.5922  -2.5899
    -2.5851  -2.5742  -2.5740  -2.5372  -2.5367  -2.5282  -2.5277  -2.5272
    -2.5269  -2.4875  -2.4872  -2.4774  -2.4774  -2.4759  -2.4757  -2.4338
    -2.4178  -2.4123  -2.3590  -2.3587  -2.3402  -2.3385  -2.3334  -2.3332
    -2.2847  -2.2841  -2.2610  -2.2445  -2.2302  -2.2296  -2.2294  -2.2074
    -2.2073  -2.1976  -2.1811  -2.1401  -2.1397  -2.1259  -2.1255  -2.1254
    -2.1145  -2.1143  -2.0989  -2.0987  -2.0983  -2.0944  -2.0894  -2.0890
    -2.0887  -2.0767  -2.0765  -2.0587  -2.0586  -2.0565  -2.0504  -2.0475
    -2.0473  -2.0235  -2.0233  -2.0121  -2.0100  -2.0056  -2.0050  -1.9670
    -1.9331  -1.9327  -1.8974  -1.8801  -1.8799  -1.8693  -1.8688  -1.8456
    -1.8452  -1.8308  -1.8304  -1.8290  -1.8289  -1.8259  -1.8254  -1.7933
    -1.7932  -1.7930  -1.7470  -1.7467  -1.7069  -1.7067  -1.6595  -1.6594
    -1.6472  -1.6246  -1.6195  -1.6169  -1.6005  -1.5986  -1.5814  -1.5810
    -1.5764  -1.5758  -1.5745  -1.5741  -1.5736  -1.5712  -1.5510  -1.5509
    -1.5405  -1.5231  -1.5041  -1.5041  -1.4776  -1.4775  -1.4747  -1.4744
    -1.4713  -1.4686  -1.4468  -1.4464  -1.4319  -1.4311  -1.4186  -1.4084
    -1.3948  -1.3945  -1.3637  -1.3634  -1.3555  -1.3553  -1.3200  -1.3196
    -1.3116  -1.3113  -1.3027  -1.3024  -1.2810  -1.2807  -1.2688  -1.2622
    -1.2619  -1.2506  -1.2488  -1.2483  -1.2479  -1.2471  -1.2335  -1.2232
    -1.2224  -1.2151  -1.2150  -1.2030  -1.1983  -1.1982  -1.1915  -1.1522
    -1.1501  -1.1451  -1.1429  -1.1423  -1.1414  -1.1027  -1.0863  -1.0856
    -1.0853  -1.0852  -1.0808  -1.0805  -1.0756  -1.0629  -1.0604  -1.0239
    -1.0235  -1.0165  -1.0165  -0.9936  -0.9934  -0.9836  -0.9539  -0.9462
    -0.9189  -0.9185  -0.8908  -0.8906  -0.8881  -0.8869  -0.8859  -0.8820
    -0.8787  -0.8766  -0.8720  -0.8718  -0.8399  -0.8396  -0.8221  -0.8211
    -0.8162  -0.8159  -0.8145  -0.8143  -0.7956  -0.5191  -0.5096  -0.4545
    -0.4526  -0.4143  -0.2533  -0.1884  -0.1880  -0.1572   0.1309   0.1310
     0.4601   0.4620   0.5599   0.5600   0.6009   0.6018   0.7443   0.7449
     0.8685   0.8704   0.9561   1.5560   1.5740   1.5748   1.6136   1.6195
     1.6604   1.6659   1.7440   1.7446   1.9516   1.9519   2.1850   2.2657
     2.2679   2.2826   2.6602   2.6654   2.7374   2.7381   2.7442   2.7448
     2.8959   2.8968   2.9404   3.0390   3.0405   3.2716   3.2741   3.4064
     3.4334   3.4339   3.7040   3.7053   3.8160   3.8369   3.8369   3.8837
     3.9178   4.0236   4.0247   4.2606   4.2616   4.3461   4.3498   4.4737
     4.4774   4.4901   4.5001   4.6012   4.7833   5.2956   5.3014   5.4042
     5.4063   5.4524   5.5851   5.5859   5.6408   5.6757   5.6999   5.7031
     5.7339   5.7543   5.7548   5.7986   5.9461   6.0132   6.0470   6.0668
     6.0829   6.0936   6.0971   6.1050   6.1060   6.1501   6.1669   6.2478

     the Fermi energy is     0.8189 ev

!    total energy              =   -7425.28740230 Ry
     Harris-Foulkes estimate   =   -7425.28740229 Ry
     estimated scf accuracy    <          4.9E-09 Ry

     The total energy is the sum of the following terms:

     one-electron contribution =  -48264.97866512 Ry
     hartree contribution      =   24682.03043723 Ry
     xc contribution           =   -3604.19333410 Ry
     ewald contribution        =   19761.85710431 Ry
     smearing contrib. (-TS)   =      -0.00294461 Ry

     convergence has been achieved in  28 iterations

     Writing output data file 6590490.save

     init_run     :    165.47s CPU    172.45s WALL (       1 calls)
     electrons    :  10078.87s CPU  10441.03s WALL (       1 calls)

     Called by init_run:
     wfcinit      :    129.68s CPU    135.58s WALL (       1 calls)
     potinit      :      8.23s CPU      8.76s WALL (       1 calls)

     Called by electrons:
     c_bands      :   8303.71s CPU   8586.28s WALL (      29 calls)
     sum_band     :   1151.26s CPU   1213.91s WALL (      29 calls)
     v_of_rho     :    219.84s CPU    231.67s WALL (      29 calls)
     newd         :    409.96s CPU    414.35s WALL (      29 calls)
     mix_rho      :      5.76s CPU      6.26s WALL (      29 calls)
     vdW_energy   :      8.83s CPU      9.43s WALL (      29 calls)
     vdW_ffts     :    134.73s CPU    141.14s WALL (      58 calls)
     vdW_v        :     27.31s CPU     28.29s WALL (      29 calls)

     Called by c_bands:
     init_us_2    :     11.07s CPU     11.39s WALL (     354 calls)
     cegterg      :   8156.35s CPU   8437.25s WALL (     174 calls)

     Called by *egterg:
     h_psi        :   3142.60s CPU   3393.47s WALL (     847 calls)
     s_psi        :    611.90s CPU    614.00s WALL (     847 calls)
     g_psi        :      6.12s CPU      6.10s WALL (     667 calls)
     cdiaghg      :   2115.84s CPU   2120.65s WALL (     835 calls)

     Called by h_psi:
     add_vuspsi   :    614.63s CPU    616.83s WALL (     847 calls)

     General routines
     calbec       :   1074.10s CPU   1076.77s WALL (    1021 calls)
     fft          :    256.56s CPU    268.39s WALL (    1914 calls)
     ffts         :      6.08s CPU      6.39s WALL (      58 calls)
     fftw         :   2020.16s CPU   2306.56s WALL (  463752 calls)
     interpolate  :     12.80s CPU     13.65s WALL (      58 calls)
     davcio       :      0.00s CPU      0.13s WALL (       6 calls)

     Parallel routines
     fft_scatter  :   1414.06s CPU   1637.60s WALL (  465724 calls)

     PWSCF        :     2h50m CPU        2h57m WALL


   This run was terminated on:  23:19:20   1Jul2015            

=------------------------------------------------------------------------------=
   JOB DONE.
=------------------------------------------------------------------------------=
