Setting SGE environment for SCC

     Program PWSCF v.5.1.2 starts on  1Jul2015 at  4:48:42 

     This program is part of the open-source Quantum ESPRESSO suite
     for quantum simulation of materials; please cite
         "P. Giannozzi et al., J. Phys.:Condens. Matter 21 395502 (2009);
          URL http://www.quantum-espresso.org", 
     in publications or presentations arising from this work. More details at
     http://www.quantum-espresso.org/quote

     Parallel version (MPI), running on    32 processors
     R & G space division:  proc/nbgrp/npool/nimage =      32
     Reading input from bridge.O1.Au6165.d.2.5.phi.0.psi.90.in
Warning: card &IONS ignored
Warning: card / ignored
Warning: card &CELL ignored
Warning: card / ignored

     Current dimensions of program PWSCF are:
     Max number of different atomic species (ntypx) = 10
     Max number of k-points (npk) =  40000
     Max angular momentum in pseudopotentials (lmaxx) =  3

     IMPORTANT: XC functional enforced from input :
     Exchange-correlation      = VDW-DF ( 1  4  4  0 1 0)
     Any further DFT definition will be discarded
     Please, verify this is what you really want


     Subspace diagonalization in iterative solution of the eigenvalue problem:
     a serial algorithm will be used


     Parallelization info
     --------------------
     sticks:   dense  smooth     PW     G-vecs:    dense   smooth      PW
     Min         578     289     74               118518    41891    5486
     Max         579     290     75               118533    41932    5497
     Sum       18505    9265   2385              3792731  1341081  175711


     Title: 
     bridge.O1.Au6165.d.2.5.phi.0.psi.90                                        


     bravais-lattice index     =            8
     lattice parameter (alat)  =      24.1233  a.u.
     unit-cell volume          =   28076.2361 (a.u.)^3
     number of atoms/cell      =           75
     number of atomic types    =            3
     number of electrons       =       800.00
     number of Kohn-Sham states=          480
     kinetic-energy cutoff     =      50.0000  Ry
     charge density cutoff     =     400.0000  Ry
     convergence threshold     =      1.0E-08
     mixing beta               =       0.7000
     number of iterations used =            8  plain     mixing
     Exchange-correlation      = VDW-DF ( 1  4  4  0 1 0)

     celldm(1)=  24.123277  celldm(2)=   1.000000  celldm(3)=   2.000000
     celldm(4)=   0.000000  celldm(5)=   0.000000  celldm(6)=   0.000000

     crystal axes: (cart. coord. in units of alat)
               a(1) = (   1.000000   0.000000   0.000000 )  
               a(2) = (   0.000000   1.000000   0.000000 )  
               a(3) = (   0.000000   0.000000   2.000000 )  

     reciprocal axes: (cart. coord. in units 2 pi/alat)
               b(1) = (  1.000000  0.000000  0.000000 )  
               b(2) = (  0.000000  1.000000  0.000000 )  
               b(3) = (  0.000000  0.000000  0.500000 )  


     PseudoPot. # 1 for Au read from file:
     /home/scc/andrejb/qe/pseudo/Au.pbe-nd-van.UPF
     MD5 check sum: 458681b50f36d87ef23c61b04bba420a
     Pseudo is Ultrasoft + core correction, Zval = 11.0
     Generated by new atomic code, or converted to UPF format
     Using radial grid of  985 points,  3 beta functions with: 
                l(1) =   1
                l(2) =   2
                l(3) =   2
     Q(r) pseudized with  8 coefficients,  rinner =    1.100   1.100   1.100
                                                       1.100   1.100

     PseudoPot. # 2 for H  read from file:
     /home/scc/andrejb/qe/pseudo/H.pbe-van_ak.UPF
     MD5 check sum: 403db7282739603aa925980fa9b8608d
     Pseudo is Ultrasoft, Zval =  1.0
     Generated by new atomic code, or converted to UPF format
     Using radial grid of  615 points,  1 beta functions with: 
                l(1) =   0
     Q(r) pseudized with  8 coefficients,  rinner =    0.800

     PseudoPot. # 3 for O  read from file:
     /home/scc/andrejb/qe/pseudo/O.pbe-van_ak.UPF
     MD5 check sum: 4b8c549914a63cae506c6ff22b5af4fe
     Pseudo is Ultrasoft, Zval =  6.0
     Generated by new atomic code, or converted to UPF format
     Using radial grid of  737 points,  4 beta functions with: 
                l(1) =   0
                l(2) =   0
                l(3) =   1
                l(4) =   1
     Q(r) pseudized with  8 coefficients,  rinner =    0.800   0.800   0.800


     vdW kernel table read from file vdW_kernel_table
     MD5 check sum: 48e77a2e26edf626eeb0eaa751ad5cac

     atomic species   valence    mass     pseudopotential
        Au            11.00   196.96657     Au( 1.00)
        H              1.00     1.01000     H ( 1.00)
        O              6.00    16.00000     O ( 1.00)

     No symmetry found



   Cartesian axes

     site n.     atom                  positions (alat units)
         1           O   tau(   1) = (   0.2499161   0.4165269   0.6951590  )
         2           H   tau(   2) = (   0.2028385   0.3710330   0.6559875  )
         3           H   tau(   3) = (   0.2955663   0.3686692   0.7331607  )
         4           Au  tau(   4) = (   0.0000000   0.0000000   0.0000000  )
         5           Au  tau(   5) = (   0.3332217   0.0000000   0.0000000  )
         6           Au  tau(   6) = (   0.6664434   0.0000000   0.0000000  )
         7           Au  tau(   7) = (   0.1666109   0.1666109   0.0000000  )
         8           Au  tau(   8) = (   0.4998326   0.1666109   0.0000000  )
         9           Au  tau(   9) = (   0.8330542   0.1666109   0.0000000  )
        10           Au  tau(  10) = (   0.0000000   0.3332217   0.0000000  )
        11           Au  tau(  11) = (   0.3332217   0.3332217   0.0000000  )
        12           Au  tau(  12) = (   0.6664434   0.3332217   0.0000000  )
        13           Au  tau(  13) = (   0.1666109   0.4998326   0.0000000  )
        14           Au  tau(  14) = (   0.4998326   0.4998326   0.0000000  )
        15           Au  tau(  15) = (   0.8330542   0.4998326   0.0000000  )
        16           Au  tau(  16) = (   0.0000000   0.6664434   0.0000000  )
        17           Au  tau(  17) = (   0.3332217   0.6664434   0.0000000  )
        18           Au  tau(  18) = (   0.6664434   0.6664434   0.0000000  )
        19           Au  tau(  19) = (   0.1666109   0.8330542   0.0000000  )
        20           Au  tau(  20) = (   0.4998326   0.8330542   0.0000000  )
        21           Au  tau(  21) = (   0.8330542   0.8330542   0.0000000  )
        22           Au  tau(  22) = (   0.1666109   0.0000000   0.1666109  )
        23           Au  tau(  23) = (   0.4998326   0.0000000   0.1666109  )
        24           Au  tau(  24) = (   0.8330542   0.0000000   0.1666109  )
        25           Au  tau(  25) = (   0.0000000   0.1666109   0.1666109  )
        26           Au  tau(  26) = (   0.3332217   0.1666109   0.1666109  )
        27           Au  tau(  27) = (   0.6664434   0.1666109   0.1666109  )
        28           Au  tau(  28) = (   0.1666109   0.3332217   0.1666109  )
        29           Au  tau(  29) = (   0.4998326   0.3332217   0.1666109  )
        30           Au  tau(  30) = (   0.8330542   0.3332217   0.1666109  )
        31           Au  tau(  31) = (   0.0000000   0.4998326   0.1666109  )
        32           Au  tau(  32) = (   0.3332217   0.4998326   0.1666109  )
        33           Au  tau(  33) = (   0.6664434   0.4998326   0.1666109  )
        34           Au  tau(  34) = (   0.1666109   0.6664434   0.1666109  )
        35           Au  tau(  35) = (   0.4998326   0.6664434   0.1666109  )
        36           Au  tau(  36) = (   0.8330542   0.6664434   0.1666109  )
        37           Au  tau(  37) = (   0.0000000   0.8330542   0.1666109  )
        38           Au  tau(  38) = (   0.3332217   0.8330542   0.1666109  )
        39           Au  tau(  39) = (   0.6664434   0.8330542   0.1666109  )
        40           Au  tau(  40) = (  -0.0000182  -0.0000182   0.3335478  )
        41           Au  tau(  41) = (   0.3332215  -0.0000181   0.3335473  )
        42           Au  tau(  42) = (   0.6664447  -0.0000183   0.3335481  )
        43           Au  tau(  43) = (  -0.0000181   0.3332215   0.3335473  )
        44           Au  tau(  44) = (   0.3332215   0.3332215   0.3335468  )
        45           Au  tau(  45) = (   0.6664445   0.3332215   0.3335477  )
        46           Au  tau(  46) = (  -0.0000183   0.6664447   0.3335481  )
        47           Au  tau(  47) = (   0.3332215   0.6664445   0.3335477  )
        48           Au  tau(  48) = (   0.6664446   0.6664446   0.3335486  )
        49           Au  tau(  49) = (   0.1666097   0.1666097   0.3335483  )
        50           Au  tau(  50) = (   0.4998320   0.1666098   0.3335477  )
        51           Au  tau(  51) = (   0.8330732   0.1666096   0.3335480  )
        52           Au  tau(  52) = (   0.1666098   0.4998320   0.3335477  )
        53           Au  tau(  53) = (   0.4998322   0.4998322   0.3335470  )
        54           Au  tau(  54) = (   0.8330731   0.4998322   0.3335474  )
        55           Au  tau(  55) = (   0.1666096   0.8330732   0.3335480  )
        56           Au  tau(  56) = (   0.4998322   0.8330731   0.3335474  )
        57           Au  tau(  57) = (   0.8330731   0.8330731   0.3335478  )
        58           Au  tau(  58) = (   0.1666104  -0.0000111   0.4993095  )
        59           Au  tau(  59) = (   0.4998323  -0.0000112   0.4993099  )
        60           Au  tau(  60) = (   0.8330660  -0.0000111   0.4993009  )
        61           Au  tau(  61) = (  -0.0000111   0.1666104   0.4993095  )
        62           Au  tau(  62) = (   0.3332213   0.1666106   0.4993185  )
        63           Au  tau(  63) = (   0.6664437   0.1666106   0.4993187  )
        64           Au  tau(  64) = (   0.1666106   0.3332213   0.4993185  )
        65           Au  tau(  65) = (   0.4998324   0.3332216   0.4993185  )
        66           Au  tau(  66) = (   0.8330658   0.3332215   0.4993102  )
        67           Au  tau(  67) = (  -0.0000112   0.4998323   0.4993099  )
        68           Au  tau(  68) = (   0.3332216   0.4998324   0.4993185  )
        69           Au  tau(  69) = (   0.6664437   0.4998325   0.4993187  )
        70           Au  tau(  70) = (   0.1666106   0.6664437   0.4993187  )
        71           Au  tau(  71) = (   0.4998325   0.6664437   0.4993187  )
        72           Au  tau(  72) = (   0.8330658   0.6664438   0.4993102  )
        73           Au  tau(  73) = (  -0.0000111   0.8330660   0.4993009  )
        74           Au  tau(  74) = (   0.3332215   0.8330658   0.4993102  )
        75           Au  tau(  75) = (   0.6664438   0.8330658   0.4993102  )

     number of k points=     6  Marzari-Vanderbilt smearing, width (Ry)=  0.0200
                       cart. coord. in units 2pi/alat
        k(    1) = (   0.2500000   0.2500000   0.0833333), wk =   0.3333333
        k(    2) = (   0.2500000   0.2500000  -0.2500000), wk =   0.3333333
        k(    3) = (  -0.2500000  -0.2500000   0.0833333), wk =   0.3333333
        k(    4) = (  -0.2500000   0.2500000  -0.0833333), wk =   0.3333333
        k(    5) = (   0.2500000  -0.2500000  -0.0833333), wk =   0.3333333
        k(    6) = (  -0.2500000   0.2500000   0.2500000), wk =   0.3333333

     Dense  grid:  3792731 G-vectors     FFT dimensions: ( 160, 160, 320)

     Smooth grid:  1341081 G-vectors     FFT dimensions: ( 120, 120, 225)

     Largest allocated arrays     est. size (Mb)     dimensions
        Kohn-Sham Wavefunctions        38.58 Mb     (    5267,  480)
        NL pseudopotentials            76.03 Mb     (    5267,  946)
        Each V/rho on FFT grid          3.91 Mb     (  256000)
        Each G-vector array             0.90 Mb     (  118520)
        G-vector shells                 0.08 Mb     (   10286)
     Largest temporary arrays     est. size (Mb)     dimensions
        Auxiliary wavefunctions       154.31 Mb     (    5267, 1920)
        Each subspace H/S matrix       56.25 Mb     (    1920, 1920)
        Each <psi_i|beta_j> matrix      6.93 Mb     (     946,  480)
        Arrays for rho mixing          31.25 Mb     (  256000,    8)

     Initial potential from superposition of free atoms
     Check: negative starting charge=   -1.945188

     starting charge  799.16392, renormalised to  800.00000

     negative rho (up, down):  1.947E+00 0.000E+00


     ************************************************************************
     *
     * You are using vdW-DF for exchange-correlation in this calculation.
     * Please cite the following three references that made this development
     * possible:
     *
     *   M. Dion, H. Rydberg, E. Schroder, D. C. Langreth, and
     *   B. I. Lundqvist, Phys. Rev. Lett. 92, 246401 (2004).
     *
     *   T. Thonhauser, V. R. Cooper, S. Li, A. Puzder, P. Hyldgaard, and
     *   D. C. Langreth, Phys. Rev. B 76, 125112 (2007).
     *
     *   G. Roman-Perez and J. M. Soler, Phys. Rev. Lett. 103, 096102 (2009).
     *
     *
     * If you are using vdW-DF2, please also cite:
     *
     *   K. Lee, E. D. Murray, L. Kong, B. I. Lundqvist, and
     *   D. C. Langreth, Phys. Rev. B 82, 081101(R) (2010).
     *
     *
     * If you are calculating the stress with vdW-DF, please also cite:
     *
     *   R. Sabatini, E. Kucukbenli, B. Kolb, T. Thonhauser, and
     *   S. de Gironcoli, J. Phys.: Condens. Matter 24, 424209 (2012).
     *
     ************************************************************************

     Carrying out vdW-DF run using the following parameters:

     Nqs =      20    Nr_points =    1024   r_max =   100.000
     q_mesh =
               0.00001000     0.04494208     0.09755937     0.15916263
               0.23128650     0.31572767     0.41458969     0.53033537
               0.66584808     0.82450364     1.01025438     1.22772762
               1.48234092     1.78043706     2.12944203     2.53805004
               3.01644009     3.57652955     4.23227104     5.00000000

     Gradients computed in reciprocal space

     ************************************************************************


     Starting wfc are  654 randomized atomic wfcs

     total cpu time spent up to now is      169.5 secs

     Self-consistent Calculation

     iteration #  1     ecut=    50.00 Ry     beta=0.70
     Davidson diagonalization with overlap
     ethr =  1.00E-02,  avg # of iterations =  3.0

     Threshold (ethr) on eigenvalues was too large:
     Diagonalizing with lowered threshold

     Davidson diagonalization with overlap
     ethr =  4.16E-04,  avg # of iterations =  2.0

     negative rho (up, down):  1.947E+00 0.000E+00

     total cpu time spent up to now is      769.5 secs

     total energy              =   -7423.04821246 Ry
     Harris-Foulkes estimate   =   -7426.04897745 Ry
     estimated scf accuracy    <       3.70755911 Ry

     iteration #  2     ecut=    50.00 Ry     beta=0.70
     Davidson diagonalization with overlap
     ethr =  4.63E-04,  avg # of iterations = 11.3

     negative rho (up, down):  1.942E+00 0.000E+00

     total cpu time spent up to now is     1814.3 secs

     total energy              =   -7415.30229186 Ry
     Harris-Foulkes estimate   =   -7432.51814245 Ry
     estimated scf accuracy    <      89.40771463 Ry

     iteration #  3     ecut=    50.00 Ry     beta=0.70
     Davidson diagonalization with overlap
     ethr =  4.63E-04,  avg # of iterations =  6.0

     negative rho (up, down):  1.953E+00 0.000E+00

     total cpu time spent up to now is     2483.3 secs

     total energy              =   -7424.45607469 Ry
     Harris-Foulkes estimate   =   -7425.83908192 Ry
     estimated scf accuracy    <       5.23928104 Ry

     iteration #  4     ecut=    50.00 Ry     beta=0.70
     Davidson diagonalization with overlap
     ethr =  4.63E-04,  avg # of iterations =  7.0

     negative rho (up, down):  1.957E+00 0.000E+00

     total cpu time spent up to now is     2863.4 secs

     total energy              =   -7424.90590938 Ry
     Harris-Foulkes estimate   =   -7425.58664789 Ry
     estimated scf accuracy    <       4.14183447 Ry

     iteration #  5     ecut=    50.00 Ry     beta=0.70
     Davidson diagonalization with overlap
     ethr =  4.63E-04,  avg # of iterations =  4.0

     negative rho (up, down):  1.964E+00 0.000E+00

     total cpu time spent up to now is     3206.4 secs

     total energy              =   -7425.16073106 Ry
     Harris-Foulkes estimate   =   -7425.44246341 Ry
     estimated scf accuracy    <       1.91567711 Ry

     iteration #  6     ecut=    50.00 Ry     beta=0.70
     Davidson diagonalization with overlap
     ethr =  2.39E-04,  avg # of iterations =  3.5

     negative rho (up, down):  1.967E+00 0.000E+00

     total cpu time spent up to now is     3525.3 secs

     total energy              =   -7425.25872693 Ry
     Harris-Foulkes estimate   =   -7425.30769715 Ry
     estimated scf accuracy    <       0.16982489 Ry

     iteration #  7     ecut=    50.00 Ry     beta=0.70
     Davidson diagonalization with overlap
     ethr =  2.12E-05,  avg # of iterations = 14.3

     negative rho (up, down):  1.970E+00 0.000E+00

     total cpu time spent up to now is     4066.9 secs

     total energy              =   -7425.26561054 Ry
     Harris-Foulkes estimate   =   -7425.30086314 Ry
     estimated scf accuracy    <       0.16991413 Ry

     iteration #  8     ecut=    50.00 Ry     beta=0.70
     Davidson diagonalization with overlap
     ethr =  2.12E-05,  avg # of iterations =  3.0

     negative rho (up, down):  1.971E+00 0.000E+00

     total cpu time spent up to now is     4378.6 secs

     total energy              =   -7425.27278183 Ry
     Harris-Foulkes estimate   =   -7425.28919533 Ry
     estimated scf accuracy    <       0.06159009 Ry

     iteration #  9     ecut=    50.00 Ry     beta=0.70
     Davidson diagonalization with overlap
     ethr =  7.70E-06,  avg # of iterations =  7.8

     negative rho (up, down):  1.972E+00 0.000E+00

     total cpu time spent up to now is     4781.5 secs

     total energy              =   -7425.27702685 Ry
     Harris-Foulkes estimate   =   -7425.28355627 Ry
     estimated scf accuracy    <       0.02038190 Ry

     iteration # 10     ecut=    50.00 Ry     beta=0.70
     Davidson diagonalization with overlap
     ethr =  2.55E-06,  avg # of iterations =  7.3

     negative rho (up, down):  1.973E+00 0.000E+00

     total cpu time spent up to now is     5177.9 secs

     total energy              =   -7425.27956529 Ry
     Harris-Foulkes estimate   =   -7425.28110952 Ry
     estimated scf accuracy    <       0.00394094 Ry

     iteration # 11     ecut=    50.00 Ry     beta=0.70
     Davidson diagonalization with overlap
     ethr =  4.93E-07,  avg # of iterations =  3.2

     negative rho (up, down):  1.973E+00 0.000E+00

     total cpu time spent up to now is     5540.9 secs

     total energy              =   -7425.28010332 Ry
     Harris-Foulkes estimate   =   -7425.28082314 Ry
     estimated scf accuracy    <       0.00209470 Ry

     iteration # 12     ecut=    50.00 Ry     beta=0.70
     Davidson diagonalization with overlap
     ethr =  2.62E-07,  avg # of iterations =  2.2

     negative rho (up, down):  1.973E+00 0.000E+00

     total cpu time spent up to now is     5839.5 secs

     total energy              =   -7425.28023066 Ry
     Harris-Foulkes estimate   =   -7425.28072389 Ry
     estimated scf accuracy    <       0.00231395 Ry

     iteration # 13     ecut=    50.00 Ry     beta=0.70
     Davidson diagonalization with overlap
     ethr =  2.62E-07,  avg # of iterations =  2.0

     negative rho (up, down):  1.973E+00 0.000E+00

     total cpu time spent up to now is     6108.0 secs

     total energy              =   -7425.28034545 Ry
     Harris-Foulkes estimate   =   -7425.28067414 Ry
     estimated scf accuracy    <       0.00157041 Ry

     iteration # 14     ecut=    50.00 Ry     beta=0.70
     Davidson diagonalization with overlap
     ethr =  1.96E-07,  avg # of iterations =  2.0

     negative rho (up, down):  1.973E+00 0.000E+00

     total cpu time spent up to now is     6395.1 secs

     total energy              =   -7425.28049931 Ry
     Harris-Foulkes estimate   =   -7425.28051758 Ry
     estimated scf accuracy    <       0.00005340 Ry

     iteration # 15     ecut=    50.00 Ry     beta=0.70
     Davidson diagonalization with overlap
     ethr =  6.68E-09,  avg # of iterations =  3.0

     negative rho (up, down):  1.973E+00 0.000E+00

     total cpu time spent up to now is     6776.2 secs

     total energy              =   -7425.28050094 Ry
     Harris-Foulkes estimate   =   -7425.28052194 Ry
     estimated scf accuracy    <       0.00011272 Ry

     iteration # 16     ecut=    50.00 Ry     beta=0.70
     Davidson diagonalization with overlap
     ethr =  6.68E-09,  avg # of iterations =  2.0

     negative rho (up, down):  1.973E+00 0.000E+00

     total cpu time spent up to now is     7049.2 secs

     total energy              =   -7425.28050660 Ry
     Harris-Foulkes estimate   =   -7425.28052249 Ry
     estimated scf accuracy    <       0.00010578 Ry

     iteration # 17     ecut=    50.00 Ry     beta=0.70
     Davidson diagonalization with overlap
     ethr =  6.68E-09,  avg # of iterations =  1.0

     negative rho (up, down):  1.973E+00 0.000E+00

     total cpu time spent up to now is     7306.3 secs

     total energy              =   -7425.28051319 Ry
     Harris-Foulkes estimate   =   -7425.28051523 Ry
     estimated scf accuracy    <       0.00000743 Ry

     iteration # 18     ecut=    50.00 Ry     beta=0.70
     Davidson diagonalization with overlap
     ethr =  9.28E-10,  avg # of iterations =  2.0

     negative rho (up, down):  1.973E+00 0.000E+00

     total cpu time spent up to now is     7594.8 secs

     total energy              =   -7425.28051394 Ry
     Harris-Foulkes estimate   =   -7425.28051477 Ry
     estimated scf accuracy    <       0.00000330 Ry

     iteration # 19     ecut=    50.00 Ry     beta=0.70
     Davidson diagonalization with overlap
     ethr =  4.12E-10,  avg # of iterations =  3.0

     negative rho (up, down):  1.973E+00 0.000E+00

     total cpu time spent up to now is     7876.3 secs

     total energy              =   -7425.28051411 Ry
     Harris-Foulkes estimate   =   -7425.28051449 Ry
     estimated scf accuracy    <       0.00000086 Ry

     iteration # 20     ecut=    50.00 Ry     beta=0.70
     Davidson diagonalization with overlap
     ethr =  1.08E-10,  avg # of iterations =  2.0

     negative rho (up, down):  1.973E+00 0.000E+00

     total cpu time spent up to now is     8155.4 secs

     total energy              =   -7425.28051412 Ry
     Harris-Foulkes estimate   =   -7425.28051442 Ry
     estimated scf accuracy    <       0.00000087 Ry

     iteration # 21     ecut=    50.00 Ry     beta=0.70
     Davidson diagonalization with overlap
     ethr =  1.08E-10,  avg # of iterations =  2.0

     negative rho (up, down):  1.973E+00 0.000E+00

     total cpu time spent up to now is     8440.5 secs

     total energy              =   -7425.28051419 Ry
     Harris-Foulkes estimate   =   -7425.28051426 Ry
     estimated scf accuracy    <       0.00000010 Ry

     iteration # 22     ecut=    50.00 Ry     beta=0.70
     Davidson diagonalization with overlap
     ethr =  1.28E-11,  avg # of iterations =  2.0

     negative rho (up, down):  1.973E+00 0.000E+00

     total cpu time spent up to now is     8723.7 secs

     total energy              =   -7425.28051417 Ry
     Harris-Foulkes estimate   =   -7425.28051422 Ry
     estimated scf accuracy    <       0.00000007 Ry

     iteration # 23     ecut=    50.00 Ry     beta=0.70
     Davidson diagonalization with overlap
     ethr =  8.14E-12,  avg # of iterations =  2.0

     negative rho (up, down):  1.973E+00 0.000E+00

     total cpu time spent up to now is     8984.4 secs

     total energy              =   -7425.28051417 Ry
     Harris-Foulkes estimate   =   -7425.28051418 Ry
     estimated scf accuracy    <       0.00000001 Ry

     iteration # 24     ecut=    50.00 Ry     beta=0.70
     Davidson diagonalization with overlap
     ethr =  1.45E-12,  avg # of iterations =  3.0

     negative rho (up, down):  1.973E+00 0.000E+00

     total cpu time spent up to now is     9365.1 secs

     total energy              =   -7425.28051416 Ry
     Harris-Foulkes estimate   =   -7425.28051417 Ry
     estimated scf accuracy    <       0.00000002 Ry

     iteration # 25     ecut=    50.00 Ry     beta=0.70
     Davidson diagonalization with overlap
     ethr =  1.45E-12,  avg # of iterations =  2.0

     negative rho (up, down):  1.973E+00 0.000E+00

     total cpu time spent up to now is     9688.3 secs

     End of self-consistent calculation

          k = 0.2500 0.2500 0.0833 (167653 PWs)   bands (ev):

   -19.8496  -7.8158  -6.8098  -6.2827  -6.2809  -5.8529  -5.4445  -5.3516
    -5.3503  -5.1551  -5.1540  -5.0391  -5.0362  -4.9581  -4.9366  -4.8630
    -4.7781  -4.7733  -4.7354  -4.7342  -4.5756  -4.5601  -4.5563  -4.5555
    -4.5484  -4.4951  -4.4934  -4.4833  -4.4810  -4.4444  -4.4385  -4.4315
    -4.3932  -4.3891  -4.3564  -4.3550  -4.3070  -4.3029  -4.2943  -4.2915
    -4.2850  -4.2756  -4.2718  -4.2338  -4.2148  -4.2133  -4.2065  -4.2053
    -4.1781  -4.1520  -4.1144  -4.1088  -4.1081  -4.1060  -4.1019  -4.0945
    -4.0912  -4.0899  -4.0536  -4.0294  -4.0207  -3.9755  -3.9642  -3.9547
    -3.9396  -3.9346  -3.9183  -3.9136  -3.9115  -3.9078  -3.9023  -3.8586
    -3.8552  -3.8455  -3.8441  -3.7414  -3.7390  -3.7349  -3.7325  -3.6955
    -3.6918  -3.6704  -3.6444  -3.6415  -3.6137  -3.6130  -3.5936  -3.5923
    -3.5812  -3.5780  -3.5234  -3.5226  -3.5102  -3.4881  -3.4809  -3.4799
    -3.4758  -3.4743  -3.4509  -3.4483  -3.4129  -3.4116  -3.3940  -3.3895
    -3.3595  -3.3555  -3.3408  -3.3123  -3.3096  -3.2745  -3.2724  -3.2390
    -3.2289  -3.2286  -3.2178  -3.2147  -3.2092  -3.2086  -3.1753  -3.1606
    -3.1232  -3.1219  -3.1119  -3.1062  -3.1018  -3.1005  -3.0776  -3.0769
    -3.0583  -3.0566  -3.0542  -3.0305  -3.0279  -3.0209  -3.0189  -3.0161
    -2.9811  -2.9799  -2.9449  -2.9426  -2.9408  -2.9387  -2.9369  -2.8574
    -2.8525  -2.8482  -2.8450  -2.8431  -2.8420  -2.8404  -2.8380  -2.8361
    -2.8354  -2.8265  -2.8185  -2.8084  -2.8030  -2.8000  -2.7975  -2.7860
    -2.7816  -2.7452  -2.7433  -2.7411  -2.7403  -2.7355  -2.7181  -2.7173
    -2.7114  -2.7095  -2.7054  -2.6586  -2.6484  -2.6456  -2.6417  -2.6389
    -2.6376  -2.6148  -2.5549  -2.5519  -2.5493  -2.5450  -2.5386  -2.5341
    -2.5315  -2.5244  -2.5170  -2.5049  -2.4807  -2.4794  -2.4740  -2.4715
    -2.4695  -2.4369  -2.4322  -2.4309  -2.4228  -2.4196  -2.4175  -2.3970
    -2.3708  -2.3588  -2.3172  -2.3028  -2.3001  -2.2860  -2.2803  -2.2762
    -2.2466  -2.2265  -2.2100  -2.2045  -2.1798  -2.1755  -2.1707  -2.1589
    -2.1503  -2.1448  -2.1405  -2.1245  -2.0856  -2.0831  -2.0676  -2.0664
    -2.0631  -2.0583  -2.0566  -2.0466  -2.0418  -2.0381  -2.0367  -2.0313
    -2.0298  -2.0270  -2.0224  -2.0157  -2.0014  -2.0004  -1.9946  -1.9910
    -1.9892  -1.9797  -1.9696  -1.9634  -1.9544  -1.9536  -1.9466  -1.9187
    -1.8994  -1.8775  -1.8745  -1.8407  -1.8252  -1.8227  -1.8144  -1.8070
    -1.7899  -1.7802  -1.7761  -1.7737  -1.7718  -1.7702  -1.7679  -1.7480
    -1.7357  -1.7346  -1.7318  -1.6907  -1.6845  -1.6534  -1.6464  -1.6032
    -1.6002  -1.5885  -1.5685  -1.5660  -1.5593  -1.5448  -1.5417  -1.5290
    -1.5233  -1.5209  -1.5197  -1.5177  -1.5167  -1.5138  -1.5049  -1.4959
    -1.4904  -1.4736  -1.4667  -1.4511  -1.4490  -1.4250  -1.4206  -1.4176
    -1.4167  -1.4134  -1.4028  -1.3923  -1.3848  -1.3743  -1.3661  -1.3534
    -1.3486  -1.3365  -1.3300  -1.3103  -1.3064  -1.3007  -1.2889  -1.2647
    -1.2603  -1.2536  -1.2528  -1.2476  -1.2361  -1.2231  -1.2225  -1.2140
    -1.2055  -1.2040  -1.1947  -1.1912  -1.1907  -1.1813  -1.1781  -1.1657
    -1.1643  -1.1568  -1.1554  -1.1460  -1.1404  -1.1353  -1.1249  -1.0965
    -1.0946  -1.0888  -1.0847  -1.0832  -1.0742  -1.0478  -1.0285  -1.0279
    -1.0275  -1.0258  -1.0241  -1.0176  -1.0135  -1.0023  -0.9862  -0.9671
    -0.9618  -0.9590  -0.9560  -0.9363  -0.9356  -0.9263  -0.8986  -0.8889
    -0.8647  -0.8605  -0.8343  -0.8335  -0.8302  -0.8295  -0.8268  -0.8224
    -0.8201  -0.8191  -0.8137  -0.8079  -0.7830  -0.7823  -0.7659  -0.7612
    -0.7594  -0.7575  -0.7558  -0.7383  -0.7190  -0.4672  -0.4502  -0.3964
    -0.3767  -0.3543  -0.1908  -0.1305  -0.1296  -0.0863   0.1871   0.1963
     0.5171   0.5289   0.6165   0.6203   0.6581   0.6650   0.8015   0.8151
     0.9252   0.9293   1.0221   1.6136   1.6317   1.6323   1.6687   1.6773
     1.7163   1.7329   1.8008   1.8091   2.0076   2.0126   2.2437   2.3219
     2.3296   2.3417   2.7159   2.7271   2.7928   2.7941   2.8027   2.8046
     2.9529   2.9537   2.9959   3.0955   3.1012   3.3269   3.3291   3.4631
     3.4891   3.4925   3.7600   3.7626   3.8672   3.8927   3.8942   3.9446
     3.9784   4.0804   4.0841   4.3156   4.3183   4.4047   4.4086   4.5200
     4.5283   4.5507   4.5698   4.6939   5.1075   5.3499   5.3639   5.4546
     5.4582   5.5372   5.6403   5.6431   5.6572   5.7081   5.7413   5.7565
     5.7607   5.8106   5.8156   5.8538   6.0308   6.0881   6.1149   6.1190
     6.1366   6.1417   6.1514   6.1580   6.1632   6.1672   6.1800   6.2251

          k = 0.2500 0.2500-0.2500 (167588 PWs)   bands (ev):

   -19.8496  -7.8158  -6.8098  -6.2827  -6.2809  -5.8529  -5.4445  -5.3516
    -5.3503  -5.1551  -5.1540  -5.0391  -5.0362  -4.9581  -4.9366  -4.8630
    -4.7781  -4.7733  -4.7354  -4.7342  -4.5756  -4.5601  -4.5563  -4.5555
    -4.5484  -4.4951  -4.4934  -4.4833  -4.4810  -4.4444  -4.4385  -4.4315
    -4.3932  -4.3891  -4.3564  -4.3550  -4.3070  -4.3029  -4.2943  -4.2915
    -4.2850  -4.2756  -4.2718  -4.2338  -4.2148  -4.2133  -4.2065  -4.2053
    -4.1781  -4.1520  -4.1144  -4.1088  -4.1081  -4.1060  -4.1019  -4.0945
    -4.0912  -4.0899  -4.0536  -4.0294  -4.0207  -3.9755  -3.9642  -3.9547
    -3.9396  -3.9345  -3.9183  -3.9135  -3.9115  -3.9078  -3.9023  -3.8586
    -3.8552  -3.8455  -3.8441  -3.7414  -3.7390  -3.7349  -3.7325  -3.6955
    -3.6918  -3.6704  -3.6444  -3.6415  -3.6137  -3.6130  -3.5936  -3.5923
    -3.5812  -3.5780  -3.5234  -3.5226  -3.5102  -3.4881  -3.4809  -3.4799
    -3.4758  -3.4743  -3.4509  -3.4483  -3.4129  -3.4116  -3.3940  -3.3895
    -3.3595  -3.3555  -3.3408  -3.3123  -3.3096  -3.2745  -3.2723  -3.2390
    -3.2289  -3.2286  -3.2178  -3.2147  -3.2092  -3.2086  -3.1754  -3.1606
    -3.1232  -3.1219  -3.1119  -3.1062  -3.1018  -3.1005  -3.0776  -3.0769
    -3.0583  -3.0566  -3.0542  -3.0305  -3.0279  -3.0209  -3.0189  -3.0161
    -2.9811  -2.9799  -2.9448  -2.9426  -2.9408  -2.9387  -2.9369  -2.8574
    -2.8525  -2.8482  -2.8450  -2.8431  -2.8420  -2.8404  -2.8380  -2.8361
    -2.8354  -2.8265  -2.8185  -2.8084  -2.8030  -2.8000  -2.7975  -2.7860
    -2.7816  -2.7452  -2.7433  -2.7410  -2.7403  -2.7355  -2.7181  -2.7173
    -2.7114  -2.7095  -2.7054  -2.6586  -2.6484  -2.6456  -2.6417  -2.6389
    -2.6376  -2.6148  -2.5549  -2.5519  -2.5494  -2.5450  -2.5386  -2.5341
    -2.5315  -2.5243  -2.5170  -2.5049  -2.4807  -2.4794  -2.4740  -2.4715
    -2.4695  -2.4369  -2.4322  -2.4309  -2.4228  -2.4196  -2.4175  -2.3970
    -2.3708  -2.3588  -2.3172  -2.3028  -2.3001  -2.2860  -2.2803  -2.2762
    -2.2466  -2.2265  -2.2100  -2.2045  -2.1798  -2.1755  -2.1707  -2.1589
    -2.1503  -2.1448  -2.1405  -2.1245  -2.0856  -2.0831  -2.0676  -2.0664
    -2.0631  -2.0583  -2.0566  -2.0466  -2.0418  -2.0381  -2.0367  -2.0313
    -2.0298  -2.0270  -2.0224  -2.0157  -2.0014  -2.0004  -1.9946  -1.9910
    -1.9892  -1.9797  -1.9696  -1.9634  -1.9544  -1.9536  -1.9466  -1.9187
    -1.8995  -1.8775  -1.8745  -1.8407  -1.8252  -1.8227  -1.8144  -1.8070
    -1.7899  -1.7802  -1.7761  -1.7737  -1.7718  -1.7702  -1.7679  -1.7480
    -1.7357  -1.7346  -1.7318  -1.6907  -1.6845  -1.6534  -1.6464  -1.6032
    -1.6002  -1.5886  -1.5685  -1.5660  -1.5593  -1.5448  -1.5417  -1.5290
    -1.5233  -1.5209  -1.5197  -1.5177  -1.5167  -1.5138  -1.5049  -1.4959
    -1.4904  -1.4736  -1.4667  -1.4511  -1.4490  -1.4250  -1.4206  -1.4176
    -1.4167  -1.4134  -1.4028  -1.3923  -1.3848  -1.3743  -1.3661  -1.3534
    -1.3486  -1.3365  -1.3300  -1.3103  -1.3064  -1.3007  -1.2889  -1.2647
    -1.2603  -1.2536  -1.2528  -1.2476  -1.2361  -1.2231  -1.2225  -1.2140
    -1.2055  -1.2040  -1.1947  -1.1912  -1.1907  -1.1813  -1.1781  -1.1658
    -1.1643  -1.1568  -1.1554  -1.1460  -1.1404  -1.1353  -1.1249  -1.0965
    -1.0946  -1.0888  -1.0847  -1.0832  -1.0742  -1.0478  -1.0285  -1.0279
    -1.0275  -1.0258  -1.0241  -1.0176  -1.0135  -1.0023  -0.9862  -0.9671
    -0.9618  -0.9590  -0.9560  -0.9363  -0.9356  -0.9263  -0.8986  -0.8889
    -0.8647  -0.8605  -0.8343  -0.8335  -0.8302  -0.8295  -0.8268  -0.8224
    -0.8201  -0.8191  -0.8137  -0.8079  -0.7830  -0.7823  -0.7659  -0.7612
    -0.7594  -0.7575  -0.7558  -0.7383  -0.7190  -0.4672  -0.4502  -0.3964
    -0.3767  -0.3543  -0.1908  -0.1305  -0.1296  -0.0863   0.1871   0.1963
     0.5171   0.5289   0.6165   0.6203   0.6581   0.6650   0.8015   0.8151
     0.9252   0.9293   1.0221   1.6136   1.6317   1.6323   1.6687   1.6773
     1.7163   1.7329   1.8008   1.8091   2.0076   2.0126   2.2437   2.3219
     2.3296   2.3417   2.7159   2.7271   2.7928   2.7941   2.8027   2.8046
     2.9529   2.9537   2.9959   3.0955   3.1012   3.3269   3.3291   3.4631
     3.4891   3.4925   3.7600   3.7626   3.8672   3.8927   3.8942   3.9446
     3.9784   4.0804   4.0841   4.3156   4.3183   4.4047   4.4086   4.5200
     4.5283   4.5507   4.5698   4.6940   5.1008   5.3458   5.3605   5.4530
     5.4580   5.5301   5.6405   5.6435   5.6882   5.7201   5.7508   5.7569
     5.7612   5.8106   5.8167   5.8553   6.0389   6.0876   6.1051   6.1204
     6.1367   6.1457   6.1533   6.1607   6.1641   6.1686   6.2149   6.2369

          k =-0.2500-0.2500 0.0833 (167653 PWs)   bands (ev):

   -19.8496  -7.8158  -6.8098  -6.2827  -6.2809  -5.8529  -5.4445  -5.3516
    -5.3503  -5.1551  -5.1540  -5.0391  -5.0362  -4.9581  -4.9366  -4.8630
    -4.7781  -4.7733  -4.7354  -4.7342  -4.5756  -4.5601  -4.5563  -4.5555
    -4.5484  -4.4951  -4.4934  -4.4833  -4.4810  -4.4444  -4.4385  -4.4315
    -4.3932  -4.3891  -4.3564  -4.3550  -4.3070  -4.3029  -4.2943  -4.2915
    -4.2850  -4.2756  -4.2718  -4.2338  -4.2148  -4.2133  -4.2065  -4.2053
    -4.1781  -4.1520  -4.1144  -4.1088  -4.1081  -4.1060  -4.1019  -4.0945
    -4.0912  -4.0899  -4.0536  -4.0294  -4.0207  -3.9755  -3.9642  -3.9547
    -3.9396  -3.9346  -3.9183  -3.9136  -3.9115  -3.9078  -3.9023  -3.8586
    -3.8552  -3.8455  -3.8441  -3.7414  -3.7390  -3.7349  -3.7325  -3.6955
    -3.6918  -3.6704  -3.6444  -3.6415  -3.6137  -3.6130  -3.5936  -3.5923
    -3.5812  -3.5780  -3.5234  -3.5226  -3.5102  -3.4881  -3.4809  -3.4799
    -3.4758  -3.4743  -3.4509  -3.4483  -3.4129  -3.4116  -3.3940  -3.3895
    -3.3595  -3.3555  -3.3408  -3.3123  -3.3096  -3.2745  -3.2724  -3.2390
    -3.2289  -3.2286  -3.2178  -3.2147  -3.2092  -3.2086  -3.1753  -3.1606
    -3.1232  -3.1219  -3.1119  -3.1062  -3.1018  -3.1005  -3.0776  -3.0769
    -3.0583  -3.0566  -3.0542  -3.0305  -3.0279  -3.0209  -3.0189  -3.0161
    -2.9811  -2.9799  -2.9449  -2.9426  -2.9408  -2.9387  -2.9369  -2.8574
    -2.8525  -2.8482  -2.8450  -2.8431  -2.8420  -2.8404  -2.8380  -2.8361
    -2.8354  -2.8265  -2.8185  -2.8084  -2.8030  -2.8000  -2.7975  -2.7860
    -2.7816  -2.7452  -2.7433  -2.7411  -2.7404  -2.7355  -2.7181  -2.7173
    -2.7114  -2.7095  -2.7054  -2.6586  -2.6484  -2.6456  -2.6417  -2.6389
    -2.6376  -2.6148  -2.5549  -2.5519  -2.5493  -2.5450  -2.5386  -2.5341
    -2.5315  -2.5244  -2.5170  -2.5049  -2.4807  -2.4794  -2.4740  -2.4715
    -2.4695  -2.4369  -2.4322  -2.4309  -2.4228  -2.4196  -2.4175  -2.3970
    -2.3708  -2.3588  -2.3172  -2.3028  -2.3001  -2.2860  -2.2803  -2.2762
    -2.2466  -2.2265  -2.2100  -2.2045  -2.1798  -2.1755  -2.1707  -2.1589
    -2.1503  -2.1448  -2.1405  -2.1245  -2.0856  -2.0831  -2.0676  -2.0664
    -2.0631  -2.0583  -2.0566  -2.0466  -2.0418  -2.0381  -2.0367  -2.0313
    -2.0298  -2.0270  -2.0224  -2.0157  -2.0014  -2.0004  -1.9946  -1.9910
    -1.9892  -1.9797  -1.9696  -1.9634  -1.9544  -1.9536  -1.9466  -1.9187
    -1.8994  -1.8775  -1.8745  -1.8407  -1.8252  -1.8227  -1.8144  -1.8070
    -1.7899  -1.7802  -1.7761  -1.7737  -1.7718  -1.7702  -1.7679  -1.7480
    -1.7357  -1.7346  -1.7318  -1.6907  -1.6845  -1.6534  -1.6464  -1.6032
    -1.6002  -1.5885  -1.5685  -1.5660  -1.5593  -1.5448  -1.5417  -1.5290
    -1.5233  -1.5209  -1.5197  -1.5177  -1.5167  -1.5138  -1.5049  -1.4959
    -1.4904  -1.4736  -1.4667  -1.4511  -1.4490  -1.4250  -1.4206  -1.4176
    -1.4167  -1.4134  -1.4028  -1.3923  -1.3848  -1.3743  -1.3661  -1.3534
    -1.3486  -1.3365  -1.3300  -1.3103  -1.3064  -1.3007  -1.2889  -1.2647
    -1.2603  -1.2536  -1.2528  -1.2476  -1.2361  -1.2231  -1.2225  -1.2140
    -1.2055  -1.2040  -1.1947  -1.1912  -1.1907  -1.1813  -1.1781  -1.1657
    -1.1643  -1.1568  -1.1554  -1.1460  -1.1404  -1.1353  -1.1249  -1.0965
    -1.0946  -1.0888  -1.0847  -1.0832  -1.0742  -1.0478  -1.0285  -1.0279
    -1.0275  -1.0258  -1.0241  -1.0176  -1.0135  -1.0023  -0.9862  -0.9671
    -0.9618  -0.9590  -0.9560  -0.9363  -0.9356  -0.9263  -0.8986  -0.8889
    -0.8647  -0.8605  -0.8343  -0.8335  -0.8302  -0.8295  -0.8268  -0.8224
    -0.8201  -0.8191  -0.8137  -0.8079  -0.7830  -0.7823  -0.7659  -0.7612
    -0.7594  -0.7575  -0.7558  -0.7383  -0.7190  -0.4672  -0.4502  -0.3964
    -0.3767  -0.3543  -0.1908  -0.1305  -0.1296  -0.0863   0.1871   0.1963
     0.5171   0.5289   0.6165   0.6203   0.6581   0.6650   0.8015   0.8151
     0.9252   0.9293   1.0221   1.6136   1.6317   1.6323   1.6687   1.6773
     1.7163   1.7329   1.8008   1.8091   2.0076   2.0126   2.2437   2.3219
     2.3296   2.3417   2.7159   2.7271   2.7928   2.7941   2.8027   2.8046
     2.9529   2.9537   2.9959   3.0955   3.1012   3.3269   3.3291   3.4631
     3.4891   3.4925   3.7600   3.7626   3.8672   3.8927   3.8942   3.9446
     3.9784   4.0804   4.0841   4.3156   4.3183   4.4047   4.4086   4.5200
     4.5283   4.5507   4.5698   4.6939   5.1072   5.3498   5.3647   5.4548
     5.4581   5.5352   5.6392   5.6424   5.6609   5.7084   5.7412   5.7565
     5.7609   5.8106   5.8156   5.8537   6.0311   6.0888   6.1131   6.1195
     6.1370   6.1413   6.1512   6.1576   6.1634   6.1676   6.1769   6.2227

          k =-0.2500 0.2500-0.0833 (167653 PWs)   bands (ev):

   -19.8496  -7.8158  -6.8098  -6.2837  -6.2803  -5.8525  -5.4444  -5.3527
    -5.3486  -5.1554  -5.1544  -5.0405  -5.0358  -4.9583  -4.9355  -4.8622
    -4.7777  -4.7742  -4.7373  -4.7346  -4.5758  -4.5604  -4.5579  -4.5538
    -4.5484  -4.4960  -4.4936  -4.4832  -4.4796  -4.4440  -4.4362  -4.4310
    -4.3923  -4.3892  -4.3564  -4.3548  -4.3075  -4.3009  -4.2951  -4.2912
    -4.2851  -4.2747  -4.2719  -4.2351  -4.2178  -4.2134  -4.2072  -4.2043
    -4.1767  -4.1493  -4.1258  -4.1097  -4.1065  -4.1052  -4.0998  -4.0924
    -4.0911  -4.0902  -4.0412  -4.0296  -4.0214  -3.9787  -3.9701  -3.9620
    -3.9383  -3.9367  -3.9142  -3.9139  -3.9106  -3.9078  -3.9002  -3.8587
    -3.8563  -3.8468  -3.8430  -3.7425  -3.7389  -3.7352  -3.7301  -3.6957
    -3.6922  -3.6704  -3.6445  -3.6369  -3.6152  -3.6112  -3.5945  -3.5919
    -3.5832  -3.5768  -3.5245  -3.5225  -3.5125  -3.4873  -3.4816  -3.4800
    -3.4757  -3.4749  -3.4497  -3.4486  -3.4138  -3.4106  -3.3935  -3.3889
    -3.3594  -3.3552  -3.3406  -3.3134  -3.3100  -3.2755  -3.2716  -3.2382
    -3.2289  -3.2282  -3.2168  -3.2143  -3.2102  -3.2087  -3.1756  -3.1602
    -3.1232  -3.1223  -3.1121  -3.1053  -3.1017  -3.0999  -3.0781  -3.0771
    -3.0595  -3.0566  -3.0522  -3.0299  -3.0276  -3.0212  -3.0194  -3.0159
    -2.9812  -2.9792  -2.9486  -2.9426  -2.9407  -2.9386  -2.9369  -2.8587
    -2.8524  -2.8487  -2.8457  -2.8432  -2.8414  -2.8408  -2.8384  -2.8361
    -2.8353  -2.8263  -2.8185  -2.8107  -2.8046  -2.8003  -2.7975  -2.7846
    -2.7840  -2.7444  -2.7430  -2.7405  -2.7393  -2.7345  -2.7201  -2.7161
    -2.7125  -2.7094  -2.7056  -2.6581  -2.6491  -2.6459  -2.6419  -2.6399
    -2.6369  -2.6109  -2.5560  -2.5502  -2.5477  -2.5452  -2.5399  -2.5340
    -2.5285  -2.5198  -2.5170  -2.4980  -2.4846  -2.4777  -2.4757  -2.4717
    -2.4680  -2.4391  -2.4309  -2.4278  -2.4211  -2.4210  -2.4168  -2.3919
    -2.3703  -2.3594  -2.3188  -2.3031  -2.2981  -2.2876  -2.2792  -2.2766
    -2.2364  -2.2269  -2.2088  -2.2043  -2.1858  -2.1762  -2.1719  -2.1682
    -2.1522  -2.1438  -2.1413  -2.1172  -2.0954  -2.0792  -2.0702  -2.0670
    -2.0662  -2.0578  -2.0566  -2.0495  -2.0413  -2.0383  -2.0352  -2.0311
    -2.0293  -2.0251  -2.0210  -2.0135  -2.0027  -1.9995  -1.9982  -1.9916
    -1.9902  -1.9793  -1.9694  -1.9637  -1.9551  -1.9539  -1.9479  -1.9320
    -1.9094  -1.8799  -1.8739  -1.8406  -1.8258  -1.8224  -1.8125  -1.8039
    -1.7903  -1.7855  -1.7762  -1.7738  -1.7725  -1.7707  -1.7677  -1.7390
    -1.7359  -1.7341  -1.7138  -1.6921  -1.6885  -1.6539  -1.6417  -1.6034
    -1.6013  -1.5893  -1.5681  -1.5644  -1.5587  -1.5495  -1.5386  -1.5297
    -1.5278  -1.5217  -1.5193  -1.5179  -1.5154  -1.5146  -1.5088  -1.4967
    -1.4894  -1.4739  -1.4674  -1.4498  -1.4440  -1.4273  -1.4211  -1.4182
    -1.4163  -1.4113  -1.4067  -1.3929  -1.3811  -1.3749  -1.3645  -1.3533
    -1.3447  -1.3410  -1.3269  -1.3096  -1.3051  -1.2997  -1.2917  -1.2679
    -1.2579  -1.2569  -1.2519  -1.2473  -1.2355  -1.2261  -1.2222  -1.2134
    -1.2087  -1.2016  -1.1961  -1.1913  -1.1890  -1.1821  -1.1777  -1.1667
    -1.1605  -1.1580  -1.1561  -1.1455  -1.1432  -1.1363  -1.1215  -1.0942
    -1.0907  -1.0890  -1.0859  -1.0837  -1.0755  -1.0476  -1.0322  -1.0274
    -1.0268  -1.0249  -1.0225  -1.0185  -1.0079  -1.0024  -0.9871  -0.9704
    -0.9598  -0.9581  -0.9494  -0.9374  -0.9352  -0.9257  -0.8977  -0.8887
    -0.8647  -0.8593  -0.8350  -0.8344  -0.8307  -0.8293  -0.8268  -0.8220
    -0.8197  -0.8170  -0.8139  -0.8124  -0.7839  -0.7809  -0.7666  -0.7620
    -0.7590  -0.7572  -0.7560  -0.7393  -0.7149  -0.4677  -0.4501  -0.3989
    -0.3711  -0.3555  -0.1959  -0.1333  -0.1286  -0.0881   0.1866   0.1988
     0.5123   0.5329   0.6153   0.6212   0.6550   0.6643   0.7971   0.8188
     0.9250   0.9300   1.0236   1.6120   1.6307   1.6347   1.6723   1.6768
     1.7081   1.7407   1.7957   1.8171   2.0039   2.0156   2.2453   2.3140
     2.3375   2.3410   2.7046   2.7345   2.7917   2.7964   2.8019   2.8069
     2.9511   2.9552   2.9924   3.0871   3.1120   3.3264   3.3314   3.4601
     3.4826   3.5010   3.7490   3.7692   3.8721   3.8932   3.8973   3.9369
     3.9828   4.0742   4.0854   4.3096   4.3206   4.4034   4.4114   4.5141
     4.5306   4.5454   4.5831   4.6936   5.1103   5.3390   5.3707   5.4552
     5.4669   5.5428   5.6277   5.6478   5.6675   5.7098   5.7219   5.7555
     5.7672   5.8029   5.8134   5.8571   6.0215   6.0918   6.1111   6.1293
     6.1370   6.1406   6.1458   6.1565   6.1642   6.1740   6.1896   6.2133

          k = 0.2500-0.2500-0.0833 (167653 PWs)   bands (ev):

   -19.8496  -7.8158  -6.8098  -6.2837  -6.2803  -5.8525  -5.4444  -5.3527
    -5.3486  -5.1554  -5.1544  -5.0405  -5.0358  -4.9583  -4.9355  -4.8622
    -4.7777  -4.7742  -4.7373  -4.7346  -4.5758  -4.5604  -4.5579  -4.5538
    -4.5484  -4.4960  -4.4936  -4.4832  -4.4796  -4.4440  -4.4362  -4.4310
    -4.3923  -4.3892  -4.3564  -4.3548  -4.3075  -4.3009  -4.2951  -4.2912
    -4.2851  -4.2747  -4.2719  -4.2351  -4.2178  -4.2134  -4.2072  -4.2043
    -4.1767  -4.1493  -4.1258  -4.1097  -4.1065  -4.1052  -4.0998  -4.0924
    -4.0911  -4.0902  -4.0412  -4.0296  -4.0214  -3.9787  -3.9701  -3.9620
    -3.9383  -3.9367  -3.9142  -3.9139  -3.9106  -3.9078  -3.9002  -3.8587
    -3.8563  -3.8468  -3.8430  -3.7425  -3.7389  -3.7352  -3.7301  -3.6957
    -3.6922  -3.6704  -3.6445  -3.6369  -3.6152  -3.6112  -3.5945  -3.5919
    -3.5832  -3.5768  -3.5245  -3.5225  -3.5125  -3.4873  -3.4816  -3.4800
    -3.4757  -3.4749  -3.4497  -3.4486  -3.4138  -3.4106  -3.3935  -3.3889
    -3.3594  -3.3552  -3.3406  -3.3134  -3.3100  -3.2755  -3.2716  -3.2382
    -3.2289  -3.2282  -3.2168  -3.2143  -3.2102  -3.2087  -3.1756  -3.1602
    -3.1232  -3.1223  -3.1121  -3.1053  -3.1017  -3.0999  -3.0781  -3.0771
    -3.0595  -3.0566  -3.0522  -3.0299  -3.0276  -3.0212  -3.0194  -3.0159
    -2.9812  -2.9792  -2.9486  -2.9426  -2.9407  -2.9386  -2.9369  -2.8587
    -2.8524  -2.8487  -2.8457  -2.8432  -2.8414  -2.8408  -2.8384  -2.8361
    -2.8353  -2.8263  -2.8185  -2.8107  -2.8046  -2.8003  -2.7975  -2.7846
    -2.7840  -2.7444  -2.7430  -2.7405  -2.7393  -2.7345  -2.7201  -2.7161
    -2.7125  -2.7094  -2.7056  -2.6581  -2.6491  -2.6459  -2.6419  -2.6399
    -2.6369  -2.6109  -2.5560  -2.5502  -2.5477  -2.5452  -2.5399  -2.5340
    -2.5285  -2.5198  -2.5170  -2.4980  -2.4846  -2.4777  -2.4757  -2.4717
    -2.4680  -2.4391  -2.4309  -2.4278  -2.4211  -2.4210  -2.4168  -2.3919
    -2.3703  -2.3594  -2.3188  -2.3031  -2.2981  -2.2876  -2.2792  -2.2766
    -2.2364  -2.2269  -2.2088  -2.2043  -2.1858  -2.1762  -2.1719  -2.1682
    -2.1522  -2.1438  -2.1413  -2.1172  -2.0954  -2.0792  -2.0702  -2.0670
    -2.0662  -2.0578  -2.0566  -2.0495  -2.0413  -2.0383  -2.0352  -2.0311
    -2.0293  -2.0251  -2.0210  -2.0135  -2.0027  -1.9995  -1.9982  -1.9916
    -1.9902  -1.9793  -1.9694  -1.9637  -1.9551  -1.9539  -1.9479  -1.9320
    -1.9094  -1.8799  -1.8739  -1.8406  -1.8258  -1.8224  -1.8125  -1.8039
    -1.7903  -1.7855  -1.7762  -1.7738  -1.7725  -1.7707  -1.7677  -1.7390
    -1.7359  -1.7341  -1.7138  -1.6921  -1.6885  -1.6539  -1.6417  -1.6034
    -1.6013  -1.5893  -1.5681  -1.5644  -1.5587  -1.5495  -1.5386  -1.5297
    -1.5278  -1.5217  -1.5193  -1.5179  -1.5154  -1.5146  -1.5088  -1.4967
    -1.4894  -1.4739  -1.4674  -1.4498  -1.4440  -1.4273  -1.4211  -1.4182
    -1.4163  -1.4113  -1.4067  -1.3929  -1.3811  -1.3749  -1.3645  -1.3533
    -1.3447  -1.3410  -1.3269  -1.3096  -1.3051  -1.2997  -1.2917  -1.2679
    -1.2579  -1.2569  -1.2519  -1.2473  -1.2355  -1.2261  -1.2222  -1.2134
    -1.2087  -1.2016  -1.1961  -1.1913  -1.1890  -1.1821  -1.1777  -1.1667
    -1.1605  -1.1580  -1.1561  -1.1455  -1.1432  -1.1363  -1.1215  -1.0942
    -1.0907  -1.0890  -1.0859  -1.0837  -1.0755  -1.0476  -1.0322  -1.0274
    -1.0268  -1.0249  -1.0225  -1.0185  -1.0079  -1.0024  -0.9871  -0.9704
    -0.9598  -0.9581  -0.9494  -0.9374  -0.9352  -0.9257  -0.8977  -0.8887
    -0.8647  -0.8593  -0.8350  -0.8344  -0.8307  -0.8293  -0.8268  -0.8220
    -0.8197  -0.8170  -0.8139  -0.8124  -0.7839  -0.7809  -0.7666  -0.7620
    -0.7590  -0.7572  -0.7560  -0.7393  -0.7149  -0.4677  -0.4501  -0.3989
    -0.3711  -0.3555  -0.1959  -0.1333  -0.1286  -0.0881   0.1866   0.1988
     0.5123   0.5329   0.6153   0.6212   0.6550   0.6643   0.7971   0.8188
     0.9250   0.9300   1.0236   1.6120   1.6307   1.6347   1.6723   1.6768
     1.7081   1.7407   1.7957   1.8171   2.0039   2.0156   2.2453   2.3140
     2.3375   2.3410   2.7046   2.7345   2.7917   2.7964   2.8019   2.8069
     2.9511   2.9552   2.9924   3.0871   3.1120   3.3264   3.3314   3.4601
     3.4826   3.5010   3.7490   3.7692   3.8721   3.8932   3.8973   3.9369
     3.9828   4.0742   4.0854   4.3096   4.3206   4.4034   4.4114   4.5141
     4.5306   4.5454   4.5831   4.6936   5.1105   5.3392   5.3700   5.4551
     5.4667   5.5445   5.6278   5.6479   5.6668   5.7085   5.7215   5.7553
     5.7672   5.8029   5.8134   5.8570   6.0196   6.0904   6.1105   6.1292
     6.1384   6.1411   6.1460   6.1564   6.1642   6.1727   6.1968   6.2190

          k =-0.2500 0.2500 0.2500 (167588 PWs)   bands (ev):

   -19.8496  -7.8158  -6.8098  -6.2837  -6.2803  -5.8525  -5.4444  -5.3527
    -5.3486  -5.1554  -5.1544  -5.0405  -5.0358  -4.9583  -4.9355  -4.8622
    -4.7777  -4.7742  -4.7373  -4.7346  -4.5758  -4.5604  -4.5579  -4.5538
    -4.5484  -4.4960  -4.4936  -4.4832  -4.4796  -4.4440  -4.4362  -4.4310
    -4.3923  -4.3891  -4.3564  -4.3548  -4.3075  -4.3009  -4.2951  -4.2912
    -4.2851  -4.2747  -4.2719  -4.2351  -4.2178  -4.2134  -4.2072  -4.2043
    -4.1767  -4.1493  -4.1258  -4.1097  -4.1065  -4.1052  -4.0998  -4.0925
    -4.0911  -4.0902  -4.0412  -4.0296  -4.0214  -3.9787  -3.9701  -3.9620
    -3.9383  -3.9367  -3.9142  -3.9139  -3.9106  -3.9078  -3.9002  -3.8587
    -3.8563  -3.8468  -3.8430  -3.7425  -3.7390  -3.7352  -3.7301  -3.6957
    -3.6922  -3.6704  -3.6445  -3.6369  -3.6152  -3.6112  -3.5945  -3.5919
    -3.5832  -3.5768  -3.5245  -3.5225  -3.5126  -3.4873  -3.4816  -3.4800
    -3.4757  -3.4749  -3.4497  -3.4486  -3.4138  -3.4106  -3.3935  -3.3889
    -3.3594  -3.3552  -3.3406  -3.3134  -3.3100  -3.2755  -3.2716  -3.2382
    -3.2289  -3.2282  -3.2168  -3.2143  -3.2102  -3.2087  -3.1756  -3.1602
    -3.1232  -3.1223  -3.1121  -3.1053  -3.1017  -3.0999  -3.0782  -3.0771
    -3.0595  -3.0566  -3.0522  -3.0299  -3.0276  -3.0212  -3.0194  -3.0159
    -2.9812  -2.9792  -2.9486  -2.9426  -2.9407  -2.9386  -2.9369  -2.8587
    -2.8524  -2.8487  -2.8457  -2.8432  -2.8414  -2.8408  -2.8384  -2.8361
    -2.8353  -2.8263  -2.8185  -2.8107  -2.8046  -2.8003  -2.7975  -2.7846
    -2.7840  -2.7444  -2.7430  -2.7405  -2.7393  -2.7345  -2.7201  -2.7161
    -2.7125  -2.7094  -2.7056  -2.6581  -2.6491  -2.6459  -2.6419  -2.6399
    -2.6369  -2.6109  -2.5560  -2.5502  -2.5477  -2.5452  -2.5399  -2.5340
    -2.5285  -2.5198  -2.5170  -2.4980  -2.4846  -2.4777  -2.4757  -2.4717
    -2.4680  -2.4391  -2.4309  -2.4278  -2.4211  -2.4210  -2.4168  -2.3919
    -2.3703  -2.3594  -2.3188  -2.3031  -2.2981  -2.2876  -2.2792  -2.2766
    -2.2364  -2.2269  -2.2088  -2.2043  -2.1858  -2.1762  -2.1719  -2.1682
    -2.1522  -2.1438  -2.1413  -2.1172  -2.0954  -2.0792  -2.0702  -2.0670
    -2.0662  -2.0578  -2.0566  -2.0495  -2.0413  -2.0384  -2.0352  -2.0311
    -2.0293  -2.0251  -2.0210  -2.0135  -2.0027  -1.9995  -1.9982  -1.9916
    -1.9902  -1.9793  -1.9694  -1.9637  -1.9551  -1.9539  -1.9479  -1.9320
    -1.9094  -1.8799  -1.8739  -1.8406  -1.8258  -1.8224  -1.8125  -1.8039
    -1.7903  -1.7855  -1.7762  -1.7738  -1.7724  -1.7707  -1.7677  -1.7390
    -1.7359  -1.7341  -1.7138  -1.6921  -1.6885  -1.6539  -1.6418  -1.6034
    -1.6013  -1.5893  -1.5681  -1.5644  -1.5587  -1.5495  -1.5386  -1.5297
    -1.5278  -1.5217  -1.5193  -1.5179  -1.5154  -1.5146  -1.5088  -1.4967
    -1.4894  -1.4739  -1.4674  -1.4498  -1.4440  -1.4273  -1.4211  -1.4182
    -1.4163  -1.4113  -1.4067  -1.3929  -1.3811  -1.3749  -1.3645  -1.3533
    -1.3447  -1.3410  -1.3269  -1.3096  -1.3051  -1.2997  -1.2917  -1.2679
    -1.2579  -1.2569  -1.2519  -1.2473  -1.2355  -1.2261  -1.2222  -1.2134
    -1.2087  -1.2016  -1.1961  -1.1913  -1.1890  -1.1821  -1.1777  -1.1667
    -1.1605  -1.1580  -1.1561  -1.1455  -1.1432  -1.1363  -1.1215  -1.0942
    -1.0907  -1.0890  -1.0859  -1.0837  -1.0755  -1.0476  -1.0321  -1.0274
    -1.0268  -1.0249  -1.0225  -1.0185  -1.0079  -1.0024  -0.9871  -0.9704
    -0.9598  -0.9581  -0.9494  -0.9374  -0.9352  -0.9257  -0.8977  -0.8887
    -0.8647  -0.8593  -0.8350  -0.8344  -0.8307  -0.8293  -0.8268  -0.8220
    -0.8197  -0.8170  -0.8139  -0.8124  -0.7839  -0.7809  -0.7666  -0.7620
    -0.7590  -0.7572  -0.7560  -0.7393  -0.7149  -0.4677  -0.4501  -0.3989
    -0.3711  -0.3555  -0.1959  -0.1333  -0.1286  -0.0881   0.1866   0.1988
     0.5123   0.5329   0.6153   0.6212   0.6550   0.6643   0.7971   0.8188
     0.9250   0.9300   1.0236   1.6120   1.6307   1.6347   1.6723   1.6768
     1.7082   1.7407   1.7957   1.8171   2.0039   2.0156   2.2453   2.3140
     2.3375   2.3410   2.7046   2.7345   2.7917   2.7964   2.8019   2.8069
     2.9511   2.9552   2.9924   3.0871   3.1120   3.3264   3.3314   3.4601
     3.4826   3.5010   3.7490   3.7692   3.8721   3.8932   3.8973   3.9369
     3.9828   4.0742   4.0854   4.3096   4.3206   4.4034   4.4114   4.5141
     4.5306   4.5454   4.5831   4.6937   5.1038   5.3365   5.3644   5.4549
     5.4665   5.5394   5.6277   5.6476   5.6886   5.7039   5.7531   5.7570
     5.7727   5.8029   5.8138   5.8571   6.0331   6.0895   6.1023   6.1224
     6.1375   6.1441   6.1565   6.1598   6.1644   6.1839   6.2048   6.2485

     the Fermi energy is     0.8797 ev

!    total energy              =   -7425.28051414 Ry
     Harris-Foulkes estimate   =   -7425.28051416 Ry
     estimated scf accuracy    <          5.1E-09 Ry

     The total energy is the sum of the following terms:

     one-electron contribution =  -48889.94233786 Ry
     hartree contribution      =   24996.00481778 Ry
     xc contribution           =   -3604.26298855 Ry
     ewald contribution        =   20072.92263319 Ry
     smearing contrib. (-TS)   =      -0.00263870 Ry

     convergence has been achieved in  25 iterations

     Writing output data file 9238892.save

     init_run     :    162.87s CPU    168.49s WALL (       1 calls)
     electrons    :   9201.06s CPU   9519.47s WALL (       1 calls)

     Called by init_run:
     wfcinit      :    126.26s CPU    131.13s WALL (       1 calls)
     potinit      :     12.67s CPU     13.08s WALL (       1 calls)

     Called by electrons:
     c_bands      :   7657.08s CPU   7909.08s WALL (      26 calls)
     sum_band     :   1010.69s CPU   1063.17s WALL (      26 calls)
     v_of_rho     :    193.28s CPU    202.79s WALL (      26 calls)
     newd         :    350.42s CPU    354.13s WALL (      26 calls)
     mix_rho      :      4.50s CPU      4.85s WALL (      26 calls)
     vdW_energy   :      7.68s CPU      8.18s WALL (      26 calls)
     vdW_ffts     :    120.76s CPU    125.84s WALL (      52 calls)
     vdW_v        :     24.36s CPU     25.10s WALL (      26 calls)

     Called by c_bands:
     init_us_2    :      9.70s CPU      9.97s WALL (     318 calls)
     cegterg      :   7528.94s CPU   7779.68s WALL (     156 calls)

     Called by *egterg:
     h_psi        :   2866.55s CPU   3089.77s WALL (     778 calls)
     s_psi        :    558.61s CPU    560.63s WALL (     778 calls)
     g_psi        :      5.63s CPU      5.65s WALL (     616 calls)
     cdiaghg      :   2022.10s CPU   2026.79s WALL (     766 calls)

     Called by h_psi:
     add_vuspsi   :    559.60s CPU    561.71s WALL (     778 calls)

     General routines
     calbec       :    965.28s CPU    967.70s WALL (     934 calls)
     fft          :    240.54s CPU    249.90s WALL (    1716 calls)
     ffts         :      5.12s CPU      5.38s WALL (      52 calls)
     fftw         :   1830.90s CPU   2083.23s WALL (  422026 calls)
     interpolate  :     10.77s CPU     11.47s WALL (      52 calls)
     davcio       :      0.00s CPU      0.13s WALL (       6 calls)

     Parallel routines
     fft_scatter  :   1300.70s CPU   1493.25s WALL (  423794 calls)

     PWSCF        :     2h36m CPU        2h41m WALL


   This run was terminated on:   7:30:24   1Jul2015            

=------------------------------------------------------------------------------=
   JOB DONE.
=------------------------------------------------------------------------------=
