Setting SGE environment for SCC

     Program PWSCF v.5.1.2 starts on 24Aug2015 at 10:31:43 

     This program is part of the open-source Quantum ESPRESSO suite
     for quantum simulation of materials; please cite
         "P. Giannozzi et al., J. Phys.:Condens. Matter 21 395502 (2009);
          URL http://www.quantum-espresso.org", 
     in publications or presentations arising from this work. More details at
     http://www.quantum-espresso.org/quote

     Parallel version (MPI), running on    32 processors
     R & G space division:  proc/nbgrp/npool/nimage =      32
     Reading input from hollow.H2.Au5859.d.2.3.phi.45.psi.0.in
Warning: card &IONS ignored
Warning: card / ignored
Warning: card &CELL ignored
Warning: card / ignored

     Current dimensions of program PWSCF are:
     Max number of different atomic species (ntypx) = 10
     Max number of k-points (npk) =  40000
     Max angular momentum in pseudopotentials (lmaxx) =  3

     IMPORTANT: XC functional enforced from input :
     Exchange-correlation      = VDW-DF ( 1  4  4  0 1 0)
     Any further DFT definition will be discarded
     Please, verify this is what you really want


     Subspace diagonalization in iterative solution of the eigenvalue problem:
     a serial algorithm will be used


     Parallelization info
     --------------------
     sticks:   dense  smooth     PW     G-vecs:    dense   smooth      PW
     Min         578     289     74               118518    41891    5486
     Max         579     290     75               118533    41932    5497
     Sum       18505    9265   2385              3792731  1341081  175711


     Title: 
     hollow.H2.Au5859.d.2.3.phi.45.psi.0                                        


     bravais-lattice index     =            8
     lattice parameter (alat)  =      24.1233  a.u.
     unit-cell volume          =   28076.2361 (a.u.)^3
     number of atoms/cell      =           75
     number of atomic types    =            3
     number of electrons       =       800.00
     number of Kohn-Sham states=          480
     kinetic-energy cutoff     =      50.0000  Ry
     charge density cutoff     =     400.0000  Ry
     convergence threshold     =      1.0E-08
     mixing beta               =       0.7000
     number of iterations used =            8  plain     mixing
     Exchange-correlation      = VDW-DF ( 1  4  4  0 1 0)

     celldm(1)=  24.123277  celldm(2)=   1.000000  celldm(3)=   2.000000
     celldm(4)=   0.000000  celldm(5)=   0.000000  celldm(6)=   0.000000

     crystal axes: (cart. coord. in units of alat)
               a(1) = (   1.000000   0.000000   0.000000 )  
               a(2) = (   0.000000   1.000000   0.000000 )  
               a(3) = (   0.000000   0.000000   2.000000 )  

     reciprocal axes: (cart. coord. in units 2 pi/alat)
               b(1) = (  1.000000  0.000000  0.000000 )  
               b(2) = (  0.000000  1.000000  0.000000 )  
               b(3) = (  0.000000  0.000000  0.500000 )  


     PseudoPot. # 1 for Au read from file:
     /home/scc/andrejb/qe/pseudo/Au.pbe-nd-van.UPF
     MD5 check sum: 458681b50f36d87ef23c61b04bba420a
     Pseudo is Ultrasoft + core correction, Zval = 11.0
     Generated by new atomic code, or converted to UPF format
     Using radial grid of  985 points,  3 beta functions with: 
                l(1) =   1
                l(2) =   2
                l(3) =   2
     Q(r) pseudized with  8 coefficients,  rinner =    1.100   1.100   1.100
                                                       1.100   1.100

     PseudoPot. # 2 for H  read from file:
     /home/scc/andrejb/qe/pseudo/H.pbe-van_ak.UPF
     MD5 check sum: 403db7282739603aa925980fa9b8608d
     Pseudo is Ultrasoft, Zval =  1.0
     Generated by new atomic code, or converted to UPF format
     Using radial grid of  615 points,  1 beta functions with: 
                l(1) =   0
     Q(r) pseudized with  8 coefficients,  rinner =    0.800

     PseudoPot. # 3 for O  read from file:
     /home/scc/andrejb/qe/pseudo/O.pbe-van_ak.UPF
     MD5 check sum: 4b8c549914a63cae506c6ff22b5af4fe
     Pseudo is Ultrasoft, Zval =  6.0
     Generated by new atomic code, or converted to UPF format
     Using radial grid of  737 points,  4 beta functions with: 
                l(1) =   0
                l(2) =   0
                l(3) =   1
                l(4) =   1
     Q(r) pseudized with  8 coefficients,  rinner =    0.800   0.800   0.800


     vdW kernel table read from file vdW_kernel_table
     MD5 check sum: 48e77a2e26edf626eeb0eaa751ad5cac

     atomic species   valence    mass     pseudopotential
        Au            11.00   196.96657     Au( 1.00)
        H              1.00     1.01000     H ( 1.00)
        O              6.00    16.00000     O ( 1.00)

     No symmetry found



   Cartesian axes

     site n.     atom                  positions (alat units)
         1           O   tau(   1) = (   0.1686617   0.1891549   0.7523428  )
         2           H   tau(   2) = (   0.1666051   0.1666105   0.6794873  )
         3           H   tau(   3) = (   0.1627583   0.1245926   0.7925335  )
         4           Au  tau(   4) = (   0.0000000   0.0000000   0.0000000  )
         5           Au  tau(   5) = (   0.3332217   0.0000000   0.0000000  )
         6           Au  tau(   6) = (   0.6664434   0.0000000   0.0000000  )
         7           Au  tau(   7) = (   0.1666109   0.1666109   0.0000000  )
         8           Au  tau(   8) = (   0.4998326   0.1666109   0.0000000  )
         9           Au  tau(   9) = (   0.8330542   0.1666109   0.0000000  )
        10           Au  tau(  10) = (   0.0000000   0.3332217   0.0000000  )
        11           Au  tau(  11) = (   0.3332217   0.3332217   0.0000000  )
        12           Au  tau(  12) = (   0.6664434   0.3332217   0.0000000  )
        13           Au  tau(  13) = (   0.1666109   0.4998326   0.0000000  )
        14           Au  tau(  14) = (   0.4998326   0.4998326   0.0000000  )
        15           Au  tau(  15) = (   0.8330542   0.4998326   0.0000000  )
        16           Au  tau(  16) = (   0.0000000   0.6664434   0.0000000  )
        17           Au  tau(  17) = (   0.3332217   0.6664434   0.0000000  )
        18           Au  tau(  18) = (   0.6664434   0.6664434   0.0000000  )
        19           Au  tau(  19) = (   0.1666109   0.8330542   0.0000000  )
        20           Au  tau(  20) = (   0.4998326   0.8330542   0.0000000  )
        21           Au  tau(  21) = (   0.8330542   0.8330542   0.0000000  )
        22           Au  tau(  22) = (   0.1666109   0.0000000   0.1666109  )
        23           Au  tau(  23) = (   0.4998326   0.0000000   0.1666109  )
        24           Au  tau(  24) = (   0.8330542   0.0000000   0.1666109  )
        25           Au  tau(  25) = (   0.0000000   0.1666109   0.1666109  )
        26           Au  tau(  26) = (   0.3332217   0.1666109   0.1666109  )
        27           Au  tau(  27) = (   0.6664434   0.1666109   0.1666109  )
        28           Au  tau(  28) = (   0.1666109   0.3332217   0.1666109  )
        29           Au  tau(  29) = (   0.4998326   0.3332217   0.1666109  )
        30           Au  tau(  30) = (   0.8330542   0.3332217   0.1666109  )
        31           Au  tau(  31) = (   0.0000000   0.4998326   0.1666109  )
        32           Au  tau(  32) = (   0.3332217   0.4998326   0.1666109  )
        33           Au  tau(  33) = (   0.6664434   0.4998326   0.1666109  )
        34           Au  tau(  34) = (   0.1666109   0.6664434   0.1666109  )
        35           Au  tau(  35) = (   0.4998326   0.6664434   0.1666109  )
        36           Au  tau(  36) = (   0.8330542   0.6664434   0.1666109  )
        37           Au  tau(  37) = (   0.0000000   0.8330542   0.1666109  )
        38           Au  tau(  38) = (   0.3332217   0.8330542   0.1666109  )
        39           Au  tau(  39) = (   0.6664434   0.8330542   0.1666109  )
        40           Au  tau(  40) = (  -0.0000182  -0.0000182   0.3335478  )
        41           Au  tau(  41) = (   0.3332215  -0.0000181   0.3335473  )
        42           Au  tau(  42) = (   0.6664447  -0.0000183   0.3335481  )
        43           Au  tau(  43) = (  -0.0000181   0.3332215   0.3335473  )
        44           Au  tau(  44) = (   0.3332215   0.3332215   0.3335468  )
        45           Au  tau(  45) = (   0.6664445   0.3332215   0.3335477  )
        46           Au  tau(  46) = (  -0.0000183   0.6664447   0.3335481  )
        47           Au  tau(  47) = (   0.3332215   0.6664445   0.3335477  )
        48           Au  tau(  48) = (   0.6664446   0.6664446   0.3335486  )
        49           Au  tau(  49) = (   0.1666097   0.1666097   0.3335483  )
        50           Au  tau(  50) = (   0.4998320   0.1666098   0.3335477  )
        51           Au  tau(  51) = (   0.8330732   0.1666096   0.3335480  )
        52           Au  tau(  52) = (   0.1666098   0.4998320   0.3335477  )
        53           Au  tau(  53) = (   0.4998322   0.4998322   0.3335470  )
        54           Au  tau(  54) = (   0.8330731   0.4998322   0.3335474  )
        55           Au  tau(  55) = (   0.1666096   0.8330732   0.3335480  )
        56           Au  tau(  56) = (   0.4998322   0.8330731   0.3335474  )
        57           Au  tau(  57) = (   0.8330731   0.8330731   0.3335478  )
        58           Au  tau(  58) = (   0.1666104  -0.0000111   0.4993095  )
        59           Au  tau(  59) = (   0.4998323  -0.0000112   0.4993099  )
        60           Au  tau(  60) = (   0.8330660  -0.0000111   0.4993009  )
        61           Au  tau(  61) = (  -0.0000111   0.1666104   0.4993095  )
        62           Au  tau(  62) = (   0.3332213   0.1666106   0.4993185  )
        63           Au  tau(  63) = (   0.6664437   0.1666106   0.4993187  )
        64           Au  tau(  64) = (   0.1666106   0.3332213   0.4993185  )
        65           Au  tau(  65) = (   0.4998324   0.3332216   0.4993185  )
        66           Au  tau(  66) = (   0.8330658   0.3332215   0.4993102  )
        67           Au  tau(  67) = (  -0.0000112   0.4998323   0.4993099  )
        68           Au  tau(  68) = (   0.3332216   0.4998324   0.4993185  )
        69           Au  tau(  69) = (   0.6664437   0.4998325   0.4993187  )
        70           Au  tau(  70) = (   0.1666106   0.6664437   0.4993187  )
        71           Au  tau(  71) = (   0.4998325   0.6664437   0.4993187  )
        72           Au  tau(  72) = (   0.8330658   0.6664438   0.4993102  )
        73           Au  tau(  73) = (  -0.0000111   0.8330660   0.4993009  )
        74           Au  tau(  74) = (   0.3332215   0.8330658   0.4993102  )
        75           Au  tau(  75) = (   0.6664438   0.8330658   0.4993102  )

     number of k points=     6  Marzari-Vanderbilt smearing, width (Ry)=  0.0200
                       cart. coord. in units 2pi/alat
        k(    1) = (   0.2500000   0.2500000   0.0833333), wk =   0.3333333
        k(    2) = (   0.2500000   0.2500000  -0.2500000), wk =   0.3333333
        k(    3) = (  -0.2500000  -0.2500000   0.0833333), wk =   0.3333333
        k(    4) = (  -0.2500000   0.2500000  -0.0833333), wk =   0.3333333
        k(    5) = (   0.2500000  -0.2500000  -0.0833333), wk =   0.3333333
        k(    6) = (  -0.2500000   0.2500000   0.2500000), wk =   0.3333333

     Dense  grid:  3792731 G-vectors     FFT dimensions: ( 160, 160, 320)

     Smooth grid:  1341081 G-vectors     FFT dimensions: ( 120, 120, 225)

     Largest allocated arrays     est. size (Mb)     dimensions
        Kohn-Sham Wavefunctions        38.58 Mb     (    5267,  480)
        NL pseudopotentials            76.03 Mb     (    5267,  946)
        Each V/rho on FFT grid          3.91 Mb     (  256000)
        Each G-vector array             0.90 Mb     (  118520)
        G-vector shells                 0.08 Mb     (   10286)
     Largest temporary arrays     est. size (Mb)     dimensions
        Auxiliary wavefunctions       154.31 Mb     (    5267, 1920)
        Each subspace H/S matrix       56.25 Mb     (    1920, 1920)
        Each <psi_i|beta_j> matrix      6.93 Mb     (     946,  480)
        Arrays for rho mixing          31.25 Mb     (  256000,    8)

     Initial potential from superposition of free atoms
     Check: negative starting charge=   -1.945138

     starting charge  799.16392, renormalised to  800.00000

     negative rho (up, down):  1.947E+00 0.000E+00


     ************************************************************************
     *
     * You are using vdW-DF for exchange-correlation in this calculation.
     * Please cite the following three references that made this development
     * possible:
     *
     *   M. Dion, H. Rydberg, E. Schroder, D. C. Langreth, and
     *   B. I. Lundqvist, Phys. Rev. Lett. 92, 246401 (2004).
     *
     *   T. Thonhauser, V. R. Cooper, S. Li, A. Puzder, P. Hyldgaard, and
     *   D. C. Langreth, Phys. Rev. B 76, 125112 (2007).
     *
     *   G. Roman-Perez and J. M. Soler, Phys. Rev. Lett. 103, 096102 (2009).
     *
     *
     * If you are using vdW-DF2, please also cite:
     *
     *   K. Lee, E. D. Murray, L. Kong, B. I. Lundqvist, and
     *   D. C. Langreth, Phys. Rev. B 82, 081101(R) (2010).
     *
     *
     * If you are calculating the stress with vdW-DF, please also cite:
     *
     *   R. Sabatini, E. Kucukbenli, B. Kolb, T. Thonhauser, and
     *   S. de Gironcoli, J. Phys.: Condens. Matter 24, 424209 (2012).
     *
     ************************************************************************

     Carrying out vdW-DF run using the following parameters:

     Nqs =      20    Nr_points =    1024   r_max =   100.000
     q_mesh =
               0.00001000     0.04494208     0.09755937     0.15916263
               0.23128650     0.31572767     0.41458969     0.53033537
               0.66584808     0.82450364     1.01025438     1.22772762
               1.48234092     1.78043706     2.12944203     2.53805004
               3.01644009     3.57652955     4.23227104     5.00000000

     Gradients computed in reciprocal space

     ************************************************************************


     Starting wfc are  654 randomized atomic wfcs

     total cpu time spent up to now is      134.6 secs

     Self-consistent Calculation

     iteration #  1     ecut=    50.00 Ry     beta=0.70
     Davidson diagonalization with overlap
     ethr =  1.00E-02,  avg # of iterations =  3.0

     Threshold (ethr) on eigenvalues was too large:
     Diagonalizing with lowered threshold

     Davidson diagonalization with overlap
     ethr =  4.20E-04,  avg # of iterations =  2.0

     negative rho (up, down):  1.947E+00 0.000E+00

     total cpu time spent up to now is      587.7 secs

     total energy              =   -7423.04574773 Ry
     Harris-Foulkes estimate   =   -7426.07049212 Ry
     estimated scf accuracy    <       3.73880560 Ry

     iteration #  2     ecut=    50.00 Ry     beta=0.70
     Davidson diagonalization with overlap
     ethr =  4.67E-04,  avg # of iterations = 11.3

     negative rho (up, down):  1.943E+00 0.000E+00

     total cpu time spent up to now is     1352.3 secs

     total energy              =   -7415.27964811 Ry
     Harris-Foulkes estimate   =   -7432.58676300 Ry
     estimated scf accuracy    <      89.82109227 Ry

     iteration #  3     ecut=    50.00 Ry     beta=0.70
     Davidson diagonalization with overlap
     ethr =  4.67E-04,  avg # of iterations =  6.0

     negative rho (up, down):  1.953E+00 0.000E+00

     total cpu time spent up to now is     1836.8 secs

     total energy              =   -7424.07242453 Ry
     Harris-Foulkes estimate   =   -7425.89149174 Ry
     estimated scf accuracy    <       7.71531766 Ry

     iteration #  4     ecut=    50.00 Ry     beta=0.70
     Davidson diagonalization with overlap
     ethr =  4.67E-04,  avg # of iterations =  5.0

     negative rho (up, down):  1.956E+00 0.000E+00

     total cpu time spent up to now is     2104.9 secs

     total energy              =   -7424.78890048 Ry
     Harris-Foulkes estimate   =   -7425.70792240 Ry
     estimated scf accuracy    <       5.28616951 Ry

     iteration #  5     ecut=    50.00 Ry     beta=0.70
     Davidson diagonalization with overlap
     ethr =  4.67E-04,  avg # of iterations =  6.3

     negative rho (up, down):  1.963E+00 0.000E+00

     total cpu time spent up to now is     2399.6 secs

     total energy              =   -7425.10278239 Ry
     Harris-Foulkes estimate   =   -7425.56886981 Ry
     estimated scf accuracy    <       3.44577280 Ry

     iteration #  6     ecut=    50.00 Ry     beta=0.70
     Davidson diagonalization with overlap
     ethr =  4.31E-04,  avg # of iterations =  3.0

     negative rho (up, down):  1.967E+00 0.000E+00

     total cpu time spent up to now is     2639.2 secs

     total energy              =   -7425.28102214 Ry
     Harris-Foulkes estimate   =   -7425.33691127 Ry
     estimated scf accuracy    <       0.19221698 Ry

     iteration #  7     ecut=    50.00 Ry     beta=0.70
     Davidson diagonalization with overlap
     ethr =  2.40E-05,  avg # of iterations =  9.3

     negative rho (up, down):  1.970E+00 0.000E+00

     total cpu time spent up to now is     2984.0 secs

     total energy              =   -7425.28406821 Ry
     Harris-Foulkes estimate   =   -7425.33385329 Ry
     estimated scf accuracy    <       0.26424604 Ry

     iteration #  8     ecut=    50.00 Ry     beta=0.70
     Davidson diagonalization with overlap
     ethr =  2.40E-05,  avg # of iterations =  3.0

     negative rho (up, down):  1.971E+00 0.000E+00

     total cpu time spent up to now is     3224.1 secs

     total energy              =   -7425.29451150 Ry
     Harris-Foulkes estimate   =   -7425.31265304 Ry
     estimated scf accuracy    <       0.07464816 Ry

     iteration #  9     ecut=    50.00 Ry     beta=0.70
     Davidson diagonalization with overlap
     ethr =  9.33E-06,  avg # of iterations =  8.8

     negative rho (up, down):  1.972E+00 0.000E+00

     total cpu time spent up to now is     3547.0 secs

     total energy              =   -7425.29436744 Ry
     Harris-Foulkes estimate   =   -7425.30477420 Ry
     estimated scf accuracy    <       0.03552788 Ry

     iteration # 10     ecut=    50.00 Ry     beta=0.70
     Davidson diagonalization with overlap
     ethr =  4.44E-06,  avg # of iterations =  8.2

     negative rho (up, down):  1.973E+00 0.000E+00

     total cpu time spent up to now is     3851.7 secs

     total energy              =   -7425.29497356 Ry
     Harris-Foulkes estimate   =   -7425.29852805 Ry
     estimated scf accuracy    <       0.01123340 Ry

     iteration # 11     ecut=    50.00 Ry     beta=0.70
     Davidson diagonalization with overlap
     ethr =  1.40E-06,  avg # of iterations =  7.3

     negative rho (up, down):  1.974E+00 0.000E+00

     total cpu time spent up to now is     4149.4 secs

     total energy              =   -7425.29506958 Ry
     Harris-Foulkes estimate   =   -7425.29657053 Ry
     estimated scf accuracy    <       0.00530935 Ry

     iteration # 12     ecut=    50.00 Ry     beta=0.70
     Davidson diagonalization with overlap
     ethr =  6.64E-07,  avg # of iterations =  3.2

     negative rho (up, down):  1.975E+00 0.000E+00

     total cpu time spent up to now is     4388.9 secs

     total energy              =   -7425.29416515 Ry
     Harris-Foulkes estimate   =   -7425.29562954 Ry
     estimated scf accuracy    <       0.00224548 Ry

     iteration # 13     ecut=    50.00 Ry     beta=0.70
     Davidson diagonalization with overlap
     ethr =  2.81E-07,  avg # of iterations =  7.3

     negative rho (up, down):  1.974E+00 0.000E+00

     total cpu time spent up to now is     4827.2 secs

     total energy              =   -7425.29276064 Ry
     Harris-Foulkes estimate   =   -7425.29726455 Ry
     estimated scf accuracy    <       0.02424648 Ry

     iteration # 14     ecut=    50.00 Ry     beta=0.70
     Davidson diagonalization with overlap
     ethr =  2.81E-07,  avg # of iterations =  3.0

     negative rho (up, down):  1.974E+00 0.000E+00

     total cpu time spent up to now is     5134.2 secs

     total energy              =   -7425.29482800 Ry
     Harris-Foulkes estimate   =   -7425.29509729 Ry
     estimated scf accuracy    <       0.00096321 Ry

     iteration # 15     ecut=    50.00 Ry     beta=0.70
     Davidson diagonalization with overlap
     ethr =  1.20E-07,  avg # of iterations =  2.0

     negative rho (up, down):  1.974E+00 0.000E+00

     total cpu time spent up to now is     5356.0 secs

     total energy              =   -7425.29494670 Ry
     Harris-Foulkes estimate   =   -7425.29501888 Ry
     estimated scf accuracy    <       0.00029081 Ry

     iteration # 16     ecut=    50.00 Ry     beta=0.70
     Davidson diagonalization with overlap
     ethr =  3.64E-08,  avg # of iterations =  2.0

     negative rho (up, down):  1.974E+00 0.000E+00

     total cpu time spent up to now is     5592.6 secs

     total energy              =   -7425.29489552 Ry
     Harris-Foulkes estimate   =   -7425.29509072 Ry
     estimated scf accuracy    <       0.00168004 Ry

     iteration # 17     ecut=    50.00 Ry     beta=0.70
     Davidson diagonalization with overlap
     ethr =  3.64E-08,  avg # of iterations =  2.0

     negative rho (up, down):  1.974E+00 0.000E+00

     total cpu time spent up to now is     5809.9 secs

     total energy              =   -7425.29499103 Ry
     Harris-Foulkes estimate   =   -7425.29499724 Ry
     estimated scf accuracy    <       0.00001983 Ry

     iteration # 18     ecut=    50.00 Ry     beta=0.70
     Davidson diagonalization with overlap
     ethr =  2.48E-09,  avg # of iterations =  2.0

     negative rho (up, down):  1.974E+00 0.000E+00

     total cpu time spent up to now is     6058.0 secs

     total energy              =   -7425.29499386 Ry
     Harris-Foulkes estimate   =   -7425.29499672 Ry
     estimated scf accuracy    <       0.00001010 Ry

     iteration # 19     ecut=    50.00 Ry     beta=0.70
     Davidson diagonalization with overlap
     ethr =  1.26E-09,  avg # of iterations =  2.0

     negative rho (up, down):  1.974E+00 0.000E+00

     total cpu time spent up to now is     6305.7 secs

     total energy              =   -7425.29499522 Ry
     Harris-Foulkes estimate   =   -7425.29499582 Ry
     estimated scf accuracy    <       0.00000197 Ry

     iteration # 20     ecut=    50.00 Ry     beta=0.70
     Davidson diagonalization with overlap
     ethr =  2.46E-10,  avg # of iterations =  2.0

     negative rho (up, down):  1.974E+00 0.000E+00

     total cpu time spent up to now is     6558.1 secs

     total energy              =   -7425.29499542 Ry
     Harris-Foulkes estimate   =   -7425.29499600 Ry
     estimated scf accuracy    <       0.00000307 Ry

     iteration # 21     ecut=    50.00 Ry     beta=0.70
     Davidson diagonalization with overlap
     ethr =  2.46E-10,  avg # of iterations =  2.0

     negative rho (up, down):  1.974E+00 0.000E+00

     total cpu time spent up to now is     6777.9 secs

     total energy              =   -7425.29499570 Ry
     Harris-Foulkes estimate   =   -7425.29499587 Ry
     estimated scf accuracy    <       0.00000090 Ry

     iteration # 22     ecut=    50.00 Ry     beta=0.70
     Davidson diagonalization with overlap
     ethr =  1.13E-10,  avg # of iterations =  2.0

     negative rho (up, down):  1.974E+00 0.000E+00

     total cpu time spent up to now is     6999.3 secs

     total energy              =   -7425.29499579 Ry
     Harris-Foulkes estimate   =   -7425.29499588 Ry
     estimated scf accuracy    <       0.00000034 Ry

     iteration # 23     ecut=    50.00 Ry     beta=0.70
     Davidson diagonalization with overlap
     ethr =  4.20E-11,  avg # of iterations =  3.0

     negative rho (up, down):  1.974E+00 0.000E+00

     total cpu time spent up to now is     7237.8 secs

     total energy              =   -7425.29499579 Ry
     Harris-Foulkes estimate   =   -7425.29499587 Ry
     estimated scf accuracy    <       0.00000024 Ry

     iteration # 24     ecut=    50.00 Ry     beta=0.70
     Davidson diagonalization with overlap
     ethr =  3.00E-11,  avg # of iterations =  2.0

     negative rho (up, down):  1.974E+00 0.000E+00

     total cpu time spent up to now is     7465.8 secs

     total energy              =   -7425.29499584 Ry
     Harris-Foulkes estimate   =   -7425.29499585 Ry
     estimated scf accuracy    <       0.00000014 Ry

     iteration # 25     ecut=    50.00 Ry     beta=0.70
     Davidson diagonalization with overlap
     ethr =  1.78E-11,  avg # of iterations =  2.0

     negative rho (up, down):  1.974E+00 0.000E+00

     total cpu time spent up to now is     7694.4 secs

     total energy              =   -7425.29499586 Ry
     Harris-Foulkes estimate   =   -7425.29499586 Ry
     estimated scf accuracy    <       0.00000003 Ry

     iteration # 26     ecut=    50.00 Ry     beta=0.70
     Davidson diagonalization with overlap
     ethr =  4.32E-12,  avg # of iterations =  2.0

     negative rho (up, down):  1.974E+00 0.000E+00

     total cpu time spent up to now is     7917.5 secs

     total energy              =   -7425.29499587 Ry
     Harris-Foulkes estimate   =   -7425.29499587 Ry
     estimated scf accuracy    <       0.00000003 Ry

     iteration # 27     ecut=    50.00 Ry     beta=0.70
     Davidson diagonalization with overlap
     ethr =  3.95E-12,  avg # of iterations =  2.0

     negative rho (up, down):  1.974E+00 0.000E+00

     total cpu time spent up to now is     8139.8 secs

     total energy              =   -7425.29499587 Ry
     Harris-Foulkes estimate   =   -7425.29499588 Ry
     estimated scf accuracy    <       0.00000008 Ry

     iteration # 28     ecut=    50.00 Ry     beta=0.70
     Davidson diagonalization with overlap
     ethr =  3.95E-12,  avg # of iterations =  1.8

     negative rho (up, down):  1.974E+00 0.000E+00

     total cpu time spent up to now is     8360.3 secs

     End of self-consistent calculation

          k = 0.2500 0.2500 0.0833 (167653 PWs)   bands (ev):

   -19.2154  -7.0724  -6.8672  -6.3407  -6.3398  -5.9110  -5.5019  -5.4092
    -5.4082  -5.2128  -5.2127  -5.0959  -5.0941  -5.0163  -4.9936  -4.9204
    -4.8355  -4.8316  -4.7932  -4.7925  -4.6324  -4.6151  -4.6143  -4.6135
    -4.6069  -4.5513  -4.5512  -4.5397  -4.5389  -4.5022  -4.4905  -4.4890
    -4.4475  -4.4473  -4.4140  -4.4127  -4.3622  -4.3602  -4.3507  -4.3488
    -4.3433  -4.3302  -4.3301  -4.2897  -4.2710  -4.2707  -4.2638  -4.2635
    -4.2320  -4.1827  -4.1670  -4.1661  -4.1644  -4.1624  -4.1547  -4.1491
    -4.1490  -4.1486  -4.0858  -4.0830  -4.0346  -4.0332  -4.0217  -3.9958
    -3.9951  -3.9762  -3.9725  -3.9723  -3.9679  -3.9652  -3.9161  -3.9158
    -3.9037  -3.9025  -3.7990  -3.7970  -3.7924  -3.7907  -3.7538  -3.7478
    -3.7301  -3.7009  -3.7006  -3.6723  -3.6713  -3.6510  -3.6499  -3.6379
    -3.6359  -3.5820  -3.5811  -3.5647  -3.5470  -3.5369  -3.5348  -3.5343
    -3.5331  -3.5068  -3.5058  -3.4702  -3.4693  -3.4509  -3.4466  -3.4175
    -3.4133  -3.3961  -3.3700  -3.3678  -3.3315  -3.3303  -3.3047  -3.2904
    -3.2869  -3.2861  -3.2723  -3.2684  -3.2673  -3.2604  -3.2275  -3.2183
    -3.1783  -3.1779  -3.1699  -3.1609  -3.1598  -3.1579  -3.1343  -3.1343
    -3.1135  -3.1128  -3.1117  -3.0855  -3.0852  -3.0777  -3.0747  -3.0739
    -3.0385  -3.0352  -3.0001  -2.9985  -2.9981  -2.9955  -2.9949  -2.9157
    -2.9059  -2.9023  -2.9011  -2.9006  -2.8997  -2.8957  -2.8950  -2.8943
    -2.8940  -2.8847  -2.8769  -2.8603  -2.8572  -2.8561  -2.8558  -2.8419
    -2.8371  -2.7994  -2.7985  -2.7981  -2.7941  -2.7933  -2.7758  -2.7751
    -2.7667  -2.7666  -2.7641  -2.7050  -2.7047  -2.6992  -2.6991  -2.6943
    -2.6937  -2.6661  -2.6070  -2.6058  -2.6054  -2.6032  -2.5920  -2.5902
    -2.5852  -2.5748  -2.5737  -2.5389  -2.5366  -2.5293  -2.5283  -2.5272
    -2.5266  -2.4884  -2.4874  -2.4780  -2.4776  -2.4764  -2.4754  -2.4333
    -2.4176  -2.4122  -2.3592  -2.3584  -2.3412  -2.3390  -2.3334  -2.3329
    -2.2854  -2.2837  -2.2612  -2.2454  -2.2312  -2.2302  -2.2289  -2.2078
    -2.2070  -2.1980  -2.1809  -2.1429  -2.1403  -2.1269  -2.1262  -2.1245
    -2.1157  -2.1142  -2.1011  -2.0990  -2.0986  -2.0944  -2.0906  -2.0888
    -2.0881  -2.0776  -2.0766  -2.0595  -2.0585  -2.0568  -2.0506  -2.0478
    -2.0468  -2.0243  -2.0232  -2.0122  -2.0107  -2.0053  -2.0044  -1.9666
    -1.9336  -1.9326  -1.8976  -1.8807  -1.8801  -1.8710  -1.8683  -1.8465
    -1.8452  -1.8329  -1.8301  -1.8294  -1.8286  -1.8275  -1.8250  -1.7935
    -1.7930  -1.7926  -1.7479  -1.7468  -1.7081  -1.7067  -1.6600  -1.6595
    -1.6470  -1.6247  -1.6198  -1.6171  -1.6041  -1.5992  -1.5839  -1.5809
    -1.5786  -1.5763  -1.5751  -1.5739  -1.5736  -1.5717  -1.5515  -1.5506
    -1.5401  -1.5237  -1.5061  -1.5046  -1.4810  -1.4782  -1.4760  -1.4745
    -1.4718  -1.4682  -1.4474  -1.4464  -1.4342  -1.4305  -1.4184  -1.4092
    -1.3957  -1.3946  -1.3659  -1.3633  -1.3574  -1.3556  -1.3313  -1.3192
    -1.3134  -1.3110  -1.3067  -1.3025  -1.2819  -1.2811  -1.2742  -1.2686
    -1.2624  -1.2587  -1.2498  -1.2481  -1.2473  -1.2352  -1.2339  -1.2228
    -1.2178  -1.2150  -1.2141  -1.2006  -1.1981  -1.1921  -1.1856  -1.1520
    -1.1471  -1.1448  -1.1427  -1.1421  -1.1392  -1.1033  -1.0865  -1.0850
    -1.0847  -1.0836  -1.0807  -1.0760  -1.0755  -1.0603  -1.0578  -1.0238
    -1.0223  -1.0165  -1.0161  -0.9940  -0.9932  -0.9838  -0.9542  -0.9462
    -0.9198  -0.9181  -0.8908  -0.8906  -0.8877  -0.8869  -0.8855  -0.8813
    -0.8776  -0.8766  -0.8725  -0.8714  -0.8401  -0.8395  -0.8211  -0.8192
    -0.8166  -0.8154  -0.8142  -0.8119  -0.7956  -0.5207  -0.5091  -0.4531
    -0.4493  -0.4142  -0.2543  -0.1891  -0.1877  -0.1547   0.1305   0.1319
     0.4606   0.4642   0.5594   0.5599   0.5994   0.6022   0.7443   0.7477
     0.8684   0.8706   0.9608   1.5557   1.5737   1.5747   1.6103   1.6195
     1.6631   1.6719   1.7438   1.7458   1.9505   1.9516   2.1890   2.2644
     2.2695   2.2826   2.6622   2.6698   2.7362   2.7376   2.7437   2.7454
     2.8954   2.8964   2.9510   3.0403   3.0455   3.2706   3.2770   3.4053
     3.4324   3.4342   3.7041   3.7081   3.8203   3.8368   3.8369   3.9068
     3.9319   4.0200   4.0251   4.2592   4.2614   4.3471   4.3541   4.4708
     4.4780   4.4973   4.5044   4.6625   5.1262   5.3172   5.3274   5.4068
     5.4109   5.5188   5.5836   5.5870   5.6494   5.6955   5.7032   5.7102
     5.7443   5.7516   5.7545   5.7945   6.0039   6.0595   6.0712   6.0848
     6.0890   6.0958   6.0996   6.1048   6.1064   6.1498   6.1738   6.1981

          k = 0.2500 0.2500-0.2500 (167588 PWs)   bands (ev):

   -19.2154  -7.0724  -6.8672  -6.3407  -6.3398  -5.9110  -5.5019  -5.4092
    -5.4082  -5.2128  -5.2127  -5.0959  -5.0941  -5.0163  -4.9936  -4.9204
    -4.8355  -4.8316  -4.7932  -4.7925  -4.6324  -4.6151  -4.6143  -4.6135
    -4.6069  -4.5513  -4.5512  -4.5397  -4.5389  -4.5022  -4.4905  -4.4890
    -4.4475  -4.4473  -4.4140  -4.4127  -4.3622  -4.3602  -4.3507  -4.3488
    -4.3433  -4.3302  -4.3301  -4.2897  -4.2710  -4.2707  -4.2638  -4.2635
    -4.2320  -4.1827  -4.1670  -4.1661  -4.1644  -4.1624  -4.1547  -4.1491
    -4.1490  -4.1486  -4.0858  -4.0830  -4.0346  -4.0332  -4.0217  -3.9957
    -3.9951  -3.9762  -3.9725  -3.9723  -3.9678  -3.9652  -3.9161  -3.9158
    -3.9037  -3.9025  -3.7990  -3.7970  -3.7924  -3.7907  -3.7538  -3.7478
    -3.7301  -3.7009  -3.7006  -3.6722  -3.6713  -3.6510  -3.6499  -3.6379
    -3.6359  -3.5820  -3.5811  -3.5647  -3.5470  -3.5369  -3.5348  -3.5343
    -3.5331  -3.5068  -3.5058  -3.4702  -3.4693  -3.4509  -3.4466  -3.4174
    -3.4133  -3.3961  -3.3700  -3.3678  -3.3315  -3.3303  -3.3047  -3.2904
    -3.2869  -3.2861  -3.2723  -3.2684  -3.2673  -3.2604  -3.2275  -3.2183
    -3.1783  -3.1779  -3.1699  -3.1609  -3.1598  -3.1579  -3.1343  -3.1343
    -3.1135  -3.1128  -3.1117  -3.0855  -3.0852  -3.0777  -3.0747  -3.0739
    -3.0385  -3.0352  -3.0001  -2.9985  -2.9981  -2.9955  -2.9949  -2.9157
    -2.9059  -2.9023  -2.9011  -2.9006  -2.8997  -2.8957  -2.8949  -2.8943
    -2.8940  -2.8847  -2.8769  -2.8603  -2.8572  -2.8561  -2.8558  -2.8419
    -2.8371  -2.7994  -2.7985  -2.7981  -2.7941  -2.7932  -2.7758  -2.7751
    -2.7667  -2.7666  -2.7641  -2.7050  -2.7047  -2.6992  -2.6991  -2.6942
    -2.6937  -2.6662  -2.6070  -2.6058  -2.6054  -2.6032  -2.5920  -2.5902
    -2.5852  -2.5748  -2.5737  -2.5389  -2.5366  -2.5293  -2.5283  -2.5272
    -2.5266  -2.4884  -2.4874  -2.4780  -2.4776  -2.4764  -2.4754  -2.4333
    -2.4176  -2.4122  -2.3592  -2.3584  -2.3412  -2.3390  -2.3334  -2.3329
    -2.2854  -2.2837  -2.2612  -2.2454  -2.2312  -2.2302  -2.2289  -2.2078
    -2.2070  -2.1980  -2.1809  -2.1429  -2.1403  -2.1269  -2.1262  -2.1245
    -2.1157  -2.1142  -2.1011  -2.0990  -2.0986  -2.0944  -2.0906  -2.0888
    -2.0881  -2.0776  -2.0766  -2.0595  -2.0585  -2.0568  -2.0507  -2.0478
    -2.0468  -2.0243  -2.0232  -2.0122  -2.0107  -2.0053  -2.0044  -1.9666
    -1.9336  -1.9326  -1.8976  -1.8807  -1.8801  -1.8710  -1.8683  -1.8465
    -1.8451  -1.8329  -1.8301  -1.8294  -1.8286  -1.8275  -1.8250  -1.7935
    -1.7930  -1.7926  -1.7479  -1.7468  -1.7081  -1.7067  -1.6600  -1.6595
    -1.6470  -1.6247  -1.6198  -1.6171  -1.6041  -1.5992  -1.5839  -1.5809
    -1.5786  -1.5763  -1.5751  -1.5739  -1.5736  -1.5717  -1.5515  -1.5506
    -1.5401  -1.5237  -1.5061  -1.5046  -1.4810  -1.4782  -1.4760  -1.4745
    -1.4718  -1.4682  -1.4474  -1.4464  -1.4342  -1.4305  -1.4184  -1.4092
    -1.3957  -1.3946  -1.3659  -1.3633  -1.3574  -1.3556  -1.3313  -1.3192
    -1.3134  -1.3110  -1.3067  -1.3025  -1.2819  -1.2811  -1.2742  -1.2686
    -1.2624  -1.2587  -1.2498  -1.2481  -1.2473  -1.2352  -1.2339  -1.2228
    -1.2178  -1.2150  -1.2141  -1.2006  -1.1981  -1.1921  -1.1856  -1.1520
    -1.1471  -1.1448  -1.1427  -1.1421  -1.1392  -1.1033  -1.0865  -1.0850
    -1.0847  -1.0836  -1.0807  -1.0760  -1.0755  -1.0603  -1.0578  -1.0238
    -1.0223  -1.0165  -1.0161  -0.9940  -0.9932  -0.9838  -0.9542  -0.9462
    -0.9198  -0.9181  -0.8908  -0.8906  -0.8877  -0.8869  -0.8855  -0.8813
    -0.8776  -0.8766  -0.8725  -0.8714  -0.8401  -0.8395  -0.8211  -0.8192
    -0.8166  -0.8154  -0.8142  -0.8119  -0.7956  -0.5207  -0.5091  -0.4531
    -0.4493  -0.4142  -0.2543  -0.1891  -0.1877  -0.1547   0.1305   0.1319
     0.4606   0.4642   0.5594   0.5599   0.5994   0.6022   0.7443   0.7477
     0.8684   0.8706   0.9608   1.5557   1.5737   1.5747   1.6103   1.6195
     1.6631   1.6719   1.7438   1.7458   1.9505   1.9516   2.1890   2.2644
     2.2695   2.2826   2.6622   2.6698   2.7362   2.7376   2.7437   2.7454
     2.8954   2.8964   2.9510   3.0403   3.0455   3.2706   3.2770   3.4053
     3.4324   3.4342   3.7041   3.7081   3.8203   3.8368   3.8369   3.9069
     3.9319   4.0200   4.0251   4.2592   4.2613   4.3471   4.3541   4.4708
     4.4780   4.4973   4.5044   4.6626   5.1183   5.3160   5.3229   5.4063
     5.4109   5.5196   5.5837   5.5874   5.6572   5.6975   5.7038   5.7242
     5.7503   5.7537   5.7612   5.7948   6.0250   6.0641   6.0743   6.0851
     6.0892   6.0983   6.1031   6.1063   6.1086   6.1294   6.1867   6.2140

          k =-0.2500-0.2500 0.0833 (167653 PWs)   bands (ev):

   -19.2154  -7.0724  -6.8672  -6.3407  -6.3398  -5.9110  -5.5019  -5.4092
    -5.4082  -5.2128  -5.2127  -5.0959  -5.0941  -5.0163  -4.9936  -4.9204
    -4.8355  -4.8316  -4.7932  -4.7925  -4.6324  -4.6151  -4.6143  -4.6135
    -4.6069  -4.5513  -4.5512  -4.5397  -4.5389  -4.5022  -4.4905  -4.4890
    -4.4475  -4.4473  -4.4140  -4.4127  -4.3622  -4.3602  -4.3507  -4.3488
    -4.3433  -4.3302  -4.3301  -4.2897  -4.2710  -4.2707  -4.2638  -4.2635
    -4.2320  -4.1827  -4.1670  -4.1661  -4.1644  -4.1624  -4.1547  -4.1491
    -4.1490  -4.1486  -4.0858  -4.0830  -4.0346  -4.0332  -4.0217  -3.9958
    -3.9951  -3.9762  -3.9725  -3.9723  -3.9679  -3.9652  -3.9161  -3.9158
    -3.9037  -3.9025  -3.7990  -3.7970  -3.7924  -3.7907  -3.7538  -3.7478
    -3.7301  -3.7009  -3.7006  -3.6723  -3.6713  -3.6510  -3.6499  -3.6379
    -3.6359  -3.5820  -3.5811  -3.5647  -3.5470  -3.5369  -3.5348  -3.5343
    -3.5331  -3.5068  -3.5058  -3.4702  -3.4693  -3.4509  -3.4466  -3.4175
    -3.4133  -3.3961  -3.3700  -3.3678  -3.3315  -3.3303  -3.3047  -3.2904
    -3.2869  -3.2861  -3.2723  -3.2684  -3.2673  -3.2604  -3.2275  -3.2183
    -3.1783  -3.1779  -3.1699  -3.1609  -3.1598  -3.1579  -3.1343  -3.1343
    -3.1135  -3.1128  -3.1117  -3.0855  -3.0852  -3.0777  -3.0747  -3.0739
    -3.0385  -3.0352  -3.0001  -2.9985  -2.9981  -2.9955  -2.9949  -2.9157
    -2.9059  -2.9023  -2.9011  -2.9006  -2.8997  -2.8957  -2.8950  -2.8943
    -2.8940  -2.8847  -2.8769  -2.8603  -2.8572  -2.8561  -2.8558  -2.8419
    -2.8371  -2.7994  -2.7985  -2.7981  -2.7941  -2.7933  -2.7758  -2.7751
    -2.7667  -2.7666  -2.7641  -2.7050  -2.7047  -2.6992  -2.6991  -2.6943
    -2.6937  -2.6661  -2.6070  -2.6058  -2.6054  -2.6032  -2.5920  -2.5902
    -2.5852  -2.5748  -2.5737  -2.5389  -2.5366  -2.5293  -2.5283  -2.5272
    -2.5266  -2.4884  -2.4874  -2.4780  -2.4776  -2.4764  -2.4754  -2.4333
    -2.4176  -2.4122  -2.3592  -2.3584  -2.3412  -2.3390  -2.3334  -2.3329
    -2.2854  -2.2837  -2.2612  -2.2454  -2.2312  -2.2302  -2.2289  -2.2078
    -2.2070  -2.1980  -2.1809  -2.1429  -2.1403  -2.1269  -2.1262  -2.1245
    -2.1157  -2.1142  -2.1011  -2.0990  -2.0986  -2.0944  -2.0906  -2.0888
    -2.0881  -2.0776  -2.0766  -2.0595  -2.0585  -2.0568  -2.0506  -2.0478
    -2.0468  -2.0243  -2.0232  -2.0122  -2.0107  -2.0053  -2.0044  -1.9666
    -1.9336  -1.9326  -1.8976  -1.8807  -1.8801  -1.8710  -1.8683  -1.8465
    -1.8452  -1.8329  -1.8301  -1.8294  -1.8286  -1.8275  -1.8250  -1.7935
    -1.7930  -1.7926  -1.7479  -1.7468  -1.7081  -1.7067  -1.6600  -1.6595
    -1.6470  -1.6247  -1.6198  -1.6171  -1.6041  -1.5992  -1.5839  -1.5809
    -1.5786  -1.5763  -1.5751  -1.5739  -1.5736  -1.5717  -1.5515  -1.5506
    -1.5401  -1.5237  -1.5061  -1.5046  -1.4810  -1.4782  -1.4760  -1.4745
    -1.4718  -1.4682  -1.4474  -1.4464  -1.4342  -1.4305  -1.4184  -1.4092
    -1.3957  -1.3946  -1.3659  -1.3633  -1.3574  -1.3556  -1.3313  -1.3192
    -1.3134  -1.3110  -1.3067  -1.3025  -1.2819  -1.2811  -1.2742  -1.2686
    -1.2624  -1.2587  -1.2498  -1.2481  -1.2473  -1.2352  -1.2339  -1.2228
    -1.2178  -1.2150  -1.2141  -1.2006  -1.1981  -1.1921  -1.1856  -1.1520
    -1.1471  -1.1448  -1.1427  -1.1421  -1.1392  -1.1033  -1.0865  -1.0850
    -1.0847  -1.0836  -1.0807  -1.0760  -1.0755  -1.0603  -1.0578  -1.0238
    -1.0223  -1.0165  -1.0161  -0.9940  -0.9932  -0.9838  -0.9542  -0.9462
    -0.9198  -0.9181  -0.8908  -0.8906  -0.8877  -0.8869  -0.8855  -0.8813
    -0.8776  -0.8766  -0.8725  -0.8714  -0.8401  -0.8395  -0.8211  -0.8192
    -0.8166  -0.8154  -0.8142  -0.8119  -0.7956  -0.5207  -0.5091  -0.4531
    -0.4493  -0.4142  -0.2543  -0.1891  -0.1877  -0.1547   0.1305   0.1319
     0.4606   0.4642   0.5594   0.5599   0.5994   0.6022   0.7443   0.7477
     0.8684   0.8706   0.9608   1.5557   1.5737   1.5747   1.6103   1.6195
     1.6631   1.6719   1.7438   1.7458   1.9505   1.9516   2.1890   2.2644
     2.2695   2.2826   2.6622   2.6698   2.7362   2.7376   2.7437   2.7454
     2.8954   2.8964   2.9510   3.0403   3.0455   3.2706   3.2770   3.4053
     3.4324   3.4342   3.7041   3.7081   3.8203   3.8368   3.8369   3.9068
     3.9319   4.0200   4.0251   4.2592   4.2614   4.3471   4.3541   4.4708
     4.4780   4.4973   4.5044   4.6625   5.1260   5.3171   5.3282   5.4068
     5.4109   5.5163   5.5835   5.5871   5.6504   5.6962   5.7033   5.7121
     5.7446   5.7517   5.7545   5.7945   6.0049   6.0594   6.0708   6.0851
     6.0888   6.0954   6.0996   6.1046   6.1064   6.1503   6.1691   6.1954

          k =-0.2500 0.2500-0.0833 (167653 PWs)   bands (ev):

   -19.2154  -7.0724  -6.8672  -6.3408  -6.3397  -5.9110  -5.5019  -5.4093
    -5.4082  -5.2127  -5.2127  -5.0960  -5.0940  -5.0163  -4.9936  -4.9204
    -4.8354  -4.8317  -4.7933  -4.7925  -4.6323  -4.6151  -4.6143  -4.6135
    -4.6069  -4.5513  -4.5512  -4.5397  -4.5388  -4.5022  -4.4906  -4.4889
    -4.4475  -4.4473  -4.4140  -4.4127  -4.3622  -4.3602  -4.3507  -4.3488
    -4.3433  -4.3302  -4.3301  -4.2897  -4.2710  -4.2706  -4.2639  -4.2634
    -4.2320  -4.1827  -4.1670  -4.1661  -4.1644  -4.1623  -4.1547  -4.1491
    -4.1490  -4.1486  -4.0858  -4.0830  -4.0345  -4.0332  -4.0216  -3.9958
    -3.9951  -3.9763  -3.9727  -3.9721  -3.9679  -3.9652  -3.9161  -3.9158
    -3.9037  -3.9025  -3.7990  -3.7970  -3.7924  -3.7907  -3.7539  -3.7478
    -3.7301  -3.7009  -3.7006  -3.6723  -3.6713  -3.6510  -3.6499  -3.6379
    -3.6359  -3.5819  -3.5811  -3.5646  -3.5470  -3.5369  -3.5349  -3.5343
    -3.5332  -3.5068  -3.5059  -3.4702  -3.4693  -3.4508  -3.4466  -3.4174
    -3.4133  -3.3960  -3.3699  -3.3678  -3.3315  -3.3302  -3.3045  -3.2906
    -3.2868  -3.2859  -3.2723  -3.2684  -3.2673  -3.2609  -3.2275  -3.2183
    -3.1783  -3.1779  -3.1700  -3.1609  -3.1598  -3.1580  -3.1343  -3.1343
    -3.1135  -3.1130  -3.1115  -3.0854  -3.0852  -3.0777  -3.0748  -3.0738
    -3.0385  -3.0352  -3.0002  -2.9986  -2.9981  -2.9955  -2.9949  -2.9157
    -2.9060  -2.9024  -2.9010  -2.9006  -2.8997  -2.8959  -2.8949  -2.8943
    -2.8940  -2.8847  -2.8769  -2.8603  -2.8572  -2.8561  -2.8558  -2.8419
    -2.8370  -2.7994  -2.7985  -2.7981  -2.7943  -2.7932  -2.7759  -2.7751
    -2.7667  -2.7666  -2.7641  -2.7050  -2.7047  -2.6992  -2.6991  -2.6943
    -2.6936  -2.6662  -2.6070  -2.6059  -2.6052  -2.6032  -2.5920  -2.5902
    -2.5851  -2.5748  -2.5737  -2.5389  -2.5365  -2.5294  -2.5284  -2.5272
    -2.5266  -2.4884  -2.4874  -2.4780  -2.4776  -2.4765  -2.4754  -2.4333
    -2.4178  -2.4123  -2.3593  -2.3584  -2.3411  -2.3391  -2.3334  -2.3330
    -2.2855  -2.2836  -2.2612  -2.2454  -2.2311  -2.2303  -2.2289  -2.2078
    -2.2070  -2.1980  -2.1809  -2.1430  -2.1403  -2.1270  -2.1261  -2.1246
    -2.1156  -2.1142  -2.1011  -2.0990  -2.0986  -2.0944  -2.0907  -2.0888
    -2.0880  -2.0776  -2.0765  -2.0594  -2.0585  -2.0567  -2.0506  -2.0478
    -2.0468  -2.0244  -2.0232  -2.0121  -2.0107  -2.0054  -2.0043  -1.9666
    -1.9338  -1.9324  -1.8976  -1.8807  -1.8801  -1.8711  -1.8682  -1.8467
    -1.8451  -1.8330  -1.8301  -1.8295  -1.8286  -1.8275  -1.8249  -1.7935
    -1.7930  -1.7926  -1.7477  -1.7468  -1.7082  -1.7068  -1.6600  -1.6595
    -1.6471  -1.6247  -1.6197  -1.6171  -1.6033  -1.5993  -1.5836  -1.5811
    -1.5784  -1.5765  -1.5752  -1.5739  -1.5735  -1.5717  -1.5515  -1.5506
    -1.5403  -1.5237  -1.5064  -1.5046  -1.4811  -1.4782  -1.4758  -1.4745
    -1.4724  -1.4683  -1.4475  -1.4464  -1.4349  -1.4305  -1.4184  -1.4092
    -1.3959  -1.3948  -1.3654  -1.3633  -1.3569  -1.3556  -1.3298  -1.3192
    -1.3139  -1.3111  -1.3083  -1.3025  -1.2822  -1.2813  -1.2751  -1.2690
    -1.2625  -1.2585  -1.2499  -1.2481  -1.2474  -1.2341  -1.2329  -1.2229
    -1.2176  -1.2151  -1.2144  -1.1999  -1.1981  -1.1920  -1.1835  -1.1519
    -1.1472  -1.1451  -1.1426  -1.1421  -1.1399  -1.1033  -1.0866  -1.0850
    -1.0846  -1.0836  -1.0804  -1.0760  -1.0755  -1.0603  -1.0592  -1.0238
    -1.0218  -1.0165  -1.0160  -0.9940  -0.9932  -0.9838  -0.9542  -0.9462
    -0.9198  -0.9181  -0.8909  -0.8906  -0.8877  -0.8870  -0.8855  -0.8814
    -0.8776  -0.8766  -0.8726  -0.8714  -0.8401  -0.8395  -0.8212  -0.8188
    -0.8166  -0.8154  -0.8141  -0.8125  -0.7957  -0.5207  -0.5091  -0.4533
    -0.4493  -0.4141  -0.2543  -0.1892  -0.1877  -0.1544   0.1305   0.1318
     0.4604   0.4646   0.5593   0.5599   0.5994   0.6023   0.7441   0.7475
     0.8684   0.8706   0.9608   1.5558   1.5737   1.5747   1.6104   1.6194
     1.6623   1.6725   1.7436   1.7460   1.9504   1.9517   2.1892   2.2643
     2.2698   2.2826   2.6617   2.6705   2.7362   2.7375   2.7437   2.7454
     2.8953   2.8965   2.9508   3.0397   3.0459   3.2706   3.2765   3.4054
     3.4322   3.4345   3.7036   3.7084   3.8209   3.8368   3.8370   3.9055
     3.9332   4.0199   4.0251   4.2591   4.2614   4.3475   4.3539   4.4709
     4.4779   4.4968   4.5052   4.6622   5.1248   5.3183   5.3274   5.4064
     5.4114   5.5158   5.5831   5.5875   5.6496   5.6966   5.7028   5.7108
     5.7463   5.7524   5.7550   5.7945   6.0071   6.0576   6.0714   6.0854
     6.0891   6.0952   6.0994   6.1044   6.1064   6.1521   6.1661   6.1972

          k = 0.2500-0.2500-0.0833 (167653 PWs)   bands (ev):

   -19.2154  -7.0724  -6.8672  -6.3408  -6.3397  -5.9110  -5.5019  -5.4093
    -5.4082  -5.2127  -5.2127  -5.0960  -5.0940  -5.0163  -4.9936  -4.9204
    -4.8354  -4.8317  -4.7933  -4.7925  -4.6323  -4.6151  -4.6143  -4.6135
    -4.6069  -4.5513  -4.5512  -4.5397  -4.5388  -4.5022  -4.4906  -4.4889
    -4.4475  -4.4473  -4.4140  -4.4127  -4.3622  -4.3602  -4.3507  -4.3488
    -4.3433  -4.3302  -4.3301  -4.2897  -4.2710  -4.2706  -4.2639  -4.2634
    -4.2320  -4.1827  -4.1670  -4.1661  -4.1644  -4.1623  -4.1547  -4.1491
    -4.1490  -4.1486  -4.0858  -4.0830  -4.0345  -4.0332  -4.0216  -3.9958
    -3.9951  -3.9763  -3.9727  -3.9721  -3.9679  -3.9652  -3.9161  -3.9158
    -3.9037  -3.9025  -3.7990  -3.7970  -3.7924  -3.7907  -3.7539  -3.7478
    -3.7301  -3.7009  -3.7006  -3.6723  -3.6713  -3.6510  -3.6499  -3.6379
    -3.6359  -3.5819  -3.5811  -3.5646  -3.5470  -3.5369  -3.5349  -3.5343
    -3.5332  -3.5068  -3.5059  -3.4702  -3.4693  -3.4508  -3.4466  -3.4174
    -3.4133  -3.3960  -3.3699  -3.3678  -3.3315  -3.3302  -3.3045  -3.2906
    -3.2868  -3.2859  -3.2723  -3.2684  -3.2673  -3.2609  -3.2275  -3.2183
    -3.1783  -3.1779  -3.1700  -3.1609  -3.1598  -3.1580  -3.1343  -3.1343
    -3.1135  -3.1130  -3.1115  -3.0854  -3.0852  -3.0777  -3.0748  -3.0738
    -3.0385  -3.0352  -3.0002  -2.9986  -2.9981  -2.9955  -2.9949  -2.9157
    -2.9060  -2.9024  -2.9010  -2.9006  -2.8997  -2.8959  -2.8949  -2.8943
    -2.8940  -2.8847  -2.8769  -2.8603  -2.8572  -2.8561  -2.8558  -2.8419
    -2.8370  -2.7994  -2.7985  -2.7981  -2.7943  -2.7932  -2.7759  -2.7751
    -2.7667  -2.7666  -2.7641  -2.7050  -2.7047  -2.6992  -2.6991  -2.6943
    -2.6936  -2.6662  -2.6070  -2.6059  -2.6052  -2.6032  -2.5920  -2.5902
    -2.5851  -2.5748  -2.5737  -2.5389  -2.5365  -2.5294  -2.5284  -2.5272
    -2.5266  -2.4884  -2.4874  -2.4780  -2.4776  -2.4765  -2.4754  -2.4333
    -2.4178  -2.4123  -2.3593  -2.3584  -2.3411  -2.3391  -2.3334  -2.3330
    -2.2855  -2.2836  -2.2612  -2.2454  -2.2311  -2.2303  -2.2289  -2.2078
    -2.2070  -2.1980  -2.1809  -2.1430  -2.1403  -2.1270  -2.1261  -2.1246
    -2.1156  -2.1142  -2.1011  -2.0990  -2.0986  -2.0944  -2.0907  -2.0888
    -2.0880  -2.0776  -2.0765  -2.0594  -2.0585  -2.0567  -2.0506  -2.0478
    -2.0468  -2.0244  -2.0232  -2.0121  -2.0107  -2.0054  -2.0043  -1.9666
    -1.9338  -1.9324  -1.8976  -1.8807  -1.8801  -1.8711  -1.8682  -1.8467
    -1.8451  -1.8330  -1.8301  -1.8295  -1.8286  -1.8275  -1.8249  -1.7935
    -1.7930  -1.7926  -1.7477  -1.7468  -1.7082  -1.7068  -1.6600  -1.6595
    -1.6471  -1.6247  -1.6197  -1.6171  -1.6033  -1.5993  -1.5836  -1.5811
    -1.5784  -1.5765  -1.5752  -1.5739  -1.5735  -1.5717  -1.5515  -1.5506
    -1.5403  -1.5237  -1.5064  -1.5046  -1.4811  -1.4782  -1.4758  -1.4745
    -1.4724  -1.4683  -1.4475  -1.4464  -1.4349  -1.4305  -1.4184  -1.4092
    -1.3959  -1.3948  -1.3654  -1.3633  -1.3569  -1.3556  -1.3298  -1.3192
    -1.3139  -1.3111  -1.3083  -1.3025  -1.2822  -1.2813  -1.2751  -1.2690
    -1.2625  -1.2585  -1.2499  -1.2481  -1.2474  -1.2341  -1.2329  -1.2229
    -1.2176  -1.2151  -1.2144  -1.1999  -1.1981  -1.1920  -1.1835  -1.1519
    -1.1472  -1.1451  -1.1426  -1.1421  -1.1399  -1.1033  -1.0866  -1.0850
    -1.0846  -1.0836  -1.0804  -1.0760  -1.0755  -1.0603  -1.0592  -1.0238
    -1.0218  -1.0165  -1.0160  -0.9940  -0.9932  -0.9838  -0.9542  -0.9462
    -0.9198  -0.9181  -0.8909  -0.8906  -0.8877  -0.8870  -0.8855  -0.8814
    -0.8776  -0.8766  -0.8726  -0.8714  -0.8401  -0.8395  -0.8212  -0.8188
    -0.8166  -0.8154  -0.8141  -0.8125  -0.7957  -0.5207  -0.5091  -0.4533
    -0.4493  -0.4141  -0.2543  -0.1892  -0.1877  -0.1544   0.1305   0.1318
     0.4604   0.4646   0.5593   0.5599   0.5994   0.6023   0.7441   0.7475
     0.8684   0.8706   0.9608   1.5558   1.5737   1.5747   1.6104   1.6194
     1.6623   1.6725   1.7436   1.7460   1.9504   1.9517   2.1892   2.2643
     2.2698   2.2826   2.6617   2.6705   2.7362   2.7375   2.7437   2.7454
     2.8953   2.8965   2.9508   3.0397   3.0459   3.2706   3.2765   3.4054
     3.4322   3.4345   3.7036   3.7084   3.8209   3.8368   3.8370   3.9055
     3.9332   4.0199   4.0251   4.2591   4.2614   4.3475   4.3539   4.4709
     4.4779   4.4968   4.5052   4.6622   5.1250   5.3185   5.3266   5.4064
     5.4114   5.5179   5.5832   5.5874   5.6488   5.6960   5.7026   5.7097
     5.7460   5.7522   5.7548   5.7945   6.0060   6.0576   6.0718   6.0850
     6.0893   6.0956   6.0994   6.1046   6.1064   6.1516   6.1702   6.1996

          k =-0.2500 0.2500 0.2500 (167588 PWs)   bands (ev):

   -19.2154  -7.0724  -6.8672  -6.3408  -6.3397  -5.9110  -5.5019  -5.4093
    -5.4082  -5.2127  -5.2127  -5.0960  -5.0940  -5.0163  -4.9936  -4.9204
    -4.8354  -4.8316  -4.7933  -4.7925  -4.6324  -4.6151  -4.6143  -4.6135
    -4.6069  -4.5513  -4.5512  -4.5397  -4.5388  -4.5022  -4.4906  -4.4889
    -4.4475  -4.4473  -4.4140  -4.4127  -4.3622  -4.3602  -4.3507  -4.3488
    -4.3433  -4.3302  -4.3301  -4.2897  -4.2710  -4.2706  -4.2639  -4.2634
    -4.2320  -4.1827  -4.1670  -4.1661  -4.1644  -4.1623  -4.1547  -4.1491
    -4.1490  -4.1486  -4.0858  -4.0830  -4.0345  -4.0332  -4.0216  -3.9958
    -3.9951  -3.9762  -3.9727  -3.9721  -3.9679  -3.9652  -3.9161  -3.9158
    -3.9037  -3.9025  -3.7990  -3.7970  -3.7924  -3.7907  -3.7539  -3.7478
    -3.7301  -3.7009  -3.7006  -3.6723  -3.6713  -3.6510  -3.6499  -3.6379
    -3.6359  -3.5819  -3.5811  -3.5646  -3.5470  -3.5369  -3.5349  -3.5343
    -3.5332  -3.5068  -3.5059  -3.4702  -3.4693  -3.4508  -3.4466  -3.4173
    -3.4133  -3.3960  -3.3699  -3.3678  -3.3315  -3.3302  -3.3045  -3.2906
    -3.2868  -3.2859  -3.2723  -3.2684  -3.2673  -3.2609  -3.2275  -3.2183
    -3.1783  -3.1779  -3.1700  -3.1609  -3.1597  -3.1580  -3.1343  -3.1343
    -3.1135  -3.1130  -3.1115  -3.0854  -3.0851  -3.0777  -3.0748  -3.0738
    -3.0385  -3.0352  -3.0002  -2.9986  -2.9981  -2.9955  -2.9949  -2.9157
    -2.9060  -2.9024  -2.9010  -2.9006  -2.8997  -2.8959  -2.8949  -2.8943
    -2.8940  -2.8847  -2.8769  -2.8603  -2.8572  -2.8561  -2.8558  -2.8419
    -2.8370  -2.7994  -2.7985  -2.7981  -2.7943  -2.7932  -2.7758  -2.7751
    -2.7667  -2.7666  -2.7641  -2.7050  -2.7047  -2.6992  -2.6991  -2.6943
    -2.6936  -2.6662  -2.6070  -2.6059  -2.6051  -2.6032  -2.5920  -2.5902
    -2.5851  -2.5748  -2.5737  -2.5389  -2.5365  -2.5294  -2.5284  -2.5272
    -2.5266  -2.4884  -2.4874  -2.4780  -2.4776  -2.4765  -2.4754  -2.4333
    -2.4178  -2.4123  -2.3593  -2.3584  -2.3411  -2.3391  -2.3334  -2.3330
    -2.2855  -2.2836  -2.2612  -2.2454  -2.2311  -2.2303  -2.2289  -2.2077
    -2.2070  -2.1980  -2.1809  -2.1430  -2.1403  -2.1270  -2.1261  -2.1245
    -2.1156  -2.1142  -2.1011  -2.0990  -2.0986  -2.0944  -2.0907  -2.0888
    -2.0880  -2.0776  -2.0765  -2.0594  -2.0585  -2.0567  -2.0507  -2.0478
    -2.0468  -2.0244  -2.0232  -2.0121  -2.0107  -2.0054  -2.0043  -1.9666
    -1.9337  -1.9324  -1.8976  -1.8807  -1.8801  -1.8711  -1.8682  -1.8467
    -1.8451  -1.8330  -1.8301  -1.8295  -1.8286  -1.8275  -1.8249  -1.7935
    -1.7930  -1.7926  -1.7477  -1.7468  -1.7082  -1.7068  -1.6600  -1.6595
    -1.6471  -1.6247  -1.6197  -1.6171  -1.6033  -1.5993  -1.5836  -1.5811
    -1.5784  -1.5765  -1.5752  -1.5739  -1.5735  -1.5717  -1.5515  -1.5506
    -1.5403  -1.5237  -1.5064  -1.5046  -1.4811  -1.4782  -1.4758  -1.4745
    -1.4724  -1.4683  -1.4475  -1.4464  -1.4349  -1.4305  -1.4184  -1.4092
    -1.3959  -1.3948  -1.3654  -1.3633  -1.3569  -1.3556  -1.3298  -1.3192
    -1.3139  -1.3111  -1.3083  -1.3025  -1.2822  -1.2813  -1.2751  -1.2690
    -1.2625  -1.2585  -1.2499  -1.2481  -1.2473  -1.2341  -1.2329  -1.2229
    -1.2176  -1.2151  -1.2144  -1.1999  -1.1981  -1.1920  -1.1835  -1.1519
    -1.1472  -1.1452  -1.1426  -1.1421  -1.1399  -1.1033  -1.0866  -1.0850
    -1.0846  -1.0836  -1.0804  -1.0760  -1.0755  -1.0603  -1.0592  -1.0238
    -1.0218  -1.0165  -1.0160  -0.9940  -0.9932  -0.9838  -0.9542  -0.9462
    -0.9198  -0.9180  -0.8909  -0.8906  -0.8877  -0.8870  -0.8855  -0.8814
    -0.8776  -0.8766  -0.8726  -0.8714  -0.8401  -0.8395  -0.8212  -0.8188
    -0.8166  -0.8154  -0.8141  -0.8125  -0.7956  -0.5207  -0.5091  -0.4533
    -0.4493  -0.4141  -0.2543  -0.1892  -0.1877  -0.1544   0.1305   0.1318
     0.4604   0.4646   0.5593   0.5599   0.5994   0.6023   0.7441   0.7475
     0.8684   0.8706   0.9608   1.5558   1.5737   1.5747   1.6104   1.6194
     1.6623   1.6725   1.7436   1.7460   1.9504   1.9517   2.1892   2.2643
     2.2698   2.2826   2.6617   2.6705   2.7362   2.7375   2.7437   2.7454
     2.8953   2.8965   2.9508   3.0397   3.0459   3.2706   3.2765   3.4054
     3.4322   3.4345   3.7036   3.7084   3.8209   3.8368   3.8370   3.9056
     3.9332   4.0199   4.0251   4.2591   4.2614   4.3475   4.3539   4.4709
     4.4779   4.4968   4.5052   4.6623   5.1173   5.3164   5.3229   5.4059
     5.4114   5.5186   5.5834   5.5878   5.6566   5.6976   5.7039   5.7268
     5.7502   5.7538   5.7601   5.7946   6.0275   6.0634   6.0734   6.0843
     6.0898   6.0984   6.1033   6.1063   6.1103   6.1276   6.1872   6.2125

     the Fermi energy is     0.8196 ev

!    total energy              =   -7425.29499588 Ry
     Harris-Foulkes estimate   =   -7425.29499587 Ry
     estimated scf accuracy    <          1.1E-09 Ry

     The total energy is the sum of the following terms:

     one-electron contribution =  -48702.29436169 Ry
     hartree contribution      =   24900.70078156 Ry
     xc contribution           =   -3604.21746753 Ry
     ewald contribution        =   19980.51874918 Ry
     smearing contrib. (-TS)   =      -0.00269740 Ry

     convergence has been achieved in  28 iterations

     Writing output data file 1258797.save

     init_run     :    123.35s CPU    130.48s WALL (       1 calls)
     electrons    :   7782.84s CPU   8226.27s WALL (       1 calls)

     Called by init_run:
     wfcinit      :     82.37s CPU     88.29s WALL (       1 calls)
     potinit      :      8.24s CPU      8.89s WALL (       1 calls)

     Called by electrons:
     c_bands      :   5914.07s CPU   6270.64s WALL (      29 calls)
     sum_band     :   1189.88s CPU   1259.70s WALL (      29 calls)
     v_of_rho     :    147.89s CPU    159.09s WALL (      29 calls)
     newd         :    545.95s CPU    551.43s WALL (      29 calls)
     mix_rho      :      4.35s CPU      4.82s WALL (      29 calls)
     vdW_energy   :      9.92s CPU     10.69s WALL (      29 calls)
     vdW_ffts     :     78.54s CPU     84.05s WALL (      58 calls)
     vdW_v        :     18.31s CPU     19.15s WALL (      29 calls)

     Called by c_bands:
     init_us_2    :     13.22s CPU     13.50s WALL (     354 calls)
     cegterg      :   5840.66s CPU   6196.12s WALL (     174 calls)

     Called by *egterg:
     h_psi        :   2580.43s CPU   2902.94s WALL (     874 calls)
     s_psi        :    377.90s CPU    379.98s WALL (     874 calls)
     g_psi        :      4.78s CPU      4.81s WALL (     694 calls)
     cdiaghg      :   1600.32s CPU   1605.20s WALL (     862 calls)

     Called by h_psi:
     add_vuspsi   :    382.49s CPU    384.56s WALL (     874 calls)

     General routines
     calbec       :    587.42s CPU    589.71s WALL (    1048 calls)
     fft          :    379.36s CPU    390.47s WALL (    1914 calls)
     ffts         :      2.27s CPU      2.58s WALL (      58 calls)
     fftw         :   1986.48s CPU   2327.31s WALL (  469694 calls)
     interpolate  :      6.06s CPU      6.94s WALL (      58 calls)
     davcio       :      0.00s CPU      0.20s WALL (       6 calls)

     Parallel routines
     fft_scatter  :   1721.96s CPU   2014.81s WALL (  471666 calls)

     PWSCF        :     2h11m CPU        2h19m WALL


   This run was terminated on:  12:51:11  24Aug2015            

=------------------------------------------------------------------------------=
   JOB DONE.
=------------------------------------------------------------------------------=
