
     Program PWSCF v.5.1.2 starts on 24Aug2015 at 12:38:13 

     This program is part of the open-source Quantum ESPRESSO suite
     for quantum simulation of materials; please cite
         "P. Giannozzi et al., J. Phys.:Condens. Matter 21 395502 (2009);
          URL http://www.quantum-espresso.org", 
     in publications or presentations arising from this work. More details at
     http://www.quantum-espresso.org/quote

     Parallel version (MPI), running on    32 processors
     R & G space division:  proc/nbgrp/npool/nimage =      32
     Reading input from hollow.O1.Au5859.d.2.7.phi.45.psi.0.in
Warning: card &IONS ignored
Warning: card / ignored
Warning: card &CELL ignored
Warning: card / ignored

     Current dimensions of program PWSCF are:
     Max number of different atomic species (ntypx) = 10
     Max number of k-points (npk) =  40000
     Max angular momentum in pseudopotentials (lmaxx) =  3

     IMPORTANT: XC functional enforced from input :
     Exchange-correlation      = VDW-DF ( 1  4  4  0 1 0)
     Any further DFT definition will be discarded
     Please, verify this is what you really want


     Subspace diagonalization in iterative solution of the eigenvalue problem:
     a serial algorithm will be used


     Parallelization info
     --------------------
     sticks:   dense  smooth     PW     G-vecs:    dense   smooth      PW
     Min         578     289     74               118518    41891    5486
     Max         579     290     75               118533    41932    5497
     Sum       18505    9265   2385              3792731  1341081  175711


     Title: 
     hollow.O1.Au5859.d.2.7.phi.45.psi.0                                        


     bravais-lattice index     =            8
     lattice parameter (alat)  =      24.1233  a.u.
     unit-cell volume          =   28076.2361 (a.u.)^3
     number of atoms/cell      =           75
     number of atomic types    =            3
     number of electrons       =       800.00
     number of Kohn-Sham states=          480
     kinetic-energy cutoff     =      50.0000  Ry
     charge density cutoff     =     400.0000  Ry
     convergence threshold     =      1.0E-08
     mixing beta               =       0.7000
     number of iterations used =            8  plain     mixing
     Exchange-correlation      = VDW-DF ( 1  4  4  0 1 0)

     celldm(1)=  24.123277  celldm(2)=   1.000000  celldm(3)=   2.000000
     celldm(4)=   0.000000  celldm(5)=   0.000000  celldm(6)=   0.000000

     crystal axes: (cart. coord. in units of alat)
               a(1) = (   1.000000   0.000000   0.000000 )  
               a(2) = (   0.000000   1.000000   0.000000 )  
               a(3) = (   0.000000   0.000000   2.000000 )  

     reciprocal axes: (cart. coord. in units 2 pi/alat)
               b(1) = (  1.000000  0.000000  0.000000 )  
               b(2) = (  0.000000  1.000000  0.000000 )  
               b(3) = (  0.000000  0.000000  0.500000 )  


     PseudoPot. # 1 for Au read from file:
     /home/scc/andrejb/qe/pseudo/Au.pbe-nd-van.UPF
     MD5 check sum: 458681b50f36d87ef23c61b04bba420a
     Pseudo is Ultrasoft + core correction, Zval = 11.0
     Generated by new atomic code, or converted to UPF format
     Using radial grid of  985 points,  3 beta functions with: 
                l(1) =   1
                l(2) =   2
                l(3) =   2
     Q(r) pseudized with  8 coefficients,  rinner =    1.100   1.100   1.100
                                                       1.100   1.100

     PseudoPot. # 2 for H  read from file:
     /home/scc/andrejb/qe/pseudo/H.pbe-van_ak.UPF
     MD5 check sum: 403db7282739603aa925980fa9b8608d
     Pseudo is Ultrasoft, Zval =  1.0
     Generated by new atomic code, or converted to UPF format
     Using radial grid of  615 points,  1 beta functions with: 
                l(1) =   0
     Q(r) pseudized with  8 coefficients,  rinner =    0.800

     PseudoPot. # 3 for O  read from file:
     /home/scc/andrejb/qe/pseudo/O.pbe-van_ak.UPF
     MD5 check sum: 4b8c549914a63cae506c6ff22b5af4fe
     Pseudo is Ultrasoft, Zval =  6.0
     Generated by new atomic code, or converted to UPF format
     Using radial grid of  737 points,  4 beta functions with: 
                l(1) =   0
                l(2) =   0
                l(3) =   1
                l(4) =   1
     Q(r) pseudized with  8 coefficients,  rinner =    0.800   0.800   0.800


     vdW kernel table read from file vdW_kernel_table
     MD5 check sum: 48e77a2e26edf626eeb0eaa751ad5cac

     atomic species   valence    mass     pseudopotential
        Au            11.00   196.96657     Au( 1.00)
        H              1.00     1.01000     H ( 1.00)
        O              6.00    16.00000     O ( 1.00)

     No symmetry found



   Cartesian axes

     site n.     atom                  positions (alat units)
         1           O   tau(   1) = (   0.1666051   0.1666105   0.7108218  )
         2           H   tau(   2) = (   0.1610146   0.1056232   0.7563157  )
         3           H   tau(   3) = (   0.1720135   0.2257614   0.7586794  )
         4           Au  tau(   4) = (   0.0000000   0.0000000   0.0000000  )
         5           Au  tau(   5) = (   0.3332217   0.0000000   0.0000000  )
         6           Au  tau(   6) = (   0.6664434   0.0000000   0.0000000  )
         7           Au  tau(   7) = (   0.1666109   0.1666109   0.0000000  )
         8           Au  tau(   8) = (   0.4998326   0.1666109   0.0000000  )
         9           Au  tau(   9) = (   0.8330542   0.1666109   0.0000000  )
        10           Au  tau(  10) = (   0.0000000   0.3332217   0.0000000  )
        11           Au  tau(  11) = (   0.3332217   0.3332217   0.0000000  )
        12           Au  tau(  12) = (   0.6664434   0.3332217   0.0000000  )
        13           Au  tau(  13) = (   0.1666109   0.4998326   0.0000000  )
        14           Au  tau(  14) = (   0.4998326   0.4998326   0.0000000  )
        15           Au  tau(  15) = (   0.8330542   0.4998326   0.0000000  )
        16           Au  tau(  16) = (   0.0000000   0.6664434   0.0000000  )
        17           Au  tau(  17) = (   0.3332217   0.6664434   0.0000000  )
        18           Au  tau(  18) = (   0.6664434   0.6664434   0.0000000  )
        19           Au  tau(  19) = (   0.1666109   0.8330542   0.0000000  )
        20           Au  tau(  20) = (   0.4998326   0.8330542   0.0000000  )
        21           Au  tau(  21) = (   0.8330542   0.8330542   0.0000000  )
        22           Au  tau(  22) = (   0.1666109   0.0000000   0.1666109  )
        23           Au  tau(  23) = (   0.4998326   0.0000000   0.1666109  )
        24           Au  tau(  24) = (   0.8330542   0.0000000   0.1666109  )
        25           Au  tau(  25) = (   0.0000000   0.1666109   0.1666109  )
        26           Au  tau(  26) = (   0.3332217   0.1666109   0.1666109  )
        27           Au  tau(  27) = (   0.6664434   0.1666109   0.1666109  )
        28           Au  tau(  28) = (   0.1666109   0.3332217   0.1666109  )
        29           Au  tau(  29) = (   0.4998326   0.3332217   0.1666109  )
        30           Au  tau(  30) = (   0.8330542   0.3332217   0.1666109  )
        31           Au  tau(  31) = (   0.0000000   0.4998326   0.1666109  )
        32           Au  tau(  32) = (   0.3332217   0.4998326   0.1666109  )
        33           Au  tau(  33) = (   0.6664434   0.4998326   0.1666109  )
        34           Au  tau(  34) = (   0.1666109   0.6664434   0.1666109  )
        35           Au  tau(  35) = (   0.4998326   0.6664434   0.1666109  )
        36           Au  tau(  36) = (   0.8330542   0.6664434   0.1666109  )
        37           Au  tau(  37) = (   0.0000000   0.8330542   0.1666109  )
        38           Au  tau(  38) = (   0.3332217   0.8330542   0.1666109  )
        39           Au  tau(  39) = (   0.6664434   0.8330542   0.1666109  )
        40           Au  tau(  40) = (  -0.0000182  -0.0000182   0.3335478  )
        41           Au  tau(  41) = (   0.3332215  -0.0000181   0.3335473  )
        42           Au  tau(  42) = (   0.6664447  -0.0000183   0.3335481  )
        43           Au  tau(  43) = (  -0.0000181   0.3332215   0.3335473  )
        44           Au  tau(  44) = (   0.3332215   0.3332215   0.3335468  )
        45           Au  tau(  45) = (   0.6664445   0.3332215   0.3335477  )
        46           Au  tau(  46) = (  -0.0000183   0.6664447   0.3335481  )
        47           Au  tau(  47) = (   0.3332215   0.6664445   0.3335477  )
        48           Au  tau(  48) = (   0.6664446   0.6664446   0.3335486  )
        49           Au  tau(  49) = (   0.1666097   0.1666097   0.3335483  )
        50           Au  tau(  50) = (   0.4998320   0.1666098   0.3335477  )
        51           Au  tau(  51) = (   0.8330732   0.1666096   0.3335480  )
        52           Au  tau(  52) = (   0.1666098   0.4998320   0.3335477  )
        53           Au  tau(  53) = (   0.4998322   0.4998322   0.3335470  )
        54           Au  tau(  54) = (   0.8330731   0.4998322   0.3335474  )
        55           Au  tau(  55) = (   0.1666096   0.8330732   0.3335480  )
        56           Au  tau(  56) = (   0.4998322   0.8330731   0.3335474  )
        57           Au  tau(  57) = (   0.8330731   0.8330731   0.3335478  )
        58           Au  tau(  58) = (   0.1666104  -0.0000111   0.4993095  )
        59           Au  tau(  59) = (   0.4998323  -0.0000112   0.4993099  )
        60           Au  tau(  60) = (   0.8330660  -0.0000111   0.4993009  )
        61           Au  tau(  61) = (  -0.0000111   0.1666104   0.4993095  )
        62           Au  tau(  62) = (   0.3332213   0.1666106   0.4993185  )
        63           Au  tau(  63) = (   0.6664437   0.1666106   0.4993187  )
        64           Au  tau(  64) = (   0.1666106   0.3332213   0.4993185  )
        65           Au  tau(  65) = (   0.4998324   0.3332216   0.4993185  )
        66           Au  tau(  66) = (   0.8330658   0.3332215   0.4993102  )
        67           Au  tau(  67) = (  -0.0000112   0.4998323   0.4993099  )
        68           Au  tau(  68) = (   0.3332216   0.4998324   0.4993185  )
        69           Au  tau(  69) = (   0.6664437   0.4998325   0.4993187  )
        70           Au  tau(  70) = (   0.1666106   0.6664437   0.4993187  )
        71           Au  tau(  71) = (   0.4998325   0.6664437   0.4993187  )
        72           Au  tau(  72) = (   0.8330658   0.6664438   0.4993102  )
        73           Au  tau(  73) = (  -0.0000111   0.8330660   0.4993009  )
        74           Au  tau(  74) = (   0.3332215   0.8330658   0.4993102  )
        75           Au  tau(  75) = (   0.6664438   0.8330658   0.4993102  )

     number of k points=     6  Marzari-Vanderbilt smearing, width (Ry)=  0.0200
                       cart. coord. in units 2pi/alat
        k(    1) = (   0.2500000   0.2500000   0.0833333), wk =   0.3333333
        k(    2) = (   0.2500000   0.2500000  -0.2500000), wk =   0.3333333
        k(    3) = (  -0.2500000  -0.2500000   0.0833333), wk =   0.3333333
        k(    4) = (  -0.2500000   0.2500000  -0.0833333), wk =   0.3333333
        k(    5) = (   0.2500000  -0.2500000  -0.0833333), wk =   0.3333333
        k(    6) = (  -0.2500000   0.2500000   0.2500000), wk =   0.3333333

     Dense  grid:  3792731 G-vectors     FFT dimensions: ( 160, 160, 320)

     Smooth grid:  1341081 G-vectors     FFT dimensions: ( 120, 120, 225)

     Largest allocated arrays     est. size (Mb)     dimensions
        Kohn-Sham Wavefunctions        38.58 Mb     (    5267,  480)
        NL pseudopotentials            76.03 Mb     (    5267,  946)
        Each V/rho on FFT grid          3.91 Mb     (  256000)
        Each G-vector array             0.90 Mb     (  118520)
        G-vector shells                 0.08 Mb     (   10286)
     Largest temporary arrays     est. size (Mb)     dimensions
        Auxiliary wavefunctions       154.31 Mb     (    5267, 1920)
        Each subspace H/S matrix       56.25 Mb     (    1920, 1920)
        Each <psi_i|beta_j> matrix      6.93 Mb     (     946,  480)
        Arrays for rho mixing          31.25 Mb     (  256000,    8)

     Initial potential from superposition of free atoms
     Check: negative starting charge=   -1.945098

     starting charge  799.16392, renormalised to  800.00000

     negative rho (up, down):  1.947E+00 0.000E+00


     ************************************************************************
     *
     * You are using vdW-DF for exchange-correlation in this calculation.
     * Please cite the following three references that made this development
     * possible:
     *
     *   M. Dion, H. Rydberg, E. Schroder, D. C. Langreth, and
     *   B. I. Lundqvist, Phys. Rev. Lett. 92, 246401 (2004).
     *
     *   T. Thonhauser, V. R. Cooper, S. Li, A. Puzder, P. Hyldgaard, and
     *   D. C. Langreth, Phys. Rev. B 76, 125112 (2007).
     *
     *   G. Roman-Perez and J. M. Soler, Phys. Rev. Lett. 103, 096102 (2009).
     *
     *
     * If you are using vdW-DF2, please also cite:
     *
     *   K. Lee, E. D. Murray, L. Kong, B. I. Lundqvist, and
     *   D. C. Langreth, Phys. Rev. B 82, 081101(R) (2010).
     *
     *
     * If you are calculating the stress with vdW-DF, please also cite:
     *
     *   R. Sabatini, E. Kucukbenli, B. Kolb, T. Thonhauser, and
     *   S. de Gironcoli, J. Phys.: Condens. Matter 24, 424209 (2012).
     *
     ************************************************************************

     Carrying out vdW-DF run using the following parameters:

     Nqs =      20    Nr_points =    1024   r_max =   100.000
     q_mesh =
               0.00001000     0.04494208     0.09755937     0.15916263
               0.23128650     0.31572767     0.41458969     0.53033537
               0.66584808     0.82450364     1.01025438     1.22772762
               1.48234092     1.78043706     2.12944203     2.53805004
               3.01644009     3.57652955     4.23227104     5.00000000

     Gradients computed in reciprocal space

     ************************************************************************


     Starting wfc are  654 randomized atomic wfcs

     total cpu time spent up to now is      138.8 secs

     Self-consistent Calculation

     iteration #  1     ecut=    50.00 Ry     beta=0.70
     Davidson diagonalization with overlap
     ethr =  1.00E-02,  avg # of iterations =  3.0

     Threshold (ethr) on eigenvalues was too large:
     Diagonalizing with lowered threshold

     Davidson diagonalization with overlap
     ethr =  4.30E-04,  avg # of iterations =  2.5

     negative rho (up, down):  1.947E+00 0.000E+00

     total cpu time spent up to now is      597.4 secs

     total energy              =   -7422.99531034 Ry
     Harris-Foulkes estimate   =   -7426.09220994 Ry
     estimated scf accuracy    <       3.82126832 Ry

     iteration #  2     ecut=    50.00 Ry     beta=0.70
     Davidson diagonalization with overlap
     ethr =  4.78E-04,  avg # of iterations = 11.3

     negative rho (up, down):  1.941E+00 0.000E+00

     total cpu time spent up to now is     1360.2 secs

     total energy              =   -7414.50221270 Ry
     Harris-Foulkes estimate   =   -7432.82208534 Ry
     estimated scf accuracy    <      97.13934012 Ry

     iteration #  3     ecut=    50.00 Ry     beta=0.70
     Davidson diagonalization with overlap
     ethr =  4.78E-04,  avg # of iterations =  6.3

     negative rho (up, down):  1.951E+00 0.000E+00

     total cpu time spent up to now is     1844.4 secs

     total energy              =   -7424.24983002 Ry
     Harris-Foulkes estimate   =   -7425.86774873 Ry
     estimated scf accuracy    <       6.50923244 Ry

     iteration #  4     ecut=    50.00 Ry     beta=0.70
     Davidson diagonalization with overlap
     ethr =  4.78E-04,  avg # of iterations =  5.7

     negative rho (up, down):  1.955E+00 0.000E+00

     total cpu time spent up to now is     2125.0 secs

     total energy              =   -7424.77693553 Ry
     Harris-Foulkes estimate   =   -7425.72517915 Ry
     estimated scf accuracy    <       6.27367389 Ry

     iteration #  5     ecut=    50.00 Ry     beta=0.70
     Davidson diagonalization with overlap
     ethr =  4.78E-04,  avg # of iterations =  6.2

     negative rho (up, down):  1.963E+00 0.000E+00

     total cpu time spent up to now is     2411.5 secs

     total energy              =   -7425.17374791 Ry
     Harris-Foulkes estimate   =   -7425.48256169 Ry
     estimated scf accuracy    <       2.06759680 Ry

     iteration #  6     ecut=    50.00 Ry     beta=0.70
     Davidson diagonalization with overlap
     ethr =  2.58E-04,  avg # of iterations =  3.0

     negative rho (up, down):  1.966E+00 0.000E+00

     total cpu time spent up to now is     2646.8 secs

     total energy              =   -7425.27923140 Ry
     Harris-Foulkes estimate   =   -7425.32633359 Ry
     estimated scf accuracy    <       0.15634576 Ry

     iteration #  7     ecut=    50.00 Ry     beta=0.70
     Davidson diagonalization with overlap
     ethr =  1.95E-05,  avg # of iterations = 12.0

     negative rho (up, down):  1.969E+00 0.000E+00

     total cpu time spent up to now is     3024.4 secs

     total energy              =   -7425.28236907 Ry
     Harris-Foulkes estimate   =   -7425.31716568 Ry
     estimated scf accuracy    <       0.15784957 Ry

     iteration #  8     ecut=    50.00 Ry     beta=0.70
     Davidson diagonalization with overlap
     ethr =  1.95E-05,  avg # of iterations =  3.0

     negative rho (up, down):  1.971E+00 0.000E+00

     total cpu time spent up to now is     3274.6 secs

     total energy              =   -7425.28529773 Ry
     Harris-Foulkes estimate   =   -7425.30662666 Ry
     estimated scf accuracy    <       0.09084847 Ry

     iteration #  9     ecut=    50.00 Ry     beta=0.70
     Davidson diagonalization with overlap
     ethr =  1.14E-05,  avg # of iterations = 11.5

     negative rho (up, down):  1.972E+00 0.000E+00

     total cpu time spent up to now is     3630.2 secs

     total energy              =   -7425.29004429 Ry
     Harris-Foulkes estimate   =   -7425.29900371 Ry
     estimated scf accuracy    <       0.03089563 Ry

     iteration # 10     ecut=    50.00 Ry     beta=0.70
     Davidson diagonalization with overlap
     ethr =  3.86E-06,  avg # of iterations =  5.7

     negative rho (up, down):  1.972E+00 0.000E+00

     total cpu time spent up to now is     3911.8 secs

     total energy              =   -7425.29271415 Ry
     Harris-Foulkes estimate   =   -7425.29510507 Ry
     estimated scf accuracy    <       0.00645637 Ry

     iteration # 11     ecut=    50.00 Ry     beta=0.70
     Davidson diagonalization with overlap
     ethr =  8.07E-07,  avg # of iterations = 10.0

     negative rho (up, down):  1.973E+00 0.000E+00

     total cpu time spent up to now is     4249.7 secs

     total energy              =   -7425.29355143 Ry
     Harris-Foulkes estimate   =   -7425.29425293 Ry
     estimated scf accuracy    <       0.00214694 Ry

     iteration # 12     ecut=    50.00 Ry     beta=0.70
     Davidson diagonalization with overlap
     ethr =  2.68E-07,  avg # of iterations =  2.0

     negative rho (up, down):  1.974E+00 0.000E+00

     total cpu time spent up to now is     4477.7 secs

     total energy              =   -7425.29358684 Ry
     Harris-Foulkes estimate   =   -7425.29397345 Ry
     estimated scf accuracy    <       0.00073311 Ry

     iteration # 13     ecut=    50.00 Ry     beta=0.70
     Davidson diagonalization with overlap
     ethr =  9.16E-08,  avg # of iterations =  8.0

     negative rho (up, down):  1.974E+00 0.000E+00

     total cpu time spent up to now is     4915.1 secs

     total energy              =   -7425.29319513 Ry
     Harris-Foulkes estimate   =   -7425.29447821 Ry
     estimated scf accuracy    <       0.00628344 Ry

     iteration # 14     ecut=    50.00 Ry     beta=0.70
     Davidson diagonalization with overlap
     ethr =  9.16E-08,  avg # of iterations =  3.0

     negative rho (up, down):  1.974E+00 0.000E+00

     total cpu time spent up to now is     5215.5 secs

     total energy              =   -7425.29376483 Ry
     Harris-Foulkes estimate   =   -7425.29387699 Ry
     estimated scf accuracy    <       0.00049193 Ry

     iteration # 15     ecut=    50.00 Ry     beta=0.70
     Davidson diagonalization with overlap
     ethr =  6.15E-08,  avg # of iterations =  2.0

     negative rho (up, down):  1.974E+00 0.000E+00

     total cpu time spent up to now is     5439.9 secs

     total energy              =   -7425.29380920 Ry
     Harris-Foulkes estimate   =   -7425.29384096 Ry
     estimated scf accuracy    <       0.00011500 Ry

     iteration # 16     ecut=    50.00 Ry     beta=0.70
     Davidson diagonalization with overlap
     ethr =  1.44E-08,  avg # of iterations =  2.0

     negative rho (up, down):  1.974E+00 0.000E+00

     total cpu time spent up to now is     5671.4 secs

     total energy              =   -7425.29378361 Ry
     Harris-Foulkes estimate   =   -7425.29388243 Ry
     estimated scf accuracy    <       0.00086925 Ry

     iteration # 17     ecut=    50.00 Ry     beta=0.70
     Davidson diagonalization with overlap
     ethr =  1.44E-08,  avg # of iterations =  2.0

     negative rho (up, down):  1.974E+00 0.000E+00

     total cpu time spent up to now is     5905.0 secs

     total energy              =   -7425.29383098 Ry
     Harris-Foulkes estimate   =   -7425.29383243 Ry
     estimated scf accuracy    <       0.00000329 Ry

     iteration # 18     ecut=    50.00 Ry     beta=0.70
     Davidson diagonalization with overlap
     ethr =  4.12E-10,  avg # of iterations =  3.0

     negative rho (up, down):  1.974E+00 0.000E+00

     total cpu time spent up to now is     6214.5 secs

     total energy              =   -7425.29383150 Ry
     Harris-Foulkes estimate   =   -7425.29383260 Ry
     estimated scf accuracy    <       0.00000340 Ry

     iteration # 19     ecut=    50.00 Ry     beta=0.70
     Davidson diagonalization with overlap
     ethr =  4.12E-10,  avg # of iterations =  2.0

     negative rho (up, down):  1.974E+00 0.000E+00

     total cpu time spent up to now is     6456.8 secs

     total energy              =   -7425.29383174 Ry
     Harris-Foulkes estimate   =   -7425.29383229 Ry
     estimated scf accuracy    <       0.00000260 Ry

     iteration # 20     ecut=    50.00 Ry     beta=0.70
     Davidson diagonalization with overlap
     ethr =  3.25E-10,  avg # of iterations =  2.0

     negative rho (up, down):  1.974E+00 0.000E+00

     total cpu time spent up to now is     6694.2 secs

     total energy              =   -7425.29383200 Ry
     Harris-Foulkes estimate   =   -7425.29383210 Ry
     estimated scf accuracy    <       0.00000045 Ry

     iteration # 21     ecut=    50.00 Ry     beta=0.70
     Davidson diagonalization with overlap
     ethr =  5.60E-11,  avg # of iterations =  3.0

     negative rho (up, down):  1.974E+00 0.000E+00

     total cpu time spent up to now is     6936.6 secs

     total energy              =   -7425.29383204 Ry
     Harris-Foulkes estimate   =   -7425.29383210 Ry
     estimated scf accuracy    <       0.00000023 Ry

     iteration # 22     ecut=    50.00 Ry     beta=0.70
     Davidson diagonalization with overlap
     ethr =  2.84E-11,  avg # of iterations =  2.0

     negative rho (up, down):  1.974E+00 0.000E+00

     total cpu time spent up to now is     7170.1 secs

     total energy              =   -7425.29383207 Ry
     Harris-Foulkes estimate   =   -7425.29383208 Ry
     estimated scf accuracy    <       0.00000004 Ry

     iteration # 23     ecut=    50.00 Ry     beta=0.70
     Davidson diagonalization with overlap
     ethr =  5.18E-12,  avg # of iterations =  3.0

     negative rho (up, down):  1.974E+00 0.000E+00

     total cpu time spent up to now is     7419.5 secs

     total energy              =   -7425.29383208 Ry
     Harris-Foulkes estimate   =   -7425.29383208 Ry
     estimated scf accuracy    <       0.00000001 Ry

     iteration # 24     ecut=    50.00 Ry     beta=0.70
     Davidson diagonalization with overlap
     ethr =  1.84E-12,  avg # of iterations =  3.0

     negative rho (up, down):  1.974E+00 0.000E+00

     total cpu time spent up to now is     7678.8 secs

     total energy              =   -7425.29383208 Ry
     Harris-Foulkes estimate   =   -7425.29383208 Ry
     estimated scf accuracy    <       0.00000003 Ry

     iteration # 25     ecut=    50.00 Ry     beta=0.70
     Davidson diagonalization with overlap
     ethr =  1.84E-12,  avg # of iterations =  3.0

     negative rho (up, down):  1.974E+00 0.000E+00

     total cpu time spent up to now is     7923.2 secs

     total energy              =   -7425.29383208 Ry
     Harris-Foulkes estimate   =   -7425.29383209 Ry
     estimated scf accuracy    <       0.00000002 Ry

     iteration # 26     ecut=    50.00 Ry     beta=0.70
     Davidson diagonalization with overlap
     ethr =  1.84E-12,  avg # of iterations =  2.0

     negative rho (up, down):  1.974E+00 0.000E+00

     total cpu time spent up to now is     8155.9 secs

     End of self-consistent calculation

          k = 0.2500 0.2500 0.0833 (167653 PWs)   bands (ev):

   -19.8551  -7.6624  -6.7170  -6.1886  -6.1881  -5.7587  -5.3523  -5.2567
    -5.2562  -5.0604  -5.0599  -4.9468  -4.9434  -4.8638  -4.8423  -4.7678
    -4.6830  -4.6792  -4.6410  -4.6402  -4.4822  -4.4624  -4.4617  -4.4611
    -4.4549  -4.3996  -4.3984  -4.3870  -4.3863  -4.3499  -4.3429  -4.3378
    -4.2958  -4.2948  -4.2613  -4.2606  -4.2291  -4.2088  -4.2037  -4.1960
    -4.1909  -4.1777  -4.1776  -4.1461  -4.1183  -4.1181  -4.1139  -4.1108
    -4.0955  -4.0525  -4.0290  -4.0143  -4.0132  -4.0107  -4.0022  -3.9991
    -3.9966  -3.9960  -3.9882  -3.9321  -3.9069  -3.8816  -3.8809  -3.8661
    -3.8427  -3.8376  -3.8233  -3.8198  -3.8196  -3.8134  -3.8116  -3.7633
    -3.7632  -3.7506  -3.7480  -3.6457  -3.6424  -3.6394  -3.6342  -3.6012
    -3.5880  -3.5788  -3.5485  -3.5481  -3.5197  -3.5184  -3.4982  -3.4976
    -3.4845  -3.4820  -3.4291  -3.4280  -3.4087  -3.3954  -3.3834  -3.3820
    -3.3816  -3.3809  -3.3539  -3.3536  -3.3169  -3.3162  -3.2950  -3.2918
    -3.2620  -3.2583  -3.2433  -3.2155  -3.2144  -3.1782  -3.1778  -3.1420
    -3.1348  -3.1339  -3.1207  -3.1177  -3.1150  -3.1144  -3.0750  -3.0668
    -3.0259  -3.0257  -3.0174  -3.0080  -3.0073  -3.0065  -2.9818  -2.9815
    -2.9606  -2.9604  -2.9593  -2.9329  -2.9328  -2.9252  -2.9225  -2.9205
    -2.8861  -2.8821  -2.8470  -2.8467  -2.8459  -2.8428  -2.8416  -2.7630
    -2.7533  -2.7496  -2.7484  -2.7477  -2.7473  -2.7427  -2.7423  -2.7420
    -2.7416  -2.7320  -2.7243  -2.7079  -2.7051  -2.7046  -2.7017  -2.6896
    -2.6838  -2.6467  -2.6459  -2.6458  -2.6422  -2.6404  -2.6232  -2.6225
    -2.6142  -2.6125  -2.6114  -2.5527  -2.5516  -2.5468  -2.5462  -2.5427
    -2.5393  -2.5128  -2.4545  -2.4537  -2.4533  -2.4508  -2.4394  -2.4369
    -2.4344  -2.4217  -2.4216  -2.3861  -2.3839  -2.3766  -2.3762  -2.3753
    -2.3734  -2.3358  -2.3353  -2.3264  -2.3251  -2.3243  -2.3235  -2.2805
    -2.2683  -2.2583  -2.2066  -2.2061  -2.1934  -2.1873  -2.1819  -2.1791
    -2.1342  -2.1295  -2.1085  -2.0915  -2.0787  -2.0780  -2.0765  -2.0561
    -2.0543  -2.0455  -2.0307  -2.0032  -1.9878  -1.9815  -1.9744  -1.9725
    -1.9641  -1.9613  -1.9598  -1.9470  -1.9458  -1.9421  -1.9400  -1.9378
    -1.9368  -1.9280  -1.9241  -1.9237  -1.9060  -1.9053  -1.8979  -1.8949
    -1.8943  -1.8877  -1.8709  -1.8708  -1.8583  -1.8570  -1.8508  -1.8458
    -1.8143  -1.7807  -1.7795  -1.7448  -1.7280  -1.7272  -1.7174  -1.7135
    -1.6938  -1.6886  -1.6794  -1.6775  -1.6769  -1.6751  -1.6713  -1.6659
    -1.6407  -1.6404  -1.6401  -1.5952  -1.5928  -1.5546  -1.5531  -1.5076
    -1.5056  -1.4943  -1.4721  -1.4676  -1.4647  -1.4475  -1.4458  -1.4293
    -1.4288  -1.4250  -1.4242  -1.4235  -1.4216  -1.4179  -1.4143  -1.3989
    -1.3979  -1.3858  -1.3709  -1.3522  -1.3505  -1.3260  -1.3254  -1.3233
    -1.3213  -1.3191  -1.3130  -1.2958  -1.2908  -1.2800  -1.2743  -1.2627
    -1.2562  -1.2428  -1.2420  -1.2120  -1.2108  -1.2034  -1.2007  -1.1668
    -1.1666  -1.1594  -1.1580  -1.1512  -1.1482  -1.1287  -1.1285  -1.1168
    -1.1101  -1.1095  -1.0973  -1.0971  -1.0958  -1.0913  -1.0816  -1.0705
    -1.0688  -1.0624  -1.0621  -1.0508  -1.0459  -1.0424  -1.0393  -0.9996
    -0.9968  -0.9937  -0.9906  -0.9906  -0.9882  -0.9506  -0.9344  -0.9333
    -0.9324  -0.9319  -0.9280  -0.9232  -0.9220  -0.9084  -0.9077  -0.8720
    -0.8704  -0.8640  -0.8637  -0.8413  -0.8408  -0.8312  -0.8017  -0.7940
    -0.7669  -0.7662  -0.7385  -0.7380  -0.7347  -0.7344  -0.7338  -0.7291
    -0.7246  -0.7241  -0.7198  -0.7189  -0.6877  -0.6869  -0.6708  -0.6676
    -0.6642  -0.6637  -0.6602  -0.6542  -0.6431  -0.3665  -0.3581  -0.3036
    -0.2928  -0.2614  -0.0994  -0.0362  -0.0347  -0.0007   0.2829   0.2859
     0.6100   0.6192   0.7121   0.7134   0.7520   0.7569   0.8976   0.9007
     1.0213   1.0233   1.1106   1.7084   1.7265   1.7279   1.7668   1.7709
     1.8078   1.8251   1.8955   1.8997   2.1028   2.1051   2.3363   2.4139
     2.4250   2.4365   2.8071   2.8208   2.8893   2.8898   2.8963   2.8989
     3.0480   3.0492   3.0740   3.1894   3.1933   3.4208   3.4289   3.5584
     3.5825   3.5866   3.8543   3.8566   3.9670   3.9847   3.9899   3.9952
     4.0386   4.1742   4.1788   4.4107   4.4127   4.4892   4.4981   4.6066
     4.6263   4.6356   4.6487   4.6667   4.8580   5.3888   5.4174   5.4579
     5.5490   5.5589   5.6032   5.6603   5.7346   5.7376   5.7477   5.8449
     5.8513   5.9056   5.9066   5.9441   6.0061   6.0345   6.0956   6.1483
     6.1858   6.2126   6.2237   6.2274   6.2433   6.2462   6.2552   6.2568

          k = 0.2500 0.2500-0.2500 (167588 PWs)   bands (ev):

   -19.8551  -7.6624  -6.7170  -6.1886  -6.1881  -5.7587  -5.3523  -5.2567
    -5.2562  -5.0604  -5.0599  -4.9468  -4.9434  -4.8638  -4.8423  -4.7678
    -4.6830  -4.6792  -4.6410  -4.6402  -4.4822  -4.4624  -4.4617  -4.4611
    -4.4549  -4.3996  -4.3984  -4.3870  -4.3863  -4.3499  -4.3429  -4.3378
    -4.2958  -4.2948  -4.2613  -4.2606  -4.2291  -4.2088  -4.2037  -4.1960
    -4.1909  -4.1777  -4.1776  -4.1461  -4.1183  -4.1181  -4.1139  -4.1108
    -4.0955  -4.0525  -4.0290  -4.0143  -4.0132  -4.0107  -4.0022  -3.9991
    -3.9966  -3.9960  -3.9882  -3.9321  -3.9069  -3.8816  -3.8809  -3.8661
    -3.8427  -3.8375  -3.8233  -3.8198  -3.8196  -3.8134  -3.8116  -3.7633
    -3.7632  -3.7506  -3.7480  -3.6457  -3.6424  -3.6394  -3.6342  -3.6012
    -3.5880  -3.5788  -3.5485  -3.5481  -3.5197  -3.5184  -3.4982  -3.4976
    -3.4845  -3.4820  -3.4291  -3.4280  -3.4087  -3.3954  -3.3834  -3.3820
    -3.3816  -3.3809  -3.3539  -3.3536  -3.3169  -3.3162  -3.2950  -3.2918
    -3.2620  -3.2583  -3.2433  -3.2155  -3.2144  -3.1782  -3.1778  -3.1420
    -3.1348  -3.1339  -3.1207  -3.1177  -3.1150  -3.1144  -3.0750  -3.0668
    -3.0259  -3.0257  -3.0174  -3.0080  -3.0073  -3.0065  -2.9818  -2.9815
    -2.9606  -2.9604  -2.9593  -2.9329  -2.9328  -2.9252  -2.9225  -2.9205
    -2.8861  -2.8821  -2.8470  -2.8467  -2.8459  -2.8428  -2.8416  -2.7630
    -2.7533  -2.7496  -2.7484  -2.7477  -2.7473  -2.7427  -2.7423  -2.7420
    -2.7416  -2.7321  -2.7243  -2.7079  -2.7051  -2.7046  -2.7017  -2.6896
    -2.6838  -2.6467  -2.6459  -2.6458  -2.6422  -2.6404  -2.6232  -2.6225
    -2.6142  -2.6125  -2.6115  -2.5527  -2.5516  -2.5468  -2.5462  -2.5427
    -2.5393  -2.5128  -2.4545  -2.4537  -2.4533  -2.4508  -2.4394  -2.4369
    -2.4344  -2.4217  -2.4216  -2.3861  -2.3839  -2.3766  -2.3762  -2.3753
    -2.3734  -2.3358  -2.3353  -2.3264  -2.3251  -2.3243  -2.3235  -2.2805
    -2.2683  -2.2583  -2.2066  -2.2061  -2.1934  -2.1873  -2.1819  -2.1791
    -2.1341  -2.1295  -2.1085  -2.0915  -2.0787  -2.0780  -2.0765  -2.0561
    -2.0543  -2.0455  -2.0307  -2.0032  -1.9878  -1.9815  -1.9744  -1.9725
    -1.9641  -1.9613  -1.9598  -1.9470  -1.9458  -1.9421  -1.9400  -1.9378
    -1.9368  -1.9280  -1.9241  -1.9237  -1.9060  -1.9053  -1.8979  -1.8949
    -1.8943  -1.8877  -1.8709  -1.8708  -1.8583  -1.8570  -1.8508  -1.8458
    -1.8144  -1.7807  -1.7795  -1.7448  -1.7280  -1.7272  -1.7174  -1.7135
    -1.6938  -1.6886  -1.6794  -1.6775  -1.6769  -1.6751  -1.6712  -1.6659
    -1.6407  -1.6404  -1.6401  -1.5952  -1.5928  -1.5546  -1.5531  -1.5076
    -1.5056  -1.4943  -1.4721  -1.4676  -1.4647  -1.4475  -1.4458  -1.4293
    -1.4288  -1.4250  -1.4242  -1.4235  -1.4216  -1.4178  -1.4143  -1.3989
    -1.3979  -1.3858  -1.3709  -1.3522  -1.3505  -1.3260  -1.3254  -1.3232
    -1.3213  -1.3191  -1.3130  -1.2958  -1.2908  -1.2800  -1.2743  -1.2627
    -1.2562  -1.2428  -1.2420  -1.2120  -1.2108  -1.2034  -1.2007  -1.1668
    -1.1666  -1.1594  -1.1580  -1.1512  -1.1482  -1.1287  -1.1285  -1.1168
    -1.1101  -1.1095  -1.0973  -1.0970  -1.0958  -1.0913  -1.0816  -1.0705
    -1.0688  -1.0624  -1.0621  -1.0508  -1.0459  -1.0424  -1.0393  -0.9996
    -0.9968  -0.9937  -0.9907  -0.9906  -0.9882  -0.9506  -0.9344  -0.9333
    -0.9324  -0.9319  -0.9280  -0.9232  -0.9220  -0.9084  -0.9077  -0.8720
    -0.8704  -0.8640  -0.8637  -0.8413  -0.8408  -0.8312  -0.8017  -0.7940
    -0.7669  -0.7662  -0.7385  -0.7380  -0.7347  -0.7344  -0.7338  -0.7291
    -0.7246  -0.7240  -0.7198  -0.7189  -0.6877  -0.6869  -0.6708  -0.6676
    -0.6642  -0.6637  -0.6602  -0.6542  -0.6431  -0.3665  -0.3581  -0.3036
    -0.2928  -0.2614  -0.0994  -0.0362  -0.0347  -0.0007   0.2829   0.2859
     0.6099   0.6192   0.7121   0.7134   0.7520   0.7569   0.8976   0.9007
     1.0213   1.0233   1.1106   1.7084   1.7265   1.7279   1.7668   1.7709
     1.8078   1.8251   1.8955   1.8997   2.1028   2.1051   2.3363   2.4139
     2.4250   2.4365   2.8071   2.8208   2.8893   2.8898   2.8963   2.8989
     3.0480   3.0492   3.0740   3.1894   3.1933   3.4208   3.4289   3.5584
     3.5825   3.5866   3.8543   3.8566   3.9670   3.9848   3.9899   3.9953
     4.0386   4.1742   4.1788   4.4107   4.4127   4.4891   4.4981   4.6062
     4.6263   4.6355   4.6485   4.6664   4.8564   5.3877   5.4068   5.4409
     5.5488   5.5591   5.6159   5.7208   5.7346   5.7385   5.7461   5.8446
     5.8513   5.9060   5.9067   5.9473   5.9896   6.0645   6.0736   6.1806
     6.1955   6.2184   6.2257   6.2280   6.2429   6.2517   6.2566   6.2583

          k =-0.2500-0.2500 0.0833 (167653 PWs)   bands (ev):

   -19.8551  -7.6624  -6.7170  -6.1886  -6.1881  -5.7587  -5.3523  -5.2567
    -5.2562  -5.0604  -5.0599  -4.9468  -4.9434  -4.8638  -4.8423  -4.7678
    -4.6830  -4.6792  -4.6410  -4.6402  -4.4822  -4.4624  -4.4617  -4.4611
    -4.4549  -4.3996  -4.3984  -4.3870  -4.3863  -4.3499  -4.3429  -4.3378
    -4.2958  -4.2948  -4.2613  -4.2606  -4.2291  -4.2088  -4.2037  -4.1960
    -4.1909  -4.1777  -4.1776  -4.1461  -4.1183  -4.1181  -4.1139  -4.1108
    -4.0955  -4.0525  -4.0290  -4.0143  -4.0132  -4.0107  -4.0022  -3.9991
    -3.9966  -3.9960  -3.9882  -3.9321  -3.9069  -3.8816  -3.8809  -3.8661
    -3.8427  -3.8376  -3.8233  -3.8198  -3.8196  -3.8134  -3.8116  -3.7633
    -3.7632  -3.7506  -3.7480  -3.6457  -3.6424  -3.6394  -3.6342  -3.6012
    -3.5880  -3.5788  -3.5485  -3.5481  -3.5197  -3.5184  -3.4982  -3.4976
    -3.4845  -3.4820  -3.4291  -3.4280  -3.4087  -3.3954  -3.3834  -3.3820
    -3.3816  -3.3809  -3.3539  -3.3536  -3.3169  -3.3162  -3.2950  -3.2918
    -3.2620  -3.2583  -3.2433  -3.2155  -3.2144  -3.1782  -3.1778  -3.1420
    -3.1348  -3.1339  -3.1207  -3.1177  -3.1150  -3.1144  -3.0750  -3.0668
    -3.0259  -3.0257  -3.0174  -3.0080  -3.0073  -3.0065  -2.9818  -2.9815
    -2.9606  -2.9604  -2.9593  -2.9329  -2.9328  -2.9252  -2.9225  -2.9205
    -2.8861  -2.8821  -2.8470  -2.8467  -2.8459  -2.8428  -2.8416  -2.7630
    -2.7533  -2.7496  -2.7484  -2.7477  -2.7473  -2.7427  -2.7423  -2.7420
    -2.7416  -2.7320  -2.7243  -2.7079  -2.7051  -2.7046  -2.7017  -2.6896
    -2.6838  -2.6467  -2.6459  -2.6458  -2.6422  -2.6404  -2.6232  -2.6225
    -2.6142  -2.6125  -2.6114  -2.5527  -2.5516  -2.5468  -2.5462  -2.5427
    -2.5393  -2.5128  -2.4545  -2.4537  -2.4533  -2.4508  -2.4394  -2.4369
    -2.4344  -2.4217  -2.4216  -2.3861  -2.3839  -2.3766  -2.3762  -2.3753
    -2.3734  -2.3358  -2.3353  -2.3264  -2.3251  -2.3243  -2.3235  -2.2805
    -2.2683  -2.2583  -2.2066  -2.2061  -2.1934  -2.1873  -2.1819  -2.1791
    -2.1342  -2.1295  -2.1085  -2.0915  -2.0787  -2.0780  -2.0765  -2.0561
    -2.0543  -2.0455  -2.0307  -2.0032  -1.9878  -1.9815  -1.9744  -1.9725
    -1.9641  -1.9613  -1.9598  -1.9470  -1.9458  -1.9421  -1.9400  -1.9378
    -1.9368  -1.9280  -1.9241  -1.9237  -1.9060  -1.9053  -1.8979  -1.8949
    -1.8943  -1.8877  -1.8709  -1.8708  -1.8583  -1.8570  -1.8508  -1.8458
    -1.8143  -1.7807  -1.7795  -1.7448  -1.7280  -1.7272  -1.7174  -1.7135
    -1.6938  -1.6886  -1.6794  -1.6775  -1.6769  -1.6751  -1.6713  -1.6659
    -1.6407  -1.6404  -1.6401  -1.5952  -1.5928  -1.5546  -1.5531  -1.5076
    -1.5056  -1.4943  -1.4721  -1.4676  -1.4647  -1.4475  -1.4458  -1.4293
    -1.4288  -1.4250  -1.4242  -1.4235  -1.4216  -1.4179  -1.4143  -1.3989
    -1.3979  -1.3858  -1.3709  -1.3522  -1.3505  -1.3260  -1.3254  -1.3233
    -1.3213  -1.3191  -1.3130  -1.2958  -1.2908  -1.2800  -1.2743  -1.2627
    -1.2562  -1.2428  -1.2420  -1.2120  -1.2108  -1.2034  -1.2007  -1.1668
    -1.1666  -1.1594  -1.1580  -1.1512  -1.1482  -1.1287  -1.1285  -1.1168
    -1.1101  -1.1095  -1.0973  -1.0971  -1.0958  -1.0913  -1.0816  -1.0705
    -1.0688  -1.0624  -1.0621  -1.0508  -1.0459  -1.0424  -1.0393  -0.9996
    -0.9968  -0.9937  -0.9906  -0.9906  -0.9882  -0.9506  -0.9344  -0.9333
    -0.9324  -0.9319  -0.9280  -0.9232  -0.9220  -0.9084  -0.9077  -0.8720
    -0.8704  -0.8640  -0.8637  -0.8413  -0.8408  -0.8312  -0.8017  -0.7940
    -0.7669  -0.7662  -0.7385  -0.7380  -0.7347  -0.7344  -0.7338  -0.7291
    -0.7246  -0.7241  -0.7198  -0.7189  -0.6877  -0.6869  -0.6708  -0.6676
    -0.6642  -0.6637  -0.6602  -0.6542  -0.6431  -0.3665  -0.3581  -0.3036
    -0.2928  -0.2614  -0.0994  -0.0362  -0.0347  -0.0007   0.2829   0.2859
     0.6100   0.6192   0.7121   0.7134   0.7520   0.7569   0.8976   0.9007
     1.0213   1.0233   1.1106   1.7084   1.7265   1.7279   1.7668   1.7709
     1.8078   1.8251   1.8955   1.8997   2.1028   2.1051   2.3363   2.4139
     2.4250   2.4365   2.8071   2.8208   2.8893   2.8898   2.8963   2.8989
     3.0480   3.0492   3.0740   3.1894   3.1933   3.4208   3.4289   3.5584
     3.5825   3.5866   3.8543   3.8566   3.9670   3.9847   3.9899   3.9952
     4.0386   4.1742   4.1788   4.4107   4.4127   4.4892   4.4981   4.6066
     4.6263   4.6356   4.6487   4.6667   4.8580   5.3888   5.4174   5.4577
     5.5490   5.5590   5.6039   5.6600   5.7346   5.7376   5.7477   5.8449
     5.8513   5.9056   5.9066   5.9441   6.0065   6.0337   6.0948   6.1489
     6.1858   6.2129   6.2240   6.2274   6.2433   6.2462   6.2551   6.2568

          k =-0.2500 0.2500-0.0833 (167653 PWs)   bands (ev):

   -19.8551  -7.6624  -6.7170  -6.1886  -6.1881  -5.7587  -5.3523  -5.2567
    -5.2561  -5.0604  -5.0598  -4.9468  -4.9435  -4.8638  -4.8423  -4.7678
    -4.6830  -4.6792  -4.6410  -4.6401  -4.4822  -4.4625  -4.4617  -4.4611
    -4.4549  -4.3996  -4.3984  -4.3870  -4.3863  -4.3499  -4.3429  -4.3377
    -4.2959  -4.2948  -4.2613  -4.2606  -4.2292  -4.2088  -4.2037  -4.1960
    -4.1908  -4.1778  -4.1776  -4.1461  -4.1182  -4.1181  -4.1139  -4.1108
    -4.0955  -4.0527  -4.0290  -4.0143  -4.0132  -4.0106  -4.0022  -3.9990
    -3.9966  -3.9960  -3.9882  -3.9322  -3.9068  -3.8817  -3.8808  -3.8662
    -3.8426  -3.8376  -3.8232  -3.8200  -3.8193  -3.8134  -3.8116  -3.7633
    -3.7632  -3.7506  -3.7479  -3.6457  -3.6424  -3.6395  -3.6342  -3.6012
    -3.5879  -3.5788  -3.5485  -3.5480  -3.5197  -3.5184  -3.4983  -3.4976
    -3.4845  -3.4819  -3.4291  -3.4280  -3.4087  -3.3954  -3.3834  -3.3820
    -3.3816  -3.3809  -3.3540  -3.3535  -3.3169  -3.3162  -3.2950  -3.2918
    -3.2620  -3.2582  -3.2433  -3.2155  -3.2144  -3.1782  -3.1778  -3.1421
    -3.1348  -3.1339  -3.1207  -3.1177  -3.1150  -3.1145  -3.0750  -3.0668
    -3.0259  -3.0257  -3.0174  -3.0080  -3.0072  -3.0066  -2.9818  -2.9815
    -2.9608  -2.9601  -2.9594  -2.9329  -2.9328  -2.9252  -2.9225  -2.9205
    -2.8861  -2.8821  -2.8471  -2.8468  -2.8459  -2.8428  -2.8416  -2.7630
    -2.7533  -2.7495  -2.7485  -2.7478  -2.7472  -2.7427  -2.7424  -2.7420
    -2.7417  -2.7320  -2.7243  -2.7079  -2.7052  -2.7045  -2.7017  -2.6896
    -2.6837  -2.6468  -2.6459  -2.6458  -2.6422  -2.6405  -2.6232  -2.6225
    -2.6143  -2.6125  -2.6114  -2.5527  -2.5516  -2.5468  -2.5462  -2.5427
    -2.5393  -2.5128  -2.4545  -2.4535  -2.4533  -2.4508  -2.4394  -2.4368
    -2.4340  -2.4217  -2.4216  -2.3860  -2.3839  -2.3766  -2.3764  -2.3752
    -2.3737  -2.3358  -2.3352  -2.3264  -2.3251  -2.3243  -2.3235  -2.2805
    -2.2694  -2.2585  -2.2066  -2.2062  -2.1930  -2.1875  -2.1818  -2.1793
    -2.1339  -2.1295  -2.1085  -2.0917  -2.0784  -2.0779  -2.0765  -2.0558
    -2.0543  -2.0454  -2.0313  -2.0019  -1.9877  -1.9801  -1.9745  -1.9726
    -1.9640  -1.9616  -1.9598  -1.9470  -1.9459  -1.9420  -1.9403  -1.9379
    -1.9370  -1.9259  -1.9241  -1.9235  -1.9060  -1.9053  -1.8983  -1.8948
    -1.8944  -1.8892  -1.8709  -1.8708  -1.8587  -1.8569  -1.8508  -1.8486
    -1.8143  -1.7808  -1.7799  -1.7449  -1.7280  -1.7272  -1.7177  -1.7131
    -1.6941  -1.6878  -1.6795  -1.6773  -1.6769  -1.6751  -1.6700  -1.6656
    -1.6407  -1.6403  -1.6401  -1.5952  -1.5933  -1.5546  -1.5528  -1.5077
    -1.5055  -1.4941  -1.4721  -1.4677  -1.4646  -1.4480  -1.4458  -1.4293
    -1.4289  -1.4250  -1.4243  -1.4235  -1.4216  -1.4179  -1.4152  -1.3989
    -1.3979  -1.3856  -1.3709  -1.3523  -1.3500  -1.3259  -1.3253  -1.3233
    -1.3218  -1.3191  -1.3126  -1.2960  -1.2901  -1.2804  -1.2738  -1.2628
    -1.2562  -1.2428  -1.2417  -1.2120  -1.2108  -1.2036  -1.2006  -1.1672
    -1.1666  -1.1595  -1.1583  -1.1513  -1.1477  -1.1287  -1.1285  -1.1168
    -1.1101  -1.1095  -1.0973  -1.0971  -1.0959  -1.0905  -1.0816  -1.0707
    -1.0686  -1.0624  -1.0621  -1.0505  -1.0462  -1.0419  -1.0393  -0.9995
    -0.9970  -0.9937  -0.9906  -0.9905  -0.9885  -0.9506  -0.9346  -0.9333
    -0.9324  -0.9317  -0.9284  -0.9231  -0.9214  -0.9090  -0.9079  -0.8720
    -0.8701  -0.8640  -0.8636  -0.8414  -0.8408  -0.8312  -0.8017  -0.7939
    -0.7670  -0.7661  -0.7384  -0.7380  -0.7347  -0.7345  -0.7338  -0.7292
    -0.7246  -0.7240  -0.7198  -0.7190  -0.6877  -0.6868  -0.6711  -0.6674
    -0.6643  -0.6636  -0.6610  -0.6536  -0.6431  -0.3665  -0.3581  -0.3044
    -0.2923  -0.2613  -0.0995  -0.0363  -0.0347  -0.0003   0.2825   0.2863
     0.6095   0.6199   0.7120   0.7136   0.7517   0.7572   0.8964   0.9010
     1.0213   1.0233   1.1108   1.7088   1.7264   1.7281   1.7666   1.7708
     1.8066   1.8262   1.8950   1.9002   2.1026   2.1054   2.3367   2.4135
     2.4260   2.4365   2.8063   2.8216   2.8895   2.8896   2.8962   2.8990
     3.0479   3.0494   3.0738   3.1900   3.1922   3.4209   3.4273   3.5585
     3.5823   3.5871   3.8538   3.8567   3.9671   3.9859   3.9903   3.9980
     4.0359   4.1739   4.1787   4.4105   4.4128   4.4918   4.4975   4.6026
     4.6265   4.6339   4.6470   4.6662   4.8649   5.3838   5.4203   5.4685
     5.5487   5.5582   5.5990   5.6504   5.7341   5.7378   5.7482   5.8443
     5.8524   5.9054   5.9063   5.9434   6.0104   6.0288   6.1036   6.1454
     6.1853   6.2133   6.2263   6.2288   6.2427   6.2433   6.2548   6.2568

          k = 0.2500-0.2500-0.0833 (167653 PWs)   bands (ev):

   -19.8551  -7.6624  -6.7170  -6.1886  -6.1881  -5.7587  -5.3523  -5.2567
    -5.2561  -5.0604  -5.0598  -4.9468  -4.9435  -4.8638  -4.8423  -4.7678
    -4.6830  -4.6792  -4.6410  -4.6401  -4.4822  -4.4625  -4.4617  -4.4611
    -4.4549  -4.3996  -4.3984  -4.3870  -4.3863  -4.3499  -4.3429  -4.3377
    -4.2959  -4.2948  -4.2613  -4.2606  -4.2292  -4.2088  -4.2037  -4.1960
    -4.1908  -4.1778  -4.1776  -4.1461  -4.1182  -4.1181  -4.1139  -4.1108
    -4.0955  -4.0527  -4.0290  -4.0143  -4.0132  -4.0106  -4.0022  -3.9990
    -3.9966  -3.9960  -3.9882  -3.9322  -3.9068  -3.8817  -3.8808  -3.8662
    -3.8426  -3.8376  -3.8232  -3.8200  -3.8193  -3.8134  -3.8116  -3.7633
    -3.7632  -3.7506  -3.7479  -3.6457  -3.6424  -3.6395  -3.6342  -3.6012
    -3.5879  -3.5788  -3.5485  -3.5480  -3.5197  -3.5184  -3.4983  -3.4976
    -3.4845  -3.4819  -3.4291  -3.4280  -3.4087  -3.3954  -3.3834  -3.3820
    -3.3816  -3.3809  -3.3540  -3.3535  -3.3169  -3.3162  -3.2950  -3.2918
    -3.2620  -3.2582  -3.2433  -3.2155  -3.2144  -3.1782  -3.1778  -3.1421
    -3.1348  -3.1339  -3.1207  -3.1177  -3.1150  -3.1145  -3.0750  -3.0668
    -3.0259  -3.0257  -3.0174  -3.0080  -3.0072  -3.0066  -2.9818  -2.9815
    -2.9608  -2.9601  -2.9594  -2.9329  -2.9328  -2.9252  -2.9225  -2.9205
    -2.8861  -2.8821  -2.8471  -2.8468  -2.8459  -2.8428  -2.8416  -2.7630
    -2.7533  -2.7495  -2.7485  -2.7478  -2.7472  -2.7427  -2.7424  -2.7420
    -2.7417  -2.7320  -2.7243  -2.7079  -2.7052  -2.7045  -2.7017  -2.6896
    -2.6837  -2.6468  -2.6459  -2.6458  -2.6422  -2.6405  -2.6232  -2.6225
    -2.6143  -2.6125  -2.6114  -2.5527  -2.5516  -2.5468  -2.5462  -2.5427
    -2.5393  -2.5128  -2.4545  -2.4535  -2.4533  -2.4508  -2.4394  -2.4368
    -2.4340  -2.4217  -2.4216  -2.3860  -2.3839  -2.3766  -2.3764  -2.3752
    -2.3737  -2.3358  -2.3352  -2.3264  -2.3251  -2.3243  -2.3235  -2.2805
    -2.2694  -2.2585  -2.2066  -2.2062  -2.1930  -2.1875  -2.1818  -2.1793
    -2.1339  -2.1295  -2.1085  -2.0917  -2.0784  -2.0779  -2.0765  -2.0558
    -2.0543  -2.0454  -2.0313  -2.0019  -1.9877  -1.9801  -1.9745  -1.9726
    -1.9640  -1.9616  -1.9598  -1.9470  -1.9459  -1.9420  -1.9403  -1.9379
    -1.9370  -1.9259  -1.9241  -1.9235  -1.9060  -1.9053  -1.8983  -1.8948
    -1.8944  -1.8892  -1.8709  -1.8708  -1.8587  -1.8569  -1.8508  -1.8486
    -1.8143  -1.7808  -1.7799  -1.7449  -1.7280  -1.7272  -1.7177  -1.7131
    -1.6941  -1.6878  -1.6795  -1.6773  -1.6769  -1.6751  -1.6700  -1.6656
    -1.6407  -1.6403  -1.6401  -1.5952  -1.5933  -1.5546  -1.5528  -1.5077
    -1.5055  -1.4941  -1.4721  -1.4677  -1.4646  -1.4480  -1.4458  -1.4293
    -1.4289  -1.4250  -1.4243  -1.4235  -1.4216  -1.4179  -1.4152  -1.3989
    -1.3979  -1.3856  -1.3709  -1.3523  -1.3500  -1.3259  -1.3253  -1.3233
    -1.3218  -1.3191  -1.3126  -1.2960  -1.2901  -1.2804  -1.2738  -1.2628
    -1.2562  -1.2428  -1.2417  -1.2120  -1.2108  -1.2036  -1.2006  -1.1672
    -1.1666  -1.1595  -1.1583  -1.1513  -1.1477  -1.1287  -1.1285  -1.1168
    -1.1101  -1.1095  -1.0973  -1.0971  -1.0959  -1.0905  -1.0816  -1.0707
    -1.0686  -1.0624  -1.0621  -1.0505  -1.0462  -1.0419  -1.0393  -0.9995
    -0.9970  -0.9937  -0.9906  -0.9905  -0.9885  -0.9506  -0.9346  -0.9333
    -0.9324  -0.9317  -0.9284  -0.9231  -0.9214  -0.9090  -0.9079  -0.8720
    -0.8701  -0.8640  -0.8636  -0.8414  -0.8408  -0.8312  -0.8017  -0.7939
    -0.7670  -0.7661  -0.7384  -0.7380  -0.7347  -0.7345  -0.7338  -0.7292
    -0.7246  -0.7240  -0.7198  -0.7190  -0.6877  -0.6868  -0.6711  -0.6674
    -0.6643  -0.6636  -0.6610  -0.6536  -0.6431  -0.3665  -0.3581  -0.3044
    -0.2923  -0.2613  -0.0995  -0.0363  -0.0347  -0.0003   0.2825   0.2863
     0.6095   0.6199   0.7120   0.7136   0.7517   0.7572   0.8964   0.9010
     1.0213   1.0233   1.1108   1.7088   1.7264   1.7281   1.7666   1.7708
     1.8066   1.8262   1.8950   1.9002   2.1026   2.1054   2.3367   2.4135
     2.4260   2.4365   2.8063   2.8216   2.8895   2.8896   2.8962   2.8990
     3.0479   3.0494   3.0738   3.1900   3.1922   3.4209   3.4273   3.5585
     3.5823   3.5871   3.8538   3.8567   3.9671   3.9859   3.9903   3.9980
     4.0359   4.1739   4.1787   4.4105   4.4128   4.4918   4.4975   4.6026
     4.6265   4.6339   4.6470   4.6662   4.8649   5.3838   5.4202   5.4688
     5.5487   5.5582   5.5983   5.6508   5.7341   5.7378   5.7482   5.8443
     5.8524   5.9054   5.9063   5.9434   6.0102   6.0294   6.1044   6.1447
     6.1854   6.2130   6.2259   6.2289   6.2428   6.2434   6.2547   6.2568

          k =-0.2500 0.2500 0.2500 (167588 PWs)   bands (ev):

   -19.8551  -7.6624  -6.7170  -6.1886  -6.1881  -5.7587  -5.3523  -5.2567
    -5.2561  -5.0604  -5.0598  -4.9468  -4.9435  -4.8638  -4.8423  -4.7678
    -4.6830  -4.6792  -4.6410  -4.6401  -4.4822  -4.4625  -4.4617  -4.4610
    -4.4549  -4.3996  -4.3984  -4.3870  -4.3863  -4.3499  -4.3429  -4.3377
    -4.2959  -4.2948  -4.2613  -4.2606  -4.2291  -4.2088  -4.2037  -4.1960
    -4.1908  -4.1778  -4.1776  -4.1461  -4.1182  -4.1181  -4.1139  -4.1108
    -4.0955  -4.0527  -4.0290  -4.0143  -4.0132  -4.0106  -4.0022  -3.9990
    -3.9967  -3.9960  -3.9882  -3.9322  -3.9068  -3.8817  -3.8808  -3.8662
    -3.8426  -3.8376  -3.8232  -3.8200  -3.8193  -3.8134  -3.8116  -3.7633
    -3.7632  -3.7506  -3.7479  -3.6457  -3.6424  -3.6395  -3.6342  -3.6012
    -3.5879  -3.5788  -3.5485  -3.5480  -3.5197  -3.5184  -3.4983  -3.4976
    -3.4845  -3.4819  -3.4291  -3.4280  -3.4087  -3.3954  -3.3834  -3.3820
    -3.3816  -3.3809  -3.3540  -3.3535  -3.3169  -3.3162  -3.2950  -3.2918
    -3.2620  -3.2582  -3.2433  -3.2155  -3.2144  -3.1781  -3.1778  -3.1421
    -3.1348  -3.1339  -3.1207  -3.1177  -3.1150  -3.1145  -3.0750  -3.0668
    -3.0259  -3.0257  -3.0174  -3.0080  -3.0072  -3.0066  -2.9818  -2.9815
    -2.9608  -2.9601  -2.9594  -2.9328  -2.9328  -2.9252  -2.9225  -2.9205
    -2.8861  -2.8821  -2.8471  -2.8468  -2.8459  -2.8428  -2.8416  -2.7631
    -2.7533  -2.7495  -2.7485  -2.7478  -2.7472  -2.7426  -2.7424  -2.7420
    -2.7417  -2.7320  -2.7243  -2.7079  -2.7051  -2.7045  -2.7017  -2.6896
    -2.6837  -2.6468  -2.6459  -2.6458  -2.6422  -2.6405  -2.6232  -2.6225
    -2.6142  -2.6125  -2.6114  -2.5527  -2.5516  -2.5468  -2.5462  -2.5427
    -2.5393  -2.5128  -2.4545  -2.4535  -2.4533  -2.4508  -2.4394  -2.4368
    -2.4340  -2.4217  -2.4216  -2.3860  -2.3839  -2.3766  -2.3763  -2.3752
    -2.3737  -2.3358  -2.3353  -2.3264  -2.3251  -2.3243  -2.3235  -2.2805
    -2.2694  -2.2585  -2.2066  -2.2062  -2.1930  -2.1875  -2.1818  -2.1793
    -2.1339  -2.1295  -2.1085  -2.0917  -2.0784  -2.0779  -2.0765  -2.0558
    -2.0543  -2.0454  -2.0313  -2.0019  -1.9877  -1.9801  -1.9745  -1.9726
    -1.9640  -1.9616  -1.9598  -1.9470  -1.9459  -1.9420  -1.9403  -1.9379
    -1.9370  -1.9259  -1.9241  -1.9235  -1.9060  -1.9053  -1.8983  -1.8948
    -1.8944  -1.8892  -1.8709  -1.8708  -1.8587  -1.8569  -1.8508  -1.8486
    -1.8143  -1.7808  -1.7799  -1.7449  -1.7280  -1.7272  -1.7177  -1.7131
    -1.6941  -1.6878  -1.6795  -1.6773  -1.6769  -1.6751  -1.6700  -1.6656
    -1.6407  -1.6404  -1.6401  -1.5952  -1.5933  -1.5546  -1.5528  -1.5077
    -1.5055  -1.4942  -1.4721  -1.4677  -1.4647  -1.4480  -1.4458  -1.4293
    -1.4289  -1.4250  -1.4243  -1.4235  -1.4216  -1.4179  -1.4152  -1.3989
    -1.3979  -1.3856  -1.3709  -1.3523  -1.3500  -1.3259  -1.3253  -1.3233
    -1.3217  -1.3191  -1.3126  -1.2959  -1.2901  -1.2804  -1.2738  -1.2628
    -1.2562  -1.2428  -1.2417  -1.2120  -1.2108  -1.2036  -1.2006  -1.1672
    -1.1666  -1.1595  -1.1583  -1.1513  -1.1477  -1.1287  -1.1285  -1.1168
    -1.1101  -1.1095  -1.0973  -1.0971  -1.0959  -1.0905  -1.0816  -1.0707
    -1.0686  -1.0624  -1.0621  -1.0505  -1.0462  -1.0419  -1.0393  -0.9995
    -0.9970  -0.9937  -0.9906  -0.9905  -0.9885  -0.9506  -0.9346  -0.9332
    -0.9324  -0.9317  -0.9284  -0.9231  -0.9214  -0.9090  -0.9079  -0.8720
    -0.8701  -0.8640  -0.8636  -0.8414  -0.8408  -0.8312  -0.8017  -0.7939
    -0.7670  -0.7661  -0.7384  -0.7380  -0.7347  -0.7345  -0.7338  -0.7292
    -0.7246  -0.7240  -0.7198  -0.7190  -0.6877  -0.6868  -0.6711  -0.6674
    -0.6643  -0.6636  -0.6609  -0.6536  -0.6431  -0.3665  -0.3581  -0.3044
    -0.2923  -0.2613  -0.0995  -0.0363  -0.0347  -0.0003   0.2825   0.2863
     0.6095   0.6199   0.7120   0.7136   0.7517   0.7573   0.8964   0.9010
     1.0213   1.0233   1.1108   1.7088   1.7265   1.7281   1.7666   1.7708
     1.8066   1.8262   1.8950   1.9002   2.1026   2.1054   2.3367   2.4135
     2.4260   2.4365   2.8063   2.8216   2.8895   2.8896   2.8962   2.8990
     3.0479   3.0493   3.0738   3.1900   3.1922   3.4209   3.4273   3.5585
     3.5823   3.5871   3.8538   3.8567   3.9671   3.9859   3.9903   3.9981
     4.0359   4.1739   4.1787   4.4105   4.4128   4.4917   4.4975   4.6021
     4.6265   4.6339   4.6469   4.6660   4.8633   5.3828   5.4077   5.4534
     5.5484   5.5583   5.6004   5.7257   5.7345   5.7386   5.7460   5.8438
     5.8527   5.9057   5.9065   5.9462   5.9925   6.0595   6.0707   6.1899
     6.1964   6.2189   6.2226   6.2284   6.2425   6.2503   6.2566   6.2589

     the Fermi energy is     0.9725 ev

!    total energy              =   -7425.29383208 Ry
     Harris-Foulkes estimate   =   -7425.29383209 Ry
     estimated scf accuracy    <          2.5E-09 Ry

     The total energy is the sum of the following terms:

     one-electron contribution =  -48796.65805055 Ry
     hartree contribution      =   24952.13290420 Ry
     xc contribution           =   -3604.22007819 Ry
     ewald contribution        =   20023.45428149 Ry
     smearing contrib. (-TS)   =      -0.00288903 Ry

     convergence has been achieved in  26 iterations

     Writing output data file 7530847.save

     init_run     :    129.65s CPU    137.94s WALL (       1 calls)
     electrons    :   7566.85s CPU   8018.42s WALL (       1 calls)

     Called by init_run:
     wfcinit      :     92.24s CPU     99.39s WALL (       1 calls)
     potinit      :      7.82s CPU      8.40s WALL (       1 calls)

     Called by electrons:
     c_bands      :   5753.22s CPU   6115.03s WALL (      27 calls)
     sum_band     :   1133.66s CPU   1203.74s WALL (      27 calls)
     v_of_rho     :    143.76s CPU    156.27s WALL (      27 calls)
     newd         :    553.51s CPU    559.41s WALL (      27 calls)
     mix_rho      :      3.94s CPU      4.42s WALL (      27 calls)
     vdW_energy   :      9.33s CPU     10.14s WALL (      27 calls)
     vdW_ffts     :     77.34s CPU     83.70s WALL (      54 calls)
     vdW_v        :     17.49s CPU     18.62s WALL (      27 calls)

     Called by c_bands:
     init_us_2    :     13.05s CPU     13.35s WALL (     330 calls)
     cegterg      :   5690.72s CPU   6050.97s WALL (     162 calls)

     Called by *egterg:
     h_psi        :   2465.47s CPU   2795.05s WALL (     901 calls)
     s_psi        :    360.86s CPU    362.67s WALL (     901 calls)
     g_psi        :      4.54s CPU      4.57s WALL (     733 calls)
     cdiaghg      :   1679.45s CPU   1684.99s WALL (     889 calls)

     Called by h_psi:
     add_vuspsi   :    363.27s CPU    365.13s WALL (     901 calls)

     General routines
     calbec       :    549.24s CPU    551.56s WALL (    1063 calls)
     fft          :    352.09s CPU    364.30s WALL (    1782 calls)
     ffts         :      2.25s CPU      2.54s WALL (      54 calls)
     fftw         :   1848.15s CPU   2192.54s WALL (  444952 calls)
     interpolate  :      6.12s CPU      6.89s WALL (      54 calls)
     davcio       :      0.00s CPU      0.12s WALL (       6 calls)

     Parallel routines
     fft_scatter  :   1588.31s CPU   1880.55s WALL (  446788 calls)

     PWSCF        :     2h 8m CPU        2h16m WALL


   This run was terminated on:  14:54:20  24Aug2015            

=------------------------------------------------------------------------------=
   JOB DONE.
=------------------------------------------------------------------------------=
