
     Program PWSCF v.5.1.2 starts on 24Aug2015 at 11:37:28 

     This program is part of the open-source Quantum ESPRESSO suite
     for quantum simulation of materials; please cite
         "P. Giannozzi et al., J. Phys.:Condens. Matter 21 395502 (2009);
          URL http://www.quantum-espresso.org", 
     in publications or presentations arising from this work. More details at
     http://www.quantum-espresso.org/quote

     Parallel version (MPI), running on    32 processors
     R & G space division:  proc/nbgrp/npool/nimage =      32
     Reading input from hollow.O1.Au5859.d.2.7.phi.0.psi.90.in
Warning: card &IONS ignored
Warning: card / ignored
Warning: card &CELL ignored
Warning: card / ignored

     Current dimensions of program PWSCF are:
     Max number of different atomic species (ntypx) = 10
     Max number of k-points (npk) =  40000
     Max angular momentum in pseudopotentials (lmaxx) =  3

     IMPORTANT: XC functional enforced from input :
     Exchange-correlation      = VDW-DF ( 1  4  4  0 1 0)
     Any further DFT definition will be discarded
     Please, verify this is what you really want


     Subspace diagonalization in iterative solution of the eigenvalue problem:
     a serial algorithm will be used


     Parallelization info
     --------------------
     sticks:   dense  smooth     PW     G-vecs:    dense   smooth      PW
     Min         578     289     74               118518    41891    5486
     Max         579     290     75               118533    41932    5497
     Sum       18505    9265   2385              3792731  1341081  175711


     Title: 
     hollow.O1.Au5859.d.2.7.phi.0.psi.90                                        


     bravais-lattice index     =            8
     lattice parameter (alat)  =      24.1233  a.u.
     unit-cell volume          =   28076.2361 (a.u.)^3
     number of atoms/cell      =           75
     number of atomic types    =            3
     number of electrons       =       800.00
     number of Kohn-Sham states=          480
     kinetic-energy cutoff     =      50.0000  Ry
     charge density cutoff     =     400.0000  Ry
     convergence threshold     =      1.0E-08
     mixing beta               =       0.7000
     number of iterations used =            8  plain     mixing
     Exchange-correlation      = VDW-DF ( 1  4  4  0 1 0)

     celldm(1)=  24.123277  celldm(2)=   1.000000  celldm(3)=   2.000000
     celldm(4)=   0.000000  celldm(5)=   0.000000  celldm(6)=   0.000000

     crystal axes: (cart. coord. in units of alat)
               a(1) = (   1.000000   0.000000   0.000000 )  
               a(2) = (   0.000000   1.000000   0.000000 )  
               a(3) = (   0.000000   0.000000   2.000000 )  

     reciprocal axes: (cart. coord. in units 2 pi/alat)
               b(1) = (  1.000000  0.000000  0.000000 )  
               b(2) = (  0.000000  1.000000  0.000000 )  
               b(3) = (  0.000000  0.000000  0.500000 )  


     PseudoPot. # 1 for Au read from file:
     /home/scc/andrejb/qe/pseudo/Au.pbe-nd-van.UPF
     MD5 check sum: 458681b50f36d87ef23c61b04bba420a
     Pseudo is Ultrasoft + core correction, Zval = 11.0
     Generated by new atomic code, or converted to UPF format
     Using radial grid of  985 points,  3 beta functions with: 
                l(1) =   1
                l(2) =   2
                l(3) =   2
     Q(r) pseudized with  8 coefficients,  rinner =    1.100   1.100   1.100
                                                       1.100   1.100

     PseudoPot. # 2 for H  read from file:
     /home/scc/andrejb/qe/pseudo/H.pbe-van_ak.UPF
     MD5 check sum: 403db7282739603aa925980fa9b8608d
     Pseudo is Ultrasoft, Zval =  1.0
     Generated by new atomic code, or converted to UPF format
     Using radial grid of  615 points,  1 beta functions with: 
                l(1) =   0
     Q(r) pseudized with  8 coefficients,  rinner =    0.800

     PseudoPot. # 3 for O  read from file:
     /home/scc/andrejb/qe/pseudo/O.pbe-van_ak.UPF
     MD5 check sum: 4b8c549914a63cae506c6ff22b5af4fe
     Pseudo is Ultrasoft, Zval =  6.0
     Generated by new atomic code, or converted to UPF format
     Using radial grid of  737 points,  4 beta functions with: 
                l(1) =   0
                l(2) =   0
                l(3) =   1
                l(4) =   1
     Q(r) pseudized with  8 coefficients,  rinner =    0.800   0.800   0.800


     vdW kernel table read from file vdW_kernel_table
     MD5 check sum: 48e77a2e26edf626eeb0eaa751ad5cac

     atomic species   valence    mass     pseudopotential
        Au            11.00   196.96657     Au( 1.00)
        H              1.00     1.01000     H ( 1.00)
        O              6.00    16.00000     O ( 1.00)

     No symmetry found



   Cartesian axes

     site n.     atom                  positions (alat units)
         1           O   tau(   1) = (   0.1666051   0.1666105   0.7108218  )
         2           H   tau(   2) = (   0.1195275   0.1211166   0.6716503  )
         3           H   tau(   3) = (   0.2122554   0.1187528   0.7488235  )
         4           Au  tau(   4) = (   0.0000000   0.0000000   0.0000000  )
         5           Au  tau(   5) = (   0.3332217   0.0000000   0.0000000  )
         6           Au  tau(   6) = (   0.6664434   0.0000000   0.0000000  )
         7           Au  tau(   7) = (   0.1666109   0.1666109   0.0000000  )
         8           Au  tau(   8) = (   0.4998326   0.1666109   0.0000000  )
         9           Au  tau(   9) = (   0.8330542   0.1666109   0.0000000  )
        10           Au  tau(  10) = (   0.0000000   0.3332217   0.0000000  )
        11           Au  tau(  11) = (   0.3332217   0.3332217   0.0000000  )
        12           Au  tau(  12) = (   0.6664434   0.3332217   0.0000000  )
        13           Au  tau(  13) = (   0.1666109   0.4998326   0.0000000  )
        14           Au  tau(  14) = (   0.4998326   0.4998326   0.0000000  )
        15           Au  tau(  15) = (   0.8330542   0.4998326   0.0000000  )
        16           Au  tau(  16) = (   0.0000000   0.6664434   0.0000000  )
        17           Au  tau(  17) = (   0.3332217   0.6664434   0.0000000  )
        18           Au  tau(  18) = (   0.6664434   0.6664434   0.0000000  )
        19           Au  tau(  19) = (   0.1666109   0.8330542   0.0000000  )
        20           Au  tau(  20) = (   0.4998326   0.8330542   0.0000000  )
        21           Au  tau(  21) = (   0.8330542   0.8330542   0.0000000  )
        22           Au  tau(  22) = (   0.1666109   0.0000000   0.1666109  )
        23           Au  tau(  23) = (   0.4998326   0.0000000   0.1666109  )
        24           Au  tau(  24) = (   0.8330542   0.0000000   0.1666109  )
        25           Au  tau(  25) = (   0.0000000   0.1666109   0.1666109  )
        26           Au  tau(  26) = (   0.3332217   0.1666109   0.1666109  )
        27           Au  tau(  27) = (   0.6664434   0.1666109   0.1666109  )
        28           Au  tau(  28) = (   0.1666109   0.3332217   0.1666109  )
        29           Au  tau(  29) = (   0.4998326   0.3332217   0.1666109  )
        30           Au  tau(  30) = (   0.8330542   0.3332217   0.1666109  )
        31           Au  tau(  31) = (   0.0000000   0.4998326   0.1666109  )
        32           Au  tau(  32) = (   0.3332217   0.4998326   0.1666109  )
        33           Au  tau(  33) = (   0.6664434   0.4998326   0.1666109  )
        34           Au  tau(  34) = (   0.1666109   0.6664434   0.1666109  )
        35           Au  tau(  35) = (   0.4998326   0.6664434   0.1666109  )
        36           Au  tau(  36) = (   0.8330542   0.6664434   0.1666109  )
        37           Au  tau(  37) = (   0.0000000   0.8330542   0.1666109  )
        38           Au  tau(  38) = (   0.3332217   0.8330542   0.1666109  )
        39           Au  tau(  39) = (   0.6664434   0.8330542   0.1666109  )
        40           Au  tau(  40) = (  -0.0000182  -0.0000182   0.3335478  )
        41           Au  tau(  41) = (   0.3332215  -0.0000181   0.3335473  )
        42           Au  tau(  42) = (   0.6664447  -0.0000183   0.3335481  )
        43           Au  tau(  43) = (  -0.0000181   0.3332215   0.3335473  )
        44           Au  tau(  44) = (   0.3332215   0.3332215   0.3335468  )
        45           Au  tau(  45) = (   0.6664445   0.3332215   0.3335477  )
        46           Au  tau(  46) = (  -0.0000183   0.6664447   0.3335481  )
        47           Au  tau(  47) = (   0.3332215   0.6664445   0.3335477  )
        48           Au  tau(  48) = (   0.6664446   0.6664446   0.3335486  )
        49           Au  tau(  49) = (   0.1666097   0.1666097   0.3335483  )
        50           Au  tau(  50) = (   0.4998320   0.1666098   0.3335477  )
        51           Au  tau(  51) = (   0.8330732   0.1666096   0.3335480  )
        52           Au  tau(  52) = (   0.1666098   0.4998320   0.3335477  )
        53           Au  tau(  53) = (   0.4998322   0.4998322   0.3335470  )
        54           Au  tau(  54) = (   0.8330731   0.4998322   0.3335474  )
        55           Au  tau(  55) = (   0.1666096   0.8330732   0.3335480  )
        56           Au  tau(  56) = (   0.4998322   0.8330731   0.3335474  )
        57           Au  tau(  57) = (   0.8330731   0.8330731   0.3335478  )
        58           Au  tau(  58) = (   0.1666104  -0.0000111   0.4993095  )
        59           Au  tau(  59) = (   0.4998323  -0.0000112   0.4993099  )
        60           Au  tau(  60) = (   0.8330660  -0.0000111   0.4993009  )
        61           Au  tau(  61) = (  -0.0000111   0.1666104   0.4993095  )
        62           Au  tau(  62) = (   0.3332213   0.1666106   0.4993185  )
        63           Au  tau(  63) = (   0.6664437   0.1666106   0.4993187  )
        64           Au  tau(  64) = (   0.1666106   0.3332213   0.4993185  )
        65           Au  tau(  65) = (   0.4998324   0.3332216   0.4993185  )
        66           Au  tau(  66) = (   0.8330658   0.3332215   0.4993102  )
        67           Au  tau(  67) = (  -0.0000112   0.4998323   0.4993099  )
        68           Au  tau(  68) = (   0.3332216   0.4998324   0.4993185  )
        69           Au  tau(  69) = (   0.6664437   0.4998325   0.4993187  )
        70           Au  tau(  70) = (   0.1666106   0.6664437   0.4993187  )
        71           Au  tau(  71) = (   0.4998325   0.6664437   0.4993187  )
        72           Au  tau(  72) = (   0.8330658   0.6664438   0.4993102  )
        73           Au  tau(  73) = (  -0.0000111   0.8330660   0.4993009  )
        74           Au  tau(  74) = (   0.3332215   0.8330658   0.4993102  )
        75           Au  tau(  75) = (   0.6664438   0.8330658   0.4993102  )

     number of k points=     6  Marzari-Vanderbilt smearing, width (Ry)=  0.0200
                       cart. coord. in units 2pi/alat
        k(    1) = (   0.2500000   0.2500000   0.0833333), wk =   0.3333333
        k(    2) = (   0.2500000   0.2500000  -0.2500000), wk =   0.3333333
        k(    3) = (  -0.2500000  -0.2500000   0.0833333), wk =   0.3333333
        k(    4) = (  -0.2500000   0.2500000  -0.0833333), wk =   0.3333333
        k(    5) = (   0.2500000  -0.2500000  -0.0833333), wk =   0.3333333
        k(    6) = (  -0.2500000   0.2500000   0.2500000), wk =   0.3333333

     Dense  grid:  3792731 G-vectors     FFT dimensions: ( 160, 160, 320)

     Smooth grid:  1341081 G-vectors     FFT dimensions: ( 120, 120, 225)

     Largest allocated arrays     est. size (Mb)     dimensions
        Kohn-Sham Wavefunctions        38.58 Mb     (    5267,  480)
        NL pseudopotentials            76.03 Mb     (    5267,  946)
        Each V/rho on FFT grid          3.91 Mb     (  256000)
        Each G-vector array             0.90 Mb     (  118520)
        G-vector shells                 0.08 Mb     (   10286)
     Largest temporary arrays     est. size (Mb)     dimensions
        Auxiliary wavefunctions       154.31 Mb     (    5267, 1920)
        Each subspace H/S matrix       56.25 Mb     (    1920, 1920)
        Each <psi_i|beta_j> matrix      6.93 Mb     (     946,  480)
        Arrays for rho mixing          31.25 Mb     (  256000,    8)

     Initial potential from superposition of free atoms
     Check: negative starting charge=   -1.945170

     starting charge  799.16392, renormalised to  800.00000

     negative rho (up, down):  1.947E+00 0.000E+00


     ************************************************************************
     *
     * You are using vdW-DF for exchange-correlation in this calculation.
     * Please cite the following three references that made this development
     * possible:
     *
     *   M. Dion, H. Rydberg, E. Schroder, D. C. Langreth, and
     *   B. I. Lundqvist, Phys. Rev. Lett. 92, 246401 (2004).
     *
     *   T. Thonhauser, V. R. Cooper, S. Li, A. Puzder, P. Hyldgaard, and
     *   D. C. Langreth, Phys. Rev. B 76, 125112 (2007).
     *
     *   G. Roman-Perez and J. M. Soler, Phys. Rev. Lett. 103, 096102 (2009).
     *
     *
     * If you are using vdW-DF2, please also cite:
     *
     *   K. Lee, E. D. Murray, L. Kong, B. I. Lundqvist, and
     *   D. C. Langreth, Phys. Rev. B 82, 081101(R) (2010).
     *
     *
     * If you are calculating the stress with vdW-DF, please also cite:
     *
     *   R. Sabatini, E. Kucukbenli, B. Kolb, T. Thonhauser, and
     *   S. de Gironcoli, J. Phys.: Condens. Matter 24, 424209 (2012).
     *
     ************************************************************************

     Carrying out vdW-DF run using the following parameters:

     Nqs =      20    Nr_points =    1024   r_max =   100.000
     q_mesh =
               0.00001000     0.04494208     0.09755937     0.15916263
               0.23128650     0.31572767     0.41458969     0.53033537
               0.66584808     0.82450364     1.01025438     1.22772762
               1.48234092     1.78043706     2.12944203     2.53805004
               3.01644009     3.57652955     4.23227104     5.00000000

     Gradients computed in reciprocal space

     ************************************************************************


     Starting wfc are  654 randomized atomic wfcs

     total cpu time spent up to now is      122.4 secs

     Self-consistent Calculation

     iteration #  1     ecut=    50.00 Ry     beta=0.70
     Davidson diagonalization with overlap
     ethr =  1.00E-02,  avg # of iterations =  3.0

     Threshold (ethr) on eigenvalues was too large:
     Diagonalizing with lowered threshold

     Davidson diagonalization with overlap
     ethr =  4.21E-04,  avg # of iterations =  2.0

     negative rho (up, down):  1.947E+00 0.000E+00

     total cpu time spent up to now is      545.4 secs

     total energy              =   -7423.03883349 Ry
     Harris-Foulkes estimate   =   -7426.06793400 Ry
     estimated scf accuracy    <       3.74323382 Ry

     iteration #  2     ecut=    50.00 Ry     beta=0.70
     Davidson diagonalization with overlap
     ethr =  4.68E-04,  avg # of iterations = 11.5

     negative rho (up, down):  1.942E+00 0.000E+00

     total cpu time spent up to now is     1279.4 secs

     total energy              =   -7415.17039888 Ry
     Harris-Foulkes estimate   =   -7432.61336596 Ry
     estimated scf accuracy    <      90.86504845 Ry

     iteration #  3     ecut=    50.00 Ry     beta=0.70
     Davidson diagonalization with overlap
     ethr =  4.68E-04,  avg # of iterations =  6.0

     negative rho (up, down):  1.953E+00 0.000E+00

     total cpu time spent up to now is     1740.4 secs

     total energy              =   -7424.23480231 Ry
     Harris-Foulkes estimate   =   -7425.86763426 Ry
     estimated scf accuracy    <       6.55345315 Ry

     iteration #  4     ecut=    50.00 Ry     beta=0.70
     Davidson diagonalization with overlap
     ethr =  4.68E-04,  avg # of iterations =  5.8

     negative rho (up, down):  1.956E+00 0.000E+00

     total cpu time spent up to now is     2006.9 secs

     total energy              =   -7424.80474006 Ry
     Harris-Foulkes estimate   =   -7425.69793221 Ry
     estimated scf accuracy    <       5.55234339 Ry

     iteration #  5     ecut=    50.00 Ry     beta=0.70
     Davidson diagonalization with overlap
     ethr =  4.68E-04,  avg # of iterations =  6.0

     negative rho (up, down):  1.963E+00 0.000E+00

     total cpu time spent up to now is     2272.5 secs

     total energy              =   -7425.14772591 Ry
     Harris-Foulkes estimate   =   -7425.50384860 Ry
     estimated scf accuracy    <       2.45175087 Ry

     iteration #  6     ecut=    50.00 Ry     beta=0.70
     Davidson diagonalization with overlap
     ethr =  3.06E-04,  avg # of iterations =  3.0

     negative rho (up, down):  1.967E+00 0.000E+00

     total cpu time spent up to now is     2490.4 secs

     total energy              =   -7425.27189493 Ry
     Harris-Foulkes estimate   =   -7425.32905793 Ry
     estimated scf accuracy    <       0.20220538 Ry

     iteration #  7     ecut=    50.00 Ry     beta=0.70
     Davidson diagonalization with overlap
     ethr =  2.53E-05,  avg # of iterations =  5.2

     negative rho (up, down):  1.970E+00 0.000E+00

     total cpu time spent up to now is     2767.3 secs

     total energy              =   -7425.27940554 Ry
     Harris-Foulkes estimate   =   -7425.32124212 Ry
     estimated scf accuracy    <       0.21005852 Ry

     iteration #  8     ecut=    50.00 Ry     beta=0.70
     Davidson diagonalization with overlap
     ethr =  2.53E-05,  avg # of iterations =  4.8

     negative rho (up, down):  1.971E+00 0.000E+00

     total cpu time spent up to now is     3014.3 secs

     total energy              =   -7425.28660882 Ry
     Harris-Foulkes estimate   =   -7425.30558991 Ry
     estimated scf accuracy    <       0.07516842 Ry

     iteration #  9     ecut=    50.00 Ry     beta=0.70
     Davidson diagonalization with overlap
     ethr =  9.40E-06,  avg # of iterations = 12.5

     negative rho (up, down):  1.972E+00 0.000E+00

     total cpu time spent up to now is     3371.5 secs

     total energy              =   -7425.28927413 Ry
     Harris-Foulkes estimate   =   -7425.29780989 Ry
     estimated scf accuracy    <       0.02707438 Ry

     iteration # 10     ecut=    50.00 Ry     beta=0.70
     Davidson diagonalization with overlap
     ethr =  3.38E-06,  avg # of iterations =  7.0

     negative rho (up, down):  1.973E+00 0.000E+00

     total cpu time spent up to now is     3652.9 secs

     total energy              =   -7425.29108876 Ry
     Harris-Foulkes estimate   =   -7425.29360517 Ry
     estimated scf accuracy    <       0.00690677 Ry

     iteration # 11     ecut=    50.00 Ry     beta=0.70
     Davidson diagonalization with overlap
     ethr =  8.63E-07,  avg # of iterations =  6.8

     negative rho (up, down):  1.973E+00 0.000E+00

     total cpu time spent up to now is     3932.2 secs

     total energy              =   -7425.29168879 Ry
     Harris-Foulkes estimate   =   -7425.29266774 Ry
     estimated scf accuracy    <       0.00304485 Ry

     iteration # 12     ecut=    50.00 Ry     beta=0.70
     Davidson diagonalization with overlap
     ethr =  3.81E-07,  avg # of iterations =  2.2

     negative rho (up, down):  1.974E+00 0.000E+00

     total cpu time spent up to now is     4153.3 secs

     total energy              =   -7425.29138753 Ry
     Harris-Foulkes estimate   =   -7425.29248560 Ry
     estimated scf accuracy    <       0.00348260 Ry

     iteration # 13     ecut=    50.00 Ry     beta=0.70
     Davidson diagonalization with overlap
     ethr =  3.81E-07,  avg # of iterations =  5.8

     negative rho (up, down):  1.974E+00 0.000E+00

     total cpu time spent up to now is     4475.8 secs

     total energy              =   -7425.29075662 Ry
     Harris-Foulkes estimate   =   -7425.29352714 Ry
     estimated scf accuracy    <       0.01447565 Ry

     iteration # 14     ecut=    50.00 Ry     beta=0.70
     Davidson diagonalization with overlap
     ethr =  3.81E-07,  avg # of iterations =  3.0

     negative rho (up, down):  1.974E+00 0.000E+00

     total cpu time spent up to now is     4743.4 secs

     total energy              =   -7425.29206382 Ry
     Harris-Foulkes estimate   =   -7425.29210897 Ry
     estimated scf accuracy    <       0.00012234 Ry

     iteration # 15     ecut=    50.00 Ry     beta=0.70
     Davidson diagonalization with overlap
     ethr =  1.53E-08,  avg # of iterations =  2.0

     negative rho (up, down):  1.974E+00 0.000E+00

     total cpu time spent up to now is     5010.5 secs

     total energy              =   -7425.29204871 Ry
     Harris-Foulkes estimate   =   -7425.29214153 Ry
     estimated scf accuracy    <       0.00067128 Ry

     iteration # 16     ecut=    50.00 Ry     beta=0.70
     Davidson diagonalization with overlap
     ethr =  1.53E-08,  avg # of iterations =  2.0

     negative rho (up, down):  1.974E+00 0.000E+00

     total cpu time spent up to now is     5231.1 secs

     total energy              =   -7425.29208765 Ry
     Harris-Foulkes estimate   =   -7425.29211357 Ry
     estimated scf accuracy    <       0.00013159 Ry

     iteration # 17     ecut=    50.00 Ry     beta=0.70
     Davidson diagonalization with overlap
     ethr =  1.53E-08,  avg # of iterations =  2.0

     negative rho (up, down):  1.974E+00 0.000E+00

     total cpu time spent up to now is     5444.7 secs

     total energy              =   -7425.29209926 Ry
     Harris-Foulkes estimate   =   -7425.29210342 Ry
     estimated scf accuracy    <       0.00001520 Ry

     iteration # 18     ecut=    50.00 Ry     beta=0.70
     Davidson diagonalization with overlap
     ethr =  1.90E-09,  avg # of iterations =  2.0

     negative rho (up, down):  1.974E+00 0.000E+00

     total cpu time spent up to now is     5680.1 secs

     total energy              =   -7425.29210099 Ry
     Harris-Foulkes estimate   =   -7425.29210202 Ry
     estimated scf accuracy    <       0.00000267 Ry

     iteration # 19     ecut=    50.00 Ry     beta=0.70
     Davidson diagonalization with overlap
     ethr =  3.34E-10,  avg # of iterations =  3.0

     negative rho (up, down):  1.974E+00 0.000E+00

     total cpu time spent up to now is     5930.2 secs

     total energy              =   -7425.29210105 Ry
     Harris-Foulkes estimate   =   -7425.29210218 Ry
     estimated scf accuracy    <       0.00000569 Ry

     iteration # 20     ecut=    50.00 Ry     beta=0.70
     Davidson diagonalization with overlap
     ethr =  3.34E-10,  avg # of iterations =  3.0

     negative rho (up, down):  1.974E+00 0.000E+00

     total cpu time spent up to now is     6163.2 secs

     total energy              =   -7425.29210153 Ry
     Harris-Foulkes estimate   =   -7425.29210178 Ry
     estimated scf accuracy    <       0.00000086 Ry

     iteration # 21     ecut=    50.00 Ry     beta=0.70
     Davidson diagonalization with overlap
     ethr =  1.08E-10,  avg # of iterations =  2.0

     negative rho (up, down):  1.974E+00 0.000E+00

     total cpu time spent up to now is     6391.2 secs

     total energy              =   -7425.29210159 Ry
     Harris-Foulkes estimate   =   -7425.29210175 Ry
     estimated scf accuracy    <       0.00000055 Ry

     iteration # 22     ecut=    50.00 Ry     beta=0.70
     Davidson diagonalization with overlap
     ethr =  6.91E-11,  avg # of iterations =  2.0

     negative rho (up, down):  1.974E+00 0.000E+00

     total cpu time spent up to now is     6607.6 secs

     total energy              =   -7425.29210165 Ry
     Harris-Foulkes estimate   =   -7425.29210170 Ry
     estimated scf accuracy    <       0.00000024 Ry

     iteration # 23     ecut=    50.00 Ry     beta=0.70
     Davidson diagonalization with overlap
     ethr =  2.97E-11,  avg # of iterations =  2.0

     negative rho (up, down):  1.974E+00 0.000E+00

     total cpu time spent up to now is     6829.7 secs

     total energy              =   -7425.29210166 Ry
     Harris-Foulkes estimate   =   -7425.29210168 Ry
     estimated scf accuracy    <       0.00000009 Ry

     iteration # 24     ecut=    50.00 Ry     beta=0.70
     Davidson diagonalization with overlap
     ethr =  1.09E-11,  avg # of iterations =  2.7

     negative rho (up, down):  1.974E+00 0.000E+00

     total cpu time spent up to now is     7072.0 secs

     total energy              =   -7425.29210166 Ry
     Harris-Foulkes estimate   =   -7425.29210169 Ry
     estimated scf accuracy    <       0.00000011 Ry

     iteration # 25     ecut=    50.00 Ry     beta=0.70
     Davidson diagonalization with overlap
     ethr =  1.09E-11,  avg # of iterations =  2.0

     negative rho (up, down):  1.974E+00 0.000E+00

     total cpu time spent up to now is     7290.6 secs

     End of self-consistent calculation

          k = 0.2500 0.2500 0.0833 (167653 PWs)   bands (ev):

   -19.5683  -7.4282  -6.8209  -6.2934  -6.2924  -5.8635  -5.4550  -5.3616
    -5.3610  -5.1654  -5.1652  -5.0489  -5.0470  -4.9688  -4.9466  -4.8732
    -4.7881  -4.7841  -4.7461  -4.7452  -4.5851  -4.5678  -4.5666  -4.5662
    -4.5593  -4.5040  -4.5038  -4.4923  -4.4918  -4.4547  -4.4439  -4.4422
    -4.4002  -4.3999  -4.3666  -4.3655  -4.3143  -4.3132  -4.3038  -4.3012
    -4.2958  -4.2830  -4.2827  -4.2433  -4.2236  -4.2234  -4.2163  -4.2159
    -4.1857  -4.1387  -4.1192  -4.1190  -4.1186  -4.1150  -4.1076  -4.1020
    -4.1015  -4.1011  -4.0382  -4.0364  -3.9911  -3.9863  -3.9755  -3.9488
    -3.9476  -3.9311  -3.9252  -3.9249  -3.9210  -3.9180  -3.8698  -3.8684
    -3.8562  -3.8554  -3.7620  -3.7504  -3.7468  -3.7441  -3.7087  -3.7023
    -3.6840  -3.6802  -3.6537  -3.6492  -3.6243  -3.6219  -3.6032  -3.6022
    -3.5905  -3.5891  -3.5340  -3.5336  -3.5149  -3.4994  -3.4883  -3.4872
    -3.4863  -3.4827  -3.4590  -3.4580  -3.4225  -3.4214  -3.4013  -3.3995
    -3.3677  -3.3663  -3.3493  -3.3209  -3.3205  -3.2841  -3.2832  -3.2478
    -3.2396  -3.2392  -3.2261  -3.2251  -3.2200  -3.2196  -3.1841  -3.1711
    -3.1313  -3.1308  -3.1225  -3.1138  -3.1126  -3.1111  -3.0878  -3.0872
    -3.0664  -3.0658  -3.0651  -3.0383  -3.0380  -3.0305  -3.0284  -3.0272
    -2.9915  -2.9883  -2.9527  -2.9517  -2.9510  -2.9487  -2.9478  -2.8682
    -2.8586  -2.8553  -2.8540  -2.8535  -2.8526  -2.8492  -2.8480  -2.8470
    -2.8465  -2.8373  -2.8293  -2.8144  -2.8116  -2.8100  -2.8088  -2.7946
    -2.7913  -2.7527  -2.7514  -2.7511  -2.7475  -2.7460  -2.7283  -2.7281
    -2.7208  -2.7198  -2.7164  -2.6599  -2.6578  -2.6527  -2.6519  -2.6492
    -2.6473  -2.6204  -2.5598  -2.5594  -2.5587  -2.5557  -2.5450  -2.5446
    -2.5392  -2.5281  -2.5274  -2.4947  -2.4902  -2.4835  -2.4820  -2.4810
    -2.4803  -2.4424  -2.4413  -2.4314  -2.4304  -2.4291  -2.4287  -2.3892
    -2.3716  -2.3689  -2.3120  -2.3115  -2.2967  -2.2928  -2.2895  -2.2865
    -2.2426  -2.2369  -2.2143  -2.2039  -2.1865  -2.1847  -2.1816  -2.1621
    -2.1605  -2.1509  -2.1365  -2.0987  -2.0955  -2.0881  -2.0786  -2.0779
    -2.0719  -2.0675  -2.0574  -2.0537  -2.0506  -2.0476  -2.0449  -2.0420
    -2.0417  -2.0332  -2.0309  -2.0169  -2.0116  -2.0096  -2.0053  -2.0008
    -2.0001  -1.9793  -1.9776  -1.9678  -1.9641  -1.9623  -1.9574  -1.9208
    -1.8887  -1.8869  -1.8681  -1.8505  -1.8335  -1.8323  -1.8223  -1.8123
    -1.7987  -1.7941  -1.7844  -1.7839  -1.7818  -1.7812  -1.7788  -1.7477
    -1.7463  -1.7454  -1.7070  -1.7002  -1.6847  -1.6615  -1.6462  -1.6128
    -1.6059  -1.5954  -1.5778  -1.5743  -1.5693  -1.5538  -1.5488  -1.5353
    -1.5337  -1.5299  -1.5295  -1.5280  -1.5275  -1.5252  -1.5160  -1.5051
    -1.5002  -1.4813  -1.4764  -1.4586  -1.4561  -1.4320  -1.4313  -1.4280
    -1.4269  -1.4232  -1.4144  -1.4010  -1.3941  -1.3841  -1.3756  -1.3624
    -1.3519  -1.3487  -1.3406  -1.3181  -1.3167  -1.3091  -1.2978  -1.2732
    -1.2686  -1.2642  -1.2627  -1.2560  -1.2499  -1.2345  -1.2332  -1.2230
    -1.2160  -1.2146  -1.2030  -1.2018  -1.2007  -1.1933  -1.1875  -1.1762
    -1.1746  -1.1677  -1.1669  -1.1551  -1.1514  -1.1452  -1.1386  -1.1055
    -1.1037  -1.0982  -1.0956  -1.0947  -1.0922  -1.0568  -1.0390  -1.0383
    -1.0376  -1.0372  -1.0330  -1.0284  -1.0204  -1.0134  -1.0100  -0.9774
    -0.9756  -0.9694  -0.9681  -0.9467  -0.9461  -0.9367  -0.9079  -0.8992
    -0.8732  -0.8714  -0.8438  -0.8434  -0.8407  -0.8401  -0.8380  -0.8336
    -0.8295  -0.8272  -0.8247  -0.8237  -0.7929  -0.7925  -0.7746  -0.7710
    -0.7703  -0.7687  -0.7659  -0.7525  -0.7485  -0.4746  -0.4618  -0.4057
    -0.3948  -0.3663  -0.2037  -0.1411  -0.1402  -0.1025   0.1777   0.1804
     0.5075   0.5139   0.6068   0.6075   0.6480   0.6509   0.7925   0.7970
     0.9154   0.9184   1.0090   1.6027   1.6207   1.6216   1.6601   1.6665
     1.7096   1.7186   1.7899   1.7942   1.9974   1.9989   2.2335   2.3116
     2.3171   2.3306   2.7073   2.7156   2.7826   2.7838   2.7918   2.7925
     2.9421   2.9428   2.9875   3.0870   3.0897   3.3175   3.3216   3.4522
     3.4774   3.4801   3.7502   3.7529   3.8554   3.8824   3.8835   3.9382
     3.9669   4.0701   4.0718   4.3042   4.3074   4.3939   4.3974   4.5133
     4.5216   4.5409   4.5498   4.6842   5.0944   5.3415   5.3559   5.4489
     5.4560   5.5278   5.6281   5.6335   5.6547   5.7010   5.7346   5.7462
     5.7524   5.8007   5.8017   5.8441   6.0227   6.0746   6.1058   6.1197
     6.1252   6.1380   6.1413   6.1448   6.1532   6.1597   6.1789   6.2195

          k = 0.2500 0.2500-0.2500 (167588 PWs)   bands (ev):

   -19.5683  -7.4282  -6.8209  -6.2934  -6.2924  -5.8635  -5.4550  -5.3616
    -5.3610  -5.1654  -5.1652  -5.0489  -5.0470  -4.9688  -4.9466  -4.8732
    -4.7881  -4.7841  -4.7461  -4.7452  -4.5851  -4.5678  -4.5666  -4.5662
    -4.5593  -4.5040  -4.5038  -4.4923  -4.4918  -4.4547  -4.4439  -4.4422
    -4.4002  -4.3999  -4.3666  -4.3655  -4.3143  -4.3132  -4.3038  -4.3013
    -4.2958  -4.2830  -4.2827  -4.2433  -4.2236  -4.2234  -4.2163  -4.2159
    -4.1857  -4.1387  -4.1192  -4.1190  -4.1186  -4.1150  -4.1076  -4.1020
    -4.1015  -4.1011  -4.0382  -4.0364  -3.9911  -3.9863  -3.9755  -3.9488
    -3.9476  -3.9311  -3.9252  -3.9249  -3.9209  -3.9180  -3.8698  -3.8684
    -3.8562  -3.8554  -3.7620  -3.7504  -3.7468  -3.7441  -3.7087  -3.7023
    -3.6840  -3.6802  -3.6537  -3.6493  -3.6243  -3.6219  -3.6032  -3.6022
    -3.5904  -3.5891  -3.5340  -3.5336  -3.5149  -3.4994  -3.4883  -3.4871
    -3.4863  -3.4827  -3.4590  -3.4580  -3.4225  -3.4214  -3.4013  -3.3995
    -3.3677  -3.3663  -3.3493  -3.3209  -3.3205  -3.2841  -3.2832  -3.2478
    -3.2396  -3.2392  -3.2261  -3.2251  -3.2200  -3.2196  -3.1841  -3.1711
    -3.1313  -3.1308  -3.1225  -3.1138  -3.1126  -3.1111  -3.0878  -3.0872
    -3.0664  -3.0658  -3.0651  -3.0383  -3.0380  -3.0305  -3.0284  -3.0272
    -2.9915  -2.9883  -2.9527  -2.9517  -2.9510  -2.9487  -2.9478  -2.8682
    -2.8586  -2.8553  -2.8540  -2.8535  -2.8526  -2.8492  -2.8480  -2.8470
    -2.8465  -2.8373  -2.8293  -2.8144  -2.8116  -2.8100  -2.8088  -2.7946
    -2.7912  -2.7527  -2.7513  -2.7511  -2.7474  -2.7460  -2.7283  -2.7281
    -2.7208  -2.7198  -2.7164  -2.6599  -2.6578  -2.6527  -2.6519  -2.6492
    -2.6473  -2.6204  -2.5598  -2.5594  -2.5587  -2.5557  -2.5450  -2.5446
    -2.5392  -2.5281  -2.5273  -2.4946  -2.4902  -2.4835  -2.4820  -2.4810
    -2.4803  -2.4424  -2.4413  -2.4314  -2.4304  -2.4291  -2.4287  -2.3892
    -2.3716  -2.3689  -2.3120  -2.3115  -2.2967  -2.2928  -2.2895  -2.2865
    -2.2426  -2.2369  -2.2143  -2.2039  -2.1865  -2.1847  -2.1816  -2.1621
    -2.1605  -2.1509  -2.1365  -2.0987  -2.0955  -2.0881  -2.0786  -2.0779
    -2.0719  -2.0675  -2.0574  -2.0537  -2.0506  -2.0476  -2.0449  -2.0420
    -2.0417  -2.0331  -2.0309  -2.0169  -2.0116  -2.0096  -2.0053  -2.0008
    -2.0001  -1.9793  -1.9776  -1.9678  -1.9641  -1.9623  -1.9574  -1.9209
    -1.8887  -1.8869  -1.8681  -1.8505  -1.8335  -1.8323  -1.8223  -1.8123
    -1.7986  -1.7941  -1.7844  -1.7839  -1.7818  -1.7812  -1.7788  -1.7477
    -1.7462  -1.7454  -1.7070  -1.7002  -1.6847  -1.6615  -1.6462  -1.6128
    -1.6059  -1.5954  -1.5778  -1.5743  -1.5693  -1.5538  -1.5488  -1.5353
    -1.5337  -1.5299  -1.5295  -1.5280  -1.5275  -1.5252  -1.5160  -1.5051
    -1.5002  -1.4813  -1.4764  -1.4586  -1.4561  -1.4320  -1.4313  -1.4280
    -1.4269  -1.4232  -1.4144  -1.4009  -1.3941  -1.3842  -1.3756  -1.3624
    -1.3519  -1.3487  -1.3406  -1.3181  -1.3167  -1.3091  -1.2978  -1.2732
    -1.2686  -1.2642  -1.2627  -1.2560  -1.2499  -1.2345  -1.2332  -1.2230
    -1.2160  -1.2146  -1.2030  -1.2018  -1.2007  -1.1933  -1.1875  -1.1762
    -1.1746  -1.1677  -1.1669  -1.1550  -1.1514  -1.1452  -1.1386  -1.1055
    -1.1037  -1.0982  -1.0956  -1.0947  -1.0922  -1.0568  -1.0390  -1.0383
    -1.0376  -1.0372  -1.0330  -1.0284  -1.0204  -1.0134  -1.0100  -0.9774
    -0.9756  -0.9694  -0.9681  -0.9467  -0.9461  -0.9367  -0.9079  -0.8992
    -0.8732  -0.8714  -0.8438  -0.8434  -0.8407  -0.8401  -0.8380  -0.8336
    -0.8295  -0.8272  -0.8247  -0.8237  -0.7929  -0.7925  -0.7746  -0.7710
    -0.7703  -0.7687  -0.7659  -0.7525  -0.7484  -0.4746  -0.4618  -0.4057
    -0.3948  -0.3663  -0.2037  -0.1411  -0.1402  -0.1025   0.1777   0.1804
     0.5075   0.5139   0.6068   0.6075   0.6480   0.6509   0.7925   0.7970
     0.9154   0.9184   1.0090   1.6027   1.6207   1.6216   1.6601   1.6665
     1.7096   1.7186   1.7899   1.7942   1.9974   1.9990   2.2335   2.3116
     2.3171   2.3306   2.7073   2.7156   2.7826   2.7838   2.7918   2.7925
     2.9421   2.9428   2.9875   3.0870   3.0897   3.3175   3.3216   3.4522
     3.4774   3.4801   3.7502   3.7529   3.8554   3.8824   3.8835   3.9382
     3.9669   4.0701   4.0718   4.3042   4.3073   4.3939   4.3974   4.5133
     4.5216   4.5409   4.5498   4.6844   5.0878   5.3392   5.3517   5.4483
     5.4560   5.5193   5.6283   5.6335   5.6797   5.7156   5.7430   5.7469
     5.7567   5.8009   5.8019   5.8449   6.0380   6.0761   6.1006   6.1133
     6.1254   6.1363   6.1438   6.1509   6.1533   6.1635   6.2078   6.2275

          k =-0.2500-0.2500 0.0833 (167653 PWs)   bands (ev):

   -19.5683  -7.4282  -6.8209  -6.2934  -6.2924  -5.8635  -5.4550  -5.3616
    -5.3610  -5.1654  -5.1652  -5.0489  -5.0470  -4.9688  -4.9466  -4.8732
    -4.7881  -4.7841  -4.7461  -4.7452  -4.5851  -4.5678  -4.5666  -4.5662
    -4.5593  -4.5040  -4.5038  -4.4923  -4.4918  -4.4547  -4.4439  -4.4422
    -4.4002  -4.3999  -4.3666  -4.3655  -4.3143  -4.3132  -4.3038  -4.3012
    -4.2958  -4.2830  -4.2827  -4.2433  -4.2236  -4.2234  -4.2163  -4.2159
    -4.1857  -4.1387  -4.1192  -4.1190  -4.1186  -4.1150  -4.1076  -4.1020
    -4.1015  -4.1011  -4.0382  -4.0364  -3.9911  -3.9863  -3.9755  -3.9488
    -3.9476  -3.9311  -3.9252  -3.9249  -3.9210  -3.9180  -3.8698  -3.8684
    -3.8562  -3.8554  -3.7620  -3.7504  -3.7468  -3.7441  -3.7087  -3.7023
    -3.6840  -3.6802  -3.6537  -3.6492  -3.6243  -3.6219  -3.6032  -3.6022
    -3.5905  -3.5891  -3.5340  -3.5336  -3.5149  -3.4994  -3.4883  -3.4872
    -3.4863  -3.4827  -3.4590  -3.4580  -3.4225  -3.4214  -3.4013  -3.3995
    -3.3677  -3.3663  -3.3493  -3.3209  -3.3205  -3.2841  -3.2832  -3.2478
    -3.2396  -3.2392  -3.2261  -3.2251  -3.2200  -3.2196  -3.1841  -3.1711
    -3.1313  -3.1308  -3.1225  -3.1138  -3.1126  -3.1111  -3.0878  -3.0872
    -3.0664  -3.0658  -3.0651  -3.0383  -3.0380  -3.0305  -3.0284  -3.0272
    -2.9915  -2.9883  -2.9527  -2.9517  -2.9510  -2.9487  -2.9478  -2.8682
    -2.8586  -2.8553  -2.8540  -2.8535  -2.8526  -2.8492  -2.8480  -2.8470
    -2.8465  -2.8373  -2.8293  -2.8144  -2.8116  -2.8100  -2.8088  -2.7946
    -2.7913  -2.7527  -2.7514  -2.7511  -2.7475  -2.7460  -2.7283  -2.7281
    -2.7208  -2.7198  -2.7164  -2.6599  -2.6578  -2.6527  -2.6519  -2.6492
    -2.6473  -2.6204  -2.5598  -2.5594  -2.5587  -2.5557  -2.5450  -2.5446
    -2.5392  -2.5281  -2.5274  -2.4947  -2.4902  -2.4835  -2.4820  -2.4810
    -2.4803  -2.4424  -2.4413  -2.4314  -2.4304  -2.4291  -2.4287  -2.3892
    -2.3716  -2.3689  -2.3120  -2.3115  -2.2967  -2.2928  -2.2895  -2.2865
    -2.2426  -2.2369  -2.2143  -2.2039  -2.1865  -2.1847  -2.1816  -2.1621
    -2.1605  -2.1509  -2.1365  -2.0987  -2.0955  -2.0881  -2.0786  -2.0779
    -2.0719  -2.0675  -2.0574  -2.0537  -2.0506  -2.0476  -2.0449  -2.0420
    -2.0417  -2.0332  -2.0309  -2.0169  -2.0116  -2.0096  -2.0053  -2.0008
    -2.0001  -1.9793  -1.9776  -1.9678  -1.9641  -1.9623  -1.9574  -1.9208
    -1.8887  -1.8869  -1.8681  -1.8505  -1.8335  -1.8323  -1.8223  -1.8123
    -1.7987  -1.7941  -1.7844  -1.7839  -1.7818  -1.7812  -1.7788  -1.7477
    -1.7463  -1.7454  -1.7070  -1.7002  -1.6847  -1.6615  -1.6462  -1.6128
    -1.6059  -1.5954  -1.5778  -1.5743  -1.5693  -1.5538  -1.5488  -1.5353
    -1.5337  -1.5299  -1.5295  -1.5280  -1.5275  -1.5252  -1.5160  -1.5051
    -1.5002  -1.4813  -1.4764  -1.4586  -1.4561  -1.4320  -1.4313  -1.4280
    -1.4269  -1.4232  -1.4144  -1.4010  -1.3941  -1.3841  -1.3756  -1.3624
    -1.3519  -1.3487  -1.3406  -1.3181  -1.3167  -1.3091  -1.2978  -1.2732
    -1.2686  -1.2642  -1.2627  -1.2560  -1.2499  -1.2345  -1.2332  -1.2230
    -1.2160  -1.2146  -1.2030  -1.2018  -1.2007  -1.1933  -1.1875  -1.1762
    -1.1746  -1.1677  -1.1669  -1.1551  -1.1514  -1.1452  -1.1386  -1.1055
    -1.1037  -1.0982  -1.0956  -1.0947  -1.0922  -1.0568  -1.0390  -1.0383
    -1.0376  -1.0372  -1.0330  -1.0284  -1.0204  -1.0134  -1.0100  -0.9774
    -0.9756  -0.9694  -0.9681  -0.9467  -0.9461  -0.9367  -0.9079  -0.8992
    -0.8732  -0.8714  -0.8438  -0.8434  -0.8407  -0.8401  -0.8380  -0.8336
    -0.8295  -0.8272  -0.8247  -0.8237  -0.7929  -0.7925  -0.7746  -0.7710
    -0.7703  -0.7687  -0.7659  -0.7525  -0.7485  -0.4746  -0.4618  -0.4057
    -0.3948  -0.3663  -0.2037  -0.1411  -0.1402  -0.1025   0.1777   0.1804
     0.5075   0.5139   0.6068   0.6075   0.6480   0.6509   0.7925   0.7970
     0.9154   0.9184   1.0090   1.6027   1.6207   1.6216   1.6601   1.6665
     1.7096   1.7186   1.7899   1.7942   1.9974   1.9989   2.2335   2.3116
     2.3171   2.3306   2.7073   2.7156   2.7826   2.7838   2.7918   2.7925
     2.9421   2.9428   2.9875   3.0870   3.0897   3.3175   3.3216   3.4522
     3.4774   3.4801   3.7502   3.7529   3.8554   3.8824   3.8835   3.9382
     3.9669   4.0701   4.0718   4.3042   4.3074   4.3939   4.3974   4.5133
     4.5216   4.5409   4.5498   4.6843   5.0941   5.3415   5.3569   5.4488
     5.4560   5.5250   5.6282   5.6332   5.6578   5.7018   5.7342   5.7461
     5.7527   5.8007   5.8017   5.8440   6.0239   6.0748   6.1050   6.1190
     6.1261   6.1374   6.1413   6.1453   6.1532   6.1608   6.1729   6.2169

          k =-0.2500 0.2500-0.0833 (167653 PWs)   bands (ev):

   -19.5683  -7.4282  -6.8209  -6.2942  -6.2915  -5.8636  -5.4549  -5.3629
    -5.3597  -5.1656  -5.1650  -5.0502  -5.0460  -4.9688  -4.9464  -4.8730
    -4.7880  -4.7843  -4.7465  -4.7452  -4.5849  -4.5681  -4.5676  -4.5650
    -4.5592  -4.5040  -4.5038  -4.4933  -4.4904  -4.4547  -4.4449  -4.4408
    -4.4004  -4.3997  -4.3668  -4.3652  -4.3163  -4.3118  -4.3035  -4.3014
    -4.2958  -4.2830  -4.2826  -4.2425  -4.2244  -4.2228  -4.2167  -4.2154
    -4.1849  -4.1369  -4.1225  -4.1200  -4.1177  -4.1149  -4.1077  -4.1021
    -4.1017  -4.1009  -4.0407  -4.0352  -3.9896  -3.9853  -3.9748  -3.9506
    -3.9478  -3.9343  -3.9255  -3.9246  -3.9208  -3.9179  -3.8692  -3.8684
    -3.8568  -3.8544  -3.7594  -3.7505  -3.7477  -3.7433  -3.7077  -3.7020
    -3.6879  -3.6817  -3.6538  -3.6460  -3.6250  -3.6221  -3.6031  -3.5998
    -3.5913  -3.5875  -3.5346  -3.5331  -3.5164  -3.4990  -3.4893  -3.4877
    -3.4862  -3.4829  -3.4592  -3.4560  -3.4226  -3.4207  -3.4022  -3.3986
    -3.3685  -3.3656  -3.3493  -3.3215  -3.3204  -3.2848  -3.2823  -3.2480
    -3.2395  -3.2392  -3.2265  -3.2248  -3.2204  -3.2194  -3.1841  -3.1710
    -3.1315  -3.1310  -3.1224  -3.1141  -3.1120  -3.1112  -3.0876  -3.0870
    -3.0681  -3.0660  -3.0633  -3.0383  -3.0375  -3.0306  -3.0288  -3.0269
    -2.9915  -2.9887  -2.9533  -2.9518  -2.9507  -2.9489  -2.9476  -2.8682
    -2.8587  -2.8571  -2.8543  -2.8525  -2.8519  -2.8501  -2.8471  -2.8469
    -2.8463  -2.8372  -2.8293  -2.8144  -2.8112  -2.8101  -2.8087  -2.7945
    -2.7910  -2.7530  -2.7517  -2.7507  -2.7489  -2.7449  -2.7293  -2.7270
    -2.7208  -2.7195  -2.7165  -2.6597  -2.6580  -2.6530  -2.6520  -2.6488
    -2.6470  -2.6208  -2.5603  -2.5590  -2.5581  -2.5558  -2.5451  -2.5443
    -2.5387  -2.5289  -2.5268  -2.4949  -2.4889  -2.4846  -2.4839  -2.4799
    -2.4790  -2.4424  -2.4403  -2.4318  -2.4302  -2.4298  -2.4277  -2.3895
    -2.3731  -2.3689  -2.3132  -2.3108  -2.2951  -2.2942  -2.2893  -2.2864
    -2.2431  -2.2368  -2.2140  -2.2050  -2.1859  -2.1843  -2.1818  -2.1620
    -2.1607  -2.1509  -2.1369  -2.1013  -2.0956  -2.0865  -2.0791  -2.0778
    -2.0718  -2.0674  -2.0590  -2.0538  -2.0519  -2.0470  -2.0452  -2.0424
    -2.0396  -2.0333  -2.0298  -2.0160  -2.0121  -2.0099  -2.0053  -2.0013
    -1.9995  -1.9798  -1.9766  -1.9661  -1.9647  -1.9629  -1.9580  -1.9209
    -1.8894  -1.8845  -1.8742  -1.8505  -1.8344  -1.8316  -1.8219  -1.8117
    -1.7994  -1.7925  -1.7849  -1.7830  -1.7818  -1.7812  -1.7782  -1.7481
    -1.7457  -1.7453  -1.7027  -1.7010  -1.6861  -1.6615  -1.6448  -1.6131
    -1.6059  -1.5952  -1.5774  -1.5742  -1.5691  -1.5546  -1.5486  -1.5373
    -1.5331  -1.5319  -1.5286  -1.5282  -1.5267  -1.5250  -1.5175  -1.5051
    -1.4996  -1.4807  -1.4766  -1.4584  -1.4542  -1.4330  -1.4304  -1.4296
    -1.4268  -1.4224  -1.4151  -1.4010  -1.3918  -1.3851  -1.3753  -1.3624
    -1.3525  -1.3485  -1.3404  -1.3180  -1.3160  -1.3094  -1.2984  -1.2759
    -1.2670  -1.2642  -1.2608  -1.2562  -1.2507  -1.2356  -1.2326  -1.2225
    -1.2172  -1.2135  -1.2045  -1.2016  -1.1998  -1.1928  -1.1873  -1.1759
    -1.1729  -1.1682  -1.1667  -1.1548  -1.1532  -1.1457  -1.1386  -1.1043
    -1.1021  -1.0999  -1.0961  -1.0947  -1.0928  -1.0566  -1.0414  -1.0380
    -1.0370  -1.0359  -1.0330  -1.0284  -1.0213  -1.0132  -1.0088  -0.9787
    -0.9739  -0.9691  -0.9680  -0.9472  -0.9459  -0.9365  -0.9072  -0.8992
    -0.8738  -0.8705  -0.8442  -0.8438  -0.8405  -0.8400  -0.8380  -0.8338
    -0.8296  -0.8270  -0.8262  -0.8229  -0.7939  -0.7914  -0.7761  -0.7714
    -0.7698  -0.7681  -0.7675  -0.7509  -0.7469  -0.4749  -0.4617  -0.4094
    -0.3905  -0.3666  -0.2049  -0.1430  -0.1388  -0.1032   0.1760   0.1832
     0.5031   0.5175   0.6050   0.6091   0.6444   0.6529   0.7870   0.8026
     0.9155   0.9186   1.0100   1.6033   1.6207   1.6231   1.6615   1.6663
     1.6994   1.7271   1.7862   1.7996   1.9940   2.0017   2.2348   2.3061
     2.3221   2.3304   2.6991   2.7214   2.7821   2.7850   2.7901   2.7947
     2.9406   2.9442   2.9838   3.0780   3.0991   3.3168   3.3203   3.4518
     3.4738   3.4848   3.7424   3.7582   3.8658   3.8822   3.8855   3.9271
     3.9709   4.0640   4.0751   4.3014   4.3088   4.3935   4.4013   4.5189
     4.5228   4.5343   4.5567   4.6870   5.0932   5.3309   5.3634   5.4441
     5.4559   5.5329   5.6203   5.6377   5.6603   5.7060   5.7221   5.7460
     5.7534   5.7880   5.8047   5.8431   6.0172   6.0853   6.0998   6.1158
     6.1268   6.1323   6.1397   6.1495   6.1532   6.1622   6.1818   6.2103

          k = 0.2500-0.2500-0.0833 (167653 PWs)   bands (ev):

   -19.5683  -7.4282  -6.8209  -6.2942  -6.2915  -5.8636  -5.4549  -5.3629
    -5.3597  -5.1656  -5.1650  -5.0502  -5.0460  -4.9688  -4.9464  -4.8730
    -4.7880  -4.7843  -4.7465  -4.7452  -4.5849  -4.5681  -4.5676  -4.5650
    -4.5592  -4.5040  -4.5038  -4.4933  -4.4904  -4.4547  -4.4449  -4.4408
    -4.4004  -4.3997  -4.3668  -4.3652  -4.3163  -4.3118  -4.3035  -4.3014
    -4.2958  -4.2830  -4.2826  -4.2425  -4.2244  -4.2228  -4.2167  -4.2154
    -4.1849  -4.1369  -4.1225  -4.1200  -4.1177  -4.1149  -4.1077  -4.1021
    -4.1017  -4.1009  -4.0407  -4.0352  -3.9896  -3.9853  -3.9748  -3.9506
    -3.9478  -3.9343  -3.9255  -3.9246  -3.9208  -3.9179  -3.8692  -3.8684
    -3.8568  -3.8544  -3.7594  -3.7505  -3.7477  -3.7433  -3.7077  -3.7020
    -3.6879  -3.6817  -3.6538  -3.6460  -3.6250  -3.6221  -3.6031  -3.5998
    -3.5913  -3.5875  -3.5346  -3.5331  -3.5164  -3.4990  -3.4893  -3.4877
    -3.4862  -3.4829  -3.4592  -3.4560  -3.4226  -3.4207  -3.4022  -3.3986
    -3.3685  -3.3656  -3.3493  -3.3215  -3.3204  -3.2848  -3.2823  -3.2480
    -3.2395  -3.2392  -3.2265  -3.2248  -3.2204  -3.2194  -3.1841  -3.1710
    -3.1315  -3.1310  -3.1224  -3.1141  -3.1120  -3.1112  -3.0876  -3.0870
    -3.0681  -3.0660  -3.0633  -3.0383  -3.0375  -3.0306  -3.0288  -3.0269
    -2.9915  -2.9887  -2.9533  -2.9518  -2.9507  -2.9489  -2.9476  -2.8682
    -2.8587  -2.8571  -2.8543  -2.8525  -2.8519  -2.8501  -2.8471  -2.8469
    -2.8463  -2.8372  -2.8293  -2.8144  -2.8112  -2.8101  -2.8087  -2.7945
    -2.7910  -2.7530  -2.7517  -2.7507  -2.7489  -2.7449  -2.7293  -2.7270
    -2.7208  -2.7195  -2.7165  -2.6597  -2.6580  -2.6530  -2.6520  -2.6488
    -2.6470  -2.6208  -2.5603  -2.5590  -2.5581  -2.5558  -2.5451  -2.5443
    -2.5387  -2.5289  -2.5268  -2.4949  -2.4889  -2.4846  -2.4839  -2.4799
    -2.4790  -2.4424  -2.4403  -2.4318  -2.4302  -2.4298  -2.4277  -2.3895
    -2.3731  -2.3689  -2.3132  -2.3108  -2.2951  -2.2942  -2.2893  -2.2864
    -2.2431  -2.2368  -2.2140  -2.2050  -2.1859  -2.1843  -2.1818  -2.1620
    -2.1607  -2.1509  -2.1369  -2.1013  -2.0956  -2.0865  -2.0791  -2.0778
    -2.0718  -2.0674  -2.0590  -2.0538  -2.0519  -2.0470  -2.0452  -2.0424
    -2.0396  -2.0333  -2.0298  -2.0160  -2.0121  -2.0099  -2.0053  -2.0013
    -1.9995  -1.9798  -1.9766  -1.9661  -1.9647  -1.9629  -1.9580  -1.9209
    -1.8894  -1.8845  -1.8742  -1.8505  -1.8344  -1.8316  -1.8219  -1.8117
    -1.7994  -1.7925  -1.7849  -1.7830  -1.7818  -1.7812  -1.7782  -1.7481
    -1.7457  -1.7453  -1.7027  -1.7010  -1.6861  -1.6615  -1.6448  -1.6131
    -1.6059  -1.5952  -1.5774  -1.5742  -1.5691  -1.5546  -1.5486  -1.5373
    -1.5331  -1.5319  -1.5286  -1.5282  -1.5267  -1.5250  -1.5175  -1.5051
    -1.4996  -1.4807  -1.4766  -1.4584  -1.4542  -1.4330  -1.4304  -1.4296
    -1.4268  -1.4224  -1.4151  -1.4010  -1.3918  -1.3851  -1.3753  -1.3624
    -1.3525  -1.3485  -1.3404  -1.3180  -1.3160  -1.3094  -1.2984  -1.2759
    -1.2670  -1.2642  -1.2608  -1.2562  -1.2507  -1.2356  -1.2326  -1.2225
    -1.2172  -1.2135  -1.2045  -1.2016  -1.1998  -1.1928  -1.1873  -1.1759
    -1.1729  -1.1682  -1.1667  -1.1548  -1.1532  -1.1457  -1.1386  -1.1043
    -1.1021  -1.0999  -1.0961  -1.0947  -1.0928  -1.0566  -1.0414  -1.0380
    -1.0370  -1.0359  -1.0330  -1.0284  -1.0213  -1.0132  -1.0088  -0.9787
    -0.9739  -0.9691  -0.9680  -0.9472  -0.9459  -0.9365  -0.9072  -0.8992
    -0.8738  -0.8705  -0.8442  -0.8438  -0.8405  -0.8400  -0.8380  -0.8338
    -0.8296  -0.8270  -0.8262  -0.8229  -0.7939  -0.7914  -0.7761  -0.7714
    -0.7698  -0.7681  -0.7675  -0.7509  -0.7469  -0.4749  -0.4617  -0.4094
    -0.3905  -0.3666  -0.2049  -0.1430  -0.1388  -0.1032   0.1760   0.1832
     0.5031   0.5175   0.6050   0.6091   0.6444   0.6529   0.7870   0.8026
     0.9155   0.9186   1.0100   1.6033   1.6207   1.6231   1.6615   1.6663
     1.6994   1.7271   1.7862   1.7996   1.9940   2.0017   2.2348   2.3061
     2.3221   2.3304   2.6991   2.7214   2.7821   2.7850   2.7901   2.7947
     2.9406   2.9442   2.9838   3.0780   3.0991   3.3168   3.3203   3.4518
     3.4738   3.4848   3.7424   3.7582   3.8658   3.8822   3.8855   3.9271
     3.9709   4.0640   4.0751   4.3014   4.3088   4.3935   4.4013   4.5189
     4.5228   4.5343   4.5567   4.6870   5.0933   5.3311   5.3629   5.4440
     5.4557   5.5340   5.6206   5.6378   5.6601   5.7051   5.7215   5.7459
     5.7533   5.7879   5.8047   5.8431   6.0157   6.0830   6.0992   6.1178
     6.1263   6.1324   6.1403   6.1491   6.1533   6.1606   6.1875   6.2177

          k =-0.2500 0.2500 0.2500 (167588 PWs)   bands (ev):

   -19.5683  -7.4282  -6.8209  -6.2942  -6.2915  -5.8636  -5.4549  -5.3629
    -5.3597  -5.1656  -5.1650  -5.0502  -5.0460  -4.9688  -4.9464  -4.8730
    -4.7880  -4.7843  -4.7465  -4.7452  -4.5849  -4.5681  -4.5676  -4.5650
    -4.5592  -4.5040  -4.5038  -4.4933  -4.4904  -4.4547  -4.4449  -4.4408
    -4.4004  -4.3997  -4.3668  -4.3652  -4.3163  -4.3118  -4.3035  -4.3014
    -4.2958  -4.2830  -4.2826  -4.2425  -4.2244  -4.2228  -4.2167  -4.2154
    -4.1849  -4.1369  -4.1225  -4.1200  -4.1177  -4.1149  -4.1077  -4.1021
    -4.1017  -4.1009  -4.0407  -4.0352  -3.9896  -3.9853  -3.9748  -3.9505
    -3.9477  -3.9343  -3.9255  -3.9246  -3.9208  -3.9179  -3.8692  -3.8684
    -3.8568  -3.8544  -3.7594  -3.7505  -3.7477  -3.7433  -3.7077  -3.7020
    -3.6879  -3.6817  -3.6538  -3.6460  -3.6250  -3.6221  -3.6031  -3.5998
    -3.5913  -3.5875  -3.5346  -3.5331  -3.5165  -3.4990  -3.4893  -3.4877
    -3.4862  -3.4829  -3.4592  -3.4560  -3.4226  -3.4207  -3.4022  -3.3986
    -3.3685  -3.3656  -3.3493  -3.3215  -3.3204  -3.2848  -3.2823  -3.2480
    -3.2395  -3.2392  -3.2265  -3.2248  -3.2204  -3.2194  -3.1841  -3.1710
    -3.1315  -3.1310  -3.1224  -3.1141  -3.1120  -3.1112  -3.0876  -3.0870
    -3.0681  -3.0660  -3.0633  -3.0383  -3.0375  -3.0306  -3.0288  -3.0269
    -2.9915  -2.9887  -2.9533  -2.9518  -2.9507  -2.9489  -2.9476  -2.8682
    -2.8587  -2.8571  -2.8543  -2.8525  -2.8519  -2.8501  -2.8471  -2.8469
    -2.8463  -2.8372  -2.8293  -2.8144  -2.8112  -2.8101  -2.8087  -2.7945
    -2.7910  -2.7530  -2.7517  -2.7507  -2.7489  -2.7449  -2.7292  -2.7270
    -2.7208  -2.7195  -2.7165  -2.6597  -2.6580  -2.6530  -2.6520  -2.6488
    -2.6470  -2.6208  -2.5603  -2.5590  -2.5581  -2.5558  -2.5451  -2.5443
    -2.5387  -2.5289  -2.5268  -2.4949  -2.4889  -2.4846  -2.4839  -2.4799
    -2.4790  -2.4424  -2.4403  -2.4318  -2.4302  -2.4298  -2.4277  -2.3895
    -2.3731  -2.3689  -2.3132  -2.3108  -2.2951  -2.2943  -2.2893  -2.2864
    -2.2431  -2.2368  -2.2140  -2.2050  -2.1859  -2.1843  -2.1818  -2.1620
    -2.1607  -2.1509  -2.1369  -2.1013  -2.0956  -2.0865  -2.0791  -2.0778
    -2.0718  -2.0674  -2.0590  -2.0538  -2.0519  -2.0470  -2.0452  -2.0424
    -2.0396  -2.0333  -2.0298  -2.0160  -2.0121  -2.0099  -2.0053  -2.0013
    -1.9995  -1.9798  -1.9766  -1.9661  -1.9647  -1.9629  -1.9580  -1.9209
    -1.8894  -1.8845  -1.8742  -1.8505  -1.8344  -1.8316  -1.8219  -1.8116
    -1.7994  -1.7925  -1.7849  -1.7830  -1.7818  -1.7812  -1.7782  -1.7481
    -1.7457  -1.7453  -1.7027  -1.7010  -1.6861  -1.6615  -1.6448  -1.6131
    -1.6059  -1.5952  -1.5774  -1.5742  -1.5691  -1.5546  -1.5487  -1.5373
    -1.5331  -1.5319  -1.5285  -1.5282  -1.5267  -1.5250  -1.5175  -1.5051
    -1.4996  -1.4807  -1.4766  -1.4584  -1.4542  -1.4330  -1.4304  -1.4296
    -1.4267  -1.4224  -1.4151  -1.4010  -1.3918  -1.3851  -1.3753  -1.3624
    -1.3525  -1.3485  -1.3404  -1.3180  -1.3160  -1.3094  -1.2984  -1.2759
    -1.2670  -1.2642  -1.2608  -1.2562  -1.2507  -1.2356  -1.2326  -1.2225
    -1.2172  -1.2135  -1.2045  -1.2016  -1.1998  -1.1928  -1.1873  -1.1759
    -1.1729  -1.1681  -1.1667  -1.1548  -1.1532  -1.1457  -1.1386  -1.1043
    -1.1021  -1.0999  -1.0961  -1.0947  -1.0928  -1.0566  -1.0414  -1.0380
    -1.0370  -1.0359  -1.0330  -1.0284  -1.0213  -1.0132  -1.0088  -0.9787
    -0.9739  -0.9691  -0.9680  -0.9472  -0.9459  -0.9365  -0.9072  -0.8992
    -0.8738  -0.8705  -0.8442  -0.8438  -0.8405  -0.8400  -0.8380  -0.8338
    -0.8296  -0.8271  -0.8262  -0.8229  -0.7939  -0.7914  -0.7761  -0.7714
    -0.7698  -0.7681  -0.7675  -0.7509  -0.7468  -0.4749  -0.4617  -0.4094
    -0.3905  -0.3666  -0.2049  -0.1430  -0.1388  -0.1032   0.1760   0.1832
     0.5031   0.5175   0.6050   0.6091   0.6444   0.6529   0.7870   0.8026
     0.9155   0.9186   1.0100   1.6033   1.6207   1.6231   1.6615   1.6663
     1.6994   1.7271   1.7862   1.7997   1.9940   2.0017   2.2348   2.3061
     2.3221   2.3304   2.6991   2.7214   2.7821   2.7850   2.7901   2.7947
     2.9406   2.9442   2.9838   3.0780   3.0991   3.3168   3.3203   3.4518
     3.4739   3.4848   3.7424   3.7582   3.8658   3.8822   3.8855   3.9272
     3.9710   4.0640   4.0751   4.3014   4.3088   4.3935   4.4013   4.5189
     4.5228   4.5343   4.5566   4.6871   5.0868   5.3290   5.3580   5.4434
     5.4556   5.5288   5.6208   5.6377   5.6787   5.7031   5.7443   5.7486
     5.7630   5.7882   5.8049   5.8433   6.0336   6.0817   6.0989   6.1043
     6.1270   6.1335   6.1469   6.1529   6.1541   6.1705   6.1973   6.2384

     the Fermi energy is     0.8678 ev

!    total energy              =   -7425.29210166 Ry
     Harris-Foulkes estimate   =   -7425.29210168 Ry
     estimated scf accuracy    <          7.4E-09 Ry

     The total energy is the sum of the following terms:

     one-electron contribution =  -48832.01725086 Ry
     hartree contribution      =   24966.83355103 Ry
     xc contribution           =   -3604.23295638 Ry
     ewald contribution        =   20044.12723371 Ry
     smearing contrib. (-TS)   =      -0.00267917 Ry

     convergence has been achieved in  25 iterations

     Writing output data file 9886282.save

     init_run     :    111.83s CPU    121.56s WALL (       1 calls)
     electrons    :   6701.10s CPU   7168.63s WALL (       1 calls)

     Called by init_run:
     wfcinit      :     77.04s CPU     85.69s WALL (       1 calls)
     potinit      :      8.56s CPU      9.06s WALL (       1 calls)

     Called by electrons:
     c_bands      :   5137.22s CPU   5511.97s WALL (      26 calls)
     sum_band     :    996.06s CPU   1070.86s WALL (      26 calls)
     v_of_rho     :    122.11s CPU    133.84s WALL (      26 calls)
     newd         :    462.08s CPU    468.01s WALL (      26 calls)
     mix_rho      :      3.55s CPU      3.88s WALL (      26 calls)
     vdW_energy   :     11.00s CPU     12.37s WALL (      26 calls)
     vdW_ffts     :     60.36s CPU     66.31s WALL (      52 calls)
     vdW_v        :     15.43s CPU     16.33s WALL (      26 calls)

     Called by c_bands:
     init_us_2    :     14.57s CPU     14.87s WALL (     318 calls)
     cegterg      :   5059.81s CPU   5433.49s WALL (     156 calls)

     Called by *egterg:
     h_psi        :   2193.19s CPU   2534.97s WALL (     818 calls)
     s_psi        :    340.92s CPU    342.74s WALL (     818 calls)
     g_psi        :      4.30s CPU      4.31s WALL (     656 calls)
     cdiaghg      :   1426.01s CPU   1430.96s WALL (     806 calls)

     Called by h_psi:
     add_vuspsi   :    345.22s CPU    347.25s WALL (     818 calls)

     General routines
     calbec       :    511.80s CPU    513.98s WALL (     974 calls)
     fft          :    122.06s CPU    132.06s WALL (    1716 calls)
     ffts         :      1.63s CPU      1.90s WALL (      52 calls)
     fftw         :   1446.58s CPU   1773.12s WALL (  424078 calls)
     interpolate  :      5.06s CPU      5.86s WALL (      52 calls)
     davcio       :      0.00s CPU      0.31s WALL (       6 calls)

     Parallel routines
     fft_scatter  :    996.26s CPU   1230.94s WALL (  425846 calls)

     PWSCF        :     1h53m CPU        2h 1m WALL


   This run was terminated on:  13:39: 7  24Aug2015            

=------------------------------------------------------------------------------=
   JOB DONE.
=------------------------------------------------------------------------------=
