Setting SGE environment for SCC

     Program PWSCF v.5.1.2 starts on  3Jul2015 at  4:34:17 

     This program is part of the open-source Quantum ESPRESSO suite
     for quantum simulation of materials; please cite
         "P. Giannozzi et al., J. Phys.:Condens. Matter 21 395502 (2009);
          URL http://www.quantum-espresso.org", 
     in publications or presentations arising from this work. More details at
     http://www.quantum-espresso.org/quote

     Parallel version (MPI), running on    32 processors
     R & G space division:  proc/nbgrp/npool/nimage =      32
     Reading input from hollow.O1.Au5859.d.2.7.phi.0.psi.0.in
Warning: card &IONS ignored
Warning: card / ignored
Warning: card &CELL ignored
Warning: card / ignored

     Current dimensions of program PWSCF are:
     Max number of different atomic species (ntypx) = 10
     Max number of k-points (npk) =  40000
     Max angular momentum in pseudopotentials (lmaxx) =  3

     IMPORTANT: XC functional enforced from input :
     Exchange-correlation      = VDW-DF ( 1  4  4  0 1 0)
     Any further DFT definition will be discarded
     Please, verify this is what you really want


     Subspace diagonalization in iterative solution of the eigenvalue problem:
     a serial algorithm will be used


     Parallelization info
     --------------------
     sticks:   dense  smooth     PW     G-vecs:    dense   smooth      PW
     Min         578     289     74               118518    41891    5486
     Max         579     290     75               118533    41932    5497
     Sum       18505    9265   2385              3792731  1341081  175711


     Title: 
     hollow.O1.Au5859.d.2.7.phi.0.psi.0                                         


     bravais-lattice index     =            8
     lattice parameter (alat)  =      24.1233  a.u.
     unit-cell volume          =   28076.2361 (a.u.)^3
     number of atoms/cell      =           75
     number of atomic types    =            3
     number of electrons       =       800.00
     number of Kohn-Sham states=          480
     kinetic-energy cutoff     =      50.0000  Ry
     charge density cutoff     =     400.0000  Ry
     convergence threshold     =      1.0E-08
     mixing beta               =       0.7000
     number of iterations used =            8  plain     mixing
     Exchange-correlation      = VDW-DF ( 1  4  4  0 1 0)

     celldm(1)=  24.123277  celldm(2)=   1.000000  celldm(3)=   2.000000
     celldm(4)=   0.000000  celldm(5)=   0.000000  celldm(6)=   0.000000

     crystal axes: (cart. coord. in units of alat)
               a(1) = (   1.000000   0.000000   0.000000 )  
               a(2) = (   0.000000   1.000000   0.000000 )  
               a(3) = (   0.000000   0.000000   2.000000 )  

     reciprocal axes: (cart. coord. in units 2 pi/alat)
               b(1) = (  1.000000  0.000000  0.000000 )  
               b(2) = (  0.000000  1.000000  0.000000 )  
               b(3) = (  0.000000  0.000000  0.500000 )  


     PseudoPot. # 1 for Au read from file:
     /home/scc/andrejb/qe/pseudo/Au.pbe-nd-van.UPF
     MD5 check sum: 458681b50f36d87ef23c61b04bba420a
     Pseudo is Ultrasoft + core correction, Zval = 11.0
     Generated by new atomic code, or converted to UPF format
     Using radial grid of  985 points,  3 beta functions with: 
                l(1) =   1
                l(2) =   2
                l(3) =   2
     Q(r) pseudized with  8 coefficients,  rinner =    1.100   1.100   1.100
                                                       1.100   1.100

     PseudoPot. # 2 for H  read from file:
     /home/scc/andrejb/qe/pseudo/H.pbe-van_ak.UPF
     MD5 check sum: 403db7282739603aa925980fa9b8608d
     Pseudo is Ultrasoft, Zval =  1.0
     Generated by new atomic code, or converted to UPF format
     Using radial grid of  615 points,  1 beta functions with: 
                l(1) =   0
     Q(r) pseudized with  8 coefficients,  rinner =    0.800

     PseudoPot. # 3 for O  read from file:
     /home/scc/andrejb/qe/pseudo/O.pbe-van_ak.UPF
     MD5 check sum: 4b8c549914a63cae506c6ff22b5af4fe
     Pseudo is Ultrasoft, Zval =  6.0
     Generated by new atomic code, or converted to UPF format
     Using radial grid of  737 points,  4 beta functions with: 
                l(1) =   0
                l(2) =   0
                l(3) =   1
                l(4) =   1
     Q(r) pseudized with  8 coefficients,  rinner =    0.800   0.800   0.800


     vdW kernel table read from file vdW_kernel_table
     MD5 check sum: 48e77a2e26edf626eeb0eaa751ad5cac

     atomic species   valence    mass     pseudopotential
        Au            11.00   196.96657     Au( 1.00)
        H              1.00     1.01000     H ( 1.00)
        O              6.00    16.00000     O ( 1.00)

     No symmetry found



   Cartesian axes

     site n.     atom                  positions (alat units)
         1           O   tau(   1) = (   0.1666051   0.1666105   0.9066623  )
         2           H   tau(   2) = (   0.1195275   0.1274390   0.9521562  )
         3           H   tau(   3) = (   0.2122554   0.2046122   0.9545200  )
         4           Au  tau(   4) = (   0.0000000   0.0000000   0.0000000  )
         5           Au  tau(   5) = (   0.3332217   0.0000000   0.0000000  )
         6           Au  tau(   6) = (   0.6664434   0.0000000   0.0000000  )
         7           Au  tau(   7) = (   0.1666109   0.1666109   0.0000000  )
         8           Au  tau(   8) = (   0.4998326   0.1666109   0.0000000  )
         9           Au  tau(   9) = (   0.8330542   0.1666109   0.0000000  )
        10           Au  tau(  10) = (   0.0000000   0.3332217   0.0000000  )
        11           Au  tau(  11) = (   0.3332217   0.3332217   0.0000000  )
        12           Au  tau(  12) = (   0.6664434   0.3332217   0.0000000  )
        13           Au  tau(  13) = (   0.1666109   0.4998326   0.0000000  )
        14           Au  tau(  14) = (   0.4998326   0.4998326   0.0000000  )
        15           Au  tau(  15) = (   0.8330542   0.4998326   0.0000000  )
        16           Au  tau(  16) = (   0.0000000   0.6664434   0.0000000  )
        17           Au  tau(  17) = (   0.3332217   0.6664434   0.0000000  )
        18           Au  tau(  18) = (   0.6664434   0.6664434   0.0000000  )
        19           Au  tau(  19) = (   0.1666109   0.8330542   0.0000000  )
        20           Au  tau(  20) = (   0.4998326   0.8330542   0.0000000  )
        21           Au  tau(  21) = (   0.8330542   0.8330542   0.0000000  )
        22           Au  tau(  22) = (   0.1666109   0.0000000   0.1666109  )
        23           Au  tau(  23) = (   0.4998326   0.0000000   0.1666109  )
        24           Au  tau(  24) = (   0.8330542   0.0000000   0.1666109  )
        25           Au  tau(  25) = (   0.0000000   0.1666109   0.1666109  )
        26           Au  tau(  26) = (   0.3332217   0.1666109   0.1666109  )
        27           Au  tau(  27) = (   0.6664434   0.1666109   0.1666109  )
        28           Au  tau(  28) = (   0.1666109   0.3332217   0.1666109  )
        29           Au  tau(  29) = (   0.4998326   0.3332217   0.1666109  )
        30           Au  tau(  30) = (   0.8330542   0.3332217   0.1666109  )
        31           Au  tau(  31) = (   0.0000000   0.4998326   0.1666109  )
        32           Au  tau(  32) = (   0.3332217   0.4998326   0.1666109  )
        33           Au  tau(  33) = (   0.6664434   0.4998326   0.1666109  )
        34           Au  tau(  34) = (   0.1666109   0.6664434   0.1666109  )
        35           Au  tau(  35) = (   0.4998326   0.6664434   0.1666109  )
        36           Au  tau(  36) = (   0.8330542   0.6664434   0.1666109  )
        37           Au  tau(  37) = (   0.0000000   0.8330542   0.1666109  )
        38           Au  tau(  38) = (   0.3332217   0.8330542   0.1666109  )
        39           Au  tau(  39) = (   0.6664434   0.8330542   0.1666109  )
        40           Au  tau(  40) = (  -0.0000182  -0.0000182   0.3335478  )
        41           Au  tau(  41) = (   0.3332215  -0.0000181   0.3335473  )
        42           Au  tau(  42) = (   0.6664447  -0.0000183   0.3335481  )
        43           Au  tau(  43) = (  -0.0000181   0.3332215   0.3335473  )
        44           Au  tau(  44) = (   0.3332215   0.3332215   0.3335468  )
        45           Au  tau(  45) = (   0.6664445   0.3332215   0.3335477  )
        46           Au  tau(  46) = (  -0.0000183   0.6664447   0.3335481  )
        47           Au  tau(  47) = (   0.3332215   0.6664445   0.3335477  )
        48           Au  tau(  48) = (   0.6664446   0.6664446   0.3335486  )
        49           Au  tau(  49) = (   0.1666097   0.1666097   0.3335483  )
        50           Au  tau(  50) = (   0.4998320   0.1666098   0.3335477  )
        51           Au  tau(  51) = (   0.8330732   0.1666096   0.3335480  )
        52           Au  tau(  52) = (   0.1666098   0.4998320   0.3335477  )
        53           Au  tau(  53) = (   0.4998322   0.4998322   0.3335470  )
        54           Au  tau(  54) = (   0.8330731   0.4998322   0.3335474  )
        55           Au  tau(  55) = (   0.1666096   0.8330732   0.3335480  )
        56           Au  tau(  56) = (   0.4998322   0.8330731   0.3335474  )
        57           Au  tau(  57) = (   0.8330731   0.8330731   0.3335478  )
        58           Au  tau(  58) = (   0.1666104  -0.0000111   0.4993095  )
        59           Au  tau(  59) = (   0.4998323  -0.0000112   0.4993099  )
        60           Au  tau(  60) = (   0.8330660  -0.0000111   0.4993009  )
        61           Au  tau(  61) = (  -0.0000111   0.1666104   0.4993095  )
        62           Au  tau(  62) = (   0.3332213   0.1666106   0.4993185  )
        63           Au  tau(  63) = (   0.6664437   0.1666106   0.4993187  )
        64           Au  tau(  64) = (   0.1666106   0.3332213   0.4993185  )
        65           Au  tau(  65) = (   0.4998324   0.3332216   0.4993185  )
        66           Au  tau(  66) = (   0.8330658   0.3332215   0.4993102  )
        67           Au  tau(  67) = (  -0.0000112   0.4998323   0.4993099  )
        68           Au  tau(  68) = (   0.3332216   0.4998324   0.4993185  )
        69           Au  tau(  69) = (   0.6664437   0.4998325   0.4993187  )
        70           Au  tau(  70) = (   0.1666106   0.6664437   0.4993187  )
        71           Au  tau(  71) = (   0.4998325   0.6664437   0.4993187  )
        72           Au  tau(  72) = (   0.8330658   0.6664438   0.4993102  )
        73           Au  tau(  73) = (  -0.0000111   0.8330660   0.4993009  )
        74           Au  tau(  74) = (   0.3332215   0.8330658   0.4993102  )
        75           Au  tau(  75) = (   0.6664438   0.8330658   0.4993102  )

     number of k points=     6  Marzari-Vanderbilt smearing, width (Ry)=  0.0200
                       cart. coord. in units 2pi/alat
        k(    1) = (   0.2500000   0.2500000   0.0833333), wk =   0.3333333
        k(    2) = (   0.2500000   0.2500000  -0.2500000), wk =   0.3333333
        k(    3) = (  -0.2500000  -0.2500000   0.0833333), wk =   0.3333333
        k(    4) = (  -0.2500000   0.2500000  -0.0833333), wk =   0.3333333
        k(    5) = (   0.2500000  -0.2500000  -0.0833333), wk =   0.3333333
        k(    6) = (  -0.2500000   0.2500000   0.2500000), wk =   0.3333333

     Dense  grid:  3792731 G-vectors     FFT dimensions: ( 160, 160, 320)

     Smooth grid:  1341081 G-vectors     FFT dimensions: ( 120, 120, 225)

     Largest allocated arrays     est. size (Mb)     dimensions
        Kohn-Sham Wavefunctions        38.58 Mb     (    5267,  480)
        NL pseudopotentials            76.03 Mb     (    5267,  946)
        Each V/rho on FFT grid          3.91 Mb     (  256000)
        Each G-vector array             0.90 Mb     (  118520)
        G-vector shells                 0.08 Mb     (   10286)
     Largest temporary arrays     est. size (Mb)     dimensions
        Auxiliary wavefunctions       154.31 Mb     (    5267, 1920)
        Each subspace H/S matrix       56.25 Mb     (    1920, 1920)
        Each <psi_i|beta_j> matrix      6.93 Mb     (     946,  480)
        Arrays for rho mixing          31.25 Mb     (  256000,    8)

     Initial potential from superposition of free atoms
     Check: negative starting charge=   -1.944608

     starting charge  799.16392, renormalised to  800.00000

     negative rho (up, down):  1.947E+00 0.000E+00


     ************************************************************************
     *
     * You are using vdW-DF for exchange-correlation in this calculation.
     * Please cite the following three references that made this development
     * possible:
     *
     *   M. Dion, H. Rydberg, E. Schroder, D. C. Langreth, and
     *   B. I. Lundqvist, Phys. Rev. Lett. 92, 246401 (2004).
     *
     *   T. Thonhauser, V. R. Cooper, S. Li, A. Puzder, P. Hyldgaard, and
     *   D. C. Langreth, Phys. Rev. B 76, 125112 (2007).
     *
     *   G. Roman-Perez and J. M. Soler, Phys. Rev. Lett. 103, 096102 (2009).
     *
     *
     * If you are using vdW-DF2, please also cite:
     *
     *   K. Lee, E. D. Murray, L. Kong, B. I. Lundqvist, and
     *   D. C. Langreth, Phys. Rev. B 82, 081101(R) (2010).
     *
     *
     * If you are calculating the stress with vdW-DF, please also cite:
     *
     *   R. Sabatini, E. Kucukbenli, B. Kolb, T. Thonhauser, and
     *   S. de Gironcoli, J. Phys.: Condens. Matter 24, 424209 (2012).
     *
     ************************************************************************

     Carrying out vdW-DF run using the following parameters:

     Nqs =      20    Nr_points =    1024   r_max =   100.000
     q_mesh =
               0.00001000     0.04494208     0.09755937     0.15916263
               0.23128650     0.31572767     0.41458969     0.53033537
               0.66584808     0.82450364     1.01025438     1.22772762
               1.48234092     1.78043706     2.12944203     2.53805004
               3.01644009     3.57652955     4.23227104     5.00000000

     Gradients computed in reciprocal space

     ************************************************************************


     Starting wfc are  654 randomized atomic wfcs

     total cpu time spent up to now is      147.9 secs

     Self-consistent Calculation

     iteration #  1     ecut=    50.00 Ry     beta=0.70
     Davidson diagonalization with overlap
     ethr =  1.00E-02,  avg # of iterations =  3.0

     Threshold (ethr) on eigenvalues was too large:
     Diagonalizing with lowered threshold

     Davidson diagonalization with overlap
     ethr =  4.30E-04,  avg # of iterations =  2.7

     negative rho (up, down):  1.948E+00 0.000E+00

     total cpu time spent up to now is      684.0 secs

     total energy              =   -7422.99565645 Ry
     Harris-Foulkes estimate   =   -7426.08703976 Ry
     estimated scf accuracy    <       3.81259130 Ry

     iteration #  2     ecut=    50.00 Ry     beta=0.70
     Davidson diagonalization with overlap
     ethr =  4.77E-04,  avg # of iterations = 11.0

     negative rho (up, down):  1.941E+00 0.000E+00

     total cpu time spent up to now is     1674.9 secs

     total energy              =   -7414.73968238 Ry
     Harris-Foulkes estimate   =   -7432.74442358 Ry
     estimated scf accuracy    <      94.64326525 Ry

     iteration #  3     ecut=    50.00 Ry     beta=0.70
     Davidson diagonalization with overlap
     ethr =  4.77E-04,  avg # of iterations =  6.0

     negative rho (up, down):  1.952E+00 0.000E+00

     total cpu time spent up to now is     2276.6 secs

     total energy              =   -7424.08813602 Ry
     Harris-Foulkes estimate   =   -7425.88805115 Ry
     estimated scf accuracy    <       7.63237635 Ry

     iteration #  4     ecut=    50.00 Ry     beta=0.70
     Davidson diagonalization with overlap
     ethr =  4.77E-04,  avg # of iterations =  6.3

     negative rho (up, down):  1.958E+00 0.000E+00

     total cpu time spent up to now is     2600.3 secs

     total energy              =   -7425.09567769 Ry
     Harris-Foulkes estimate   =   -7425.48984854 Ry
     estimated scf accuracy    <       1.30199006 Ry

     iteration #  5     ecut=    50.00 Ry     beta=0.70
     Davidson diagonalization with overlap
     ethr =  1.63E-04,  avg # of iterations =  6.8

     negative rho (up, down):  1.962E+00 0.000E+00

     total cpu time spent up to now is     2964.4 secs

     total energy              =   -7424.95392337 Ry
     Harris-Foulkes estimate   =   -7425.64630260 Ry
     estimated scf accuracy    <       6.09902638 Ry

     iteration #  6     ecut=    50.00 Ry     beta=0.70
     Davidson diagonalization with overlap
     ethr =  1.63E-04,  avg # of iterations =  4.3

     negative rho (up, down):  1.968E+00 0.000E+00

     total cpu time spent up to now is     3264.8 secs

     total energy              =   -7425.28692950 Ry
     Harris-Foulkes estimate   =   -7425.32220703 Ry
     estimated scf accuracy    <       0.14045610 Ry

     iteration #  7     ecut=    50.00 Ry     beta=0.70
     Davidson diagonalization with overlap
     ethr =  1.76E-05,  avg # of iterations = 11.8

     negative rho (up, down):  1.970E+00 0.000E+00

     total cpu time spent up to now is     3782.2 secs

     total energy              =   -7425.28342249 Ry
     Harris-Foulkes estimate   =   -7425.31206539 Ry
     estimated scf accuracy    <       0.12880990 Ry

     iteration #  8     ecut=    50.00 Ry     beta=0.70
     Davidson diagonalization with overlap
     ethr =  1.61E-05,  avg # of iterations =  3.0

     negative rho (up, down):  1.971E+00 0.000E+00

     total cpu time spent up to now is     4048.0 secs

     total energy              =   -7425.28604566 Ry
     Harris-Foulkes estimate   =   -7425.30281029 Ry
     estimated scf accuracy    <       0.07080711 Ry

     iteration #  9     ecut=    50.00 Ry     beta=0.70
     Davidson diagonalization with overlap
     ethr =  8.85E-06,  avg # of iterations =  6.7

     negative rho (up, down):  1.972E+00 0.000E+00

     total cpu time spent up to now is     4384.0 secs

     total energy              =   -7425.28566228 Ry
     Harris-Foulkes estimate   =   -7425.29609481 Ry
     estimated scf accuracy    <       0.03933202 Ry

     iteration # 10     ecut=    50.00 Ry     beta=0.70
     Davidson diagonalization with overlap
     ethr =  4.92E-06,  avg # of iterations =  6.7

     negative rho (up, down):  1.973E+00 0.000E+00

     total cpu time spent up to now is     4736.8 secs

     total energy              =   -7425.28714219 Ry
     Harris-Foulkes estimate   =   -7425.29046730 Ry
     estimated scf accuracy    <       0.01059154 Ry

     iteration # 11     ecut=    50.00 Ry     beta=0.70
     Davidson diagonalization with overlap
     ethr =  1.32E-06,  avg # of iterations = 10.2

     negative rho (up, down):  1.974E+00 0.000E+00

     total cpu time spent up to now is     5131.4 secs

     total energy              =   -7425.28719889 Ry
     Harris-Foulkes estimate   =   -7425.28862670 Ry
     estimated scf accuracy    <       0.00560456 Ry

     iteration # 12     ecut=    50.00 Ry     beta=0.70
     Davidson diagonalization with overlap
     ethr =  7.01E-07,  avg # of iterations =  4.3

     negative rho (up, down):  1.975E+00 0.000E+00

     total cpu time spent up to now is     5460.8 secs

     total energy              =   -7425.28596314 Ry
     Harris-Foulkes estimate   =   -7425.28765053 Ry
     estimated scf accuracy    <       0.00222931 Ry

     iteration # 13     ecut=    50.00 Ry     beta=0.70
     Davidson diagonalization with overlap
     ethr =  2.79E-07,  avg # of iterations = 11.8

     negative rho (up, down):  1.975E+00 0.000E+00

     total cpu time spent up to now is     6067.9 secs

     total energy              =   -7425.28478110 Ry
     Harris-Foulkes estimate   =   -7425.28823859 Ry
     estimated scf accuracy    <       0.01908016 Ry

     iteration # 14     ecut=    50.00 Ry     beta=0.70
     Davidson diagonalization with overlap
     ethr =  2.79E-07,  avg # of iterations =  4.2

     negative rho (up, down):  1.975E+00 0.000E+00

     total cpu time spent up to now is     6423.1 secs

     total energy              =   -7425.28641564 Ry
     Harris-Foulkes estimate   =   -7425.28663315 Ry
     estimated scf accuracy    <       0.00069154 Ry

     iteration # 15     ecut=    50.00 Ry     beta=0.70
     Davidson diagonalization with overlap
     ethr =  8.64E-08,  avg # of iterations =  2.0

     negative rho (up, down):  1.975E+00 0.000E+00

     total cpu time spent up to now is     6693.5 secs

     total energy              =   -7425.28642232 Ry
     Harris-Foulkes estimate   =   -7425.28664432 Ry
     estimated scf accuracy    <       0.00099455 Ry

     iteration # 16     ecut=    50.00 Ry     beta=0.70
     Davidson diagonalization with overlap
     ethr =  8.64E-08,  avg # of iterations =  2.0

     negative rho (up, down):  1.974E+00 0.000E+00

     total cpu time spent up to now is     6937.9 secs

     total energy              =   -7425.28648190 Ry
     Harris-Foulkes estimate   =   -7425.28661293 Ry
     estimated scf accuracy    <       0.00104095 Ry

     iteration # 17     ecut=    50.00 Ry     beta=0.70
     Davidson diagonalization with overlap
     ethr =  8.64E-08,  avg # of iterations =  1.0

     negative rho (up, down):  1.974E+00 0.000E+00

     total cpu time spent up to now is     7168.2 secs

     total energy              =   -7425.28654353 Ry
     Harris-Foulkes estimate   =   -7425.28656590 Ry
     estimated scf accuracy    <       0.00007582 Ry

     iteration # 18     ecut=    50.00 Ry     beta=0.70
     Davidson diagonalization with overlap
     ethr =  9.48E-09,  avg # of iterations =  2.0

     negative rho (up, down):  1.974E+00 0.000E+00

     total cpu time spent up to now is     7419.5 secs

     total energy              =   -7425.28654993 Ry
     Harris-Foulkes estimate   =   -7425.28656054 Ry
     estimated scf accuracy    <       0.00004180 Ry

     iteration # 19     ecut=    50.00 Ry     beta=0.70
     Davidson diagonalization with overlap
     ethr =  5.23E-09,  avg # of iterations =  2.2

     negative rho (up, down):  1.974E+00 0.000E+00

     total cpu time spent up to now is     7676.2 secs

     total energy              =   -7425.28655078 Ry
     Harris-Foulkes estimate   =   -7425.28656256 Ry
     estimated scf accuracy    <       0.00006216 Ry

     iteration # 20     ecut=    50.00 Ry     beta=0.70
     Davidson diagonalization with overlap
     ethr =  5.23E-09,  avg # of iterations =  2.0

     negative rho (up, down):  1.974E+00 0.000E+00

     total cpu time spent up to now is     7920.7 secs

     total energy              =   -7425.28655604 Ry
     Harris-Foulkes estimate   =   -7425.28655770 Ry
     estimated scf accuracy    <       0.00000581 Ry

     iteration # 21     ecut=    50.00 Ry     beta=0.70
     Davidson diagonalization with overlap
     ethr =  7.26E-10,  avg # of iterations =  2.0

     negative rho (up, down):  1.974E+00 0.000E+00

     total cpu time spent up to now is     8180.9 secs

     total energy              =   -7425.28655696 Ry
     Harris-Foulkes estimate   =   -7425.28655764 Ry
     estimated scf accuracy    <       0.00000344 Ry

     iteration # 22     ecut=    50.00 Ry     beta=0.70
     Davidson diagonalization with overlap
     ethr =  4.30E-10,  avg # of iterations =  3.0

     negative rho (up, down):  1.974E+00 0.000E+00

     total cpu time spent up to now is     8450.4 secs

     total energy              =   -7425.28655754 Ry
     Harris-Foulkes estimate   =   -7425.28655763 Ry
     estimated scf accuracy    <       0.00000089 Ry

     iteration # 23     ecut=    50.00 Ry     beta=0.70
     Davidson diagonalization with overlap
     ethr =  1.11E-10,  avg # of iterations =  3.0

     negative rho (up, down):  1.974E+00 0.000E+00

     total cpu time spent up to now is     8721.4 secs

     total energy              =   -7425.28655758 Ry
     Harris-Foulkes estimate   =   -7425.28655771 Ry
     estimated scf accuracy    <       0.00000037 Ry

     iteration # 24     ecut=    50.00 Ry     beta=0.70
     Davidson diagonalization with overlap
     ethr =  4.68E-11,  avg # of iterations =  2.8

     negative rho (up, down):  1.974E+00 0.000E+00

     total cpu time spent up to now is     8988.3 secs

     total energy              =   -7425.28655767 Ry
     Harris-Foulkes estimate   =   -7425.28655772 Ry
     estimated scf accuracy    <       0.00000066 Ry

     iteration # 25     ecut=    50.00 Ry     beta=0.70
     Davidson diagonalization with overlap
     ethr =  4.68E-11,  avg # of iterations =  2.0

     negative rho (up, down):  1.974E+00 0.000E+00

     total cpu time spent up to now is     9231.0 secs

     total energy              =   -7425.28655776 Ry
     Harris-Foulkes estimate   =   -7425.28655773 Ry
     estimated scf accuracy    <       0.00000004 Ry

     iteration # 26     ecut=    50.00 Ry     beta=0.70
     Davidson diagonalization with overlap
     ethr =  4.97E-12,  avg # of iterations =  3.0

     negative rho (up, down):  1.974E+00 0.000E+00

     total cpu time spent up to now is     9552.8 secs

     total energy              =   -7425.28655775 Ry
     Harris-Foulkes estimate   =   -7425.28655779 Ry
     estimated scf accuracy    <       0.00000046 Ry

     iteration # 27     ecut=    50.00 Ry     beta=0.70
     Davidson diagonalization with overlap
     ethr =  4.97E-12,  avg # of iterations =  2.0

     negative rho (up, down):  1.974E+00 0.000E+00

     total cpu time spent up to now is     9812.9 secs

     total energy              =   -7425.28655778 Ry
     Harris-Foulkes estimate   =   -7425.28655779 Ry
     estimated scf accuracy    <       0.00000004 Ry

     iteration # 28     ecut=    50.00 Ry     beta=0.70
     Davidson diagonalization with overlap
     ethr =  4.97E-12,  avg # of iterations =  2.0

     negative rho (up, down):  1.974E+00 0.000E+00

     total cpu time spent up to now is    10061.2 secs

     total energy              =   -7425.28655780 Ry
     Harris-Foulkes estimate   =   -7425.28655779 Ry
     estimated scf accuracy    <       0.00000002 Ry

     iteration # 29     ecut=    50.00 Ry     beta=0.70
     Davidson diagonalization with overlap
     ethr =  2.02E-12,  avg # of iterations =  2.0

     negative rho (up, down):  1.974E+00 0.000E+00

     total cpu time spent up to now is    10306.6 secs

     End of self-consistent calculation

          k = 0.2500 0.2500 0.0833 (167653 PWs)   bands (ev):

   -19.3545  -7.1686  -6.7656  -6.2371  -6.2368  -5.8074  -5.3984  -5.3052
    -5.3050  -5.1091  -5.1091  -4.9913  -4.9910  -4.9127  -4.8897  -4.8167
    -4.7317  -4.7282  -4.6891  -4.6890  -4.5281  -4.5112  -4.5104  -4.5102
    -4.5036  -4.4475  -4.4475  -4.4356  -4.4355  -4.3986  -4.3860  -4.3856
    -4.3438  -4.3438  -4.3103  -4.3091  -4.2571  -4.2568  -4.2461  -4.2450
    -4.2399  -4.2266  -4.2266  -4.1849  -4.1671  -4.1670  -4.1602  -4.1601
    -4.1281  -4.0780  -4.0630  -4.0628  -4.0589  -4.0587  -4.0509  -4.0457
    -4.0451  -4.0450  -3.9800  -3.9796  -3.9300  -3.9299  -3.9175  -3.8915
    -3.8915  -3.8713  -3.8691  -3.8684  -3.8644  -3.8612  -3.8123  -3.8123
    -3.7992  -3.7990  -3.6939  -3.6936  -3.6877  -3.6874  -3.6502  -3.6398
    -3.6279  -3.5969  -3.5969  -3.5684  -3.5682  -3.5464  -3.5463  -3.5327
    -3.5325  -3.4778  -3.4777  -3.4584  -3.4445  -3.4320  -3.4308  -3.4306
    -3.4294  -3.4022  -3.4020  -3.3777  -3.3657  -3.3656  -3.3429  -3.3426
    -3.3102  -3.3099  -3.2915  -3.2642  -3.2641  -3.2268  -3.2266  -3.1912
    -3.1839  -3.1829  -3.1690  -3.1688  -3.1639  -3.1638  -3.1242  -3.1158
    -3.0742  -3.0742  -3.0664  -3.0568  -3.0561  -3.0548  -3.0303  -3.0303
    -3.0090  -3.0086  -3.0082  -2.9814  -2.9814  -2.9739  -2.9711  -2.9710
    -2.9354  -2.9302  -2.8953  -2.8951  -2.8943  -2.8914  -2.8913  -2.8123
    -2.8022  -2.7980  -2.7977  -2.7961  -2.7961  -2.7911  -2.7911  -2.7906
    -2.7903  -2.7810  -2.7733  -2.7562  -2.7536  -2.7530  -2.7528  -2.7381
    -2.7332  -2.6952  -2.6945  -2.6943  -2.6903  -2.6900  -2.6718  -2.6716
    -2.6627  -2.6626  -2.6605  -2.6009  -2.6009  -2.5955  -2.5955  -2.5904
    -2.5903  -2.5621  -2.5029  -2.5020  -2.5015  -2.5000  -2.4883  -2.4861
    -2.4812  -2.4702  -2.4700  -2.4332  -2.4329  -2.4242  -2.4238  -2.4233
    -2.4230  -2.3836  -2.3834  -2.3736  -2.3736  -2.3720  -2.3718  -2.3299
    -2.3138  -2.3085  -2.2550  -2.2549  -2.2362  -2.2348  -2.2295  -2.2294
    -2.1807  -2.1803  -2.1570  -2.1405  -2.1264  -2.1256  -2.1255  -2.1035
    -2.1035  -2.0938  -2.0772  -2.0353  -2.0350  -2.0227  -2.0224  -2.0219
    -2.0106  -2.0104  -1.9949  -1.9949  -1.9928  -1.9905  -1.9867  -1.9854
    -1.9849  -1.9728  -1.9727  -1.9549  -1.9548  -1.9526  -1.9466  -1.9435
    -1.9433  -1.9196  -1.9194  -1.9082  -1.9060  -1.9017  -1.9014  -1.8630
    -1.8291  -1.8288  -1.7935  -1.7762  -1.7761  -1.7653  -1.7650  -1.7417
    -1.7414  -1.7268  -1.7265  -1.7252  -1.7250  -1.7221  -1.7216  -1.6894
    -1.6893  -1.6891  -1.6430  -1.6428  -1.6029  -1.6027  -1.5557  -1.5556
    -1.5432  -1.5208  -1.5150  -1.5136  -1.4961  -1.4952  -1.4774  -1.4771
    -1.4724  -1.4722  -1.4707  -1.4701  -1.4698  -1.4671  -1.4471  -1.4470
    -1.4366  -1.4192  -1.3999  -1.3999  -1.3740  -1.3740  -1.3708  -1.3706
    -1.3674  -1.3647  -1.3538  -1.3427  -1.3426  -1.3277  -1.3274  -1.3147
    -1.3045  -1.2909  -1.2906  -1.2598  -1.2596  -1.2515  -1.2514  -1.2161
    -1.2158  -1.2076  -1.2074  -1.1988  -1.1987  -1.1771  -1.1769  -1.1650
    -1.1583  -1.1581  -1.1449  -1.1447  -1.1443  -1.1439  -1.1297  -1.1192
    -1.1185  -1.1113  -1.1112  -1.0991  -1.0944  -1.0943  -1.0876  -1.0486
    -1.0458  -1.0401  -1.0399  -1.0398  -1.0364  -0.9988  -0.9822  -0.9818
    -0.9814  -0.9813  -0.9768  -0.9766  -0.9717  -0.9583  -0.9572  -0.9199
    -0.9197  -0.9127  -0.9127  -0.8897  -0.8896  -0.8798  -0.8500  -0.8423
    -0.8150  -0.8147  -0.7869  -0.7867  -0.7837  -0.7830  -0.7821  -0.7785
    -0.7748  -0.7727  -0.7681  -0.7679  -0.7359  -0.7358  -0.7179  -0.7174
    -0.7123  -0.7120  -0.7105  -0.7105  -0.6917  -0.4135  -0.4074  -0.3502
    -0.3491  -0.3103  -0.1494  -0.0844  -0.0842  -0.0533   0.2348   0.2349
     0.5644   0.5654   0.6638   0.6639   0.7049   0.7055   0.8483   0.8486
     0.9728   0.9740   1.0602   1.6599   1.6780   1.6786   1.7189   1.7220
     1.7662   1.7683   1.8480   1.8483   2.0555   2.0557   2.2893   2.3701
     2.3713   2.3865   2.7663   2.7680   2.8405   2.8427   2.8483   2.8486
     2.9999   3.0006   3.0465   3.1434   3.1442   3.3715   3.3819   3.5103
     3.5374   3.5377   3.8086   3.8092   3.9217   3.9408   3.9408   4.0062
     4.0115   4.1277   4.1284   4.3641   4.3659   4.4526   4.4533   4.5771
     4.5822   4.6008   4.6023   4.6132   4.7654   5.3892   5.3904   5.4291
     5.5089   5.5092   5.6011   5.6893   5.6897   5.7230   5.7265   5.8034
     5.8036   5.8582   5.8586   5.8780   5.9026   6.0306   6.0899   6.1513
     6.1544   6.1695   6.1845   6.1941   6.1990   6.2028   6.2124   6.2418

          k = 0.2500 0.2500-0.2500 (167588 PWs)   bands (ev):

   -19.3545  -7.1686  -6.7656  -6.2371  -6.2368  -5.8074  -5.3984  -5.3052
    -5.3050  -5.1091  -5.1091  -4.9913  -4.9910  -4.9127  -4.8897  -4.8167
    -4.7317  -4.7282  -4.6891  -4.6890  -4.5281  -4.5112  -4.5104  -4.5102
    -4.5036  -4.4475  -4.4475  -4.4356  -4.4355  -4.3986  -4.3860  -4.3856
    -4.3438  -4.3437  -4.3103  -4.3091  -4.2571  -4.2568  -4.2461  -4.2450
    -4.2399  -4.2266  -4.2266  -4.1850  -4.1671  -4.1670  -4.1602  -4.1601
    -4.1281  -4.0780  -4.0630  -4.0628  -4.0589  -4.0587  -4.0509  -4.0457
    -4.0451  -4.0450  -3.9800  -3.9796  -3.9300  -3.9299  -3.9175  -3.8915
    -3.8915  -3.8712  -3.8691  -3.8683  -3.8644  -3.8612  -3.8123  -3.8123
    -3.7992  -3.7990  -3.6939  -3.6936  -3.6877  -3.6874  -3.6502  -3.6398
    -3.6279  -3.5969  -3.5969  -3.5684  -3.5682  -3.5464  -3.5463  -3.5327
    -3.5325  -3.4778  -3.4777  -3.4584  -3.4445  -3.4320  -3.4308  -3.4306
    -3.4294  -3.4022  -3.4020  -3.3777  -3.3656  -3.3656  -3.3429  -3.3426
    -3.3102  -3.3099  -3.2915  -3.2642  -3.2641  -3.2268  -3.2266  -3.1912
    -3.1839  -3.1829  -3.1690  -3.1688  -3.1639  -3.1638  -3.1242  -3.1158
    -3.0742  -3.0742  -3.0664  -3.0568  -3.0561  -3.0548  -3.0303  -3.0303
    -3.0090  -3.0086  -3.0082  -2.9814  -2.9814  -2.9739  -2.9711  -2.9710
    -2.9354  -2.9302  -2.8953  -2.8951  -2.8943  -2.8914  -2.8913  -2.8123
    -2.8022  -2.7980  -2.7977  -2.7961  -2.7961  -2.7911  -2.7911  -2.7906
    -2.7903  -2.7811  -2.7733  -2.7562  -2.7536  -2.7530  -2.7528  -2.7381
    -2.7332  -2.6952  -2.6945  -2.6943  -2.6902  -2.6900  -2.6718  -2.6716
    -2.6627  -2.6626  -2.6605  -2.6009  -2.6009  -2.5955  -2.5955  -2.5904
    -2.5903  -2.5621  -2.5029  -2.5020  -2.5015  -2.5000  -2.4883  -2.4861
    -2.4812  -2.4702  -2.4700  -2.4332  -2.4329  -2.4242  -2.4238  -2.4233
    -2.4230  -2.3836  -2.3834  -2.3736  -2.3736  -2.3720  -2.3718  -2.3299
    -2.3138  -2.3085  -2.2550  -2.2549  -2.2362  -2.2348  -2.2295  -2.2294
    -2.1807  -2.1803  -2.1570  -2.1405  -2.1264  -2.1256  -2.1255  -2.1035
    -2.1034  -2.0938  -2.0772  -2.0353  -2.0350  -2.0227  -2.0224  -2.0219
    -2.0106  -2.0104  -1.9949  -1.9949  -1.9929  -1.9905  -1.9867  -1.9854
    -1.9849  -1.9728  -1.9727  -1.9549  -1.9548  -1.9526  -1.9466  -1.9435
    -1.9433  -1.9196  -1.9194  -1.9082  -1.9060  -1.9017  -1.9014  -1.8630
    -1.8291  -1.8288  -1.7935  -1.7762  -1.7761  -1.7653  -1.7650  -1.7417
    -1.7414  -1.7268  -1.7265  -1.7252  -1.7250  -1.7221  -1.7216  -1.6894
    -1.6893  -1.6891  -1.6430  -1.6428  -1.6029  -1.6027  -1.5557  -1.5556
    -1.5433  -1.5208  -1.5150  -1.5136  -1.4961  -1.4952  -1.4774  -1.4771
    -1.4724  -1.4722  -1.4707  -1.4701  -1.4698  -1.4671  -1.4471  -1.4470
    -1.4366  -1.4192  -1.3999  -1.3999  -1.3740  -1.3740  -1.3708  -1.3706
    -1.3674  -1.3647  -1.3538  -1.3426  -1.3426  -1.3278  -1.3274  -1.3147
    -1.3045  -1.2909  -1.2906  -1.2598  -1.2596  -1.2515  -1.2514  -1.2161
    -1.2158  -1.2076  -1.2074  -1.1988  -1.1987  -1.1771  -1.1769  -1.1650
    -1.1583  -1.1581  -1.1449  -1.1447  -1.1443  -1.1439  -1.1297  -1.1192
    -1.1185  -1.1113  -1.1112  -1.0991  -1.0944  -1.0943  -1.0876  -1.0486
    -1.0458  -1.0401  -1.0399  -1.0398  -1.0364  -0.9988  -0.9822  -0.9818
    -0.9814  -0.9813  -0.9768  -0.9766  -0.9717  -0.9583  -0.9572  -0.9199
    -0.9197  -0.9127  -0.9127  -0.8897  -0.8896  -0.8798  -0.8500  -0.8423
    -0.8150  -0.8147  -0.7869  -0.7867  -0.7837  -0.7830  -0.7821  -0.7785
    -0.7748  -0.7727  -0.7681  -0.7679  -0.7359  -0.7358  -0.7179  -0.7174
    -0.7123  -0.7120  -0.7105  -0.7105  -0.6917  -0.4135  -0.4074  -0.3502
    -0.3491  -0.3103  -0.1494  -0.0844  -0.0842  -0.0533   0.2348   0.2349
     0.5644   0.5654   0.6638   0.6639   0.7049   0.7055   0.8483   0.8486
     0.9728   0.9740   1.0602   1.6599   1.6780   1.6786   1.7189   1.7220
     1.7662   1.7683   1.8480   1.8483   2.0555   2.0557   2.2893   2.3701
     2.3713   2.3865   2.7663   2.7680   2.8405   2.8427   2.8483   2.8486
     2.9999   3.0006   3.0466   3.1434   3.1442   3.3715   3.3819   3.5103
     3.5374   3.5378   3.8086   3.8092   3.9217   3.9408   3.9408   4.0065
     4.0116   4.1277   4.1284   4.3641   4.3659   4.4525   4.4533   4.5771
     4.5822   4.6008   4.6022   4.6105   4.7648   5.3888   5.3907   5.4126
     5.5089   5.5092   5.6796   5.6892   5.6897   5.6926   5.7250   5.8034
     5.8036   5.8582   5.8586   5.8928   5.9044   6.0014   6.1419   6.1473
     6.1690   6.1794   6.1846   6.1989   6.2008   6.2078   6.2106   6.2126

          k =-0.2500-0.2500 0.0833 (167653 PWs)   bands (ev):

   -19.3545  -7.1686  -6.7656  -6.2371  -6.2368  -5.8074  -5.3984  -5.3052
    -5.3050  -5.1091  -5.1091  -4.9913  -4.9910  -4.9127  -4.8897  -4.8167
    -4.7317  -4.7282  -4.6891  -4.6890  -4.5281  -4.5112  -4.5104  -4.5102
    -4.5036  -4.4475  -4.4475  -4.4356  -4.4355  -4.3986  -4.3860  -4.3856
    -4.3438  -4.3438  -4.3103  -4.3091  -4.2571  -4.2568  -4.2461  -4.2450
    -4.2399  -4.2266  -4.2266  -4.1849  -4.1671  -4.1670  -4.1602  -4.1601
    -4.1281  -4.0780  -4.0630  -4.0628  -4.0589  -4.0587  -4.0509  -4.0457
    -4.0451  -4.0450  -3.9800  -3.9796  -3.9300  -3.9299  -3.9175  -3.8915
    -3.8915  -3.8713  -3.8691  -3.8684  -3.8644  -3.8612  -3.8123  -3.8123
    -3.7992  -3.7990  -3.6939  -3.6936  -3.6877  -3.6874  -3.6502  -3.6398
    -3.6279  -3.5969  -3.5969  -3.5684  -3.5682  -3.5464  -3.5463  -3.5327
    -3.5325  -3.4778  -3.4777  -3.4584  -3.4445  -3.4320  -3.4308  -3.4306
    -3.4294  -3.4022  -3.4020  -3.3777  -3.3657  -3.3656  -3.3429  -3.3426
    -3.3102  -3.3099  -3.2915  -3.2642  -3.2641  -3.2268  -3.2266  -3.1912
    -3.1839  -3.1829  -3.1690  -3.1688  -3.1639  -3.1638  -3.1242  -3.1158
    -3.0742  -3.0742  -3.0664  -3.0568  -3.0561  -3.0548  -3.0303  -3.0303
    -3.0090  -3.0086  -3.0082  -2.9814  -2.9814  -2.9739  -2.9711  -2.9710
    -2.9354  -2.9302  -2.8953  -2.8951  -2.8943  -2.8914  -2.8913  -2.8123
    -2.8022  -2.7980  -2.7977  -2.7961  -2.7961  -2.7911  -2.7911  -2.7906
    -2.7903  -2.7810  -2.7733  -2.7562  -2.7536  -2.7530  -2.7528  -2.7381
    -2.7332  -2.6952  -2.6945  -2.6943  -2.6903  -2.6900  -2.6718  -2.6716
    -2.6627  -2.6626  -2.6605  -2.6009  -2.6009  -2.5955  -2.5955  -2.5904
    -2.5903  -2.5621  -2.5029  -2.5020  -2.5015  -2.5000  -2.4883  -2.4861
    -2.4812  -2.4702  -2.4700  -2.4332  -2.4329  -2.4242  -2.4238  -2.4233
    -2.4230  -2.3836  -2.3834  -2.3736  -2.3736  -2.3720  -2.3718  -2.3299
    -2.3138  -2.3085  -2.2550  -2.2549  -2.2362  -2.2348  -2.2295  -2.2294
    -2.1807  -2.1803  -2.1570  -2.1405  -2.1264  -2.1256  -2.1255  -2.1035
    -2.1035  -2.0938  -2.0772  -2.0353  -2.0350  -2.0227  -2.0224  -2.0219
    -2.0106  -2.0104  -1.9949  -1.9949  -1.9928  -1.9905  -1.9867  -1.9854
    -1.9849  -1.9728  -1.9727  -1.9549  -1.9548  -1.9526  -1.9466  -1.9435
    -1.9433  -1.9196  -1.9194  -1.9082  -1.9060  -1.9017  -1.9014  -1.8630
    -1.8291  -1.8288  -1.7935  -1.7762  -1.7761  -1.7653  -1.7650  -1.7417
    -1.7414  -1.7268  -1.7265  -1.7252  -1.7250  -1.7221  -1.7216  -1.6894
    -1.6893  -1.6891  -1.6430  -1.6428  -1.6029  -1.6027  -1.5557  -1.5556
    -1.5432  -1.5208  -1.5150  -1.5136  -1.4961  -1.4952  -1.4774  -1.4771
    -1.4724  -1.4722  -1.4707  -1.4701  -1.4698  -1.4671  -1.4471  -1.4470
    -1.4366  -1.4192  -1.3999  -1.3999  -1.3740  -1.3740  -1.3708  -1.3706
    -1.3674  -1.3647  -1.3538  -1.3427  -1.3426  -1.3277  -1.3274  -1.3147
    -1.3045  -1.2909  -1.2906  -1.2598  -1.2596  -1.2515  -1.2514  -1.2161
    -1.2158  -1.2076  -1.2074  -1.1988  -1.1987  -1.1771  -1.1769  -1.1650
    -1.1583  -1.1581  -1.1449  -1.1447  -1.1443  -1.1439  -1.1297  -1.1192
    -1.1185  -1.1113  -1.1112  -1.0991  -1.0944  -1.0943  -1.0876  -1.0486
    -1.0458  -1.0401  -1.0399  -1.0398  -1.0364  -0.9988  -0.9822  -0.9818
    -0.9814  -0.9813  -0.9768  -0.9766  -0.9717  -0.9583  -0.9572  -0.9199
    -0.9197  -0.9127  -0.9127  -0.8897  -0.8896  -0.8798  -0.8500  -0.8423
    -0.8150  -0.8147  -0.7869  -0.7867  -0.7837  -0.7830  -0.7821  -0.7785
    -0.7748  -0.7727  -0.7681  -0.7679  -0.7359  -0.7358  -0.7179  -0.7174
    -0.7123  -0.7120  -0.7105  -0.7105  -0.6917  -0.4135  -0.4074  -0.3502
    -0.3491  -0.3103  -0.1494  -0.0844  -0.0842  -0.0533   0.2348   0.2349
     0.5644   0.5654   0.6638   0.6639   0.7049   0.7055   0.8483   0.8486
     0.9728   0.9740   1.0602   1.6599   1.6780   1.6786   1.7189   1.7220
     1.7662   1.7683   1.8480   1.8483   2.0555   2.0557   2.2893   2.3701
     2.3713   2.3865   2.7663   2.7680   2.8405   2.8427   2.8483   2.8486
     2.9999   3.0006   3.0465   3.1434   3.1442   3.3715   3.3819   3.5103
     3.5374   3.5377   3.8086   3.8092   3.9217   3.9408   3.9408   4.0062
     4.0115   4.1277   4.1284   4.3641   4.3659   4.4526   4.4533   4.5771
     4.5822   4.6008   4.6023   4.6133   4.7654   5.3893   5.3904   5.4282
     5.5089   5.5092   5.6031   5.6893   5.6897   5.7229   5.7264   5.8034
     5.8036   5.8582   5.8586   5.8776   5.9026   6.0305   6.0851   6.1513
     6.1550   6.1695   6.1844   6.1960   6.1990   6.2037   6.2116   6.2418

          k =-0.2500 0.2500-0.0833 (167653 PWs)   bands (ev):

   -19.3545  -7.1686  -6.7656  -6.2372  -6.2368  -5.8074  -5.3984  -5.3053
    -5.3049  -5.1091  -5.1091  -4.9915  -4.9908  -4.9127  -4.8897  -4.8167
    -4.7317  -4.7282  -4.6892  -4.6890  -4.5281  -4.5112  -4.5104  -4.5102
    -4.5036  -4.4475  -4.4475  -4.4357  -4.4354  -4.3986  -4.3860  -4.3856
    -4.3438  -4.3437  -4.3103  -4.3091  -4.2572  -4.2568  -4.2461  -4.2450
    -4.2399  -4.2266  -4.2265  -4.1849  -4.1671  -4.1670  -4.1602  -4.1601
    -4.1281  -4.0780  -4.0630  -4.0628  -4.0589  -4.0586  -4.0509  -4.0457
    -4.0451  -4.0450  -3.9801  -3.9795  -3.9302  -3.9297  -3.9176  -3.8916
    -3.8914  -3.8713  -3.8690  -3.8684  -3.8644  -3.8612  -3.8123  -3.8123
    -3.7992  -3.7990  -3.6940  -3.6936  -3.6878  -3.6873  -3.6502  -3.6398
    -3.6279  -3.5970  -3.5969  -3.5684  -3.5681  -3.5465  -3.5462  -3.5328
    -3.5324  -3.4778  -3.4776  -3.4584  -3.4445  -3.4320  -3.4309  -3.4306
    -3.4294  -3.4022  -3.4020  -3.3777  -3.3657  -3.3656  -3.3429  -3.3425
    -3.3102  -3.3099  -3.2915  -3.2642  -3.2641  -3.2268  -3.2266  -3.1912
    -3.1839  -3.1829  -3.1691  -3.1688  -3.1639  -3.1638  -3.1242  -3.1158
    -3.0743  -3.0742  -3.0664  -3.0568  -3.0561  -3.0548  -3.0303  -3.0303
    -3.0091  -3.0085  -3.0083  -2.9814  -2.9814  -2.9739  -2.9711  -2.9710
    -2.9354  -2.9302  -2.8954  -2.8951  -2.8943  -2.8914  -2.8912  -2.8123
    -2.8022  -2.7979  -2.7977  -2.7963  -2.7959  -2.7911  -2.7910  -2.7906
    -2.7903  -2.7810  -2.7733  -2.7562  -2.7536  -2.7531  -2.7527  -2.7381
    -2.7332  -2.6952  -2.6945  -2.6943  -2.6903  -2.6899  -2.6718  -2.6716
    -2.6627  -2.6626  -2.6605  -2.6009  -2.6009  -2.5955  -2.5955  -2.5904
    -2.5902  -2.5621  -2.5029  -2.5019  -2.5016  -2.5000  -2.4883  -2.4861
    -2.4812  -2.4702  -2.4700  -2.4334  -2.4327  -2.4243  -2.4237  -2.4233
    -2.4230  -2.3836  -2.3833  -2.3736  -2.3736  -2.3721  -2.3717  -2.3299
    -2.3138  -2.3085  -2.2551  -2.2548  -2.2361  -2.2348  -2.2295  -2.2294
    -2.1809  -2.1802  -2.1570  -2.1405  -2.1264  -2.1256  -2.1255  -2.1036
    -2.1034  -2.0938  -2.0772  -2.0354  -2.0350  -2.0228  -2.0223  -2.0218
    -2.0106  -2.0103  -1.9950  -1.9949  -1.9929  -1.9905  -1.9867  -1.9855
    -1.9848  -1.9729  -1.9726  -1.9550  -1.9548  -1.9526  -1.9466  -1.9435
    -1.9433  -1.9196  -1.9193  -1.9083  -1.9060  -1.9018  -1.9013  -1.8630
    -1.8291  -1.8288  -1.7935  -1.7763  -1.7760  -1.7654  -1.7648  -1.7418
    -1.7413  -1.7269  -1.7264  -1.7252  -1.7250  -1.7222  -1.7215  -1.6894
    -1.6894  -1.6891  -1.6430  -1.6427  -1.6030  -1.6027  -1.5557  -1.5556
    -1.5432  -1.5207  -1.5150  -1.5136  -1.4961  -1.4952  -1.4775  -1.4770
    -1.4725  -1.4721  -1.4707  -1.4700  -1.4699  -1.4671  -1.4471  -1.4470
    -1.4366  -1.4192  -1.3999  -1.3999  -1.3740  -1.3739  -1.3709  -1.3705
    -1.3677  -1.3648  -1.3535  -1.3429  -1.3424  -1.3280  -1.3271  -1.3147
    -1.3045  -1.2909  -1.2905  -1.2598  -1.2595  -1.2516  -1.2514  -1.2162
    -1.2157  -1.2077  -1.2073  -1.1989  -1.1986  -1.1772  -1.1769  -1.1650
    -1.1583  -1.1580  -1.1450  -1.1446  -1.1444  -1.1438  -1.1297  -1.1192
    -1.1185  -1.1113  -1.1112  -1.0991  -1.0944  -1.0943  -1.0876  -1.0486
    -1.0457  -1.0401  -1.0399  -1.0398  -1.0364  -0.9988  -0.9824  -0.9817
    -0.9814  -0.9813  -0.9769  -0.9765  -0.9717  -0.9583  -0.9572  -0.9200
    -0.9196  -0.9127  -0.9127  -0.8897  -0.8895  -0.8798  -0.8500  -0.8423
    -0.8151  -0.8146  -0.7868  -0.7868  -0.7837  -0.7830  -0.7821  -0.7785
    -0.7748  -0.7727  -0.7682  -0.7678  -0.7360  -0.7357  -0.7181  -0.7173
    -0.7123  -0.7119  -0.7106  -0.7105  -0.6917  -0.4135  -0.4074  -0.3506
    -0.3488  -0.3103  -0.1494  -0.0845  -0.0841  -0.0533   0.2348   0.2349
     0.5641   0.5658   0.6638   0.6639   0.7047   0.7057   0.8482   0.8487
     0.9728   0.9740   1.0602   1.6599   1.6780   1.6786   1.7189   1.7220
     1.7653   1.7693   1.8479   1.8484   2.0555   2.0557   2.2893   2.3696
     2.3718   2.3865   2.7655   2.7688   2.8405   2.8427   2.8481   2.8487
     2.9999   3.0006   3.0465   3.1432   3.1443   3.3715   3.3818   3.5103
     3.5374   3.5378   3.8085   3.8093   3.9217   3.9408   3.9408   4.0085
     4.0099   4.1274   4.1286   4.3641   4.3659   4.4529   4.4535   4.5771
     4.5821   4.5995   4.6003   4.6084   4.7725   5.3844   5.3945   5.4435
     5.5086   5.5087   5.6437   5.6578   5.6891   5.6898   5.7276   5.8031
     5.8040   5.8581   5.8586   5.8853   5.9028   5.9524   6.1333   6.1474
     6.1598   6.1689   6.1850   6.1984   6.2006   6.2078   6.2126   6.2239

          k = 0.2500-0.2500-0.0833 (167653 PWs)   bands (ev):

   -19.3545  -7.1686  -6.7656  -6.2372  -6.2368  -5.8074  -5.3984  -5.3053
    -5.3049  -5.1091  -5.1091  -4.9915  -4.9908  -4.9127  -4.8897  -4.8167
    -4.7317  -4.7282  -4.6892  -4.6890  -4.5281  -4.5112  -4.5104  -4.5102
    -4.5036  -4.4475  -4.4475  -4.4357  -4.4354  -4.3986  -4.3860  -4.3856
    -4.3438  -4.3437  -4.3103  -4.3091  -4.2572  -4.2568  -4.2461  -4.2450
    -4.2399  -4.2266  -4.2265  -4.1849  -4.1671  -4.1670  -4.1602  -4.1601
    -4.1281  -4.0780  -4.0630  -4.0628  -4.0589  -4.0586  -4.0509  -4.0457
    -4.0451  -4.0450  -3.9801  -3.9795  -3.9302  -3.9297  -3.9176  -3.8916
    -3.8914  -3.8713  -3.8690  -3.8684  -3.8644  -3.8612  -3.8123  -3.8123
    -3.7992  -3.7990  -3.6940  -3.6936  -3.6878  -3.6873  -3.6502  -3.6398
    -3.6279  -3.5970  -3.5969  -3.5684  -3.5681  -3.5465  -3.5462  -3.5328
    -3.5324  -3.4778  -3.4776  -3.4584  -3.4445  -3.4320  -3.4309  -3.4306
    -3.4294  -3.4022  -3.4020  -3.3777  -3.3657  -3.3656  -3.3429  -3.3425
    -3.3102  -3.3099  -3.2915  -3.2642  -3.2641  -3.2268  -3.2266  -3.1912
    -3.1839  -3.1829  -3.1691  -3.1688  -3.1639  -3.1638  -3.1242  -3.1158
    -3.0743  -3.0742  -3.0664  -3.0568  -3.0561  -3.0548  -3.0303  -3.0303
    -3.0091  -3.0085  -3.0083  -2.9814  -2.9814  -2.9739  -2.9711  -2.9710
    -2.9354  -2.9302  -2.8954  -2.8951  -2.8943  -2.8914  -2.8912  -2.8123
    -2.8022  -2.7979  -2.7977  -2.7963  -2.7959  -2.7911  -2.7910  -2.7906
    -2.7903  -2.7810  -2.7733  -2.7562  -2.7536  -2.7531  -2.7527  -2.7381
    -2.7332  -2.6952  -2.6945  -2.6943  -2.6903  -2.6899  -2.6718  -2.6716
    -2.6627  -2.6626  -2.6605  -2.6009  -2.6009  -2.5955  -2.5955  -2.5904
    -2.5902  -2.5621  -2.5029  -2.5019  -2.5016  -2.5000  -2.4883  -2.4861
    -2.4812  -2.4702  -2.4700  -2.4334  -2.4327  -2.4243  -2.4237  -2.4233
    -2.4230  -2.3836  -2.3833  -2.3736  -2.3736  -2.3721  -2.3717  -2.3299
    -2.3138  -2.3085  -2.2551  -2.2548  -2.2361  -2.2348  -2.2295  -2.2294
    -2.1809  -2.1802  -2.1570  -2.1405  -2.1264  -2.1256  -2.1255  -2.1036
    -2.1034  -2.0938  -2.0772  -2.0354  -2.0350  -2.0228  -2.0223  -2.0218
    -2.0106  -2.0103  -1.9950  -1.9949  -1.9929  -1.9905  -1.9867  -1.9855
    -1.9848  -1.9729  -1.9726  -1.9550  -1.9548  -1.9526  -1.9466  -1.9435
    -1.9433  -1.9196  -1.9193  -1.9083  -1.9060  -1.9018  -1.9013  -1.8630
    -1.8291  -1.8288  -1.7935  -1.7763  -1.7760  -1.7654  -1.7648  -1.7418
    -1.7413  -1.7269  -1.7264  -1.7252  -1.7250  -1.7222  -1.7215  -1.6894
    -1.6894  -1.6891  -1.6430  -1.6427  -1.6030  -1.6027  -1.5557  -1.5556
    -1.5432  -1.5207  -1.5150  -1.5136  -1.4961  -1.4952  -1.4775  -1.4770
    -1.4725  -1.4721  -1.4707  -1.4700  -1.4699  -1.4671  -1.4471  -1.4470
    -1.4366  -1.4192  -1.3999  -1.3999  -1.3740  -1.3739  -1.3709  -1.3705
    -1.3677  -1.3648  -1.3535  -1.3429  -1.3424  -1.3280  -1.3271  -1.3147
    -1.3045  -1.2909  -1.2905  -1.2598  -1.2595  -1.2516  -1.2514  -1.2162
    -1.2157  -1.2077  -1.2073  -1.1989  -1.1986  -1.1772  -1.1769  -1.1650
    -1.1583  -1.1580  -1.1450  -1.1446  -1.1444  -1.1438  -1.1297  -1.1192
    -1.1185  -1.1113  -1.1112  -1.0991  -1.0944  -1.0943  -1.0876  -1.0486
    -1.0457  -1.0401  -1.0399  -1.0398  -1.0364  -0.9988  -0.9824  -0.9817
    -0.9814  -0.9813  -0.9769  -0.9765  -0.9717  -0.9583  -0.9572  -0.9200
    -0.9196  -0.9127  -0.9127  -0.8897  -0.8895  -0.8798  -0.8500  -0.8423
    -0.8151  -0.8146  -0.7868  -0.7868  -0.7837  -0.7830  -0.7821  -0.7785
    -0.7748  -0.7727  -0.7682  -0.7678  -0.7360  -0.7357  -0.7181  -0.7173
    -0.7123  -0.7119  -0.7106  -0.7105  -0.6917  -0.4135  -0.4074  -0.3506
    -0.3488  -0.3103  -0.1494  -0.0845  -0.0841  -0.0533   0.2348   0.2349
     0.5641   0.5658   0.6638   0.6639   0.7047   0.7057   0.8482   0.8487
     0.9728   0.9740   1.0602   1.6599   1.6780   1.6786   1.7189   1.7220
     1.7653   1.7693   1.8479   1.8484   2.0555   2.0557   2.2893   2.3696
     2.3718   2.3865   2.7655   2.7688   2.8405   2.8427   2.8481   2.8487
     2.9999   3.0006   3.0465   3.1432   3.1443   3.3715   3.3818   3.5103
     3.5374   3.5378   3.8085   3.8093   3.9217   3.9408   3.9408   4.0085
     4.0099   4.1274   4.1286   4.3641   4.3659   4.4529   4.4535   4.5771
     4.5821   4.5995   4.6003   4.6084   4.7725   5.3844   5.3945   5.4434
     5.5086   5.5087   5.6451   5.6565   5.6891   5.6898   5.7276   5.8031
     5.8040   5.8581   5.8586   5.8853   5.9028   5.9523   6.1329   6.1475
     6.1598   6.1689   6.1850   6.1984   6.2006   6.2078   6.2126   6.2241

          k =-0.2500 0.2500 0.2500 (167588 PWs)   bands (ev):

   -19.3545  -7.1686  -6.7656  -6.2372  -6.2368  -5.8074  -5.3984  -5.3053
    -5.3049  -5.1091  -5.1091  -4.9915  -4.9908  -4.9127  -4.8897  -4.8167
    -4.7317  -4.7282  -4.6892  -4.6890  -4.5281  -4.5112  -4.5104  -4.5102
    -4.5036  -4.4475  -4.4475  -4.4357  -4.4354  -4.3986  -4.3860  -4.3856
    -4.3438  -4.3437  -4.3103  -4.3091  -4.2571  -4.2568  -4.2461  -4.2450
    -4.2399  -4.2266  -4.2265  -4.1850  -4.1671  -4.1670  -4.1602  -4.1601
    -4.1281  -4.0780  -4.0630  -4.0628  -4.0589  -4.0586  -4.0509  -4.0457
    -4.0451  -4.0450  -3.9801  -3.9795  -3.9302  -3.9297  -3.9176  -3.8916
    -3.8914  -3.8713  -3.8690  -3.8684  -3.8644  -3.8612  -3.8123  -3.8123
    -3.7992  -3.7990  -3.6940  -3.6936  -3.6878  -3.6873  -3.6502  -3.6398
    -3.6279  -3.5970  -3.5969  -3.5684  -3.5681  -3.5465  -3.5462  -3.5328
    -3.5324  -3.4778  -3.4776  -3.4584  -3.4445  -3.4320  -3.4309  -3.4306
    -3.4294  -3.4022  -3.4020  -3.3777  -3.3656  -3.3656  -3.3429  -3.3425
    -3.3102  -3.3099  -3.2915  -3.2642  -3.2641  -3.2268  -3.2266  -3.1912
    -3.1839  -3.1829  -3.1691  -3.1688  -3.1639  -3.1638  -3.1242  -3.1159
    -3.0742  -3.0742  -3.0664  -3.0568  -3.0561  -3.0548  -3.0303  -3.0303
    -3.0091  -3.0085  -3.0083  -2.9814  -2.9814  -2.9739  -2.9711  -2.9710
    -2.9354  -2.9302  -2.8954  -2.8951  -2.8943  -2.8914  -2.8912  -2.8123
    -2.8022  -2.7979  -2.7977  -2.7963  -2.7959  -2.7911  -2.7910  -2.7906
    -2.7903  -2.7811  -2.7733  -2.7562  -2.7536  -2.7531  -2.7527  -2.7381
    -2.7332  -2.6952  -2.6945  -2.6943  -2.6903  -2.6899  -2.6718  -2.6716
    -2.6627  -2.6626  -2.6605  -2.6009  -2.6009  -2.5955  -2.5955  -2.5904
    -2.5902  -2.5621  -2.5029  -2.5019  -2.5016  -2.5000  -2.4883  -2.4861
    -2.4812  -2.4702  -2.4700  -2.4333  -2.4327  -2.4243  -2.4237  -2.4233
    -2.4230  -2.3836  -2.3833  -2.3736  -2.3736  -2.3721  -2.3718  -2.3299
    -2.3138  -2.3085  -2.2551  -2.2548  -2.2362  -2.2348  -2.2295  -2.2294
    -2.1809  -2.1802  -2.1570  -2.1405  -2.1264  -2.1256  -2.1255  -2.1036
    -2.1034  -2.0938  -2.0772  -2.0353  -2.0349  -2.0228  -2.0223  -2.0218
    -2.0106  -2.0103  -1.9950  -1.9949  -1.9929  -1.9905  -1.9867  -1.9855
    -1.9848  -1.9729  -1.9726  -1.9550  -1.9548  -1.9526  -1.9466  -1.9435
    -1.9433  -1.9196  -1.9193  -1.9083  -1.9060  -1.9018  -1.9013  -1.8630
    -1.8291  -1.8288  -1.7935  -1.7763  -1.7760  -1.7654  -1.7648  -1.7418
    -1.7413  -1.7269  -1.7264  -1.7252  -1.7250  -1.7222  -1.7215  -1.6894
    -1.6894  -1.6891  -1.6430  -1.6427  -1.6030  -1.6027  -1.5557  -1.5556
    -1.5433  -1.5207  -1.5150  -1.5136  -1.4961  -1.4952  -1.4775  -1.4770
    -1.4725  -1.4721  -1.4707  -1.4700  -1.4698  -1.4671  -1.4471  -1.4470
    -1.4366  -1.4192  -1.3999  -1.3999  -1.3740  -1.3739  -1.3709  -1.3705
    -1.3677  -1.3648  -1.3535  -1.3429  -1.3424  -1.3280  -1.3271  -1.3147
    -1.3045  -1.2909  -1.2905  -1.2598  -1.2595  -1.2516  -1.2514  -1.2162
    -1.2157  -1.2077  -1.2073  -1.1989  -1.1986  -1.1772  -1.1769  -1.1649
    -1.1583  -1.1580  -1.1450  -1.1446  -1.1444  -1.1438  -1.1297  -1.1192
    -1.1185  -1.1113  -1.1112  -1.0991  -1.0944  -1.0943  -1.0876  -1.0486
    -1.0458  -1.0401  -1.0399  -1.0398  -1.0364  -0.9988  -0.9824  -0.9817
    -0.9814  -0.9813  -0.9769  -0.9765  -0.9717  -0.9583  -0.9572  -0.9200
    -0.9196  -0.9127  -0.9127  -0.8897  -0.8895  -0.8798  -0.8500  -0.8423
    -0.8151  -0.8146  -0.7868  -0.7868  -0.7837  -0.7830  -0.7821  -0.7785
    -0.7748  -0.7727  -0.7682  -0.7678  -0.7360  -0.7357  -0.7181  -0.7173
    -0.7123  -0.7119  -0.7106  -0.7105  -0.6917  -0.4135  -0.4074  -0.3506
    -0.3487  -0.3103  -0.1494  -0.0845  -0.0841  -0.0533   0.2348   0.2349
     0.5641   0.5658   0.6638   0.6639   0.7047   0.7057   0.8482   0.8487
     0.9728   0.9740   1.0602   1.6599   1.6780   1.6786   1.7189   1.7220
     1.7653   1.7693   1.8479   1.8484   2.0555   2.0557   2.2893   2.3696
     2.3718   2.3865   2.7655   2.7688   2.8405   2.8427   2.8481   2.8487
     2.9999   3.0006   3.0465   3.1432   3.1443   3.3715   3.3818   3.5103
     3.5374   3.5378   3.8085   3.8093   3.9217   3.9408   3.9408   4.0086
     4.0101   4.1274   4.1286   4.3641   4.3659   4.4529   4.4535   4.5771
     4.5821   4.5984   4.6001   4.6072   4.7716   5.3848   5.3917   5.4401
     5.5086   5.5089   5.6191   5.6891   5.6898   5.7186   5.7261   5.8030
     5.8040   5.8581   5.8586   5.8935   5.9034   6.0404   6.0683   6.1600
     6.1637   6.1698   6.1847   6.1985   6.2006   6.2126   6.2266   6.2376

     the Fermi energy is     0.9228 ev

!    total energy              =   -7425.28655781 Ry
     Harris-Foulkes estimate   =   -7425.28655780 Ry
     estimated scf accuracy    <          5.9E-09 Ry

     The total energy is the sum of the following terms:

     one-electron contribution =  -48239.58155069 Ry
     hartree contribution      =   24672.32314560 Ry
     xc contribution           =   -3604.19310296 Ry
     ewald contribution        =   19746.16788390 Ry
     smearing contrib. (-TS)   =      -0.00293366 Ry

     convergence has been achieved in  29 iterations

     Writing output data file 3771056.save

     init_run     :    139.20s CPU    145.41s WALL (       1 calls)
     electrons    :   9792.71s CPU  10159.41s WALL (       1 calls)

     Called by init_run:
     wfcinit      :    107.19s CPU    112.64s WALL (       1 calls)
     potinit      :      6.51s CPU      6.96s WALL (       1 calls)

     Called by electrons:
     c_bands      :   8233.80s CPU   8523.40s WALL (      30 calls)
     sum_band     :   1028.21s CPU   1089.74s WALL (      30 calls)
     v_of_rho     :     81.84s CPU     92.02s WALL (      30 calls)
     newd         :    462.97s CPU    467.70s WALL (      30 calls)
     mix_rho      :      2.51s CPU      2.97s WALL (      30 calls)
     vdW_energy   :      8.81s CPU      9.33s WALL (      30 calls)
     vdW_ffts     :     35.17s CPU     40.26s WALL (      60 calls)
     vdW_v        :     11.53s CPU     12.31s WALL (      30 calls)

     Called by c_bands:
     init_us_2    :     12.52s CPU     12.86s WALL (     366 calls)
     cegterg      :   8159.21s CPU   8447.84s WALL (     180 calls)

     Called by *egterg:
     h_psi        :   2949.06s CPU   3202.83s WALL (     977 calls)
     s_psi        :    674.36s CPU    676.75s WALL (     977 calls)
     g_psi        :      6.66s CPU      6.72s WALL (     791 calls)
     cdiaghg      :   2652.35s CPU   2659.08s WALL (     965 calls)

     Called by h_psi:
     add_vuspsi   :    673.82s CPU    676.18s WALL (     977 calls)

     General routines
     calbec       :    936.02s CPU    938.73s WALL (    1157 calls)
     fft          :     66.90s CPU     76.71s WALL (    1980 calls)
     ffts         :      1.02s CPU      1.28s WALL (      60 calls)
     fftw         :   1795.91s CPU   2085.00s WALL (  486224 calls)
     interpolate  :      2.75s CPU      3.43s WALL (      60 calls)
     davcio       :      0.01s CPU      0.13s WALL (       6 calls)

     Parallel routines
     fft_scatter  :    954.43s CPU   1163.54s WALL (  488264 calls)

     PWSCF        :     2h45m CPU        2h51m WALL


   This run was terminated on:   7:26:15   3Jul2015            

=------------------------------------------------------------------------------=
   JOB DONE.
=------------------------------------------------------------------------------=
