Setting SGE environment for SCC

     Program PWSCF v.5.1.2 starts on  3Jul2015 at 12:29:44 

     This program is part of the open-source Quantum ESPRESSO suite
     for quantum simulation of materials; please cite
         "P. Giannozzi et al., J. Phys.:Condens. Matter 21 395502 (2009);
          URL http://www.quantum-espresso.org", 
     in publications or presentations arising from this work. More details at
     http://www.quantum-espresso.org/quote

     Parallel version (MPI), running on    32 processors
     R & G space division:  proc/nbgrp/npool/nimage =      32
     Reading input from hollow.O1.Au5859.d.2.7.phi.45.psi.0.in
Warning: card &IONS ignored
Warning: card / ignored
Warning: card &CELL ignored
Warning: card / ignored

     Current dimensions of program PWSCF are:
     Max number of different atomic species (ntypx) = 10
     Max number of k-points (npk) =  40000
     Max angular momentum in pseudopotentials (lmaxx) =  3

     IMPORTANT: XC functional enforced from input :
     Exchange-correlation      = VDW-DF ( 1  4  4  0 1 0)
     Any further DFT definition will be discarded
     Please, verify this is what you really want


     Subspace diagonalization in iterative solution of the eigenvalue problem:
     a serial algorithm will be used


     Parallelization info
     --------------------
     sticks:   dense  smooth     PW     G-vecs:    dense   smooth      PW
     Min         578     289     74               118518    41891    5486
     Max         579     290     75               118533    41932    5497
     Sum       18505    9265   2385              3792731  1341081  175711


     Title: 
     hollow.O1.Au5859.d.2.7.phi.45.psi.0                                        


     bravais-lattice index     =            8
     lattice parameter (alat)  =      24.1233  a.u.
     unit-cell volume          =   28076.2361 (a.u.)^3
     number of atoms/cell      =           75
     number of atomic types    =            3
     number of electrons       =       800.00
     number of Kohn-Sham states=          480
     kinetic-energy cutoff     =      50.0000  Ry
     charge density cutoff     =     400.0000  Ry
     convergence threshold     =      1.0E-08
     mixing beta               =       0.7000
     number of iterations used =            8  plain     mixing
     Exchange-correlation      = VDW-DF ( 1  4  4  0 1 0)

     celldm(1)=  24.123277  celldm(2)=   1.000000  celldm(3)=   2.000000
     celldm(4)=   0.000000  celldm(5)=   0.000000  celldm(6)=   0.000000

     crystal axes: (cart. coord. in units of alat)
               a(1) = (   1.000000   0.000000   0.000000 )  
               a(2) = (   0.000000   1.000000   0.000000 )  
               a(3) = (   0.000000   0.000000   2.000000 )  

     reciprocal axes: (cart. coord. in units 2 pi/alat)
               b(1) = (  1.000000  0.000000  0.000000 )  
               b(2) = (  0.000000  1.000000  0.000000 )  
               b(3) = (  0.000000  0.000000  0.500000 )  


     PseudoPot. # 1 for Au read from file:
     /home/scc/andrejb/qe/pseudo/Au.pbe-nd-van.UPF
     MD5 check sum: 458681b50f36d87ef23c61b04bba420a
     Pseudo is Ultrasoft + core correction, Zval = 11.0
     Generated by new atomic code, or converted to UPF format
     Using radial grid of  985 points,  3 beta functions with: 
                l(1) =   1
                l(2) =   2
                l(3) =   2
     Q(r) pseudized with  8 coefficients,  rinner =    1.100   1.100   1.100
                                                       1.100   1.100

     PseudoPot. # 2 for H  read from file:
     /home/scc/andrejb/qe/pseudo/H.pbe-van_ak.UPF
     MD5 check sum: 403db7282739603aa925980fa9b8608d
     Pseudo is Ultrasoft, Zval =  1.0
     Generated by new atomic code, or converted to UPF format
     Using radial grid of  615 points,  1 beta functions with: 
                l(1) =   0
     Q(r) pseudized with  8 coefficients,  rinner =    0.800

     PseudoPot. # 3 for O  read from file:
     /home/scc/andrejb/qe/pseudo/O.pbe-van_ak.UPF
     MD5 check sum: 4b8c549914a63cae506c6ff22b5af4fe
     Pseudo is Ultrasoft, Zval =  6.0
     Generated by new atomic code, or converted to UPF format
     Using radial grid of  737 points,  4 beta functions with: 
                l(1) =   0
                l(2) =   0
                l(3) =   1
                l(4) =   1
     Q(r) pseudized with  8 coefficients,  rinner =    0.800   0.800   0.800


     vdW kernel table read from file vdW_kernel_table
     MD5 check sum: 48e77a2e26edf626eeb0eaa751ad5cac

     atomic species   valence    mass     pseudopotential
        Au            11.00   196.96657     Au( 1.00)
        H              1.00     1.01000     H ( 1.00)
        O              6.00    16.00000     O ( 1.00)

     No symmetry found



   Cartesian axes

     site n.     atom                  positions (alat units)
         1           O   tau(   1) = (   0.1666051   0.1666105   0.9066623  )
         2           H   tau(   2) = (   0.1610146   0.1056232   0.9521562  )
         3           H   tau(   3) = (   0.1720135   0.2257614   0.9545200  )
         4           Au  tau(   4) = (   0.0000000   0.0000000   0.0000000  )
         5           Au  tau(   5) = (   0.3332217   0.0000000   0.0000000  )
         6           Au  tau(   6) = (   0.6664434   0.0000000   0.0000000  )
         7           Au  tau(   7) = (   0.1666109   0.1666109   0.0000000  )
         8           Au  tau(   8) = (   0.4998326   0.1666109   0.0000000  )
         9           Au  tau(   9) = (   0.8330542   0.1666109   0.0000000  )
        10           Au  tau(  10) = (   0.0000000   0.3332217   0.0000000  )
        11           Au  tau(  11) = (   0.3332217   0.3332217   0.0000000  )
        12           Au  tau(  12) = (   0.6664434   0.3332217   0.0000000  )
        13           Au  tau(  13) = (   0.1666109   0.4998326   0.0000000  )
        14           Au  tau(  14) = (   0.4998326   0.4998326   0.0000000  )
        15           Au  tau(  15) = (   0.8330542   0.4998326   0.0000000  )
        16           Au  tau(  16) = (   0.0000000   0.6664434   0.0000000  )
        17           Au  tau(  17) = (   0.3332217   0.6664434   0.0000000  )
        18           Au  tau(  18) = (   0.6664434   0.6664434   0.0000000  )
        19           Au  tau(  19) = (   0.1666109   0.8330542   0.0000000  )
        20           Au  tau(  20) = (   0.4998326   0.8330542   0.0000000  )
        21           Au  tau(  21) = (   0.8330542   0.8330542   0.0000000  )
        22           Au  tau(  22) = (   0.1666109   0.0000000   0.1666109  )
        23           Au  tau(  23) = (   0.4998326   0.0000000   0.1666109  )
        24           Au  tau(  24) = (   0.8330542   0.0000000   0.1666109  )
        25           Au  tau(  25) = (   0.0000000   0.1666109   0.1666109  )
        26           Au  tau(  26) = (   0.3332217   0.1666109   0.1666109  )
        27           Au  tau(  27) = (   0.6664434   0.1666109   0.1666109  )
        28           Au  tau(  28) = (   0.1666109   0.3332217   0.1666109  )
        29           Au  tau(  29) = (   0.4998326   0.3332217   0.1666109  )
        30           Au  tau(  30) = (   0.8330542   0.3332217   0.1666109  )
        31           Au  tau(  31) = (   0.0000000   0.4998326   0.1666109  )
        32           Au  tau(  32) = (   0.3332217   0.4998326   0.1666109  )
        33           Au  tau(  33) = (   0.6664434   0.4998326   0.1666109  )
        34           Au  tau(  34) = (   0.1666109   0.6664434   0.1666109  )
        35           Au  tau(  35) = (   0.4998326   0.6664434   0.1666109  )
        36           Au  tau(  36) = (   0.8330542   0.6664434   0.1666109  )
        37           Au  tau(  37) = (   0.0000000   0.8330542   0.1666109  )
        38           Au  tau(  38) = (   0.3332217   0.8330542   0.1666109  )
        39           Au  tau(  39) = (   0.6664434   0.8330542   0.1666109  )
        40           Au  tau(  40) = (  -0.0000182  -0.0000182   0.3335478  )
        41           Au  tau(  41) = (   0.3332215  -0.0000181   0.3335473  )
        42           Au  tau(  42) = (   0.6664447  -0.0000183   0.3335481  )
        43           Au  tau(  43) = (  -0.0000181   0.3332215   0.3335473  )
        44           Au  tau(  44) = (   0.3332215   0.3332215   0.3335468  )
        45           Au  tau(  45) = (   0.6664445   0.3332215   0.3335477  )
        46           Au  tau(  46) = (  -0.0000183   0.6664447   0.3335481  )
        47           Au  tau(  47) = (   0.3332215   0.6664445   0.3335477  )
        48           Au  tau(  48) = (   0.6664446   0.6664446   0.3335486  )
        49           Au  tau(  49) = (   0.1666097   0.1666097   0.3335483  )
        50           Au  tau(  50) = (   0.4998320   0.1666098   0.3335477  )
        51           Au  tau(  51) = (   0.8330732   0.1666096   0.3335480  )
        52           Au  tau(  52) = (   0.1666098   0.4998320   0.3335477  )
        53           Au  tau(  53) = (   0.4998322   0.4998322   0.3335470  )
        54           Au  tau(  54) = (   0.8330731   0.4998322   0.3335474  )
        55           Au  tau(  55) = (   0.1666096   0.8330732   0.3335480  )
        56           Au  tau(  56) = (   0.4998322   0.8330731   0.3335474  )
        57           Au  tau(  57) = (   0.8330731   0.8330731   0.3335478  )
        58           Au  tau(  58) = (   0.1666104  -0.0000111   0.4993095  )
        59           Au  tau(  59) = (   0.4998323  -0.0000112   0.4993099  )
        60           Au  tau(  60) = (   0.8330660  -0.0000111   0.4993009  )
        61           Au  tau(  61) = (  -0.0000111   0.1666104   0.4993095  )
        62           Au  tau(  62) = (   0.3332213   0.1666106   0.4993185  )
        63           Au  tau(  63) = (   0.6664437   0.1666106   0.4993187  )
        64           Au  tau(  64) = (   0.1666106   0.3332213   0.4993185  )
        65           Au  tau(  65) = (   0.4998324   0.3332216   0.4993185  )
        66           Au  tau(  66) = (   0.8330658   0.3332215   0.4993102  )
        67           Au  tau(  67) = (  -0.0000112   0.4998323   0.4993099  )
        68           Au  tau(  68) = (   0.3332216   0.4998324   0.4993185  )
        69           Au  tau(  69) = (   0.6664437   0.4998325   0.4993187  )
        70           Au  tau(  70) = (   0.1666106   0.6664437   0.4993187  )
        71           Au  tau(  71) = (   0.4998325   0.6664437   0.4993187  )
        72           Au  tau(  72) = (   0.8330658   0.6664438   0.4993102  )
        73           Au  tau(  73) = (  -0.0000111   0.8330660   0.4993009  )
        74           Au  tau(  74) = (   0.3332215   0.8330658   0.4993102  )
        75           Au  tau(  75) = (   0.6664438   0.8330658   0.4993102  )

     number of k points=     6  Marzari-Vanderbilt smearing, width (Ry)=  0.0200
                       cart. coord. in units 2pi/alat
        k(    1) = (   0.2500000   0.2500000   0.0833333), wk =   0.3333333
        k(    2) = (   0.2500000   0.2500000  -0.2500000), wk =   0.3333333
        k(    3) = (  -0.2500000  -0.2500000   0.0833333), wk =   0.3333333
        k(    4) = (  -0.2500000   0.2500000  -0.0833333), wk =   0.3333333
        k(    5) = (   0.2500000  -0.2500000  -0.0833333), wk =   0.3333333
        k(    6) = (  -0.2500000   0.2500000   0.2500000), wk =   0.3333333

     Dense  grid:  3792731 G-vectors     FFT dimensions: ( 160, 160, 320)

     Smooth grid:  1341081 G-vectors     FFT dimensions: ( 120, 120, 225)

     Largest allocated arrays     est. size (Mb)     dimensions
        Kohn-Sham Wavefunctions        38.58 Mb     (    5267,  480)
        NL pseudopotentials            76.03 Mb     (    5267,  946)
        Each V/rho on FFT grid          3.91 Mb     (  256000)
        Each G-vector array             0.90 Mb     (  118520)
        G-vector shells                 0.08 Mb     (   10286)
     Largest temporary arrays     est. size (Mb)     dimensions
        Auxiliary wavefunctions       154.31 Mb     (    5267, 1920)
        Each subspace H/S matrix       56.25 Mb     (    1920, 1920)
        Each <psi_i|beta_j> matrix      6.93 Mb     (     946,  480)
        Arrays for rho mixing          31.25 Mb     (  256000,    8)

     Initial potential from superposition of free atoms
     Check: negative starting charge=   -1.944603

     starting charge  799.16392, renormalised to  800.00000

     negative rho (up, down):  1.947E+00 0.000E+00


     ************************************************************************
     *
     * You are using vdW-DF for exchange-correlation in this calculation.
     * Please cite the following three references that made this development
     * possible:
     *
     *   M. Dion, H. Rydberg, E. Schroder, D. C. Langreth, and
     *   B. I. Lundqvist, Phys. Rev. Lett. 92, 246401 (2004).
     *
     *   T. Thonhauser, V. R. Cooper, S. Li, A. Puzder, P. Hyldgaard, and
     *   D. C. Langreth, Phys. Rev. B 76, 125112 (2007).
     *
     *   G. Roman-Perez and J. M. Soler, Phys. Rev. Lett. 103, 096102 (2009).
     *
     *
     * If you are using vdW-DF2, please also cite:
     *
     *   K. Lee, E. D. Murray, L. Kong, B. I. Lundqvist, and
     *   D. C. Langreth, Phys. Rev. B 82, 081101(R) (2010).
     *
     *
     * If you are calculating the stress with vdW-DF, please also cite:
     *
     *   R. Sabatini, E. Kucukbenli, B. Kolb, T. Thonhauser, and
     *   S. de Gironcoli, J. Phys.: Condens. Matter 24, 424209 (2012).
     *
     ************************************************************************

     Carrying out vdW-DF run using the following parameters:

     Nqs =      20    Nr_points =    1024   r_max =   100.000
     q_mesh =
               0.00001000     0.04494208     0.09755937     0.15916263
               0.23128650     0.31572767     0.41458969     0.53033537
               0.66584808     0.82450364     1.01025438     1.22772762
               1.48234092     1.78043706     2.12944203     2.53805004
               3.01644009     3.57652955     4.23227104     5.00000000

     Gradients computed in reciprocal space

     ************************************************************************


     Starting wfc are  654 randomized atomic wfcs

     total cpu time spent up to now is      158.9 secs

     Self-consistent Calculation

     iteration #  1     ecut=    50.00 Ry     beta=0.70
     Davidson diagonalization with overlap
     ethr =  1.00E-02,  avg # of iterations =  3.0

     Threshold (ethr) on eigenvalues was too large:
     Diagonalizing with lowered threshold

     Davidson diagonalization with overlap
     ethr =  4.30E-04,  avg # of iterations =  2.7

     negative rho (up, down):  1.948E+00 0.000E+00

     total cpu time spent up to now is      733.2 secs

     total energy              =   -7422.99574796 Ry
     Harris-Foulkes estimate   =   -7426.08702072 Ry
     estimated scf accuracy    <       3.81247219 Ry

     iteration #  2     ecut=    50.00 Ry     beta=0.70
     Davidson diagonalization with overlap
     ethr =  4.77E-04,  avg # of iterations = 11.0

     negative rho (up, down):  1.941E+00 0.000E+00

     total cpu time spent up to now is     1602.7 secs

     total energy              =   -7414.73905315 Ry
     Harris-Foulkes estimate   =   -7432.74388635 Ry
     estimated scf accuracy    <      94.64591040 Ry

     iteration #  3     ecut=    50.00 Ry     beta=0.70
     Davidson diagonalization with overlap
     ethr =  4.77E-04,  avg # of iterations =  6.2

     negative rho (up, down):  1.952E+00 0.000E+00

     total cpu time spent up to now is     2216.6 secs

     total energy              =   -7424.08828834 Ry
     Harris-Foulkes estimate   =   -7425.88838853 Ry
     estimated scf accuracy    <       7.63398988 Ry

     iteration #  4     ecut=    50.00 Ry     beta=0.70
     Davidson diagonalization with overlap
     ethr =  4.77E-04,  avg # of iterations =  6.0

     negative rho (up, down):  1.958E+00 0.000E+00

     total cpu time spent up to now is     2552.1 secs

     total energy              =   -7425.09524012 Ry
     Harris-Foulkes estimate   =   -7425.48992122 Ry
     estimated scf accuracy    <       1.30468480 Ry

     iteration #  5     ecut=    50.00 Ry     beta=0.70
     Davidson diagonalization with overlap
     ethr =  1.63E-04,  avg # of iterations =  7.2

     negative rho (up, down):  1.962E+00 0.000E+00

     total cpu time spent up to now is     2935.6 secs

     total energy              =   -7424.95375490 Ry
     Harris-Foulkes estimate   =   -7425.64654568 Ry
     estimated scf accuracy    <       6.10314997 Ry

     iteration #  6     ecut=    50.00 Ry     beta=0.70
     Davidson diagonalization with overlap
     ethr =  1.63E-04,  avg # of iterations =  4.0

     negative rho (up, down):  1.968E+00 0.000E+00

     total cpu time spent up to now is     3267.8 secs

     total energy              =   -7425.28690413 Ry
     Harris-Foulkes estimate   =   -7425.32218430 Ry
     estimated scf accuracy    <       0.14038218 Ry

     iteration #  7     ecut=    50.00 Ry     beta=0.70
     Davidson diagonalization with overlap
     ethr =  1.75E-05,  avg # of iterations = 13.5

     negative rho (up, down):  1.970E+00 0.000E+00

     total cpu time spent up to now is     3713.0 secs

     total energy              =   -7425.28339264 Ry
     Harris-Foulkes estimate   =   -7425.31204028 Ry
     estimated scf accuracy    <       0.12885851 Ry

     iteration #  8     ecut=    50.00 Ry     beta=0.70
     Davidson diagonalization with overlap
     ethr =  1.61E-05,  avg # of iterations =  3.2

     negative rho (up, down):  1.971E+00 0.000E+00

     total cpu time spent up to now is     3989.0 secs

     total energy              =   -7425.28603005 Ry
     Harris-Foulkes estimate   =   -7425.30279398 Ry
     estimated scf accuracy    <       0.07080329 Ry

     iteration #  9     ecut=    50.00 Ry     beta=0.70
     Davidson diagonalization with overlap
     ethr =  8.85E-06,  avg # of iterations =  7.2

     negative rho (up, down):  1.972E+00 0.000E+00

     total cpu time spent up to now is     4330.2 secs

     total energy              =   -7425.28565462 Ry
     Harris-Foulkes estimate   =   -7425.29606951 Ry
     estimated scf accuracy    <       0.03922838 Ry

     iteration # 10     ecut=    50.00 Ry     beta=0.70
     Davidson diagonalization with overlap
     ethr =  4.90E-06,  avg # of iterations =  6.3

     negative rho (up, down):  1.973E+00 0.000E+00

     total cpu time spent up to now is     4671.6 secs

     total energy              =   -7425.28712995 Ry
     Harris-Foulkes estimate   =   -7425.29045109 Ry
     estimated scf accuracy    <       0.01057614 Ry

     iteration # 11     ecut=    50.00 Ry     beta=0.70
     Davidson diagonalization with overlap
     ethr =  1.32E-06,  avg # of iterations =  7.0

     negative rho (up, down):  1.974E+00 0.000E+00

     total cpu time spent up to now is     5024.7 secs

     total energy              =   -7425.28718705 Ry
     Harris-Foulkes estimate   =   -7425.28861376 Ry
     estimated scf accuracy    <       0.00560084 Ry

     iteration # 12     ecut=    50.00 Ry     beta=0.70
     Davidson diagonalization with overlap
     ethr =  7.00E-07,  avg # of iterations =  4.5

     negative rho (up, down):  1.975E+00 0.000E+00

     total cpu time spent up to now is     5305.3 secs

     total energy              =   -7425.28594652 Ry
     Harris-Foulkes estimate   =   -7425.28763894 Ry
     estimated scf accuracy    <       0.00223536 Ry

     iteration # 13     ecut=    50.00 Ry     beta=0.70
     Davidson diagonalization with overlap
     ethr =  2.79E-07,  avg # of iterations = 11.7

     negative rho (up, down):  1.975E+00 0.000E+00

     total cpu time spent up to now is     5875.8 secs

     total energy              =   -7425.28475438 Ry
     Harris-Foulkes estimate   =   -7425.28824617 Ry
     estimated scf accuracy    <       0.01927885 Ry

     iteration # 14     ecut=    50.00 Ry     beta=0.70
     Davidson diagonalization with overlap
     ethr =  2.79E-07,  avg # of iterations =  4.2

     negative rho (up, down):  1.975E+00 0.000E+00

     total cpu time spent up to now is     6238.9 secs

     total energy              =   -7425.28640497 Ry
     Harris-Foulkes estimate   =   -7425.28662254 Ry
     estimated scf accuracy    <       0.00069100 Ry

     iteration # 15     ecut=    50.00 Ry     beta=0.70
     Davidson diagonalization with overlap
     ethr =  8.64E-08,  avg # of iterations =  2.0

     negative rho (up, down):  1.975E+00 0.000E+00

     total cpu time spent up to now is     6564.1 secs

     total energy              =   -7425.28641169 Ry
     Harris-Foulkes estimate   =   -7425.28663375 Ry
     estimated scf accuracy    <       0.00099475 Ry

     iteration # 16     ecut=    50.00 Ry     beta=0.70
     Davidson diagonalization with overlap
     ethr =  8.64E-08,  avg # of iterations =  2.0

     negative rho (up, down):  1.974E+00 0.000E+00

     total cpu time spent up to now is     6825.8 secs

     total energy              =   -7425.28647125 Ry
     Harris-Foulkes estimate   =   -7425.28660226 Ry
     estimated scf accuracy    <       0.00104001 Ry

     iteration # 17     ecut=    50.00 Ry     beta=0.70
     Davidson diagonalization with overlap
     ethr =  8.64E-08,  avg # of iterations =  1.0

     negative rho (up, down):  1.974E+00 0.000E+00

     total cpu time spent up to now is     7099.7 secs

     total energy              =   -7425.28653294 Ry
     Harris-Foulkes estimate   =   -7425.28655536 Ry
     estimated scf accuracy    <       0.00007612 Ry

     iteration # 18     ecut=    50.00 Ry     beta=0.70
     Davidson diagonalization with overlap
     ethr =  9.52E-09,  avg # of iterations =  2.0

     negative rho (up, down):  1.974E+00 0.000E+00

     total cpu time spent up to now is     7396.2 secs

     total energy              =   -7425.28653936 Ry
     Harris-Foulkes estimate   =   -7425.28654996 Ry
     estimated scf accuracy    <       0.00004173 Ry

     iteration # 19     ecut=    50.00 Ry     beta=0.70
     Davidson diagonalization with overlap
     ethr =  5.22E-09,  avg # of iterations =  2.0

     negative rho (up, down):  1.974E+00 0.000E+00

     total cpu time spent up to now is     7700.5 secs

     total energy              =   -7425.28654018 Ry
     Harris-Foulkes estimate   =   -7425.28655199 Ry
     estimated scf accuracy    <       0.00006233 Ry

     iteration # 20     ecut=    50.00 Ry     beta=0.70
     Davidson diagonalization with overlap
     ethr =  5.22E-09,  avg # of iterations =  2.0

     negative rho (up, down):  1.974E+00 0.000E+00

     total cpu time spent up to now is     7978.4 secs

     total energy              =   -7425.28654545 Ry
     Harris-Foulkes estimate   =   -7425.28654710 Ry
     estimated scf accuracy    <       0.00000579 Ry

     iteration # 21     ecut=    50.00 Ry     beta=0.70
     Davidson diagonalization with overlap
     ethr =  7.23E-10,  avg # of iterations =  3.0

     negative rho (up, down):  1.974E+00 0.000E+00

     total cpu time spent up to now is     8281.2 secs

     total energy              =   -7425.28654637 Ry
     Harris-Foulkes estimate   =   -7425.28654704 Ry
     estimated scf accuracy    <       0.00000337 Ry

     iteration # 22     ecut=    50.00 Ry     beta=0.70
     Davidson diagonalization with overlap
     ethr =  4.21E-10,  avg # of iterations =  3.0

     negative rho (up, down):  1.974E+00 0.000E+00

     total cpu time spent up to now is     8617.2 secs

     total energy              =   -7425.28654693 Ry
     Harris-Foulkes estimate   =   -7425.28654704 Ry
     estimated scf accuracy    <       0.00000090 Ry

     iteration # 23     ecut=    50.00 Ry     beta=0.70
     Davidson diagonalization with overlap
     ethr =  1.13E-10,  avg # of iterations =  3.0

     negative rho (up, down):  1.974E+00 0.000E+00

     total cpu time spent up to now is     8921.4 secs

     total energy              =   -7425.28654696 Ry
     Harris-Foulkes estimate   =   -7425.28654710 Ry
     estimated scf accuracy    <       0.00000040 Ry

     iteration # 24     ecut=    50.00 Ry     beta=0.70
     Davidson diagonalization with overlap
     ethr =  4.97E-11,  avg # of iterations =  2.5

     negative rho (up, down):  1.974E+00 0.000E+00

     total cpu time spent up to now is     9239.5 secs

     total energy              =   -7425.28654706 Ry
     Harris-Foulkes estimate   =   -7425.28654711 Ry
     estimated scf accuracy    <       0.00000063 Ry

     iteration # 25     ecut=    50.00 Ry     beta=0.70
     Davidson diagonalization with overlap
     ethr =  4.97E-11,  avg # of iterations =  2.0

     negative rho (up, down):  1.974E+00 0.000E+00

     total cpu time spent up to now is     9521.5 secs

     total energy              =   -7425.28654713 Ry
     Harris-Foulkes estimate   =   -7425.28654712 Ry
     estimated scf accuracy    <       0.00000005 Ry

     iteration # 26     ecut=    50.00 Ry     beta=0.70
     Davidson diagonalization with overlap
     ethr =  6.68E-12,  avg # of iterations =  2.7

     negative rho (up, down):  1.974E+00 0.000E+00

     total cpu time spent up to now is     9858.5 secs

     total energy              =   -7425.28654714 Ry
     Harris-Foulkes estimate   =   -7425.28654717 Ry
     estimated scf accuracy    <       0.00000040 Ry

     iteration # 27     ecut=    50.00 Ry     beta=0.70
     Davidson diagonalization with overlap
     ethr =  6.68E-12,  avg # of iterations =  2.0

     negative rho (up, down):  1.974E+00 0.000E+00

     total cpu time spent up to now is    10144.6 secs

     total energy              =   -7425.28654717 Ry
     Harris-Foulkes estimate   =   -7425.28654717 Ry
     estimated scf accuracy    <       0.00000007 Ry

     iteration # 28     ecut=    50.00 Ry     beta=0.70
     Davidson diagonalization with overlap
     ethr =  6.68E-12,  avg # of iterations =  2.0

     negative rho (up, down):  1.974E+00 0.000E+00

     total cpu time spent up to now is    10437.8 secs

     total energy              =   -7425.28654719 Ry
     Harris-Foulkes estimate   =   -7425.28654718 Ry
     estimated scf accuracy    <       0.00000003 Ry

     iteration # 29     ecut=    50.00 Ry     beta=0.70
     Davidson diagonalization with overlap
     ethr =  3.14E-12,  avg # of iterations =  2.0

     negative rho (up, down):  1.974E+00 0.000E+00

     total cpu time spent up to now is    10712.3 secs

     End of self-consistent calculation

          k = 0.2500 0.2500 0.0833 (167653 PWs)   bands (ev):

   -19.3546  -7.1688  -6.7657  -6.2371  -6.2368  -5.8074  -5.3984  -5.3052
    -5.3050  -5.1091  -5.1091  -4.9914  -4.9909  -4.9127  -4.8897  -4.8167
    -4.7317  -4.7282  -4.6892  -4.6890  -4.5281  -4.5112  -4.5104  -4.5102
    -4.5036  -4.4475  -4.4475  -4.4357  -4.4355  -4.3987  -4.3860  -4.3856
    -4.3438  -4.3438  -4.3103  -4.3091  -4.2571  -4.2568  -4.2461  -4.2450
    -4.2399  -4.2266  -4.2266  -4.1850  -4.1671  -4.1670  -4.1603  -4.1601
    -4.1281  -4.0780  -4.0630  -4.0628  -4.0589  -4.0587  -4.0509  -4.0457
    -4.0451  -4.0450  -3.9800  -3.9796  -3.9300  -3.9299  -3.9176  -3.8916
    -3.8915  -3.8713  -3.8691  -3.8684  -3.8645  -3.8612  -3.8123  -3.8123
    -3.7992  -3.7990  -3.6939  -3.6936  -3.6877  -3.6874  -3.6502  -3.6398
    -3.6279  -3.5970  -3.5969  -3.5684  -3.5682  -3.5464  -3.5462  -3.5328
    -3.5324  -3.4778  -3.4777  -3.4584  -3.4445  -3.4320  -3.4308  -3.4306
    -3.4294  -3.4022  -3.4020  -3.3777  -3.3657  -3.3656  -3.3429  -3.3426
    -3.3102  -3.3099  -3.2915  -3.2642  -3.2641  -3.2268  -3.2266  -3.1912
    -3.1839  -3.1830  -3.1691  -3.1688  -3.1639  -3.1638  -3.1242  -3.1158
    -3.0743  -3.0742  -3.0664  -3.0568  -3.0561  -3.0548  -3.0303  -3.0303
    -3.0090  -3.0087  -3.0082  -2.9814  -2.9814  -2.9739  -2.9711  -2.9710
    -2.9354  -2.9302  -2.8954  -2.8951  -2.8943  -2.8914  -2.8913  -2.8123
    -2.8022  -2.7980  -2.7976  -2.7962  -2.7961  -2.7911  -2.7911  -2.7907
    -2.7903  -2.7811  -2.7733  -2.7562  -2.7536  -2.7531  -2.7527  -2.7381
    -2.7332  -2.6952  -2.6945  -2.6943  -2.6903  -2.6900  -2.6719  -2.6716
    -2.6627  -2.6626  -2.6605  -2.6009  -2.6009  -2.5955  -2.5955  -2.5904
    -2.5903  -2.5621  -2.5029  -2.5020  -2.5015  -2.5000  -2.4883  -2.4861
    -2.4812  -2.4702  -2.4700  -2.4333  -2.4328  -2.4242  -2.4237  -2.4233
    -2.4230  -2.3836  -2.3834  -2.3736  -2.3736  -2.3720  -2.3718  -2.3299
    -2.3138  -2.3085  -2.2550  -2.2549  -2.2362  -2.2348  -2.2295  -2.2294
    -2.1808  -2.1803  -2.1570  -2.1405  -2.1264  -2.1256  -2.1255  -2.1036
    -2.1034  -2.0938  -2.0772  -2.0353  -2.0350  -2.0227  -2.0224  -2.0218
    -2.0106  -2.0104  -1.9949  -1.9949  -1.9929  -1.9905  -1.9867  -1.9855
    -1.9849  -1.9729  -1.9726  -1.9550  -1.9548  -1.9526  -1.9466  -1.9435
    -1.9433  -1.9196  -1.9194  -1.9083  -1.9060  -1.9018  -1.9014  -1.8630
    -1.8292  -1.8288  -1.7935  -1.7762  -1.7760  -1.7654  -1.7649  -1.7417
    -1.7414  -1.7268  -1.7265  -1.7252  -1.7250  -1.7222  -1.7216  -1.6894
    -1.6893  -1.6891  -1.6430  -1.6428  -1.6030  -1.6027  -1.5557  -1.5556
    -1.5433  -1.5208  -1.5150  -1.5136  -1.4961  -1.4952  -1.4775  -1.4771
    -1.4724  -1.4722  -1.4707  -1.4701  -1.4699  -1.4671  -1.4471  -1.4470
    -1.4366  -1.4192  -1.3999  -1.3999  -1.3740  -1.3740  -1.3709  -1.3706
    -1.3675  -1.3647  -1.3537  -1.3428  -1.3425  -1.3279  -1.3272  -1.3147
    -1.3045  -1.2909  -1.2906  -1.2598  -1.2595  -1.2516  -1.2514  -1.2161
    -1.2157  -1.2076  -1.2074  -1.1989  -1.1986  -1.1771  -1.1769  -1.1650
    -1.1583  -1.1581  -1.1449  -1.1446  -1.1443  -1.1439  -1.1297  -1.1192
    -1.1185  -1.1113  -1.1112  -1.0991  -1.0944  -1.0943  -1.0876  -1.0486
    -1.0458  -1.0402  -1.0399  -1.0398  -1.0364  -0.9988  -0.9823  -0.9818
    -0.9814  -0.9813  -0.9769  -0.9766  -0.9717  -0.9583  -0.9572  -0.9199
    -0.9196  -0.9127  -0.9127  -0.8897  -0.8896  -0.8798  -0.8500  -0.8423
    -0.8150  -0.8147  -0.7869  -0.7867  -0.7837  -0.7830  -0.7821  -0.7785
    -0.7748  -0.7727  -0.7681  -0.7679  -0.7360  -0.7358  -0.7180  -0.7174
    -0.7123  -0.7120  -0.7106  -0.7105  -0.6917  -0.4136  -0.4074  -0.3504
    -0.3490  -0.3103  -0.1494  -0.0845  -0.0842  -0.0533   0.2348   0.2349
     0.5643   0.5656   0.6638   0.6639   0.7048   0.7056   0.8483   0.8486
     0.9728   0.9740   1.0602   1.6599   1.6780   1.6786   1.7189   1.7220
     1.7658   1.7687   1.8479   1.8483   2.0555   2.0557   2.2893   2.3699
     2.3715   2.3865   2.7659   2.7683   2.8405   2.8427   2.8482   2.8486
     2.9999   3.0006   3.0465   3.1433   3.1442   3.3715   3.3819   3.5103
     3.5374   3.5378   3.8086   3.8092   3.9217   3.9408   3.9408   4.0076
     4.0103   4.1276   4.1284   4.3641   4.3659   4.4529   4.4531   4.5771
     4.5821   4.5996   4.6022   4.6104   4.7679   5.3875   5.3925   5.4347
     5.5087   5.5091   5.6079   5.6892   5.6897   5.7053   5.7290   5.8032
     5.8038   5.8581   5.8586   5.8806   5.9026   5.9881   6.1189   6.1498
     6.1570   6.1693   6.1846   6.1998   6.2037   6.2104   6.2124   6.2376

          k = 0.2500 0.2500-0.2500 (167588 PWs)   bands (ev):

   -19.3546  -7.1688  -6.7657  -6.2371  -6.2368  -5.8074  -5.3984  -5.3052
    -5.3050  -5.1091  -5.1091  -4.9914  -4.9909  -4.9127  -4.8897  -4.8167
    -4.7317  -4.7282  -4.6892  -4.6890  -4.5281  -4.5112  -4.5104  -4.5102
    -4.5036  -4.4475  -4.4475  -4.4357  -4.4355  -4.3987  -4.3860  -4.3856
    -4.3438  -4.3438  -4.3103  -4.3091  -4.2571  -4.2568  -4.2461  -4.2450
    -4.2399  -4.2266  -4.2266  -4.1850  -4.1671  -4.1670  -4.1603  -4.1601
    -4.1281  -4.0780  -4.0630  -4.0628  -4.0589  -4.0587  -4.0509  -4.0457
    -4.0451  -4.0450  -3.9800  -3.9796  -3.9300  -3.9299  -3.9176  -3.8916
    -3.8915  -3.8713  -3.8691  -3.8683  -3.8644  -3.8612  -3.8123  -3.8123
    -3.7992  -3.7990  -3.6939  -3.6936  -3.6877  -3.6874  -3.6502  -3.6398
    -3.6279  -3.5970  -3.5969  -3.5684  -3.5682  -3.5464  -3.5462  -3.5328
    -3.5324  -3.4778  -3.4777  -3.4584  -3.4445  -3.4320  -3.4308  -3.4306
    -3.4294  -3.4022  -3.4020  -3.3777  -3.3656  -3.3656  -3.3429  -3.3426
    -3.3102  -3.3099  -3.2915  -3.2642  -3.2641  -3.2268  -3.2266  -3.1912
    -3.1839  -3.1830  -3.1691  -3.1688  -3.1639  -3.1638  -3.1242  -3.1159
    -3.0743  -3.0742  -3.0664  -3.0568  -3.0561  -3.0548  -3.0303  -3.0303
    -3.0090  -3.0087  -3.0082  -2.9814  -2.9814  -2.9739  -2.9711  -2.9710
    -2.9354  -2.9302  -2.8954  -2.8951  -2.8943  -2.8914  -2.8913  -2.8123
    -2.8022  -2.7980  -2.7976  -2.7962  -2.7961  -2.7911  -2.7911  -2.7906
    -2.7903  -2.7811  -2.7733  -2.7562  -2.7536  -2.7531  -2.7527  -2.7381
    -2.7332  -2.6952  -2.6945  -2.6943  -2.6903  -2.6899  -2.6719  -2.6716
    -2.6627  -2.6626  -2.6605  -2.6009  -2.6009  -2.5955  -2.5955  -2.5904
    -2.5903  -2.5621  -2.5029  -2.5020  -2.5015  -2.5000  -2.4883  -2.4861
    -2.4812  -2.4702  -2.4700  -2.4333  -2.4328  -2.4242  -2.4237  -2.4233
    -2.4230  -2.3836  -2.3834  -2.3736  -2.3736  -2.3720  -2.3718  -2.3299
    -2.3138  -2.3085  -2.2550  -2.2549  -2.2362  -2.2348  -2.2295  -2.2294
    -2.1808  -2.1803  -2.1570  -2.1405  -2.1264  -2.1256  -2.1255  -2.1036
    -2.1034  -2.0938  -2.0773  -2.0353  -2.0350  -2.0227  -2.0224  -2.0218
    -2.0106  -2.0104  -1.9949  -1.9949  -1.9929  -1.9905  -1.9867  -1.9855
    -1.9849  -1.9729  -1.9726  -1.9550  -1.9548  -1.9526  -1.9466  -1.9435
    -1.9433  -1.9196  -1.9194  -1.9083  -1.9060  -1.9018  -1.9013  -1.8630
    -1.8292  -1.8288  -1.7935  -1.7762  -1.7760  -1.7654  -1.7649  -1.7417
    -1.7414  -1.7268  -1.7265  -1.7252  -1.7250  -1.7221  -1.7216  -1.6894
    -1.6893  -1.6891  -1.6430  -1.6428  -1.6030  -1.6027  -1.5557  -1.5556
    -1.5433  -1.5208  -1.5150  -1.5136  -1.4961  -1.4952  -1.4775  -1.4771
    -1.4724  -1.4722  -1.4707  -1.4701  -1.4698  -1.4671  -1.4471  -1.4470
    -1.4366  -1.4192  -1.3999  -1.3999  -1.3740  -1.3740  -1.3709  -1.3705
    -1.3675  -1.3647  -1.3537  -1.3428  -1.3425  -1.3279  -1.3272  -1.3147
    -1.3045  -1.2909  -1.2906  -1.2598  -1.2595  -1.2516  -1.2514  -1.2161
    -1.2157  -1.2076  -1.2074  -1.1989  -1.1986  -1.1771  -1.1769  -1.1650
    -1.1583  -1.1581  -1.1449  -1.1446  -1.1443  -1.1439  -1.1297  -1.1192
    -1.1186  -1.1113  -1.1112  -1.0991  -1.0944  -1.0943  -1.0876  -1.0486
    -1.0458  -1.0402  -1.0399  -1.0398  -1.0364  -0.9988  -0.9823  -0.9817
    -0.9814  -0.9813  -0.9769  -0.9766  -0.9717  -0.9583  -0.9572  -0.9199
    -0.9196  -0.9127  -0.9127  -0.8897  -0.8896  -0.8798  -0.8500  -0.8423
    -0.8150  -0.8147  -0.7869  -0.7867  -0.7837  -0.7830  -0.7821  -0.7785
    -0.7749  -0.7727  -0.7681  -0.7679  -0.7360  -0.7358  -0.7180  -0.7174
    -0.7123  -0.7120  -0.7106  -0.7105  -0.6917  -0.4136  -0.4074  -0.3503
    -0.3490  -0.3103  -0.1494  -0.0845  -0.0842  -0.0533   0.2348   0.2349
     0.5643   0.5656   0.6638   0.6639   0.7048   0.7056   0.8483   0.8487
     0.9728   0.9740   1.0602   1.6599   1.6780   1.6786   1.7189   1.7220
     1.7658   1.7687   1.8479   1.8483   2.0555   2.0557   2.2893   2.3699
     2.3715   2.3865   2.7659   2.7683   2.8405   2.8427   2.8482   2.8486
     2.9999   3.0006   3.0465   3.1433   3.1442   3.3715   3.3819   3.5103
     3.5374   3.5378   3.8086   3.8092   3.9217   3.9408   3.9408   4.0079
     4.0104   4.1276   4.1284   4.3641   4.3659   4.4529   4.4531   4.5771
     4.5821   4.5992   4.6020   4.6083   4.7672   5.3880   5.3908   5.4230
     5.5087   5.5093   5.6427   5.6892   5.6897   5.7160   5.7264   5.8032
     5.8038   5.8581   5.8586   5.8929   5.9040   6.0099   6.1144   6.1568
     6.1678   6.1741   6.1846   6.1987   6.2002   6.2078   6.2126   6.2161

          k =-0.2500-0.2500 0.0833 (167653 PWs)   bands (ev):

   -19.3546  -7.1688  -6.7657  -6.2371  -6.2368  -5.8074  -5.3984  -5.3052
    -5.3050  -5.1091  -5.1091  -4.9914  -4.9909  -4.9127  -4.8897  -4.8167
    -4.7317  -4.7282  -4.6892  -4.6890  -4.5281  -4.5112  -4.5104  -4.5102
    -4.5036  -4.4475  -4.4475  -4.4357  -4.4355  -4.3987  -4.3860  -4.3856
    -4.3438  -4.3438  -4.3103  -4.3091  -4.2571  -4.2568  -4.2461  -4.2450
    -4.2399  -4.2266  -4.2266  -4.1850  -4.1671  -4.1670  -4.1603  -4.1601
    -4.1281  -4.0780  -4.0630  -4.0628  -4.0589  -4.0587  -4.0509  -4.0457
    -4.0451  -4.0450  -3.9800  -3.9796  -3.9300  -3.9299  -3.9176  -3.8916
    -3.8915  -3.8713  -3.8691  -3.8684  -3.8645  -3.8612  -3.8123  -3.8123
    -3.7992  -3.7990  -3.6939  -3.6936  -3.6877  -3.6874  -3.6502  -3.6398
    -3.6279  -3.5970  -3.5969  -3.5684  -3.5682  -3.5464  -3.5462  -3.5328
    -3.5324  -3.4778  -3.4777  -3.4584  -3.4445  -3.4320  -3.4308  -3.4306
    -3.4294  -3.4022  -3.4020  -3.3777  -3.3657  -3.3656  -3.3429  -3.3426
    -3.3102  -3.3099  -3.2915  -3.2642  -3.2641  -3.2268  -3.2266  -3.1912
    -3.1839  -3.1830  -3.1691  -3.1688  -3.1639  -3.1638  -3.1242  -3.1158
    -3.0743  -3.0742  -3.0664  -3.0568  -3.0561  -3.0548  -3.0303  -3.0303
    -3.0090  -3.0087  -3.0082  -2.9814  -2.9814  -2.9739  -2.9711  -2.9710
    -2.9354  -2.9302  -2.8954  -2.8951  -2.8943  -2.8914  -2.8913  -2.8123
    -2.8022  -2.7980  -2.7976  -2.7962  -2.7961  -2.7911  -2.7911  -2.7907
    -2.7903  -2.7811  -2.7733  -2.7562  -2.7536  -2.7531  -2.7527  -2.7381
    -2.7332  -2.6952  -2.6945  -2.6943  -2.6903  -2.6900  -2.6719  -2.6716
    -2.6627  -2.6626  -2.6605  -2.6009  -2.6009  -2.5955  -2.5955  -2.5904
    -2.5903  -2.5621  -2.5029  -2.5020  -2.5015  -2.5000  -2.4883  -2.4861
    -2.4812  -2.4702  -2.4700  -2.4333  -2.4328  -2.4242  -2.4237  -2.4233
    -2.4230  -2.3836  -2.3834  -2.3736  -2.3736  -2.3720  -2.3718  -2.3299
    -2.3138  -2.3085  -2.2550  -2.2549  -2.2362  -2.2348  -2.2295  -2.2294
    -2.1808  -2.1803  -2.1570  -2.1405  -2.1264  -2.1256  -2.1255  -2.1036
    -2.1034  -2.0938  -2.0772  -2.0353  -2.0350  -2.0227  -2.0224  -2.0218
    -2.0106  -2.0104  -1.9949  -1.9949  -1.9929  -1.9905  -1.9867  -1.9855
    -1.9849  -1.9729  -1.9726  -1.9550  -1.9548  -1.9526  -1.9466  -1.9435
    -1.9433  -1.9196  -1.9194  -1.9083  -1.9060  -1.9018  -1.9014  -1.8630
    -1.8292  -1.8288  -1.7935  -1.7762  -1.7760  -1.7654  -1.7649  -1.7417
    -1.7414  -1.7268  -1.7265  -1.7252  -1.7250  -1.7222  -1.7216  -1.6894
    -1.6893  -1.6891  -1.6430  -1.6428  -1.6030  -1.6027  -1.5557  -1.5556
    -1.5433  -1.5208  -1.5150  -1.5136  -1.4961  -1.4952  -1.4775  -1.4771
    -1.4724  -1.4722  -1.4707  -1.4701  -1.4699  -1.4671  -1.4471  -1.4470
    -1.4366  -1.4192  -1.3999  -1.3999  -1.3740  -1.3740  -1.3709  -1.3706
    -1.3675  -1.3647  -1.3537  -1.3428  -1.3425  -1.3279  -1.3272  -1.3147
    -1.3045  -1.2909  -1.2906  -1.2598  -1.2595  -1.2516  -1.2514  -1.2161
    -1.2157  -1.2076  -1.2074  -1.1989  -1.1986  -1.1771  -1.1769  -1.1650
    -1.1583  -1.1581  -1.1449  -1.1446  -1.1443  -1.1439  -1.1297  -1.1192
    -1.1185  -1.1113  -1.1112  -1.0991  -1.0944  -1.0943  -1.0876  -1.0486
    -1.0458  -1.0402  -1.0399  -1.0398  -1.0364  -0.9988  -0.9823  -0.9818
    -0.9814  -0.9813  -0.9769  -0.9766  -0.9717  -0.9583  -0.9572  -0.9199
    -0.9196  -0.9127  -0.9127  -0.8897  -0.8896  -0.8798  -0.8500  -0.8423
    -0.8150  -0.8147  -0.7869  -0.7867  -0.7837  -0.7830  -0.7821  -0.7785
    -0.7748  -0.7727  -0.7681  -0.7679  -0.7360  -0.7358  -0.7180  -0.7174
    -0.7123  -0.7120  -0.7106  -0.7105  -0.6917  -0.4136  -0.4074  -0.3504
    -0.3490  -0.3103  -0.1494  -0.0845  -0.0842  -0.0533   0.2348   0.2349
     0.5643   0.5656   0.6638   0.6639   0.7048   0.7056   0.8483   0.8486
     0.9728   0.9740   1.0602   1.6599   1.6780   1.6786   1.7189   1.7220
     1.7658   1.7687   1.8479   1.8483   2.0555   2.0557   2.2893   2.3699
     2.3715   2.3865   2.7659   2.7683   2.8405   2.8427   2.8482   2.8486
     2.9999   3.0006   3.0465   3.1433   3.1442   3.3715   3.3819   3.5103
     3.5374   3.5378   3.8086   3.8092   3.9217   3.9408   3.9408   4.0076
     4.0103   4.1276   4.1284   4.3641   4.3659   4.4529   4.4531   4.5771
     4.5821   4.5996   4.6022   4.6104   4.7679   5.3875   5.3925   5.4340
     5.5087   5.5091   5.6096   5.6892   5.6897   5.7048   5.7290   5.8032
     5.8038   5.8581   5.8586   5.8804   5.9026   5.9878   6.1164   6.1502
     6.1572   6.1693   6.1846   6.1999   6.2030   6.2117   6.2121   6.2375

          k =-0.2500 0.2500-0.0833 (167653 PWs)   bands (ev):

   -19.3546  -7.1688  -6.7657  -6.2371  -6.2368  -5.8074  -5.3984  -5.3052
    -5.3049  -5.1091  -5.1091  -4.9914  -4.9909  -4.9127  -4.8897  -4.8167
    -4.7317  -4.7282  -4.6892  -4.6891  -4.5281  -4.5112  -4.5104  -4.5102
    -4.5036  -4.4475  -4.4475  -4.4357  -4.4355  -4.3987  -4.3860  -4.3856
    -4.3438  -4.3437  -4.3103  -4.3091  -4.2571  -4.2568  -4.2461  -4.2450
    -4.2399  -4.2266  -4.2265  -4.1850  -4.1671  -4.1670  -4.1602  -4.1602
    -4.1281  -4.0780  -4.0630  -4.0628  -4.0589  -4.0586  -4.0509  -4.0457
    -4.0451  -4.0450  -3.9801  -3.9795  -3.9302  -3.9297  -3.9176  -3.8916
    -3.8915  -3.8713  -3.8690  -3.8684  -3.8645  -3.8612  -3.8123  -3.8123
    -3.7992  -3.7990  -3.6939  -3.6936  -3.6878  -3.6874  -3.6502  -3.6398
    -3.6279  -3.5970  -3.5969  -3.5684  -3.5681  -3.5465  -3.5462  -3.5328
    -3.5324  -3.4778  -3.4777  -3.4584  -3.4445  -3.4320  -3.4309  -3.4306
    -3.4294  -3.4022  -3.4020  -3.3777  -3.3657  -3.3656  -3.3429  -3.3426
    -3.3102  -3.3099  -3.2915  -3.2642  -3.2641  -3.2268  -3.2267  -3.1912
    -3.1839  -3.1830  -3.1691  -3.1688  -3.1639  -3.1638  -3.1242  -3.1159
    -3.0743  -3.0742  -3.0664  -3.0568  -3.0561  -3.0548  -3.0303  -3.0303
    -3.0091  -3.0085  -3.0083  -2.9814  -2.9814  -2.9739  -2.9711  -2.9710
    -2.9354  -2.9302  -2.8954  -2.8951  -2.8943  -2.8914  -2.8913  -2.8123
    -2.8022  -2.7979  -2.7977  -2.7962  -2.7960  -2.7911  -2.7910  -2.7906
    -2.7904  -2.7811  -2.7733  -2.7562  -2.7536  -2.7531  -2.7527  -2.7381
    -2.7332  -2.6952  -2.6945  -2.6943  -2.6903  -2.6899  -2.6718  -2.6717
    -2.6627  -2.6626  -2.6605  -2.6009  -2.6009  -2.5955  -2.5955  -2.5904
    -2.5903  -2.5621  -2.5029  -2.5019  -2.5016  -2.5000  -2.4883  -2.4861
    -2.4812  -2.4702  -2.4700  -2.4333  -2.4328  -2.4242  -2.4238  -2.4233
    -2.4230  -2.3836  -2.3834  -2.3736  -2.3736  -2.3720  -2.3718  -2.3299
    -2.3138  -2.3085  -2.2551  -2.2549  -2.2362  -2.2348  -2.2295  -2.2294
    -2.1808  -2.1803  -2.1570  -2.1405  -2.1264  -2.1256  -2.1255  -2.1036
    -2.1034  -2.0938  -2.0772  -2.0353  -2.0350  -2.0228  -2.0224  -2.0218
    -2.0106  -2.0104  -1.9950  -1.9949  -1.9928  -1.9905  -1.9867  -1.9855
    -1.9849  -1.9729  -1.9726  -1.9550  -1.9548  -1.9526  -1.9466  -1.9435
    -1.9433  -1.9196  -1.9194  -1.9083  -1.9060  -1.9018  -1.9013  -1.8630
    -1.8291  -1.8288  -1.7935  -1.7762  -1.7760  -1.7654  -1.7649  -1.7418
    -1.7414  -1.7268  -1.7265  -1.7252  -1.7250  -1.7222  -1.7216  -1.6894
    -1.6894  -1.6891  -1.6430  -1.6428  -1.6030  -1.6027  -1.5557  -1.5556
    -1.5433  -1.5208  -1.5150  -1.5136  -1.4961  -1.4952  -1.4775  -1.4771
    -1.4724  -1.4722  -1.4707  -1.4701  -1.4698  -1.4671  -1.4471  -1.4470
    -1.4366  -1.4192  -1.3999  -1.3999  -1.3740  -1.3740  -1.3709  -1.3705
    -1.3676  -1.3648  -1.3536  -1.3428  -1.3425  -1.3279  -1.3272  -1.3147
    -1.3045  -1.2909  -1.2906  -1.2598  -1.2595  -1.2516  -1.2514  -1.2162
    -1.2157  -1.2077  -1.2074  -1.1989  -1.1986  -1.1772  -1.1769  -1.1650
    -1.1583  -1.1581  -1.1449  -1.1446  -1.1444  -1.1439  -1.1297  -1.1192
    -1.1185  -1.1113  -1.1112  -1.0991  -1.0944  -1.0943  -1.0876  -1.0486
    -1.0458  -1.0402  -1.0399  -1.0398  -1.0364  -0.9988  -0.9824  -0.9817
    -0.9814  -0.9813  -0.9769  -0.9766  -0.9717  -0.9583  -0.9572  -0.9200
    -0.9196  -0.9127  -0.9127  -0.8897  -0.8896  -0.8798  -0.8500  -0.8423
    -0.8150  -0.8147  -0.7868  -0.7868  -0.7837  -0.7830  -0.7821  -0.7785
    -0.7748  -0.7727  -0.7682  -0.7679  -0.7360  -0.7358  -0.7181  -0.7173
    -0.7123  -0.7120  -0.7106  -0.7105  -0.6917  -0.4136  -0.4074  -0.3504
    -0.3489  -0.3103  -0.1494  -0.0845  -0.0841  -0.0533   0.2348   0.2349
     0.5642   0.5656   0.6638   0.6639   0.7048   0.7056   0.8482   0.8487
     0.9728   0.9740   1.0602   1.6599   1.6780   1.6786   1.7189   1.7220
     1.7656   1.7689   1.8479   1.8484   2.0555   2.0557   2.2893   2.3698
     2.3716   2.3865   2.7658   2.7685   2.8405   2.8427   2.8482   2.8487
     2.9999   3.0006   3.0465   3.1433   3.1442   3.3715   3.3818   3.5103
     3.5374   3.5378   3.8086   3.8092   3.9217   3.9408   3.9408   4.0082
     4.0098   4.1275   4.1285   4.3641   4.3659   4.4530   4.4532   4.5771
     4.5821   4.5992   4.6020   4.6096   4.7692   5.3866   5.3933   5.4368
     5.5086   5.5090   5.6145   5.6892   5.6898   5.6960   5.7288   5.8032
     5.8038   5.8581   5.8586   5.8818   5.9026   5.9752   6.1229   6.1497
     6.1578   6.1692   6.1847   6.1986   6.2002   6.2078   6.2126   6.2164

          k = 0.2500-0.2500-0.0833 (167653 PWs)   bands (ev):

   -19.3546  -7.1688  -6.7657  -6.2371  -6.2368  -5.8074  -5.3984  -5.3052
    -5.3049  -5.1091  -5.1091  -4.9914  -4.9909  -4.9127  -4.8897  -4.8167
    -4.7317  -4.7282  -4.6892  -4.6891  -4.5281  -4.5112  -4.5104  -4.5102
    -4.5036  -4.4475  -4.4475  -4.4357  -4.4355  -4.3987  -4.3860  -4.3856
    -4.3438  -4.3437  -4.3103  -4.3091  -4.2571  -4.2568  -4.2461  -4.2450
    -4.2399  -4.2266  -4.2265  -4.1850  -4.1671  -4.1670  -4.1602  -4.1602
    -4.1281  -4.0780  -4.0630  -4.0628  -4.0589  -4.0586  -4.0509  -4.0457
    -4.0451  -4.0450  -3.9801  -3.9795  -3.9302  -3.9297  -3.9176  -3.8916
    -3.8915  -3.8713  -3.8690  -3.8684  -3.8645  -3.8612  -3.8123  -3.8123
    -3.7992  -3.7990  -3.6939  -3.6936  -3.6878  -3.6874  -3.6502  -3.6398
    -3.6279  -3.5970  -3.5969  -3.5684  -3.5681  -3.5465  -3.5462  -3.5328
    -3.5324  -3.4778  -3.4777  -3.4584  -3.4445  -3.4320  -3.4309  -3.4306
    -3.4294  -3.4022  -3.4020  -3.3777  -3.3657  -3.3656  -3.3429  -3.3426
    -3.3102  -3.3099  -3.2915  -3.2642  -3.2641  -3.2268  -3.2267  -3.1912
    -3.1839  -3.1830  -3.1691  -3.1688  -3.1639  -3.1638  -3.1242  -3.1159
    -3.0743  -3.0742  -3.0664  -3.0568  -3.0561  -3.0548  -3.0303  -3.0303
    -3.0091  -3.0085  -3.0083  -2.9814  -2.9814  -2.9739  -2.9711  -2.9710
    -2.9354  -2.9302  -2.8954  -2.8951  -2.8943  -2.8914  -2.8913  -2.8123
    -2.8022  -2.7979  -2.7977  -2.7962  -2.7960  -2.7911  -2.7910  -2.7906
    -2.7904  -2.7811  -2.7733  -2.7562  -2.7536  -2.7531  -2.7527  -2.7381
    -2.7332  -2.6952  -2.6945  -2.6943  -2.6903  -2.6899  -2.6718  -2.6717
    -2.6627  -2.6626  -2.6605  -2.6009  -2.6009  -2.5955  -2.5955  -2.5904
    -2.5903  -2.5621  -2.5029  -2.5019  -2.5016  -2.5000  -2.4883  -2.4861
    -2.4812  -2.4702  -2.4700  -2.4333  -2.4328  -2.4242  -2.4238  -2.4233
    -2.4230  -2.3836  -2.3834  -2.3736  -2.3736  -2.3720  -2.3718  -2.3299
    -2.3138  -2.3085  -2.2551  -2.2549  -2.2362  -2.2348  -2.2295  -2.2294
    -2.1808  -2.1803  -2.1570  -2.1405  -2.1264  -2.1256  -2.1255  -2.1036
    -2.1034  -2.0938  -2.0772  -2.0353  -2.0350  -2.0228  -2.0224  -2.0218
    -2.0106  -2.0104  -1.9950  -1.9949  -1.9928  -1.9905  -1.9867  -1.9855
    -1.9849  -1.9729  -1.9726  -1.9550  -1.9548  -1.9526  -1.9466  -1.9435
    -1.9433  -1.9196  -1.9194  -1.9083  -1.9060  -1.9018  -1.9013  -1.8630
    -1.8291  -1.8288  -1.7935  -1.7762  -1.7760  -1.7654  -1.7649  -1.7418
    -1.7414  -1.7268  -1.7265  -1.7252  -1.7250  -1.7222  -1.7216  -1.6894
    -1.6894  -1.6891  -1.6430  -1.6428  -1.6030  -1.6027  -1.5557  -1.5556
    -1.5433  -1.5208  -1.5150  -1.5136  -1.4961  -1.4952  -1.4775  -1.4771
    -1.4724  -1.4722  -1.4707  -1.4701  -1.4698  -1.4671  -1.4471  -1.4470
    -1.4366  -1.4192  -1.3999  -1.3999  -1.3740  -1.3740  -1.3709  -1.3705
    -1.3676  -1.3648  -1.3536  -1.3428  -1.3425  -1.3279  -1.3272  -1.3147
    -1.3045  -1.2909  -1.2906  -1.2598  -1.2595  -1.2516  -1.2514  -1.2162
    -1.2157  -1.2077  -1.2074  -1.1989  -1.1986  -1.1772  -1.1769  -1.1650
    -1.1583  -1.1581  -1.1449  -1.1446  -1.1444  -1.1439  -1.1297  -1.1192
    -1.1185  -1.1113  -1.1112  -1.0991  -1.0944  -1.0943  -1.0876  -1.0486
    -1.0458  -1.0402  -1.0399  -1.0398  -1.0364  -0.9988  -0.9824  -0.9817
    -0.9814  -0.9813  -0.9769  -0.9766  -0.9717  -0.9583  -0.9572  -0.9200
    -0.9196  -0.9127  -0.9127  -0.8897  -0.8896  -0.8798  -0.8500  -0.8423
    -0.8150  -0.8147  -0.7868  -0.7868  -0.7837  -0.7830  -0.7821  -0.7785
    -0.7748  -0.7727  -0.7682  -0.7679  -0.7360  -0.7358  -0.7181  -0.7173
    -0.7123  -0.7120  -0.7106  -0.7105  -0.6917  -0.4136  -0.4074  -0.3504
    -0.3489  -0.3103  -0.1494  -0.0845  -0.0841  -0.0533   0.2348   0.2349
     0.5642   0.5656   0.6638   0.6639   0.7048   0.7056   0.8482   0.8487
     0.9728   0.9740   1.0602   1.6599   1.6780   1.6786   1.7189   1.7220
     1.7656   1.7689   1.8479   1.8484   2.0555   2.0557   2.2893   2.3698
     2.3716   2.3865   2.7658   2.7685   2.8405   2.8427   2.8482   2.8487
     2.9999   3.0006   3.0465   3.1433   3.1442   3.3715   3.3818   3.5103
     3.5374   3.5378   3.8086   3.8092   3.9217   3.9408   3.9408   4.0082
     4.0098   4.1275   4.1285   4.3641   4.3659   4.4530   4.4532   4.5771
     4.5821   4.5992   4.6020   4.6096   4.7693   5.3866   5.3933   5.4374
     5.5086   5.5090   5.6128   5.6892   5.6898   5.6966   5.7287   5.8032
     5.8039   5.8581   5.8586   5.8820   5.9026   5.9755   6.1254   6.1492
     6.1578   6.1692   6.1847   6.1986   6.2002   6.2078   6.2126   6.2150

          k =-0.2500 0.2500 0.2500 (167588 PWs)   bands (ev):

   -19.3546  -7.1688  -6.7657  -6.2371  -6.2368  -5.8074  -5.3984  -5.3052
    -5.3049  -5.1091  -5.1091  -4.9914  -4.9909  -4.9127  -4.8897  -4.8167
    -4.7317  -4.7282  -4.6891  -4.6890  -4.5281  -4.5113  -4.5104  -4.5102
    -4.5036  -4.4475  -4.4475  -4.4357  -4.4355  -4.3987  -4.3860  -4.3856
    -4.3438  -4.3437  -4.3103  -4.3091  -4.2571  -4.2568  -4.2461  -4.2450
    -4.2399  -4.2266  -4.2265  -4.1850  -4.1671  -4.1670  -4.1602  -4.1602
    -4.1281  -4.0780  -4.0630  -4.0628  -4.0589  -4.0586  -4.0509  -4.0457
    -4.0451  -4.0450  -3.9801  -3.9795  -3.9302  -3.9297  -3.9176  -3.8916
    -3.8914  -3.8713  -3.8690  -3.8684  -3.8644  -3.8612  -3.8123  -3.8123
    -3.7992  -3.7990  -3.6939  -3.6936  -3.6878  -3.6874  -3.6502  -3.6398
    -3.6279  -3.5970  -3.5969  -3.5684  -3.5681  -3.5465  -3.5462  -3.5328
    -3.5324  -3.4778  -3.4777  -3.4584  -3.4445  -3.4320  -3.4308  -3.4306
    -3.4294  -3.4022  -3.4020  -3.3777  -3.3657  -3.3656  -3.3429  -3.3426
    -3.3102  -3.3099  -3.2915  -3.2642  -3.2641  -3.2268  -3.2266  -3.1912
    -3.1839  -3.1830  -3.1691  -3.1688  -3.1639  -3.1638  -3.1242  -3.1159
    -3.0743  -3.0742  -3.0664  -3.0568  -3.0561  -3.0548  -3.0304  -3.0303
    -3.0091  -3.0085  -3.0083  -2.9814  -2.9814  -2.9739  -2.9711  -2.9710
    -2.9354  -2.9302  -2.8954  -2.8951  -2.8943  -2.8914  -2.8913  -2.8123
    -2.8022  -2.7979  -2.7977  -2.7962  -2.7960  -2.7911  -2.7910  -2.7906
    -2.7904  -2.7811  -2.7733  -2.7562  -2.7536  -2.7531  -2.7527  -2.7381
    -2.7332  -2.6952  -2.6945  -2.6943  -2.6903  -2.6899  -2.6718  -2.6717
    -2.6627  -2.6626  -2.6605  -2.6009  -2.6009  -2.5955  -2.5955  -2.5904
    -2.5902  -2.5621  -2.5029  -2.5019  -2.5016  -2.5000  -2.4883  -2.4861
    -2.4812  -2.4702  -2.4700  -2.4333  -2.4328  -2.4242  -2.4238  -2.4233
    -2.4230  -2.3836  -2.3834  -2.3736  -2.3736  -2.3720  -2.3718  -2.3299
    -2.3138  -2.3085  -2.2551  -2.2548  -2.2362  -2.2348  -2.2295  -2.2294
    -2.1808  -2.1803  -2.1570  -2.1405  -2.1264  -2.1256  -2.1255  -2.1036
    -2.1034  -2.0938  -2.0773  -2.0353  -2.0350  -2.0228  -2.0224  -2.0218
    -2.0106  -2.0104  -1.9950  -1.9949  -1.9929  -1.9906  -1.9867  -1.9855
    -1.9849  -1.9729  -1.9726  -1.9550  -1.9548  -1.9526  -1.9466  -1.9435
    -1.9433  -1.9196  -1.9194  -1.9083  -1.9060  -1.9018  -1.9013  -1.8630
    -1.8291  -1.8288  -1.7935  -1.7762  -1.7760  -1.7654  -1.7649  -1.7418
    -1.7414  -1.7268  -1.7265  -1.7252  -1.7250  -1.7222  -1.7216  -1.6894
    -1.6894  -1.6891  -1.6430  -1.6428  -1.6030  -1.6027  -1.5557  -1.5556
    -1.5433  -1.5208  -1.5150  -1.5136  -1.4961  -1.4952  -1.4775  -1.4771
    -1.4724  -1.4722  -1.4707  -1.4701  -1.4698  -1.4671  -1.4471  -1.4470
    -1.4366  -1.4192  -1.3999  -1.3999  -1.3740  -1.3740  -1.3709  -1.3705
    -1.3676  -1.3648  -1.3536  -1.3428  -1.3425  -1.3279  -1.3272  -1.3147
    -1.3045  -1.2909  -1.2906  -1.2598  -1.2595  -1.2516  -1.2514  -1.2161
    -1.2157  -1.2077  -1.2073  -1.1989  -1.1986  -1.1771  -1.1769  -1.1650
    -1.1583  -1.1581  -1.1449  -1.1446  -1.1444  -1.1439  -1.1297  -1.1192
    -1.1186  -1.1113  -1.1112  -1.0991  -1.0944  -1.0943  -1.0876  -1.0486
    -1.0458  -1.0402  -1.0399  -1.0398  -1.0364  -0.9988  -0.9823  -0.9817
    -0.9814  -0.9813  -0.9769  -0.9766  -0.9717  -0.9583  -0.9572  -0.9200
    -0.9196  -0.9127  -0.9127  -0.8897  -0.8896  -0.8798  -0.8500  -0.8423
    -0.8150  -0.8147  -0.7868  -0.7868  -0.7837  -0.7830  -0.7821  -0.7785
    -0.7748  -0.7727  -0.7682  -0.7679  -0.7360  -0.7358  -0.7181  -0.7173
    -0.7123  -0.7120  -0.7106  -0.7105  -0.6917  -0.4136  -0.4074  -0.3504
    -0.3489  -0.3103  -0.1494  -0.0845  -0.0841  -0.0533   0.2348   0.2349
     0.5642   0.5656   0.6638   0.6639   0.7048   0.7056   0.8483   0.8487
     0.9728   0.9740   1.0602   1.6599   1.6780   1.6786   1.7189   1.7220
     1.7656   1.7689   1.8479   1.8484   2.0555   2.0557   2.2893   2.3698
     2.3716   2.3865   2.7658   2.7685   2.8405   2.8427   2.8482   2.8487
     2.9999   3.0006   3.0465   3.1433   3.1442   3.3715   3.3818   3.5103
     3.5374   3.5378   3.8086   3.8092   3.9217   3.9408   3.9408   4.0085
     4.0099   4.1275   4.1285   4.3641   4.3659   4.4530   4.4532   4.5771
     4.5821   4.5986   4.6017   4.6078   4.7684   5.3871   5.3912   5.4280
     5.5086   5.5093   5.6337   5.6892   5.6898   5.7184   5.7269   5.8031
     5.8039   5.8581   5.8586   5.8931   5.9038   6.0156   6.1035   6.1581
     6.1669   6.1720   6.1846   6.1993   6.2003   6.2126   6.2193   6.2371

     the Fermi energy is     0.9228 ev

!    total energy              =   -7425.28654721 Ry
     Harris-Foulkes estimate   =   -7425.28654719 Ry
     estimated scf accuracy    <          4.1E-09 Ry

     The total energy is the sum of the following terms:

     one-electron contribution =  -48239.58095402 Ry
     hartree contribution      =   24672.32243735 Ry
     xc contribution           =   -3604.19310250 Ry
     ewald contribution        =   19746.16800581 Ry
     smearing contrib. (-TS)   =      -0.00293384 Ry

     convergence has been achieved in  29 iterations

     Writing output data file 4903888.save

     init_run     :    149.32s CPU    157.72s WALL (       1 calls)
     electrons    :  10074.73s CPU  10554.15s WALL (       1 calls)

     Called by init_run:
     wfcinit      :    113.81s CPU    121.18s WALL (       1 calls)
     potinit      :      7.72s CPU      8.14s WALL (       1 calls)

     Called by electrons:
     c_bands      :   8065.96s CPU   8453.45s WALL (      30 calls)
     sum_band     :   1308.75s CPU   1380.01s WALL (      30 calls)
     v_of_rho     :    150.38s CPU    164.27s WALL (      30 calls)
     newd         :    563.70s CPU    569.73s WALL (      30 calls)
     mix_rho      :      4.33s CPU      4.81s WALL (      30 calls)
     vdW_energy   :     11.83s CPU     13.16s WALL (      30 calls)
     vdW_ffts     :     78.20s CPU     85.17s WALL (      60 calls)
     vdW_v        :     18.26s CPU     19.22s WALL (      30 calls)

     Called by c_bands:
     init_us_2    :     16.64s CPU     16.99s WALL (     366 calls)
     cegterg      :   7881.84s CPU   8267.85s WALL (     180 calls)

     Called by *egterg:
     h_psi        :   3110.41s CPU   3441.86s WALL (     970 calls)
     s_psi        :    460.87s CPU    463.41s WALL (     970 calls)
     g_psi        :      5.42s CPU      5.46s WALL (     784 calls)
     cdiaghg      :   1858.52s CPU   1863.99s WALL (     958 calls)

     Called by h_psi:
     add_vuspsi   :    467.86s CPU    470.59s WALL (     970 calls)

     General routines
     calbec       :   1038.58s CPU   1041.94s WALL (    1150 calls)
     fft          :    359.28s CPU    372.04s WALL (    1980 calls)
     ffts         :      2.44s CPU      2.73s WALL (      60 calls)
     fftw         :   2084.66s CPU   2438.42s WALL (  484764 calls)
     interpolate  :      6.21s CPU      7.13s WALL (      60 calls)
     davcio       :      0.01s CPU      0.18s WALL (       6 calls)

     Parallel routines
     fft_scatter  :   1749.40s CPU   2046.43s WALL (  486804 calls)

     PWSCF        :     2h50m CPU        2h58m WALL


   This run was terminated on:  15:28:36   3Jul2015            

=------------------------------------------------------------------------------=
   JOB DONE.
=------------------------------------------------------------------------------=
