Setting SGE environment for SCC

     Program PWSCF v.5.1.2 starts on  6Jul2015 at  0:44:37 

     This program is part of the open-source Quantum ESPRESSO suite
     for quantum simulation of materials; please cite
         "P. Giannozzi et al., J. Phys.:Condens. Matter 21 395502 (2009);
          URL http://www.quantum-espresso.org", 
     in publications or presentations arising from this work. More details at
     http://www.quantum-espresso.org/quote

     Parallel version (MPI), running on    32 processors
     R & G space division:  proc/nbgrp/npool/nimage =      32
     Reading input from hollow.H2.Au5859.d.2.0.phi.45.psi.0.in
Warning: card &IONS ignored
Warning: card / ignored
Warning: card &CELL ignored
Warning: card / ignored

     Current dimensions of program PWSCF are:
     Max number of different atomic species (ntypx) = 10
     Max number of k-points (npk) =  40000
     Max angular momentum in pseudopotentials (lmaxx) =  3

     IMPORTANT: XC functional enforced from input :
     Exchange-correlation      = VDW-DF ( 1  4  4  0 1 0)
     Any further DFT definition will be discarded
     Please, verify this is what you really want


     Subspace diagonalization in iterative solution of the eigenvalue problem:
     a serial algorithm will be used


     Parallelization info
     --------------------
     sticks:   dense  smooth     PW     G-vecs:    dense   smooth      PW
     Min         578     289     74               118518    41891    5486
     Max         579     290     75               118533    41932    5497
     Sum       18505    9265   2385              3792731  1341081  175711


     Title: 
     hollow.H2.Au5859.d.2.0.phi.45.psi.0                                        


     bravais-lattice index     =            8
     lattice parameter (alat)  =      24.1233  a.u.
     unit-cell volume          =   28076.2361 (a.u.)^3
     number of atoms/cell      =           75
     number of atomic types    =            3
     number of electrons       =       800.00
     number of Kohn-Sham states=          480
     kinetic-energy cutoff     =      50.0000  Ry
     charge density cutoff     =     400.0000  Ry
     convergence threshold     =      1.0E-08
     mixing beta               =       0.7000
     number of iterations used =            8  plain     mixing
     Exchange-correlation      = VDW-DF ( 1  4  4  0 1 0)

     celldm(1)=  24.123277  celldm(2)=   1.000000  celldm(3)=   2.000000
     celldm(4)=   0.000000  celldm(5)=   0.000000  celldm(6)=   0.000000

     crystal axes: (cart. coord. in units of alat)
               a(1) = (   1.000000   0.000000   0.000000 )  
               a(2) = (   0.000000   1.000000   0.000000 )  
               a(3) = (   0.000000   0.000000   2.000000 )  

     reciprocal axes: (cart. coord. in units 2 pi/alat)
               b(1) = (  1.000000  0.000000  0.000000 )  
               b(2) = (  0.000000  1.000000  0.000000 )  
               b(3) = (  0.000000  0.000000  0.500000 )  


     PseudoPot. # 1 for Au read from file:
     /home/scc/andrejb/qe/pseudo/Au.pbe-nd-van.UPF
     MD5 check sum: 458681b50f36d87ef23c61b04bba420a
     Pseudo is Ultrasoft + core correction, Zval = 11.0
     Generated by new atomic code, or converted to UPF format
     Using radial grid of  985 points,  3 beta functions with: 
                l(1) =   1
                l(2) =   2
                l(3) =   2
     Q(r) pseudized with  8 coefficients,  rinner =    1.100   1.100   1.100
                                                       1.100   1.100

     PseudoPot. # 2 for H  read from file:
     /home/scc/andrejb/qe/pseudo/H.pbe-van_ak.UPF
     MD5 check sum: 403db7282739603aa925980fa9b8608d
     Pseudo is Ultrasoft, Zval =  1.0
     Generated by new atomic code, or converted to UPF format
     Using radial grid of  615 points,  1 beta functions with: 
                l(1) =   0
     Q(r) pseudized with  8 coefficients,  rinner =    0.800

     PseudoPot. # 3 for O  read from file:
     /home/scc/andrejb/qe/pseudo/O.pbe-van_ak.UPF
     MD5 check sum: 4b8c549914a63cae506c6ff22b5af4fe
     Pseudo is Ultrasoft, Zval =  6.0
     Generated by new atomic code, or converted to UPF format
     Using radial grid of  737 points,  4 beta functions with: 
                l(1) =   0
                l(2) =   0
                l(3) =   1
                l(4) =   1
     Q(r) pseudized with  8 coefficients,  rinner =    0.800   0.800   0.800


     vdW kernel table read from file vdW_kernel_table
     MD5 check sum: 48e77a2e26edf626eeb0eaa751ad5cac

     atomic species   valence    mass     pseudopotential
        Au            11.00   196.96657     Au( 1.00)
        H              1.00     1.01000     H ( 1.00)
        O              6.00    16.00000     O ( 1.00)

     No symmetry found



   Cartesian axes

     site n.     atom                  positions (alat units)
         1           O   tau(   1) = (   0.1686617   0.1891549   0.7288420  )
         2           H   tau(   2) = (   0.1666051   0.1666105   0.6559864  )
         3           H   tau(   3) = (   0.1627583   0.1245926   0.7690326  )
         4           Au  tau(   4) = (   0.0000000   0.0000000   0.0000000  )
         5           Au  tau(   5) = (   0.3332217   0.0000000   0.0000000  )
         6           Au  tau(   6) = (   0.6664434   0.0000000   0.0000000  )
         7           Au  tau(   7) = (   0.1666109   0.1666109   0.0000000  )
         8           Au  tau(   8) = (   0.4998326   0.1666109   0.0000000  )
         9           Au  tau(   9) = (   0.8330542   0.1666109   0.0000000  )
        10           Au  tau(  10) = (   0.0000000   0.3332217   0.0000000  )
        11           Au  tau(  11) = (   0.3332217   0.3332217   0.0000000  )
        12           Au  tau(  12) = (   0.6664434   0.3332217   0.0000000  )
        13           Au  tau(  13) = (   0.1666109   0.4998326   0.0000000  )
        14           Au  tau(  14) = (   0.4998326   0.4998326   0.0000000  )
        15           Au  tau(  15) = (   0.8330542   0.4998326   0.0000000  )
        16           Au  tau(  16) = (   0.0000000   0.6664434   0.0000000  )
        17           Au  tau(  17) = (   0.3332217   0.6664434   0.0000000  )
        18           Au  tau(  18) = (   0.6664434   0.6664434   0.0000000  )
        19           Au  tau(  19) = (   0.1666109   0.8330542   0.0000000  )
        20           Au  tau(  20) = (   0.4998326   0.8330542   0.0000000  )
        21           Au  tau(  21) = (   0.8330542   0.8330542   0.0000000  )
        22           Au  tau(  22) = (   0.1666109   0.0000000   0.1666109  )
        23           Au  tau(  23) = (   0.4998326   0.0000000   0.1666109  )
        24           Au  tau(  24) = (   0.8330542   0.0000000   0.1666109  )
        25           Au  tau(  25) = (   0.0000000   0.1666109   0.1666109  )
        26           Au  tau(  26) = (   0.3332217   0.1666109   0.1666109  )
        27           Au  tau(  27) = (   0.6664434   0.1666109   0.1666109  )
        28           Au  tau(  28) = (   0.1666109   0.3332217   0.1666109  )
        29           Au  tau(  29) = (   0.4998326   0.3332217   0.1666109  )
        30           Au  tau(  30) = (   0.8330542   0.3332217   0.1666109  )
        31           Au  tau(  31) = (   0.0000000   0.4998326   0.1666109  )
        32           Au  tau(  32) = (   0.3332217   0.4998326   0.1666109  )
        33           Au  tau(  33) = (   0.6664434   0.4998326   0.1666109  )
        34           Au  tau(  34) = (   0.1666109   0.6664434   0.1666109  )
        35           Au  tau(  35) = (   0.4998326   0.6664434   0.1666109  )
        36           Au  tau(  36) = (   0.8330542   0.6664434   0.1666109  )
        37           Au  tau(  37) = (   0.0000000   0.8330542   0.1666109  )
        38           Au  tau(  38) = (   0.3332217   0.8330542   0.1666109  )
        39           Au  tau(  39) = (   0.6664434   0.8330542   0.1666109  )
        40           Au  tau(  40) = (  -0.0000182  -0.0000182   0.3335478  )
        41           Au  tau(  41) = (   0.3332215  -0.0000181   0.3335473  )
        42           Au  tau(  42) = (   0.6664447  -0.0000183   0.3335481  )
        43           Au  tau(  43) = (  -0.0000181   0.3332215   0.3335473  )
        44           Au  tau(  44) = (   0.3332215   0.3332215   0.3335468  )
        45           Au  tau(  45) = (   0.6664445   0.3332215   0.3335477  )
        46           Au  tau(  46) = (  -0.0000183   0.6664447   0.3335481  )
        47           Au  tau(  47) = (   0.3332215   0.6664445   0.3335477  )
        48           Au  tau(  48) = (   0.6664446   0.6664446   0.3335486  )
        49           Au  tau(  49) = (   0.1666097   0.1666097   0.3335483  )
        50           Au  tau(  50) = (   0.4998320   0.1666098   0.3335477  )
        51           Au  tau(  51) = (   0.8330732   0.1666096   0.3335480  )
        52           Au  tau(  52) = (   0.1666098   0.4998320   0.3335477  )
        53           Au  tau(  53) = (   0.4998322   0.4998322   0.3335470  )
        54           Au  tau(  54) = (   0.8330731   0.4998322   0.3335474  )
        55           Au  tau(  55) = (   0.1666096   0.8330732   0.3335480  )
        56           Au  tau(  56) = (   0.4998322   0.8330731   0.3335474  )
        57           Au  tau(  57) = (   0.8330731   0.8330731   0.3335478  )
        58           Au  tau(  58) = (   0.1666104  -0.0000111   0.4993095  )
        59           Au  tau(  59) = (   0.4998323  -0.0000112   0.4993099  )
        60           Au  tau(  60) = (   0.8330660  -0.0000111   0.4993009  )
        61           Au  tau(  61) = (  -0.0000111   0.1666104   0.4993095  )
        62           Au  tau(  62) = (   0.3332213   0.1666106   0.4993185  )
        63           Au  tau(  63) = (   0.6664437   0.1666106   0.4993187  )
        64           Au  tau(  64) = (   0.1666106   0.3332213   0.4993185  )
        65           Au  tau(  65) = (   0.4998324   0.3332216   0.4993185  )
        66           Au  tau(  66) = (   0.8330658   0.3332215   0.4993102  )
        67           Au  tau(  67) = (  -0.0000112   0.4998323   0.4993099  )
        68           Au  tau(  68) = (   0.3332216   0.4998324   0.4993185  )
        69           Au  tau(  69) = (   0.6664437   0.4998325   0.4993187  )
        70           Au  tau(  70) = (   0.1666106   0.6664437   0.4993187  )
        71           Au  tau(  71) = (   0.4998325   0.6664437   0.4993187  )
        72           Au  tau(  72) = (   0.8330658   0.6664438   0.4993102  )
        73           Au  tau(  73) = (  -0.0000111   0.8330660   0.4993009  )
        74           Au  tau(  74) = (   0.3332215   0.8330658   0.4993102  )
        75           Au  tau(  75) = (   0.6664438   0.8330658   0.4993102  )

     number of k points=     6  Marzari-Vanderbilt smearing, width (Ry)=  0.0200
                       cart. coord. in units 2pi/alat
        k(    1) = (   0.2500000   0.2500000   0.0833333), wk =   0.3333333
        k(    2) = (   0.2500000   0.2500000  -0.2500000), wk =   0.3333333
        k(    3) = (  -0.2500000  -0.2500000   0.0833333), wk =   0.3333333
        k(    4) = (  -0.2500000   0.2500000  -0.0833333), wk =   0.3333333
        k(    5) = (   0.2500000  -0.2500000  -0.0833333), wk =   0.3333333
        k(    6) = (  -0.2500000   0.2500000   0.2500000), wk =   0.3333333

     Dense  grid:  3792731 G-vectors     FFT dimensions: ( 160, 160, 320)

     Smooth grid:  1341081 G-vectors     FFT dimensions: ( 120, 120, 225)

     Largest allocated arrays     est. size (Mb)     dimensions
        Kohn-Sham Wavefunctions        38.58 Mb     (    5267,  480)
        NL pseudopotentials            76.03 Mb     (    5267,  946)
        Each V/rho on FFT grid          3.91 Mb     (  256000)
        Each G-vector array             0.90 Mb     (  118520)
        G-vector shells                 0.08 Mb     (   10286)
     Largest temporary arrays     est. size (Mb)     dimensions
        Auxiliary wavefunctions       154.31 Mb     (    5267, 1920)
        Each subspace H/S matrix       56.25 Mb     (    1920, 1920)
        Each <psi_i|beta_j> matrix      6.93 Mb     (     946,  480)
        Arrays for rho mixing          31.25 Mb     (  256000,    8)

     Initial potential from superposition of free atoms
     Check: negative starting charge=   -1.945170

     starting charge  799.16392, renormalised to  800.00000

     negative rho (up, down):  1.947E+00 0.000E+00


     ************************************************************************
     *
     * You are using vdW-DF for exchange-correlation in this calculation.
     * Please cite the following three references that made this development
     * possible:
     *
     *   M. Dion, H. Rydberg, E. Schroder, D. C. Langreth, and
     *   B. I. Lundqvist, Phys. Rev. Lett. 92, 246401 (2004).
     *
     *   T. Thonhauser, V. R. Cooper, S. Li, A. Puzder, P. Hyldgaard, and
     *   D. C. Langreth, Phys. Rev. B 76, 125112 (2007).
     *
     *   G. Roman-Perez and J. M. Soler, Phys. Rev. Lett. 103, 096102 (2009).
     *
     *
     * If you are using vdW-DF2, please also cite:
     *
     *   K. Lee, E. D. Murray, L. Kong, B. I. Lundqvist, and
     *   D. C. Langreth, Phys. Rev. B 82, 081101(R) (2010).
     *
     *
     * If you are calculating the stress with vdW-DF, please also cite:
     *
     *   R. Sabatini, E. Kucukbenli, B. Kolb, T. Thonhauser, and
     *   S. de Gironcoli, J. Phys.: Condens. Matter 24, 424209 (2012).
     *
     ************************************************************************

     Carrying out vdW-DF run using the following parameters:

     Nqs =      20    Nr_points =    1024   r_max =   100.000
     q_mesh =
               0.00001000     0.04494208     0.09755937     0.15916263
               0.23128650     0.31572767     0.41458969     0.53033537
               0.66584808     0.82450364     1.01025438     1.22772762
               1.48234092     1.78043706     2.12944203     2.53805004
               3.01644009     3.57652955     4.23227104     5.00000000

     Gradients computed in reciprocal space

     ************************************************************************


     Starting wfc are  654 randomized atomic wfcs

     total cpu time spent up to now is      120.2 secs

     Self-consistent Calculation

     iteration #  1     ecut=    50.00 Ry     beta=0.70
     Davidson diagonalization with overlap
     ethr =  1.00E-02,  avg # of iterations =  3.0

     Threshold (ethr) on eigenvalues was too large:
     Diagonalizing with lowered threshold

     Davidson diagonalization with overlap
     ethr =  4.18E-04,  avg # of iterations =  2.0

     negative rho (up, down):  1.947E+00 0.000E+00

     total cpu time spent up to now is      512.1 secs

     total energy              =   -7423.05938437 Ry
     Harris-Foulkes estimate   =   -7426.06360970 Ry
     estimated scf accuracy    <       3.71415351 Ry

     iteration #  2     ecut=    50.00 Ry     beta=0.70
     Davidson diagonalization with overlap
     ethr =  4.64E-04,  avg # of iterations = 11.2

     negative rho (up, down):  1.943E+00 0.000E+00

     total cpu time spent up to now is     1277.6 secs

     total energy              =   -7415.39235323 Ry
     Harris-Foulkes estimate   =   -7432.51856594 Ry
     estimated scf accuracy    <      88.63189773 Ry

     iteration #  3     ecut=    50.00 Ry     beta=0.70
     Davidson diagonalization with overlap
     ethr =  4.64E-04,  avg # of iterations =  6.0

     negative rho (up, down):  1.953E+00 0.000E+00

     total cpu time spent up to now is     1721.9 secs

     total energy              =   -7424.11677795 Ry
     Harris-Foulkes estimate   =   -7425.87223558 Ry
     estimated scf accuracy    <       7.32462133 Ry

     iteration #  4     ecut=    50.00 Ry     beta=0.70
     Davidson diagonalization with overlap
     ethr =  4.64E-04,  avg # of iterations =  5.0

     negative rho (up, down):  1.956E+00 0.000E+00

     total cpu time spent up to now is     1951.3 secs

     total energy              =   -7424.84368997 Ry
     Harris-Foulkes estimate   =   -7425.66715791 Ry
     estimated scf accuracy    <       4.48142998 Ry

     iteration #  5     ecut=    50.00 Ry     beta=0.70
     Davidson diagonalization with overlap
     ethr =  4.64E-04,  avg # of iterations =  5.0

     negative rho (up, down):  1.963E+00 0.000E+00

     total cpu time spent up to now is     2191.6 secs

     total energy              =   -7425.08534982 Ry
     Harris-Foulkes estimate   =   -7425.57254265 Ry
     estimated scf accuracy    <       3.66193978 Ry

     iteration #  6     ecut=    50.00 Ry     beta=0.70
     Davidson diagonalization with overlap
     ethr =  4.58E-04,  avg # of iterations =  2.0

     negative rho (up, down):  1.967E+00 0.000E+00

     total cpu time spent up to now is     2374.1 secs

     total energy              =   -7425.27631354 Ry
     Harris-Foulkes estimate   =   -7425.33519953 Ry
     estimated scf accuracy    <       0.21060319 Ry

     iteration #  7     ecut=    50.00 Ry     beta=0.70
     Davidson diagonalization with overlap
     ethr =  2.63E-05,  avg # of iterations =  6.2

     negative rho (up, down):  1.970E+00 0.000E+00

     total cpu time spent up to now is     2640.5 secs

     total energy              =   -7425.28216822 Ry
     Harris-Foulkes estimate   =   -7425.32987357 Ry
     estimated scf accuracy    <       0.25055319 Ry

     iteration #  8     ecut=    50.00 Ry     beta=0.70
     Davidson diagonalization with overlap
     ethr =  2.63E-05,  avg # of iterations =  3.0

     negative rho (up, down):  1.971E+00 0.000E+00

     total cpu time spent up to now is     2844.2 secs

     total energy              =   -7425.29124960 Ry
     Harris-Foulkes estimate   =   -7425.31034550 Ry
     estimated scf accuracy    <       0.07982821 Ry

     iteration #  9     ecut=    50.00 Ry     beta=0.70
     Davidson diagonalization with overlap
     c_bands:  1 eigenvalues not converged
     ethr =  9.98E-06,  avg # of iterations = 15.8

     negative rho (up, down):  1.972E+00 0.000E+00

     total cpu time spent up to now is     3225.6 secs

     total energy              =   -7425.29188011 Ry
     Harris-Foulkes estimate   =   -7425.30207087 Ry
     estimated scf accuracy    <       0.03478696 Ry

     iteration # 10     ecut=    50.00 Ry     beta=0.70
     Davidson diagonalization with overlap
     ethr =  4.35E-06,  avg # of iterations =  6.5

     negative rho (up, down):  1.973E+00 0.000E+00

     total cpu time spent up to now is     3476.2 secs

     total energy              =   -7425.29276711 Ry
     Harris-Foulkes estimate   =   -7425.29615056 Ry
     estimated scf accuracy    <       0.01041513 Ry

     iteration # 11     ecut=    50.00 Ry     beta=0.70
     Davidson diagonalization with overlap
     ethr =  1.30E-06,  avg # of iterations =  7.8

     negative rho (up, down):  1.974E+00 0.000E+00

     total cpu time spent up to now is     3731.3 secs

     total energy              =   -7425.29303499 Ry
     Harris-Foulkes estimate   =   -7425.29437651 Ry
     estimated scf accuracy    <       0.00455531 Ry

     iteration # 12     ecut=    50.00 Ry     beta=0.70
     Davidson diagonalization with overlap
     ethr =  5.69E-07,  avg # of iterations =  2.8

     negative rho (up, down):  1.974E+00 0.000E+00

     total cpu time spent up to now is     3931.5 secs

     total energy              =   -7425.29230748 Ry
     Harris-Foulkes estimate   =   -7425.29363606 Ry
     estimated scf accuracy    <       0.00230201 Ry

     iteration # 13     ecut=    50.00 Ry     beta=0.70
     Davidson diagonalization with overlap
     ethr =  2.88E-07,  avg # of iterations =  6.5

     negative rho (up, down):  1.974E+00 0.000E+00

     total cpu time spent up to now is     4297.9 secs

     total energy              =   -7425.29097657 Ry
     Harris-Foulkes estimate   =   -7425.29538282 Ry
     estimated scf accuracy    <       0.02393629 Ry

     iteration # 14     ecut=    50.00 Ry     beta=0.70
     Davidson diagonalization with overlap
     ethr =  2.88E-07,  avg # of iterations =  3.0

     negative rho (up, down):  1.974E+00 0.000E+00

     total cpu time spent up to now is     4570.0 secs

     total energy              =   -7425.29301727 Ry
     Harris-Foulkes estimate   =   -7425.29320115 Ry
     estimated scf accuracy    <       0.00057044 Ry

     iteration # 15     ecut=    50.00 Ry     beta=0.70
     Davidson diagonalization with overlap
     ethr =  7.13E-08,  avg # of iterations =  2.0

     negative rho (up, down):  1.974E+00 0.000E+00

     total cpu time spent up to now is     4759.3 secs

     total energy              =   -7425.29303422 Ry
     Harris-Foulkes estimate   =   -7425.29319211 Ry
     estimated scf accuracy    <       0.00074851 Ry

     iteration # 16     ecut=    50.00 Ry     beta=0.70
     Davidson diagonalization with overlap
     ethr =  7.13E-08,  avg # of iterations =  2.0

     negative rho (up, down):  1.974E+00 0.000E+00

     total cpu time spent up to now is     4946.4 secs

     total energy              =   -7425.29299453 Ry
     Harris-Foulkes estimate   =   -7425.29328649 Ry
     estimated scf accuracy    <       0.00244104 Ry

     iteration # 17     ecut=    50.00 Ry     beta=0.70
     Davidson diagonalization with overlap
     ethr =  7.13E-08,  avg # of iterations =  2.0

     negative rho (up, down):  1.974E+00 0.000E+00

     total cpu time spent up to now is     5122.2 secs

     total energy              =   -7425.29313029 Ry
     Harris-Foulkes estimate   =   -7425.29314200 Ry
     estimated scf accuracy    <       0.00003885 Ry

     iteration # 18     ecut=    50.00 Ry     beta=0.70
     Davidson diagonalization with overlap
     ethr =  4.86E-09,  avg # of iterations =  3.0

     negative rho (up, down):  1.974E+00 0.000E+00

     total cpu time spent up to now is     5321.4 secs

     total energy              =   -7425.29313609 Ry
     Harris-Foulkes estimate   =   -7425.29314155 Ry
     estimated scf accuracy    <       0.00002794 Ry

     iteration # 19     ecut=    50.00 Ry     beta=0.70
     Davidson diagonalization with overlap
     ethr =  3.49E-09,  avg # of iterations =  2.0

     negative rho (up, down):  1.974E+00 0.000E+00

     total cpu time spent up to now is     5492.7 secs

     total energy              =   -7425.29313854 Ry
     Harris-Foulkes estimate   =   -7425.29313965 Ry
     estimated scf accuracy    <       0.00000390 Ry

     iteration # 20     ecut=    50.00 Ry     beta=0.70
     Davidson diagonalization with overlap
     ethr =  4.87E-10,  avg # of iterations =  2.0

     negative rho (up, down):  1.974E+00 0.000E+00

     total cpu time spent up to now is     5684.3 secs

     total energy              =   -7425.29313905 Ry
     Harris-Foulkes estimate   =   -7425.29313959 Ry
     estimated scf accuracy    <       0.00000224 Ry

     iteration # 21     ecut=    50.00 Ry     beta=0.70
     Davidson diagonalization with overlap
     ethr =  2.80E-10,  avg # of iterations =  2.0

     negative rho (up, down):  1.974E+00 0.000E+00

     total cpu time spent up to now is     5864.1 secs

     total energy              =   -7425.29313934 Ry
     Harris-Foulkes estimate   =   -7425.29313945 Ry
     estimated scf accuracy    <       0.00000048 Ry

     iteration # 22     ecut=    50.00 Ry     beta=0.70
     Davidson diagonalization with overlap
     ethr =  5.97E-11,  avg # of iterations =  2.0

     negative rho (up, down):  1.974E+00 0.000E+00

     total cpu time spent up to now is     6067.7 secs

     total energy              =   -7425.29313941 Ry
     Harris-Foulkes estimate   =   -7425.29313947 Ry
     estimated scf accuracy    <       0.00000021 Ry

     iteration # 23     ecut=    50.00 Ry     beta=0.70
     Davidson diagonalization with overlap
     ethr =  2.65E-11,  avg # of iterations =  3.0

     negative rho (up, down):  1.974E+00 0.000E+00

     total cpu time spent up to now is     6279.9 secs

     total energy              =   -7425.29313940 Ry
     Harris-Foulkes estimate   =   -7425.29313949 Ry
     estimated scf accuracy    <       0.00000041 Ry

     iteration # 24     ecut=    50.00 Ry     beta=0.70
     Davidson diagonalization with overlap
     ethr =  2.65E-11,  avg # of iterations =  2.0

     negative rho (up, down):  1.974E+00 0.000E+00

     total cpu time spent up to now is     6470.3 secs

     total energy              =   -7425.29313945 Ry
     Harris-Foulkes estimate   =   -7425.29313945 Ry
     estimated scf accuracy    <       0.00000006 Ry

     iteration # 25     ecut=    50.00 Ry     beta=0.70
     Davidson diagonalization with overlap
     ethr =  7.93E-12,  avg # of iterations =  2.0

     negative rho (up, down):  1.974E+00 0.000E+00

     total cpu time spent up to now is     6657.8 secs

     total energy              =   -7425.29313946 Ry
     Harris-Foulkes estimate   =   -7425.29313946 Ry
     estimated scf accuracy    <       0.00000004 Ry

     iteration # 26     ecut=    50.00 Ry     beta=0.70
     Davidson diagonalization with overlap
     ethr =  5.49E-12,  avg # of iterations =  2.0

     negative rho (up, down):  1.974E+00 0.000E+00

     total cpu time spent up to now is     6833.3 secs

     total energy              =   -7425.29313947 Ry
     Harris-Foulkes estimate   =   -7425.29313947 Ry
     estimated scf accuracy    <       0.00000001 Ry

     iteration # 27     ecut=    50.00 Ry     beta=0.70
     Davidson diagonalization with overlap
     ethr =  1.53E-12,  avg # of iterations =  3.0

     negative rho (up, down):  1.974E+00 0.000E+00

     total cpu time spent up to now is     7048.5 secs

     total energy              =   -7425.29313947 Ry
     Harris-Foulkes estimate   =   -7425.29313947 Ry
     estimated scf accuracy    <       0.00000002 Ry

     iteration # 28     ecut=    50.00 Ry     beta=0.70
     Davidson diagonalization with overlap
     ethr =  1.53E-12,  avg # of iterations =  2.0

     negative rho (up, down):  1.974E+00 0.000E+00

     total cpu time spent up to now is     7235.1 secs

     total energy              =   -7425.29313947 Ry
     Harris-Foulkes estimate   =   -7425.29313947 Ry
     estimated scf accuracy    <       0.00000001 Ry

     iteration # 29     ecut=    50.00 Ry     beta=0.70
     Davidson diagonalization with overlap
     ethr =  1.53E-12,  avg # of iterations =  1.0

     negative rho (up, down):  1.974E+00 0.000E+00

     total cpu time spent up to now is     7402.6 secs

     End of self-consistent calculation

          k = 0.2500 0.2500 0.0833 (167653 PWs)   bands (ev):

   -19.2731  -7.1680  -6.8585  -6.3331  -6.3315  -5.9033  -5.4940  -5.4018
    -5.4005  -5.2052  -5.2052  -5.0887  -5.0863  -5.0086  -4.9862  -4.9130
    -4.8279  -4.8241  -4.7861  -4.7850  -4.6253  -4.6075  -4.6068  -4.6059
    -4.5993  -4.5439  -4.5436  -4.5323  -4.5313  -4.4947  -4.4836  -4.4815
    -4.4400  -4.4398  -4.4065  -4.4052  -4.3557  -4.3528  -4.3439  -4.3413
    -4.3358  -4.3227  -4.3226  -4.2829  -4.2636  -4.2631  -4.2563  -4.2558
    -4.2250  -4.1762  -4.1596  -4.1588  -4.1583  -4.1549  -4.1472  -4.1417
    -4.1416  -4.1410  -4.0798  -4.0757  -4.0278  -4.0257  -4.0146  -3.9889
    -3.9877  -3.9698  -3.9649  -3.9648  -3.9604  -3.9580  -3.9088  -3.9082
    -3.8967  -3.8950  -3.7931  -3.7896  -3.7855  -3.7832  -3.7464  -3.7437
    -3.7224  -3.6936  -3.6932  -3.6649  -3.6637  -3.6442  -3.6427  -3.6319
    -3.6285  -3.5753  -3.5735  -3.5598  -3.5395  -3.5315  -3.5276  -3.5270
    -3.5259  -3.5008  -3.4989  -3.4656  -3.4619  -3.4529  -3.4395  -3.4177
    -3.4059  -3.3894  -3.3729  -3.3605  -3.3456  -3.3234  -3.3229  -3.2862
    -3.2794  -3.2791  -3.2648  -3.2616  -3.2598  -3.2579  -3.2213  -3.2107
    -3.1713  -3.1707  -3.1624  -3.1537  -3.1524  -3.1504  -3.1271  -3.1271
    -3.1065  -3.1058  -3.1042  -3.0783  -3.0778  -3.0704  -3.0673  -3.0659
    -3.0309  -3.0285  -2.9934  -2.9912  -2.9907  -2.9881  -2.9874  -2.9080
    -2.8986  -2.8957  -2.8940  -2.8934  -2.8923  -2.8887  -2.8878  -2.8868
    -2.8864  -2.8771  -2.8693  -2.8532  -2.8497  -2.8485  -2.8480  -2.8347
    -2.8296  -2.7924  -2.7912  -2.7908  -2.7867  -2.7856  -2.7684  -2.7676
    -2.7594  -2.7591  -2.7565  -2.6976  -2.6974  -2.6917  -2.6916  -2.6868
    -2.6861  -2.6589  -2.5997  -2.5987  -2.5981  -2.5955  -2.5844  -2.5829
    -2.5780  -2.5679  -2.5662  -2.5328  -2.5295  -2.5227  -2.5214  -2.5199
    -2.5193  -2.4818  -2.4805  -2.4714  -2.4704  -2.4693  -2.4681  -2.4256
    -2.4103  -2.4046  -2.3520  -2.3509  -2.3352  -2.3320  -2.3264  -2.3250
    -2.2781  -2.2764  -2.2541  -2.2385  -2.2246  -2.2232  -2.2214  -2.2007
    -2.1994  -2.1911  -2.1738  -2.1383  -2.1338  -2.1198  -2.1193  -2.1168
    -2.1089  -2.1070  -2.0960  -2.0922  -2.0913  -2.0871  -2.0839  -2.0813
    -2.0807  -2.0708  -2.0693  -2.0530  -2.0509  -2.0497  -2.0434  -2.0406
    -2.0393  -2.0176  -2.0160  -2.0052  -2.0040  -1.9978  -1.9969  -1.9592
    -1.9268  -1.9255  -1.8906  -1.8736  -1.8731  -1.8643  -1.8609  -1.8400
    -1.8379  -1.8268  -1.8230  -1.8225  -1.8214  -1.8205  -1.8178  -1.7864
    -1.7855  -1.7852  -1.7419  -1.7399  -1.7018  -1.6996  -1.6533  -1.6523
    -1.6400  -1.6183  -1.6141  -1.6104  -1.6058  -1.5919  -1.5805  -1.5740
    -1.5722  -1.5696  -1.5679  -1.5668  -1.5662  -1.5645  -1.5447  -1.5431
    -1.5332  -1.5170  -1.5024  -1.4979  -1.4815  -1.4713  -1.4692  -1.4675
    -1.4644  -1.4609  -1.4418  -1.4391  -1.4300  -1.4228  -1.4111  -1.4029
    -1.3912  -1.3877  -1.3677  -1.3563  -1.3534  -1.3482  -1.3409  -1.3117
    -1.3078  -1.3037  -1.3010  -1.2955  -1.2810  -1.2744  -1.2721  -1.2620
    -1.2553  -1.2520  -1.2432  -1.2410  -1.2399  -1.2306  -1.2270  -1.2155
    -1.2107  -1.2078  -1.2067  -1.1931  -1.1907  -1.1852  -1.1784  -1.1446
    -1.1399  -1.1377  -1.1351  -1.1346  -1.1304  -1.0965  -1.0791  -1.0774
    -1.0770  -1.0759  -1.0729  -1.0683  -1.0667  -1.0529  -1.0466  -1.0166
    -1.0139  -1.0091  -1.0085  -0.9869  -0.9859  -0.9765  -0.9471  -0.9389
    -0.9131  -0.9107  -0.8836  -0.8833  -0.8801  -0.8796  -0.8779  -0.8734
    -0.8696  -0.8694  -0.8654  -0.8639  -0.8328  -0.8322  -0.8132  -0.8111
    -0.8092  -0.8079  -0.8066  -0.8017  -0.7883  -0.5148  -0.5014  -0.4442
    -0.4401  -0.4068  -0.2474  -0.1820  -0.1803  -0.1454   0.1379   0.1400
     0.4687   0.4731   0.5664   0.5673   0.6064   0.6095   0.7523   0.7571
     0.8755   0.8782   0.9705   1.5634   1.5809   1.5820   1.6163   1.6268
     1.6719   1.6819   1.7512   1.7540   1.9572   1.9588   2.1983   2.2718
     2.2772   2.2900   2.6708   2.6791   2.7428   2.7445   2.7509   2.7529
     2.9024   2.9036   2.9608   3.0481   3.0554   3.2775   3.2859   3.4120
     3.4389   3.4415   3.7115   3.7165   3.8293   3.8439   3.8442   3.9178
     3.9422   4.0256   4.0321   4.2651   4.2686   4.3552   4.3623   4.4766
     4.4853   4.5058   4.5139   4.6742   5.1643   5.3246   5.3391   5.4129
     5.4191   5.5318   5.5904   5.5950   5.6552   5.7014   5.7098   5.7145
     5.7472   5.7569   5.7616   5.8004   6.0125   6.0650   6.0779   6.0914
     6.0975   6.1030   6.1078   6.1119   6.1140   6.1499   6.1793   6.2070

          k = 0.2500 0.2500-0.2500 (167588 PWs)   bands (ev):

   -19.2731  -7.1680  -6.8585  -6.3331  -6.3315  -5.9033  -5.4940  -5.4018
    -5.4005  -5.2052  -5.2052  -5.0887  -5.0863  -5.0086  -4.9862  -4.9130
    -4.8279  -4.8241  -4.7861  -4.7850  -4.6253  -4.6075  -4.6068  -4.6059
    -4.5993  -4.5439  -4.5436  -4.5323  -4.5313  -4.4947  -4.4836  -4.4815
    -4.4400  -4.4398  -4.4065  -4.4052  -4.3557  -4.3527  -4.3439  -4.3413
    -4.3358  -4.3227  -4.3226  -4.2829  -4.2636  -4.2631  -4.2563  -4.2558
    -4.2250  -4.1762  -4.1596  -4.1588  -4.1583  -4.1549  -4.1472  -4.1417
    -4.1416  -4.1410  -4.0798  -4.0757  -4.0278  -4.0257  -4.0146  -3.9889
    -3.9876  -3.9698  -3.9649  -3.9648  -3.9604  -3.9580  -3.9088  -3.9082
    -3.8967  -3.8950  -3.7931  -3.7896  -3.7855  -3.7832  -3.7464  -3.7437
    -3.7224  -3.6936  -3.6932  -3.6649  -3.6637  -3.6442  -3.6427  -3.6319
    -3.6285  -3.5753  -3.5735  -3.5598  -3.5395  -3.5315  -3.5276  -3.5270
    -3.5259  -3.5008  -3.4989  -3.4656  -3.4618  -3.4529  -3.4395  -3.4177
    -3.4059  -3.3894  -3.3729  -3.3605  -3.3455  -3.3234  -3.3229  -3.2862
    -3.2794  -3.2791  -3.2648  -3.2616  -3.2598  -3.2579  -3.2213  -3.2107
    -3.1713  -3.1707  -3.1624  -3.1537  -3.1524  -3.1504  -3.1271  -3.1271
    -3.1065  -3.1058  -3.1042  -3.0783  -3.0778  -3.0704  -3.0673  -3.0659
    -3.0309  -3.0285  -2.9934  -2.9912  -2.9907  -2.9881  -2.9874  -2.9080
    -2.8986  -2.8957  -2.8940  -2.8934  -2.8923  -2.8886  -2.8878  -2.8868
    -2.8864  -2.8771  -2.8693  -2.8532  -2.8497  -2.8485  -2.8480  -2.8347
    -2.8296  -2.7924  -2.7912  -2.7908  -2.7867  -2.7856  -2.7684  -2.7676
    -2.7594  -2.7591  -2.7565  -2.6976  -2.6974  -2.6917  -2.6916  -2.6868
    -2.6861  -2.6589  -2.5997  -2.5987  -2.5981  -2.5955  -2.5844  -2.5829
    -2.5780  -2.5679  -2.5662  -2.5328  -2.5295  -2.5227  -2.5214  -2.5199
    -2.5193  -2.4818  -2.4805  -2.4714  -2.4704  -2.4693  -2.4681  -2.4256
    -2.4103  -2.4046  -2.3520  -2.3509  -2.3352  -2.3320  -2.3264  -2.3250
    -2.2781  -2.2764  -2.2541  -2.2385  -2.2246  -2.2232  -2.2214  -2.2007
    -2.1994  -2.1911  -2.1738  -2.1383  -2.1338  -2.1198  -2.1193  -2.1168
    -2.1089  -2.1070  -2.0960  -2.0922  -2.0913  -2.0871  -2.0839  -2.0813
    -2.0807  -2.0708  -2.0693  -2.0530  -2.0509  -2.0497  -2.0434  -2.0406
    -2.0393  -2.0176  -2.0160  -2.0052  -2.0040  -1.9978  -1.9968  -1.9593
    -1.9268  -1.9254  -1.8906  -1.8735  -1.8731  -1.8643  -1.8609  -1.8400
    -1.8379  -1.8268  -1.8230  -1.8225  -1.8213  -1.8205  -1.8178  -1.7864
    -1.7855  -1.7852  -1.7419  -1.7399  -1.7018  -1.6996  -1.6533  -1.6523
    -1.6400  -1.6183  -1.6141  -1.6104  -1.6059  -1.5919  -1.5805  -1.5740
    -1.5722  -1.5696  -1.5679  -1.5668  -1.5662  -1.5645  -1.5447  -1.5431
    -1.5332  -1.5170  -1.5024  -1.4979  -1.4815  -1.4713  -1.4692  -1.4675
    -1.4644  -1.4609  -1.4418  -1.4390  -1.4300  -1.4228  -1.4111  -1.4029
    -1.3912  -1.3877  -1.3677  -1.3563  -1.3534  -1.3482  -1.3409  -1.3117
    -1.3078  -1.3037  -1.3010  -1.2955  -1.2810  -1.2744  -1.2721  -1.2620
    -1.2553  -1.2520  -1.2432  -1.2410  -1.2399  -1.2306  -1.2270  -1.2155
    -1.2107  -1.2078  -1.2067  -1.1931  -1.1907  -1.1852  -1.1784  -1.1446
    -1.1399  -1.1377  -1.1351  -1.1346  -1.1304  -1.0965  -1.0791  -1.0774
    -1.0770  -1.0759  -1.0729  -1.0683  -1.0667  -1.0529  -1.0466  -1.0166
    -1.0139  -1.0091  -1.0085  -0.9869  -0.9859  -0.9765  -0.9471  -0.9389
    -0.9131  -0.9107  -0.8836  -0.8833  -0.8801  -0.8796  -0.8779  -0.8734
    -0.8696  -0.8694  -0.8654  -0.8639  -0.8328  -0.8322  -0.8132  -0.8111
    -0.8092  -0.8079  -0.8066  -0.8017  -0.7883  -0.5148  -0.5014  -0.4442
    -0.4401  -0.4068  -0.2474  -0.1820  -0.1803  -0.1454   0.1379   0.1400
     0.4687   0.4731   0.5664   0.5673   0.6064   0.6095   0.7524   0.7571
     0.8755   0.8782   0.9705   1.5634   1.5809   1.5820   1.6163   1.6268
     1.6719   1.6819   1.7512   1.7540   1.9572   1.9588   2.1983   2.2718
     2.2772   2.2900   2.6708   2.6791   2.7428   2.7445   2.7509   2.7529
     2.9024   2.9036   2.9608   3.0481   3.0555   3.2775   3.2859   3.4120
     3.4390   3.4415   3.7115   3.7165   3.8293   3.8439   3.8442   3.9178
     3.9422   4.0256   4.0321   4.2651   4.2685   4.3552   4.3623   4.4766
     4.4853   4.5058   4.5139   4.6743   5.1555   5.3229   5.3342   5.4124
     5.4192   5.5339   5.5905   5.5956   5.6641   5.7056   5.7109   5.7272
     5.7553   5.7606   5.7646   5.8007   6.0323   6.0678   6.0797   6.0910
     6.0940   6.1044   6.1085   6.1135   6.1142   6.1405   6.1939   6.2267

          k =-0.2500-0.2500 0.0833 (167653 PWs)   bands (ev):

   -19.2731  -7.1680  -6.8585  -6.3331  -6.3315  -5.9033  -5.4940  -5.4018
    -5.4005  -5.2052  -5.2052  -5.0887  -5.0863  -5.0086  -4.9862  -4.9130
    -4.8279  -4.8241  -4.7861  -4.7850  -4.6253  -4.6075  -4.6068  -4.6059
    -4.5993  -4.5439  -4.5436  -4.5323  -4.5313  -4.4947  -4.4836  -4.4815
    -4.4400  -4.4398  -4.4065  -4.4052  -4.3557  -4.3528  -4.3439  -4.3413
    -4.3358  -4.3227  -4.3226  -4.2829  -4.2636  -4.2631  -4.2563  -4.2558
    -4.2250  -4.1762  -4.1596  -4.1588  -4.1583  -4.1549  -4.1472  -4.1417
    -4.1416  -4.1410  -4.0798  -4.0757  -4.0278  -4.0257  -4.0146  -3.9889
    -3.9877  -3.9698  -3.9649  -3.9648  -3.9604  -3.9580  -3.9088  -3.9082
    -3.8967  -3.8950  -3.7931  -3.7896  -3.7855  -3.7832  -3.7464  -3.7437
    -3.7224  -3.6936  -3.6932  -3.6649  -3.6637  -3.6442  -3.6427  -3.6319
    -3.6285  -3.5753  -3.5735  -3.5598  -3.5395  -3.5315  -3.5276  -3.5270
    -3.5259  -3.5008  -3.4989  -3.4656  -3.4619  -3.4529  -3.4395  -3.4177
    -3.4059  -3.3894  -3.3729  -3.3605  -3.3456  -3.3234  -3.3229  -3.2862
    -3.2794  -3.2791  -3.2648  -3.2616  -3.2598  -3.2579  -3.2213  -3.2107
    -3.1713  -3.1707  -3.1624  -3.1537  -3.1524  -3.1504  -3.1271  -3.1271
    -3.1065  -3.1058  -3.1042  -3.0783  -3.0778  -3.0704  -3.0673  -3.0659
    -3.0309  -3.0285  -2.9934  -2.9912  -2.9907  -2.9881  -2.9874  -2.9080
    -2.8986  -2.8957  -2.8940  -2.8934  -2.8923  -2.8887  -2.8878  -2.8868
    -2.8864  -2.8771  -2.8693  -2.8532  -2.8497  -2.8485  -2.8480  -2.8347
    -2.8296  -2.7924  -2.7912  -2.7908  -2.7867  -2.7856  -2.7684  -2.7676
    -2.7594  -2.7591  -2.7565  -2.6976  -2.6974  -2.6917  -2.6916  -2.6868
    -2.6861  -2.6589  -2.5997  -2.5987  -2.5981  -2.5955  -2.5844  -2.5829
    -2.5780  -2.5679  -2.5662  -2.5328  -2.5295  -2.5227  -2.5214  -2.5199
    -2.5193  -2.4818  -2.4805  -2.4714  -2.4704  -2.4693  -2.4681  -2.4256
    -2.4103  -2.4046  -2.3520  -2.3509  -2.3352  -2.3320  -2.3264  -2.3250
    -2.2781  -2.2764  -2.2541  -2.2385  -2.2246  -2.2232  -2.2214  -2.2007
    -2.1994  -2.1911  -2.1738  -2.1383  -2.1338  -2.1198  -2.1193  -2.1168
    -2.1089  -2.1070  -2.0960  -2.0922  -2.0913  -2.0871  -2.0839  -2.0813
    -2.0807  -2.0708  -2.0693  -2.0530  -2.0509  -2.0497  -2.0434  -2.0406
    -2.0393  -2.0176  -2.0160  -2.0052  -2.0040  -1.9978  -1.9969  -1.9592
    -1.9268  -1.9255  -1.8906  -1.8736  -1.8731  -1.8643  -1.8609  -1.8400
    -1.8379  -1.8268  -1.8230  -1.8225  -1.8214  -1.8205  -1.8178  -1.7864
    -1.7855  -1.7852  -1.7419  -1.7399  -1.7018  -1.6996  -1.6533  -1.6523
    -1.6400  -1.6183  -1.6141  -1.6104  -1.6058  -1.5919  -1.5805  -1.5740
    -1.5722  -1.5696  -1.5679  -1.5668  -1.5662  -1.5645  -1.5447  -1.5431
    -1.5332  -1.5170  -1.5024  -1.4979  -1.4815  -1.4713  -1.4692  -1.4675
    -1.4644  -1.4609  -1.4418  -1.4391  -1.4300  -1.4228  -1.4111  -1.4029
    -1.3912  -1.3877  -1.3677  -1.3563  -1.3534  -1.3482  -1.3409  -1.3117
    -1.3078  -1.3037  -1.3010  -1.2955  -1.2810  -1.2744  -1.2721  -1.2620
    -1.2553  -1.2520  -1.2432  -1.2410  -1.2399  -1.2306  -1.2270  -1.2155
    -1.2107  -1.2078  -1.2067  -1.1931  -1.1907  -1.1852  -1.1784  -1.1446
    -1.1399  -1.1377  -1.1351  -1.1346  -1.1304  -1.0965  -1.0791  -1.0774
    -1.0770  -1.0759  -1.0729  -1.0683  -1.0667  -1.0529  -1.0466  -1.0166
    -1.0139  -1.0091  -1.0085  -0.9869  -0.9859  -0.9765  -0.9471  -0.9389
    -0.9131  -0.9107  -0.8836  -0.8833  -0.8801  -0.8796  -0.8779  -0.8734
    -0.8696  -0.8694  -0.8654  -0.8639  -0.8328  -0.8322  -0.8132  -0.8111
    -0.8092  -0.8079  -0.8066  -0.8017  -0.7883  -0.5148  -0.5014  -0.4442
    -0.4401  -0.4068  -0.2474  -0.1820  -0.1803  -0.1454   0.1379   0.1400
     0.4687   0.4731   0.5664   0.5673   0.6064   0.6095   0.7523   0.7571
     0.8755   0.8782   0.9705   1.5634   1.5809   1.5820   1.6163   1.6268
     1.6719   1.6819   1.7512   1.7540   1.9572   1.9588   2.1983   2.2718
     2.2772   2.2900   2.6708   2.6791   2.7428   2.7445   2.7509   2.7529
     2.9024   2.9036   2.9608   3.0481   3.0554   3.2775   3.2859   3.4120
     3.4389   3.4415   3.7115   3.7165   3.8293   3.8439   3.8442   3.9178
     3.9422   4.0256   4.0321   4.2651   4.2686   4.3552   4.3623   4.4766
     4.4853   4.5058   4.5139   4.6742   5.1641   5.3244   5.3402   5.4129
     5.4192   5.5289   5.5902   5.5951   5.6564   5.7027   5.7100   5.7155
     5.7477   5.7569   5.7616   5.8004   6.0140   6.0652   6.0776   6.0914
     6.0971   6.1030   6.1083   6.1112   6.1140   6.1501   6.1741   6.2033

          k =-0.2500 0.2500-0.0833 (167653 PWs)   bands (ev):

   -19.2731  -7.1680  -6.8585  -6.3333  -6.3314  -5.9033  -5.4940  -5.4018
    -5.4005  -5.2052  -5.2052  -5.0889  -5.0861  -5.0086  -4.9862  -4.9130
    -4.8279  -4.8241  -4.7862  -4.7849  -4.6253  -4.6075  -4.6069  -4.6058
    -4.5993  -4.5439  -4.5436  -4.5324  -4.5312  -4.4947  -4.4837  -4.4813
    -4.4400  -4.4398  -4.4065  -4.4052  -4.3558  -4.3527  -4.3439  -4.3413
    -4.3358  -4.3227  -4.3226  -4.2829  -4.2636  -4.2631  -4.2564  -4.2557
    -4.2249  -4.1762  -4.1597  -4.1589  -4.1583  -4.1548  -4.1472  -4.1417
    -4.1416  -4.1410  -4.0799  -4.0756  -4.0277  -4.0258  -4.0145  -3.9889
    -3.9876  -3.9700  -3.9651  -3.9644  -3.9605  -3.9580  -3.9087  -3.9082
    -3.8968  -3.8949  -3.7930  -3.7895  -3.7856  -3.7831  -3.7464  -3.7437
    -3.7224  -3.6937  -3.6932  -3.6649  -3.6636  -3.6443  -3.6428  -3.6319
    -3.6285  -3.5752  -3.5735  -3.5596  -3.5397  -3.5316  -3.5276  -3.5270
    -3.5260  -3.5011  -3.4990  -3.4658  -3.4619  -3.4524  -3.4396  -3.4173
    -3.4060  -3.3894  -3.3724  -3.3605  -3.3460  -3.3235  -3.3228  -3.2863
    -3.2793  -3.2791  -3.2648  -3.2617  -3.2598  -3.2582  -3.2213  -3.2107
    -3.1713  -3.1706  -3.1624  -3.1538  -3.1522  -3.1505  -3.1271  -3.1271
    -3.1066  -3.1059  -3.1040  -3.0782  -3.0778  -3.0704  -3.0673  -3.0658
    -3.0309  -3.0285  -2.9936  -2.9912  -2.9907  -2.9882  -2.9874  -2.9080
    -2.8986  -2.8958  -2.8939  -2.8933  -2.8924  -2.8888  -2.8876  -2.8867
    -2.8864  -2.8771  -2.8693  -2.8532  -2.8497  -2.8485  -2.8480  -2.8346
    -2.8295  -2.7925  -2.7912  -2.7908  -2.7869  -2.7856  -2.7685  -2.7675
    -2.7594  -2.7591  -2.7565  -2.6976  -2.6975  -2.6917  -2.6916  -2.6869
    -2.6860  -2.6590  -2.5997  -2.5987  -2.5978  -2.5956  -2.5844  -2.5829
    -2.5778  -2.5679  -2.5662  -2.5328  -2.5294  -2.5228  -2.5215  -2.5199
    -2.5193  -2.4818  -2.4804  -2.4714  -2.4703  -2.4693  -2.4681  -2.4256
    -2.4108  -2.4047  -2.3521  -2.3509  -2.3349  -2.3322  -2.3263  -2.3251
    -2.2782  -2.2763  -2.2541  -2.2386  -2.2245  -2.2233  -2.2214  -2.2007
    -2.1994  -2.1910  -2.1739  -2.1383  -2.1339  -2.1198  -2.1191  -2.1169
    -2.1089  -2.1070  -2.0960  -2.0922  -2.0913  -2.0871  -2.0840  -2.0813
    -2.0806  -2.0708  -2.0693  -2.0526  -2.0510  -2.0496  -2.0434  -2.0406
    -2.0392  -2.0176  -2.0159  -2.0050  -2.0041  -1.9979  -1.9967  -1.9592
    -1.9269  -1.9252  -1.8906  -1.8736  -1.8730  -1.8648  -1.8608  -1.8406
    -1.8379  -1.8272  -1.8229  -1.8225  -1.8213  -1.8206  -1.8176  -1.7864
    -1.7855  -1.7852  -1.7413  -1.7399  -1.7019  -1.6999  -1.6533  -1.6523
    -1.6403  -1.6178  -1.6136  -1.6105  -1.6039  -1.5921  -1.5804  -1.5743
    -1.5721  -1.5699  -1.5680  -1.5668  -1.5661  -1.5645  -1.5447  -1.5430
    -1.5339  -1.5170  -1.5039  -1.4979  -1.4818  -1.4713  -1.4690  -1.4676
    -1.4652  -1.4610  -1.4422  -1.4392  -1.4305  -1.4230  -1.4111  -1.4028
    -1.3916  -1.3880  -1.3644  -1.3564  -1.3528  -1.3482  -1.3415  -1.3118
    -1.3090  -1.3039  -1.3022  -1.2955  -1.2811  -1.2745  -1.2719  -1.2622
    -1.2555  -1.2517  -1.2434  -1.2409  -1.2400  -1.2284  -1.2268  -1.2156
    -1.2105  -1.2078  -1.2069  -1.1926  -1.1907  -1.1850  -1.1759  -1.1445
    -1.1396  -1.1381  -1.1351  -1.1347  -1.1313  -1.0965  -1.0792  -1.0774
    -1.0769  -1.0759  -1.0726  -1.0684  -1.0662  -1.0529  -1.0489  -1.0167
    -1.0131  -1.0091  -1.0084  -0.9869  -0.9859  -0.9766  -0.9471  -0.9390
    -0.9131  -0.9106  -0.8836  -0.8832  -0.8801  -0.8797  -0.8779  -0.8735
    -0.8696  -0.8694  -0.8655  -0.8639  -0.8329  -0.8321  -0.8135  -0.8108
    -0.8089  -0.8078  -0.8065  -0.8025  -0.7884  -0.5148  -0.5013  -0.4448
    -0.4400  -0.4067  -0.2474  -0.1821  -0.1803  -0.1449   0.1379   0.1399
     0.4683   0.4738   0.5663   0.5674   0.6064   0.6097   0.7521   0.7567
     0.8755   0.8782   0.9707   1.5637   1.5809   1.5821   1.6165   1.6267
     1.6707   1.6827   1.7508   1.7543   1.9570   1.9590   2.1986   2.2714
     2.2779   2.2900   2.6699   2.6801   2.7428   2.7444   2.7509   2.7529
     2.9023   2.9036   2.9605   3.0474   3.0560   3.2775   3.2852   3.4120
     3.4387   3.4420   3.7109   3.7169   3.8301   3.8439   3.8443   3.9158
     3.9441   4.0255   4.0322   4.2649   4.2686   4.3557   4.3621   4.4768
     4.4851   4.5049   4.5152   4.6740   5.1626   5.3259   5.3392   5.4125
     5.4196   5.5281   5.5896   5.5957   5.6554   5.7029   5.7091   5.7149
     5.7497   5.7574   5.7620   5.8003   6.0162   6.0636   6.0784   6.0918
     6.0973   6.1031   6.1082   6.1107   6.1139   6.1519   6.1709   6.2055

          k = 0.2500-0.2500-0.0833 (167653 PWs)   bands (ev):

   -19.2731  -7.1680  -6.8585  -6.3333  -6.3314  -5.9033  -5.4940  -5.4018
    -5.4005  -5.2052  -5.2052  -5.0889  -5.0861  -5.0086  -4.9862  -4.9130
    -4.8279  -4.8241  -4.7862  -4.7849  -4.6253  -4.6075  -4.6069  -4.6058
    -4.5993  -4.5439  -4.5436  -4.5324  -4.5312  -4.4947  -4.4837  -4.4813
    -4.4400  -4.4398  -4.4065  -4.4052  -4.3558  -4.3527  -4.3439  -4.3413
    -4.3358  -4.3227  -4.3226  -4.2829  -4.2636  -4.2631  -4.2564  -4.2557
    -4.2249  -4.1762  -4.1597  -4.1589  -4.1583  -4.1548  -4.1472  -4.1417
    -4.1416  -4.1410  -4.0799  -4.0756  -4.0277  -4.0258  -4.0145  -3.9889
    -3.9876  -3.9700  -3.9651  -3.9644  -3.9605  -3.9580  -3.9087  -3.9082
    -3.8968  -3.8949  -3.7930  -3.7895  -3.7856  -3.7831  -3.7464  -3.7437
    -3.7224  -3.6937  -3.6932  -3.6649  -3.6636  -3.6443  -3.6428  -3.6319
    -3.6285  -3.5752  -3.5735  -3.5596  -3.5397  -3.5316  -3.5276  -3.5270
    -3.5260  -3.5011  -3.4990  -3.4658  -3.4619  -3.4524  -3.4396  -3.4173
    -3.4060  -3.3894  -3.3724  -3.3605  -3.3460  -3.3235  -3.3228  -3.2863
    -3.2793  -3.2791  -3.2648  -3.2617  -3.2598  -3.2582  -3.2213  -3.2107
    -3.1713  -3.1706  -3.1624  -3.1538  -3.1522  -3.1505  -3.1271  -3.1271
    -3.1066  -3.1059  -3.1040  -3.0782  -3.0778  -3.0704  -3.0673  -3.0658
    -3.0309  -3.0285  -2.9936  -2.9912  -2.9907  -2.9882  -2.9874  -2.9080
    -2.8986  -2.8958  -2.8939  -2.8933  -2.8924  -2.8888  -2.8876  -2.8867
    -2.8864  -2.8771  -2.8693  -2.8532  -2.8497  -2.8485  -2.8480  -2.8346
    -2.8295  -2.7925  -2.7912  -2.7908  -2.7869  -2.7856  -2.7685  -2.7675
    -2.7594  -2.7591  -2.7565  -2.6976  -2.6975  -2.6917  -2.6916  -2.6869
    -2.6860  -2.6590  -2.5997  -2.5987  -2.5978  -2.5956  -2.5844  -2.5829
    -2.5778  -2.5679  -2.5662  -2.5328  -2.5294  -2.5228  -2.5215  -2.5199
    -2.5193  -2.4818  -2.4804  -2.4714  -2.4703  -2.4693  -2.4681  -2.4256
    -2.4108  -2.4047  -2.3521  -2.3509  -2.3349  -2.3322  -2.3263  -2.3251
    -2.2782  -2.2763  -2.2541  -2.2386  -2.2245  -2.2233  -2.2214  -2.2007
    -2.1994  -2.1910  -2.1739  -2.1383  -2.1339  -2.1198  -2.1191  -2.1169
    -2.1089  -2.1070  -2.0960  -2.0922  -2.0913  -2.0871  -2.0840  -2.0813
    -2.0806  -2.0708  -2.0693  -2.0526  -2.0510  -2.0496  -2.0434  -2.0406
    -2.0392  -2.0176  -2.0159  -2.0050  -2.0041  -1.9979  -1.9967  -1.9592
    -1.9269  -1.9252  -1.8906  -1.8736  -1.8730  -1.8648  -1.8608  -1.8406
    -1.8379  -1.8272  -1.8229  -1.8225  -1.8213  -1.8206  -1.8176  -1.7864
    -1.7855  -1.7852  -1.7413  -1.7399  -1.7019  -1.6999  -1.6533  -1.6523
    -1.6403  -1.6178  -1.6136  -1.6105  -1.6039  -1.5921  -1.5804  -1.5743
    -1.5721  -1.5699  -1.5680  -1.5668  -1.5661  -1.5645  -1.5447  -1.5430
    -1.5339  -1.5170  -1.5039  -1.4979  -1.4818  -1.4713  -1.4690  -1.4676
    -1.4652  -1.4610  -1.4422  -1.4392  -1.4305  -1.4230  -1.4111  -1.4028
    -1.3916  -1.3880  -1.3644  -1.3564  -1.3528  -1.3482  -1.3415  -1.3118
    -1.3090  -1.3039  -1.3022  -1.2955  -1.2811  -1.2745  -1.2719  -1.2622
    -1.2555  -1.2517  -1.2434  -1.2409  -1.2400  -1.2284  -1.2268  -1.2156
    -1.2105  -1.2078  -1.2069  -1.1926  -1.1907  -1.1850  -1.1759  -1.1445
    -1.1396  -1.1381  -1.1351  -1.1347  -1.1313  -1.0965  -1.0792  -1.0774
    -1.0769  -1.0759  -1.0726  -1.0684  -1.0662  -1.0529  -1.0489  -1.0167
    -1.0131  -1.0091  -1.0084  -0.9869  -0.9859  -0.9766  -0.9471  -0.9390
    -0.9131  -0.9106  -0.8836  -0.8832  -0.8801  -0.8797  -0.8779  -0.8735
    -0.8696  -0.8694  -0.8655  -0.8639  -0.8329  -0.8321  -0.8135  -0.8108
    -0.8089  -0.8078  -0.8065  -0.8025  -0.7884  -0.5148  -0.5013  -0.4448
    -0.4400  -0.4067  -0.2474  -0.1821  -0.1803  -0.1449   0.1379   0.1399
     0.4683   0.4738   0.5663   0.5674   0.6064   0.6097   0.7521   0.7567
     0.8755   0.8782   0.9707   1.5637   1.5809   1.5821   1.6165   1.6267
     1.6707   1.6827   1.7508   1.7543   1.9570   1.9590   2.1986   2.2714
     2.2779   2.2900   2.6699   2.6801   2.7428   2.7444   2.7509   2.7529
     2.9023   2.9036   2.9605   3.0474   3.0560   3.2775   3.2852   3.4120
     3.4387   3.4420   3.7109   3.7169   3.8301   3.8439   3.8443   3.9158
     3.9441   4.0255   4.0322   4.2649   4.2686   4.3557   4.3621   4.4768
     4.4851   4.5049   4.5152   4.6740   5.1629   5.3261   5.3382   5.4125
     5.4196   5.5305   5.5898   5.5955   5.6543   5.7016   5.7090   5.7144
     5.7493   5.7573   5.7619   5.8003   6.0149   6.0634   6.0788   6.0915
     6.0979   6.1031   6.1077   6.1113   6.1139   6.1515   6.1754   6.2087

          k =-0.2500 0.2500 0.2500 (167588 PWs)   bands (ev):

   -19.2731  -7.1680  -6.8585  -6.3333  -6.3314  -5.9033  -5.4940  -5.4018
    -5.4005  -5.2052  -5.2052  -5.0889  -5.0861  -5.0086  -4.9862  -4.9130
    -4.8279  -4.8241  -4.7861  -4.7849  -4.6253  -4.6075  -4.6069  -4.6058
    -4.5993  -4.5439  -4.5436  -4.5324  -4.5312  -4.4947  -4.4837  -4.4813
    -4.4400  -4.4398  -4.4065  -4.4052  -4.3558  -4.3526  -4.3439  -4.3413
    -4.3358  -4.3227  -4.3226  -4.2829  -4.2636  -4.2631  -4.2564  -4.2557
    -4.2250  -4.1762  -4.1597  -4.1589  -4.1583  -4.1548  -4.1472  -4.1417
    -4.1416  -4.1410  -4.0799  -4.0756  -4.0277  -4.0258  -4.0145  -3.9889
    -3.9876  -3.9700  -3.9651  -3.9644  -3.9605  -3.9580  -3.9087  -3.9082
    -3.8968  -3.8949  -3.7930  -3.7895  -3.7856  -3.7831  -3.7464  -3.7437
    -3.7224  -3.6937  -3.6932  -3.6649  -3.6636  -3.6443  -3.6428  -3.6319
    -3.6285  -3.5752  -3.5735  -3.5596  -3.5397  -3.5316  -3.5276  -3.5270
    -3.5260  -3.5011  -3.4990  -3.4658  -3.4619  -3.4524  -3.4396  -3.4173
    -3.4060  -3.3894  -3.3724  -3.3605  -3.3460  -3.3234  -3.3228  -3.2863
    -3.2793  -3.2791  -3.2648  -3.2617  -3.2598  -3.2582  -3.2213  -3.2107
    -3.1713  -3.1706  -3.1624  -3.1538  -3.1522  -3.1505  -3.1271  -3.1271
    -3.1066  -3.1059  -3.1040  -3.0782  -3.0778  -3.0704  -3.0673  -3.0658
    -3.0309  -3.0285  -2.9936  -2.9912  -2.9907  -2.9882  -2.9874  -2.9080
    -2.8986  -2.8958  -2.8939  -2.8933  -2.8924  -2.8888  -2.8876  -2.8867
    -2.8864  -2.8771  -2.8693  -2.8532  -2.8497  -2.8485  -2.8479  -2.8346
    -2.8295  -2.7925  -2.7912  -2.7908  -2.7869  -2.7856  -2.7685  -2.7675
    -2.7594  -2.7591  -2.7565  -2.6976  -2.6975  -2.6917  -2.6916  -2.6869
    -2.6860  -2.6590  -2.5997  -2.5987  -2.5978  -2.5956  -2.5844  -2.5829
    -2.5778  -2.5679  -2.5662  -2.5328  -2.5294  -2.5228  -2.5215  -2.5199
    -2.5193  -2.4818  -2.4804  -2.4714  -2.4703  -2.4693  -2.4681  -2.4256
    -2.4108  -2.4047  -2.3521  -2.3509  -2.3349  -2.3322  -2.3263  -2.3251
    -2.2782  -2.2763  -2.2541  -2.2386  -2.2245  -2.2233  -2.2214  -2.2007
    -2.1994  -2.1910  -2.1739  -2.1383  -2.1339  -2.1198  -2.1191  -2.1169
    -2.1089  -2.1070  -2.0960  -2.0922  -2.0913  -2.0871  -2.0840  -2.0813
    -2.0807  -2.0708  -2.0693  -2.0526  -2.0510  -2.0496  -2.0435  -2.0406
    -2.0392  -2.0176  -2.0159  -2.0050  -2.0041  -1.9979  -1.9967  -1.9593
    -1.9269  -1.9252  -1.8906  -1.8736  -1.8730  -1.8648  -1.8608  -1.8406
    -1.8379  -1.8272  -1.8229  -1.8225  -1.8213  -1.8206  -1.8176  -1.7864
    -1.7855  -1.7852  -1.7413  -1.7399  -1.7019  -1.6999  -1.6533  -1.6523
    -1.6403  -1.6178  -1.6136  -1.6105  -1.6039  -1.5921  -1.5804  -1.5742
    -1.5721  -1.5699  -1.5680  -1.5668  -1.5661  -1.5645  -1.5447  -1.5430
    -1.5339  -1.5170  -1.5039  -1.4979  -1.4818  -1.4713  -1.4690  -1.4676
    -1.4652  -1.4610  -1.4422  -1.4392  -1.4305  -1.4230  -1.4111  -1.4028
    -1.3916  -1.3880  -1.3644  -1.3564  -1.3528  -1.3482  -1.3415  -1.3118
    -1.3090  -1.3039  -1.3022  -1.2955  -1.2811  -1.2745  -1.2718  -1.2622
    -1.2555  -1.2517  -1.2434  -1.2409  -1.2400  -1.2284  -1.2268  -1.2157
    -1.2105  -1.2078  -1.2069  -1.1926  -1.1907  -1.1850  -1.1759  -1.1445
    -1.1396  -1.1381  -1.1351  -1.1347  -1.1313  -1.0965  -1.0792  -1.0774
    -1.0769  -1.0759  -1.0726  -1.0683  -1.0662  -1.0529  -1.0489  -1.0167
    -1.0130  -1.0091  -1.0084  -0.9869  -0.9859  -0.9766  -0.9471  -0.9389
    -0.9131  -0.9106  -0.8836  -0.8832  -0.8801  -0.8797  -0.8779  -0.8735
    -0.8696  -0.8694  -0.8655  -0.8639  -0.8329  -0.8321  -0.8135  -0.8108
    -0.8089  -0.8078  -0.8065  -0.8025  -0.7883  -0.5148  -0.5013  -0.4448
    -0.4400  -0.4067  -0.2474  -0.1821  -0.1803  -0.1449   0.1379   0.1399
     0.4683   0.4738   0.5663   0.5674   0.6064   0.6097   0.7521   0.7567
     0.8755   0.8782   0.9707   1.5637   1.5809   1.5821   1.6165   1.6267
     1.6707   1.6827   1.7508   1.7543   1.9570   1.9590   2.1986   2.2714
     2.2779   2.2900   2.6699   2.6801   2.7428   2.7444   2.7509   2.7529
     2.9023   2.9036   2.9605   3.0474   3.0560   3.2775   3.2852   3.4120
     3.4387   3.4420   3.7109   3.7169   3.8301   3.8439   3.8443   3.9159
     3.9441   4.0255   4.0322   4.2649   4.2686   4.3557   4.3621   4.4768
     4.4851   4.5049   4.5152   4.6741   5.1542   5.3233   5.3342   5.4120
     5.4196   5.5324   5.5900   5.5962   5.6634   5.7059   5.7111   5.7301
     5.7550   5.7606   5.7635   5.8005   6.0350   6.0663   6.0797   6.0898
     6.0949   6.1048   6.1088   6.1139   6.1154   6.1386   6.1948   6.2249

     the Fermi energy is     0.8275 ev

!    total energy              =   -7425.29313947 Ry
     Harris-Foulkes estimate   =   -7425.29313947 Ry
     estimated scf accuracy    <          1.5E-09 Ry

     The total energy is the sum of the following terms:

     one-electron contribution =  -48781.95773403 Ry
     hartree contribution      =   24940.73362868 Ry
     xc contribution           =   -3604.23177065 Ry
     ewald contribution        =   20020.16531574 Ry
     smearing contrib. (-TS)   =      -0.00257922 Ry

     convergence has been achieved in  29 iterations

     Writing output data file 8675522.save

     init_run     :    112.29s CPU    119.02s WALL (       1 calls)
     electrons    :   6867.16s CPU   7283.06s WALL (       1 calls)

     Called by init_run:
     wfcinit      :     82.12s CPU     88.14s WALL (       1 calls)
     potinit      :      5.95s CPU      6.32s WALL (       1 calls)

     Called by electrons:
     c_bands      :   5783.33s CPU   6116.95s WALL (      30 calls)
     sum_band     :    752.70s CPU    819.11s WALL (      30 calls)
     v_of_rho     :     90.12s CPU    100.95s WALL (      30 calls)
     newd         :    248.25s CPU    252.60s WALL (      30 calls)
     mix_rho      :      2.63s CPU      2.98s WALL (      30 calls)
     vdW_energy   :     12.64s CPU     13.49s WALL (      30 calls)
     vdW_ffts     :     39.68s CPU     44.83s WALL (      60 calls)
     vdW_v        :      9.64s CPU     10.52s WALL (      30 calls)

     Called by c_bands:
     init_us_2    :     10.36s CPU     10.66s WALL (     366 calls)
     cegterg      :   5662.46s CPU   5983.26s WALL (     180 calls)

     Called by *egterg:
     h_psi        :   2206.34s CPU   2483.25s WALL (     893 calls)
     s_psi        :    397.19s CPU    399.46s WALL (     893 calls)
     g_psi        :      4.87s CPU      4.96s WALL (     707 calls)
     cdiaghg      :   1785.80s CPU   1791.21s WALL (     881 calls)

     Called by h_psi:
     add_vuspsi   :    400.69s CPU    403.01s WALL (     893 calls)

     General routines
     calbec       :    567.07s CPU    569.17s WALL (    1073 calls)
     fft          :     88.46s CPU     98.20s WALL (    1980 calls)
     ffts         :      0.98s CPU      1.21s WALL (      60 calls)
     fftw         :   1536.19s CPU   1830.68s WALL (  484108 calls)
     interpolate  :      2.88s CPU      3.56s WALL (      60 calls)
     davcio       :      0.00s CPU      0.11s WALL (       6 calls)

     Parallel routines
     fft_scatter  :   1019.92s CPU   1225.18s WALL (  486148 calls)

     PWSCF        :     1h56m CPU        2h 3m WALL


   This run was terminated on:   2:48:11   6Jul2015            

=------------------------------------------------------------------------------=
   JOB DONE.
=------------------------------------------------------------------------------=
