
     Program PWSCF v.5.1.2 starts on 24Aug2015 at  8:54:20 

     This program is part of the open-source Quantum ESPRESSO suite
     for quantum simulation of materials; please cite
         "P. Giannozzi et al., J. Phys.:Condens. Matter 21 395502 (2009);
          URL http://www.quantum-espresso.org", 
     in publications or presentations arising from this work. More details at
     http://www.quantum-espresso.org/quote

     Parallel version (MPI), running on    32 processors
     R & G space division:  proc/nbgrp/npool/nimage =      32
     Reading input from hollow.H2.Au5859.d.2.3.phi.0.psi.0.in
Warning: card &IONS ignored
Warning: card / ignored
Warning: card &CELL ignored
Warning: card / ignored

     Current dimensions of program PWSCF are:
     Max number of different atomic species (ntypx) = 10
     Max number of k-points (npk) =  40000
     Max angular momentum in pseudopotentials (lmaxx) =  3

     IMPORTANT: XC functional enforced from input :
     Exchange-correlation      = VDW-DF ( 1  4  4  0 1 0)
     Any further DFT definition will be discarded
     Please, verify this is what you really want


     Subspace diagonalization in iterative solution of the eigenvalue problem:
     a serial algorithm will be used


     Parallelization info
     --------------------
     sticks:   dense  smooth     PW     G-vecs:    dense   smooth      PW
     Min         578     289     74               118518    41891    5486
     Max         579     290     75               118533    41932    5497
     Sum       18505    9265   2385              3792731  1341081  175711


     Title: 
     hollow.H2.Au5859.d.2.3.phi.0.psi.0                                         


     bravais-lattice index     =            8
     lattice parameter (alat)  =      24.1233  a.u.
     unit-cell volume          =   28076.2361 (a.u.)^3
     number of atoms/cell      =           75
     number of atomic types    =            3
     number of electrons       =       800.00
     number of Kohn-Sham states=          480
     kinetic-energy cutoff     =      50.0000  Ry
     charge density cutoff     =     400.0000  Ry
     convergence threshold     =      1.0E-08
     mixing beta               =       0.7000
     number of iterations used =            8  plain     mixing
     Exchange-correlation      = VDW-DF ( 1  4  4  0 1 0)

     celldm(1)=  24.123277  celldm(2)=   1.000000  celldm(3)=   2.000000
     celldm(4)=   0.000000  celldm(5)=   0.000000  celldm(6)=   0.000000

     crystal axes: (cart. coord. in units of alat)
               a(1) = (   1.000000   0.000000   0.000000 )  
               a(2) = (   0.000000   1.000000   0.000000 )  
               a(3) = (   0.000000   0.000000   2.000000 )  

     reciprocal axes: (cart. coord. in units 2 pi/alat)
               b(1) = (  1.000000  0.000000  0.000000 )  
               b(2) = (  0.000000  1.000000  0.000000 )  
               b(3) = (  0.000000  0.000000  0.500000 )  


     PseudoPot. # 1 for Au read from file:
     /home/scc/andrejb/qe/pseudo/Au.pbe-nd-van.UPF
     MD5 check sum: 458681b50f36d87ef23c61b04bba420a
     Pseudo is Ultrasoft + core correction, Zval = 11.0
     Generated by new atomic code, or converted to UPF format
     Using radial grid of  985 points,  3 beta functions with: 
                l(1) =   1
                l(2) =   2
                l(3) =   2
     Q(r) pseudized with  8 coefficients,  rinner =    1.100   1.100   1.100
                                                       1.100   1.100

     PseudoPot. # 2 for H  read from file:
     /home/scc/andrejb/qe/pseudo/H.pbe-van_ak.UPF
     MD5 check sum: 403db7282739603aa925980fa9b8608d
     Pseudo is Ultrasoft, Zval =  1.0
     Generated by new atomic code, or converted to UPF format
     Using radial grid of  615 points,  1 beta functions with: 
                l(1) =   0
     Q(r) pseudized with  8 coefficients,  rinner =    0.800

     PseudoPot. # 3 for O  read from file:
     /home/scc/andrejb/qe/pseudo/O.pbe-van_ak.UPF
     MD5 check sum: 4b8c549914a63cae506c6ff22b5af4fe
     Pseudo is Ultrasoft, Zval =  6.0
     Generated by new atomic code, or converted to UPF format
     Using radial grid of  737 points,  4 beta functions with: 
                l(1) =   0
                l(2) =   0
                l(3) =   1
                l(4) =   1
     Q(r) pseudized with  8 coefficients,  rinner =    0.800   0.800   0.800


     vdW kernel table read from file vdW_kernel_table
     MD5 check sum: 48e77a2e26edf626eeb0eaa751ad5cac

     atomic species   valence    mass     pseudopotential
        Au            11.00   196.96657     Au( 1.00)
        H              1.00     1.01000     H ( 1.00)
        O              6.00    16.00000     O ( 1.00)

     No symmetry found



   Cartesian axes

     site n.     atom                  positions (alat units)
         1           O   tau(   1) = (   0.1840006   0.1810976   0.7523428  )
         2           H   tau(   2) = (   0.1666051   0.1666105   0.6794873  )
         3           H   tau(   3) = (   0.1341739   0.1396194   0.7925335  )
         4           Au  tau(   4) = (   0.0000000   0.0000000   0.0000000  )
         5           Au  tau(   5) = (   0.3332217   0.0000000   0.0000000  )
         6           Au  tau(   6) = (   0.6664434   0.0000000   0.0000000  )
         7           Au  tau(   7) = (   0.1666109   0.1666109   0.0000000  )
         8           Au  tau(   8) = (   0.4998326   0.1666109   0.0000000  )
         9           Au  tau(   9) = (   0.8330542   0.1666109   0.0000000  )
        10           Au  tau(  10) = (   0.0000000   0.3332217   0.0000000  )
        11           Au  tau(  11) = (   0.3332217   0.3332217   0.0000000  )
        12           Au  tau(  12) = (   0.6664434   0.3332217   0.0000000  )
        13           Au  tau(  13) = (   0.1666109   0.4998326   0.0000000  )
        14           Au  tau(  14) = (   0.4998326   0.4998326   0.0000000  )
        15           Au  tau(  15) = (   0.8330542   0.4998326   0.0000000  )
        16           Au  tau(  16) = (   0.0000000   0.6664434   0.0000000  )
        17           Au  tau(  17) = (   0.3332217   0.6664434   0.0000000  )
        18           Au  tau(  18) = (   0.6664434   0.6664434   0.0000000  )
        19           Au  tau(  19) = (   0.1666109   0.8330542   0.0000000  )
        20           Au  tau(  20) = (   0.4998326   0.8330542   0.0000000  )
        21           Au  tau(  21) = (   0.8330542   0.8330542   0.0000000  )
        22           Au  tau(  22) = (   0.1666109   0.0000000   0.1666109  )
        23           Au  tau(  23) = (   0.4998326   0.0000000   0.1666109  )
        24           Au  tau(  24) = (   0.8330542   0.0000000   0.1666109  )
        25           Au  tau(  25) = (   0.0000000   0.1666109   0.1666109  )
        26           Au  tau(  26) = (   0.3332217   0.1666109   0.1666109  )
        27           Au  tau(  27) = (   0.6664434   0.1666109   0.1666109  )
        28           Au  tau(  28) = (   0.1666109   0.3332217   0.1666109  )
        29           Au  tau(  29) = (   0.4998326   0.3332217   0.1666109  )
        30           Au  tau(  30) = (   0.8330542   0.3332217   0.1666109  )
        31           Au  tau(  31) = (   0.0000000   0.4998326   0.1666109  )
        32           Au  tau(  32) = (   0.3332217   0.4998326   0.1666109  )
        33           Au  tau(  33) = (   0.6664434   0.4998326   0.1666109  )
        34           Au  tau(  34) = (   0.1666109   0.6664434   0.1666109  )
        35           Au  tau(  35) = (   0.4998326   0.6664434   0.1666109  )
        36           Au  tau(  36) = (   0.8330542   0.6664434   0.1666109  )
        37           Au  tau(  37) = (   0.0000000   0.8330542   0.1666109  )
        38           Au  tau(  38) = (   0.3332217   0.8330542   0.1666109  )
        39           Au  tau(  39) = (   0.6664434   0.8330542   0.1666109  )
        40           Au  tau(  40) = (  -0.0000182  -0.0000182   0.3335478  )
        41           Au  tau(  41) = (   0.3332215  -0.0000181   0.3335473  )
        42           Au  tau(  42) = (   0.6664447  -0.0000183   0.3335481  )
        43           Au  tau(  43) = (  -0.0000181   0.3332215   0.3335473  )
        44           Au  tau(  44) = (   0.3332215   0.3332215   0.3335468  )
        45           Au  tau(  45) = (   0.6664445   0.3332215   0.3335477  )
        46           Au  tau(  46) = (  -0.0000183   0.6664447   0.3335481  )
        47           Au  tau(  47) = (   0.3332215   0.6664445   0.3335477  )
        48           Au  tau(  48) = (   0.6664446   0.6664446   0.3335486  )
        49           Au  tau(  49) = (   0.1666097   0.1666097   0.3335483  )
        50           Au  tau(  50) = (   0.4998320   0.1666098   0.3335477  )
        51           Au  tau(  51) = (   0.8330732   0.1666096   0.3335480  )
        52           Au  tau(  52) = (   0.1666098   0.4998320   0.3335477  )
        53           Au  tau(  53) = (   0.4998322   0.4998322   0.3335470  )
        54           Au  tau(  54) = (   0.8330731   0.4998322   0.3335474  )
        55           Au  tau(  55) = (   0.1666096   0.8330732   0.3335480  )
        56           Au  tau(  56) = (   0.4998322   0.8330731   0.3335474  )
        57           Au  tau(  57) = (   0.8330731   0.8330731   0.3335478  )
        58           Au  tau(  58) = (   0.1666104  -0.0000111   0.4993095  )
        59           Au  tau(  59) = (   0.4998323  -0.0000112   0.4993099  )
        60           Au  tau(  60) = (   0.8330660  -0.0000111   0.4993009  )
        61           Au  tau(  61) = (  -0.0000111   0.1666104   0.4993095  )
        62           Au  tau(  62) = (   0.3332213   0.1666106   0.4993185  )
        63           Au  tau(  63) = (   0.6664437   0.1666106   0.4993187  )
        64           Au  tau(  64) = (   0.1666106   0.3332213   0.4993185  )
        65           Au  tau(  65) = (   0.4998324   0.3332216   0.4993185  )
        66           Au  tau(  66) = (   0.8330658   0.3332215   0.4993102  )
        67           Au  tau(  67) = (  -0.0000112   0.4998323   0.4993099  )
        68           Au  tau(  68) = (   0.3332216   0.4998324   0.4993185  )
        69           Au  tau(  69) = (   0.6664437   0.4998325   0.4993187  )
        70           Au  tau(  70) = (   0.1666106   0.6664437   0.4993187  )
        71           Au  tau(  71) = (   0.4998325   0.6664437   0.4993187  )
        72           Au  tau(  72) = (   0.8330658   0.6664438   0.4993102  )
        73           Au  tau(  73) = (  -0.0000111   0.8330660   0.4993009  )
        74           Au  tau(  74) = (   0.3332215   0.8330658   0.4993102  )
        75           Au  tau(  75) = (   0.6664438   0.8330658   0.4993102  )

     number of k points=     6  Marzari-Vanderbilt smearing, width (Ry)=  0.0200
                       cart. coord. in units 2pi/alat
        k(    1) = (   0.2500000   0.2500000   0.0833333), wk =   0.3333333
        k(    2) = (   0.2500000   0.2500000  -0.2500000), wk =   0.3333333
        k(    3) = (  -0.2500000  -0.2500000   0.0833333), wk =   0.3333333
        k(    4) = (  -0.2500000   0.2500000  -0.0833333), wk =   0.3333333
        k(    5) = (   0.2500000  -0.2500000  -0.0833333), wk =   0.3333333
        k(    6) = (  -0.2500000   0.2500000   0.2500000), wk =   0.3333333

     Dense  grid:  3792731 G-vectors     FFT dimensions: ( 160, 160, 320)

     Smooth grid:  1341081 G-vectors     FFT dimensions: ( 120, 120, 225)

     Largest allocated arrays     est. size (Mb)     dimensions
        Kohn-Sham Wavefunctions        38.58 Mb     (    5267,  480)
        NL pseudopotentials            76.03 Mb     (    5267,  946)
        Each V/rho on FFT grid          3.91 Mb     (  256000)
        Each G-vector array             0.90 Mb     (  118520)
        G-vector shells                 0.08 Mb     (   10286)
     Largest temporary arrays     est. size (Mb)     dimensions
        Auxiliary wavefunctions       154.31 Mb     (    5267, 1920)
        Each subspace H/S matrix       56.25 Mb     (    1920, 1920)
        Each <psi_i|beta_j> matrix      6.93 Mb     (     946,  480)
        Arrays for rho mixing          31.25 Mb     (  256000,    8)

     Initial potential from superposition of free atoms
     Check: negative starting charge=   -1.945124

     starting charge  799.16392, renormalised to  800.00000

     negative rho (up, down):  1.947E+00 0.000E+00


     ************************************************************************
     *
     * You are using vdW-DF for exchange-correlation in this calculation.
     * Please cite the following three references that made this development
     * possible:
     *
     *   M. Dion, H. Rydberg, E. Schroder, D. C. Langreth, and
     *   B. I. Lundqvist, Phys. Rev. Lett. 92, 246401 (2004).
     *
     *   T. Thonhauser, V. R. Cooper, S. Li, A. Puzder, P. Hyldgaard, and
     *   D. C. Langreth, Phys. Rev. B 76, 125112 (2007).
     *
     *   G. Roman-Perez and J. M. Soler, Phys. Rev. Lett. 103, 096102 (2009).
     *
     *
     * If you are using vdW-DF2, please also cite:
     *
     *   K. Lee, E. D. Murray, L. Kong, B. I. Lundqvist, and
     *   D. C. Langreth, Phys. Rev. B 82, 081101(R) (2010).
     *
     *
     * If you are calculating the stress with vdW-DF, please also cite:
     *
     *   R. Sabatini, E. Kucukbenli, B. Kolb, T. Thonhauser, and
     *   S. de Gironcoli, J. Phys.: Condens. Matter 24, 424209 (2012).
     *
     ************************************************************************

     Carrying out vdW-DF run using the following parameters:

     Nqs =      20    Nr_points =    1024   r_max =   100.000
     q_mesh =
               0.00001000     0.04494208     0.09755937     0.15916263
               0.23128650     0.31572767     0.41458969     0.53033537
               0.66584808     0.82450364     1.01025438     1.22772762
               1.48234092     1.78043706     2.12944203     2.53805004
               3.01644009     3.57652955     4.23227104     5.00000000

     Gradients computed in reciprocal space

     ************************************************************************


     Starting wfc are  654 randomized atomic wfcs

     total cpu time spent up to now is      148.5 secs

     Self-consistent Calculation

     iteration #  1     ecut=    50.00 Ry     beta=0.70
     Davidson diagonalization with overlap
     ethr =  1.00E-02,  avg # of iterations =  3.0

     Threshold (ethr) on eigenvalues was too large:
     Diagonalizing with lowered threshold

     Davidson diagonalization with overlap
     ethr =  4.20E-04,  avg # of iterations =  2.0

     negative rho (up, down):  1.947E+00 0.000E+00

     total cpu time spent up to now is      639.6 secs

     total energy              =   -7423.04582390 Ry
     Harris-Foulkes estimate   =   -7426.07051012 Ry
     estimated scf accuracy    <       3.73872908 Ry

     iteration #  2     ecut=    50.00 Ry     beta=0.70
     Davidson diagonalization with overlap
     ethr =  4.67E-04,  avg # of iterations = 11.3

     negative rho (up, down):  1.943E+00 0.000E+00

     total cpu time spent up to now is     1448.2 secs

     total energy              =   -7415.27935009 Ry
     Harris-Foulkes estimate   =   -7432.58686238 Ry
     estimated scf accuracy    <      89.82571548 Ry

     iteration #  3     ecut=    50.00 Ry     beta=0.70
     Davidson diagonalization with overlap
     ethr =  4.67E-04,  avg # of iterations =  6.0

     negative rho (up, down):  1.953E+00 0.000E+00

     total cpu time spent up to now is     1968.3 secs

     total energy              =   -7424.07291267 Ry
     Harris-Foulkes estimate   =   -7425.89118682 Ry
     estimated scf accuracy    <       7.71037754 Ry

     iteration #  4     ecut=    50.00 Ry     beta=0.70
     Davidson diagonalization with overlap
     ethr =  4.67E-04,  avg # of iterations =  5.0

     negative rho (up, down):  1.956E+00 0.000E+00

     total cpu time spent up to now is     2256.3 secs

     total energy              =   -7424.78911153 Ry
     Harris-Foulkes estimate   =   -7425.70773934 Ry
     estimated scf accuracy    <       5.28377095 Ry

     iteration #  5     ecut=    50.00 Ry     beta=0.70
     Davidson diagonalization with overlap
     ethr =  4.67E-04,  avg # of iterations =  6.0

     negative rho (up, down):  1.963E+00 0.000E+00

     total cpu time spent up to now is     2562.3 secs

     total energy              =   -7425.10283653 Ry
     Harris-Foulkes estimate   =   -7425.56880750 Ry
     estimated scf accuracy    <       3.44481827 Ry

     iteration #  6     ecut=    50.00 Ry     beta=0.70
     Davidson diagonalization with overlap
     ethr =  4.31E-04,  avg # of iterations =  2.5

     negative rho (up, down):  1.967E+00 0.000E+00

     total cpu time spent up to now is     2813.4 secs

     total energy              =   -7425.28069203 Ry
     Harris-Foulkes estimate   =   -7425.33675366 Ry
     estimated scf accuracy    <       0.19362740 Ry

     iteration #  7     ecut=    50.00 Ry     beta=0.70
     Davidson diagonalization with overlap
     ethr =  2.42E-05,  avg # of iterations =  8.2

     negative rho (up, down):  1.970E+00 0.000E+00

     total cpu time spent up to now is     3175.0 secs

     total energy              =   -7425.28401690 Ry
     Harris-Foulkes estimate   =   -7425.33378434 Ry
     estimated scf accuracy    <       0.26363475 Ry

     iteration #  8     ecut=    50.00 Ry     beta=0.70
     Davidson diagonalization with overlap
     ethr =  2.42E-05,  avg # of iterations =  3.0

     negative rho (up, down):  1.971E+00 0.000E+00

     total cpu time spent up to now is     3440.0 secs

     total energy              =   -7425.29444205 Ry
     Harris-Foulkes estimate   =   -7425.31262226 Ry
     estimated scf accuracy    <       0.07472262 Ry

     iteration #  9     ecut=    50.00 Ry     beta=0.70
     Davidson diagonalization with overlap
     ethr =  9.34E-06,  avg # of iterations = 10.5

     negative rho (up, down):  1.972E+00 0.000E+00

     total cpu time spent up to now is     3804.1 secs

     total energy              =   -7425.29437350 Ry
     Harris-Foulkes estimate   =   -7425.30476292 Ry
     estimated scf accuracy    <       0.03549339 Ry

     iteration # 10     ecut=    50.00 Ry     beta=0.70
     Davidson diagonalization with overlap
     ethr =  4.44E-06,  avg # of iterations =  6.2

     negative rho (up, down):  1.973E+00 0.000E+00

     total cpu time spent up to now is     4106.6 secs

     total energy              =   -7425.29500236 Ry
     Harris-Foulkes estimate   =   -7425.29854819 Ry
     estimated scf accuracy    <       0.01120569 Ry

     iteration # 11     ecut=    50.00 Ry     beta=0.70
     Davidson diagonalization with overlap
     ethr =  1.40E-06,  avg # of iterations =  8.0

     negative rho (up, down):  1.974E+00 0.000E+00

     total cpu time spent up to now is     4432.3 secs

     total energy              =   -7425.29510707 Ry
     Harris-Foulkes estimate   =   -7425.29660076 Ry
     estimated scf accuracy    <       0.00527951 Ry

     iteration # 12     ecut=    50.00 Ry     beta=0.70
     Davidson diagonalization with overlap
     ethr =  6.60E-07,  avg # of iterations =  3.2

     negative rho (up, down):  1.975E+00 0.000E+00

     total cpu time spent up to now is     4689.6 secs

     total energy              =   -7425.29421514 Ry
     Harris-Foulkes estimate   =   -7425.29566561 Ry
     estimated scf accuracy    <       0.00222742 Ry

     iteration # 13     ecut=    50.00 Ry     beta=0.70
     Davidson diagonalization with overlap
     ethr =  2.78E-07,  avg # of iterations =  7.2

     negative rho (up, down):  1.974E+00 0.000E+00

     total cpu time spent up to now is     5149.9 secs

     total energy              =   -7425.29282851 Ry
     Harris-Foulkes estimate   =   -7425.29727853 Ry
     estimated scf accuracy    <       0.02392870 Ry

     iteration # 14     ecut=    50.00 Ry     beta=0.70
     Davidson diagonalization with overlap
     ethr =  2.78E-07,  avg # of iterations =  3.0

     negative rho (up, down):  1.974E+00 0.000E+00

     total cpu time spent up to now is     5484.7 secs

     total energy              =   -7425.29486953 Ry
     Harris-Foulkes estimate   =   -7425.29513952 Ry
     estimated scf accuracy    <       0.00097131 Ry

     iteration # 15     ecut=    50.00 Ry     beta=0.70
     Davidson diagonalization with overlap
     ethr =  1.21E-07,  avg # of iterations =  2.0

     negative rho (up, down):  1.974E+00 0.000E+00

     total cpu time spent up to now is     5738.6 secs

     total energy              =   -7425.29498829 Ry
     Harris-Foulkes estimate   =   -7425.29506022 Ry
     estimated scf accuracy    <       0.00028930 Ry

     iteration # 16     ecut=    50.00 Ry     beta=0.70
     Davidson diagonalization with overlap
     ethr =  3.62E-08,  avg # of iterations =  2.0

     negative rho (up, down):  1.974E+00 0.000E+00

     total cpu time spent up to now is     5993.1 secs

     total energy              =   -7425.29493663 Ry
     Harris-Foulkes estimate   =   -7425.29513335 Ry
     estimated scf accuracy    <       0.00169649 Ry

     iteration # 17     ecut=    50.00 Ry     beta=0.70
     Davidson diagonalization with overlap
     ethr =  3.62E-08,  avg # of iterations =  2.0

     negative rho (up, down):  1.974E+00 0.000E+00

     total cpu time spent up to now is     6238.1 secs

     total energy              =   -7425.29503274 Ry
     Harris-Foulkes estimate   =   -7425.29503902 Ry
     estimated scf accuracy    <       0.00001992 Ry

     iteration # 18     ecut=    50.00 Ry     beta=0.70
     Davidson diagonalization with overlap
     ethr =  2.49E-09,  avg # of iterations =  2.0

     negative rho (up, down):  1.974E+00 0.000E+00

     total cpu time spent up to now is     6512.8 secs

     total energy              =   -7425.29503562 Ry
     Harris-Foulkes estimate   =   -7425.29503847 Ry
     estimated scf accuracy    <       0.00001043 Ry

     iteration # 19     ecut=    50.00 Ry     beta=0.70
     Davidson diagonalization with overlap
     ethr =  1.30E-09,  avg # of iterations =  2.0

     negative rho (up, down):  1.974E+00 0.000E+00

     total cpu time spent up to now is     6757.4 secs

     total energy              =   -7425.29503702 Ry
     Harris-Foulkes estimate   =   -7425.29503758 Ry
     estimated scf accuracy    <       0.00000192 Ry

     iteration # 20     ecut=    50.00 Ry     beta=0.70
     Davidson diagonalization with overlap
     ethr =  2.40E-10,  avg # of iterations =  2.0

     negative rho (up, down):  1.974E+00 0.000E+00

     total cpu time spent up to now is     7028.7 secs

     total energy              =   -7425.29503726 Ry
     Harris-Foulkes estimate   =   -7425.29503772 Ry
     estimated scf accuracy    <       0.00000236 Ry

     iteration # 21     ecut=    50.00 Ry     beta=0.70
     Davidson diagonalization with overlap
     ethr =  2.40E-10,  avg # of iterations =  2.0

     negative rho (up, down):  1.974E+00 0.000E+00

     total cpu time spent up to now is     7274.1 secs

     total energy              =   -7425.29503749 Ry
     Harris-Foulkes estimate   =   -7425.29503765 Ry
     estimated scf accuracy    <       0.00000087 Ry

     iteration # 22     ecut=    50.00 Ry     beta=0.70
     Davidson diagonalization with overlap
     ethr =  1.09E-10,  avg # of iterations =  2.0

     negative rho (up, down):  1.974E+00 0.000E+00

     total cpu time spent up to now is     7516.5 secs

     total energy              =   -7425.29503759 Ry
     Harris-Foulkes estimate   =   -7425.29503766 Ry
     estimated scf accuracy    <       0.00000033 Ry

     iteration # 23     ecut=    50.00 Ry     beta=0.70
     Davidson diagonalization with overlap
     ethr =  4.13E-11,  avg # of iterations =  3.0

     negative rho (up, down):  1.974E+00 0.000E+00

     total cpu time spent up to now is     7778.2 secs

     total energy              =   -7425.29503758 Ry
     Harris-Foulkes estimate   =   -7425.29503766 Ry
     estimated scf accuracy    <       0.00000023 Ry

     iteration # 24     ecut=    50.00 Ry     beta=0.70
     Davidson diagonalization with overlap
     ethr =  2.94E-11,  avg # of iterations =  2.0

     negative rho (up, down):  1.974E+00 0.000E+00

     total cpu time spent up to now is     8021.0 secs

     total energy              =   -7425.29503763 Ry
     Harris-Foulkes estimate   =   -7425.29503763 Ry
     estimated scf accuracy    <       0.00000014 Ry

     iteration # 25     ecut=    50.00 Ry     beta=0.70
     Davidson diagonalization with overlap
     ethr =  1.69E-11,  avg # of iterations =  2.0

     negative rho (up, down):  1.974E+00 0.000E+00

     total cpu time spent up to now is     8260.4 secs

     total energy              =   -7425.29503765 Ry
     Harris-Foulkes estimate   =   -7425.29503765 Ry
     estimated scf accuracy    <       0.00000003 Ry

     iteration # 26     ecut=    50.00 Ry     beta=0.70
     Davidson diagonalization with overlap
     ethr =  4.05E-12,  avg # of iterations =  2.0

     negative rho (up, down):  1.974E+00 0.000E+00

     total cpu time spent up to now is     8505.6 secs

     total energy              =   -7425.29503765 Ry
     Harris-Foulkes estimate   =   -7425.29503765 Ry
     estimated scf accuracy    <       0.00000003 Ry

     iteration # 27     ecut=    50.00 Ry     beta=0.70
     Davidson diagonalization with overlap
     ethr =  4.05E-12,  avg # of iterations =  2.0

     negative rho (up, down):  1.974E+00 0.000E+00

     total cpu time spent up to now is     8754.7 secs

     total energy              =   -7425.29503765 Ry
     Harris-Foulkes estimate   =   -7425.29503766 Ry
     estimated scf accuracy    <       0.00000007 Ry

     iteration # 28     ecut=    50.00 Ry     beta=0.70
     Davidson diagonalization with overlap
     ethr =  4.05E-12,  avg # of iterations =  2.0

     negative rho (up, down):  1.974E+00 0.000E+00

     total cpu time spent up to now is     8987.6 secs

     End of self-consistent calculation

          k = 0.2500 0.2500 0.0833 (167653 PWs)   bands (ev):

   -19.2173  -7.0740  -6.8670  -6.3402  -6.3401  -5.9108  -5.5018  -5.4089
    -5.4082  -5.2126  -5.2125  -5.0954  -5.0943  -5.0161  -4.9934  -4.9203
    -4.8353  -4.8315  -4.7931  -4.7924  -4.6322  -4.6150  -4.6140  -4.6135
    -4.6067  -4.5511  -4.5511  -4.5394  -4.5388  -4.5021  -4.4903  -4.4890
    -4.4473  -4.4472  -4.4138  -4.4126  -4.3619  -4.3602  -4.3506  -4.3487
    -4.3432  -4.3301  -4.3300  -4.2896  -4.2707  -4.2706  -4.2636  -4.2634
    -4.2319  -4.1826  -4.1668  -4.1661  -4.1639  -4.1624  -4.1546  -4.1490
    -4.1488  -4.1484  -4.0855  -4.0830  -4.0344  -4.0331  -4.0216  -3.9955
    -3.9950  -3.9759  -3.9724  -3.9722  -3.9677  -3.9651  -3.9160  -3.9157
    -3.9035  -3.9024  -3.7989  -3.7970  -3.7921  -3.7908  -3.7537  -3.7476
    -3.7300  -3.7007  -3.7004  -3.6720  -3.6713  -3.6508  -3.6498  -3.6377
    -3.6359  -3.5818  -3.5810  -3.5647  -3.5468  -3.5369  -3.5346  -3.5342
    -3.5329  -3.5065  -3.5057  -3.4699  -3.4691  -3.4510  -3.4464  -3.4175
    -3.4130  -3.3959  -3.3700  -3.3677  -3.3312  -3.3302  -3.3059  -3.2896
    -3.2871  -3.2864  -3.2722  -3.2684  -3.2672  -3.2595  -3.2274  -3.2184
    -3.1781  -3.1779  -3.1698  -3.1607  -3.1599  -3.1577  -3.1342  -3.1341
    -3.1133  -3.1126  -3.1118  -3.0855  -3.0851  -3.0776  -3.0744  -3.0740
    -3.0384  -3.0351  -2.9997  -2.9984  -2.9979  -2.9953  -2.9948  -2.9156
    -2.9058  -2.9021  -2.9011  -2.9005  -2.8995  -2.8955  -2.8950  -2.8941
    -2.8940  -2.8846  -2.8767  -2.8601  -2.8571  -2.8559  -2.8559  -2.8418
    -2.8370  -2.7992  -2.7983  -2.7980  -2.7937  -2.7934  -2.7756  -2.7751
    -2.7665  -2.7665  -2.7640  -2.7049  -2.7046  -2.6990  -2.6990  -2.6941
    -2.6938  -2.6659  -2.6069  -2.6057  -2.6053  -2.6031  -2.5918  -2.5901
    -2.5853  -2.5747  -2.5736  -2.5386  -2.5366  -2.5291  -2.5278  -2.5273
    -2.5266  -2.4883  -2.4873  -2.4777  -2.4776  -2.4762  -2.4754  -2.4331
    -2.4170  -2.4120  -2.3590  -2.3583  -2.3413  -2.3387  -2.3333  -2.3327
    -2.2851  -2.2837  -2.2610  -2.2451  -2.2312  -2.2301  -2.2288  -2.2077
    -2.2069  -2.1978  -2.1807  -2.1427  -2.1402  -2.1266  -2.1264  -2.1243
    -2.1156  -2.1141  -2.1009  -2.0987  -2.0986  -2.0943  -2.0904  -2.0885
    -2.0881  -2.0774  -2.0765  -2.0596  -2.0583  -2.0567  -2.0505  -2.0476
    -2.0467  -2.0242  -2.0232  -2.0123  -2.0105  -2.0050  -2.0047  -1.9664
    -1.9333  -1.9328  -1.8975  -1.8804  -1.8800  -1.8705  -1.8682  -1.8458
    -1.8452  -1.8326  -1.8300  -1.8290  -1.8285  -1.8274  -1.8250  -1.7933
    -1.7928  -1.7925  -1.7483  -1.7467  -1.7079  -1.7064  -1.6596  -1.6594
    -1.6466  -1.6247  -1.6199  -1.6169  -1.6059  -1.5989  -1.5843  -1.5806
    -1.5788  -1.5759  -1.5746  -1.5738  -1.5737  -1.5716  -1.5514  -1.5506
    -1.5396  -1.5235  -1.5053  -1.5045  -1.4808  -1.4780  -1.4762  -1.4743
    -1.4707  -1.4676  -1.4471  -1.4465  -1.4323  -1.4308  -1.4183  -1.4091
    -1.3954  -1.3939  -1.3673  -1.3631  -1.3584  -1.3555  -1.3341  -1.3191
    -1.3130  -1.3107  -1.3030  -1.3025  -1.2817  -1.2803  -1.2723  -1.2660
    -1.2615  -1.2597  -1.2488  -1.2484  -1.2476  -1.2417  -1.2338  -1.2224
    -1.2184  -1.2149  -1.2135  -1.2024  -1.1981  -1.1924  -1.1888  -1.1521
    -1.1474  -1.1439  -1.1426  -1.1419  -1.1372  -1.1031  -1.0862  -1.0848
    -1.0848  -1.0835  -1.0811  -1.0758  -1.0755  -1.0601  -1.0545  -1.0235
    -1.0231  -1.0163  -1.0161  -0.9938  -0.9931  -0.9836  -0.9541  -0.9461
    -0.9196  -0.9180  -0.8906  -0.8905  -0.8876  -0.8865  -0.8854  -0.8811
    -0.8776  -0.8765  -0.8722  -0.8713  -0.8399  -0.8395  -0.8211  -0.8194
    -0.8165  -0.8153  -0.8141  -0.8108  -0.7955  -0.5205  -0.5090  -0.4525
    -0.4490  -0.4141  -0.2542  -0.1889  -0.1877  -0.1552   0.1305   0.1323
     0.4612   0.4637   0.5596   0.5599   0.5995   0.6022   0.7446   0.7486
     0.8685   0.8707   0.9607   1.5554   1.5739   1.5748   1.6101   1.6196
     1.6653   1.6704   1.7446   1.7455   1.9509   1.9514   2.1887   2.2648
     2.2690   2.2828   2.6638   2.6684   2.7362   2.7380   2.7439   2.7454
     2.8957   2.8965   2.9515   3.0421   3.0443   3.2707   3.2783   3.4053
     3.4331   3.4337   3.7058   3.7070   3.8193   3.8370   3.8370   3.9101
     3.9288   4.0201   4.0251   4.2596   4.2614   4.3462   4.3547   4.4706
     4.4788   4.4985   4.5029   4.6629   5.1291   5.3141   5.3288   5.4084
     5.4093   5.5206   5.5850   5.5857   5.6516   5.6947   5.7037   5.7117
     5.7386   5.7516   5.7541   5.7947   5.9982   6.0653   6.0677   6.0869
     6.0893   6.0948   6.0992   6.1051   6.1065   6.1463   6.1851   6.1916

          k = 0.2500 0.2500-0.2500 (167588 PWs)   bands (ev):

   -19.2173  -7.0740  -6.8670  -6.3402  -6.3401  -5.9108  -5.5018  -5.4089
    -5.4082  -5.2126  -5.2125  -5.0954  -5.0943  -5.0161  -4.9934  -4.9203
    -4.8353  -4.8315  -4.7931  -4.7924  -4.6322  -4.6150  -4.6140  -4.6135
    -4.6067  -4.5511  -4.5511  -4.5394  -4.5388  -4.5021  -4.4903  -4.4890
    -4.4473  -4.4472  -4.4138  -4.4126  -4.3619  -4.3602  -4.3506  -4.3487
    -4.3432  -4.3301  -4.3300  -4.2896  -4.2707  -4.2706  -4.2636  -4.2634
    -4.2319  -4.1826  -4.1668  -4.1661  -4.1639  -4.1624  -4.1546  -4.1490
    -4.1488  -4.1484  -4.0855  -4.0830  -4.0344  -4.0331  -4.0216  -3.9955
    -3.9950  -3.9759  -3.9724  -3.9722  -3.9677  -3.9651  -3.9160  -3.9157
    -3.9035  -3.9024  -3.7989  -3.7970  -3.7921  -3.7908  -3.7537  -3.7476
    -3.7300  -3.7007  -3.7004  -3.6720  -3.6713  -3.6508  -3.6498  -3.6377
    -3.6358  -3.5818  -3.5810  -3.5647  -3.5468  -3.5369  -3.5346  -3.5342
    -3.5329  -3.5065  -3.5057  -3.4699  -3.4691  -3.4510  -3.4463  -3.4175
    -3.4130  -3.3959  -3.3700  -3.3677  -3.3312  -3.3302  -3.3058  -3.2896
    -3.2871  -3.2864  -3.2722  -3.2684  -3.2671  -3.2595  -3.2274  -3.2184
    -3.1781  -3.1779  -3.1698  -3.1607  -3.1599  -3.1577  -3.1342  -3.1341
    -3.1133  -3.1126  -3.1118  -3.0855  -3.0851  -3.0776  -3.0744  -3.0740
    -3.0384  -3.0351  -2.9997  -2.9984  -2.9979  -2.9953  -2.9948  -2.9156
    -2.9058  -2.9021  -2.9011  -2.9005  -2.8995  -2.8955  -2.8950  -2.8941
    -2.8940  -2.8846  -2.8767  -2.8601  -2.8571  -2.8559  -2.8559  -2.8418
    -2.8370  -2.7992  -2.7983  -2.7979  -2.7936  -2.7934  -2.7756  -2.7751
    -2.7665  -2.7665  -2.7640  -2.7049  -2.7046  -2.6990  -2.6990  -2.6941
    -2.6937  -2.6659  -2.6069  -2.6057  -2.6053  -2.6031  -2.5918  -2.5901
    -2.5853  -2.5747  -2.5736  -2.5386  -2.5366  -2.5291  -2.5278  -2.5273
    -2.5266  -2.4883  -2.4873  -2.4777  -2.4776  -2.4762  -2.4754  -2.4331
    -2.4170  -2.4120  -2.3590  -2.3583  -2.3413  -2.3387  -2.3333  -2.3327
    -2.2851  -2.2837  -2.2610  -2.2451  -2.2312  -2.2301  -2.2288  -2.2077
    -2.2069  -2.1978  -2.1807  -2.1427  -2.1402  -2.1266  -2.1264  -2.1243
    -2.1156  -2.1141  -2.1009  -2.0987  -2.0986  -2.0943  -2.0904  -2.0885
    -2.0881  -2.0774  -2.0765  -2.0596  -2.0583  -2.0567  -2.0505  -2.0476
    -2.0467  -2.0242  -2.0232  -2.0123  -2.0105  -2.0049  -2.0047  -1.9665
    -1.9333  -1.9328  -1.8975  -1.8804  -1.8800  -1.8705  -1.8682  -1.8458
    -1.8452  -1.8326  -1.8300  -1.8290  -1.8285  -1.8274  -1.8250  -1.7933
    -1.7928  -1.7925  -1.7483  -1.7467  -1.7079  -1.7064  -1.6596  -1.6595
    -1.6466  -1.6247  -1.6199  -1.6169  -1.6059  -1.5990  -1.5843  -1.5806
    -1.5788  -1.5759  -1.5746  -1.5738  -1.5737  -1.5716  -1.5514  -1.5506
    -1.5396  -1.5236  -1.5053  -1.5045  -1.4808  -1.4780  -1.4762  -1.4742
    -1.4707  -1.4676  -1.4471  -1.4465  -1.4323  -1.4308  -1.4183  -1.4091
    -1.3954  -1.3939  -1.3673  -1.3631  -1.3584  -1.3555  -1.3341  -1.3190
    -1.3130  -1.3107  -1.3030  -1.3025  -1.2816  -1.2803  -1.2723  -1.2660
    -1.2615  -1.2597  -1.2488  -1.2484  -1.2476  -1.2417  -1.2338  -1.2224
    -1.2184  -1.2148  -1.2135  -1.2024  -1.1981  -1.1924  -1.1888  -1.1521
    -1.1474  -1.1439  -1.1426  -1.1419  -1.1372  -1.1031  -1.0862  -1.0848
    -1.0848  -1.0835  -1.0811  -1.0758  -1.0755  -1.0601  -1.0545  -1.0235
    -1.0231  -1.0163  -1.0161  -0.9938  -0.9931  -0.9836  -0.9541  -0.9461
    -0.9196  -0.9180  -0.8906  -0.8905  -0.8876  -0.8865  -0.8854  -0.8811
    -0.8776  -0.8765  -0.8722  -0.8713  -0.8399  -0.8395  -0.8211  -0.8194
    -0.8165  -0.8153  -0.8141  -0.8108  -0.7955  -0.5205  -0.5090  -0.4525
    -0.4490  -0.4141  -0.2542  -0.1889  -0.1877  -0.1552   0.1305   0.1323
     0.4612   0.4637   0.5596   0.5599   0.5995   0.6022   0.7446   0.7486
     0.8685   0.8707   0.9607   1.5554   1.5739   1.5748   1.6101   1.6196
     1.6653   1.6704   1.7446   1.7455   1.9509   1.9514   2.1887   2.2648
     2.2690   2.2828   2.6638   2.6684   2.7362   2.7380   2.7439   2.7454
     2.8957   2.8965   2.9516   3.0421   3.0443   3.2707   3.2783   3.4053
     3.4331   3.4337   3.7059   3.7070   3.8193   3.8370   3.8370   3.9101
     3.9289   4.0202   4.0251   4.2596   4.2614   4.3462   4.3547   4.4706
     4.4788   4.4985   4.5029   4.6630   5.1209   5.3143   5.3234   5.4080
     5.4092   5.5214   5.5852   5.5858   5.6590   5.6979   5.7027   5.7197
     5.7509   5.7535   5.7626   5.7951   6.0187   6.0659   6.0744   6.0880
     6.0908   6.0992   6.1021   6.1031   6.1065   6.1336   6.1835   6.2191

          k =-0.2500-0.2500 0.0833 (167653 PWs)   bands (ev):

   -19.2173  -7.0740  -6.8670  -6.3402  -6.3401  -5.9108  -5.5018  -5.4089
    -5.4082  -5.2126  -5.2125  -5.0954  -5.0943  -5.0161  -4.9934  -4.9203
    -4.8353  -4.8315  -4.7931  -4.7924  -4.6322  -4.6150  -4.6140  -4.6135
    -4.6067  -4.5511  -4.5511  -4.5394  -4.5388  -4.5021  -4.4903  -4.4890
    -4.4473  -4.4472  -4.4138  -4.4126  -4.3619  -4.3602  -4.3506  -4.3487
    -4.3432  -4.3301  -4.3300  -4.2896  -4.2707  -4.2706  -4.2636  -4.2634
    -4.2319  -4.1826  -4.1668  -4.1661  -4.1639  -4.1624  -4.1546  -4.1490
    -4.1488  -4.1484  -4.0855  -4.0830  -4.0344  -4.0331  -4.0216  -3.9955
    -3.9950  -3.9759  -3.9724  -3.9722  -3.9677  -3.9651  -3.9160  -3.9157
    -3.9035  -3.9024  -3.7989  -3.7970  -3.7921  -3.7908  -3.7537  -3.7476
    -3.7300  -3.7007  -3.7004  -3.6720  -3.6713  -3.6508  -3.6498  -3.6377
    -3.6359  -3.5818  -3.5810  -3.5647  -3.5468  -3.5369  -3.5346  -3.5342
    -3.5329  -3.5065  -3.5057  -3.4699  -3.4691  -3.4510  -3.4464  -3.4175
    -3.4130  -3.3959  -3.3700  -3.3677  -3.3312  -3.3302  -3.3058  -3.2896
    -3.2871  -3.2864  -3.2722  -3.2684  -3.2672  -3.2595  -3.2274  -3.2184
    -3.1781  -3.1779  -3.1698  -3.1607  -3.1599  -3.1577  -3.1342  -3.1341
    -3.1133  -3.1126  -3.1118  -3.0855  -3.0851  -3.0776  -3.0744  -3.0740
    -3.0384  -3.0351  -2.9997  -2.9984  -2.9979  -2.9953  -2.9948  -2.9156
    -2.9058  -2.9021  -2.9011  -2.9005  -2.8995  -2.8955  -2.8950  -2.8941
    -2.8940  -2.8846  -2.8767  -2.8601  -2.8571  -2.8559  -2.8559  -2.8418
    -2.8370  -2.7992  -2.7983  -2.7980  -2.7937  -2.7934  -2.7756  -2.7751
    -2.7665  -2.7665  -2.7640  -2.7049  -2.7046  -2.6990  -2.6990  -2.6941
    -2.6938  -2.6659  -2.6069  -2.6057  -2.6053  -2.6031  -2.5918  -2.5901
    -2.5853  -2.5747  -2.5736  -2.5386  -2.5366  -2.5291  -2.5278  -2.5273
    -2.5266  -2.4883  -2.4873  -2.4777  -2.4776  -2.4762  -2.4754  -2.4331
    -2.4170  -2.4120  -2.3590  -2.3583  -2.3413  -2.3387  -2.3333  -2.3327
    -2.2851  -2.2837  -2.2610  -2.2451  -2.2312  -2.2301  -2.2288  -2.2077
    -2.2069  -2.1978  -2.1807  -2.1427  -2.1402  -2.1266  -2.1264  -2.1243
    -2.1156  -2.1141  -2.1009  -2.0987  -2.0986  -2.0943  -2.0904  -2.0885
    -2.0881  -2.0774  -2.0765  -2.0596  -2.0583  -2.0567  -2.0505  -2.0476
    -2.0467  -2.0242  -2.0232  -2.0123  -2.0105  -2.0050  -2.0047  -1.9664
    -1.9333  -1.9328  -1.8975  -1.8804  -1.8800  -1.8705  -1.8682  -1.8458
    -1.8452  -1.8326  -1.8300  -1.8290  -1.8285  -1.8274  -1.8250  -1.7933
    -1.7928  -1.7925  -1.7483  -1.7467  -1.7079  -1.7064  -1.6596  -1.6594
    -1.6466  -1.6247  -1.6199  -1.6169  -1.6059  -1.5989  -1.5843  -1.5806
    -1.5788  -1.5759  -1.5746  -1.5738  -1.5737  -1.5716  -1.5514  -1.5506
    -1.5396  -1.5235  -1.5053  -1.5045  -1.4808  -1.4780  -1.4762  -1.4743
    -1.4707  -1.4676  -1.4471  -1.4465  -1.4323  -1.4308  -1.4183  -1.4091
    -1.3954  -1.3939  -1.3673  -1.3631  -1.3584  -1.3555  -1.3341  -1.3191
    -1.3130  -1.3107  -1.3030  -1.3025  -1.2817  -1.2803  -1.2723  -1.2660
    -1.2615  -1.2597  -1.2488  -1.2484  -1.2476  -1.2417  -1.2338  -1.2224
    -1.2184  -1.2149  -1.2135  -1.2024  -1.1981  -1.1924  -1.1888  -1.1521
    -1.1474  -1.1439  -1.1426  -1.1419  -1.1372  -1.1031  -1.0862  -1.0848
    -1.0848  -1.0835  -1.0811  -1.0758  -1.0755  -1.0601  -1.0545  -1.0235
    -1.0231  -1.0163  -1.0161  -0.9938  -0.9931  -0.9836  -0.9541  -0.9461
    -0.9196  -0.9180  -0.8906  -0.8905  -0.8876  -0.8865  -0.8854  -0.8811
    -0.8776  -0.8765  -0.8722  -0.8713  -0.8399  -0.8395  -0.8211  -0.8194
    -0.8165  -0.8153  -0.8141  -0.8108  -0.7955  -0.5205  -0.5090  -0.4525
    -0.4490  -0.4141  -0.2542  -0.1889  -0.1877  -0.1552   0.1305   0.1323
     0.4612   0.4637   0.5596   0.5599   0.5995   0.6022   0.7446   0.7486
     0.8685   0.8707   0.9607   1.5554   1.5739   1.5748   1.6101   1.6196
     1.6653   1.6704   1.7446   1.7455   1.9509   1.9514   2.1887   2.2648
     2.2690   2.2828   2.6638   2.6684   2.7362   2.7380   2.7439   2.7454
     2.8957   2.8965   2.9515   3.0421   3.0443   3.2707   3.2783   3.4053
     3.4331   3.4337   3.7058   3.7070   3.8193   3.8370   3.8370   3.9101
     3.9288   4.0201   4.0251   4.2596   4.2614   4.3462   4.3547   4.4706
     4.4788   4.4985   4.5029   4.6629   5.1288   5.3141   5.3298   5.4084
     5.4093   5.5169   5.5849   5.5857   5.6529   5.6955   5.7038   5.7158
     5.7385   5.7516   5.7541   5.7947   5.9992   6.0653   6.0675   6.0860
     6.0901   6.0938   6.0993   6.1048   6.1065   6.1464   6.1772   6.1902

          k =-0.2500 0.2500-0.0833 (167653 PWs)   bands (ev):

   -19.2173  -7.0740  -6.8670  -6.3409  -6.3394  -5.9108  -5.5018  -5.4092
    -5.4079  -5.2126  -5.2126  -5.0961  -5.0936  -5.0161  -4.9934  -4.9203
    -4.8353  -4.8315  -4.7932  -4.7924  -4.6322  -4.6150  -4.6143  -4.6132
    -4.6067  -4.5512  -4.5510  -4.5396  -4.5386  -4.5021  -4.4906  -4.4886
    -4.4474  -4.4471  -4.4138  -4.4126  -4.3622  -4.3599  -4.3505  -4.3487
    -4.3432  -4.3301  -4.3300  -4.2895  -4.2710  -4.2704  -4.2638  -4.2632
    -4.2318  -4.1825  -4.1670  -4.1659  -4.1645  -4.1620  -4.1546  -4.1490
    -4.1489  -4.1484  -4.0859  -4.0827  -4.0344  -4.0330  -4.0215  -3.9957
    -3.9949  -3.9762  -3.9726  -3.9720  -3.9678  -3.9651  -3.9159  -3.9157
    -3.9036  -3.9023  -3.7990  -3.7967  -3.7924  -3.7904  -3.7537  -3.7476
    -3.7300  -3.7008  -3.7005  -3.6723  -3.6710  -3.6509  -3.6498  -3.6379
    -3.6357  -3.5818  -3.5809  -3.5644  -3.5469  -3.5367  -3.5348  -3.5341
    -3.5331  -3.5069  -3.5058  -3.4703  -3.4692  -3.4505  -3.4466  -3.4171
    -3.4133  -3.3959  -3.3696  -3.3677  -3.3315  -3.3301  -3.3038  -3.2912
    -3.2867  -3.2854  -3.2721  -3.2682  -3.2671  -3.2623  -3.2275  -3.2180
    -3.1783  -3.1777  -3.1698  -3.1608  -3.1594  -3.1580  -3.1342  -3.1342
    -3.1135  -3.1129  -3.1113  -3.0852  -3.0849  -3.0776  -3.0747  -3.0735
    -3.0383  -3.0351  -3.0003  -2.9984  -2.9981  -2.9954  -2.9947  -2.9156
    -2.9058  -2.9024  -2.9007  -2.9005  -2.8996  -2.8958  -2.8946  -2.8942
    -2.8939  -2.8845  -2.8767  -2.8602  -2.8571  -2.8559  -2.8556  -2.8417
    -2.8368  -2.7993  -2.7984  -2.7979  -2.7943  -2.7930  -2.7758  -2.7749
    -2.7666  -2.7665  -2.7640  -2.7048  -2.7046  -2.6991  -2.6989  -2.6941
    -2.6933  -2.6661  -2.6069  -2.6057  -2.6050  -2.6031  -2.5918  -2.5900
    -2.5848  -2.5747  -2.5736  -2.5389  -2.5362  -2.5294  -2.5285  -2.5269
    -2.5264  -2.4883  -2.4872  -2.4779  -2.4774  -2.4764  -2.4752  -2.4331
    -2.4182  -2.4123  -2.3592  -2.3582  -2.3407  -2.3392  -2.3332  -2.3330
    -2.2855  -2.2833  -2.2610  -2.2454  -2.2309  -2.2302  -2.2287  -2.2076
    -2.2068  -2.1978  -2.1809  -2.1430  -2.1402  -2.1269  -2.1257  -2.1245
    -2.1155  -2.1140  -2.1009  -2.0990  -2.0986  -2.0942  -2.0907  -2.0887
    -2.0878  -2.0775  -2.0763  -2.0590  -2.0584  -2.0565  -2.0505  -2.0477
    -2.0466  -2.0243  -2.0230  -2.0117  -2.0106  -2.0053  -2.0039  -1.9665
    -1.9337  -1.9321  -1.8975  -1.8806  -1.8799  -1.8712  -1.8680  -1.8470
    -1.8449  -1.8331  -1.8299  -1.8294  -1.8285  -1.8274  -1.8246  -1.7934
    -1.7928  -1.7925  -1.7474  -1.7464  -1.7082  -1.7068  -1.6600  -1.6594
    -1.6472  -1.6245  -1.6195  -1.6170  -1.6009  -1.5998  -1.5827  -1.5811
    -1.5779  -1.5771  -1.5753  -1.5738  -1.5733  -1.5715  -1.5513  -1.5504
    -1.5406  -1.5235  -1.5069  -1.5045  -1.4815  -1.4780  -1.4753  -1.4745
    -1.4737  -1.4682  -1.4473  -1.4463  -1.4359  -1.4305  -1.4183  -1.4090
    -1.3961  -1.3951  -1.3645  -1.3632  -1.3556  -1.3555  -1.3239  -1.3202
    -1.3186  -1.3116  -1.3101  -1.3024  -1.2834  -1.2815  -1.2764  -1.2692
    -1.2625  -1.2584  -1.2500  -1.2478  -1.2473  -1.2339  -1.2292  -1.2231
    -1.2175  -1.2151  -1.2146  -1.1985  -1.1981  -1.1917  -1.1777  -1.1510
    -1.1491  -1.1447  -1.1424  -1.1419  -1.1411  -1.1032  -1.0866  -1.0849
    -1.0844  -1.0833  -1.0797  -1.0760  -1.0752  -1.0622  -1.0601  -1.0239
    -1.0205  -1.0163  -1.0157  -0.9939  -0.9931  -0.9837  -0.9540  -0.9461
    -0.9197  -0.9178  -0.8908  -0.8904  -0.8875  -0.8870  -0.8854  -0.8813
    -0.8775  -0.8765  -0.8727  -0.8713  -0.8400  -0.8392  -0.8211  -0.8178
    -0.8163  -0.8149  -0.8142  -0.8137  -0.7955  -0.5206  -0.5090  -0.4538
    -0.4491  -0.4140  -0.2542  -0.1891  -0.1875  -0.1536   0.1305   0.1319
     0.4601   0.4656   0.5594   0.5601   0.5994   0.6026   0.7436   0.7475
     0.8685   0.8708   0.9612   1.5564   1.5738   1.5749   1.6108   1.6195
     1.6608   1.6737   1.7432   1.7466   1.9503   1.9522   2.1897   2.2640
     2.2708   2.2827   2.6607   2.6719   2.7364   2.7376   2.7437   2.7456
     2.8954   2.8967   2.9504   3.0387   3.0469   3.2708   3.2756   3.4056
     3.4320   3.4353   3.7030   3.7091   3.8223   3.8369   3.8373   3.9028
     3.9360   4.0199   4.0254   4.2591   4.2616   4.3483   4.3537   4.4713
     4.4781   4.4959   4.5073   4.6615   5.1228   5.3201   5.3256   5.4059
     5.4124   5.5151   5.5825   5.5882   5.6485   5.6975   5.7007   5.7091
     5.7475   5.7536   5.7573   5.7944   6.0104   6.0540   6.0726   6.0872
     6.0899   6.0945   6.0992   6.1043   6.1065   6.1550   6.1625   6.2012

          k = 0.2500-0.2500-0.0833 (167653 PWs)   bands (ev):

   -19.2173  -7.0740  -6.8670  -6.3409  -6.3394  -5.9108  -5.5018  -5.4092
    -5.4079  -5.2126  -5.2126  -5.0961  -5.0936  -5.0161  -4.9934  -4.9203
    -4.8353  -4.8315  -4.7932  -4.7924  -4.6322  -4.6150  -4.6143  -4.6132
    -4.6067  -4.5512  -4.5510  -4.5396  -4.5386  -4.5021  -4.4906  -4.4886
    -4.4474  -4.4471  -4.4138  -4.4126  -4.3622  -4.3599  -4.3505  -4.3487
    -4.3432  -4.3301  -4.3300  -4.2895  -4.2710  -4.2704  -4.2638  -4.2632
    -4.2318  -4.1825  -4.1670  -4.1659  -4.1645  -4.1620  -4.1546  -4.1490
    -4.1489  -4.1484  -4.0859  -4.0827  -4.0344  -4.0330  -4.0215  -3.9957
    -3.9949  -3.9762  -3.9726  -3.9720  -3.9678  -3.9651  -3.9159  -3.9157
    -3.9036  -3.9023  -3.7990  -3.7967  -3.7924  -3.7904  -3.7537  -3.7476
    -3.7300  -3.7008  -3.7005  -3.6723  -3.6710  -3.6509  -3.6498  -3.6379
    -3.6357  -3.5818  -3.5809  -3.5644  -3.5469  -3.5367  -3.5348  -3.5341
    -3.5331  -3.5069  -3.5058  -3.4703  -3.4692  -3.4505  -3.4466  -3.4171
    -3.4133  -3.3959  -3.3696  -3.3677  -3.3315  -3.3301  -3.3038  -3.2912
    -3.2867  -3.2854  -3.2721  -3.2682  -3.2671  -3.2623  -3.2275  -3.2180
    -3.1783  -3.1777  -3.1698  -3.1608  -3.1594  -3.1580  -3.1342  -3.1342
    -3.1135  -3.1129  -3.1113  -3.0852  -3.0849  -3.0776  -3.0747  -3.0735
    -3.0383  -3.0351  -3.0003  -2.9984  -2.9981  -2.9954  -2.9947  -2.9156
    -2.9058  -2.9024  -2.9007  -2.9005  -2.8996  -2.8958  -2.8946  -2.8942
    -2.8939  -2.8845  -2.8767  -2.8602  -2.8571  -2.8559  -2.8556  -2.8417
    -2.8368  -2.7993  -2.7984  -2.7979  -2.7943  -2.7930  -2.7758  -2.7749
    -2.7666  -2.7665  -2.7640  -2.7048  -2.7046  -2.6991  -2.6989  -2.6941
    -2.6933  -2.6661  -2.6069  -2.6057  -2.6050  -2.6031  -2.5918  -2.5900
    -2.5848  -2.5747  -2.5736  -2.5389  -2.5362  -2.5294  -2.5285  -2.5269
    -2.5264  -2.4883  -2.4872  -2.4779  -2.4774  -2.4764  -2.4752  -2.4331
    -2.4182  -2.4123  -2.3592  -2.3582  -2.3407  -2.3392  -2.3332  -2.3330
    -2.2855  -2.2833  -2.2610  -2.2454  -2.2309  -2.2302  -2.2287  -2.2076
    -2.2068  -2.1978  -2.1809  -2.1430  -2.1402  -2.1269  -2.1257  -2.1245
    -2.1155  -2.1140  -2.1009  -2.0990  -2.0986  -2.0942  -2.0907  -2.0887
    -2.0878  -2.0775  -2.0763  -2.0590  -2.0584  -2.0565  -2.0505  -2.0477
    -2.0466  -2.0243  -2.0230  -2.0117  -2.0106  -2.0053  -2.0039  -1.9665
    -1.9337  -1.9321  -1.8975  -1.8806  -1.8799  -1.8712  -1.8680  -1.8470
    -1.8449  -1.8331  -1.8299  -1.8294  -1.8285  -1.8274  -1.8246  -1.7934
    -1.7928  -1.7925  -1.7474  -1.7464  -1.7082  -1.7068  -1.6600  -1.6594
    -1.6472  -1.6245  -1.6195  -1.6170  -1.6009  -1.5998  -1.5827  -1.5811
    -1.5779  -1.5771  -1.5753  -1.5738  -1.5733  -1.5715  -1.5513  -1.5504
    -1.5406  -1.5235  -1.5069  -1.5045  -1.4815  -1.4780  -1.4753  -1.4745
    -1.4737  -1.4682  -1.4473  -1.4463  -1.4359  -1.4305  -1.4183  -1.4090
    -1.3961  -1.3951  -1.3645  -1.3632  -1.3556  -1.3555  -1.3239  -1.3202
    -1.3186  -1.3116  -1.3101  -1.3024  -1.2834  -1.2815  -1.2764  -1.2692
    -1.2625  -1.2584  -1.2500  -1.2478  -1.2473  -1.2339  -1.2292  -1.2231
    -1.2175  -1.2151  -1.2146  -1.1985  -1.1981  -1.1917  -1.1777  -1.1510
    -1.1491  -1.1447  -1.1424  -1.1419  -1.1411  -1.1032  -1.0866  -1.0849
    -1.0844  -1.0833  -1.0797  -1.0760  -1.0752  -1.0622  -1.0601  -1.0239
    -1.0205  -1.0163  -1.0157  -0.9939  -0.9931  -0.9837  -0.9540  -0.9461
    -0.9197  -0.9178  -0.8908  -0.8904  -0.8875  -0.8870  -0.8854  -0.8813
    -0.8775  -0.8765  -0.8727  -0.8713  -0.8400  -0.8392  -0.8211  -0.8178
    -0.8163  -0.8149  -0.8142  -0.8137  -0.7955  -0.5206  -0.5090  -0.4538
    -0.4491  -0.4140  -0.2542  -0.1891  -0.1875  -0.1536   0.1305   0.1319
     0.4601   0.4656   0.5594   0.5601   0.5994   0.6026   0.7436   0.7475
     0.8685   0.8708   0.9612   1.5564   1.5738   1.5749   1.6108   1.6195
     1.6608   1.6737   1.7432   1.7466   1.9503   1.9522   2.1897   2.2640
     2.2708   2.2827   2.6607   2.6719   2.7364   2.7376   2.7437   2.7456
     2.8954   2.8967   2.9504   3.0387   3.0469   3.2708   3.2756   3.4056
     3.4320   3.4353   3.7030   3.7091   3.8223   3.8369   3.8373   3.9028
     3.9360   4.0199   4.0254   4.2591   4.2616   4.3483   4.3537   4.4713
     4.4781   4.4959   4.5073   4.6615   5.1228   5.3201   5.3257   5.4059
     5.4124   5.5148   5.5825   5.5882   5.6486   5.6976   5.7007   5.7091
     5.7475   5.7536   5.7574   5.7945   6.0106   6.0540   6.0725   6.0875
     6.0898   6.0945   6.0992   6.1043   6.1065   6.1551   6.1618   6.2008

          k =-0.2500 0.2500 0.2500 (167588 PWs)   bands (ev):

   -19.2173  -7.0739  -6.8670  -6.3409  -6.3394  -5.9108  -5.5018  -5.4092
    -5.4079  -5.2126  -5.2126  -5.0961  -5.0936  -5.0161  -4.9934  -4.9203
    -4.8353  -4.8315  -4.7932  -4.7924  -4.6322  -4.6150  -4.6143  -4.6132
    -4.6067  -4.5512  -4.5510  -4.5396  -4.5386  -4.5021  -4.4906  -4.4886
    -4.4474  -4.4471  -4.4139  -4.4126  -4.3622  -4.3599  -4.3505  -4.3487
    -4.3432  -4.3301  -4.3300  -4.2895  -4.2710  -4.2704  -4.2638  -4.2632
    -4.2318  -4.1825  -4.1670  -4.1659  -4.1645  -4.1620  -4.1546  -4.1490
    -4.1489  -4.1484  -4.0859  -4.0827  -4.0344  -4.0330  -4.0215  -3.9957
    -3.9949  -3.9762  -3.9726  -3.9720  -3.9678  -3.9651  -3.9160  -3.9157
    -3.9036  -3.9023  -3.7990  -3.7967  -3.7924  -3.7904  -3.7537  -3.7476
    -3.7300  -3.7008  -3.7005  -3.6723  -3.6710  -3.6509  -3.6498  -3.6379
    -3.6357  -3.5818  -3.5809  -3.5644  -3.5469  -3.5367  -3.5348  -3.5341
    -3.5331  -3.5069  -3.5058  -3.4703  -3.4691  -3.4505  -3.4466  -3.4171
    -3.4132  -3.3959  -3.3696  -3.3677  -3.3315  -3.3301  -3.3037  -3.2912
    -3.2867  -3.2854  -3.2721  -3.2682  -3.2671  -3.2623  -3.2275  -3.2180
    -3.1783  -3.1777  -3.1698  -3.1608  -3.1594  -3.1580  -3.1342  -3.1342
    -3.1135  -3.1129  -3.1113  -3.0852  -3.0849  -3.0776  -3.0747  -3.0735
    -3.0383  -3.0351  -3.0003  -2.9984  -2.9981  -2.9954  -2.9947  -2.9156
    -2.9058  -2.9024  -2.9007  -2.9005  -2.8996  -2.8958  -2.8946  -2.8942
    -2.8939  -2.8845  -2.8767  -2.8602  -2.8571  -2.8559  -2.8556  -2.8417
    -2.8368  -2.7993  -2.7984  -2.7979  -2.7943  -2.7930  -2.7758  -2.7749
    -2.7666  -2.7664  -2.7640  -2.7048  -2.7046  -2.6991  -2.6989  -2.6941
    -2.6933  -2.6661  -2.6069  -2.6057  -2.6050  -2.6031  -2.5918  -2.5900
    -2.5848  -2.5747  -2.5736  -2.5389  -2.5362  -2.5294  -2.5285  -2.5269
    -2.5264  -2.4883  -2.4872  -2.4779  -2.4774  -2.4764  -2.4752  -2.4331
    -2.4182  -2.4123  -2.3592  -2.3582  -2.3407  -2.3392  -2.3332  -2.3330
    -2.2855  -2.2833  -2.2610  -2.2454  -2.2309  -2.2302  -2.2287  -2.2076
    -2.2068  -2.1978  -2.1809  -2.1430  -2.1402  -2.1269  -2.1257  -2.1245
    -2.1155  -2.1140  -2.1009  -2.0990  -2.0986  -2.0942  -2.0907  -2.0887
    -2.0878  -2.0775  -2.0763  -2.0590  -2.0584  -2.0565  -2.0505  -2.0477
    -2.0466  -2.0243  -2.0230  -2.0117  -2.0106  -2.0053  -2.0039  -1.9665
    -1.9337  -1.9321  -1.8975  -1.8806  -1.8799  -1.8712  -1.8680  -1.8470
    -1.8449  -1.8331  -1.8299  -1.8294  -1.8284  -1.8274  -1.8246  -1.7934
    -1.7928  -1.7925  -1.7474  -1.7464  -1.7082  -1.7068  -1.6600  -1.6594
    -1.6472  -1.6245  -1.6195  -1.6170  -1.6009  -1.5998  -1.5827  -1.5811
    -1.5779  -1.5771  -1.5753  -1.5738  -1.5733  -1.5715  -1.5513  -1.5504
    -1.5406  -1.5235  -1.5069  -1.5045  -1.4815  -1.4780  -1.4753  -1.4745
    -1.4737  -1.4682  -1.4473  -1.4463  -1.4359  -1.4305  -1.4183  -1.4090
    -1.3961  -1.3951  -1.3645  -1.3632  -1.3556  -1.3555  -1.3239  -1.3202
    -1.3186  -1.3116  -1.3101  -1.3024  -1.2834  -1.2815  -1.2764  -1.2692
    -1.2625  -1.2584  -1.2500  -1.2478  -1.2473  -1.2339  -1.2292  -1.2232
    -1.2175  -1.2151  -1.2146  -1.1985  -1.1981  -1.1917  -1.1777  -1.1510
    -1.1491  -1.1447  -1.1424  -1.1419  -1.1411  -1.1032  -1.0866  -1.0848
    -1.0844  -1.0833  -1.0797  -1.0760  -1.0752  -1.0622  -1.0601  -1.0239
    -1.0205  -1.0163  -1.0157  -0.9939  -0.9931  -0.9837  -0.9540  -0.9461
    -0.9197  -0.9178  -0.8908  -0.8904  -0.8875  -0.8870  -0.8854  -0.8813
    -0.8775  -0.8765  -0.8727  -0.8713  -0.8400  -0.8392  -0.8211  -0.8178
    -0.8163  -0.8149  -0.8142  -0.8137  -0.7955  -0.5206  -0.5090  -0.4538
    -0.4490  -0.4140  -0.2542  -0.1891  -0.1875  -0.1536   0.1305   0.1319
     0.4601   0.4656   0.5594   0.5601   0.5994   0.6026   0.7436   0.7475
     0.8685   0.8708   0.9611   1.5564   1.5738   1.5749   1.6108   1.6195
     1.6608   1.6737   1.7432   1.7466   1.9503   1.9522   2.1897   2.2640
     2.2708   2.2827   2.6607   2.6719   2.7364   2.7376   2.7437   2.7457
     2.8954   2.8967   2.9505   3.0387   3.0469   3.2708   3.2756   3.4056
     3.4320   3.4353   3.7030   3.7091   3.8223   3.8369   3.8373   3.9028
     3.9360   4.0200   4.0254   4.2591   4.2616   4.3483   4.3537   4.4713
     4.4781   4.4959   4.5073   4.6616   5.1153   5.3157   5.3239   5.4054
     5.4124   5.5161   5.5827   5.5885   5.6565   5.6982   5.7039   5.7321
     5.7509   5.7540   5.7564   5.7944   6.0329   6.0600   6.0716   6.0840
     6.0915   6.0990   6.1040   6.1065   6.1137   6.1248   6.1856   6.2116

     the Fermi energy is     0.8197 ev

!    total energy              =   -7425.29503766 Ry
     Harris-Foulkes estimate   =   -7425.29503766 Ry
     estimated scf accuracy    <          1.1E-09 Ry

     The total energy is the sum of the following terms:

     one-electron contribution =  -48702.30213148 Ry
     hartree contribution      =   24900.70799582 Ry
     xc contribution           =   -3604.21737014 Ry
     ewald contribution        =   19980.51916485 Ry
     smearing contrib. (-TS)   =      -0.00269672 Ry

     convergence has been achieved in  28 iterations

     Writing output data file 7020348.save

     init_run     :    137.25s CPU    146.29s WALL (       1 calls)
     electrons    :   8396.54s CPU   8841.50s WALL (       1 calls)

     Called by init_run:
     wfcinit      :     96.73s CPU    103.67s WALL (       1 calls)
     potinit      :     12.54s CPU     14.23s WALL (       1 calls)

     Called by electrons:
     c_bands      :   6650.03s CPU   7001.68s WALL (      29 calls)
     sum_band     :   1193.38s CPU   1266.45s WALL (      29 calls)
     v_of_rho     :    113.36s CPU    127.06s WALL (      29 calls)
     newd         :    459.88s CPU    465.18s WALL (      29 calls)
     mix_rho      :      3.88s CPU      4.35s WALL (      29 calls)
     vdW_energy   :     10.42s CPU     11.17s WALL (      29 calls)
     vdW_ffts     :     54.92s CPU     62.43s WALL (      58 calls)
     vdW_v        :     13.42s CPU     14.46s WALL (      29 calls)

     Called by c_bands:
     init_us_2    :     11.99s CPU     12.35s WALL (     354 calls)
     cegterg      :   6542.00s CPU   6892.61s WALL (     174 calls)

     Called by *egterg:
     h_psi        :   3042.68s CPU   3362.15s WALL (     864 calls)
     s_psi        :    382.99s CPU    384.88s WALL (     864 calls)
     g_psi        :      4.76s CPU      4.82s WALL (     684 calls)
     cdiaghg      :   1579.53s CPU   1583.91s WALL (     852 calls)

     Called by h_psi:
     add_vuspsi   :    381.59s CPU    383.53s WALL (     864 calls)

     General routines
     calbec       :    671.17s CPU    673.51s WALL (    1038 calls)
     fft          :    272.69s CPU    286.03s WALL (    1914 calls)
     ffts         :      1.82s CPU      2.08s WALL (      58 calls)
     fftw         :   2375.42s CPU   2729.73s WALL (  469432 calls)
     interpolate  :      5.35s CPU      6.07s WALL (      58 calls)
     davcio       :      0.01s CPU      0.16s WALL (       6 calls)

     Parallel routines
     fft_scatter  :   1985.62s CPU   2300.79s WALL (  471404 calls)

     PWSCF        :     2h22m CPU        2h30m WALL


   This run was terminated on:  11:24:28  24Aug2015            

=------------------------------------------------------------------------------=
   JOB DONE.
=------------------------------------------------------------------------------=
