Setting SGE environment for SCC

     Program PWSCF v.5.1.2 starts on  3Jul2015 at 14:54:44 

     This program is part of the open-source Quantum ESPRESSO suite
     for quantum simulation of materials; please cite
         "P. Giannozzi et al., J. Phys.:Condens. Matter 21 395502 (2009);
          URL http://www.quantum-espresso.org", 
     in publications or presentations arising from this work. More details at
     http://www.quantum-espresso.org/quote

     Parallel version (MPI), running on    32 processors
     R & G space division:  proc/nbgrp/npool/nimage =      32
     Reading input from hollow.O1.Au5859.d.2.5.phi.45.psi.90.in
Warning: card &IONS ignored
Warning: card / ignored
Warning: card &CELL ignored
Warning: card / ignored

     Current dimensions of program PWSCF are:
     Max number of different atomic species (ntypx) = 10
     Max number of k-points (npk) =  40000
     Max angular momentum in pseudopotentials (lmaxx) =  3

     IMPORTANT: XC functional enforced from input :
     Exchange-correlation      = VDW-DF ( 1  4  4  0 1 0)
     Any further DFT definition will be discarded
     Please, verify this is what you really want


     Subspace diagonalization in iterative solution of the eigenvalue problem:
     a serial algorithm will be used


     Parallelization info
     --------------------
     sticks:   dense  smooth     PW     G-vecs:    dense   smooth      PW
     Min         578     289     74               118518    41891    5486
     Max         579     290     75               118533    41932    5497
     Sum       18505    9265   2385              3792731  1341081  175711


     Title: 
     hollow.O1.Au5859.d.2.5.phi.45.psi.90                                       


     bravais-lattice index     =            8
     lattice parameter (alat)  =      24.1233  a.u.
     unit-cell volume          =   28076.2361 (a.u.)^3
     number of atoms/cell      =           75
     number of atomic types    =            3
     number of electrons       =       800.00
     number of Kohn-Sham states=          480
     kinetic-energy cutoff     =      50.0000  Ry
     charge density cutoff     =     400.0000  Ry
     convergence threshold     =      1.0E-08
     mixing beta               =       0.7000
     number of iterations used =            8  plain     mixing
     Exchange-correlation      = VDW-DF ( 1  4  4  0 1 0)

     celldm(1)=  24.123277  celldm(2)=   1.000000  celldm(3)=   2.000000
     celldm(4)=   0.000000  celldm(5)=   0.000000  celldm(6)=   0.000000

     crystal axes: (cart. coord. in units of alat)
               a(1) = (   1.000000   0.000000   0.000000 )  
               a(2) = (   0.000000   1.000000   0.000000 )  
               a(3) = (   0.000000   0.000000   2.000000 )  

     reciprocal axes: (cart. coord. in units 2 pi/alat)
               b(1) = (  1.000000  0.000000  0.000000 )  
               b(2) = (  0.000000  1.000000  0.000000 )  
               b(3) = (  0.000000  0.000000  0.500000 )  


     PseudoPot. # 1 for Au read from file:
     /home/scc/andrejb/qe/pseudo/Au.pbe-nd-van.UPF
     MD5 check sum: 458681b50f36d87ef23c61b04bba420a
     Pseudo is Ultrasoft + core correction, Zval = 11.0
     Generated by new atomic code, or converted to UPF format
     Using radial grid of  985 points,  3 beta functions with: 
                l(1) =   1
                l(2) =   2
                l(3) =   2
     Q(r) pseudized with  8 coefficients,  rinner =    1.100   1.100   1.100
                                                       1.100   1.100

     PseudoPot. # 2 for H  read from file:
     /home/scc/andrejb/qe/pseudo/H.pbe-van_ak.UPF
     MD5 check sum: 403db7282739603aa925980fa9b8608d
     Pseudo is Ultrasoft, Zval =  1.0
     Generated by new atomic code, or converted to UPF format
     Using radial grid of  615 points,  1 beta functions with: 
                l(1) =   0
     Q(r) pseudized with  8 coefficients,  rinner =    0.800

     PseudoPot. # 3 for O  read from file:
     /home/scc/andrejb/qe/pseudo/O.pbe-van_ak.UPF
     MD5 check sum: 4b8c549914a63cae506c6ff22b5af4fe
     Pseudo is Ultrasoft, Zval =  6.0
     Generated by new atomic code, or converted to UPF format
     Using radial grid of  737 points,  4 beta functions with: 
                l(1) =   0
                l(2) =   0
                l(3) =   1
                l(4) =   1
     Q(r) pseudized with  8 coefficients,  rinner =    0.800   0.800   0.800


     vdW kernel table read from file vdW_kernel_table
     MD5 check sum: 48e77a2e26edf626eeb0eaa751ad5cac

     atomic species   valence    mass     pseudopotential
        Au            11.00   196.96657     Au( 1.00)
        H              1.00     1.01000     H ( 1.00)
        O              6.00    16.00000     O ( 1.00)

     No symmetry found



   Cartesian axes

     site n.     atom                  positions (alat units)
         1           O   tau(   1) = (   0.1666051   0.1666105   0.6951546  )
         2           H   tau(   2) = (   0.1610146   0.1211166   0.6341672  )
         3           H   tau(   3) = (   0.1720135   0.1187528   0.7543054  )
         4           Au  tau(   4) = (   0.0000000   0.0000000   0.0000000  )
         5           Au  tau(   5) = (   0.3332217   0.0000000   0.0000000  )
         6           Au  tau(   6) = (   0.6664434   0.0000000   0.0000000  )
         7           Au  tau(   7) = (   0.1666109   0.1666109   0.0000000  )
         8           Au  tau(   8) = (   0.4998326   0.1666109   0.0000000  )
         9           Au  tau(   9) = (   0.8330542   0.1666109   0.0000000  )
        10           Au  tau(  10) = (   0.0000000   0.3332217   0.0000000  )
        11           Au  tau(  11) = (   0.3332217   0.3332217   0.0000000  )
        12           Au  tau(  12) = (   0.6664434   0.3332217   0.0000000  )
        13           Au  tau(  13) = (   0.1666109   0.4998326   0.0000000  )
        14           Au  tau(  14) = (   0.4998326   0.4998326   0.0000000  )
        15           Au  tau(  15) = (   0.8330542   0.4998326   0.0000000  )
        16           Au  tau(  16) = (   0.0000000   0.6664434   0.0000000  )
        17           Au  tau(  17) = (   0.3332217   0.6664434   0.0000000  )
        18           Au  tau(  18) = (   0.6664434   0.6664434   0.0000000  )
        19           Au  tau(  19) = (   0.1666109   0.8330542   0.0000000  )
        20           Au  tau(  20) = (   0.4998326   0.8330542   0.0000000  )
        21           Au  tau(  21) = (   0.8330542   0.8330542   0.0000000  )
        22           Au  tau(  22) = (   0.1666109   0.0000000   0.1666109  )
        23           Au  tau(  23) = (   0.4998326   0.0000000   0.1666109  )
        24           Au  tau(  24) = (   0.8330542   0.0000000   0.1666109  )
        25           Au  tau(  25) = (   0.0000000   0.1666109   0.1666109  )
        26           Au  tau(  26) = (   0.3332217   0.1666109   0.1666109  )
        27           Au  tau(  27) = (   0.6664434   0.1666109   0.1666109  )
        28           Au  tau(  28) = (   0.1666109   0.3332217   0.1666109  )
        29           Au  tau(  29) = (   0.4998326   0.3332217   0.1666109  )
        30           Au  tau(  30) = (   0.8330542   0.3332217   0.1666109  )
        31           Au  tau(  31) = (   0.0000000   0.4998326   0.1666109  )
        32           Au  tau(  32) = (   0.3332217   0.4998326   0.1666109  )
        33           Au  tau(  33) = (   0.6664434   0.4998326   0.1666109  )
        34           Au  tau(  34) = (   0.1666109   0.6664434   0.1666109  )
        35           Au  tau(  35) = (   0.4998326   0.6664434   0.1666109  )
        36           Au  tau(  36) = (   0.8330542   0.6664434   0.1666109  )
        37           Au  tau(  37) = (   0.0000000   0.8330542   0.1666109  )
        38           Au  tau(  38) = (   0.3332217   0.8330542   0.1666109  )
        39           Au  tau(  39) = (   0.6664434   0.8330542   0.1666109  )
        40           Au  tau(  40) = (  -0.0000182  -0.0000182   0.3335478  )
        41           Au  tau(  41) = (   0.3332215  -0.0000181   0.3335473  )
        42           Au  tau(  42) = (   0.6664447  -0.0000183   0.3335481  )
        43           Au  tau(  43) = (  -0.0000181   0.3332215   0.3335473  )
        44           Au  tau(  44) = (   0.3332215   0.3332215   0.3335468  )
        45           Au  tau(  45) = (   0.6664445   0.3332215   0.3335477  )
        46           Au  tau(  46) = (  -0.0000183   0.6664447   0.3335481  )
        47           Au  tau(  47) = (   0.3332215   0.6664445   0.3335477  )
        48           Au  tau(  48) = (   0.6664446   0.6664446   0.3335486  )
        49           Au  tau(  49) = (   0.1666097   0.1666097   0.3335483  )
        50           Au  tau(  50) = (   0.4998320   0.1666098   0.3335477  )
        51           Au  tau(  51) = (   0.8330732   0.1666096   0.3335480  )
        52           Au  tau(  52) = (   0.1666098   0.4998320   0.3335477  )
        53           Au  tau(  53) = (   0.4998322   0.4998322   0.3335470  )
        54           Au  tau(  54) = (   0.8330731   0.4998322   0.3335474  )
        55           Au  tau(  55) = (   0.1666096   0.8330732   0.3335480  )
        56           Au  tau(  56) = (   0.4998322   0.8330731   0.3335474  )
        57           Au  tau(  57) = (   0.8330731   0.8330731   0.3335478  )
        58           Au  tau(  58) = (   0.1666104  -0.0000111   0.4993095  )
        59           Au  tau(  59) = (   0.4998323  -0.0000112   0.4993099  )
        60           Au  tau(  60) = (   0.8330660  -0.0000111   0.4993009  )
        61           Au  tau(  61) = (  -0.0000111   0.1666104   0.4993095  )
        62           Au  tau(  62) = (   0.3332213   0.1666106   0.4993185  )
        63           Au  tau(  63) = (   0.6664437   0.1666106   0.4993187  )
        64           Au  tau(  64) = (   0.1666106   0.3332213   0.4993185  )
        65           Au  tau(  65) = (   0.4998324   0.3332216   0.4993185  )
        66           Au  tau(  66) = (   0.8330658   0.3332215   0.4993102  )
        67           Au  tau(  67) = (  -0.0000112   0.4998323   0.4993099  )
        68           Au  tau(  68) = (   0.3332216   0.4998324   0.4993185  )
        69           Au  tau(  69) = (   0.6664437   0.4998325   0.4993187  )
        70           Au  tau(  70) = (   0.1666106   0.6664437   0.4993187  )
        71           Au  tau(  71) = (   0.4998325   0.6664437   0.4993187  )
        72           Au  tau(  72) = (   0.8330658   0.6664438   0.4993102  )
        73           Au  tau(  73) = (  -0.0000111   0.8330660   0.4993009  )
        74           Au  tau(  74) = (   0.3332215   0.8330658   0.4993102  )
        75           Au  tau(  75) = (   0.6664438   0.8330658   0.4993102  )

     number of k points=     6  Marzari-Vanderbilt smearing, width (Ry)=  0.0200
                       cart. coord. in units 2pi/alat
        k(    1) = (   0.2500000   0.2500000   0.0833333), wk =   0.3333333
        k(    2) = (   0.2500000   0.2500000  -0.2500000), wk =   0.3333333
        k(    3) = (  -0.2500000  -0.2500000   0.0833333), wk =   0.3333333
        k(    4) = (  -0.2500000   0.2500000  -0.0833333), wk =   0.3333333
        k(    5) = (   0.2500000  -0.2500000  -0.0833333), wk =   0.3333333
        k(    6) = (  -0.2500000   0.2500000   0.2500000), wk =   0.3333333

     Dense  grid:  3792731 G-vectors     FFT dimensions: ( 160, 160, 320)

     Smooth grid:  1341081 G-vectors     FFT dimensions: ( 120, 120, 225)

     Largest allocated arrays     est. size (Mb)     dimensions
        Kohn-Sham Wavefunctions        38.58 Mb     (    5267,  480)
        NL pseudopotentials            76.03 Mb     (    5267,  946)
        Each V/rho on FFT grid          3.91 Mb     (  256000)
        Each G-vector array             0.90 Mb     (  118520)
        G-vector shells                 0.08 Mb     (   10286)
     Largest temporary arrays     est. size (Mb)     dimensions
        Auxiliary wavefunctions       154.31 Mb     (    5267, 1920)
        Each subspace H/S matrix       56.25 Mb     (    1920, 1920)
        Each <psi_i|beta_j> matrix      6.93 Mb     (     946,  480)
        Arrays for rho mixing          31.25 Mb     (  256000,    8)

     Initial potential from superposition of free atoms
     Check: negative starting charge=   -1.945144

     starting charge  799.16392, renormalised to  800.00000

     negative rho (up, down):  1.947E+00 0.000E+00


     ************************************************************************
     *
     * You are using vdW-DF for exchange-correlation in this calculation.
     * Please cite the following three references that made this development
     * possible:
     *
     *   M. Dion, H. Rydberg, E. Schroder, D. C. Langreth, and
     *   B. I. Lundqvist, Phys. Rev. Lett. 92, 246401 (2004).
     *
     *   T. Thonhauser, V. R. Cooper, S. Li, A. Puzder, P. Hyldgaard, and
     *   D. C. Langreth, Phys. Rev. B 76, 125112 (2007).
     *
     *   G. Roman-Perez and J. M. Soler, Phys. Rev. Lett. 103, 096102 (2009).
     *
     *
     * If you are using vdW-DF2, please also cite:
     *
     *   K. Lee, E. D. Murray, L. Kong, B. I. Lundqvist, and
     *   D. C. Langreth, Phys. Rev. B 82, 081101(R) (2010).
     *
     *
     * If you are calculating the stress with vdW-DF, please also cite:
     *
     *   R. Sabatini, E. Kucukbenli, B. Kolb, T. Thonhauser, and
     *   S. de Gironcoli, J. Phys.: Condens. Matter 24, 424209 (2012).
     *
     ************************************************************************

     Carrying out vdW-DF run using the following parameters:

     Nqs =      20    Nr_points =    1024   r_max =   100.000
     q_mesh =
               0.00001000     0.04494208     0.09755937     0.15916263
               0.23128650     0.31572767     0.41458969     0.53033537
               0.66584808     0.82450364     1.01025438     1.22772762
               1.48234092     1.78043706     2.12944203     2.53805004
               3.01644009     3.57652955     4.23227104     5.00000000

     Gradients computed in reciprocal space

     ************************************************************************


     Starting wfc are  654 randomized atomic wfcs

     total cpu time spent up to now is      119.8 secs

     Self-consistent Calculation

     iteration #  1     ecut=    50.00 Ry     beta=0.70
     Davidson diagonalization with overlap
     ethr =  1.00E-02,  avg # of iterations =  3.0

     Threshold (ethr) on eigenvalues was too large:
     Diagonalizing with lowered threshold

     Davidson diagonalization with overlap
     ethr =  4.15E-04,  avg # of iterations =  2.0

     negative rho (up, down):  1.947E+00 0.000E+00

     total cpu time spent up to now is      531.7 secs

     total energy              =   -7423.06466172 Ry
     Harris-Foulkes estimate   =   -7426.05459290 Ry
     estimated scf accuracy    <       3.69429506 Ry

     iteration #  2     ecut=    50.00 Ry     beta=0.70
     Davidson diagonalization with overlap
     ethr =  4.62E-04,  avg # of iterations = 11.3

     negative rho (up, down):  1.943E+00 0.000E+00

     total cpu time spent up to now is     1286.8 secs

     total energy              =   -7415.44875336 Ry
     Harris-Foulkes estimate   =   -7432.45898945 Ry
     estimated scf accuracy    <      87.86629802 Ry

     iteration #  3     ecut=    50.00 Ry     beta=0.70
     Davidson diagonalization with overlap
     ethr =  4.62E-04,  avg # of iterations =  6.0

     negative rho (up, down):  1.953E+00 0.000E+00

     total cpu time spent up to now is     1750.1 secs

     total energy              =   -7424.34449265 Ry
     Harris-Foulkes estimate   =   -7425.83282243 Ry
     estimated scf accuracy    <       5.78696144 Ry

     iteration #  4     ecut=    50.00 Ry     beta=0.70
     Davidson diagonalization with overlap
     ethr =  4.62E-04,  avg # of iterations =  5.0

     negative rho (up, down):  1.958E+00 0.000E+00

     total cpu time spent up to now is     2003.4 secs

     total energy              =   -7425.02033633 Ry
     Harris-Foulkes estimate   =   -7425.52256179 Ry
     estimated scf accuracy    <       2.21452644 Ry

     iteration #  5     ecut=    50.00 Ry     beta=0.70
     Davidson diagonalization with overlap
     ethr =  2.77E-04,  avg # of iterations =  6.0

     negative rho (up, down):  1.964E+00 0.000E+00

     total cpu time spent up to now is     2264.7 secs

     total energy              =   -7425.07416586 Ry
     Harris-Foulkes estimate   =   -7425.53234116 Ry
     estimated scf accuracy    <       3.59493137 Ry

     iteration #  6     ecut=    50.00 Ry     beta=0.70
     Davidson diagonalization with overlap
     ethr =  2.77E-04,  avg # of iterations =  3.0

     negative rho (up, down):  1.967E+00 0.000E+00

     total cpu time spent up to now is     2481.8 secs

     total energy              =   -7425.26643208 Ry
     Harris-Foulkes estimate   =   -7425.32159087 Ry
     estimated scf accuracy    <       0.21237207 Ry

     iteration #  7     ecut=    50.00 Ry     beta=0.70
     Davidson diagonalization with overlap
     ethr =  2.65E-05,  avg # of iterations =  5.8

     negative rho (up, down):  1.970E+00 0.000E+00

     total cpu time spent up to now is     2757.3 secs

     total energy              =   -7425.27328017 Ry
     Harris-Foulkes estimate   =   -7425.31328850 Ry
     estimated scf accuracy    <       0.20034943 Ry

     iteration #  8     ecut=    50.00 Ry     beta=0.70
     Davidson diagonalization with overlap
     ethr =  2.50E-05,  avg # of iterations =  3.0

     negative rho (up, down):  1.971E+00 0.000E+00

     total cpu time spent up to now is     2976.5 secs

     total energy              =   -7425.28046401 Ry
     Harris-Foulkes estimate   =   -7425.29868439 Ry
     estimated scf accuracy    <       0.07285449 Ry

     iteration #  9     ecut=    50.00 Ry     beta=0.70
     Davidson diagonalization with overlap
     ethr =  9.11E-06,  avg # of iterations = 12.8

     negative rho (up, down):  1.972E+00 0.000E+00

     total cpu time spent up to now is     3338.7 secs

     total energy              =   -7425.28329024 Ry
     Harris-Foulkes estimate   =   -7425.29157320 Ry
     estimated scf accuracy    <       0.02648680 Ry

     iteration # 10     ecut=    50.00 Ry     beta=0.70
     Davidson diagonalization with overlap
     ethr =  3.31E-06,  avg # of iterations =  4.5

     negative rho (up, down):  1.973E+00 0.000E+00

     total cpu time spent up to now is     3598.9 secs

     total energy              =   -7425.28550045 Ry
     Harris-Foulkes estimate   =   -7425.28766896 Ry
     estimated scf accuracy    <       0.00555960 Ry

     iteration # 11     ecut=    50.00 Ry     beta=0.70
     Davidson diagonalization with overlap
     ethr =  6.95E-07,  avg # of iterations =  7.3

     negative rho (up, down):  1.974E+00 0.000E+00

     total cpu time spent up to now is     3881.4 secs

     total energy              =   -7425.28615625 Ry
     Harris-Foulkes estimate   =   -7425.28697090 Ry
     estimated scf accuracy    <       0.00235241 Ry

     iteration # 12     ecut=    50.00 Ry     beta=0.70
     Davidson diagonalization with overlap
     ethr =  2.94E-07,  avg # of iterations =  2.0

     negative rho (up, down):  1.974E+00 0.000E+00

     total cpu time spent up to now is     4090.2 secs

     total energy              =   -7425.28608037 Ry
     Harris-Foulkes estimate   =   -7425.28679882 Ry
     estimated scf accuracy    <       0.00238017 Ry

     iteration # 13     ecut=    50.00 Ry     beta=0.70
     Davidson diagonalization with overlap
     ethr =  2.94E-07,  avg # of iterations =  5.0

     negative rho (up, down):  1.974E+00 0.000E+00

     total cpu time spent up to now is     4374.9 secs

     total energy              =   -7425.28574252 Ry
     Harris-Foulkes estimate   =   -7425.28739049 Ry
     estimated scf accuracy    <       0.00866891 Ry

     iteration # 14     ecut=    50.00 Ry     beta=0.70
     Davidson diagonalization with overlap
     ethr =  2.94E-07,  avg # of iterations =  3.0

     negative rho (up, down):  1.974E+00 0.000E+00

     total cpu time spent up to now is     4625.1 secs

     total energy              =   -7425.28651835 Ry
     Harris-Foulkes estimate   =   -7425.28654975 Ry
     estimated scf accuracy    <       0.00007314 Ry

     iteration # 15     ecut=    50.00 Ry     beta=0.70
     Davidson diagonalization with overlap
     ethr =  9.14E-09,  avg # of iterations =  3.0

     negative rho (up, down):  1.974E+00 0.000E+00

     total cpu time spent up to now is     4929.1 secs

     total energy              =   -7425.28647169 Ry
     Harris-Foulkes estimate   =   -7425.28660625 Ry
     estimated scf accuracy    <       0.00096476 Ry

     iteration # 16     ecut=    50.00 Ry     beta=0.70
     Davidson diagonalization with overlap
     ethr =  9.14E-09,  avg # of iterations =  2.0

     negative rho (up, down):  1.974E+00 0.000E+00

     total cpu time spent up to now is     5156.9 secs

     total energy              =   -7425.28653068 Ry
     Harris-Foulkes estimate   =   -7425.28655813 Ry
     estimated scf accuracy    <       0.00015339 Ry

     iteration # 17     ecut=    50.00 Ry     beta=0.70
     Davidson diagonalization with overlap
     ethr =  9.14E-09,  avg # of iterations =  2.0

     negative rho (up, down):  1.974E+00 0.000E+00

     total cpu time spent up to now is     5363.8 secs

     total energy              =   -7425.28654252 Ry
     Harris-Foulkes estimate   =   -7425.28654776 Ry
     estimated scf accuracy    <       0.00002148 Ry

     iteration # 18     ecut=    50.00 Ry     beta=0.70
     Davidson diagonalization with overlap
     ethr =  2.69E-09,  avg # of iterations =  2.0

     negative rho (up, down):  1.974E+00 0.000E+00

     total cpu time spent up to now is     5561.7 secs

     total energy              =   -7425.28654456 Ry
     Harris-Foulkes estimate   =   -7425.28654598 Ry
     estimated scf accuracy    <       0.00000493 Ry

     iteration # 19     ecut=    50.00 Ry     beta=0.70
     Davidson diagonalization with overlap
     ethr =  6.16E-10,  avg # of iterations =  2.0

     negative rho (up, down):  1.974E+00 0.000E+00

     total cpu time spent up to now is     5780.3 secs

     total energy              =   -7425.28654504 Ry
     Harris-Foulkes estimate   =   -7425.28654571 Ry
     estimated scf accuracy    <       0.00000258 Ry

     iteration # 20     ecut=    50.00 Ry     beta=0.70
     Davidson diagonalization with overlap
     ethr =  3.23E-10,  avg # of iterations =  3.0

     negative rho (up, down):  1.974E+00 0.000E+00

     total cpu time spent up to now is     5991.9 secs

     total energy              =   -7425.28654525 Ry
     Harris-Foulkes estimate   =   -7425.28654553 Ry
     estimated scf accuracy    <       0.00000087 Ry

     iteration # 21     ecut=    50.00 Ry     beta=0.70
     Davidson diagonalization with overlap
     ethr =  1.08E-10,  avg # of iterations =  2.0

     negative rho (up, down):  1.974E+00 0.000E+00

     total cpu time spent up to now is     6195.8 secs

     total energy              =   -7425.28654533 Ry
     Harris-Foulkes estimate   =   -7425.28654546 Ry
     estimated scf accuracy    <       0.00000043 Ry

     iteration # 22     ecut=    50.00 Ry     beta=0.70
     Davidson diagonalization with overlap
     ethr =  5.38E-11,  avg # of iterations =  2.0

     negative rho (up, down):  1.974E+00 0.000E+00

     total cpu time spent up to now is     6400.7 secs

     total energy              =   -7425.28654536 Ry
     Harris-Foulkes estimate   =   -7425.28654542 Ry
     estimated scf accuracy    <       0.00000014 Ry

     iteration # 23     ecut=    50.00 Ry     beta=0.70
     Davidson diagonalization with overlap
     ethr =  1.75E-11,  avg # of iterations =  2.0

     negative rho (up, down):  1.974E+00 0.000E+00

     total cpu time spent up to now is     6602.3 secs

     total energy              =   -7425.28654537 Ry
     Harris-Foulkes estimate   =   -7425.28654540 Ry
     estimated scf accuracy    <       0.00000012 Ry

     iteration # 24     ecut=    50.00 Ry     beta=0.70
     Davidson diagonalization with overlap
     ethr =  1.52E-11,  avg # of iterations =  2.0

     negative rho (up, down):  1.974E+00 0.000E+00

     total cpu time spent up to now is     6808.4 secs

     total energy              =   -7425.28654538 Ry
     Harris-Foulkes estimate   =   -7425.28654539 Ry
     estimated scf accuracy    <       0.00000005 Ry

     iteration # 25     ecut=    50.00 Ry     beta=0.70
     Davidson diagonalization with overlap
     ethr =  6.63E-12,  avg # of iterations =  2.0

     negative rho (up, down):  1.974E+00 0.000E+00

     total cpu time spent up to now is     7029.4 secs

     total energy              =   -7425.28654538 Ry
     Harris-Foulkes estimate   =   -7425.28654539 Ry
     estimated scf accuracy    <       0.00000004 Ry

     iteration # 26     ecut=    50.00 Ry     beta=0.70
     Davidson diagonalization with overlap
     ethr =  5.27E-12,  avg # of iterations =  2.0

     negative rho (up, down):  1.974E+00 0.000E+00

     total cpu time spent up to now is     7234.0 secs

     total energy              =   -7425.28654538 Ry
     Harris-Foulkes estimate   =   -7425.28654538 Ry
     estimated scf accuracy    <       0.00000003 Ry

     iteration # 27     ecut=    50.00 Ry     beta=0.70
     Davidson diagonalization with overlap
     ethr =  3.84E-12,  avg # of iterations =  1.0

     negative rho (up, down):  1.974E+00 0.000E+00

     total cpu time spent up to now is     7427.1 secs

     End of self-consistent calculation

          k = 0.2500 0.2500 0.0833 (167653 PWs)   bands (ev):

   -19.5193  -7.4958  -6.8122  -6.2879  -6.2842  -5.8576  -5.4465  -5.3570
    -5.3542  -5.1602  -5.1595  -5.0441  -5.0383  -4.9630  -4.9410  -4.8681
    -4.7824  -4.7790  -4.7422  -4.7393  -4.5793  -4.5625  -4.5619  -4.5597
    -4.5535  -4.4989  -4.4983  -4.4884  -4.4853  -4.4491  -4.4406  -4.4355
    -4.3949  -4.3940  -4.3616  -4.3600  -4.3107  -4.3063  -4.2977  -4.2958
    -4.2904  -4.2780  -4.2771  -4.2388  -4.2195  -4.2174  -4.2109  -4.2098
    -4.1813  -4.1394  -4.1215  -4.1144  -4.1123  -4.1081  -4.1021  -4.0971
    -4.0962  -4.0951  -4.0355  -4.0292  -3.9931  -3.9800  -3.9702  -3.9481
    -3.9413  -3.9318  -3.9196  -3.9190  -3.9151  -3.9128  -3.8658  -3.8627
    -3.8518  -3.8491  -3.7795  -3.7450  -3.7418  -3.7375  -3.7131  -3.7000
    -3.6902  -3.6762  -3.6482  -3.6413  -3.6187  -3.6164  -3.5981  -3.5944
    -3.5863  -3.5826  -3.5286  -3.5273  -3.5088  -3.4930  -3.4843  -3.4816
    -3.4806  -3.4741  -3.4542  -3.4491  -3.4172  -3.4149  -3.3970  -3.3926
    -3.3628  -3.3596  -3.3454  -3.3157  -3.3141  -3.2801  -3.2773  -3.2421
    -3.2338  -3.2334  -3.2200  -3.2187  -3.2146  -3.2134  -3.1803  -3.1652
    -3.1271  -3.1256  -3.1170  -3.1097  -3.1066  -3.1052  -3.0830  -3.0822
    -3.0633  -3.0614  -3.0584  -3.0335  -3.0323  -3.0253  -3.0226  -3.0210
    -2.9857  -2.9845  -2.9494  -2.9462  -2.9455  -2.9434  -2.9419  -2.8623
    -2.8545  -2.8528  -2.8497  -2.8474  -2.8467  -2.8443  -2.8422  -2.8413
    -2.8404  -2.8315  -2.8237  -2.8093  -2.8047  -2.8038  -2.8023  -2.7895
    -2.7849  -2.7484  -2.7467  -2.7455  -2.7427  -2.7389  -2.7237  -2.7218
    -2.7149  -2.7139  -2.7107  -2.6537  -2.6525  -2.6471  -2.6460  -2.6425
    -2.6411  -2.6146  -2.5549  -2.5546  -2.5534  -2.5499  -2.5394  -2.5382
    -2.5341  -2.5239  -2.5211  -2.4938  -2.4844  -2.4791  -2.4782  -2.4745
    -2.4740  -2.4387  -2.4363  -2.4285  -2.4249  -2.4241  -2.4224  -2.3806
    -2.3674  -2.3604  -2.3081  -2.3057  -2.2965  -2.2875  -2.2813  -2.2787
    -2.2354  -2.2301  -2.2097  -2.1957  -2.1821  -2.1792  -2.1755  -2.1568
    -2.1541  -2.1468  -2.1308  -2.1044  -2.0898  -2.0771  -2.0727  -2.0715
    -2.0653  -2.0624  -2.0595  -2.0488  -2.0456  -2.0424  -2.0391  -2.0356
    -2.0350  -2.0276  -2.0237  -2.0114  -2.0053  -2.0050  -1.9988  -1.9961
    -1.9934  -1.9746  -1.9707  -1.9638  -1.9591  -1.9543  -1.9507  -1.9145
    -1.8857  -1.8810  -1.8475  -1.8432  -1.8291  -1.8265  -1.8163  -1.8072
    -1.7932  -1.7855  -1.7797  -1.7782  -1.7767  -1.7748  -1.7726  -1.7441
    -1.7408  -1.7395  -1.7200  -1.6953  -1.6785  -1.6582  -1.6487  -1.6080
    -1.6064  -1.5936  -1.5725  -1.5692  -1.5641  -1.5469  -1.5424  -1.5318
    -1.5273  -1.5258  -1.5235  -1.5221  -1.5200  -1.5185  -1.5015  -1.4989
    -1.4960  -1.4811  -1.4715  -1.4544  -1.4485  -1.4270  -1.4245  -1.4233
    -1.4199  -1.4160  -1.4059  -1.3961  -1.3900  -1.3776  -1.3686  -1.3625
    -1.3574  -1.3438  -1.3363  -1.3133  -1.3100  -1.3043  -1.3015  -1.2690
    -1.2637  -1.2592  -1.2564  -1.2509  -1.2414  -1.2300  -1.2270  -1.2182
    -1.2114  -1.2069  -1.2001  -1.1954  -1.1945  -1.1865  -1.1825  -1.1701
    -1.1661  -1.1623  -1.1611  -1.1487  -1.1447  -1.1401  -1.1330  -1.0996
    -1.0965  -1.0928  -1.0898  -1.0887  -1.0850  -1.0525  -1.0352  -1.0321
    -1.0312  -1.0302  -1.0254  -1.0231  -1.0187  -1.0076  -0.9988  -0.9726
    -0.9665  -0.9638  -0.9628  -0.9422  -0.9410  -0.9313  -0.9031  -0.8935
    -0.8696  -0.8651  -0.8392  -0.8382  -0.8347  -0.8340  -0.8321  -0.8271
    -0.8247  -0.8238  -0.8201  -0.8182  -0.7884  -0.7865  -0.7681  -0.7661
    -0.7637  -0.7621  -0.7590  -0.7500  -0.7424  -0.4719  -0.4556  -0.3982
    -0.3913  -0.3612  -0.2014  -0.1375  -0.1343  -0.0962   0.1836   0.1876
     0.5126   0.5233   0.6111   0.6141   0.6513   0.6571   0.7985   0.8068
     0.9202   0.9240   1.0179   1.6099   1.6257   1.6274   1.6626   1.6718
     1.7141   1.7322   1.7947   1.8034   2.0000   2.0061   2.2445   2.3139
     2.3283   2.3355   2.7115   2.7294   2.7858   2.7899   2.7958   2.7995
     2.9463   2.9489   3.0028   3.0904   3.1062   3.3218   3.3323   3.4562
     3.4798   3.4894   3.7527   3.7640   3.8724   3.8876   3.8905   3.9566
     3.9875   4.0693   4.0786   4.3058   4.3133   4.4013   4.4076   4.5165
     4.5285   4.5483   4.5664   4.7120   5.1417   5.3518   5.3728   5.4542
     5.4632   5.5342   5.6291   5.6432   5.6656   5.7089   5.7420   5.7534
     5.7590   5.7977   5.8082   5.8476   6.0186   6.0945   6.1173   6.1238
     6.1299   6.1387   6.1421   6.1521   6.1591   6.1621   6.1931   6.2311

          k = 0.2500 0.2500-0.2500 (167588 PWs)   bands (ev):

   -19.5193  -7.4958  -6.8122  -6.2879  -6.2842  -5.8576  -5.4465  -5.3570
    -5.3542  -5.1602  -5.1595  -5.0441  -5.0383  -4.9630  -4.9410  -4.8681
    -4.7824  -4.7790  -4.7422  -4.7393  -4.5793  -4.5625  -4.5619  -4.5597
    -4.5535  -4.4989  -4.4983  -4.4884  -4.4853  -4.4491  -4.4406  -4.4355
    -4.3949  -4.3940  -4.3616  -4.3600  -4.3107  -4.3063  -4.2977  -4.2958
    -4.2904  -4.2780  -4.2771  -4.2388  -4.2195  -4.2174  -4.2109  -4.2098
    -4.1813  -4.1394  -4.1215  -4.1144  -4.1123  -4.1081  -4.1021  -4.0971
    -4.0962  -4.0951  -4.0355  -4.0292  -3.9931  -3.9800  -3.9702  -3.9481
    -3.9413  -3.9318  -3.9196  -3.9190  -3.9151  -3.9128  -3.8658  -3.8627
    -3.8518  -3.8490  -3.7795  -3.7450  -3.7418  -3.7375  -3.7131  -3.7000
    -3.6902  -3.6762  -3.6482  -3.6413  -3.6187  -3.6164  -3.5981  -3.5944
    -3.5863  -3.5826  -3.5286  -3.5273  -3.5088  -3.4930  -3.4843  -3.4816
    -3.4806  -3.4741  -3.4542  -3.4491  -3.4172  -3.4149  -3.3970  -3.3926
    -3.3628  -3.3596  -3.3455  -3.3157  -3.3141  -3.2801  -3.2773  -3.2421
    -3.2338  -3.2334  -3.2199  -3.2187  -3.2146  -3.2134  -3.1803  -3.1652
    -3.1271  -3.1256  -3.1170  -3.1097  -3.1066  -3.1052  -3.0830  -3.0822
    -3.0633  -3.0614  -3.0584  -3.0335  -3.0322  -3.0253  -3.0226  -3.0210
    -2.9857  -2.9845  -2.9494  -2.9462  -2.9455  -2.9434  -2.9419  -2.8623
    -2.8545  -2.8528  -2.8498  -2.8474  -2.8467  -2.8443  -2.8422  -2.8413
    -2.8404  -2.8315  -2.8237  -2.8093  -2.8047  -2.8038  -2.8023  -2.7895
    -2.7849  -2.7484  -2.7467  -2.7455  -2.7427  -2.7389  -2.7237  -2.7218
    -2.7149  -2.7139  -2.7107  -2.6537  -2.6525  -2.6471  -2.6460  -2.6425
    -2.6411  -2.6146  -2.5549  -2.5546  -2.5534  -2.5499  -2.5394  -2.5382
    -2.5341  -2.5239  -2.5211  -2.4938  -2.4844  -2.4791  -2.4782  -2.4745
    -2.4740  -2.4387  -2.4363  -2.4285  -2.4249  -2.4241  -2.4225  -2.3806
    -2.3673  -2.3604  -2.3081  -2.3057  -2.2965  -2.2875  -2.2813  -2.2787
    -2.2354  -2.2301  -2.2097  -2.1957  -2.1821  -2.1792  -2.1755  -2.1568
    -2.1541  -2.1468  -2.1308  -2.1044  -2.0898  -2.0771  -2.0727  -2.0715
    -2.0653  -2.0624  -2.0595  -2.0488  -2.0456  -2.0425  -2.0391  -2.0356
    -2.0350  -2.0276  -2.0237  -2.0114  -2.0053  -2.0050  -1.9988  -1.9961
    -1.9934  -1.9746  -1.9707  -1.9638  -1.9591  -1.9543  -1.9507  -1.9145
    -1.8857  -1.8809  -1.8475  -1.8432  -1.8291  -1.8265  -1.8163  -1.8071
    -1.7932  -1.7855  -1.7797  -1.7782  -1.7767  -1.7748  -1.7726  -1.7441
    -1.7408  -1.7395  -1.7200  -1.6953  -1.6785  -1.6582  -1.6487  -1.6080
    -1.6064  -1.5936  -1.5725  -1.5692  -1.5641  -1.5469  -1.5424  -1.5318
    -1.5273  -1.5258  -1.5235  -1.5221  -1.5200  -1.5185  -1.5015  -1.4989
    -1.4960  -1.4811  -1.4715  -1.4544  -1.4485  -1.4270  -1.4245  -1.4233
    -1.4199  -1.4160  -1.4059  -1.3961  -1.3900  -1.3776  -1.3686  -1.3625
    -1.3574  -1.3438  -1.3363  -1.3133  -1.3100  -1.3043  -1.3015  -1.2690
    -1.2637  -1.2592  -1.2564  -1.2509  -1.2414  -1.2300  -1.2270  -1.2182
    -1.2114  -1.2069  -1.2001  -1.1954  -1.1945  -1.1865  -1.1825  -1.1701
    -1.1661  -1.1623  -1.1611  -1.1487  -1.1447  -1.1401  -1.1329  -1.0996
    -1.0965  -1.0928  -1.0898  -1.0887  -1.0850  -1.0525  -1.0351  -1.0321
    -1.0311  -1.0302  -1.0254  -1.0231  -1.0187  -1.0076  -0.9988  -0.9726
    -0.9665  -0.9638  -0.9628  -0.9422  -0.9410  -0.9313  -0.9032  -0.8935
    -0.8696  -0.8651  -0.8392  -0.8382  -0.8347  -0.8340  -0.8321  -0.8271
    -0.8247  -0.8238  -0.8201  -0.8182  -0.7884  -0.7865  -0.7681  -0.7661
    -0.7637  -0.7621  -0.7590  -0.7500  -0.7424  -0.4719  -0.4556  -0.3982
    -0.3913  -0.3612  -0.2014  -0.1375  -0.1343  -0.0962   0.1836   0.1876
     0.5126   0.5233   0.6111   0.6141   0.6513   0.6571   0.7985   0.8068
     0.9202   0.9240   1.0179   1.6099   1.6257   1.6274   1.6626   1.6718
     1.7141   1.7322   1.7947   1.8034   2.0000   2.0061   2.2445   2.3139
     2.3283   2.3355   2.7115   2.7294   2.7858   2.7899   2.7958   2.7995
     2.9463   2.9489   3.0028   3.0904   3.1062   3.3218   3.3323   3.4562
     3.4798   3.4894   3.7527   3.7640   3.8724   3.8876   3.8905   3.9567
     3.9875   4.0693   4.0786   4.3058   4.3133   4.4013   4.4076   4.5165
     4.5285   4.5483   4.5664   4.7122   5.1327   5.3488   5.3697   5.4538
     5.4632   5.5312   5.6293   5.6437   5.6897   5.7210   5.7470   5.7545
     5.7652   5.7980   5.8084   5.8483   6.0469   6.0791   6.1052   6.1236
     6.1322   6.1397   6.1459   6.1566   6.1592   6.1713   6.2137   6.2426

          k =-0.2500-0.2500 0.0833 (167653 PWs)   bands (ev):

   -19.5193  -7.4958  -6.8122  -6.2879  -6.2842  -5.8576  -5.4465  -5.3570
    -5.3542  -5.1602  -5.1595  -5.0441  -5.0383  -4.9630  -4.9410  -4.8681
    -4.7824  -4.7790  -4.7422  -4.7393  -4.5793  -4.5625  -4.5619  -4.5597
    -4.5535  -4.4989  -4.4983  -4.4884  -4.4853  -4.4491  -4.4406  -4.4355
    -4.3949  -4.3940  -4.3616  -4.3600  -4.3107  -4.3063  -4.2977  -4.2958
    -4.2904  -4.2780  -4.2771  -4.2388  -4.2195  -4.2174  -4.2109  -4.2098
    -4.1813  -4.1394  -4.1215  -4.1144  -4.1123  -4.1081  -4.1021  -4.0971
    -4.0962  -4.0951  -4.0355  -4.0292  -3.9931  -3.9800  -3.9702  -3.9481
    -3.9413  -3.9318  -3.9196  -3.9190  -3.9151  -3.9128  -3.8658  -3.8627
    -3.8518  -3.8491  -3.7795  -3.7450  -3.7418  -3.7375  -3.7131  -3.7000
    -3.6902  -3.6762  -3.6482  -3.6413  -3.6187  -3.6164  -3.5981  -3.5944
    -3.5863  -3.5826  -3.5286  -3.5273  -3.5088  -3.4930  -3.4843  -3.4816
    -3.4806  -3.4741  -3.4542  -3.4491  -3.4172  -3.4149  -3.3970  -3.3926
    -3.3628  -3.3596  -3.3454  -3.3157  -3.3141  -3.2801  -3.2773  -3.2421
    -3.2338  -3.2334  -3.2200  -3.2187  -3.2146  -3.2134  -3.1803  -3.1652
    -3.1271  -3.1256  -3.1170  -3.1097  -3.1066  -3.1052  -3.0830  -3.0822
    -3.0633  -3.0614  -3.0584  -3.0335  -3.0323  -3.0253  -3.0226  -3.0210
    -2.9857  -2.9845  -2.9494  -2.9462  -2.9455  -2.9434  -2.9419  -2.8623
    -2.8545  -2.8528  -2.8497  -2.8474  -2.8467  -2.8443  -2.8422  -2.8413
    -2.8404  -2.8315  -2.8237  -2.8093  -2.8047  -2.8038  -2.8023  -2.7895
    -2.7849  -2.7484  -2.7467  -2.7455  -2.7427  -2.7389  -2.7237  -2.7218
    -2.7149  -2.7139  -2.7107  -2.6537  -2.6525  -2.6471  -2.6460  -2.6425
    -2.6411  -2.6146  -2.5549  -2.5546  -2.5534  -2.5499  -2.5394  -2.5382
    -2.5341  -2.5239  -2.5211  -2.4938  -2.4844  -2.4791  -2.4782  -2.4745
    -2.4740  -2.4387  -2.4363  -2.4285  -2.4249  -2.4241  -2.4224  -2.3806
    -2.3674  -2.3604  -2.3081  -2.3057  -2.2965  -2.2875  -2.2813  -2.2787
    -2.2354  -2.2301  -2.2097  -2.1957  -2.1821  -2.1792  -2.1755  -2.1568
    -2.1541  -2.1468  -2.1308  -2.1044  -2.0898  -2.0771  -2.0727  -2.0715
    -2.0653  -2.0624  -2.0595  -2.0488  -2.0456  -2.0424  -2.0391  -2.0356
    -2.0350  -2.0276  -2.0237  -2.0114  -2.0053  -2.0050  -1.9988  -1.9961
    -1.9934  -1.9746  -1.9707  -1.9638  -1.9591  -1.9543  -1.9507  -1.9145
    -1.8857  -1.8810  -1.8475  -1.8432  -1.8291  -1.8265  -1.8163  -1.8072
    -1.7932  -1.7855  -1.7797  -1.7782  -1.7767  -1.7748  -1.7726  -1.7441
    -1.7408  -1.7395  -1.7200  -1.6953  -1.6785  -1.6582  -1.6487  -1.6080
    -1.6064  -1.5936  -1.5725  -1.5692  -1.5641  -1.5469  -1.5424  -1.5318
    -1.5273  -1.5258  -1.5235  -1.5221  -1.5200  -1.5185  -1.5015  -1.4989
    -1.4960  -1.4811  -1.4715  -1.4544  -1.4485  -1.4270  -1.4245  -1.4233
    -1.4199  -1.4160  -1.4059  -1.3961  -1.3900  -1.3776  -1.3686  -1.3625
    -1.3574  -1.3438  -1.3363  -1.3133  -1.3100  -1.3043  -1.3015  -1.2690
    -1.2637  -1.2592  -1.2564  -1.2509  -1.2414  -1.2300  -1.2270  -1.2182
    -1.2114  -1.2069  -1.2001  -1.1954  -1.1945  -1.1865  -1.1825  -1.1701
    -1.1661  -1.1623  -1.1611  -1.1487  -1.1447  -1.1401  -1.1330  -1.0996
    -1.0965  -1.0928  -1.0898  -1.0887  -1.0850  -1.0525  -1.0352  -1.0321
    -1.0312  -1.0302  -1.0254  -1.0231  -1.0187  -1.0076  -0.9988  -0.9726
    -0.9665  -0.9638  -0.9628  -0.9422  -0.9410  -0.9313  -0.9031  -0.8935
    -0.8696  -0.8651  -0.8392  -0.8382  -0.8347  -0.8340  -0.8321  -0.8271
    -0.8247  -0.8238  -0.8201  -0.8182  -0.7884  -0.7865  -0.7681  -0.7661
    -0.7637  -0.7621  -0.7590  -0.7500  -0.7424  -0.4719  -0.4556  -0.3982
    -0.3913  -0.3612  -0.2014  -0.1375  -0.1343  -0.0962   0.1836   0.1876
     0.5126   0.5233   0.6111   0.6141   0.6513   0.6571   0.7985   0.8068
     0.9202   0.9240   1.0179   1.6099   1.6257   1.6274   1.6626   1.6718
     1.7141   1.7322   1.7947   1.8034   2.0000   2.0061   2.2445   2.3139
     2.3283   2.3355   2.7115   2.7294   2.7858   2.7899   2.7958   2.7995
     2.9463   2.9489   3.0028   3.0904   3.1062   3.3218   3.3323   3.4562
     3.4798   3.4894   3.7527   3.7640   3.8724   3.8876   3.8905   3.9566
     3.9875   4.0693   4.0786   4.3058   4.3133   4.4013   4.4076   4.5165
     4.5285   4.5483   4.5664   4.7120   5.1414   5.3519   5.3739   5.4541
     5.4632   5.5302   5.6289   5.6434   5.6699   5.7101   5.7419   5.7535
     5.7591   5.7977   5.8082   5.8475   6.0203   6.0952   6.1142   6.1239
     6.1322   6.1368   6.1421   6.1519   6.1591   6.1621   6.1851   6.2264

          k =-0.2500 0.2500-0.0833 (167653 PWs)   bands (ev):

   -19.5193  -7.4958  -6.8122  -6.2879  -6.2842  -5.8576  -5.4465  -5.3573
    -5.3539  -5.1603  -5.1594  -5.0443  -5.0383  -4.9630  -4.9409  -4.8680
    -4.7824  -4.7791  -4.7424  -4.7393  -4.5792  -4.5628  -4.5620  -4.5594
    -4.5535  -4.4989  -4.4984  -4.4886  -4.4850  -4.4491  -4.4408  -4.4351
    -4.3949  -4.3940  -4.3617  -4.3599  -4.3113  -4.3059  -4.2976  -4.2959
    -4.2904  -4.2779  -4.2771  -4.2383  -4.2196  -4.2173  -4.2110  -4.2096
    -4.1808  -4.1390  -4.1230  -4.1146  -4.1120  -4.1081  -4.1021  -4.0972
    -4.0963  -4.0950  -4.0364  -4.0289  -3.9920  -3.9799  -3.9699  -3.9495
    -3.9414  -3.9327  -3.9196  -3.9187  -3.9154  -3.9127  -3.8655  -3.8627
    -3.8519  -3.8488  -3.7784  -3.7451  -3.7418  -3.7373  -3.7132  -3.7000
    -3.6908  -3.6762  -3.6482  -3.6408  -3.6191  -3.6162  -3.5981  -3.5934
    -3.5867  -3.5823  -3.5287  -3.5272  -3.5095  -3.4930  -3.4844  -3.4819
    -3.4805  -3.4743  -3.4543  -3.4483  -3.4172  -3.4148  -3.3974  -3.3921
    -3.3631  -3.3594  -3.3455  -3.3158  -3.3142  -3.2803  -3.2770  -3.2421
    -3.2338  -3.2334  -3.2199  -3.2187  -3.2146  -3.2134  -3.1803  -3.1652
    -3.1272  -3.1257  -3.1169  -3.1097  -3.1065  -3.1052  -3.0828  -3.0821
    -3.0637  -3.0614  -3.0579  -3.0334  -3.0321  -3.0254  -3.0229  -3.0208
    -2.9857  -2.9847  -2.9494  -2.9463  -2.9453  -2.9436  -2.9419  -2.8623
    -2.8549  -2.8530  -2.8498  -2.8471  -2.8465  -2.8446  -2.8419  -2.8411
    -2.8404  -2.8315  -2.8237  -2.8092  -2.8047  -2.8037  -2.8023  -2.7895
    -2.7848  -2.7484  -2.7468  -2.7455  -2.7429  -2.7388  -2.7240  -2.7216
    -2.7149  -2.7138  -2.7107  -2.6535  -2.6526  -2.6470  -2.6464  -2.6425
    -2.6408  -2.6146  -2.5553  -2.5544  -2.5531  -2.5499  -2.5395  -2.5382
    -2.5340  -2.5240  -2.5210  -2.4933  -2.4842  -2.4796  -2.4788  -2.4740
    -2.4736  -2.4384  -2.4361  -2.4286  -2.4251  -2.4240  -2.4222  -2.3807
    -2.3675  -2.3605  -2.3086  -2.3054  -2.2961  -2.2876  -2.2812  -2.2787
    -2.2355  -2.2302  -2.2096  -2.1960  -2.1814  -2.1796  -2.1755  -2.1567
    -2.1542  -2.1467  -2.1311  -2.1053  -2.0894  -2.0764  -2.0734  -2.0715
    -2.0657  -2.0624  -2.0594  -2.0493  -2.0458  -2.0422  -2.0392  -2.0357
    -2.0346  -2.0277  -2.0234  -2.0110  -2.0058  -2.0049  -1.9988  -1.9962
    -1.9933  -1.9749  -1.9700  -1.9634  -1.9593  -1.9539  -1.9513  -1.9145
    -1.8863  -1.8801  -1.8500  -1.8453  -1.8298  -1.8262  -1.8156  -1.8064
    -1.7934  -1.7854  -1.7799  -1.7781  -1.7763  -1.7742  -1.7717  -1.7436
    -1.7410  -1.7395  -1.7182  -1.6953  -1.6788  -1.6586  -1.6479  -1.6080
    -1.6068  -1.5937  -1.5724  -1.5693  -1.5641  -1.5469  -1.5423  -1.5321
    -1.5273  -1.5260  -1.5235  -1.5220  -1.5198  -1.5187  -1.5031  -1.5001
    -1.4948  -1.4799  -1.4714  -1.4543  -1.4476  -1.4271  -1.4242  -1.4238
    -1.4203  -1.4163  -1.4066  -1.3960  -1.3879  -1.3780  -1.3665  -1.3648
    -1.3574  -1.3439  -1.3362  -1.3133  -1.3098  -1.3037  -1.3024  -1.2699
    -1.2630  -1.2592  -1.2560  -1.2509  -1.2417  -1.2304  -1.2268  -1.2181
    -1.2116  -1.2067  -1.2005  -1.1952  -1.1944  -1.1864  -1.1825  -1.1700
    -1.1656  -1.1619  -1.1611  -1.1487  -1.1452  -1.1404  -1.1331  -1.0994
    -1.0960  -1.0931  -1.0898  -1.0887  -1.0853  -1.0524  -1.0356  -1.0320
    -1.0310  -1.0299  -1.0250  -1.0234  -1.0192  -1.0076  -0.9984  -0.9729
    -0.9662  -0.9636  -0.9626  -0.9423  -0.9410  -0.9312  -0.9029  -0.8936
    -0.8698  -0.8649  -0.8393  -0.8384  -0.8347  -0.8339  -0.8322  -0.8273
    -0.8248  -0.8236  -0.8207  -0.8178  -0.7886  -0.7862  -0.7683  -0.7667
    -0.7636  -0.7619  -0.7596  -0.7492  -0.7419  -0.4720  -0.4556  -0.4000
    -0.3894  -0.3613  -0.2019  -0.1382  -0.1339  -0.0963   0.1830   0.1885
     0.5115   0.5241   0.6105   0.6146   0.6499   0.6578   0.7969   0.8085
     0.9202   0.9241   1.0181   1.6100   1.6257   1.6281   1.6632   1.6718
     1.7119   1.7336   1.7936   1.8050   1.9990   2.0069   2.2448   2.3126
     2.3294   2.3355   2.7102   2.7300   2.7856   2.7903   2.7955   2.8000
     2.9459   2.9493   3.0021   3.0886   3.1077   3.3217   3.3318   3.4562
     3.4790   3.4905   3.7514   3.7648   3.8741   3.8875   3.8912   3.9550
     3.9879   4.0675   4.0795   4.3049   4.3138   4.4015   4.4082   4.5181
     4.5287   4.5475   4.5674   4.7126   5.1416   5.3508   5.3746   5.4538
     5.4623   5.5313   5.6267   5.6441   5.6712   5.7108   5.7394   5.7538
     5.7591   5.7938   5.8090   5.8476   6.0194   6.0959   6.1161   6.1243
     6.1316   6.1350   6.1428   6.1516   6.1591   6.1624   6.1868   6.2247

          k = 0.2500-0.2500-0.0833 (167653 PWs)   bands (ev):

   -19.5193  -7.4958  -6.8122  -6.2879  -6.2842  -5.8576  -5.4465  -5.3573
    -5.3539  -5.1603  -5.1594  -5.0443  -5.0383  -4.9630  -4.9409  -4.8680
    -4.7824  -4.7791  -4.7424  -4.7393  -4.5792  -4.5628  -4.5620  -4.5594
    -4.5535  -4.4989  -4.4984  -4.4886  -4.4850  -4.4491  -4.4408  -4.4351
    -4.3949  -4.3940  -4.3617  -4.3599  -4.3113  -4.3059  -4.2976  -4.2959
    -4.2904  -4.2779  -4.2771  -4.2383  -4.2196  -4.2173  -4.2110  -4.2096
    -4.1808  -4.1390  -4.1230  -4.1146  -4.1120  -4.1081  -4.1021  -4.0972
    -4.0963  -4.0950  -4.0364  -4.0289  -3.9920  -3.9799  -3.9699  -3.9495
    -3.9414  -3.9327  -3.9196  -3.9187  -3.9154  -3.9127  -3.8655  -3.8627
    -3.8519  -3.8488  -3.7784  -3.7451  -3.7418  -3.7373  -3.7132  -3.7000
    -3.6908  -3.6762  -3.6482  -3.6408  -3.6191  -3.6162  -3.5981  -3.5934
    -3.5867  -3.5823  -3.5287  -3.5272  -3.5095  -3.4930  -3.4844  -3.4819
    -3.4805  -3.4743  -3.4543  -3.4483  -3.4172  -3.4148  -3.3974  -3.3921
    -3.3631  -3.3594  -3.3455  -3.3158  -3.3142  -3.2803  -3.2770  -3.2421
    -3.2338  -3.2334  -3.2199  -3.2187  -3.2146  -3.2134  -3.1803  -3.1652
    -3.1272  -3.1257  -3.1169  -3.1097  -3.1065  -3.1052  -3.0828  -3.0821
    -3.0637  -3.0614  -3.0579  -3.0334  -3.0321  -3.0254  -3.0229  -3.0208
    -2.9857  -2.9847  -2.9494  -2.9463  -2.9453  -2.9436  -2.9419  -2.8623
    -2.8549  -2.8530  -2.8498  -2.8471  -2.8465  -2.8446  -2.8419  -2.8411
    -2.8404  -2.8315  -2.8237  -2.8092  -2.8047  -2.8037  -2.8023  -2.7895
    -2.7848  -2.7484  -2.7468  -2.7455  -2.7429  -2.7388  -2.7240  -2.7216
    -2.7149  -2.7138  -2.7107  -2.6535  -2.6526  -2.6470  -2.6464  -2.6425
    -2.6408  -2.6146  -2.5553  -2.5544  -2.5531  -2.5499  -2.5395  -2.5382
    -2.5340  -2.5240  -2.5210  -2.4933  -2.4842  -2.4796  -2.4788  -2.4740
    -2.4736  -2.4384  -2.4361  -2.4286  -2.4251  -2.4240  -2.4222  -2.3807
    -2.3675  -2.3605  -2.3086  -2.3054  -2.2961  -2.2876  -2.2812  -2.2787
    -2.2355  -2.2302  -2.2096  -2.1960  -2.1814  -2.1796  -2.1755  -2.1567
    -2.1542  -2.1467  -2.1311  -2.1053  -2.0894  -2.0764  -2.0734  -2.0715
    -2.0657  -2.0624  -2.0594  -2.0493  -2.0458  -2.0422  -2.0392  -2.0357
    -2.0346  -2.0277  -2.0234  -2.0110  -2.0058  -2.0049  -1.9988  -1.9962
    -1.9933  -1.9749  -1.9700  -1.9634  -1.9593  -1.9539  -1.9513  -1.9145
    -1.8863  -1.8801  -1.8500  -1.8453  -1.8298  -1.8262  -1.8156  -1.8064
    -1.7934  -1.7854  -1.7799  -1.7781  -1.7763  -1.7742  -1.7717  -1.7436
    -1.7410  -1.7395  -1.7182  -1.6953  -1.6788  -1.6586  -1.6479  -1.6080
    -1.6068  -1.5937  -1.5724  -1.5693  -1.5641  -1.5469  -1.5423  -1.5321
    -1.5273  -1.5260  -1.5235  -1.5220  -1.5198  -1.5187  -1.5031  -1.5001
    -1.4948  -1.4799  -1.4714  -1.4543  -1.4476  -1.4271  -1.4242  -1.4238
    -1.4203  -1.4163  -1.4066  -1.3960  -1.3879  -1.3780  -1.3665  -1.3648
    -1.3574  -1.3439  -1.3362  -1.3133  -1.3098  -1.3037  -1.3024  -1.2699
    -1.2630  -1.2592  -1.2560  -1.2509  -1.2417  -1.2304  -1.2268  -1.2181
    -1.2116  -1.2067  -1.2005  -1.1952  -1.1944  -1.1864  -1.1825  -1.1700
    -1.1656  -1.1619  -1.1611  -1.1487  -1.1452  -1.1404  -1.1331  -1.0994
    -1.0960  -1.0931  -1.0898  -1.0887  -1.0853  -1.0524  -1.0356  -1.0320
    -1.0310  -1.0299  -1.0250  -1.0234  -1.0192  -1.0076  -0.9984  -0.9729
    -0.9662  -0.9636  -0.9626  -0.9423  -0.9410  -0.9312  -0.9029  -0.8936
    -0.8698  -0.8649  -0.8393  -0.8384  -0.8347  -0.8339  -0.8322  -0.8273
    -0.8248  -0.8236  -0.8207  -0.8178  -0.7886  -0.7862  -0.7683  -0.7667
    -0.7636  -0.7619  -0.7596  -0.7492  -0.7419  -0.4720  -0.4556  -0.4000
    -0.3894  -0.3613  -0.2019  -0.1382  -0.1339  -0.0963   0.1830   0.1885
     0.5115   0.5241   0.6105   0.6146   0.6499   0.6578   0.7969   0.8085
     0.9202   0.9241   1.0181   1.6100   1.6257   1.6281   1.6632   1.6718
     1.7119   1.7336   1.7936   1.8050   1.9990   2.0069   2.2448   2.3126
     2.3294   2.3355   2.7102   2.7300   2.7856   2.7903   2.7955   2.8000
     2.9459   2.9493   3.0021   3.0886   3.1077   3.3217   3.3318   3.4562
     3.4790   3.4905   3.7514   3.7648   3.8741   3.8875   3.8912   3.9550
     3.9879   4.0675   4.0795   4.3049   4.3138   4.4015   4.4082   4.5181
     4.5287   4.5475   4.5674   4.7126   5.1419   5.3507   5.3734   5.4539
     5.4623   5.5354   5.6269   5.6440   5.6670   5.7095   5.7394   5.7537
     5.7590   5.7938   5.8090   5.8477   6.0173   6.0951   6.1185   6.1239
     6.1305   6.1368   6.1432   6.1519   6.1591   6.1623   6.1952   6.2304

          k =-0.2500 0.2500 0.2500 (167588 PWs)   bands (ev):

   -19.5193  -7.4958  -6.8122  -6.2879  -6.2842  -5.8576  -5.4465  -5.3573
    -5.3539  -5.1603  -5.1594  -5.0443  -5.0383  -4.9630  -4.9409  -4.8680
    -4.7824  -4.7791  -4.7424  -4.7393  -4.5792  -4.5628  -4.5620  -4.5594
    -4.5535  -4.4989  -4.4984  -4.4886  -4.4850  -4.4491  -4.4408  -4.4351
    -4.3949  -4.3940  -4.3617  -4.3599  -4.3113  -4.3059  -4.2976  -4.2959
    -4.2904  -4.2779  -4.2771  -4.2383  -4.2196  -4.2173  -4.2110  -4.2096
    -4.1808  -4.1390  -4.1230  -4.1146  -4.1120  -4.1081  -4.1021  -4.0972
    -4.0963  -4.0950  -4.0364  -4.0289  -3.9920  -3.9799  -3.9699  -3.9495
    -3.9413  -3.9327  -3.9196  -3.9187  -3.9154  -3.9127  -3.8655  -3.8627
    -3.8519  -3.8488  -3.7784  -3.7451  -3.7418  -3.7373  -3.7132  -3.7000
    -3.6908  -3.6762  -3.6482  -3.6408  -3.6191  -3.6162  -3.5981  -3.5934
    -3.5867  -3.5823  -3.5287  -3.5272  -3.5096  -3.4930  -3.4844  -3.4819
    -3.4805  -3.4743  -3.4543  -3.4483  -3.4172  -3.4148  -3.3974  -3.3921
    -3.3631  -3.3593  -3.3455  -3.3158  -3.3142  -3.2803  -3.2770  -3.2421
    -3.2338  -3.2334  -3.2199  -3.2187  -3.2146  -3.2134  -3.1804  -3.1652
    -3.1272  -3.1257  -3.1169  -3.1097  -3.1065  -3.1052  -3.0828  -3.0821
    -3.0637  -3.0614  -3.0579  -3.0334  -3.0321  -3.0254  -3.0228  -3.0208
    -2.9857  -2.9847  -2.9494  -2.9463  -2.9453  -2.9436  -2.9419  -2.8623
    -2.8549  -2.8530  -2.8498  -2.8471  -2.8465  -2.8446  -2.8419  -2.8411
    -2.8404  -2.8315  -2.8237  -2.8092  -2.8047  -2.8037  -2.8023  -2.7895
    -2.7848  -2.7484  -2.7468  -2.7455  -2.7429  -2.7388  -2.7240  -2.7216
    -2.7149  -2.7138  -2.7107  -2.6535  -2.6526  -2.6470  -2.6464  -2.6425
    -2.6408  -2.6146  -2.5553  -2.5544  -2.5530  -2.5499  -2.5395  -2.5382
    -2.5340  -2.5240  -2.5210  -2.4932  -2.4842  -2.4796  -2.4788  -2.4740
    -2.4736  -2.4385  -2.4361  -2.4286  -2.4251  -2.4240  -2.4222  -2.3807
    -2.3675  -2.3605  -2.3086  -2.3054  -2.2961  -2.2876  -2.2812  -2.2787
    -2.2355  -2.2302  -2.2096  -2.1960  -2.1814  -2.1796  -2.1755  -2.1567
    -2.1542  -2.1467  -2.1311  -2.1053  -2.0894  -2.0764  -2.0734  -2.0715
    -2.0657  -2.0624  -2.0594  -2.0493  -2.0458  -2.0422  -2.0392  -2.0357
    -2.0346  -2.0277  -2.0234  -2.0110  -2.0058  -2.0049  -1.9988  -1.9962
    -1.9933  -1.9750  -1.9700  -1.9634  -1.9593  -1.9539  -1.9513  -1.9145
    -1.8863  -1.8801  -1.8500  -1.8453  -1.8298  -1.8262  -1.8156  -1.8064
    -1.7934  -1.7854  -1.7799  -1.7781  -1.7763  -1.7742  -1.7717  -1.7436
    -1.7410  -1.7395  -1.7182  -1.6953  -1.6788  -1.6586  -1.6479  -1.6080
    -1.6068  -1.5937  -1.5724  -1.5693  -1.5641  -1.5469  -1.5423  -1.5321
    -1.5273  -1.5260  -1.5235  -1.5220  -1.5198  -1.5187  -1.5031  -1.5001
    -1.4948  -1.4799  -1.4714  -1.4543  -1.4476  -1.4271  -1.4242  -1.4238
    -1.4203  -1.4163  -1.4066  -1.3960  -1.3879  -1.3780  -1.3665  -1.3648
    -1.3574  -1.3439  -1.3362  -1.3133  -1.3098  -1.3037  -1.3024  -1.2699
    -1.2630  -1.2592  -1.2560  -1.2509  -1.2417  -1.2304  -1.2268  -1.2181
    -1.2116  -1.2067  -1.2005  -1.1952  -1.1944  -1.1864  -1.1825  -1.1700
    -1.1656  -1.1619  -1.1611  -1.1487  -1.1452  -1.1404  -1.1331  -1.0994
    -1.0960  -1.0931  -1.0898  -1.0887  -1.0853  -1.0524  -1.0355  -1.0320
    -1.0310  -1.0299  -1.0250  -1.0234  -1.0192  -1.0076  -0.9984  -0.9729
    -0.9662  -0.9636  -0.9626  -0.9423  -0.9410  -0.9312  -0.9029  -0.8936
    -0.8698  -0.8649  -0.8393  -0.8384  -0.8347  -0.8339  -0.8322  -0.8273
    -0.8248  -0.8236  -0.8207  -0.8178  -0.7886  -0.7862  -0.7683  -0.7667
    -0.7636  -0.7619  -0.7596  -0.7492  -0.7418  -0.4720  -0.4556  -0.4000
    -0.3894  -0.3613  -0.2019  -0.1382  -0.1339  -0.0963   0.1830   0.1885
     0.5115   0.5241   0.6105   0.6146   0.6499   0.6578   0.7969   0.8085
     0.9202   0.9241   1.0181   1.6100   1.6257   1.6281   1.6632   1.6718
     1.7119   1.7336   1.7936   1.8051   1.9990   2.0069   2.2448   2.3126
     2.3294   2.3355   2.7102   2.7300   2.7856   2.7903   2.7955   2.8000
     2.9459   2.9493   3.0021   3.0887   3.1077   3.3217   3.3318   3.4562
     3.4790   3.4905   3.7514   3.7648   3.8741   3.8875   3.8912   3.9551
     3.9879   4.0676   4.0795   4.3049   4.3138   4.4015   4.4082   4.5181
     4.5287   4.5475   4.5674   4.7127   5.1328   5.3480   5.3700   5.4535
     5.4624   5.5330   5.6271   5.6443   5.6901   5.7183   5.7484   5.7542
     5.7662   5.7938   5.8093   5.8483   6.0461   6.0797   6.1053   6.1243
     6.1316   6.1398   6.1467   6.1571   6.1592   6.1717   6.2124   6.2427

     the Fermi energy is     0.8741 ev

!    total energy              =   -7425.28654537 Ry
     Harris-Foulkes estimate   =   -7425.28654538 Ry
     estimated scf accuracy    <          4.7E-09 Ry

     The total energy is the sum of the following terms:

     one-electron contribution =  -48890.24402960 Ry
     hartree contribution      =   24996.11889832 Ry
     xc contribution           =   -3604.26118022 Ry
     ewald contribution        =   20073.10230786 Ry
     smearing contrib. (-TS)   =      -0.00254172 Ry

     convergence has been achieved in  27 iterations

     Writing output data file 8581548.save

     init_run     :    113.25s CPU    119.04s WALL (       1 calls)
     electrons    :   6979.30s CPU   7307.84s WALL (       1 calls)

     Called by init_run:
     wfcinit      :     79.04s CPU     83.97s WALL (       1 calls)
     potinit      :      7.77s CPU      8.23s WALL (       1 calls)

     Called by electrons:
     c_bands      :   5445.60s CPU   5706.11s WALL (      28 calls)
     sum_band     :    965.39s CPU   1019.43s WALL (      28 calls)
     v_of_rho     :    106.79s CPU    116.48s WALL (      28 calls)
     newd         :    478.26s CPU    482.22s WALL (      28 calls)
     mix_rho      :      3.27s CPU      3.59s WALL (      28 calls)
     vdW_energy   :      9.88s CPU     10.66s WALL (      28 calls)
     vdW_ffts     :     52.73s CPU     57.41s WALL (      56 calls)
     vdW_v        :     13.98s CPU     14.71s WALL (      28 calls)

     Called by c_bands:
     init_us_2    :      9.89s CPU     10.22s WALL (     342 calls)
     cegterg      :   5389.83s CPU   5649.38s WALL (     168 calls)

     Called by *egterg:
     h_psi        :   2423.24s CPU   2642.86s WALL (     815 calls)
     s_psi        :    363.15s CPU    365.09s WALL (     815 calls)
     g_psi        :      4.53s CPU      4.56s WALL (     641 calls)
     cdiaghg      :   1538.07s CPU   1542.33s WALL (     803 calls)

     Called by h_psi:
     add_vuspsi   :    364.55s CPU    366.43s WALL (     815 calls)

     General routines
     calbec       :    517.30s CPU    519.04s WALL (     983 calls)
     fft          :    233.34s CPU    242.35s WALL (    1848 calls)
     ffts         :      1.75s CPU      1.96s WALL (      56 calls)
     fftw         :   1956.58s CPU   2200.73s WALL (  451422 calls)
     interpolate  :      4.49s CPU      5.12s WALL (      56 calls)
     davcio       :      0.00s CPU      0.13s WALL (       6 calls)

     Parallel routines
     fft_scatter  :   1603.08s CPU   1812.62s WALL (  453326 calls)

     PWSCF        :     1h58m CPU        2h 4m WALL


   This run was terminated on:  16:58:46   3Jul2015            

=------------------------------------------------------------------------------=
   JOB DONE.
=------------------------------------------------------------------------------=
